Protein in INSANE! Membrane UpperLeaflet>POPC=1.0 LowerLeaflet>POPC=1.0
246639
    1AU     AUC    1  18.336  29.159   7.495
    1AU     AUC    2  18.613  29.164   7.330
    1AU     AUC    3  18.593  29.145   7.665
    1AU     AUC    4  18.058  29.154   7.333
    1AU     AUC    5  18.078  29.194   7.679
    1AU     AUC    6  18.167  29.431   7.496
    1AU     AUC    7  18.514  29.428   7.485
    1AU     AUC    8  18.152  28.903   7.503
    1AU     AUC    9  18.502  28.874   7.493
    1AU     AUC   10  18.343  28.982   7.763
    1AU     AUC   11  18.328  29.348   7.752
    1AU     AUC   12  18.329  28.994   7.225
    1AU     AUC   13  18.359  29.312   7.220
    1AU     AUC   14  18.941  29.165   7.172
    1AU     AUC   15  18.948  29.137   7.509
    1AU     AUC   16  18.887  29.119   7.860
    1AU     AUC   17  17.746  29.152   7.168
    1AU     AUC   18  17.729  29.191   7.531
    1AU     AUC   19  17.789  29.226   7.865
    1AU     AUC   20  18.010  29.753   7.477
    1AU     AUC   21  18.368  29.781   7.436
    1AU     AUC   22  18.696  29.719   7.474
    1AU     AUC   23  17.946  28.618   7.510
    1AU     AUC   24  18.297  28.561   7.481
    1AU     AUC   25  18.669  28.564   7.470
    1AU     AUC   26  18.326  28.801   8.061
    1AU     AUC   27  18.339  29.166   8.096
    1AU     AUC   28  18.359  29.522   8.049
    1AU     AUC   29  18.354  28.821   6.946
    1AU     AUC   30  18.333  29.153   6.886
    1AU     AUC   31  18.341  29.481   6.910
    1AU     AUC   32  18.608  28.925   7.983
    1AU     AUC   33  18.637  29.312   7.984
    1AU     AUC   34  18.661  28.997   7.004
    1AU     AUC   35  18.655  29.349   7.028
    1AU     AUC   36  18.041  29.040   8.017
    1AU     AUC   37  18.061  29.417   7.990
    1AU     AUC   38  18.026  28.971   7.043
    1AU     AUC   39  18.006  29.299   6.995
    1AU     AUC   40  18.871  29.441   7.330
    1AU     AUC   41  18.808  29.418   7.689
    1AU     AUC   42  17.848  29.462   7.328
    1AU     AUC   43  17.870  29.517   7.679
    1AU     AUC   44  18.827  28.856   7.328
    1AU     AUC   45  18.787  28.807   7.667
    1AU     AUC   46  17.814  28.855   7.361
    1AU     AUC   47  17.870  28.914   7.715
    1AU     AUC   48  18.188  29.693   7.756
    1AU     AUC   49  18.528  29.640   7.761
    1AU     AUC   50  18.145  28.687   7.795
    1AU     AUC   51  18.461  28.625   7.761
    1AU     AUC   52  18.168  29.588   7.179
    1AU     AUC   53  18.549  29.619   7.161
    1AU     AUC   54  18.136  28.690   7.202
    1AU     AUC   55  18.537  28.707   7.199
    1AU    AUSL   56  18.878  29.049   8.224
    1AU    AUSL   57  18.606  28.631   8.148
    1AU     AUL   58  18.907  28.647   8.333
    1AU       S   59  18.986  28.275   8.084
    1AU     LIG   60  18.864  28.134   8.465
    1AU     LIG   61  19.011  27.770   8.677
    1AU     LIG   62  19.203  27.490   8.997
    1AU     LIG   63  19.117  27.515   9.467
    1AU       S   64  19.109  29.053   8.337
    1AU     LIG   65  18.991  29.065   8.783
    1AU     LIG   66  19.146  29.021   9.213
    1AU     LIG   67  19.447  28.864   9.544
    1AU     LIG   68  19.871  28.914   9.758
    1AU    AUSL   69  18.472  28.961   8.405
    1AU    AUSL   70  18.217  29.348   8.437
    1AU     AUL   71  18.417  29.259   8.741
    1AU       S   72  18.584  28.882   8.553
    1AU     LIG   73  18.559  28.821   8.989
    1AU     LIG   74  18.815  28.644   9.346
    1AU     LIG   75  19.041  28.501   9.738
    1AU     LIG   76  19.264  28.511  10.152
    1AU       S   77  18.012  29.077   8.638
    1AU     LIG   78  18.012  29.082   9.124
    1AU     LIG   79  17.753  29.113   9.530
    1AU     LIG   80  17.615  29.175   9.977
    1AU     LIG   81  17.653  29.460  10.367
    1AU    AUSL   82  18.534  29.339   8.152
    1AU    AUSL   83  18.977  29.461   8.109
    1AU     AUL   84  18.773  29.353   8.438
    1AU       S   85  18.444  29.716   8.600
    1AU     LIG   86  18.830  29.605   8.867
    1AU     LIG   87  19.014  29.719   9.295
    1AU     LIG   88  18.978  29.926   9.742
    1AU     LIG   89  18.924  30.205  10.147
    1AU       S   90  19.136  29.611   8.282
    1AU     LIG   91  19.576  29.646   8.255
    1AU     LIG   92  19.884  29.868   8.534
    1AU     LIG   93  20.140  30.168   8.817
    1AU     LIG   94  20.542  30.165   9.083
    1AU    AUSL   95  18.802  29.216   6.889
    1AU    AUSL   96  18.731  29.653   6.851
    1AU     AUL   97  18.915  29.539   6.621
    1AU       S   98  18.717  29.325   6.284
    1AU     LIG   99  19.182  29.309   6.133
    1AU     LIG  100  19.249  29.032   5.752
    1AU     LIG  101  19.474  28.913   5.351
    1AU     LIG  102  19.773  28.813   4.998
    1AU       S  103  19.130  29.880   6.873
    1AU     LIG  104  19.309  30.076   6.495
    1AU     LIG  105  19.530  30.220   6.120
    1AU     LIG  106  19.684  30.293   5.684
    1AU     LIG  107  19.554  30.484   5.255
    1AU    AUSL  108  18.631  28.963   6.571
    1AU    AUSL  109  19.069  28.879   6.897
    1AU     AUL  110  19.005  29.073   6.639
    1AU       S  111  19.154  28.620   6.650
    1AU     LIG  112  19.334  28.296   6.343
    1AU     LIG  113  19.624  27.973   6.472
    1AU     LIG  114  19.952  27.671   6.447
    1AU     LIG  115  20.153  27.601   6.070
    1AU       S  116  18.749  29.136   6.254
    1AU     LIG  117  18.682  28.755   6.055
    1AU     LIG  118  18.856  28.603   5.629
    1AU     LIG  119  18.907  28.554   5.153
    1AU     LIG  120  18.980  28.455   4.686
    1AU    AUSL  121  18.444  29.364   6.687
    1AU    AUSL  122  18.228  28.963   6.740
    1AU     AUL  123  18.352  29.001   6.432
    1AU       S  124  17.913  28.991   6.288
    1AU     LIG  125  18.096  28.763   5.970
    1AU     LIG  126  17.880  28.636   5.578
    1AU     LIG  127  17.639  28.632   5.171
    1AU     LIG  128  17.417  28.653   4.747
    1AU       S  129  18.491  29.450   6.404
    1AU     LIG  130  18.352  29.221   5.968
    1AU     LIG  131  18.714  29.102   5.677
    1AU     LIG  132  18.978  29.056   5.286
    1AU     LIG  133  19.112  29.206   4.854
    1AU    AUSL  134  17.807  29.297   8.265
    1AU    AUSL  135  18.099  29.662   8.159
    1AU     AUL  136  17.969  29.573   8.486
    1AU       S  137  17.811  29.165   8.672
    1AU     LIG  138  17.496  29.082   8.944
    1AU     LIG  139  17.356  28.870   9.317
    1AU     LIG  140  17.197  28.946   9.740
    1AU     LIG  141  16.795  28.917   9.987
    1AU       S  142  17.727  29.887   8.235
    1AU     LIG  143  17.811  30.069   8.629
    1AU     LIG  144  17.639  30.386   8.925
    1AU     LIG  145  17.302  30.632   9.140
    1AU     LIG  146  17.002  30.733   9.478
    1AU    AUSL  147  18.120  29.012   8.157
    1AU    AUSL  148  17.694  28.874   8.141
    1AU     AUL  149  17.601  29.106   8.269
    1AU       S  150  17.597  28.651   8.395
    1AU     LIG  151  17.158  28.526   8.222
    1AU     LIG  152  16.924  28.139   8.359
    1AU     LIG  153  16.748  27.905   8.722
    1AU     LIG  154  16.551  27.629   9.033
    1AU       S  155  17.994  28.946   8.548
    1AU     LIG  156  17.799  28.678   8.894
    1AU     LIG  157  17.812  28.635   9.342
    1AU     LIG  158  17.625  28.651   9.767
    1AU     LIG  159  17.550  28.357  10.134
    1AU    AUSL  160  17.797  29.041   6.783
    1AU    AUSL  161  17.987  28.661   6.932
    1AU     AUL  162  18.030  28.689   6.618
    1AU       S  163  17.722  28.914   6.352
    1AU     LIG  164  17.559  28.762   5.969
    1AU     LIG  165  17.377  28.852   5.561
    1AU     LIG  166  17.156  28.850   5.150
    1AU     LIG  167  16.838  28.903   4.805
    1AU       S  168  17.613  28.559   6.772
    1AU     LIG  169  17.334  28.288   6.528
    1AU     LIG  170  17.028  27.953   6.385
    1AU     LIG  171  16.988  27.636   6.041
    1AU     LIG  172  16.672  27.468   5.743
    1AU    AUSL  173  18.029  29.347   6.571
    1AU    AUSL  174  17.643  29.443   6.903
    1AU     AUL  175  17.613  29.251   6.637
    1AU       S  176  17.651  29.702   6.650
    1AU     LIG  177  17.244  29.918   6.591
    1AU     LIG  178  16.977  30.226   6.362
    1AU     LIG  179  16.820  30.344   5.946
    1AU     LIG  180  16.416  30.288   5.704
    1AU       S  181  17.960  29.260   6.308
    1AU     LIG  182  17.831  29.190   5.838
    1AU     LIG  183  17.784  29.104   5.381
    1AU     LIG  184  17.573  29.116   4.962
    1AU     LIG  185  17.514  29.381   4.567
    1AU    AUSL  186  19.141  29.661   7.519
    1AU    AUSL  187  19.093  29.465   7.090
    1AU     AUL  188  19.422  29.760   7.306
    1AU       S  189  19.201  29.570   6.969
    1AU     LIG  190  19.437  29.583   6.573
    1AU     LIG  191  19.780  29.811   6.331
    1AU     LIG  192  20.033  30.133   6.093
    1AU     LIG  193  20.301  30.361   5.815
    1AU       S  194  19.513  29.542   7.716
    1AU     LIG  195  19.884  29.846   7.658
    1AU     LIG  196  20.197  30.170   7.855
    1AU     LIG  197  20.578  30.458   7.822
    1AU     LIG  198  20.915  30.804   7.695
    1AU    AUSL  199  19.325  29.253   7.390
    1AU    AUSL  200  19.263  28.919   7.702
    1AU     AUL  201  19.633  29.032   7.730
    1AU       S  202  19.447  29.318   7.436
    1AU     LIG  203  19.890  29.394   7.381
    1AU     LIG  204  20.314  29.611   7.281
    1AU     LIG  205  20.731  29.539   7.048
    1AU     LIG  206  21.194  29.416   7.049
    1AU       S  207  19.504  28.643   7.519
    1AU     LIG  208  19.816  28.526   7.812
    1AU     LIG  209  20.183  28.230   7.858
    1AU     LIG  210  20.669  28.341   7.846
    1AU     LIG  211  21.038  28.177   8.101
    1AU    AUSL  212  19.032  29.283   7.726
    1AU    AUSL  213  18.786  29.680   7.774
    1AU     AUL  214  19.104  29.737   7.824
    1AU       S  215  19.098  29.920   8.241
    1AU     LIG  216  19.491  30.147   8.306
    1AU     LIG  217  19.878  30.370   8.411
    1AU     LIG  218  20.076  30.711   8.627
    1AU     LIG  219  20.449  30.970   8.622
    1AU       S  220  19.369  29.367   7.865
    1AU     LIG  221  19.933  29.395   7.912
    1AU     LIG  222  20.352  29.661   7.820
    1AU     LIG  223  20.774  29.934   7.892
    1AU     LIG  224  21.129  29.832   8.221
    1AU    AUSL  225  17.677  29.736   7.513
    1AU    AUSL  226  17.768  29.513   7.898
    1AU     AUL  227  17.458  29.849   7.758
    1AU       S  228  17.598  29.691   8.168
    1AU     LIG  229  17.425  29.720   8.596
    1AU     LIG  230  17.234  30.093   8.818
    1AU     LIG  231  16.940  30.264   9.156
    1AU     LIG  232  16.609  30.355   9.487
    1AU       S  233  17.692  30.133   7.450
    1AU     LIG  234  17.204  30.163   7.421
    1AU     LIG  235  16.797  30.393   7.583
    1AU     LIG  236  16.394  30.626   7.570
    1AU     LIG  237  15.939  30.723   7.557
    1AU    AUSL  238  17.635  29.341   7.317
    1AU    AUSL  239  17.777  29.823   7.106
    1AU     AUL  240  17.471  29.682   7.162
    1AU       S  241  17.272  29.168   6.981
    1AU     LIG  242  16.881  29.456   7.108
    1AU     LIG  243  16.442  29.663   7.107
    1AU     LIG  244  15.958  29.666   7.070
    1AU     LIG  245  15.585  29.696   6.755
    1AU       S  246  17.603  30.094   6.906
    1AU     LIG  247  17.391  30.435   6.612
    1AU     LIG  248  17.321  30.840   6.337
    1AU     LIG  249  17.013  31.145   6.146
    1AU     LIG  250  16.523  31.163   6.169
    1AU    AUSL  251  17.407  29.395   7.704
    1AU    AUSL  252  17.362  29.022   7.413
    1AU     AUL  253  17.250  29.354   7.418
    1AU       S  254  17.172  28.954   7.682
    1AU     LIG  255  16.815  28.971   7.351
    1AU     LIG  256  16.423  28.748   7.092
    1AU     LIG  257  15.908  28.573   7.047
    1AU     LIG  258  15.533  28.243   6.983
    1AU       S  259  17.276  29.421   7.917
    1AU     LIG  260  16.841  29.463   7.737
    1AU     LIG  261  16.460  29.721   7.905
    1AU     LIG  262  15.971  29.724   7.960
    1AU     LIG  263  15.580  30.005   8.003
    1AU    AUSL  264  19.038  28.572   7.522
    1AU    AUSL  265  18.870  28.830   7.858
    1AU     AUL  266  19.195  28.720   7.920
    1AU       S  267  19.339  28.460   7.528
    1AU     LIG  268  19.699  28.149   7.493
    1AU     LIG  269  20.001  27.801   7.607
    1AU     LIG  270  20.375  27.507   7.559
    1AU     LIG  271  20.830  27.436   7.514
    1AU       S  272  19.106  28.276   7.935
    1AU     LIG  273  19.356  28.040   8.317
    1AU     LIG  274  19.529  27.769   8.668
    1AU     LIG  275  19.889  27.630   8.925
    1AU     LIG  276  20.356  27.541   8.964
    1AU    AUSL  277  19.023  28.961   7.315
    1AU    AUSL  278  18.947  28.501   7.100
    1AU     AUL  279  19.192  28.664   7.135
    1AU       S  280  19.553  28.829   7.323
    1AU     LIG  281  19.973  28.787   7.360
    1AU     LIG  282  20.149  28.371   7.347
    1AU     LIG  283  20.489  28.235   7.068
    1AU     LIG  284  20.923  28.270   7.028
    1AU       S  285  19.133  28.363   6.783
    1AU     LIG  286  19.224  27.902   6.793
    1AU     LIG  287  19.482  27.498   6.642
    1AU     LIG  288  19.780  27.186   6.389
    1AU     LIG  289  20.144  27.105   6.089
    1AU    AUSL  290  17.570  28.649   7.567
    1AU    AUSL  291  17.686  28.883   7.167
    1AU     AUL  292  17.334  28.724   7.292
    1AU       S  293  17.492  28.701   6.861
    1AU     LIG  294  17.054  28.551   6.892
    1AU     LIG  295  16.759  28.218   6.765
    1AU     LIG  296  16.485  27.963   6.500
    1AU     LIG  297  16.503  27.874   6.059
    1AU       S  298  17.145  28.710   7.730
    1AU     LIG  299  16.717  28.530   7.599
    1AU     LIG  300  16.443  28.171   7.731
    1AU     LIG  301  15.996  28.022   7.768
    1AU     LIG  302  15.684  27.694   7.956
    1AU    AUSL  303  17.652  29.045   7.751
    1AU    AUSL  304  17.915  28.663   7.828
    1AU     AUL  305  17.572  28.625   7.901
    1AU       S  306  17.629  28.428   8.311
    1AU     LIG  307  17.405  28.043   8.177
    1AU     LIG  308  17.077  27.670   8.161
    1AU     LIG  309  16.707  27.504   8.397
    1AU     LIG  310  16.445  27.235   8.718
    1AU       S  311  17.245  28.952   7.878
    1AU     LIG  312  16.723  28.973   7.885
    1AU     LIG  313  16.325  28.725   7.915
    1AU     LIG  314  15.883  28.568   7.906
    1AU     LIG  315  15.433  28.574   8.018
    1AU    AUSL  316  18.373  29.852   7.882
    1AU    AUSL  317  17.932  29.910   7.823
    1AU     AUL  318  18.192  29.982   8.165
    1AU       S  319  17.787  30.126   7.969
    1AU     LIG  320  17.464  30.301   8.322
    1AU     LIG  321  17.266  30.614   8.631
    1AU     LIG  322  17.053  31.021   8.822
    1AU     LIG  323  16.652  31.298   8.761
    1AU       S  324  18.404  30.339   7.948
    1AU     LIG  325  18.530  30.538   8.304
    1AU     LIG  326  18.572  30.979   8.433
    1AU     LIG  327  18.459  31.431   8.549
    1AU     LIG  328  18.533  31.881   8.691
    1AU    AUSL  329  18.203  30.126   7.571
    1AU    AUSL  330  18.524  30.063   7.184
    1AU     AUL  331  18.280  30.326   7.317
    1AU       S  332  18.234  30.333   7.790
    1AU     LIG  333  18.255  30.823   7.942
    1AU     LIG  334  18.406  31.276   8.049
    1AU     LIG  335  18.286  31.731   8.154
    1AU     LIG  336  17.836  31.899   8.202
    1AU       S  337  18.479  30.373   6.893
    1AU     LIG  338  18.769  30.692   6.794
    1AU     LIG  339  18.833  31.136   6.790
    1AU     LIG  340  18.770  31.568   6.774
    1AU     LIG  341  18.737  31.827   6.426
    1AU    AUSL  342  18.654  30.049   7.600
    1AU    AUSL  343  18.644  29.750   8.196
    1AU     AUL  344  18.724  30.009   7.965
    1AU       S  345  18.885  29.837   8.402
    1AU     LIG  346  19.281  29.872   8.705
    1AU     LIG  347  19.610  30.200   8.828
    1AU     LIG  348  19.846  30.543   9.063
    1AU     LIG  349  19.763  30.872   9.398
    1AU       S  350  18.599  30.385   7.694
    1AU     LIG  351  18.768  30.811   7.930
    1AU     LIG  352  18.914  31.244   8.140
    1AU     LIG  353  18.810  31.709   8.280
    1AU     LIG  354  18.976  32.116   8.474
    1AU    AUSL  355  18.285  28.432   7.927
    1AU    AUSL  356  18.700  28.436   7.757
    1AU     AUL  357  18.522  28.310   8.132
    1AU       S  358  18.258  27.952   7.979
    1AU     LIG  359  18.122  27.501   8.127
    1AU     LIG  360  18.087  27.054   8.287
    1AU     LIG  361  18.389  26.819   8.526
    1AU     LIG  362  18.413  26.425   8.739
    1AU       S  363  18.859  28.206   7.799
    1AU     LIG  364  18.972  27.776   8.088
    1AU     LIG  365  19.248  27.439   8.374
    1AU     LIG  366  19.567  27.237   8.705
    1AU     LIG  367  20.014  27.137   8.844
    1AU    AUSL  368  17.948  28.278   7.651
    1AU    AUSL  369  18.072  28.604   8.255
    1AU     AUL  370  17.958  28.321   8.008
    1AU       S  371  18.051  27.898   7.807
    1AU     LIG  372  17.920  27.458   7.662
    1AU     LIG  373  17.762  27.086   7.891
    1AU     LIG  374  17.612  26.743   8.182
    1AU     LIG  375  17.408  26.360   8.360
    1AU       S  376  17.862  28.485   8.449
    1AU     LIG  377  17.516  28.185   8.704
    1AU     LIG  378  17.247  27.805   8.626
    1AU     LIG  379  17.011  27.454   8.800
    1AU     LIG  380  16.878  27.260   9.188
    1AU    AUSL  381  18.389  28.190   7.581
    1AU    AUSL  382  18.151  28.471   7.315
    1AU     AUL  383  18.059  28.114   7.394
    1AU       S  384  18.432  28.017   7.147
    1AU     LIG  385  18.136  27.642   7.227
    1AU     LIG  386  17.886  27.269   7.063
    1AU     LIG  387  17.855  26.867   6.825
    1AU     LIG  388  18.099  26.557   6.609
    1AU       S  389  18.398  27.988   7.725
    1AU     LIG  390  18.422  27.527   7.695
    1AU     LIG  391  18.331  27.092   7.841
    1AU     LIG  392  18.481  26.672   8.043
    1AU     LIG  393  18.483  26.244   8.253
    1AU    AUSL  394  18.336  29.840   6.844
    1AU    AUSL  395  18.801  29.746   7.269
    1AU     AUL  396  18.674  29.961   6.880
    1AU       S  397  18.300  30.117   6.634
    1AU     LIG  398  18.469  30.515   6.402
    1AU     LIG  399  18.564  30.987   6.366
    1AU     LIG  400  18.455  31.427   6.209
    1AU     LIG  401  18.298  31.846   6.063
    1AU       S  402  19.042  29.959   7.150
    1AU     LIG  403  19.534  30.128   6.958
    1AU     LIG  404  19.824  30.276   6.564
    1AU     LIG  405  20.161  30.579   6.332
    1AU     LIG  406  20.266  31.050   6.346
    1AU    AUSL  407  18.170  29.822   7.278
    1AU    AUSL  408  18.070  29.530   6.953
    1AU     AUL  409  18.041  29.987   7.022
    1AU       S  410  18.263  30.333   6.843
    1AU     LIG  411  18.266  30.824   6.775
    1AU     LIG  412  18.328  31.294   6.718
    1AU     LIG  413  18.213  31.725   6.562
    1AU     LIG  414  17.949  32.126   6.482
    1AU       S  415  17.875  29.796   6.635
    1AU     LIG  416  17.668  30.102   6.332
    1AU     LIG  417  17.365  30.383   6.077
    1AU     LIG  418  17.196  30.638   5.712
    1AU     LIG  419  17.318  30.703   5.246
    1AU    AUSL  420  18.350  28.426   6.913
    1AU    AUSL  421  17.735  28.438   7.223
    1AU     AUL  422  18.001  28.306   6.963
    1AU       S  423  17.533  28.400   7.005
    1AU     LIG  424  17.198  28.031   6.950
    1AU     LIG  425  16.851  27.694   6.790
    1AU     LIG  426  16.662  27.490   6.391
    1AU     LIG  427  16.300  27.394   6.092
    1AU       S  428  18.397  28.037   6.974
    1AU     LIG  429  18.409  27.607   6.786
    1AU     LIG  430  18.241  27.184   6.667
    1AU     LIG  431  18.167  26.923   6.278
    1AU     LIG  432  18.026  26.497   6.107
    1AU    AUSL  433  18.582  28.448   7.300
    1AU    AUSL  434  18.621  28.761   6.946
    1AU     AUL  435  18.681  28.395   6.896
    1AU       S  436  18.685  28.076   7.239
    1AU     LIG  437  18.644  27.572   7.239
    1AU     LIG  438  18.375  27.155   7.181
    1AU     LIG  439  18.262  26.666   7.073
    1AU     LIG  440  18.490  26.301   6.808
    1AU       S  441  18.910  28.581   6.550
    1AU     LIG  442  18.852  28.120   6.458
    1AU     LIG  443  19.149  27.788   6.301
    1AU     LIG  444  19.535  27.588   6.136
    1AU     LIG  445  19.748  27.313   5.856
    2AU     AUC  446   6.173  18.446   7.490
    2AU     AUC  447   6.468  18.437   7.326
    2AU     AUC  448   6.428  18.428   7.663
    2AU     AUC  449   5.899  18.444   7.325
    2AU     AUC  450   5.910  18.491   7.669
    2AU     AUC  451   6.013  18.724   7.486
    2AU     AUC  452   6.360  18.706   7.480
    2AU     AUC  453   5.974  18.183   7.491
    2AU     AUC  454   6.330  18.168   7.498
    2AU     AUC  455   6.168  18.273   7.758
    2AU     AUC  456   6.168  18.640   7.743
    2AU     AUC  457   6.169  18.283   7.224
    2AU     AUC  458   6.211  18.596   7.218
    2AU     AUC  459   6.805  18.425   7.180
    2AU     AUC  460   6.790  18.409   7.516
    2AU     AUC  461   6.721  18.396   7.868
    2AU     AUC  462   5.585  18.458   7.159
    2AU     AUC  463   5.564  18.498   7.520
    2AU     AUC  464   5.621  18.541   7.853
    2AU     AUC  465   5.865  19.052   7.452
    2AU     AUC  466   6.221  19.065   7.430
    2AU     AUC  467   6.544  18.993   7.468
    2AU     AUC  468   5.764  17.910   7.488
    2AU     AUC  469   6.095  17.840   7.461
    2AU     AUC  470   6.485  17.840   7.480
    2AU     AUC  471   6.141  18.100   8.056
    2AU     AUC  472   6.168  18.458   8.089
    2AU     AUC  473   6.205  18.816   8.035
    2AU     AUC  474   6.200  18.115   6.941
    2AU     AUC  475   6.200  18.425   6.881
    2AU     AUC  476   6.211  18.744   6.912
    2AU     AUC  477   6.433  18.202   7.984
    2AU     AUC  478   6.470  18.587   7.986
    2AU     AUC  479   6.521  18.260   7.016
    2AU     AUC  480   6.532  18.607   7.028
    2AU     AUC  481   5.866  18.347   8.006
    2AU     AUC  482   5.903  18.718   7.972
    2AU     AUC  483   5.872  18.274   7.032
    2AU     AUC  484   5.864  18.582   6.985
    2AU     AUC  485   6.723  18.711   7.329
    2AU     AUC  486   6.646  18.695   7.690
    2AU     AUC  487   5.690  18.762   7.323
    2AU     AUC  488   5.721  18.830   7.667
    2AU     AUC  489   6.671  18.115   7.347
    2AU     AUC  490   6.618  18.088   7.674
    2AU     AUC  491   5.631  18.168   7.354
    2AU     AUC  492   5.692  18.222   7.703
    2AU     AUC  493   6.048  18.995   7.737
    2AU     AUC  494   6.373  18.929   7.757
    2AU     AUC  495   5.956  17.994   7.782
    2AU     AUC  496   6.278  17.921   7.760
    2AU     AUC  497   6.018  18.878   7.173
    2AU     AUC  498   6.404  18.890   7.155
    2AU     AUC  499   5.953  17.973   7.200
    2AU     AUC  500   6.342  17.987   7.208
    2AU    AUSL  501   6.705  18.322   8.236
    2AU    AUSL  502   6.425  17.910   8.151
    2AU     AUL  503   6.733  17.909   8.317
    2AU       S  504   6.740  17.502   8.090
    2AU     LIG  505   6.638  17.309   8.424
    2AU     LIG  506   6.915  17.092   8.707
    2AU     LIG  507   7.222  16.854   8.935
    2AU     LIG  508   7.512  16.801   9.274
    2AU       S  509   6.931  18.315   8.389
    2AU     LIG  510   6.803  18.367   8.833
    2AU     LIG  511   6.928  18.344   9.271
    2AU     LIG  512   7.179  18.115   9.598
    2AU     LIG  513   7.470  17.981   9.950
    2AU    AUSL  514   6.290  18.244   8.401
    2AU    AUSL  515   6.051  18.655   8.427
    2AU     AUL  516   6.233  18.526   8.725
    2AU       S  517   6.441  18.143   8.581
    2AU     LIG  518   6.323  18.105   8.998
    2AU     LIG  519   6.583  17.965   9.355
    2AU     LIG  520   6.782  17.806   9.749
    2AU     LIG  521   6.835  17.617  10.179
    2AU       S  522   5.805  18.399   8.629
    2AU     LIG  523   5.886  18.404   9.100
    2AU     LIG  524   5.610  18.417   9.476
    2AU     LIG  525   5.436  18.457   9.907
    2AU     LIG  526   5.341  18.678  10.310
    2AU    AUSL  527   6.368  18.615   8.146
    2AU    AUSL  528   6.810  18.732   8.118
    2AU     AUL  529   6.601  18.629   8.441
    2AU       S  530   6.304  18.989   8.620
    2AU     LIG  531   6.661  18.861   8.907
    2AU     LIG  532   6.758  18.831   9.392
    2AU     LIG  533   6.704  18.926   9.885
    2AU     LIG  534   6.730  19.009  10.372
    2AU       S  535   6.970  18.881   8.294
    2AU     LIG  536   7.403  18.952   8.308
    2AU     LIG  537   7.688  19.208   8.577
    2AU     LIG  538   7.924  19.514   8.850
    2AU     LIG  539   8.104  19.722   9.225
    2AU    AUSL  540   6.714  18.470   6.885
    2AU    AUSL  541   6.624  18.909   6.820
    2AU     AUL  542   6.877  18.733   6.619
    2AU       S  543   6.558  18.627   6.326
    2AU     LIG  544   7.026  18.628   6.127
    2AU     LIG  545   7.132  18.302   5.817
    2AU     LIG  546   7.183  18.135   5.402
    2AU     LIG  547   7.288  18.117   4.963
    2AU       S  548   6.964  19.149   6.845
    2AU     LIG  549   7.087  19.386   6.463
    2AU     LIG  550   7.290  19.637   6.086
    2AU     LIG  551   7.564  19.856   5.739
    2AU     LIG  552   7.888  20.016   5.407
    2AU    AUSL  553   6.506  18.222   6.580
    2AU    AUSL  554   6.914  18.087   6.924
    2AU     AUL  555   6.890  18.263   6.655
    2AU       S  556   7.000  17.801   6.694
    2AU     LIG  557   7.216  17.525   6.372
    2AU     LIG  558   7.485  17.130   6.309
    2AU     LIG  559   7.901  17.033   6.100
    2AU     LIG  560   8.262  17.319   5.940
    2AU       S  561   6.633  18.429   6.307
    2AU     LIG  562   6.693  18.096   6.019
    2AU     LIG  563   6.776  17.888   5.592
    2AU     LIG  564   6.837  17.844   5.111
    2AU     LIG  565   7.021  17.788   4.677
    2AU    AUSL  566   6.322  18.601   6.744
    2AU    AUSL  567   6.082  18.222   6.694
    2AU     AUL  568   6.227  18.261   6.425
    2AU       S  569   5.775  18.282   6.278
    2AU     LIG  570   5.800  18.007   5.931
    2AU     LIG  571   5.744  17.825   5.511
    2AU     LIG  572   5.536  17.831   5.098
    2AU     LIG  573   5.244  17.935   4.743
    2AU       S  574   6.408  18.706   6.434
    2AU     LIG  575   6.327  18.495   5.923
    2AU     LIG  576   6.660  18.388   5.560
    2AU     LIG  577   6.831  18.362   5.104
    2AU     LIG  578   6.915  18.412   4.644
    2AU    AUSL  579   5.646  18.625   8.243
    2AU    AUSL  580   5.964  18.951   8.118
    2AU     AUL  581   5.830  18.899   8.454
    2AU       S  582   5.634  18.528   8.679
    2AU     LIG  583   5.397  18.274   8.962
    2AU     LIG  584   5.150  18.209   9.360
    2AU     LIG  585   4.964  18.263   9.787
    2AU     LIG  586   4.611  18.400  10.080
    2AU       S  587   5.577  19.196   8.196
    2AU     LIG  588   5.677  19.439   8.539
    2AU     LIG  589   5.472  19.497   8.949
    2AU     LIG  590   5.155  19.711   9.212
    2AU     LIG  591   4.848  19.700   9.567
    2AU    AUSL  592   5.944  18.316   8.153
    2AU    AUSL  593   5.511  18.206   8.138
    2AU     AUL  594   5.441  18.438   8.269
    2AU       S  595   5.404  17.986   8.403
    2AU     LIG  596   4.940  17.998   8.253
    2AU     LIG  597   4.575  17.694   8.342
    2AU     LIG  598   4.526  17.348   8.692
    2AU     LIG  599   4.272  17.006   8.922
    2AU       S  600   5.821  18.262   8.539
    2AU     LIG  601   5.807  17.954   8.888
    2AU     LIG  602   5.599  17.932   9.297
    2AU     LIG  603   5.430  17.970   9.730
    2AU     LIG  604   5.555  17.884  10.170
    2AU    AUSL  605   5.676  18.371   6.764
    2AU    AUSL  606   5.853  17.995   6.976
    2AU     AUL  607   5.851  17.990   6.623
    2AU       S  608   5.544  18.274   6.418
    2AU     LIG  609   5.320  18.019   6.146
    2AU     LIG  610   5.282  17.992   5.688
    2AU     LIG  611   5.129  18.103   5.262
    2AU     LIG  612   4.792  18.117   4.950
    2AU       S  613   5.432  17.883   6.769
    2AU     LIG  614   5.396  17.536   6.505
    2AU     LIG  615   5.072  17.223   6.367
    2AU     LIG  616   4.840  16.820   6.248
    2AU     LIG  617   4.502  16.602   5.996
    2AU    AUSL  618   5.950  18.648   6.538
    2AU    AUSL  619   5.458  18.728   6.902
    2AU     AUL  620   5.595  18.700   6.578
    2AU       S  621   5.203  18.910   6.735
    2AU     LIG  622   4.976  19.091   6.396
    2AU     LIG  623   4.929  19.391   6.051
    2AU     LIG  624   4.628  19.679   5.834
    2AU     LIG  625   4.141  19.672   5.788
    2AU       S  626   5.857  18.509   6.240
    2AU     LIG  627   5.546  18.445   5.867
    2AU     LIG  628   5.585  18.311   5.420
    2AU     LIG  629   5.493  18.338   4.966
    2AU     LIG  630   5.351  18.429   4.530
    2AU    AUSL  631   6.970  18.938   7.524
    2AU    AUSL  632   6.966  18.748   7.099
    2AU     AUL  633   7.252  19.064   7.358
    2AU       S  634   7.072  18.899   6.989
    2AU     LIG  635   7.354  18.932   6.618
    2AU     LIG  636   7.542  19.211   6.296
    2AU     LIG  637   7.797  19.538   6.092
    2AU     LIG  638   8.078  19.730   5.779
    2AU       S  639   7.360  18.804   7.738
    2AU     LIG  640   7.770  18.920   7.562
    2AU     LIG  641   8.212  19.099   7.529
    2AU     LIG  642   8.580  19.389   7.548
    2AU     LIG  643   8.659  19.857   7.574
    2AU    AUSL  644   7.169  18.526   7.408
    2AU    AUSL  645   7.097  18.194   7.722
    2AU     AUL  646   7.471  18.300   7.731
    2AU       S  647   7.298  18.611   7.458
    2AU     LIG  648   7.627  18.628   7.149
    2AU     LIG  649   8.090  18.764   7.134
    2AU     LIG  650   8.544  18.989   7.121
    2AU     LIG  651   8.923  19.073   6.848
    2AU       S  652   7.342  17.917   7.520
    2AU     LIG  653   7.644  17.803   7.843
    2AU     LIG  654   8.113  17.712   7.868
    2AU     LIG  655   8.557  17.846   7.922
    2AU     LIG  656   8.937  17.792   8.219
    2AU    AUSL  657   6.867  18.559   7.733
    2AU    AUSL  658   6.620  18.953   7.781
    2AU     AUL  659   6.951  19.002   7.833
    2AU       S  660   6.942  19.183   8.253
    2AU     LIG  661   7.296  19.466   8.350
    2AU     LIG  662   7.650  19.757   8.488
    2AU     LIG  663   7.967  20.052   8.680
    2AU     LIG  664   8.100  20.223   9.087
    2AU       S  665   7.207  18.630   7.888
    2AU     LIG  666   7.707  18.625   8.026
    2AU     LIG  667   8.138  18.737   7.898
    2AU     LIG  668   8.586  18.898   7.913
    2AU     LIG  669   8.987  19.145   8.008
    2AU    AUSL  670   5.535  19.060   7.489
    2AU    AUSL  671   5.612  18.834   7.872
    2AU     AUL  672   5.318  19.173   7.742
    2AU       S  673   5.440  19.024   8.161
    2AU     LIG  674   5.270  19.129   8.598
    2AU     LIG  675   4.967  19.331   8.903
    2AU     LIG  676   4.660  19.649   9.077
    2AU     LIG  677   4.443  20.064   9.154
    2AU       S  678   5.549  19.430   7.413
    2AU     LIG  679   5.051  19.440   7.394
    2AU     LIG  680   4.580  19.648   7.468
    2AU     LIG  681   4.176  19.932   7.533
    2AU     LIG  682   3.975  20.256   7.811
    2AU    AUSL  683   5.488  18.652   7.317
    2AU    AUSL  684   5.626  19.106   7.070
    2AU     AUL  685   5.320  19.004   7.183
    2AU       S  686   5.094  18.461   6.951
    2AU     LIG  687   4.722  18.751   6.824
    2AU     LIG  688   4.272  18.923   6.790
    2AU     LIG  689   3.875  19.192   6.795
    2AU     LIG  690   3.483  19.461   6.837
    2AU       S  691   5.465  19.356   6.881
    2AU     LIG  692   5.175  19.570   6.518
    2AU     LIG  693   4.972  19.889   6.192
    2AU     LIG  694   4.732  20.305   6.080
    2AU     LIG  695   4.627  20.789   6.114
    2AU    AUSL  696   5.243  18.724   7.686
    2AU    AUSL  697   5.193  18.348   7.395
    2AU     AUL  698   5.088  18.662   7.395
    2AU       S  699   4.942  18.265   7.641
    2AU     LIG  700   4.563  18.001   7.391
    2AU     LIG  701   4.175  17.872   7.146
    2AU     LIG  702   3.752  17.794   7.286
    2AU     LIG  703   3.345  17.908   7.100
    2AU       S  704   5.137  18.725   7.908
    2AU     LIG  705   4.708  18.812   7.768
    2AU     LIG  706   4.290  18.995   7.965
    2AU     LIG  707   4.007  19.363   8.144
    2AU     LIG  708   3.544  19.539   8.227
    2AU    AUSL  709   6.877  17.840   7.551
    2AU    AUSL  710   6.695  18.112   7.865
    2AU     AUL  711   7.031  18.010   7.938
    2AU       S  712   7.194  17.735   7.577
    2AU     LIG  713   7.544  17.466   7.442
    2AU     LIG  714   7.990  17.353   7.474
    2AU     LIG  715   8.242  17.014   7.708
    2AU     LIG  716   8.376  16.591   7.944
    2AU       S  717   6.891  17.582   7.974
    2AU     LIG  718   7.148  17.457   8.366
    2AU     LIG  719   7.430  17.149   8.571
    2AU     LIG  720   7.714  16.837   8.783
    2AU     LIG  721   8.002  16.701   9.135
    2AU    AUSL  722   6.877  18.222   7.327
    2AU    AUSL  723   6.742  17.737   7.147
    2AU     AUL  724   7.010  17.861   7.170
    2AU       S  725   7.359  18.096   7.320
    2AU     LIG  726   7.617  17.806   7.057
    2AU     LIG  727   8.091  17.666   7.004
    2AU     LIG  728   8.439  17.677   6.680
    2AU     LIG  729   8.945  17.721   6.752
    2AU       S  730   6.941  17.553   6.813
    2AU     LIG  731   7.150  17.156   6.715
    2AU     LIG  732   7.146  16.709   6.589
    2AU     LIG  733   7.450  16.368   6.419
    2AU     LIG  734   7.731  16.234   6.059
    2AU    AUSL  735   5.374  17.972   7.555
    2AU    AUSL  736   5.500  18.212   7.126
    2AU     AUL  737   5.149  18.062   7.256
    2AU       S  738   5.352  18.039   6.839
    2AU     LIG  739   4.989  17.862   6.543
    2AU     LIG  740   4.656  17.521   6.474
    2AU     LIG  741   4.423  17.120   6.323
    2AU     LIG  742   4.070  16.825   6.187
    2AU       S  743   4.961  17.993   7.684
    2AU     LIG  744   4.664  17.600   7.700
    2AU     LIG  745   4.342  17.440   7.383
    2AU     LIG  746   3.957  17.281   7.144
    2AU     LIG  747   3.560  17.061   7.385
    2AU    AUSL  748   5.471  18.366   7.742
    2AU    AUSL  749   5.711  17.978   7.824
    2AU     AUL  750   5.362  17.988   7.906
    2AU       S  751   5.400  17.759   8.298
    2AU     LIG  752   5.023  17.512   8.120
    2AU     LIG  753   4.639  17.218   8.169
    2AU     LIG  754   4.379  16.906   8.421
    2AU     LIG  755   4.083  16.601   8.656
    2AU       S  756   5.003  18.272   7.828
    2AU     LIG  757   4.536  18.032   7.921
    2AU     LIG  758   4.161  17.846   7.662
    2AU     LIG  759   3.707  17.832   7.800
    2AU     LIG  760   3.237  17.824   7.948
    2AU    AUSL  761   6.239  19.188   7.879
    2AU    AUSL  762   5.803  19.221   7.794
    2AU     AUL  763   6.040  19.276   8.162
    2AU       S  764   5.667  19.433   7.925
    2AU     LIG  765   5.291  19.590   8.208
    2AU     LIG  766   5.139  19.733   8.635
    2AU     LIG  767   4.908  20.069   8.884
    2AU     LIG  768   4.619  20.445   8.838
    2AU       S  769   6.256  19.609   7.921
    2AU     LIG  770   6.270  19.740   8.318
    2AU     LIG  771   6.282  20.180   8.455
    2AU     LIG  772   6.383  20.629   8.546
    2AU     LIG  773   6.672  20.951   8.724
    2AU    AUSL  774   6.084  19.415   7.525
    2AU    AUSL  775   6.376  19.329   7.167
    2AU     AUL  776   6.314  19.673   7.315
    2AU       S  777   6.091  19.644   7.739
    2AU     LIG  778   6.212  20.107   7.929
    2AU     LIG  779   6.219  20.570   8.060
    2AU     LIG  780   5.919  20.870   8.234
    2AU     LIG  781   5.712  21.204   8.443
    2AU       S  782   6.111  19.505   6.942
    2AU     LIG  783   6.544  19.740   6.888
    2AU     LIG  784   6.653  20.199   6.844
    2AU     LIG  785   6.721  20.665   6.736
    2AU     LIG  786   7.089  21.003   6.806
    2AU    AUSL  787   6.536  19.320   7.578
    2AU    AUSL  788   6.474  19.025   8.199
    2AU     AUL  789   6.588  19.284   7.967
    2AU       S  790   6.727  19.112   8.408
    2AU     LIG  791   7.100  19.158   8.726
    2AU     LIG  792   7.389  19.515   8.868
    2AU     LIG  793   7.627  19.890   9.043
    2AU     LIG  794   7.740  19.980   9.481
    2AU       S  795   6.465  19.674   7.752
    2AU     LIG  796   6.679  19.932   8.063
    2AU     LIG  797   6.685  20.375   8.200
    2AU     LIG  798   6.704  20.842   8.188
    2AU     LIG  799   6.954  21.208   8.321
    2AU    AUSL  800   6.090  17.759   7.913
    2AU    AUSL  801   6.508  17.730   7.752
    2AU     AUL  802   6.299  17.616   8.136
    2AU       S  803   6.024  17.275   7.990
    2AU     LIG  804   6.123  16.946   8.290
    2AU     LIG  805   6.202  16.524   8.487
    2AU     LIG  806   5.976  16.102   8.487
    2AU     LIG  807   6.094  15.679   8.657
    2AU       S  808   6.656  17.485   7.824
    2AU     LIG  809   6.994  17.088   8.030
    2AU     LIG  810   7.137  16.771   8.372
    2AU     LIG  811   7.370  16.457   8.648
    2AU     LIG  812   7.763  16.316   8.876
    2AU    AUSL  813   5.763  17.604   7.633
    2AU    AUSL  814   5.869  17.910   8.247
    2AU     AUL  815   5.734  17.652   7.996
    2AU       S  816   5.838  17.224   7.845
    2AU     LIG  817   5.600  16.827   7.893
    2AU     LIG  818   5.605  16.356   7.877
    2AU     LIG  819   5.665  15.937   8.064
    2AU     LIG  820   5.697  15.565   8.353
    2AU       S  821   5.655  17.811   8.441
    2AU     LIG  822   5.401  17.429   8.645
    2AU     LIG  823   5.003  17.192   8.554
    2AU     LIG  824   4.751  16.876   8.786
    2AU     LIG  825   4.600  16.703   9.205
    2AU    AUSL  826   6.197  17.477   7.592
    2AU    AUSL  827   5.953  17.625   7.239
    2AU     AUL  828   5.825  17.365   7.403
    2AU       S  829   6.189  17.322   7.123
    2AU     LIG  830   5.874  16.961   7.092
    2AU     LIG  831   5.749  16.487   7.106
    2AU     LIG  832   5.560  16.110   6.889
    2AU     LIG  833   5.394  15.687   6.761
    2AU       S  834   6.169  17.294   7.746
    2AU     LIG  835   6.094  16.803   7.767
    2AU     LIG  836   6.122  16.384   8.009
    2AU     LIG  837   6.413  16.058   8.231
    2AU     LIG  838   6.542  15.606   8.384
    2AU    AUSL  839   6.211  19.058   6.841
    2AU    AUSL  840   6.643  19.006   7.247
    2AU     AUL  841   6.512  19.236   6.864
    2AU       S  842   6.123  19.469   6.718
    2AU     LIG  843   6.258  19.874   6.495
    2AU     LIG  844   6.434  20.303   6.394
    2AU     LIG  845   6.311  20.744   6.290
    2AU     LIG  846   6.178  20.953   5.874
    2AU       S  847   6.879  19.234   7.141
    2AU     LIG  848   7.278  19.503   6.946
    2AU     LIG  849   7.520  19.678   6.551
    2AU     LIG  850   7.653  20.023   6.228
    2AU     LIG  851   7.888  20.266   5.886
    2AU    AUSL  852   6.011  19.103   7.243
    2AU    AUSL  853   5.900  18.778   6.942
    2AU     AUL  854   5.865  19.090   6.800
    2AU       S  855   5.926  19.485   7.070
    2AU     LIG  856   6.088  19.995   6.971
    2AU     LIG  857   6.188  20.468   6.814
    2AU     LIG  858   6.035  20.935   6.704
    2AU     LIG  859   5.675  21.231   6.546
    2AU       S  860   5.431  19.133   6.645
    2AU     LIG  861   5.439  19.265   6.205
    2AU     LIG  862   5.353  19.638   5.927
    2AU     LIG  863   5.095  19.921   5.647
    2AU     LIG  864   5.179  20.256   5.308
    2AU    AUSL  865   6.182  17.733   6.872
    2AU    AUSL  866   5.554  17.776   7.217
    2AU     AUL  867   5.809  17.609   6.929
    2AU       S  868   5.359  17.736   6.990
    2AU     LIG  869   5.010  17.441   6.853
    2AU     LIG  870   4.742  17.040   6.725
    2AU     LIG  871   4.471  16.649   6.571
    2AU     LIG  872   4.191  16.343   6.333
    2AU       S  873   6.217  17.346   6.904
    2AU     LIG  874   6.136  17.039   6.638
    2AU     LIG  875   6.004  16.631   6.679
    2AU     LIG  876   6.007  16.181   6.620
    2AU     LIG  877   6.082  15.874   6.276
    2AU    AUSL  878   6.353  17.759   7.304
    2AU    AUSL  879   6.466  18.046   6.964
    2AU     AUL  880   6.512  17.700   6.903
    2AU       S  881   6.410  17.357   7.197
    2AU     LIG  882   6.363  16.854   7.072
    2AU     LIG  883   6.274  16.387   7.046
    2AU     LIG  884   6.287  15.912   6.955
    2AU     LIG  885   6.422  15.474   6.831
    2AU       S  886   6.763  17.813   6.547
    2AU     LIG  887   6.713  17.414   6.367
    2AU     LIG  888   6.971  17.054   6.238
    2AU     LIG  889   7.251  16.727   6.071
    2AU     LIG  890   7.296  16.389   5.767
    3AU     AUC  891  10.798   0.175   7.490
    3AU     AUC  892  11.080   0.182   7.334
    3AU     AUC  893  11.048   0.164   7.668
    3AU     AUC  894  10.526   0.168   7.321
    3AU     AUC  895  10.534   0.212   7.665
    3AU     AUC  896  10.628   0.452   7.482
    3AU     AUC  897  10.974   0.442   7.484
    3AU     AUC  898  10.616  44.918   7.491
    3AU     AUC  899  10.966  44.888   7.493
    3AU     AUC  900  10.796  44.999   7.759
    3AU     AUC  901  10.784   0.368   7.744
    3AU     AUC  902  10.803   0.011   7.219
    3AU     AUC  903  10.828   0.330   7.212
    3AU     AUC  904  11.417   0.184   7.193
    3AU     AUC  905  11.409   0.156   7.528
    3AU     AUC  906  11.336   0.137   7.876
    3AU     AUC  907  10.210   0.163   7.151
    3AU     AUC  908  10.189   0.203   7.511
    3AU     AUC  909  10.239   0.246   7.843
    3AU     AUC  910  10.469   0.771   7.447
    3AU     AUC  911  10.827   0.794   7.429
    3AU     AUC  912  11.154   0.729   7.479
    3AU     AUC  913  10.412  44.637   7.489
    3AU     AUC  914  10.766  44.577   7.473
    3AU     AUC  915  11.138  44.577   7.479
    3AU     AUC  916  10.769  44.819   8.055
    3AU     AUC  917  10.782   0.183   8.091
    3AU     AUC  918  10.808   0.542   8.036
    3AU     AUC  919  10.840  44.841   6.940
    3AU     AUC  920  10.824   0.168   6.877
    3AU     AUC  921  10.820   0.480   6.904
    3AU     AUC  922  11.052  44.938   7.987
    3AU     AUC  923  11.082   0.327   7.989
    3AU     AUC  924  11.146   0.016   7.014
    3AU     AUC  925  11.136   0.364   7.031
    3AU     AUC  926  10.489   0.059   8.001
    3AU     AUC  927  10.511   0.434   7.967
    3AU     AUC  928  10.504  44.988   7.027
    3AU     AUC  929  10.479   0.306   6.984
    3AU     AUC  930  11.338   0.457   7.342
    3AU     AUC  931  11.263   0.434   7.700
    3AU     AUC  932  10.302   0.474   7.318
    3AU     AUC  933  10.331   0.540   7.660
    3AU     AUC  934  11.297  44.873   7.352
    3AU     AUC  935  11.243  44.820   7.685
    3AU     AUC  936  10.280  44.872   7.338
    3AU     AUC  937  10.327  44.931   7.695
    3AU     AUC  938  10.651   0.718   7.734
    3AU     AUC  939  10.981   0.661   7.760
    3AU     AUC  940  10.599  44.705   7.783
    3AU     AUC  941  10.916  44.639   7.760
    3AU     AUC  942  10.626   0.607   7.169
    3AU     AUC  943  11.009   0.632   7.162
    3AU     AUC  944  10.611  44.710   7.187
    3AU     AUC  945  11.015  44.725   7.201
    3AU    AUSL  946  11.318   0.063   8.243
    3AU    AUSL  947  11.042  44.648   8.155
    3AU     AUL  948  11.342  44.662   8.319
    3AU       S  949  11.389  44.222   8.153
    3AU     LIG  950  11.591  44.150   8.557
    3AU     LIG  951  11.812  43.779   8.742
    3AU     LIG  952  11.903  43.541   9.111
    3AU     LIG  953  11.961  43.869   9.447
    3AU       S  954  11.542   0.048   8.486
    3AU     LIG  955  11.472   0.135   8.941
    3AU     LIG  956  11.636  44.951   9.341
    3AU     LIG  957  11.974  44.804   9.653
    3AU     LIG  958  12.212  44.827  10.065
    3AU    AUSL  959  10.905  44.974   8.409
    3AU    AUSL  960  10.643   0.375   8.423
    3AU     AUL  961  10.830   0.244   8.710
    3AU       S  962  11.136  44.900   8.654
    3AU     LIG  963  10.947  44.869   9.042
    3AU     LIG  964  11.162  44.711   9.410
    3AU     LIG  965  11.505  44.575   9.687
    3AU     LIG  966  11.726  44.634  10.088
    3AU       S  967  10.399   0.120   8.624
    3AU     LIG  968  10.474   0.124   9.082
    3AU     LIG  969  10.198   0.110   9.444
    3AU     LIG  970   9.986   0.173   9.852
    3AU     LIG  971   9.922   0.496  10.193
    3AU    AUSL  972  10.973   0.348   8.154
    3AU    AUSL  973  11.416   0.475   8.126
    3AU     AUL  974  11.209   0.366   8.445
    3AU       S  975  10.891   0.712   8.615
    3AU     LIG  976  11.271   0.620   8.883
    3AU     LIG  977  11.421   0.669   9.336
    3AU     LIG  978  11.389   0.812   9.807
    3AU     LIG  979  11.403   1.067  10.216
    3AU       S  980  11.574   0.628   8.304
    3AU     LIG  981  12.000   0.749   8.267
    3AU     LIG  982  12.233   1.025   8.555
    3AU     LIG  983  12.460   1.314   8.846
    3AU     LIG  984  12.676   1.382   9.259
    3AU    AUSL  985  11.292   0.234   6.900
    3AU    AUSL  986  11.218   0.672   6.858
    3AU     AUL  987  11.406   0.566   6.635
    3AU       S  988  11.258   0.318   6.295
    3AU     LIG  989  11.723   0.263   6.214
    3AU     LIG  990  11.821  44.933   5.905
    3AU     LIG  991  11.939  44.814   5.470
    3AU     LIG  992  12.017  44.800   5.012
    3AU       S  993  11.594   0.907   6.907
    3AU     LIG  994  11.661   1.086   6.477
    3AU     LIG  995  11.872   1.288   6.085
    3AU     LIG  996  12.214   1.539   5.892
    3AU     LIG  997  12.413   1.863   5.627
    3AU    AUSL  998  11.131  44.970   6.578
    3AU    AUSL  999  11.571  44.910   6.932
    3AU     AUL 1000  11.502   0.099   6.667
    3AU       S 1001  11.704  44.669   6.696
    3AU     LIG 1002  12.002  44.404   6.431
    3AU     LIG 1003  12.040  43.992   6.225
    3AU     LIG 1004  12.247  43.814   5.842
    3AU     LIG 1005  12.637  43.606   5.687
    3AU       S 1006  11.266   0.109   6.265
    3AU     LIG 1007  11.341  44.751   6.051
    3AU     LIG 1008  11.516  44.574   5.661
    3AU     LIG 1009  11.542  44.602   5.197
    3AU     LIG 1010  11.579  44.701   4.740
    3AU    AUSL 1011  10.948   0.374   6.680
    3AU    AUSL 1012  10.721  44.981   6.730
    3AU     AUL 1013  10.850   0.011   6.422
    3AU       S 1014  10.397   0.005   6.279
    3AU     LIG 1015  10.415  44.703   5.980
    3AU     LIG 1016  10.178  44.600   5.602
    3AU     LIG 1017  10.001  44.624   5.160
    3AU     LIG 1018   9.957  44.667   4.684
    3AU       S 1019  11.022   0.445   6.373
    3AU     LIG 1020  11.000   0.258   5.881
    3AU     LIG 1021  11.380   0.078   5.614
    3AU     LIG 1022  11.616   0.111   5.186
    3AU     LIG 1023  11.763   0.186   4.736
    3AU    AUSL 1024  10.244   0.323   8.227
    3AU    AUSL 1025  10.559   0.674   8.117
    3AU     AUL 1026  10.414   0.612   8.440
    3AU       S 1027  10.213   0.240   8.661
    3AU     LIG 1028  10.018  44.905   8.915
    3AU     LIG 1029   9.779  44.822   9.323
    3AU     LIG 1030   9.583  44.849   9.759
    3AU     LIG 1031   9.181  44.830  10.022
    3AU       S 1032  10.166   0.934   8.184
    3AU     LIG 1033  10.335   1.134   8.546
    3AU     LIG 1034  10.182   1.379   8.901
    3AU     LIG 1035   9.897   1.682   9.087
    3AU     LIG 1036   9.767   1.910   9.473
    3AU    AUSL 1037  10.562   0.032   8.149
    3AU    AUSL 1038  10.138  44.893   8.117
    3AU     AUL 1039  10.049   0.115   8.248
    3AU       S 1040  10.037  44.661   8.386
    3AU     LIG 1041   9.676  44.449   8.645
    3AU     LIG 1042   9.174  44.492   8.681
    3AU     LIG 1043   8.785  44.367   8.961
    3AU     LIG 1044   8.567  44.026   9.236
    3AU       S 1045  10.427  44.974   8.531
    3AU     LIG 1046  10.480  44.667   8.868
    3AU     LIG 1047  10.275  44.626   9.281
    3AU     LIG 1048  10.084  44.671   9.710
    3AU     LIG 1049   9.887  44.565  10.116
    3AU    AUSL 1050  10.293   0.078   6.757
    3AU    AUSL 1051  10.467  44.685   6.912
    3AU     AUL 1052  10.517  44.709   6.604
    3AU       S 1053  10.178  44.974   6.419
    3AU     LIG 1054   9.919  44.740   6.137
    3AU     LIG 1055   9.734  44.838   5.714
    3AU     LIG 1056   9.618  44.960   5.275
    3AU     LIG 1057   9.543  44.950   4.816
    3AU       S 1058  10.096  44.553   6.727
    3AU     LIG 1059   9.923  44.142   6.502
    3AU     LIG 1060   9.770  43.897   6.091
    3AU     LIG 1061   9.440  43.534   6.019
    3AU     LIG 1062   9.399  43.188   5.711
    3AU    AUSL 1063  10.548   0.373   6.536
    3AU    AUSL 1064  10.073   0.433   6.897
    3AU     AUL 1065  10.199   0.405   6.578
    3AU       S 1066   9.802   0.611   6.723
    3AU     LIG 1067   9.506   0.934   6.610
    3AU     LIG 1068   9.334   1.109   6.204
    3AU     LIG 1069   9.078   1.153   5.792
    3AU     LIG 1070   8.818   1.001   5.413
    3AU       S 1071  10.465   0.232   6.232
    3AU     LIG 1072  10.149   0.138   5.870
    3AU     LIG 1073  10.101   0.078   5.417
    3AU     LIG 1074  10.032   0.105   4.960
    3AU     LIG 1075  10.102   0.298   4.544
    3AU    AUSL 1076  11.599   0.678   7.541
    3AU    AUSL 1077  11.574   0.484   7.110
    3AU     AUL 1078  11.870   0.793   7.336
    3AU       S 1079  11.683   0.579   6.992
    3AU     LIG 1080  11.907   0.638   6.591
    3AU     LIG 1081  12.164   0.960   6.352
    3AU     LIG 1082  12.431   1.089   5.976
    3AU     LIG 1083  12.657   1.386   5.660
    3AU       S 1084  11.962   0.565   7.743
    3AU     LIG 1085  12.366   0.678   7.557
    3AU     LIG 1086  12.803   0.848   7.555
    3AU     LIG 1087  13.068   1.159   7.801
    3AU     LIG 1088  13.250   1.622   7.880
    3AU    AUSL 1089  11.792   0.267   7.418
    3AU    AUSL 1090  11.718  44.940   7.735
    3AU     AUL 1091  12.071   0.049   7.775
    3AU       S 1092  11.932   0.349   7.467
    3AU     LIG 1093  12.386   0.196   7.403
    3AU     LIG 1094  12.831   0.336   7.276
    3AU     LIG 1095  13.279   0.460   7.160
    3AU     LIG 1096  13.658   0.712   7.019
    3AU       S 1097  11.976  44.628   7.596
    3AU     LIG 1098  12.367  44.466   7.696
    3AU     LIG 1099  12.808  44.336   7.744
    3AU     LIG 1100  13.243  44.350   7.928
    3AU     LIG 1101  13.645  44.268   8.156
    3AU    AUSL 1102  11.485   0.302   7.743
    3AU    AUSL 1103  11.233   0.695   7.784
    3AU     AUL 1104  11.550   0.757   7.845
    3AU       S 1105  11.528   0.930   8.266
    3AU     LIG 1106  11.816   1.266   8.339
    3AU     LIG 1107  12.134   1.546   8.496
    3AU     LIG 1108  12.289   1.830   8.801
    3AU     LIG 1109  12.549   2.214   8.781
    3AU       S 1110  11.815   0.394   7.894
    3AU     LIG 1111  12.331   0.398   8.005
    3AU     LIG 1112  12.748   0.364   7.775
    3AU     LIG 1113  13.188   0.531   7.675
    3AU     LIG 1114  13.524   0.768   7.894
    3AU    AUSL 1115  10.138   0.762   7.480
    3AU    AUSL 1116  10.221   0.544   7.863
    3AU     AUL 1117   9.915   0.868   7.718
    3AU       S 1118  10.053   0.731   8.136
    3AU     LIG 1119   9.959   0.762   8.612
    3AU     LIG 1120   9.754   1.040   8.948
    3AU     LIG 1121   9.380   1.146   9.235
    3AU     LIG 1122   8.981   1.176   9.501
    3AU       S 1123  10.151   1.142   7.402
    3AU     LIG 1124   9.689   1.122   7.313
    3AU     LIG 1125   9.242   1.284   7.419
    3AU     LIG 1126   8.795   1.444   7.491
    3AU     LIG 1127   8.339   1.458   7.408
    3AU    AUSL 1128  10.105   0.352   7.311
    3AU    AUSL 1129  10.223   0.819   7.061
    3AU     AUL 1130   9.923   0.695   7.173
    3AU       S 1131   9.715   0.152   6.947
    3AU     LIG 1132   9.398   0.531   7.003
    3AU     LIG 1133   8.971   0.731   6.869
    3AU     LIG 1134   8.482   0.867   6.866
    3AU     LIG 1135   8.003   0.907   6.975
    3AU       S 1136  10.060   1.069   6.893
    3AU     LIG 1137   9.859   1.343   6.555
    3AU     LIG 1138   9.890   1.760   6.323
    3AU     LIG 1139   9.735   2.222   6.260
    3AU     LIG 1140   9.318   2.476   6.177
    3AU    AUSL 1141   9.860   0.411   7.680
    3AU    AUSL 1142   9.827   0.032   7.381
    3AU     AUL 1143   9.702   0.346   7.388
    3AU       S 1144   9.626  44.952   7.653
    3AU     LIG 1145   9.301  44.913   7.312
    3AU     LIG 1146   8.809  44.764   7.236
    3AU     LIG 1147   8.369  44.517   7.146
    3AU     LIG 1148   7.951  44.614   6.878
    3AU       S 1149   9.744   0.432   7.898
    3AU     LIG 1150   9.320   0.493   7.731
    3AU     LIG 1151   8.863   0.693   7.796
    3AU     LIG 1152   8.535   1.063   7.761
    3AU     LIG 1153   8.135   1.288   7.915
    3AU    AUSL 1154  11.506  44.590   7.555
    3AU    AUSL 1155  11.315  44.852   7.872
    3AU     AUL 1156  11.651  44.757   7.949
    3AU       S 1157  11.779  44.473   7.577
    3AU     LIG 1158  11.979  44.180   7.293
    3AU     LIG 1159  12.185  43.762   7.184
    3AU     LIG 1160  12.529  43.527   7.363
    3AU     LIG 1161  12.860  43.305   7.628
    3AU       S 1162  11.528  44.330   8.022
    3AU     LIG 1163  11.939  44.342   8.232
    3AU     LIG 1164  12.127  44.150   8.621
    3AU     LIG 1165  12.244  43.879   8.985
    3AU     LIG 1166  12.441  43.719   9.373
    3AU    AUSL 1167  11.486  44.978   7.346
    3AU    AUSL 1168  11.439  44.531   7.128
    3AU     AUL 1169  11.684  44.709   7.184
    3AU       S 1170  12.054  44.788   7.403
    3AU     LIG 1171  12.359  44.538   7.182
    3AU     LIG 1172  12.771  44.382   7.195
    3AU     LIG 1173  13.055  44.176   6.886
    3AU     LIG 1174  13.502  44.222   6.854
    3AU       S 1175  11.668  44.435   6.808
    3AU     LIG 1176  11.988  44.033   6.792
    3AU     LIG 1177  11.826  43.627   6.533
    3AU     LIG 1178  12.048  43.284   6.316
    3AU     LIG 1179  12.404  42.885   6.297
    3AU    AUSL 1180  10.034  44.665   7.535
    3AU    AUSL 1181  10.152  44.905   7.128
    3AU     AUL 1182   9.803  44.737   7.253
    3AU       S 1183   9.979  44.729   6.824
    3AU     LIG 1184   9.594  44.549   6.543
    3AU     LIG 1185   9.215  44.499   6.191
    3AU     LIG 1186   8.770  44.331   6.020
    3AU     LIG 1187   8.436  43.973   6.082
    3AU       S 1188   9.598  44.701   7.682
    3AU     LIG 1189   9.135  44.516   7.569
    3AU     LIG 1190   8.724  44.290   7.473
    3AU     LIG 1191   8.371  43.993   7.287
    3AU     LIG 1192   8.376  43.516   7.327
    3AU    AUSL 1193  10.106   0.062   7.726
    3AU    AUSL 1194  10.367  44.682   7.810
    3AU     AUL 1195  10.019  44.649   7.874
    3AU       S 1196  10.047  44.444   8.283
    3AU     LIG 1197   9.586  44.414   8.144
    3AU     LIG 1198   9.212  44.126   8.301
    3AU     LIG 1199   9.212  43.692   8.488
    3AU     LIG 1200   8.896  43.391   8.630
    3AU       S 1201   9.686  44.964   7.841
    3AU     LIG 1202   9.189  44.874   7.921
    3AU     LIG 1203   8.721  44.752   7.758
    3AU     LIG 1204   8.272  44.716   7.623
    3AU     LIG 1205   7.886  44.508   7.819
    3AU    AUSL 1206  10.834   0.906   7.877
    3AU    AUSL 1207  10.400   0.935   7.784
    3AU     AUL 1208  10.633   0.995   8.159
    3AU       S 1209  10.276   1.128   7.889
    3AU     LIG 1210  10.253   1.495   8.179
    3AU     LIG 1211  10.035   1.747   8.559
    3AU     LIG 1212   9.696   2.047   8.749
    3AU     LIG 1213   9.378   2.423   8.770
    3AU       S 1214  10.835   1.339   7.927
    3AU     LIG 1215  10.753   1.482   8.325
    3AU     LIG 1216  10.998   1.834   8.467
    3AU     LIG 1217  11.161   2.230   8.607
    3AU     LIG 1218  10.953   2.506   8.919
    3AU    AUSL 1219  10.681   1.141   7.526
    3AU    AUSL 1220  10.978   1.050   7.174
    3AU     AUL 1221  10.904   1.396   7.310
    3AU       S 1222  10.693   1.373   7.741
    3AU     LIG 1223  10.853   1.825   7.957
    3AU     LIG 1224  10.832   2.230   8.150
    3AU     LIG 1225  10.537   2.560   8.282
    3AU     LIG 1226  10.557   2.970   8.505
    3AU       S 1227  10.699   1.247   6.931
    3AU     LIG 1228  11.144   1.476   6.901
    3AU     LIG 1229  11.265   1.907   6.977
    3AU     LIG 1230  11.581   2.255   6.879
    3AU     LIG 1231  11.671   2.729   6.921
    3AU    AUSL 1232  11.131   1.065   7.591
    3AU    AUSL 1233  11.074   0.760   8.201
    3AU     AUL 1234  11.175   1.024   7.977
    3AU       S 1235  11.320   0.852   8.416
    3AU     LIG 1236  11.700   0.922   8.728
    3AU     LIG 1237  11.942   1.289   8.901
    3AU     LIG 1238  12.177   1.527   9.236
    3AU     LIG 1239  12.269   1.556   9.705
    3AU       S 1240  11.056   1.403   7.744
    3AU     LIG 1241  11.327   1.650   7.960
    3AU     LIG 1242  11.346   2.062   8.132
    3AU     LIG 1243  11.570   2.437   8.315
    3AU     LIG 1244  11.555   2.930   8.269
    3AU    AUSL 1245  10.733  44.448   7.919
    3AU    AUSL 1246  11.158  44.449   7.773
    3AU     AUL 1247  10.946  44.340   8.147
    3AU       S 1248  10.699  43.987   7.975
    3AU     LIG 1249  10.517  43.803   8.355
    3AU     LIG 1250  10.431  43.309   8.429
    3AU     LIG 1251  10.495  42.881   8.599
    3AU     LIG 1252  10.709  42.658   8.946
    3AU       S 1253  11.333  44.259   7.859
    3AU     LIG 1254  11.862  44.048   7.830
    3AU     LIG 1255  12.064  43.820   8.212
    3AU     LIG 1256  12.361  43.627   8.509
    3AU     LIG 1257  12.466  43.403   8.893
    3AU    AUSL 1258  10.414  44.300   7.629
    3AU    AUSL 1259  10.509  44.622   8.239
    3AU     AUL 1260  10.391  44.344   7.989
    3AU       S 1261  10.514  43.923   7.801
    3AU     LIG 1262  10.608  43.540   7.513
    3AU     LIG 1263  10.404  43.139   7.703
    3AU     LIG 1264  10.240  42.916   8.102
    3AU     LIG 1265  10.033  42.657   8.440
    3AU       S 1266  10.304  44.514   8.427
    3AU     LIG 1267  10.151  44.094   8.613
    3AU     LIG 1268   9.821  43.912   8.866
    3AU     LIG 1269   9.421  43.577   8.942
    3AU     LIG 1270   9.446  43.171   9.109
    3AU    AUSL 1271  10.858  44.206   7.577
    3AU    AUSL 1272  10.627  44.485   7.295
    3AU     AUL 1273  10.524  44.136   7.390
    3AU       S 1274  10.861  44.042   7.106
    3AU     LIG 1275  10.479  43.762   7.083
    3AU     LIG 1276  10.293  43.330   7.064
    3AU     LIG 1277  10.292  42.876   6.905
    3AU     LIG 1278  10.138  42.489   6.666
    3AU       S 1279  10.843  43.959   7.747
    3AU     LIG 1280  10.650  43.488   7.998
    3AU     LIG 1281  10.883  43.128   8.151
    3AU     LIG 1282  10.842  42.687   8.270
    3AU     LIG 1283  10.896  42.210   8.377
    3AU    AUSL 1284  10.803   0.803   6.834
    3AU    AUSL 1285  11.267   0.753   7.279
    3AU     AUL 1286  11.127   0.985   6.882
    3AU       S 1287  10.724   1.180   6.721
    3AU     LIG 1288  10.817   1.566   6.529
    3AU     LIG 1289  10.858   1.959   6.323
    3AU     LIG 1290  10.933   2.167   5.925
    3AU     LIG 1291  10.898   2.431   5.553
    3AU       S 1292  11.481   0.977   7.174
    3AU     LIG 1293  11.673   1.389   6.908
    3AU     LIG 1294  11.982   1.521   6.539
    3AU     LIG 1295  12.272   1.855   6.307
    3AU     LIG 1296  12.685   2.071   6.182
    3AU    AUSL 1297  10.605   0.833   7.240
    3AU    AUSL 1298  10.512   0.502   6.939
    3AU     AUL 1299  10.458   0.809   6.796
    3AU       S 1300  10.526   1.202   7.066
    3AU     LIG 1301  10.693   1.731   7.001
    3AU     LIG 1302  10.685   2.155   6.773
    3AU     LIG 1303  10.534   2.642   6.792
    3AU     LIG 1304  10.696   3.118   6.860
    3AU       S 1305  10.024   0.839   6.640
    3AU     LIG 1306  10.298   1.132   6.412
    3AU     LIG 1307  10.114   1.372   6.050
    3AU     LIG 1308   9.881   1.693   5.792
    3AU     LIG 1309   9.891   1.951   5.391
    3AU    AUSL 1310  10.840  44.462   6.896
    3AU    AUSL 1311  10.211  44.461   7.195
    3AU     AUL 1312  10.479  44.326   6.949
    3AU       S 1313  10.010  44.437   6.954
    3AU     LIG 1314   9.602  44.178   6.922
    3AU     LIG 1315   9.294  43.838   6.827
    3AU     LIG 1316   9.154  43.572   6.447
    3AU     LIG 1317   8.713  43.462   6.267
    3AU       S 1318  10.880  44.086   6.886
    3AU     LIG 1319  10.658  43.858   6.617
    3AU     LIG 1320  10.600  43.426   6.577
    3AU     LIG 1321  10.830  43.117   6.323
    3AU     LIG 1322  10.893  42.954   5.881
    3AU    AUSL 1323  11.059  44.455   7.294
    3AU    AUSL 1324  11.118  44.785   6.960
    3AU     AUL 1325  11.199  44.419   6.913
    3AU       S 1326  11.040  44.061   7.170
    3AU     LIG 1327  10.916  43.558   7.005
    3AU     LIG 1328  10.769  43.100   6.920
    3AU     LIG 1329  11.095  42.784   6.784
    3AU     LIG 1330  11.088  42.359   6.656
    3AU       S 1331  11.438  44.608   6.574
    3AU     LIG 1332  11.159  44.250   6.384
    3AU     LIG 1333  11.380  43.862   6.124
    3AU     LIG 1334  11.753  43.611   6.011
    3AU     LIG 1335  11.980  43.401   5.670
    4AU     AUC 1336  21.133  39.758   7.508
    4AU     AUC 1337  21.405  39.749   7.335
    4AU     AUC 1338  21.395  39.746   7.670
    4AU     AUC 1339  20.854  39.761   7.351
    4AU     AUC 1340  20.891  39.803   7.706
    4AU     AUC 1341  20.966  40.033   7.517
    4AU     AUC 1342  21.309  40.021   7.486
    4AU     AUC 1343  20.944  39.501   7.521
    4AU     AUC 1344  21.293  39.468   7.510
    4AU     AUC 1345  21.144  39.590   7.784
    4AU     AUC 1346  21.139  39.951   7.768
    4AU     AUC 1347  21.109  39.590   7.244
    4AU     AUC 1348  21.137  39.914   7.221
    4AU     AUC 1349  21.729  39.741   7.168
    4AU     AUC 1350  21.744  39.730   7.504
    4AU     AUC 1351  21.702  39.725   7.855
    4AU     AUC 1352  20.544  39.763   7.190
    4AU     AUC 1353  20.531  39.807   7.553
    4AU     AUC 1354  20.597  39.832   7.912
    4AU     AUC 1355  20.808  40.358   7.517
    4AU     AUC 1356  21.168  40.382   7.451
    4AU     AUC 1357  21.492  40.313   7.454
    4AU     AUC 1358  20.722  39.222   7.532
    4AU     AUC 1359  21.080  39.158   7.502
    4AU     AUC 1360  21.457  39.156   7.497
    4AU     AUC 1361  21.130  39.412   8.087
    4AU     AUC 1362  21.165  39.768   8.114
    4AU     AUC 1363  21.190  40.128   8.058
    4AU     AUC 1364  21.129  39.392   6.964
    4AU     AUC 1365  21.125  39.733   6.909
    4AU     AUC 1366  21.127  40.069   6.913
    4AU     AUC 1367  21.427  39.528   7.996
    4AU     AUC 1368  21.460  39.918   7.985
    4AU     AUC 1369  21.443  39.570   7.021
    4AU     AUC 1370  21.442  39.916   7.006
    4AU     AUC 1371  20.846  39.638   8.035
    4AU     AUC 1372  20.886  40.003   8.021
    4AU     AUC 1373  20.812  39.553   7.061
    4AU     AUC 1374  20.799  39.929   7.030
    4AU     AUC 1375  21.659  40.023   7.309
    4AU     AUC 1376  21.611  40.020   7.675
    4AU     AUC 1377  20.669  40.072   7.344
    4AU     AUC 1378  20.677  40.126   7.725
    4AU     AUC 1379  21.624  39.437   7.353
    4AU     AUC 1380  21.586  39.404   7.683
    4AU     AUC 1381  20.606  39.456   7.365
    4AU     AUC 1382  20.673  39.520   7.725
    4AU     AUC 1383  21.002  40.296   7.782
    4AU     AUC 1384  21.335  40.244   7.761
    4AU     AUC 1385  20.920  39.305   7.810
    4AU     AUC 1386  21.259  39.239   7.784
    4AU     AUC 1387  20.946  40.197   7.193
    4AU     AUC 1388  21.341  40.191   7.163
    4AU     AUC 1389  20.920  39.281   7.225
    4AU     AUC 1390  21.318  39.289   7.228
    4AU    AUSL 1391  21.729  39.665   8.218
    4AU    AUSL 1392  21.439  39.222   8.181
    4AU     AUL 1393  21.764  39.255   8.308
    4AU       S 1394  21.739  38.818   8.138
    4AU     LIG 1395  21.770  38.422   8.304
    4AU     LIG 1396  22.027  38.275   8.645
    4AU     LIG 1397  22.360  38.089   8.912
    4AU     LIG 1398  22.340  37.798   9.257
    4AU       S 1399  21.969  39.662   8.377
    4AU     LIG 1400  21.895  39.753   8.826
    4AU     LIG 1401  21.937  39.484   9.202
    4AU     LIG 1402  22.274  39.404   9.519
    4AU     LIG 1403  22.486  39.552   9.914
    4AU    AUSL 1404  21.335  39.575   8.412
    4AU    AUSL 1405  21.069  39.949   8.456
    4AU     AUL 1406  21.291  39.861   8.737
    4AU       S 1407  21.534  39.494   8.616
    4AU     LIG 1408  21.301  39.379   8.963
    4AU     LIG 1409  21.433  39.297   9.406
    4AU     LIG 1410  21.555  39.099   9.828
    4AU     LIG 1411  21.749  39.015  10.257
    4AU       S 1412  20.871  39.692   8.700
    4AU     LIG 1413  20.911  39.627   9.172
    4AU     LIG 1414  20.646  39.652   9.552
    4AU     LIG 1415  20.351  39.702   9.907
    4AU     LIG 1416  20.245  40.027  10.245
    4AU    AUSL 1417  21.371  39.948   8.155
    4AU    AUSL 1418  21.809  40.075   8.086
    4AU     AUL 1419  21.632  39.972   8.426
    4AU       S 1420  21.304  40.321   8.604
    4AU     LIG 1421  21.659  40.220   8.885
    4AU     LIG 1422  21.757  40.235   9.362
    4AU     LIG 1423  21.700  40.331   9.847
    4AU     LIG 1424  21.713  40.526  10.294
    4AU       S 1425  21.974  40.237   8.241
    4AU     LIG 1426  22.396  40.346   8.254
    4AU     LIG 1427  22.611  40.558   8.594
    4AU     LIG 1428  22.814  40.825   8.926
    4AU     LIG 1429  23.048  40.949   9.302
    4AU    AUSL 1430  21.585  39.778   6.884
    4AU    AUSL 1431  21.534  40.209   6.795
    4AU     AUL 1432  21.714  40.079   6.576
    4AU       S 1433  21.586  39.773   6.267
    4AU     LIG 1434  22.022  39.662   6.143
    4AU     LIG 1435  22.130  39.424   5.766
    4AU     LIG 1436  22.145  39.324   5.320
    4AU     LIG 1437  22.343  39.415   4.908
    4AU       S 1438  21.897  40.454   6.829
    4AU     LIG 1439  21.982  40.743   6.463
    4AU     LIG 1440  22.210  40.982   6.095
    4AU     LIG 1441  22.482  41.157   5.743
    4AU     LIG 1442  22.769  41.314   5.399
    4AU    AUSL 1443  21.423  39.481   6.597
    4AU    AUSL 1444  21.848  39.438   6.910
    4AU     AUL 1445  21.797  39.619   6.663
    4AU       S 1446  22.002  39.182   6.668
    4AU     LIG 1447  22.292  38.915   6.383
    4AU     LIG 1448  22.631  38.585   6.302
    4AU     LIG 1449  22.808  38.309   5.962
    4AU     LIG 1450  23.256  38.361   5.773
    4AU       S 1451  21.562  39.541   6.259
    4AU     LIG 1452  21.746  39.207   6.038
    4AU     LIG 1453  21.767  39.066   5.588
    4AU     LIG 1454  21.688  39.152   5.129
    4AU     LIG 1455  21.888  39.247   4.719
    4AU    AUSL 1456  21.261  39.904   6.612
    4AU    AUSL 1457  21.016  39.529   6.756
    4AU     AUL 1458  21.155  39.494   6.462
    4AU       S 1459  20.825  39.783   6.370
    4AU     LIG 1460  20.918  39.536   5.961
    4AU     LIG 1461  20.663  39.268   5.664
    4AU     LIG 1462  20.436  39.183   5.256
    4AU     LIG 1463  20.173  39.095   4.870
    4AU       S 1464  21.345  39.897   6.302
    4AU     LIG 1465  21.384  39.718   5.821
    4AU     LIG 1466  21.697  39.573   5.486
    4AU     LIG 1467  21.860  39.651   5.044
    4AU     LIG 1468  21.853  39.747   4.578
    4AU    AUSL 1469  20.653  39.900   8.316
    4AU    AUSL 1470  20.944  40.250   8.165
    4AU     AUL 1471  20.839  40.190   8.502
    4AU       S 1472  20.692  39.819   8.760
    4AU     LIG 1473  20.413  39.591   9.058
    4AU     LIG 1474  20.193  39.427   9.447
    4AU     LIG 1475  19.974  39.327   9.851
    4AU     LIG 1476  19.552  39.421  10.046
    4AU       S 1477  20.566  40.500   8.270
    4AU     LIG 1478  20.517  40.749   8.643
    4AU     LIG 1479  20.302  41.030   8.949
    4AU     LIG 1480  20.039  41.058   9.338
    4AU     LIG 1481  19.835  41.185   9.742
    4AU    AUSL 1482  20.953  39.595   8.203
    4AU    AUSL 1483  20.484  39.537   8.132
    4AU     AUL 1484  20.515  39.611   8.389
    4AU       S 1485  20.306  39.179   8.296
    4AU     LIG 1486  20.042  38.834   8.466
    4AU     LIG 1487  19.678  38.527   8.469
    4AU     LIG 1488  19.237  38.402   8.607
    4AU     LIG 1489  18.903  38.272   8.917
    4AU       S 1490  20.915  39.511   8.605
    4AU     LIG 1491  20.737  39.224   8.885
    4AU     LIG 1492  20.648  39.185   9.343
    4AU     LIG 1493  20.498  39.194   9.800
    4AU     LIG 1494  20.423  38.993  10.228
    4AU    AUSL 1495  20.575  39.632   6.775
    4AU    AUSL 1496  20.759  39.238   6.944
    4AU     AUL 1497  20.748  39.303   6.622
    4AU       S 1498  20.668  39.678   6.358
    4AU     LIG 1499  20.387  39.608   6.016
    4AU     LIG 1500  20.178  39.474   5.616
    4AU     LIG 1501  19.907  39.273   5.289
    4AU     LIG 1502  19.646  39.297   4.898
    4AU       S 1503  20.382  39.069   6.798
    4AU     LIG 1504  20.148  38.747   6.564
    4AU     LIG 1505  19.922  38.336   6.454
    4AU     LIG 1506  19.783  38.162   6.036
    4AU     LIG 1507  19.829  38.357   5.593
    4AU    AUSL 1508  20.882  39.941   6.810
    4AU    AUSL 1509  20.460  40.028   6.961
    4AU     AUL 1510  20.455  39.917   6.682
    4AU       S 1511  20.211  40.300   6.751
    4AU     LIG 1512  20.173  40.392   6.308
    4AU     LIG 1513  20.089  40.761   6.046
    4AU     LIG 1514  19.722  41.024   5.947
    4AU     LIG 1515  19.354  41.235   5.747
    4AU       S 1516  20.842  40.014   6.437
    4AU     LIG 1517  20.709  40.022   5.956
    4AU     LIG 1518  20.616  39.768   5.567
    4AU     LIG 1519  20.563  39.673   5.103
    4AU     LIG 1520  20.543  39.874   4.662
    4AU    AUSL 1521  21.919  40.257   7.473
    4AU    AUSL 1522  21.879  40.040   7.060
    4AU     AUL 1523  22.186  40.362   7.261
    4AU       S 1524  21.990  40.131   6.934
    4AU     LIG 1525  22.218  40.223   6.530
    4AU     LIG 1526  22.448  40.563   6.306
    4AU     LIG 1527  22.733  40.843   6.071
    4AU     LIG 1528  22.995  41.169   5.853
    4AU       S 1529  22.328  40.147   7.660
    4AU     LIG 1530  22.784  40.308   7.593
    4AU     LIG 1531  23.192  40.567   7.585
    4AU     LIG 1532  23.515  40.803   7.882
    4AU     LIG 1533  23.844  41.141   7.774
    4AU    AUSL 1534  22.118  39.840   7.363
    4AU    AUSL 1535  22.063  39.522   7.697
    4AU     AUL 1536  22.432  39.631   7.695
    4AU       S 1537  22.248  39.924   7.404
    4AU     LIG 1538  22.706  39.888   7.316
    4AU     LIG 1539  23.150  40.128   7.242
    4AU     LIG 1540  23.605  40.260   7.291
    4AU     LIG 1541  23.934  40.333   6.963
    4AU       S 1542  22.303  39.225   7.513
    4AU     LIG 1543  22.663  39.156   7.721
    4AU     LIG 1544  23.055  38.958   7.899
    4AU     LIG 1545  23.537  38.887   7.902
    4AU     LIG 1546  23.965  38.824   8.131
    4AU    AUSL 1547  21.836  39.888   7.705
    4AU    AUSL 1548  21.590  40.284   7.759
    4AU     AUL 1549  21.917  40.342   7.780
    4AU       S 1550  21.931  40.543   8.193
    4AU     LIG 1551  22.217  40.878   8.356
    4AU     LIG 1552  22.602  41.070   8.530
    4AU     LIG 1553  22.779  41.394   8.820
    4AU     LIG 1554  23.064  41.789   8.853
    4AU       S 1555  22.181  39.978   7.825
    4AU     LIG 1556  22.676  39.971   7.974
    4AU     LIG 1557  23.103  40.202   7.994
    4AU     LIG 1558  23.526  40.280   7.813
    4AU     LIG 1559  23.900  40.447   7.986
    4AU    AUSL 1560  20.430  40.358   7.589
    4AU    AUSL 1561  20.578  40.109   7.948
    4AU     AUL 1562  20.247  40.440   7.866
    4AU       S 1563  20.435  40.291   8.248
    4AU     LIG 1564  20.365  40.244   8.690
    4AU     LIG 1565  20.154  40.520   9.010
    4AU     LIG 1566  19.772  40.620   9.270
    4AU     LIG 1567  19.478  40.905   9.484
    4AU       S 1568  20.420  40.703   7.502
    4AU     LIG 1569  19.924  40.621   7.538
    4AU     LIG 1570  19.434  40.747   7.598
    4AU     LIG 1571  19.202  41.160   7.753
    4AU     LIG 1572  18.781  41.396   7.677
    4AU    AUSL 1573  20.433  39.974   7.379
    4AU    AUSL 1574  20.597  40.384   7.196
    4AU     AUL 1575  20.276  40.295   7.231
    4AU       S 1576  20.014  39.945   7.045
    4AU     LIG 1577  19.833  40.464   7.068
    4AU     LIG 1578  19.279  40.506   7.064
    4AU     LIG 1579  18.752  40.334   7.068
    4AU     LIG 1580  18.234  40.532   7.050
    4AU       S 1581  20.377  40.690   6.981
    4AU     LIG 1582  20.079  40.798   6.614
    4AU     LIG 1583  20.043  41.195   6.332
    4AU     LIG 1584  19.808  41.524   6.072
    4AU     LIG 1585  19.359  41.695   5.991
    4AU    AUSL 1586  20.199  39.992   7.783
    4AU    AUSL 1587  20.154  39.653   7.399
    4AU     AUL 1588  20.050  39.986   7.508
    4AU       S 1589  19.883  39.540   7.614
    4AU     LIG 1590  19.500  39.290   7.385
    4AU     LIG 1591  19.080  39.152   7.222
    4AU     LIG 1592  18.714  38.886   7.099
    4AU     LIG 1593  18.286  38.699   6.984
    4AU       S 1594  20.114  39.948   8.022
    4AU     LIG 1595  19.628  40.068   7.916
    4AU     LIG 1596  19.210  40.361   8.062
    4AU     LIG 1597  18.767  40.536   8.305
    4AU     LIG 1598  18.311  40.339   8.230
    4AU    AUSL 1599  21.838  39.162   7.542
    4AU    AUSL 1600  21.671  39.435   7.865
    4AU     AUL 1601  22.019  39.339   7.907
    4AU       S 1602  22.134  39.042   7.545
    4AU     LIG 1603  22.246  38.637   7.380
    4AU     LIG 1604  22.597  38.384   7.183
    4AU     LIG 1605  23.040  38.225   7.335
    4AU     LIG 1606  23.401  38.182   7.659
    4AU       S 1607  21.896  38.912   7.990
    4AU     LIG 1608  22.213  38.690   8.303
    4AU     LIG 1609  22.500  38.382   8.514
    4AU     LIG 1610  22.795  38.385   8.843
    4AU     LIG 1611  23.090  38.746   8.825
    4AU    AUSL 1612  21.812  39.543   7.321
    4AU    AUSL 1613  21.724  39.070   7.129
    4AU     AUL 1614  21.969  39.225   7.148
    4AU       S 1615  22.342  39.389   7.315
    4AU     LIG 1616  22.578  38.968   7.176
    4AU     LIG 1617  22.989  38.697   7.096
    4AU     LIG 1618  23.451  38.853   7.140
    4AU     LIG 1619  23.857  38.784   6.948
    4AU       S 1620  21.916  38.922   6.791
    4AU     LIG 1621  22.310  38.671   6.835
    4AU     LIG 1622  22.482  38.262   6.676
    4AU     LIG 1623  22.472  37.950   6.327
    4AU     LIG 1624  22.757  37.584   6.210
    4AU    AUSL 1625  20.323  39.277   7.583
    4AU    AUSL 1626  20.494  39.504   7.179
    4AU     AUL 1627  20.135  39.383   7.253
    4AU       S 1628  20.293  39.253   6.848
    4AU     LIG 1629  19.856  39.075   6.856
    4AU     LIG 1630  19.626  38.703   6.678
    4AU     LIG 1631  19.427  38.436   6.325
    4AU     LIG 1632  19.040  38.181   6.213
    4AU       S 1633  19.919  39.279   7.670
    4AU     LIG 1634  19.878  38.962   7.363
    4AU     LIG 1635  19.467  38.793   7.204
    4AU     LIG 1636  19.053  38.624   7.414
    4AU     LIG 1637  18.930  38.163   7.538
    4AU    AUSL 1638  20.467  39.671   7.725
    4AU    AUSL 1639  20.670  39.278   7.837
    4AU     AUL 1640  20.272  39.448   7.916
    4AU       S 1641  20.349  39.020   8.062
    4AU     LIG 1642  20.112  38.598   8.018
    4AU     LIG 1643  19.847  38.197   8.109
    4AU     LIG 1644  19.498  38.010   8.381
    4AU     LIG 1645  19.344  37.952   8.829
    4AU       S 1646  19.871  39.603   7.771
    4AU     LIG 1647  19.438  39.517   7.853
    4AU     LIG 1648  19.156  39.168   7.744
    4AU     LIG 1649  18.752  39.042   7.624
    4AU     LIG 1650  18.428  38.942   7.911
    4AU    AUSL 1651  21.194  40.485   7.896
    4AU    AUSL 1652  20.753  40.495   7.844
    4AU     AUL 1653  21.026  40.585   8.189
    4AU       S 1654  20.638  40.687   7.953
    4AU     LIG 1655  20.661  41.038   8.226
    4AU     LIG 1656  20.502  41.356   8.557
    4AU     LIG 1657  20.138  41.594   8.779
    4AU     LIG 1658  19.682  41.715   8.826
    4AU       S 1659  21.225  40.953   7.968
    4AU     LIG 1660  21.347  41.065   8.382
    4AU     LIG 1661  21.408  41.421   8.683
    4AU     LIG 1662  21.457  41.873   8.765
    4AU     LIG 1663  21.391  42.229   9.048
    4AU    AUSL 1664  20.991  40.756   7.599
    4AU    AUSL 1665  21.330  40.660   7.145
    4AU     AUL 1666  21.106  40.931   7.318
    4AU       S 1667  21.063  40.967   7.793
    4AU     LIG 1668  21.244  41.452   7.804
    4AU     LIG 1669  21.065  41.872   7.998
    4AU     LIG 1670  20.787  42.186   8.259
    4AU     LIG 1671  20.652  42.638   8.352
    4AU       S 1672  21.310  40.919   6.896
    4AU     LIG 1673  21.633  41.180   6.861
    4AU     LIG 1674  21.640  41.627   6.870
    4AU     LIG 1675  21.570  42.056   6.773
    4AU     LIG 1676  21.533  42.476   6.586
    4AU    AUSL 1677  21.443  40.636   7.565
    4AU    AUSL 1678  21.478  40.360   8.188
    4AU     AUL 1679  21.547  40.619   7.935
    4AU       S 1680  21.718  40.459   8.368
    4AU     LIG 1681  22.071  40.492   8.681
    4AU     LIG 1682  22.291  40.839   8.890
    4AU     LIG 1683  22.493  41.147   9.174
    4AU     LIG 1684  22.727  41.264   9.556
    4AU       S 1685  21.415  40.985   7.679
    4AU     LIG 1686  21.651  41.248   8.010
    4AU     LIG 1687  21.461  41.644   8.231
    4AU     LIG 1688  21.419  42.124   8.304
    4AU     LIG 1689  21.636  42.588   8.256
    4AU    AUSL 1690  21.081  39.118   7.951
    4AU    AUSL 1691  21.499  39.038   7.783
    4AU     AUL 1692  21.293  38.932   8.154
    4AU       S 1693  21.058  38.548   8.034
    4AU     LIG 1694  20.927  38.120   8.230
    4AU     LIG 1695  20.831  37.678   8.403
    4AU     LIG 1696  20.821  37.238   8.558
    4AU     LIG 1697  21.015  36.988   8.906
    4AU       S 1698  21.656  38.815   7.832
    4AU     LIG 1699  22.031  38.464   7.852
    4AU     LIG 1700  22.227  38.151   8.162
    4AU     LIG 1701  22.513  37.859   8.458
    4AU     LIG 1702  22.642  37.458   8.728
    4AU    AUSL 1703  20.735  38.885   7.699
    4AU    AUSL 1704  20.794  39.206   8.262
    4AU     AUL 1705  20.797  38.932   8.045
    4AU       S 1706  20.834  38.500   7.868
    4AU     LIG 1707  20.487  38.242   7.997
    4AU     LIG 1708  20.533  37.802   8.013
    4AU     LIG 1709  20.706  37.371   7.990
    4AU     LIG 1710  20.604  36.981   8.180
    4AU       S 1711  20.539  39.112   8.397
    4AU     LIG 1712  20.514  38.637   8.356
    4AU     LIG 1713  20.179  38.312   8.474
    4AU     LIG 1714  19.833  38.137   8.773
    4AU     LIG 1715  19.707  37.957   9.201
    4AU    AUSL 1716  21.166  38.806   7.645
    4AU    AUSL 1717  20.928  39.057   7.342
    4AU     AUL 1718  20.820  38.716   7.454
    4AU       S 1719  21.173  38.612   7.192
    4AU     LIG 1720  20.809  38.307   7.156
    4AU     LIG 1721  20.704  37.846   7.123
    4AU     LIG 1722  20.597  37.483   6.852
    4AU     LIG 1723  20.521  37.085   6.614
    4AU       S 1724  21.175  38.609   7.777
    4AU     LIG 1725  21.189  38.125   7.784
    4AU     LIG 1726  21.100  37.687   7.954
    4AU     LIG 1727  21.180  37.217   8.089
    4AU     LIG 1728  21.415  36.811   7.924
    4AU    AUSL 1729  21.142  40.314   6.936
    4AU    AUSL 1730  21.568  40.311   7.223
    4AU     AUL 1731  21.430  40.487   6.823
    4AU       S 1732  21.067  40.710   6.652
    4AU     LIG 1733  21.258  41.180   6.473
    4AU     LIG 1734  21.252  41.668   6.490
    4AU     LIG 1735  21.202  42.026   6.163
    4AU     LIG 1736  21.199  42.269   5.760
    4AU       S 1737  21.795  40.533   7.097
    4AU     LIG 1738  22.087  40.907   6.947
    4AU     LIG 1739  22.411  41.014   6.577
    4AU     LIG 1740  22.588  41.311   6.238
    4AU     LIG 1741  22.883  41.633   6.058
    4AU    AUSL 1742  20.997  40.436   7.325
    4AU    AUSL 1743  20.745  40.344   6.787
    4AU     AUL 1744  20.830  40.605   7.054
    4AU       S 1745  21.066  40.921   6.845
    4AU     LIG 1746  21.140  41.384   6.947
    4AU     LIG 1747  21.125  41.835   6.969
    4AU     LIG 1748  21.080  42.158   6.634
    4AU     LIG 1749  20.693  42.408   6.483
    4AU       S 1750  20.495  40.452   6.715
    4AU     LIG 1751  20.574  40.803   6.464
    4AU     LIG 1752  20.495  41.093   6.112
    4AU     LIG 1753  20.181  41.252   5.814
    4AU     LIG 1754  19.822  41.367   5.545
    4AU    AUSL 1755  21.127  39.010   6.939
    4AU    AUSL 1756  20.510  39.054   7.262
    4AU     AUL 1757  20.779  38.887   7.008
    4AU       S 1758  20.315  38.985   7.068
    4AU     LIG 1759  20.017  38.604   7.030
    4AU     LIG 1760  19.709  38.252   6.935
    4AU     LIG 1761  19.382  38.069   6.671
    4AU     LIG 1762  19.415  37.845   6.251
    4AU       S 1763  21.179  38.622   6.988
    4AU     LIG 1764  21.157  38.194   6.790
    4AU     LIG 1765  21.009  37.753   6.699
    4AU     LIG 1766  20.872  37.400   6.416
    4AU     LIG 1767  20.720  37.392   5.979
    4AU    AUSL 1768  21.359  39.025   7.332
    4AU    AUSL 1769  21.398  39.341   6.994
    4AU     AUL 1770  21.464  38.982   6.922
    4AU       S 1771  21.413  38.663   7.270
    4AU     LIG 1772  21.288  38.142   7.282
    4AU     LIG 1773  21.199  37.654   7.172
    4AU     LIG 1774  21.383  37.223   7.002
    4AU     LIG 1775  21.521  36.765   6.914
    4AU       S 1776  21.728  39.122   6.576
    4AU     LIG 1777  21.822  38.740   6.320
    4AU     LIG 1778  22.156  38.402   6.231
    4AU     LIG 1779  22.313  38.133   5.862
    4AU     LIG 1780  22.251  37.923   5.420
    5AU     AUC 1781  16.338  20.922   7.496
    5AU     AUC 1782  16.632  20.917   7.328
    5AU     AUC 1783  16.592  20.907   7.667
    5AU     AUC 1784  16.066  20.916   7.334
    5AU     AUC 1785  16.075  20.964   7.677
    5AU     AUC 1786  16.176  21.198   7.493
    5AU     AUC 1787  16.522  21.185   7.483
    5AU     AUC 1788  16.145  20.657   7.498
    5AU     AUC 1789  16.498  20.647   7.503
    5AU     AUC 1790  16.337  20.746   7.762
    5AU     AUC 1791  16.333  21.115   7.750
    5AU     AUC 1792  16.336  20.760   7.229
    5AU     AUC 1793  16.372  21.073   7.224
    5AU     AUC 1794  16.969  20.907   7.180
    5AU     AUC 1795  16.955  20.892   7.516
    5AU     AUC 1796  16.885  20.879   7.870
    5AU     AUC 1797  15.749  20.928   7.170
    5AU     AUC 1798  15.731  20.969   7.531
    5AU     AUC 1799  15.786  21.011   7.861
    5AU     AUC 1800  16.028  21.525   7.460
    5AU     AUC 1801  16.380  21.541   7.437
    5AU     AUC 1802  16.702  21.474   7.470
    5AU     AUC 1803  15.942  20.378   7.496
    5AU     AUC 1804  16.269  20.311   7.467
    5AU     AUC 1805  16.657  20.318   7.482
    5AU     AUC 1806  16.315  20.570   8.059
    5AU     AUC 1807  16.335  20.932   8.096
    5AU     AUC 1808  16.367  21.291   8.042
    5AU     AUC 1809  16.365  20.592   6.944
    5AU     AUC 1810  16.359  20.901   6.886
    5AU     AUC 1811  16.370  21.219   6.918
    5AU     AUC 1812  16.601  20.683   7.988
    5AU     AUC 1813  16.634  21.066   7.990
    5AU     AUC 1814  16.685  20.739   7.019
    5AU     AUC 1815  16.694  21.086   7.031
    5AU     AUC 1816  16.039  20.814   8.013
    5AU     AUC 1817  16.064  21.189   7.978
    5AU     AUC 1818  16.036  20.749   7.041
    5AU     AUC 1819  16.025  21.056   6.993
    5AU     AUC 1820  16.885  21.194   7.327
    5AU     AUC 1821  16.808  21.175   7.692
    5AU     AUC 1822  15.854  21.233   7.331
    5AU     AUC 1823  15.883  21.302   7.676
    5AU     AUC 1824  16.838  20.597   7.351
    5AU     AUC 1825  16.787  20.568   7.676
    5AU     AUC 1826  15.801  20.640   7.368
    5AU     AUC 1827  15.861  20.690   7.715
    5AU     AUC 1828  16.206  21.469   7.744
    5AU     AUC 1829  16.533  21.407   7.763
    5AU     AUC 1830  16.135  20.460   7.789
    5AU     AUC 1831  16.450  20.392   7.764
    5AU     AUC 1832  16.178  21.352   7.179
    5AU     AUC 1833  16.564  21.368   7.158
    5AU     AUC 1834  16.121  20.446   7.208
    5AU     AUC 1835  16.509  20.468   7.213
    5AU    AUSL 1836  16.871  20.802   8.239
    5AU    AUSL 1837  16.588  20.394   8.150
    5AU     AUL 1838  16.893  20.393   8.311
    5AU       S 1839  16.940  19.990   8.086
    5AU     LIG 1840  16.789  19.674   8.312
    5AU     LIG 1841  16.962  19.469   8.672
    5AU     LIG 1842  17.225  19.207   8.901
    5AU     LIG 1843  17.351  18.819   9.085
    5AU       S 1844  17.099  20.787   8.431
    5AU     LIG 1845  17.000  20.896   8.865
    5AU     LIG 1846  17.100  20.828   9.302
    5AU     LIG 1847  17.381  20.672   9.641
    5AU     LIG 1848  17.576  20.417   9.989
    5AU    AUSL 1849  16.460  20.720   8.412
    5AU    AUSL 1850  16.209  21.126   8.434
    5AU     AUL 1851  16.401  20.998   8.723
    5AU       S 1852  16.657  20.626   8.625
    5AU     LIG 1853  16.577  20.632   9.061
    5AU     LIG 1854  16.788  20.440   9.430
    5AU     LIG 1855  17.073  20.281   9.776
    5AU     LIG 1856  17.178  20.178  10.226
    5AU       S 1857  15.970  20.873   8.635
    5AU     LIG 1858  16.071  20.825   9.094
    5AU     LIG 1859  15.840  20.839   9.508
    5AU     LIG 1860  15.540  20.884   9.863
    5AU     LIG 1861  15.428  21.102  10.259
    5AU    AUSL 1862  16.530  21.093   8.156
    5AU    AUSL 1863  16.975  21.212   8.117
    5AU     AUL 1864  16.770  21.109   8.444
    5AU       S 1865  16.456  21.466   8.618
    5AU     LIG 1866  16.827  21.376   8.890
    5AU     LIG 1867  16.988  21.334   9.348
    5AU     LIG 1868  17.021  21.384   9.841
    5AU     LIG 1869  17.040  21.560  10.297
    5AU       S 1870  17.136  21.361   8.286
    5AU     LIG 1871  17.576  21.451   8.242
    5AU     LIG 1872  17.887  21.690   8.502
    5AU     LIG 1873  18.091  21.980   8.828
    5AU     LIG 1874  18.287  22.109   9.237
    5AU    AUSL 1875  16.880  20.949   6.885
    5AU    AUSL 1876  16.784  21.385   6.817
    5AU     AUL 1877  17.083  21.191   6.634
    5AU       S 1878  16.735  21.127   6.359
    5AU     LIG 1879  17.179  21.114   6.108
    5AU     LIG 1880  17.404  20.835   5.808
    5AU     LIG 1881  17.510  20.706   5.376
    5AU     LIG 1882  17.621  20.532   4.959
    5AU       S 1883  17.120  21.642   6.812
    5AU     LIG 1884  17.395  21.839   6.508
    5AU     LIG 1885  17.622  22.062   6.180
    5AU     LIG 1886  17.769  22.212   5.751
    5AU     LIG 1887  18.113  22.290   5.442
    5AU    AUSL 1888  16.663  20.702   6.582
    5AU    AUSL 1889  17.080  20.567   6.924
    5AU     AUL 1890  17.033  20.723   6.644
    5AU       S 1891  17.154  20.265   6.698
    5AU     LIG 1892  17.290  19.939   6.379
    5AU     LIG 1893  17.580  19.675   6.153
    5AU     LIG 1894  17.967  19.455   6.030
    5AU     LIG 1895  18.329  19.631   5.765
    5AU       S 1896  16.785  20.934   6.314
    5AU     LIG 1897  16.977  20.616   6.057
    5AU     LIG 1898  17.090  20.478   5.605
    5AU     LIG 1899  17.159  20.383   5.142
    5AU     LIG 1900  17.211  20.341   4.668
    5AU    AUSL 1901  16.479  21.075   6.755
    5AU    AUSL 1902  16.239  20.695   6.697
    5AU     AUL 1903  16.387  20.742   6.428
    5AU       S 1904  15.929  20.756   6.289
    5AU     LIG 1905  15.915  20.439   5.992
    5AU     LIG 1906  15.669  20.337   5.612
    5AU     LIG 1907  15.660  20.315   5.138
    5AU     LIG 1908  15.522  20.354   4.682
    5AU       S 1909  16.563  21.193   6.443
    5AU     LIG 1910  16.503  21.080   5.936
    5AU     LIG 1911  16.885  20.959   5.672
    5AU     LIG 1912  17.048  20.881   5.238
    5AU     LIG 1913  17.108  20.909   4.770
    5AU    AUSL 1914  15.807  21.083   8.244
    5AU    AUSL 1915  16.125  21.417   8.121
    5AU     AUL 1916  15.971  21.362   8.450
    5AU       S 1917  15.789  20.988   8.689
    5AU     LIG 1918  15.550  20.865   9.068
    5AU     LIG 1919  15.352  20.646   9.437
    5AU     LIG 1920  15.171  20.503   9.856
    5AU     LIG 1921  14.899  20.512  10.241
    5AU       S 1922  15.719  21.673   8.204
    5AU     LIG 1923  15.852  21.857   8.574
    5AU     LIG 1924  15.643  22.081   8.913
    5AU     LIG 1925  15.359  22.327   9.186
    5AU     LIG 1926  15.392  22.566   9.597
    5AU    AUSL 1927  16.117  20.788   8.157
    5AU    AUSL 1928  15.689  20.658   8.145
    5AU     AUL 1929  15.609  20.887   8.275
    5AU       S 1930  15.601  20.432   8.403
    5AU     LIG 1931  15.136  20.394   8.265
    5AU     LIG 1932  14.772  20.097   8.414
    5AU     LIG 1933  14.529  19.743   8.628
    5AU     LIG 1934  14.252  19.457   8.868
    5AU       S 1935  15.988  20.728   8.548
    5AU     LIG 1936  15.790  20.457   8.881
    5AU     LIG 1937  15.775  20.368   9.323
    5AU     LIG 1938  15.670  20.386   9.780
    5AU     LIG 1939  15.535  20.261  10.222
    5AU    AUSL 1940  15.835  20.845   6.778
    5AU    AUSL 1941  16.022  20.469   6.990
    5AU     AUL 1942  16.001  20.469   6.637
    5AU       S 1943  15.687  20.742   6.427
    5AU     LIG 1944  15.430  20.541   6.110
    5AU     LIG 1945  15.245  20.619   5.686
    5AU     LIG 1946  15.227  20.572   5.213
    5AU     LIG 1947  15.052  20.548   4.776
    5AU       S 1948  15.589  20.334   6.788
    5AU     LIG 1949  15.335  20.131   6.482
    5AU     LIG 1950  15.108  19.740   6.375
    5AU     LIG 1951  14.969  19.437   6.048
    5AU     LIG 1952  15.106  19.228   5.630
    5AU    AUSL 1953  16.108  21.121   6.545
    5AU    AUSL 1954  15.614  21.203   6.913
    5AU     AUL 1955  15.748  21.169   6.590
    5AU       S 1956  15.351  21.383   6.748
    5AU     LIG 1957  15.144  21.710   6.454
    5AU     LIG 1958  15.086  22.087   6.158
    5AU     LIG 1959  14.698  22.163   5.857
    5AU     LIG 1960  14.418  21.964   5.510
    5AU       S 1961  16.006  20.979   6.246
    5AU     LIG 1962  15.712  20.898   5.858
    5AU     LIG 1963  15.654  20.806   5.404
    5AU     LIG 1964  15.607  20.800   4.945
    5AU     LIG 1965  15.474  20.911   4.528
    5AU    AUSL 1966  17.127  21.422   7.523
    5AU    AUSL 1967  17.126  21.237   7.099
    5AU     AUL 1968  17.402  21.528   7.351
    5AU       S 1969  17.220  21.498   6.945
    5AU     LIG 1970  17.618  21.430   6.704
    5AU     LIG 1971  17.887  21.593   6.327
    5AU     LIG 1972  18.086  21.929   6.035
    5AU     LIG 1973  18.249  22.361   5.934
    5AU       S 1974  17.506  21.294   7.743
    5AU     LIG 1975  17.737  21.721   7.786
    5AU     LIG 1976  18.077  21.929   7.459
    5AU     LIG 1977  18.467  22.194   7.317
    5AU     LIG 1978  18.845  22.371   7.583
    5AU    AUSL 1979  17.333  21.008   7.405
    5AU    AUSL 1980  17.264  20.682   7.725
    5AU     AUL 1981  17.634  20.789   7.742
    5AU       S 1982  17.455  21.085   7.457
    5AU     LIG 1983  17.873  20.975   7.314
    5AU     LIG 1984  18.305  21.187   7.258
    5AU     LIG 1985  18.753  21.157   7.076
    5AU     LIG 1986  19.181  21.344   7.043
    5AU       S 1987  17.510  20.391   7.554
    5AU     LIG 1988  17.921  20.352   7.724
    5AU     LIG 1989  18.203  20.043   7.953
    5AU     LIG 1990  18.634  19.903   8.016
    5AU     LIG 1991  19.091  19.830   7.986
    5AU    AUSL 1992  17.030  21.043   7.730
    5AU    AUSL 1993  16.778  21.434   7.784
    5AU     AUL 1994  17.101  21.493   7.830
    5AU       S 1995  17.098  21.668   8.250
    5AU     LIG 1996  17.466  21.946   8.315
    5AU     LIG 1997  17.841  22.206   8.439
    5AU     LIG 1998  18.053  22.506   8.730
    5AU     LIG 1999  18.150  22.925   8.855
    5AU       S 2000  17.375  21.132   7.874
    5AU     LIG 2001  17.953  21.164   7.821
    5AU     LIG 2002  18.361  21.409   7.728
    5AU     LIG 2003  18.821  21.476   7.918
    5AU     LIG 2004  19.293  21.554   8.054
    5AU    AUSL 2005  15.709  21.527   7.495
    5AU    AUSL 2006  15.765  21.311   7.886
    5AU     AUL 2007  15.481  21.651   7.723
    5AU       S 2008  15.589  21.466   8.132
    5AU     LIG 2009  15.453  21.505   8.588
    5AU     LIG 2010  15.204  21.825   8.841
    5AU     LIG 2011  14.892  22.148   9.008
    5AU     LIG 2012  14.453  22.257   9.177
    5AU       S 2013  15.736  21.914   7.421
    5AU     LIG 2014  15.286  21.989   7.337
    5AU     LIG 2015  14.913  22.275   7.482
    5AU     LIG 2016  14.445  22.281   7.541
    5AU     LIG 2017  14.046  22.435   7.356
    5AU    AUSL 2018  15.657  21.119   7.325
    5AU    AUSL 2019  15.786  21.583   7.075
    5AU     AUL 2020  15.484  21.477   7.195
    5AU       S 2021  15.264  20.910   6.959
    5AU     LIG 2022  14.919  21.220   7.031
    5AU     LIG 2023  14.525  21.483   6.992
    5AU     LIG 2024  14.157  21.632   6.758
    5AU     LIG 2025  13.770  21.859   6.657
    5AU       S 2026  15.632  21.833   6.908
    5AU     LIG 2027  15.411  22.115   6.613
    5AU     LIG 2028  15.415  22.503   6.364
    5AU     LIG 2029  15.227  22.853   6.104
    5AU     LIG 2030  15.131  23.297   5.941
    5AU    AUSL 2031  15.408  21.196   7.686
    5AU    AUSL 2032  15.363  20.817   7.412
    5AU     AUL 2033  15.254  21.123   7.386
    5AU       S 2034  15.167  20.756   7.688
    5AU     LIG 2035  14.855  20.770   7.334
    5AU     LIG 2036  14.462  20.512   7.245
    5AU     LIG 2037  13.988  20.443   7.302
    5AU     LIG 2038  13.621  20.460   6.999
    5AU       S 2039  15.204  21.263   7.864
    5AU     LIG 2040  14.692  21.312   7.890
    5AU     LIG 2041  14.256  21.518   8.036
    5AU     LIG 2042  13.832  21.743   8.200
    5AU     LIG 2043  13.379  21.588   8.159
    5AU    AUSL 2044  17.048  20.324   7.554
    5AU    AUSL 2045  16.863  20.594   7.867
    5AU     AUL 2046  17.198  20.495   7.942
    5AU       S 2047  17.337  20.209   7.578
    5AU     LIG 2048  17.610  19.910   7.752
    5AU     LIG 2049  18.003  19.720   7.598
    5AU     LIG 2050  18.447  19.709   7.571
    5AU     LIG 2051  18.876  19.556   7.572
    5AU       S 2052  17.072  20.062   7.980
    5AU     LIG 2053  17.302  19.779   8.351
    5AU     LIG 2054  17.562  19.472   8.605
    5AU     LIG 2055  17.968  19.393   8.852
    5AU     LIG 2056  18.249  19.625   9.160
    5AU    AUSL 2057  17.042  20.704   7.328
    5AU    AUSL 2058  16.912  20.218   7.152
    5AU     AUL 2059  17.186  20.362   7.169
    5AU       S 2060  17.545  20.554   7.348
    5AU     LIG 2061  17.797  20.097   7.281
    5AU     LIG 2062  18.195  19.859   7.134
    5AU     LIG 2063  18.667  19.752   7.109
    5AU     LIG 2064  19.098  19.969   7.088
    5AU       S 2065  17.108  20.027   6.840
    5AU     LIG 2066  17.201  19.570   6.765
    5AU     LIG 2067  17.529  19.331   6.519
    5AU     LIG 2068  17.794  19.019   6.286
    5AU     LIG 2069  17.875  18.587   6.087
    5AU    AUSL 2070  15.549  20.444   7.573
    5AU    AUSL 2071  15.665  20.678   7.139
    5AU     AUL 2072  15.318  20.525   7.289
    5AU       S 2073  15.528  20.501   6.874
    5AU     LIG 2074  15.077  20.313   6.907
    5AU     LIG 2075  14.818  20.087   6.615
    5AU     LIG 2076  14.591  19.837   6.279
    5AU     LIG 2077  14.171  19.674   6.071
    5AU       S 2078  15.127  20.520   7.730
    5AU     LIG 2079  14.894  20.263   7.404
    5AU     LIG 2080  14.614  19.930   7.213
    5AU     LIG 2081  14.307  19.606   7.434
    5AU     LIG 2082  13.861  19.458   7.540
    5AU    AUSL 2083  15.641  20.839   7.760
    5AU    AUSL 2084  15.896  20.441   7.829
    5AU     AUL 2085  15.543  20.429   7.914
    5AU       S 2086  15.610  20.223   8.328
    5AU     LIG 2087  15.296  19.905   8.188
    5AU     LIG 2088  14.924  19.601   8.305
    5AU     LIG 2089  14.625  19.247   8.470
    5AU     LIG 2090  14.479  18.800   8.602
    5AU       S 2091  15.238  20.779   7.883
    5AU     LIG 2092  14.699  20.785   7.838
    5AU     LIG 2093  14.262  20.640   7.699
    5AU     LIG 2094  13.793  20.588   7.832
    5AU     LIG 2095  13.449  20.248   8.001
    5AU    AUSL 2096  16.395  21.665   7.887
    5AU    AUSL 2097  15.959  21.697   7.809
    5AU     AUL 2098  16.190  21.741   8.176
    5AU       S 2099  15.811  21.908   7.951
    5AU     LIG 2100  15.502  22.112   8.292
    5AU     LIG 2101  15.248  22.313   8.652
    5AU     LIG 2102  14.888  22.631   8.738
    5AU     LIG 2103  14.637  23.015   8.540
    5AU       S 2104  16.388  22.083   7.934
    5AU     LIG 2105  16.334  22.233   8.323
    5AU     LIG 2106  16.416  22.646   8.485
    5AU     LIG 2107  16.384  23.094   8.608
    5AU     LIG 2108  16.276  23.359   8.970
    5AU    AUSL 2109  16.235  21.888   7.532
    5AU    AUSL 2110  16.530  21.811   7.171
    5AU     AUL 2111  16.469  22.151   7.320
    5AU       S 2112  16.222  22.118   7.731
    5AU     LIG 2113  16.271  22.575   7.931
    5AU     LIG 2114  16.471  22.975   8.095
    5AU     LIG 2115  16.266  23.393   8.188
    5AU     LIG 2116  15.993  23.810   8.160
    5AU       S 2117  16.263  21.981   6.946
    5AU     LIG 2118  16.671  22.269   6.871
    5AU     LIG 2119  16.736  22.772   6.817
    5AU     LIG 2120  16.798  23.257   6.848
    5AU     LIG 2121  16.914  23.672   6.629
    5AU    AUSL 2122  16.688  21.800   7.583
    5AU    AUSL 2123  16.638  21.504   8.202
    5AU     AUL 2124  16.739  21.772   7.968
    5AU       S 2125  16.884  21.591   8.404
    5AU     LIG 2126  17.273  21.621   8.706
    5AU     LIG 2127  17.574  21.941   8.837
    5AU     LIG 2128  17.758  22.071   9.240
    5AU     LIG 2129  17.686  22.133   9.711
    5AU       S 2130  16.587  22.164   7.770
    5AU     LIG 2131  16.747  22.478   8.080
    5AU     LIG 2132  17.025  22.853   8.139
    5AU     LIG 2133  17.039  23.303   8.168
    5AU     LIG 2134  16.817  23.667   8.376
    5AU    AUSL 2135  16.267  20.204   7.920
    5AU    AUSL 2136  16.684  20.207   7.756
    5AU     AUL 2137  16.495  20.084   8.138
    5AU       S 2138  16.214  19.750   7.986
    5AU     LIG 2139  16.277  19.534   8.336
    5AU     LIG 2140  16.154  19.127   8.444
    5AU     LIG 2141  16.377  18.781   8.630
    5AU     LIG 2142  16.438  18.448   8.948
    5AU       S 2143  16.842  19.958   7.804
    5AU     LIG 2144  17.160  19.568   7.910
    5AU     LIG 2145  17.219  19.244   8.280
    5AU     LIG 2146  17.528  18.940   8.563
    5AU     LIG 2147  17.885  18.627   8.706
    5AU    AUSL 2148  15.946  20.068   7.633
    5AU    AUSL 2149  16.062  20.379   8.251
    5AU     AUL 2150  15.910  20.112   7.994
    5AU       S 2151  16.031  19.685   7.855
    5AU     LIG 2152  15.814  19.368   8.123
    5AU     LIG 2153  15.866  18.876   8.093
    5AU     LIG 2154  15.798  18.389   8.038
    5AU     LIG 2155  15.625  18.026   8.288
    5AU       S 2156  15.896  20.262   8.441
    5AU     LIG 2157  15.772  19.782   8.454
    5AU     LIG 2158  15.341  19.632   8.619
    5AU     LIG 2159  14.951  19.451   8.823
    5AU     LIG 2160  14.864  19.117   9.149
    5AU    AUSL 2161  16.385  19.945   7.586
    5AU    AUSL 2162  16.130  20.086   7.234
    5AU     AUL 2163  16.021  19.826   7.413
    5AU       S 2164  16.369  19.807   7.109
    5AU     LIG 2165  16.042  19.495   7.039
    5AU     LIG 2166  15.920  19.088   6.888
    5AU     LIG 2167  15.942  18.624   6.877
    5AU     LIG 2168  15.900  18.231   6.629
    5AU       S 2169  16.372  19.720   7.757
    5AU     LIG 2170  16.245  19.231   7.911
    5AU     LIG 2171  16.391  18.818   8.102
    5AU     LIG 2172  16.284  18.375   8.297
    5AU     LIG 2173  16.409  17.908   8.416
    5AU    AUSL 2174  16.371  21.533   6.848
    5AU    AUSL 2175  16.799  21.489   7.245
    5AU     AUL 2176  16.669  21.717   6.870
    5AU       S 2177  16.274  21.943   6.728
    5AU     LIG 2178  16.340  22.311   6.482
    5AU     LIG 2179  16.557  22.682   6.302
    5AU     LIG 2180  16.558  23.123   6.379
    5AU     LIG 2181  16.796  23.462   6.163
    5AU       S 2182  17.041  21.734   7.142
    5AU     LIG 2183  17.549  21.864   7.015
    5AU     LIG 2184  17.882  21.969   6.677
    5AU     LIG 2185  18.109  22.324   6.444
    5AU     LIG 2186  18.040  22.756   6.232
    5AU    AUSL 2187  16.171  21.575   7.249
    5AU    AUSL 2188  16.057  21.253   6.947
    5AU     AUL 2189  16.024  21.561   6.805
    5AU       S 2190  16.087  21.960   7.071
    5AU     LIG 2191  16.229  22.462   6.992
    5AU     LIG 2192  16.239  22.781   6.677
    5AU     LIG 2193  16.133  23.230   6.736
    5AU     LIG 2194  15.914  23.593   6.995
    5AU       S 2195  15.588  21.606   6.657
    5AU     LIG 2196  15.843  21.888   6.434
    5AU     LIG 2197  15.637  22.117   6.110
    5AU     LIG 2198  15.470  22.456   5.844
    5AU     LIG 2199  15.273  22.626   5.445
    5AU    AUSL 2200  16.352  20.217   6.869
    5AU    AUSL 2201  15.734  20.245   7.237
    5AU     AUL 2202  15.986  20.082   6.932
    5AU       S 2203  15.552  20.205   7.043
    5AU     LIG 2204  15.315  19.854   6.923
    5AU     LIG 2205  14.917  19.646   6.852
    5AU     LIG 2206  14.728  19.381   6.521
    5AU     LIG 2207  14.548  18.952   6.405
    5AU       S 2208  16.390  19.819   6.865
    5AU     LIG 2209  16.333  19.453   6.608
    5AU     LIG 2210  16.343  18.988   6.610
    5AU     LIG 2211  16.238  18.572   6.444
    5AU     LIG 2212  15.980  18.302   6.127
    5AU    AUSL 2213  16.522  20.242   7.306
    5AU    AUSL 2214  16.634  20.526   6.968
    5AU     AUL 2215  16.678  20.178   6.915
    5AU       S 2216  16.585  19.818   7.185
    5AU     LIG 2217  16.543  19.340   7.069
    5AU     LIG 2218  16.348  18.913   7.123
    5AU     LIG 2219  16.433  18.473   6.947
    5AU     LIG 2220  16.788  18.163   6.818
    5AU       S 2221  16.915  20.272   6.548
    5AU     LIG 2222  16.804  19.792   6.511
    5AU     LIG 2223  17.077  19.469   6.272
    5AU     LIG 2224  17.383  19.223   6.015
    5AU     LIG 2225  17.422  18.999   5.608
    6AU     AUC 2226  28.827  33.776   7.501
    6AU     AUC 2227  29.090  33.780   7.336
    6AU     AUC 2228  29.083  33.760   7.671
    6AU     AUC 2229  28.554  33.781   7.334
    6AU     AUC 2230  28.580  33.820   7.686
    6AU     AUC 2231  28.665  34.057   7.501
    6AU     AUC 2232  29.012  34.045   7.488
    6AU     AUC 2233  28.639  33.521   7.504
    6AU     AUC 2234  28.984  33.484   7.503
    6AU     AUC 2235  28.826  33.605   7.774
    6AU     AUC 2236  28.828  33.965   7.760
    6AU     AUC 2237  28.816  33.609   7.230
    6AU     AUC 2238  28.849  33.928   7.224
    6AU     AUC 2239  29.416  33.771   7.183
    6AU     AUC 2240  29.431  33.737   7.517
    6AU     AUC 2241  29.380  33.727   7.865
    6AU     AUC 2242  28.241  33.781   7.160
    6AU     AUC 2243  28.225  33.830   7.522
    6AU     AUC 2244  28.281  33.852   7.878
    6AU     AUC 2245  28.507  34.377   7.484
    6AU     AUC 2246  28.873  34.399   7.437
    6AU     AUC 2247  29.203  34.326   7.474
    6AU     AUC 2248  28.422  33.239   7.508
    6AU     AUC 2249  28.782  33.177   7.483
    6AU     AUC 2250  29.147  33.175   7.491
    6AU     AUC 2251  28.799  33.425   8.073
    6AU     AUC 2252  28.837  33.783   8.105
    6AU     AUC 2253  28.868  34.137   8.052
    6AU     AUC 2254  28.842  33.430   6.949
    6AU     AUC 2255  28.814  33.766   6.888
    6AU     AUC 2256  28.830  34.097   6.909
    6AU     AUC 2257  29.097  33.541   7.997
    6AU     AUC 2258  29.143  33.929   7.987
    6AU     AUC 2259  29.144  33.609   7.012
    6AU     AUC 2260  29.137  33.961   7.029
    6AU     AUC 2261  28.520  33.653   8.011
    6AU     AUC 2262  28.565  34.021   8.000
    6AU     AUC 2263  28.518  33.588   7.039
    6AU     AUC 2264  28.496  33.918   6.997
    6AU     AUC 2265  29.364  34.043   7.330
    6AU     AUC 2266  29.311  34.025   7.688
    6AU     AUC 2267  28.348  34.090   7.333
    6AU     AUC 2268  28.369  34.145   7.692
    6AU     AUC 2269  29.306  33.461   7.343
    6AU     AUC 2270  29.258  33.405   7.695
    6AU     AUC 2271  28.309  33.476   7.341
    6AU     AUC 2272  28.359  33.536   7.698
    6AU     AUC 2273  28.693  34.309   7.761
    6AU     AUC 2274  29.037  34.254   7.761
    6AU     AUC 2275  28.604  33.318   7.791
    6AU     AUC 2276  28.938  33.248   7.775
    6AU     AUC 2277  28.666  34.212   7.182
    6AU     AUC 2278  29.044  34.237   7.166
    6AU     AUC 2279  28.631  33.305   7.206
    6AU     AUC 2280  29.028  33.317   7.208
    6AU    AUSL 2281  29.391  33.667   8.231
    6AU    AUSL 2282  29.092  33.239   8.182
    6AU     AUL 2283  29.406  33.259   8.322
    6AU       S 2284  29.393  32.815   8.175
    6AU     LIG 2285  29.501  32.456   8.449
    6AU     LIG 2286  29.673  32.125   8.728
    6AU     LIG 2287  29.987  32.041   9.020
    6AU     LIG 2288  30.362  32.090   9.300
    6AU       S 2289  29.630  33.657   8.399
    6AU     LIG 2290  29.555  33.793   8.835
    6AU     LIG 2291  29.717  33.706   9.241
    6AU     LIG 2292  30.142  33.747   9.429
    6AU     LIG 2293  30.335  33.846   9.838
    6AU    AUSL 2294  28.990  33.592   8.413
    6AU    AUSL 2295  28.724  33.963   8.439
    6AU     AUL 2296  28.939  33.881   8.727
    6AU       S 2297  29.197  33.512   8.636
    6AU     LIG 2298  29.124  33.546   9.069
    6AU     LIG 2299  29.325  33.416   9.462
    6AU     LIG 2300  29.399  33.157   9.853
    6AU     LIG 2301  29.364  32.985  10.297
    6AU       S 2302  28.524  33.709   8.666
    6AU     LIG 2303  28.583  33.622   9.126
    6AU     LIG 2304  28.318  33.707   9.511
    6AU     LIG 2305  28.006  33.799   9.846
    6AU     LIG 2306  27.874  34.114  10.171
    6AU    AUSL 2307  29.046  33.963   8.157
    6AU    AUSL 2308  29.496  34.071   8.101
    6AU     AUL 2309  29.298  33.977   8.434
    6AU       S 2310  28.956  34.338   8.586
    6AU     LIG 2311  29.312  34.241   8.877
    6AU     LIG 2312  29.445  34.139   9.330
    6AU     LIG 2313  29.442  34.174   9.824
    6AU     LIG 2314  29.495  34.336  10.277
    6AU       S 2315  29.662  34.225   8.271
    6AU     LIG 2316  30.070  34.109   8.387
    6AU     LIG 2317  30.389  34.371   8.606
    6AU     LIG 2318  30.650  34.727   8.840
    6AU     LIG 2319  30.829  35.140   9.059
    6AU    AUSL 2320  29.270  33.822   6.890
    6AU    AUSL 2321  29.208  34.258   6.868
    6AU     AUL 2322  29.382  34.167   6.625
    6AU       S 2323  29.256  33.902   6.284
    6AU     LIG 2324  29.747  33.764   6.247
    6AU     LIG 2325  29.959  33.508   5.910
    6AU     LIG 2326  29.856  33.493   5.457
    6AU     LIG 2327  29.870  33.498   4.987
    6AU       S 2328  29.640  34.468   6.881
    6AU     LIG 2329  29.734  34.602   6.475
    6AU     LIG 2330  29.896  34.803   6.080
    6AU     LIG 2331  30.079  35.111   5.783
    6AU     LIG 2332  29.998  35.329   5.366
    6AU    AUSL 2333  29.111  33.563   6.572
    6AU    AUSL 2334  29.576  33.525   6.931
    6AU     AUL 2335  29.484  33.701   6.661
    6AU       S 2336  29.702  33.284   6.710
    6AU     LIG 2337  30.110  33.113   6.640
    6AU     LIG 2338  30.105  32.691   6.496
    6AU     LIG 2339  30.279  32.412   6.192
    6AU     LIG 2340  30.236  32.500   5.734
    6AU       S 2341  29.252  33.689   6.252
    6AU     LIG 2342  29.485  33.345   6.079
    6AU     LIG 2343  29.529  33.157   5.656
    6AU     LIG 2344  29.506  33.179   5.178
    6AU     LIG 2345  29.450  33.132   4.699
    6AU    AUSL 2346  28.932  33.981   6.664
    6AU    AUSL 2347  28.713  33.582   6.750
    6AU     AUL 2348  28.835  33.621   6.432
    6AU       S 2349  28.402  33.610   6.282
    6AU     LIG 2350  28.499  33.438   5.884
    6AU     LIG 2351  28.251  33.204   5.562
    6AU     LIG 2352  28.056  33.243   5.136
    6AU     LIG 2353  28.139  33.354   4.674
    6AU       S 2354  28.998  34.049   6.368
    6AU     LIG 2355  28.886  33.815   5.946
    6AU     LIG 2356  29.269  33.643   5.675
    6AU     LIG 2357  29.441  33.699   5.228
    6AU     LIG 2358  29.526  33.883   4.803
    6AU    AUSL 2359  28.314  33.918   8.279
    6AU    AUSL 2360  28.606  34.275   8.159
    6AU     AUL 2361  28.488  34.200   8.487
    6AU       S 2362  28.343  33.822   8.731
    6AU     LIG 2363  28.062  33.678   9.049
    6AU     LIG 2364  27.816  33.558   9.425
    6AU     LIG 2365  27.607  33.428   9.831
    6AU     LIG 2366  27.227  33.232  10.055
    6AU       S 2367  28.242  34.511   8.234
    6AU     LIG 2368  28.333  34.840   8.469
    6AU     LIG 2369  28.065  34.991   8.781
    6AU     LIG 2370  27.768  35.246   9.032
    6AU     LIG 2371  27.625  35.346   9.453
    6AU    AUSL 2372  28.618  33.609   8.184
    6AU    AUSL 2373  28.157  33.548   8.097
    6AU     AUL 2374  28.174  33.624   8.351
    6AU       S 2375  27.967  33.193   8.243
    6AU     LIG 2376  27.561  32.953   8.185
    6AU     LIG 2377  27.118  32.870   8.261
    6AU     LIG 2378  26.844  32.788   8.631
    6AU     LIG 2379  26.814  32.781   9.117
    6AU       S 2380  28.564  33.522   8.584
    6AU     LIG 2381  28.307  33.272   8.841
    6AU     LIG 2382  28.226  33.247   9.298
    6AU     LIG 2383  28.104  33.274   9.750
    6AU     LIG 2384  28.051  33.039  10.150
    6AU    AUSL 2385  28.274  33.635   6.765
    6AU    AUSL 2386  28.482  33.265   6.930
    6AU     AUL 2387  28.517  33.302   6.616
    6AU       S 2388  28.215  33.544   6.352
    6AU     LIG 2389  27.992  33.450   5.963
    6AU     LIG 2390  27.758  33.396   5.570
    6AU     LIG 2391  27.616  33.526   5.157
    6AU     LIG 2392  27.645  33.474   4.694
    6AU       S 2393  28.118  33.110   6.768
    6AU     LIG 2394  27.812  32.753   6.663
    6AU     LIG 2395  27.499  32.508   6.411
    6AU     LIG 2396  27.395  32.184   6.084
    6AU     LIG 2397  27.283  32.390   5.687
    6AU    AUSL 2398  28.508  33.959   6.585
    6AU    AUSL 2399  28.152  34.047   6.906
    6AU     AUL 2400  28.077  33.860   6.653
    6AU       S 2401  28.157  34.310   6.654
    6AU     LIG 2402  27.894  34.618   6.405
    6AU     LIG 2403  27.625  34.805   6.040
    6AU     LIG 2404  27.189  34.858   5.833
    6AU     LIG 2405  26.728  34.700   5.786
    6AU       S 2406  28.443  33.892   6.339
    6AU     LIG 2407  28.258  33.898   5.901
    6AU     LIG 2408  28.164  33.702   5.485
    6AU     LIG 2409  28.067  33.744   5.026
    6AU     LIG 2410  28.089  33.907   4.597
    6AU    AUSL 2411  29.655  34.245   7.509
    6AU    AUSL 2412  29.576  34.058   7.083
    6AU     AUL 2413  29.928  34.342   7.279
    6AU       S 2414  29.685  34.139   6.962
    6AU     LIG 2415  29.935  34.119   6.598
    6AU     LIG 2416  30.185  34.400   6.311
    6AU     LIG 2417  30.398  34.720   6.033
    6AU     LIG 2418  30.577  34.984   5.686
    6AU       S 2419  30.025  34.104   7.682
    6AU     LIG 2420  30.245  34.527   7.644
    6AU     LIG 2421  30.729  34.598   7.513
    6AU     LIG 2422  31.186  34.680   7.651
    6AU     LIG 2423  31.561  34.958   7.797
    6AU    AUSL 2424  29.806  33.826   7.368
    6AU    AUSL 2425  29.741  33.503   7.708
    6AU     AUL 2426  30.076  33.556   7.634
    6AU       S 2427  29.942  33.899   7.389
    6AU     LIG 2428  30.297  33.973   7.118
    6AU     LIG 2429  30.718  34.202   7.069
    6AU     LIG 2430  31.125  34.447   7.181
    6AU     LIG 2431  31.522  34.652   6.984
    6AU       S 2432  29.968  33.097   7.664
    6AU     LIG 2433  30.395  33.110   7.733
    6AU     LIG 2434  30.799  32.968   7.718
    6AU     LIG 2435  31.186  32.866   7.856
    6AU     LIG 2436  31.407  32.913   8.268
    6AU    AUSL 2437  29.532  33.879   7.722
    6AU    AUSL 2438  29.303  34.289   7.767
    6AU     AUL 2439  29.633  34.324   7.813
    6AU       S 2440  29.627  34.529   8.223
    6AU     LIG 2441  30.066  34.605   8.262
    6AU     LIG 2442  30.400  34.876   8.422
    6AU     LIG 2443  30.632  35.249   8.601
    6AU     LIG 2444  30.679  35.652   8.846
    6AU       S 2445  29.881  33.933   7.842
    6AU     LIG 2446  30.362  33.897   7.990
    6AU     LIG 2447  30.847  33.903   7.896
    6AU     LIG 2448  31.234  34.073   8.061
    6AU     LIG 2449  31.603  34.385   7.972
    6AU    AUSL 2450  28.153  34.380   7.534
    6AU    AUSL 2451  28.265  34.133   7.909
    6AU     AUL 2452  27.954  34.471   7.809
    6AU       S 2453  28.088  34.314   8.217
    6AU     LIG 2454  27.827  34.620   8.492
    6AU     LIG 2455  27.577  34.812   8.837
    6AU     LIG 2456  27.352  34.928   9.236
    6AU     LIG 2457  26.961  34.790   9.492
    6AU       S 2458  28.149  34.738   7.463
    6AU     LIG 2459  27.707  34.948   7.626
    6AU     LIG 2460  27.337  35.297   7.691
    6AU     LIG 2461  26.876  35.496   7.796
    6AU     LIG 2462  26.414  35.640   7.658
    6AU    AUSL 2463  28.135  33.995   7.327
    6AU    AUSL 2464  28.272  34.431   7.121
    6AU     AUL 2465  27.971  34.309   7.160
    6AU       S 2466  27.707  33.924   6.987
    6AU     LIG 2467  27.260  34.165   6.973
    6AU     LIG 2468  26.881  34.502   6.901
    6AU     LIG 2469  26.457  34.641   6.684
    6AU     LIG 2470  26.014  34.819   6.763
    6AU       S 2471  28.101  34.706   6.900
    6AU     LIG 2472  28.029  35.067   6.620
    6AU     LIG 2473  27.679  35.201   6.362
    6AU     LIG 2474  27.306  35.472   6.349
    6AU     LIG 2475  27.107  35.891   6.279
    6AU    AUSL 2476  27.893  34.025   7.725
    6AU    AUSL 2477  27.852  33.677   7.362
    6AU     AUL 2478  27.750  34.010   7.449
    6AU       S 2479  27.572  33.570   7.562
    6AU     LIG 2480  27.179  33.352   7.440
    6AU     LIG 2481  26.889  33.022   7.373
    6AU     LIG 2482  26.491  33.000   7.206
    6AU     LIG 2483  26.057  32.867   7.173
    6AU       S 2484  27.804  33.966   7.968
    6AU     LIG 2485  27.377  34.100   7.821
    6AU     LIG 2486  26.912  34.228   7.910
    6AU     LIG 2487  26.443  34.355   7.987
    6AU     LIG 2488  25.977  34.485   8.155
    6AU    AUSL 2489  29.504  33.166   7.545
    6AU    AUSL 2490  29.343  33.442   7.873
    6AU     AUL 2491  29.673  33.336   7.930
    6AU       S 2492  29.680  33.011   7.538
    6AU     LIG 2493  29.877  32.621   7.719
    6AU     LIG 2494  30.129  32.238   7.720
    6AU     LIG 2495  30.531  32.120   7.512
    6AU     LIG 2496  30.951  32.024   7.551
    6AU       S 2497  29.564  32.904   8.015
    6AU     LIG 2498  29.900  32.705   8.232
    6AU     LIG 2499  30.035  32.466   8.602
    6AU     LIG 2500  30.394  32.368   8.862
    6AU     LIG 2501  30.809  32.191   8.962
    6AU    AUSL 2502  29.477  33.556   7.345
    6AU    AUSL 2503  29.444  33.139   7.116
    6AU     AUL 2504  29.732  33.365   7.198
    6AU       S 2505  29.971  33.109   7.468
    6AU     LIG 2506  30.235  32.945   7.119
    6AU     LIG 2507  30.657  32.835   6.936
    6AU     LIG 2508  31.131  32.714   6.962
    6AU     LIG 2509  31.571  32.892   7.041
    6AU       S 2510  29.642  33.039   6.845
    6AU     LIG 2511  29.861  32.651   6.944
    6AU     LIG 2512  30.046  32.254   6.756
    6AU     LIG 2513  30.339  31.953   6.561
    6AU     LIG 2514  30.546  31.699   6.226
    6AU    AUSL 2515  28.012  33.297   7.543
    6AU    AUSL 2516  28.202  33.516   7.168
    6AU     AUL 2517  27.840  33.418   7.203
    6AU       S 2518  28.009  33.252   6.816
    6AU     LIG 2519  27.541  33.159   6.817
    6AU     LIG 2520  27.169  32.892   6.626
    6AU     LIG 2521  26.721  32.845   6.401
    6AU     LIG 2522  26.519  32.901   5.997
    6AU       S 2523  27.635  33.271   7.605
    6AU     LIG 2524  27.370  32.897   7.704
    6AU     LIG 2525  26.982  32.664   7.812
    6AU     LIG 2526  26.601  32.615   7.597
    6AU     LIG 2527  26.345  32.241   7.611
    6AU    AUSL 2528  28.153  33.693   7.693
    6AU    AUSL 2529  28.351  33.292   7.806
    6AU     AUL 2530  27.951  33.475   7.874
    6AU       S 2531  28.028  33.040   7.997
    6AU     LIG 2532  27.826  32.614   7.891
    6AU     LIG 2533  27.718  32.219   8.132
    6AU     LIG 2534  27.418  31.978   8.418
    6AU     LIG 2535  27.227  31.569   8.531
    6AU       S 2536  27.553  33.619   7.718
    6AU     LIG 2537  27.298  33.336   7.967
    6AU     LIG 2538  26.903  33.168   7.857
    6AU     LIG 2539  26.575  32.928   8.010
    6AU     LIG 2540  26.082  32.991   8.051
    6AU    AUSL 2541  28.886  34.459   7.884
    6AU    AUSL 2542  28.446  34.521   7.823
    6AU     AUL 2543  28.710  34.594   8.169
    6AU       S 2544  28.329  34.731   7.936
    6AU     LIG 2545  27.956  34.931   8.099
    6AU     LIG 2546  27.712  35.153   8.446
    6AU     LIG 2547  27.675  35.585   8.636
    6AU     LIG 2548  27.298  35.878   8.723
    6AU       S 2549  28.933  34.951   7.964
    6AU     LIG 2550  29.016  35.259   8.322
    6AU     LIG 2551  29.011  35.724   8.478
    6AU     LIG 2552  28.943  36.084   8.792
    6AU     LIG 2553  28.898  36.572   8.916
    6AU    AUSL 2554  28.717  34.748   7.581
    6AU    AUSL 2555  29.034  34.672   7.184
    6AU     AUL 2556  28.802  34.934   7.314
    6AU       S 2557  28.779  34.947   7.791
    6AU     LIG 2558  28.947  35.433   7.859
    6AU     LIG 2559  28.925  35.863   7.970
    6AU     LIG 2560  28.612  36.069   8.202
    6AU     LIG 2561  28.647  36.382   8.510
    6AU       S 2562  28.968  34.974   6.876
    6AU     LIG 2563  29.107  35.302   7.169
    6AU     LIG 2564  29.310  35.706   7.057
    6AU     LIG 2565  29.465  36.158   6.964
    6AU     LIG 2566  29.393  36.416   6.599
    6AU    AUSL 2567  29.164  34.659   7.600
    6AU    AUSL 2568  29.171  34.372   8.190
    6AU     AUL 2569  29.253  34.617   7.951
    6AU       S 2570  29.406  34.454   8.393
    6AU     LIG 2571  29.782  34.444   8.704
    6AU     LIG 2572  30.118  34.727   8.846
    6AU     LIG 2573  30.319  35.072   9.073
    6AU     LIG 2574  30.298  35.428   9.382
    6AU       S 2575  29.133  34.980   7.665
    6AU     LIG 2576  29.377  35.381   7.624
    6AU     LIG 2577  29.394  35.684   7.996
    6AU     LIG 2578  29.374  36.088   8.264
    6AU     LIG 2579  29.384  36.580   8.240
    6AU    AUSL 2580  28.754  33.123   7.930
    6AU    AUSL 2581  29.181  33.039   7.799
    6AU     AUL 2582  28.950  32.946   8.156
    6AU       S 2583  28.749  32.556   7.998
    6AU     LIG 2584  28.679  32.107   8.196
    6AU     LIG 2585  28.443  31.696   8.337
    6AU     LIG 2586  28.406  31.282   8.584
    6AU     LIG 2587  28.730  30.984   8.718
    6AU       S 2588  29.322  32.833   7.857
    6AU     LIG 2589  29.493  32.375   7.939
    6AU     LIG 2590  29.864  32.180   8.179
    6AU     LIG 2591  30.135  31.957   8.505
    6AU     LIG 2592  30.419  31.836   8.850
    6AU    AUSL 2593  28.428  32.901   7.664
    6AU    AUSL 2594  28.462  33.217   8.234
    6AU     AUL 2595  28.471  32.936   8.012
    6AU       S 2596  28.526  32.501   7.830
    6AU     LIG 2597  28.258  32.108   7.884
    6AU     LIG 2598  28.107  31.661   7.918
    6AU     LIG 2599  28.158  31.272   8.150
    6AU     LIG 2600  27.921  31.058   8.459
    6AU       S 2601  28.191  33.118   8.346
    6AU     LIG 2602  27.956  32.692   8.383
    6AU     LIG 2603  27.534  32.505   8.526
    6AU     LIG 2604  27.424  32.353   8.976
    6AU     LIG 2605  27.591  32.427   9.417
    6AU    AUSL 2606  28.861  32.822   7.618
    6AU    AUSL 2607  28.644  33.083   7.324
    6AU     AUL 2608  28.529  32.731   7.423
    6AU       S 2609  28.900  32.625   7.183
    6AU     LIG 2610  28.623  32.230   7.283
    6AU     LIG 2611  28.562  31.753   7.119
    6AU     LIG 2612  28.368  31.381   6.824
    6AU     LIG 2613  28.213  31.004   6.524
    6AU       S 2614  28.870  32.611   7.752
    6AU     LIG 2615  28.867  32.113   7.719
    6AU     LIG 2616  28.637  31.703   7.864
    6AU     LIG 2617  28.700  31.283   8.122
    6AU     LIG 2618  29.114  31.132   8.324
    6AU    AUSL 2619  28.830  34.471   6.843
    6AU    AUSL 2620  29.314  34.360   7.275
    6AU     AUL 2621  29.189  34.574   6.885
    6AU       S 2622  28.806  34.710   6.648
    6AU     LIG 2623  28.877  35.032   6.336
    6AU     LIG 2624  29.066  35.434   6.175
    6AU     LIG 2625  28.905  35.858   6.271
    6AU     LIG 2626  29.059  36.287   6.231
    6AU       S 2627  29.545  34.559   7.163
    6AU     LIG 2628  29.962  34.814   6.944
    6AU     LIG 2629  30.178  34.901   6.509
    6AU     LIG 2630  30.407  35.209   6.205
    6AU     LIG 2631  30.751  35.566   6.182
    6AU    AUSL 2632  28.668  34.452   7.282
    6AU    AUSL 2633  28.574  34.157   6.956
    6AU     AUL 2634  28.535  34.615   7.033
    6AU       S 2635  28.754  34.961   6.842
    6AU     LIG 2636  28.949  35.430   6.686
    6AU     LIG 2637  28.931  35.896   6.783
    6AU     LIG 2638  28.723  36.279   6.652
    6AU     LIG 2639  28.486  36.695   6.656
    6AU       S 2640  28.374  34.412   6.650
    6AU     LIG 2641  28.389  34.790   6.401
    6AU     LIG 2642  28.121  34.970   6.090
    6AU     LIG 2643  27.874  35.244   5.815
    6AU     LIG 2644  27.750  35.354   5.373
    6AU    AUSL 2645  28.848  33.032   6.928
    6AU    AUSL 2646  28.226  33.070   7.238
    6AU     AUL 2647  28.501  32.910   6.984
    6AU       S 2648  28.036  33.015   7.055
    6AU     LIG 2649  27.624  32.777   7.152
    6AU     LIG 2650  27.379  32.451   6.902
    6AU     LIG 2651  27.252  32.100   6.589
    6AU     LIG 2652  26.852  32.035   6.327
    6AU       S 2653  28.894  32.627   6.996
    6AU     LIG 2654  28.845  32.144   6.833
    6AU     LIG 2655  28.777  31.674   6.659
    6AU     LIG 2656  28.559  31.379   6.348
    6AU     LIG 2657  28.574  31.216   5.913
    6AU    AUSL 2658  29.081  33.041   7.318
    6AU    AUSL 2659  29.111  33.374   6.954
    6AU     AUL 2660  29.180  32.991   6.920
    6AU       S 2661  29.162  32.692   7.281
    6AU     LIG 2662  29.137  32.194   7.261
    6AU     LIG 2663  29.085  31.736   7.075
    6AU     LIG 2664  29.290  31.366   6.854
    6AU     LIG 2665  29.330  30.981   6.578
    6AU       S 2666  29.429  33.210   6.602
    6AU     LIG 2667  29.666  32.911   6.334
    6AU     LIG 2668  29.801  32.561   6.046
    6AU     LIG 2669  29.748  32.345   5.621
    6AU     LIG 2670  29.819  32.175   5.183
    7AU     AUC 2671   0.985  33.975   7.503
    7AU     AUC 2672   1.261  33.981   7.338
    7AU     AUC 2673   1.245  33.965   7.671
    7AU     AUC 2674   0.706  33.969   7.341
    7AU     AUC 2675   0.728  34.010   7.685
    7AU     AUC 2676   0.818  34.249   7.502
    7AU     AUC 2677   1.166  34.248   7.492
    7AU     AUC 2678   0.801  33.707   7.504
    7AU     AUC 2679   1.152  33.692   7.501
    7AU     AUC 2680   0.993  33.801   7.770
    7AU     AUC 2681   0.982  34.166   7.758
    7AU     AUC 2682   0.974  33.813   7.234
    7AU     AUC 2683   1.007  34.128   7.229
    7AU     AUC 2684   1.586  33.983   7.178
    7AU     AUC 2685   1.598  33.956   7.511
    7AU     AUC 2686   1.542  33.940   7.864
    7AU     AUC 2687   0.393  33.968   7.177
    7AU     AUC 2688   0.377  34.012   7.541
    7AU     AUC 2689   0.439  34.045   7.876
    7AU     AUC 2690   0.660  34.569   7.483
    7AU     AUC 2691   1.019  34.599   7.441
    7AU     AUC 2692   1.349  34.537   7.480
    7AU     AUC 2693   0.597  33.426   7.513
    7AU     AUC 2694   0.941  33.367   7.479
    7AU     AUC 2695   1.321  33.379   7.480
    7AU     AUC 2696   0.978  33.624   8.069
    7AU     AUC 2697   0.992  33.984   8.102
    7AU     AUC 2698   1.014  34.340   8.053
    7AU     AUC 2699   1.005  33.641   6.953
    7AU     AUC 2700   0.979  33.967   6.890
    7AU     AUC 2701   0.983  34.297   6.914
    7AU     AUC 2702   1.263  33.745   7.989
    7AU     AUC 2703   1.292  34.133   7.988
    7AU     AUC 2704   1.307  33.815   7.012
    7AU     AUC 2705   1.298  34.169   7.035
    7AU     AUC 2706   0.692  33.857   8.025
    7AU     AUC 2707   0.716  34.230   7.996
    7AU     AUC 2708   0.673  33.792   7.050
    7AU     AUC 2709   0.653  34.109   7.000
    7AU     AUC 2710   1.522  34.260   7.333
    7AU     AUC 2711   1.463  34.238   7.693
    7AU     AUC 2712   0.497  34.276   7.334
    7AU     AUC 2713   0.523  34.337   7.686
    7AU     AUC 2714   1.477  33.671   7.338
    7AU     AUC 2715   1.442  33.625   7.677
    7AU     AUC 2716   0.457  33.677   7.375
    7AU     AUC 2717   0.519  33.734   7.722
    7AU     AUC 2718   0.844  34.512   7.761
    7AU     AUC 2719   1.184  34.460   7.766
    7AU     AUC 2720   0.793  33.510   7.797
    7AU     AUC 2721   1.118  33.449   7.768
    7AU     AUC 2722   0.814  34.403   7.187
    7AU     AUC 2723   1.190  34.441   7.172
    7AU     AUC 2724   0.785  33.496   7.218
    7AU     AUC 2725   1.172  33.521   7.209
    7AU    AUSL 2726   1.535  33.871   8.229
    7AU    AUSL 2727   1.275  33.450   8.162
    7AU     AUL 2728   1.588  33.475   8.312
    7AU       S 2729   1.602  33.058   8.115
    7AU     LIG 2730   1.475  32.800   8.431
    7AU     LIG 2731   1.740  32.655   8.763
    7AU     LIG 2732   2.022  32.341   8.956
    7AU     LIG 2733   2.344  32.415   9.280
    7AU       S 2734   1.791  33.882   8.390
    7AU     LIG 2735   1.738  33.986   8.832
    7AU     LIG 2736   1.817  33.792   9.256
    7AU     LIG 2737   2.160  33.691   9.577
    7AU     LIG 2738   2.427  33.686   9.970
    7AU    AUSL 2739   1.130  33.778   8.410
    7AU    AUSL 2740   0.867  34.164   8.440
    7AU     AUL 2741   1.065  34.053   8.722
    7AU       S 2742   1.364  33.709   8.636
    7AU     LIG 2743   1.101  33.617   8.974
    7AU     LIG 2744   1.337  33.541   9.364
    7AU     LIG 2745   1.706  33.442   9.642
    7AU     LIG 2746   2.046  33.330   9.953
    7AU       S 2747   0.641  33.899   8.650
    7AU     LIG 2748   0.690  33.916   9.130
    7AU     LIG 2749   0.408  33.979   9.504
    7AU     LIG 2750   0.261  34.055   9.947
    7AU     LIG 2751   0.302  34.089  10.423
    7AU    AUSL 2752   1.189  34.158   8.160
    7AU    AUSL 2753   1.633  34.280   8.112
    7AU     AUL 2754   1.433  34.171   8.442
    7AU       S 2755   1.102  34.523   8.605
    7AU     LIG 2756   1.449  34.416   8.886
    7AU     LIG 2757   1.716  34.561   9.253
    7AU     LIG 2758   1.769  34.676   9.723
    7AU     LIG 2759   1.752  34.800  10.190
    7AU       S 2760   1.785  34.435   8.278
    7AU     LIG 2761   2.132  34.287   8.457
    7AU     LIG 2762   2.416  34.568   8.668
    7AU     LIG 2763   2.626  34.919   8.883
    7AU     LIG 2764   2.812  35.255   9.138
    7AU    AUSL 2765   1.443  34.038   6.900
    7AU    AUSL 2766   1.355  34.472   6.874
    7AU     AUL 2767   1.523  34.391   6.632
    7AU       S 2768   1.409  34.120   6.293
    7AU     LIG 2769   1.863  34.070   6.154
    7AU     LIG 2770   2.015  33.813   5.801
    7AU     LIG 2771   2.074  33.706   5.353
    7AU     LIG 2772   2.025  33.780   4.887
    7AU       S 2773   1.761  34.712   6.888
    7AU     LIG 2774   1.845  34.919   6.513
    7AU     LIG 2775   2.025  34.929   6.098
    7AU     LIG 2776   2.166  35.258   5.824
    7AU     LIG 2777   2.243  35.421   5.415
    7AU    AUSL 2778   1.289  33.776   6.583
    7AU    AUSL 2779   1.709  33.699   6.900
    7AU     AUL 2780   1.668  33.931   6.666
    7AU       S 2781   1.801  33.469   6.660
    7AU     LIG 2782   2.246  33.259   6.702
    7AU     LIG 2783   2.468  32.849   6.691
    7AU     LIG 2784   2.721  32.744   6.343
    7AU     LIG 2785   2.962  32.954   6.017
    7AU       S 2786   1.416  33.908   6.274
    7AU     LIG 2787   1.607  33.589   6.046
    7AU     LIG 2788   1.683  33.452   5.596
    7AU     LIG 2789   1.660  33.482   5.120
    7AU     LIG 2790   1.786  33.362   4.675
    7AU    AUSL 2791   1.090  34.177   6.680
    7AU    AUSL 2792   0.878  33.774   6.733
    7AU     AUL 2793   1.003  33.807   6.436
    7AU       S 2794   0.569  33.799   6.288
    7AU     LIG 2795   0.653  33.607   5.896
    7AU     LIG 2796   0.382  33.429   5.560
    7AU     LIG 2797   0.142  33.482   5.164
    7AU     LIG 2798   0.022  33.572   4.720
    7AU       S 2799   1.147  34.244   6.376
    7AU     LIG 2800   1.092  34.031   5.921
    7AU     LIG 2801   1.492  33.932   5.650
    7AU     LIG 2802   1.673  34.002   5.210
    7AU     LIG 2803   1.815  34.263   4.835
    7AU    AUSL 2804   0.459  34.116   8.266
    7AU    AUSL 2805   0.756  34.479   8.161
    7AU     AUL 2806   0.628  34.393   8.487
    7AU       S 2807   0.458  34.003   8.697
    7AU     LIG 2808   0.198  33.789   8.976
    7AU     LIG 2809  44.952  33.775   9.370
    7AU     LIG 2810  44.785  33.922   9.787
    7AU     LIG 2811  44.401  34.087  10.031
    7AU       S 2812   0.388  34.704   8.233
    7AU     LIG 2813   0.460  34.990   8.534
    7AU     LIG 2814   0.284  35.063   8.946
    7AU     LIG 2815  44.951  35.303   9.151
    7AU     LIG 2816  44.814  35.572   9.497
    7AU    AUSL 2817   0.772  33.824   8.168
    7AU    AUSL 2818   0.340  33.693   8.151
    7AU     AUL 2819   0.265  33.915   8.289
    7AU       S 2820   0.225  33.458   8.404
    7AU     LIG 2821  44.763  33.307   8.296
    7AU     LIG 2822  44.463  32.930   8.424
    7AU     LIG 2823  44.115  32.648   8.636
    7AU     LIG 2824  43.694  32.534   8.872
    7AU       S 2825   0.655  33.759   8.556
    7AU     LIG 2826   0.593  33.465   8.916
    7AU     LIG 2827   0.409  33.485   9.342
    7AU     LIG 2828   0.208  33.565   9.763
    7AU     LIG 2829   0.180  33.617  10.225
    7AU    AUSL 2830   0.445  33.839   6.782
    7AU    AUSL 2831   0.660  33.496   6.979
    7AU     AUL 2832   0.669  33.502   6.636
    7AU       S 2833   0.382  33.729   6.346
    7AU     LIG 2834   0.136  33.624   5.980
    7AU     LIG 2835  44.908  33.682   5.580
    7AU     LIG 2836  44.712  33.788   5.165
    7AU     LIG 2837  44.324  33.903   4.922
    7AU       S 2838   0.259  33.376   6.800
    7AU     LIG 2839   0.277  33.000   6.585
    7AU     LIG 2840  44.935  32.706   6.462
    7AU     LIG 2841  44.591  32.583   6.163
    7AU     LIG 2842  44.345  32.436   5.785
    7AU    AUSL 2843   0.670  34.159   6.582
    7AU    AUSL 2844   0.298  34.241   6.909
    7AU     AUL 2845   0.255  34.047   6.647
    7AU       S 2846   0.274  34.501   6.658
    7AU     LIG 2847  44.865  34.714   6.629
    7AU     LIG 2848  44.712  35.001   6.279
    7AU     LIG 2849  44.533  34.864   5.859
    7AU     LIG 2850  44.192  34.763   5.529
    7AU       S 2851   0.612  34.075   6.326
    7AU     LIG 2852   0.408  34.061   5.889
    7AU     LIG 2853   0.338  33.927   5.441
    7AU     LIG 2854   0.162  33.989   5.009
    7AU     LIG 2855   0.029  34.154   4.585
    7AU    AUSL 2856   1.801  34.476   7.520
    7AU    AUSL 2857   1.739  34.288   7.085
    7AU     AUL 2858   2.086  34.560   7.287
    7AU       S 2859   1.838  34.390   6.956
    7AU     LIG 2860   2.022  34.415   6.538
    7AU     LIG 2861   2.337  34.536   6.217
    7AU     LIG 2862   2.531  34.905   5.968
    7AU     LIG 2863   2.678  35.293   5.732
    7AU       S 2864   2.156  34.347   7.706
    7AU     LIG 2865   2.508  34.594   7.686
    7AU     LIG 2866   2.758  34.940   7.797
    7AU     LIG 2867   3.171  35.145   7.720
    7AU     LIG 2868   3.633  35.191   7.827
    7AU    AUSL 2869   1.970  34.067   7.380
    7AU    AUSL 2870   1.920  33.741   7.699
    7AU     AUL 2871   2.289  33.862   7.716
    7AU       S 2872   2.086  34.118   7.411
    7AU     LIG 2873   2.548  34.154   7.378
    7AU     LIG 2874   2.995  34.052   7.207
    7AU     LIG 2875   3.426  34.062   7.018
    7AU     LIG 2876   3.741  34.380   6.761
    7AU       S 2877   2.172  33.454   7.529
    7AU     LIG 2878   2.533  33.199   7.633
    7AU     LIG 2879   2.864  32.988   7.864
    7AU     LIG 2880   3.332  33.053   7.831
    7AU     LIG 2881   3.785  33.019   7.956
    7AU    AUSL 2882   1.687  34.103   7.728
    7AU    AUSL 2883   1.444  34.500   7.776
    7AU     AUL 2884   1.760  34.559   7.823
    7AU       S 2885   1.762  34.739   8.242
    7AU     LIG 2886   2.213  34.671   8.128
    7AU     LIG 2887   2.559  34.928   8.317
    7AU     LIG 2888   2.585  35.342   8.565
    7AU     LIG 2889   2.656  35.692   8.897
    7AU       S 2890   2.012  34.181   7.863
    7AU     LIG 2891   2.489  34.214   8.045
    7AU     LIG 2892   2.944  34.275   7.897
    7AU     LIG 2893   3.408  34.299   8.042
    7AU     LIG 2894   3.635  34.570   8.336
    7AU    AUSL 2895   0.324  34.562   7.520
    7AU    AUSL 2896   0.424  34.335   7.901
    7AU     AUL 2897   0.113  34.674   7.771
    7AU       S 2898   0.254  34.521   8.185
    7AU     LIG 2899   0.078  34.649   8.618
    7AU     LIG 2900  44.807  34.853   8.935
    7AU     LIG 2901  44.564  34.979   9.321
    7AU     LIG 2902  44.191  34.961   9.616
    7AU       S 2903   0.350  34.948   7.447
    7AU     LIG 2904  44.933  35.113   7.565
    7AU     LIG 2905  44.493  35.269   7.489
    7AU     LIG 2906  44.054  35.478   7.543
    7AU     LIG 2907  43.683  35.698   7.744
    7AU    AUSL 2908   0.283  34.165   7.328
    7AU    AUSL 2909   0.416  34.626   7.107
    7AU     AUL 2910   0.117  34.489   7.165
    7AU       S 2911  44.910  34.002   6.997
    7AU     LIG 2912  44.634  34.414   7.033
    7AU     LIG 2913  44.227  34.698   7.042
    7AU     LIG 2914  43.740  34.825   6.964
    7AU     LIG 2915  43.319  34.938   6.707
    7AU       S 2916   0.240  34.893   6.920
    7AU     LIG 2917  44.982  35.212   6.733
    7AU     LIG 2918  44.980  35.450   6.356
    7AU     LIG 2919  44.840  35.719   6.032
    7AU     LIG 2920  44.445  35.909   5.905
    7AU    AUSL 2921   0.057  34.221   7.717
    7AU    AUSL 2922   0.008  33.851   7.428
    7AU     AUL 2923  44.893  34.181   7.436
    7AU       S 2924  44.821  33.782   7.708
    7AU     LIG 2925  44.491  33.849   7.395
    7AU     LIG 2926  44.067  33.676   7.238
    7AU     LIG 2927  43.599  33.521   7.260
    7AU     LIG 2928  43.166  33.470   7.093
    7AU       S 2929  44.937  34.247   7.938
    7AU     LIG 2930  44.512  34.223   7.762
    7AU     LIG 2931  44.110  34.472   7.693
    7AU     LIG 2932  43.755  34.765   7.855
    7AU     LIG 2933  43.404  34.820   8.163
    7AU    AUSL 2934   1.699  33.387   7.533
    7AU    AUSL 2935   1.528  33.654   7.861
    7AU     AUL 2936   1.866  33.558   7.916
    7AU       S 2937   1.995  33.278   7.537
    7AU     LIG 2938   2.214  32.928   7.322
    7AU     LIG 2939   2.601  32.707   7.451
    7AU     LIG 2940   3.053  32.678   7.505
    7AU     LIG 2941   3.508  32.644   7.539
    7AU       S 2942   1.755  33.124   7.976
    7AU     LIG 2943   1.989  32.996   8.409
    7AU     LIG 2944   2.260  32.741   8.719
    7AU     LIG 2945   2.538  32.367   8.803
    7AU     LIG 2946   2.763  32.135   9.139
    7AU    AUSL 2947   1.668  33.772   7.320
    7AU    AUSL 2948   1.591  33.322   7.114
    7AU     AUL 2949   1.842  33.478   7.144
    7AU       S 2950   2.215  33.625   7.326
    7AU     LIG 2951   2.500  33.298   7.135
    7AU     LIG 2952   2.805  32.957   7.064
    7AU     LIG 2953   3.264  32.903   7.100
    7AU     LIG 2954   3.708  32.810   7.085
    7AU       S 2955   1.766  33.205   6.766
    7AU     LIG 2956   1.968  32.820   6.839
    7AU     LIG 2957   2.083  32.363   6.778
    7AU     LIG 2958   2.227  32.032   6.450
    7AU     LIG 2959   2.635  31.824   6.309
    7AU    AUSL 2960   0.204  33.477   7.581
    7AU    AUSL 2961   0.325  33.710   7.174
    7AU     AUL 2962  44.969  33.565   7.302
    7AU       S 2963   0.135  33.502   6.877
    7AU     LIG 2964  44.803  33.126   6.768
    7AU     LIG 2965  44.443  32.834   6.611
    7AU     LIG 2966  44.106  32.639   6.328
    7AU     LIG 2967  43.993  32.794   5.895
    7AU       S 2968  44.793  33.533   7.745
    7AU     LIG 2969  44.400  33.367   7.544
    7AU     LIG 2970  43.985  33.187   7.398
    7AU     LIG 2971  43.622  32.920   7.407
    7AU     LIG 2972  43.667  32.506   7.649
    7AU    AUSL 2973   0.300  33.871   7.764
    7AU    AUSL 2974   0.556  33.487   7.832
    7AU     AUL 2975   0.218  33.452   7.910
    7AU       S 2976   0.252  33.221   8.300
    7AU     LIG 2977  44.937  32.825   8.212
    7AU     LIG 2978  44.560  32.456   8.230
    7AU     LIG 2979  44.261  32.177   8.497
    7AU     LIG 2980  44.145  31.796   8.760
    7AU       S 2981  44.889  33.778   7.895
    7AU     LIG 2982  44.367  33.744   7.907
    7AU     LIG 2983  43.943  33.591   7.727
    7AU     LIG 2984  43.506  33.392   7.757
    7AU     LIG 2985  43.070  33.449   7.962
    7AU    AUSL 2986   1.031  34.671   7.887
    7AU    AUSL 2987   0.592  34.729   7.823
    7AU     AUL 2988   0.851  34.798   8.172
    7AU       S 2989   0.459  34.938   7.954
    7AU     LIG 2990   0.060  35.065   8.186
    7AU     LIG 2991  44.949  35.253   8.606
    7AU     LIG 2992  44.864  35.689   8.796
    7AU     LIG 2993  44.686  36.139   8.751
    7AU       S 2994   1.059  35.158   7.962
    7AU     LIG 2995   1.366  35.266   8.270
    7AU     LIG 2996   1.336  35.726   8.411
    7AU     LIG 2997   1.122  36.069   8.655
    7AU     LIG 2998   1.004  36.462   8.882
    7AU    AUSL 2999   0.863  34.948   7.574
    7AU    AUSL 3000   1.166  34.872   7.193
    7AU     AUL 3001   0.983  35.157   7.328
    7AU       S 3002   0.890  35.148   7.793
    7AU     LIG 3003   0.821  35.628   7.891
    7AU     LIG 3004   0.879  36.019   8.185
    7AU     LIG 3005   0.949  36.453   8.354
    7AU     LIG 3006   0.757  36.885   8.305
    7AU       S 3007   1.027  35.160   6.865
    7AU     LIG 3008   1.354  35.411   7.019
    7AU     LIG 3009   1.387  35.882   7.029
    7AU     LIG 3010   1.518  36.292   6.837
    7AU     LIG 3011   1.629  36.745   6.700
    7AU    AUSL 3012   1.312  34.871   7.607
    7AU    AUSL 3013   1.301  34.570   8.201
    7AU     AUL 3014   1.382  34.826   7.971
    7AU       S 3015   1.540  34.658   8.406
    7AU     LIG 3016   1.887  34.643   8.745
    7AU     LIG 3017   2.173  34.780   9.112
    7AU     LIG 3018   2.403  35.066   9.409
    7AU     LIG 3019   2.476  35.545   9.423
    7AU       S 3020   1.249  35.204   7.724
    7AU     LIG 3021   1.326  35.608   7.904
    7AU     LIG 3022   1.348  36.055   7.972
    7AU     LIG 3023   1.545  36.410   8.194
    7AU     LIG 3024   1.727  36.806   8.355
    7AU    AUSL 3025   0.943  33.287   7.929
    7AU    AUSL 3026   1.359  33.260   7.768
    7AU     AUL 3027   1.155  33.153   8.153
    7AU       S 3028   0.913  32.789   8.007
    7AU     LIG 3029   1.012  32.480   8.316
    7AU     LIG 3030   0.758  32.170   8.565
    7AU     LIG 3031   0.877  31.727   8.676
    7AU     LIG 3032   1.300  31.512   8.751
    7AU       S 3033   1.508  33.039   7.830
    7AU     LIG 3034   1.700  32.596   8.020
    7AU     LIG 3035   2.048  32.487   8.334
    7AU     LIG 3036   2.215  32.066   8.550
    7AU     LIG 3037   2.392  31.670   8.779
    7AU    AUSL 3038   0.610  33.099   7.670
    7AU    AUSL 3039   0.704  33.415   8.259
    7AU     AUL 3040   0.610  33.152   8.020
    7AU       S 3041   0.721  32.726   7.859
    7AU     LIG 3042   0.539  32.307   7.832
    7AU     LIG 3043   0.312  31.902   7.854
    7AU     LIG 3044   0.337  31.460   7.955
    7AU     LIG 3045   0.217  31.029   8.100
    7AU       S 3046   0.477  33.304   8.461
    7AU     LIG 3047   0.144  32.961   8.688
    7AU     LIG 3048  44.808  32.604   8.663
    7AU     LIG 3049  44.487  32.387   8.919
    7AU     LIG 3050  44.385  32.550   9.351
    7AU    AUSL 3051   1.050  33.006   7.607
    7AU    AUSL 3052   0.801  33.202   7.291
    7AU     AUL 3053   0.683  32.897   7.425
    7AU       S 3054   1.033  32.837   7.139
    7AU     LIG 3055   0.682  32.505   7.106
    7AU     LIG 3056   0.615  32.025   7.123
    7AU     LIG 3057   0.406  31.616   6.947
    7AU     LIG 3058   0.134  31.330   6.639
    7AU       S 3059   1.051  32.817   7.755
    7AU     LIG 3060   1.045  32.339   7.817
    7AU     LIG 3061   0.916  31.997   8.099
    7AU     LIG 3062   1.163  31.621   8.234
    7AU     LIG 3063   1.475  31.273   8.315
    7AU    AUSL 3064   0.968  34.668   6.847
    7AU    AUSL 3065   1.459  34.572   7.280
    7AU     AUL 3066   1.313  34.801   6.908
    7AU       S 3067   0.942  34.927   6.637
    7AU     LIG 3068   1.356  35.219   6.521
    7AU     LIG 3069   1.252  35.681   6.534
    7AU     LIG 3070   1.254  36.069   6.303
    7AU     LIG 3071   1.405  36.420   6.064
    7AU       S 3072   1.707  34.772   7.141
    7AU     LIG 3073   2.223  34.790   6.861
    7AU     LIG 3074   2.392  34.983   6.463
    7AU     LIG 3075   2.486  35.383   6.218
    7AU     LIG 3076   2.857  35.681   6.072
    7AU    AUSL 3077   0.804  34.645   7.286
    7AU    AUSL 3078   0.722  34.344   6.961
    7AU     AUL 3079   0.680  34.796   7.025
    7AU       S 3080   0.831  35.187   6.880
    7AU     LIG 3081   0.911  35.673   6.921
    7AU     LIG 3082   1.001  36.119   6.768
    7AU     LIG 3083   0.665  36.472   6.739
    7AU     LIG 3084   0.619  36.845   6.477
    7AU       S 3085   0.506  34.608   6.638
    7AU     LIG 3086   0.253  34.943   6.370
    7AU     LIG 3087   0.111  35.143   5.941
    7AU     LIG 3088   0.257  35.276   5.495
    7AU     LIG 3089   0.281  35.526   5.080
    7AU    AUSL 3090   1.005  33.246   6.896
    7AU    AUSL 3091   0.384  33.271   7.246
    7AU     AUL 3092   0.644  33.117   6.967
    7AU       S 3093   0.202  33.240   7.057
    7AU     LIG 3094   0.125  32.800   7.031
    7AU     LIG 3095  44.748  32.538   6.912
    7AU     LIG 3096  44.466  32.313   6.598
    7AU     LIG 3097  44.273  32.153   6.202
    7AU       S 3098   1.033  32.849   6.919
    7AU     LIG 3099   0.937  32.510   6.649
    7AU     LIG 3100   0.803  32.074   6.642
    7AU     LIG 3101   0.808  31.606   6.607
    7AU     LIG 3102   0.960  31.186   6.436
    7AU    AUSL 3103   1.223  33.266   7.310
    7AU    AUSL 3104   1.265  33.581   6.962
    7AU     AUL 3105   1.336  33.201   6.929
    7AU       S 3106   1.240  32.845   7.212
    7AU     LIG 3107   1.164  32.345   7.092
    7AU     LIG 3108   1.114  31.855   6.995
    7AU     LIG 3109   1.149  31.360   6.909
    7AU     LIG 3110   1.400  31.040   6.647
    7AU       S 3111   1.548  33.386   6.567
    7AU     LIG 3112   1.671  32.951   6.358
    7AU     LIG 3113   1.796  32.491   6.364
    7AU     LIG 3114   1.645  32.128   6.108
    7AU     LIG 3115   1.629  31.940   5.663
    8AU     AUC 3116  15.467   9.114   7.499
    8AU     AUC 3117  15.730   9.129   7.322
    8AU     AUC 3118  15.725   9.105   7.663
    8AU     AUC 3119  15.189   9.108   7.338
    8AU     AUC 3120  15.213   9.144   7.688
    8AU     AUC 3121  15.294   9.386   7.502
    8AU     AUC 3122  15.640   9.387   7.482
    8AU     AUC 3123  15.290   8.854   7.505
    8AU     AUC 3124  15.635   8.827   7.495
    8AU     AUC 3125  15.478   8.939   7.769
    8AU     AUC 3126  15.465   9.301   7.758
    8AU     AUC 3127  15.458   8.948   7.227
    8AU     AUC 3128  15.478   9.268   7.221
    8AU     AUC 3129  16.049   9.134   7.163
    8AU     AUC 3130  16.072   9.095   7.499
    8AU     AUC 3131  16.024   9.078   7.851
    8AU     AUC 3132  14.872   9.094   7.175
    8AU     AUC 3133  14.861   9.136   7.540
    8AU     AUC 3134  14.922   9.167   7.884
    8AU     AUC 3135  15.127   9.700   7.489
    8AU     AUC 3136  15.487   9.736   7.442
    8AU     AUC 3137  15.820   9.674   7.468
    8AU     AUC 3138  15.092   8.566   7.512
    8AU     AUC 3139  15.444   8.513   7.485
    8AU     AUC 3140  15.808   8.521   7.476
    8AU     AUC 3141  15.460   8.757   8.068
    8AU     AUC 3142  15.484   9.122   8.103
    8AU     AUC 3143  15.506   9.475   8.052
    8AU     AUC 3144  15.487   8.776   6.944
    8AU     AUC 3145  15.444   9.108   6.883
    8AU     AUC 3146  15.443   9.439   6.905
    8AU     AUC 3147  15.745   8.887   7.986
    8AU     AUC 3148  15.785   9.268   7.980
    8AU     AUC 3149  15.784   8.965   7.001
    8AU     AUC 3150  15.759   9.313   7.014
    8AU     AUC 3151  15.180   8.988   8.024
    8AU     AUC 3152  15.202   9.360   8.000
    8AU     AUC 3153  15.154   8.918   7.044
    8AU     AUC 3154  15.120   9.247   7.003
    8AU     AUC 3155  15.986   9.400   7.312
    8AU     AUC 3156  15.942   9.374   7.675
    8AU     AUC 3157  14.971   9.407   7.339
    8AU     AUC 3158  14.999   9.461   7.694
    8AU     AUC 3159  15.956   8.818   7.334
    8AU     AUC 3160  15.913   8.754   7.682
    8AU     AUC 3161  14.957   8.799   7.362
    8AU     AUC 3162  15.011   8.863   7.716
    8AU     AUC 3163  15.322   9.640   7.764
    8AU     AUC 3164  15.667   9.595   7.759
    8AU     AUC 3165  15.283   8.639   7.800
    8AU     AUC 3166  15.597   8.580   7.767
    8AU     AUC 3167  15.280   9.547   7.185
    8AU     AUC 3168  15.652   9.585   7.163
    8AU     AUC 3169  15.282   8.641   7.202
    8AU     AUC 3170  15.681   8.668   7.198
    8AU    AUSL 3171  16.025   9.005   8.227
    8AU    AUSL 3172  15.729   8.605   8.150
    8AU     AUL 3173  16.035   8.606   8.305
    8AU       S 3174  16.093   8.189   8.119
    8AU     LIG 3175  16.030   7.945   8.435
    8AU     LIG 3176  16.313   7.703   8.675
    8AU     LIG 3177  16.602   7.385   8.831
    8AU     LIG 3178  16.745   7.214   9.228
    8AU       S 3179  16.259   8.985   8.444
    8AU     LIG 3180  16.155   9.135   8.859
    8AU     LIG 3181  16.231   9.089   9.293
    8AU     LIG 3182  16.477   8.919   9.634
    8AU     LIG 3183  16.855   8.850   9.896
    8AU    AUSL 3184  15.628   8.928   8.422
    8AU    AUSL 3185  15.368   9.304   8.443
    8AU     AUL 3186  15.578   9.225   8.727
    8AU       S 3187  15.823   8.844   8.633
    8AU     LIG 3188  15.705   8.862   9.059
    8AU     LIG 3189  15.901   8.734   9.458
    8AU     LIG 3190  16.109   8.621   9.859
    8AU     LIG 3191  16.108   8.508  10.316
    8AU       S 3192  15.169   9.029   8.662
    8AU     LIG 3193  15.169   8.981   9.157
    8AU     LIG 3194  14.849   9.047   9.509
    8AU     LIG 3195  14.710   9.123   9.948
    8AU     LIG 3196  14.439   9.346  10.263
    8AU    AUSL 3197  15.684   9.302   8.156
    8AU    AUSL 3198  16.135   9.404   8.087
    8AU     AUL 3199  15.937   9.315   8.428
    8AU       S 3200  15.592   9.685   8.576
    8AU     LIG 3201  15.931   9.591   8.876
    8AU     LIG 3202  16.068   9.575   9.336
    8AU     LIG 3203  16.068   9.643   9.818
    8AU     LIG 3204  16.188   9.618  10.284
    8AU       S 3205  16.303   9.568   8.274
    8AU     LIG 3206  16.702   9.585   8.437
    8AU     LIG 3207  16.956   9.854   8.714
    8AU     LIG 3208  17.155  10.219   8.939
    8AU     LIG 3209  17.483  10.524   9.100
    8AU    AUSL 3210  15.900   9.181   6.862
    8AU    AUSL 3211  15.806   9.613   6.856
    8AU     AUL 3212  15.982   9.531   6.600
    8AU       S 3213  15.869   9.248   6.270
    8AU     LIG 3214  16.324   9.197   6.172
    8AU     LIG 3215  16.507   8.949   5.829
    8AU     LIG 3216  16.538   8.853   5.386
    8AU     LIG 3217  16.621   8.942   4.942
    8AU       S 3218  16.220   9.854   6.856
    8AU     LIG 3219  16.344  10.063   6.473
    8AU     LIG 3220  16.529  10.230   6.075
    8AU     LIG 3221  16.727  10.423   5.691
    8AU     LIG 3222  16.823  10.780   5.399
    8AU    AUSL 3223  15.736   8.906   6.559
    8AU    AUSL 3224  16.218   8.898   6.918
    8AU     AUL 3225  16.113   9.062   6.636
    8AU       S 3226  16.357   8.649   6.693
    8AU     LIG 3227  16.574   8.296   6.426
    8AU     LIG 3228  16.908   7.960   6.304
    8AU     LIG 3229  17.397   7.907   6.245
    8AU     LIG 3230  17.832   8.072   6.076
    8AU       S 3231  15.863   9.027   6.235
    8AU     LIG 3232  16.109   8.713   6.059
    8AU     LIG 3233  16.167   8.571   5.612
    8AU     LIG 3234  16.176   8.563   5.133
    8AU     LIG 3235  16.312   8.626   4.682
    8AU    AUSL 3236  15.546   9.326   6.648
    8AU    AUSL 3237  15.347   8.926   6.751
    8AU     AUL 3238  15.449   8.977   6.421
    8AU       S 3239  15.006   8.936   6.296
    8AU     LIG 3240  15.056   8.706   5.921
    8AU     LIG 3241  14.891   8.520   5.544
    8AU     LIG 3242  14.663   8.549   5.145
    8AU     LIG 3243  14.605   8.503   4.677
    8AU       S 3244  15.626   9.392   6.315
    8AU     LIG 3245  15.677   9.262   5.824
    8AU     LIG 3246  16.041   9.075   5.577
    8AU     LIG 3247  16.148   9.074   5.116
    8AU     LIG 3248  16.199   9.146   4.655
    8AU    AUSL 3249  14.958   9.244   8.282
    8AU    AUSL 3250  15.238   9.608   8.161
    8AU     AUL 3251  15.124   9.528   8.494
    8AU       S 3252  14.991   9.136   8.721
    8AU     LIG 3253  14.596   9.020   8.805
    8AU     LIG 3254  14.420   8.914   9.206
    8AU     LIG 3255  14.331   8.920   9.651
    8AU     LIG 3256  14.287   8.864  10.106
    8AU       S 3257  14.872   9.835   8.245
    8AU     LIG 3258  14.783  10.069   8.613
    8AU     LIG 3259  14.659  10.357   8.953
    8AU     LIG 3260  14.351  10.660   9.102
    8AU     LIG 3261  14.071  10.651   9.466
    8AU    AUSL 3262  15.272   8.957   8.175
    8AU    AUSL 3263  14.833   8.833   8.140
    8AU     AUL 3264  14.785   9.037   8.321
    8AU       S 3265  14.705   8.584   8.401
    8AU     LIG 3266  14.265   8.515   8.212
    8AU     LIG 3267  13.883   8.238   8.222
    8AU     LIG 3268  13.661   7.885   8.435
    8AU     LIG 3269  13.448   7.557   8.725
    8AU       S 3270  15.170   8.885   8.571
    8AU     LIG 3271  14.909   8.634   8.897
    8AU     LIG 3272  14.788   8.571   9.339
    8AU     LIG 3273  14.707   8.613   9.807
    8AU     LIG 3274  14.594   8.468  10.243
    8AU    AUSL 3275  14.907   8.964   6.778
    8AU    AUSL 3276  15.128   8.601   6.928
    8AU     AUL 3277  15.168   8.637   6.614
    8AU       S 3278  14.822   8.842   6.379
    8AU     LIG 3279  14.545   8.705   6.064
    8AU     LIG 3280  14.413   8.700   5.626
    8AU     LIG 3281  14.282   8.884   5.229
    8AU     LIG 3282  14.224   8.831   4.770
    8AU       S 3283  14.766   8.458   6.764
    8AU     LIG 3284  14.486   8.252   6.445
    8AU     LIG 3285  14.232   7.841   6.365
    8AU     LIG 3286  14.047   7.493   6.092
    8AU     LIG 3287  14.071   7.463   5.619
    8AU    AUSL 3288  15.120   9.296   6.587
    8AU    AUSL 3289  14.769   9.365   6.920
    8AU     AUL 3290  14.701   9.178   6.662
    8AU       S 3291  14.758   9.628   6.669
    8AU     LIG 3292  14.360   9.832   6.562
    8AU     LIG 3293  14.082  10.194   6.417
    8AU     LIG 3294  13.936  10.399   6.027
    8AU     LIG 3295  13.867  10.414   5.566
    8AU       S 3296  15.032   9.210   6.319
    8AU     LIG 3297  14.791   9.147   5.890
    8AU     LIG 3298  14.767   9.014   5.423
    8AU     LIG 3299  14.690   9.023   4.941
    8AU     LIG 3300  14.531   9.142   4.505
    8AU    AUSL 3301  16.271   9.613   7.484
    8AU    AUSL 3302  16.191   9.434   7.055
    8AU     AUL 3303  16.523   9.731   7.245
    8AU       S 3304  16.286   9.526   6.931
    8AU     LIG 3305  16.505   9.563   6.539
    8AU     LIG 3306  16.807   9.863   6.327
    8AU     LIG 3307  17.043  10.187   6.065
    8AU     LIG 3308  17.241  10.341   5.657
    8AU       S 3309  16.679   9.508   7.637
    8AU     LIG 3310  17.075   9.665   7.418
    8AU     LIG 3311  17.528   9.811   7.341
    8AU     LIG 3312  17.849  10.167   7.285
    8AU     LIG 3313  17.876  10.646   7.228
    8AU    AUSL 3314  16.435   9.208   7.332
    8AU    AUSL 3315  16.398   8.868   7.689
    8AU     AUL 3316  16.688   8.915   7.487
    8AU       S 3317  16.668   9.360   7.480
    8AU     LIG 3318  16.990   9.202   7.189
    8AU     LIG 3319  17.441   9.327   7.160
    8AU     LIG 3320  17.897   9.478   7.162
    8AU     LIG 3321  18.317   9.415   6.942
    8AU       S 3322  16.644   8.478   7.676
    8AU     LIG 3323  17.090   8.351   7.771
    8AU     LIG 3324  17.546   8.219   7.773
    8AU     LIG 3325  17.960   8.429   7.910
    8AU     LIG 3326  18.387   8.608   8.050
    8AU    AUSL 3327  16.174   9.236   7.697
    8AU    AUSL 3328  15.933   9.631   7.760
    8AU     AUL 3329  16.274   9.654   7.808
    8AU       S 3330  16.274   9.865   8.216
    8AU     LIG 3331  16.638  10.104   8.382
    8AU     LIG 3332  16.858  10.473   8.581
    8AU     LIG 3333  17.047  10.918   8.558
    8AU     LIG 3334  17.446  11.153   8.646
    8AU       S 3335  16.561   9.289   7.815
    8AU     LIG 3336  16.994   9.490   8.004
    8AU     LIG 3337  17.400   9.689   7.826
    8AU     LIG 3338  17.858   9.591   7.686
    8AU     LIG 3339  18.314   9.559   7.826
    8AU    AUSL 3340  14.781   9.683   7.537
    8AU    AUSL 3341  14.900   9.452   7.913
    8AU     AUL 3342  14.578   9.778   7.802
    8AU       S 3343  14.741   9.637   8.203
    8AU     LIG 3344  14.407   9.727   8.467
    8AU     LIG 3345  14.290  10.024   8.798
    8AU     LIG 3346  14.054  10.240   9.131
    8AU     LIG 3347  13.679  10.279   9.409
    8AU       S 3348  14.768  10.057   7.468
    8AU     LIG 3349  14.261  10.104   7.581
    8AU     LIG 3350  13.825  10.350   7.651
    8AU     LIG 3351  13.411  10.598   7.493
    8AU     LIG 3352  13.122  10.925   7.260
    8AU    AUSL 3353  14.759   9.290   7.339
    8AU    AUSL 3354  14.876   9.752   7.124
    8AU     AUL 3355  14.578   9.603   7.179
    8AU       S 3356  14.360   9.160   7.011
    8AU     LIG 3357  14.038   9.524   7.073
    8AU     LIG 3358  13.571   9.701   7.009
    8AU     LIG 3359  13.229  10.015   6.831
    8AU     LIG 3360  12.767  10.161   6.801
    8AU       S 3361  14.684  10.012   6.929
    8AU     LIG 3362  14.606  10.288   6.557
    8AU     LIG 3363  14.374  10.623   6.326
    8AU     LIG 3364  14.040  10.872   6.179
    8AU     LIG 3365  13.850  11.251   6.301
    8AU    AUSL 3366  14.533   9.326   7.734
    8AU    AUSL 3367  14.497   8.959   7.409
    8AU     AUL 3368  14.370   9.291   7.463
    8AU       S 3369  14.300   8.861   7.674
    8AU     LIG 3370  13.921   8.804   7.398
    8AU     LIG 3371  13.456   8.646   7.410
    8AU     LIG 3372  12.977   8.640   7.336
    8AU     LIG 3373  12.609   8.682   7.057
    8AU       S 3374  14.426   9.326   7.978
    8AU     LIG 3375  14.092   9.675   7.945
    8AU     LIG 3376  13.691   9.955   8.039
    8AU     LIG 3377  13.224  10.133   8.130
    8AU     LIG 3378  12.778   9.946   8.202
    8AU    AUSL 3379  16.165   8.523   7.532
    8AU    AUSL 3380  16.002   8.796   7.856
    8AU     AUL 3381  16.326   8.704   7.926
    8AU       S 3382  16.342   8.372   7.529
    8AU     LIG 3383  16.621   7.981   7.639
    8AU     LIG 3384  17.086   7.877   7.567
    8AU     LIG 3385  17.452   7.714   7.788
    8AU     LIG 3386  17.694   7.355   7.812
    8AU       S 3387  16.239   8.266   7.994
    8AU     LIG 3388  16.542   8.026   8.294
    8AU     LIG 3389  16.823   7.797   8.605
    8AU     LIG 3390  17.130   7.496   8.800
    8AU     LIG 3391  17.584   7.340   8.855
    8AU    AUSL 3392  16.124   8.914   7.334
    8AU    AUSL 3393  16.105   8.502   7.101
    8AU     AUL 3394  16.377   8.722   7.181
    8AU       S 3395  16.616   8.442   7.439
    8AU     LIG 3396  17.043   8.305   7.255
    8AU     LIG 3397  17.467   8.327   7.016
    8AU     LIG 3398  17.822   8.553   6.789
    8AU     LIG 3399  18.292   8.451   6.733
    8AU       S 3400  16.308   8.398   6.841
    8AU     LIG 3401  16.481   7.956   6.808
    8AU     LIG 3402  16.762   7.583   6.639
    8AU     LIG 3403  17.005   7.158   6.584
    8AU     LIG 3404  17.108   6.869   6.222
    8AU    AUSL 3405  14.708   8.588   7.565
    8AU    AUSL 3406  14.838   8.829   7.177
    8AU     AUL 3407  14.486   8.693   7.257
    8AU       S 3408  14.641   8.591   6.840
    8AU     LIG 3409  14.201   8.522   6.782
    8AU     LIG 3410  13.928   8.178   6.608
    8AU     LIG 3411  13.540   8.039   6.368
    8AU     LIG 3412  13.445   7.664   6.091
    8AU       S 3413  14.314   8.596   7.682
    8AU     LIG 3414  14.138   8.204   7.771
    8AU     LIG 3415  13.692   8.135   7.713
    8AU     LIG 3416  13.383   7.799   7.615
    8AU     LIG 3417  12.929   7.807   7.748
    8AU    AUSL 3418  14.790   8.986   7.744
    8AU    AUSL 3419  15.052   8.614   7.828
    8AU     AUL 3420  14.709   8.590   7.910
    8AU       S 3421  14.743   8.374   8.307
    8AU     LIG 3422  14.454   8.044   8.146
    8AU     LIG 3423  14.054   7.763   8.111
    8AU     LIG 3424  13.808   7.394   8.306
    8AU     LIG 3425  13.764   7.090   8.661
    8AU       S 3426  14.344   8.868   7.853
    8AU     LIG 3427  13.883   8.623   7.879
    8AU     LIG 3428  13.493   8.555   7.999
    8AU     LIG 3429  13.129   8.682   7.836
    8AU     LIG 3430  12.742   8.471   7.772
    8AU    AUSL 3431  15.518   9.797   7.890
    8AU    AUSL 3432  15.068   9.844   7.824
    8AU     AUL 3433  15.335   9.926   8.172
    8AU       S 3434  14.940  10.046   7.947
    8AU     LIG 3435  14.512  10.164   8.168
    8AU     LIG 3436  14.382  10.460   8.527
    8AU     LIG 3437  14.165  10.873   8.648
    8AU     LIG 3438  13.784  11.058   8.838
    8AU       S 3439  15.567  10.268   7.960
    8AU     LIG 3440  15.678  10.405   8.344
    8AU     LIG 3441  15.744  10.835   8.488
    8AU     LIG 3442  15.792  11.278   8.627
    8AU     LIG 3443  15.717  11.597   8.982
    8AU    AUSL 3444  15.337  10.076   7.590
    8AU    AUSL 3445  15.625  10.021   7.194
    8AU     AUL 3446  15.354  10.280   7.338
    8AU       S 3447  15.402  10.284   7.810
    8AU     LIG 3448  15.542  10.759   7.972
    8AU     LIG 3449  15.493  11.184   8.174
    8AU     LIG 3450  15.127  11.507   8.206
    8AU     LIG 3451  14.771  11.709   8.433
    8AU       S 3452  15.597  10.340   6.943
    8AU     LIG 3453  15.924  10.640   6.858
    8AU     LIG 3454  16.011  11.107   6.848
    8AU     LIG 3455  15.918  11.576   6.822
    8AU     LIG 3456  15.829  11.927   6.542
    8AU    AUSL 3457  15.786  10.000   7.599
    8AU    AUSL 3458  15.815   9.709   8.184
    8AU     AUL 3459  15.900   9.953   7.941
    8AU       S 3460  16.045   9.791   8.381
    8AU     LIG 3461  16.360   9.848   8.731
    8AU     LIG 3462  16.627  10.169   8.953
    8AU     LIG 3463  16.844  10.339   9.344
    8AU     LIG 3464  16.900  10.488   9.797
    8AU       S 3465  15.747  10.309   7.659
    8AU     LIG 3466  16.009  10.544   7.967
    8AU     LIG 3467  16.051  10.992   8.113
    8AU     LIG 3468  16.215  11.375   8.323
    8AU     LIG 3469  16.490  11.750   8.430
    8AU    AUSL 3470  15.419   8.382   7.935
    8AU    AUSL 3471  15.840   8.390   7.780
    8AU     AUL 3472  15.645   8.287   8.164
    8AU       S 3473  15.403   7.928   7.989
    8AU     LIG 3474  15.339   7.565   8.273
    8AU     LIG 3475  15.102   7.168   8.407
    8AU     LIG 3476  15.150   6.733   8.601
    8AU     LIG 3477  15.048   6.358   8.861
    8AU       S 3478  15.991   8.172   7.836
    8AU     LIG 3479  16.250   7.743   7.979
    8AU     LIG 3480  16.569   7.484   8.274
    8AU     LIG 3481  16.889   7.151   8.476
    8AU     LIG 3482  17.069   6.996   8.898
    8AU    AUSL 3483  15.096   8.231   7.648
    8AU    AUSL 3484  15.190   8.550   8.255
    8AU     AUL 3485  15.079   8.277   8.008
    8AU       S 3486  15.203   7.863   7.828
    8AU     LIG 3487  14.945   7.510   7.956
    8AU     LIG 3488  14.746   7.105   8.025
    8AU     LIG 3489  14.808   6.721   8.230
    8AU     LIG 3490  14.938   6.311   8.378
    8AU       S 3491  14.977   8.447   8.449
    8AU     LIG 3492  14.617   8.155   8.707
    8AU     LIG 3493  14.190   7.963   8.583
    8AU     LIG 3494  13.964   7.601   8.747
    8AU     LIG 3495  14.027   7.297   9.075
    8AU    AUSL 3496  15.539   8.149   7.584
    8AU    AUSL 3497  15.307   8.423   7.313
    8AU     AUL 3498  15.210   8.062   7.406
    8AU       S 3499  15.563   7.979   7.135
    8AU     LIG 3500  15.201   7.631   7.134
    8AU     LIG 3501  14.977   7.201   6.983
    8AU     LIG 3502  14.767   6.772   6.804
    8AU     LIG 3503  14.869   6.306   6.654
    8AU       S 3504  15.545   7.931   7.741
    8AU     LIG 3505  15.456   7.440   7.772
    8AU     LIG 3506  15.254   7.023   7.941
    8AU     LIG 3507  15.289   6.567   8.105
    8AU     LIG 3508  15.442   6.191   8.371
    8AU    AUSL 3509  15.422   9.820   6.849
    8AU    AUSL 3510  15.918   9.714   7.260
    8AU     AUL 3511  15.764   9.922   6.871
    8AU       S 3512  15.385  10.108   6.658
    8AU     LIG 3513  15.644  10.453   6.451
    8AU     LIG 3514  15.767  10.914   6.435
    8AU     LIG 3515  15.758  11.381   6.364
    8AU     LIG 3516  15.512  11.698   6.134
    8AU       S 3517  16.125   9.931   7.147
    8AU     LIG 3518  16.526  10.219   6.945
    8AU     LIG 3519  16.794  10.351   6.540
    8AU     LIG 3520  17.128  10.646   6.326
    8AU     LIG 3521  17.492  10.939   6.156
    8AU    AUSL 3522  15.269   9.784   7.291
    8AU    AUSL 3523  15.190   9.487   6.961
    8AU     AUL 3524  15.131   9.944   7.035
    8AU       S 3525  15.360  10.301   6.871
    8AU     LIG 3526  15.417  10.782   6.799
    8AU     LIG 3527  15.507  11.242   6.791
    8AU     LIG 3528  15.373  11.666   6.634
    8AU     LIG 3529  15.047  11.895   6.368
    8AU       S 3530  14.968   9.744   6.651
    8AU     LIG 3531  14.781   9.913   6.248
    8AU     LIG 3532  14.455  10.200   6.044
    8AU     LIG 3533  14.330  10.594   5.782
    8AU     LIG 3534  14.229  10.761   5.343
    8AU    AUSL 3535  15.506   8.390   6.910
    8AU    AUSL 3536  14.888   8.382   7.229
    8AU     AUL 3537  15.163   8.248   6.970
    8AU       S 3538  14.695   8.338   7.025
    8AU     LIG 3539  14.371   8.046   6.900
    8AU     LIG 3540  14.056   7.718   6.832
    8AU     LIG 3541  13.762   7.588   6.515
    8AU     LIG 3542  13.619   7.207   6.295
    8AU       S 3543  15.565   7.985   6.936
    8AU     LIG 3544  15.490   7.560   6.723
    8AU     LIG 3545  15.261   7.167   6.555
    8AU     LIG 3546  15.144   6.721   6.459
    8AU     LIG 3547  15.166   6.366   6.164
    8AU    AUSL 3548  15.743   8.394   7.297
    8AU    AUSL 3549  15.765   8.734   6.947
    8AU     AUL 3550  15.843   8.358   6.900
    8AU       S 3551  15.817   8.023   7.228
    8AU     LIG 3552  15.699   7.514   7.212
    8AU     LIG 3553  15.501   7.104   7.009
    8AU     LIG 3554  15.498   6.629   6.840
    8AU     LIG 3555  15.717   6.191   6.736
    8AU       S 3556  16.090   8.578   6.585
    8AU     LIG 3557  16.082   8.128   6.483
    8AU     LIG 3558  16.387   7.808   6.320
    8AU     LIG 3559  16.665   7.549   6.045
    8AU     LIG 3560  16.762   7.381   5.608
    9AU     AUC 3561  31.722  25.648   7.495
    9AU     AUC 3562  32.017  25.644   7.327
    9AU     AUC 3563  31.978  25.634   7.665
    9AU     AUC 3564  31.445  25.643   7.333
    9AU     AUC 3565  31.460  25.688   7.676
    9AU     AUC 3566  31.558  25.925   7.494
    9AU     AUC 3567  31.906  25.912   7.484
    9AU     AUC 3568  31.528  25.383   7.496
    9AU     AUC 3569  31.883  25.375   7.501
    9AU     AUC 3570  31.723  25.472   7.761
    9AU     AUC 3571  31.717  25.841   7.749
    9AU     AUC 3572  31.721  25.486   7.228
    9AU     AUC 3573  31.755  25.800   7.226
    9AU     AUC 3574  32.354  25.637   7.178
    9AU     AUC 3575  32.339  25.622   7.513
    9AU     AUC 3576  32.273  25.606   7.866
    9AU     AUC 3577  31.132  25.653   7.170
    9AU     AUC 3578  31.113  25.690   7.532
    9AU     AUC 3579  31.172  25.730   7.864
    9AU     AUC 3580  31.406  26.250   7.463
    9AU     AUC 3581  31.760  26.270   7.439
    9AU     AUC 3582  32.084  26.204   7.471
    9AU     AUC 3583  31.323  25.103   7.493
    9AU     AUC 3584  31.652  25.040   7.464
    9AU     AUC 3585  32.043  25.047   7.478
    9AU     AUC 3586  31.704  25.295   8.058
    9AU     AUC 3587  31.722  25.655   8.094
    9AU     AUC 3588  31.752  26.016   8.041
    9AU     AUC 3589  31.750  25.319   6.942
    9AU     AUC 3590  31.745  25.628   6.887
    9AU     AUC 3591  31.754  25.947   6.920
    9AU     AUC 3592  31.990  25.407   7.985
    9AU     AUC 3593  32.020  25.793   7.987
    9AU     AUC 3594  32.071  25.465   7.018
    9AU     AUC 3595  32.078  25.814   7.031
    9AU     AUC 3596  31.425  25.539   8.014
    9AU     AUC 3597  31.451  25.912   7.979
    9AU     AUC 3598  31.420  25.476   7.039
    9AU     AUC 3599  31.409  25.783   6.995
    9AU     AUC 3600  32.267  25.925   7.326
    9AU     AUC 3601  32.192  25.905   7.690
    9AU     AUC 3602  31.234  25.957   7.332
    9AU     AUC 3603  31.265  26.023   7.677
    9AU     AUC 3604  32.223  25.324   7.346
    9AU     AUC 3605  32.174  25.297   7.672
    9AU     AUC 3606  31.182  25.363   7.365
    9AU     AUC 3607  31.247  25.413   7.714
    9AU     AUC 3608  31.590  26.195   7.746
    9AU     AUC 3609  31.916  26.134   7.763
    9AU     AUC 3610  31.520  25.187   7.786
    9AU     AUC 3611  31.838  25.121   7.761
    9AU     AUC 3612  31.559  26.079   7.183
    9AU     AUC 3613  31.945  26.097   7.160
    9AU     AUC 3614  31.503  25.174   7.205
    9AU     AUC 3615  31.893  25.195   7.210
    9AU    AUSL 3616  32.261  25.529   8.234
    9AU    AUSL 3617  31.988  25.114   8.148
    9AU     AUL 3618  32.296  25.119   8.311
    9AU       S 3619  32.332  24.724   8.076
    9AU     LIG 3620  32.228  24.549   8.448
    9AU     LIG 3621  32.468  24.266   8.715
    9AU     LIG 3622  32.727  23.943   8.935
    9AU     LIG 3623  32.912  23.768   9.312
    9AU       S 3624  32.490  25.522   8.411
    9AU     LIG 3625  32.359  25.593   8.851
    9AU     LIG 3626  32.512  25.598   9.279
    9AU     LIG 3627  32.861  25.433   9.540
    9AU     LIG 3628  33.285  25.451   9.752
    9AU    AUSL 3629  31.849  25.442   8.404
    9AU    AUSL 3630  31.598  25.846   8.433
    9AU     AUL 3631  31.790  25.722   8.723
    9AU       S 3632  32.016  25.343   8.593
    9AU     LIG 3633  31.878  25.305   8.996
    9AU     LIG 3634  32.141  25.230   9.357
    9AU     LIG 3635  32.243  25.000   9.749
    9AU     LIG 3636  32.199  24.948  10.213
    9AU       S 3637  31.362  25.588   8.634
    9AU     LIG 3638  31.451  25.603   9.104
    9AU     LIG 3639  31.186  25.617   9.487
    9AU     LIG 3640  30.950  25.675   9.886
    9AU     LIG 3641  30.932  25.908  10.300
    9AU    AUSL 3642  31.918  25.818   8.152
    9AU    AUSL 3643  32.360  25.940   8.116
    9AU     AUL 3644  32.155  25.833   8.441
    9AU       S 3645  31.843  26.188   8.619
    9AU     LIG 3646  32.219  26.088   8.873
    9AU     LIG 3647  32.403  26.112   9.301
    9AU     LIG 3648  32.387  26.231   9.769
    9AU     LIG 3649  32.263  26.397  10.207
    9AU       S 3650  32.520  26.093   8.292
    9AU     LIG 3651  32.949  26.091   8.402
    9AU     LIG 3652  33.153  26.320   8.753
    9AU     LIG 3653  33.403  26.672   8.954
    9AU     LIG 3654  33.534  27.092   9.123
    9AU    AUSL 3655  32.269  25.677   6.887
    9AU    AUSL 3656  32.166  26.112   6.816
    9AU     AUL 3657  32.475  25.918   6.636
    9AU       S 3658  32.119  25.868   6.364
    9AU     LIG 3659  32.461  25.866   5.997
    9AU     LIG 3660  32.651  25.584   5.683
    9AU     LIG 3661  32.844  25.386   5.302
    9AU     LIG 3662  33.292  25.328   5.102
    9AU       S 3663  32.496  26.376   6.787
    9AU     LIG 3664  32.784  26.506   6.467
    9AU     LIG 3665  32.983  26.738   6.120
    9AU     LIG 3666  33.141  26.795   5.687
    9AU     LIG 3667  33.247  27.056   5.307
    9AU    AUSL 3668  32.054  25.434   6.581
    9AU    AUSL 3669  32.464  25.291   6.924
    9AU     AUL 3670  32.428  25.447   6.649
    9AU       S 3671  32.544  24.981   6.699
    9AU     LIG 3672  32.757  24.582   6.481
    9AU     LIG 3673  32.985  24.169   6.429
    9AU     LIG 3674  33.266  23.871   6.163
    9AU     LIG 3675  33.696  23.937   5.948
    9AU       S 3676  32.175  25.672   6.334
    9AU     LIG 3677  32.261  25.364   6.012
    9AU     LIG 3678  32.343  25.203   5.550
    9AU     LIG 3679  32.405  25.147   5.075
    9AU     LIG 3680  32.308  25.023   4.611
    9AU    AUSL 3681  31.864  25.800   6.762
    9AU    AUSL 3682  31.628  25.420   6.692
    9AU     AUL 3683  31.777  25.469   6.428
    9AU       S 3684  31.321  25.490   6.290
    9AU     LIG 3685  31.431  25.172   6.039
    9AU     LIG 3686  31.214  25.045   5.647
    9AU     LIG 3687  30.968  25.030   5.241
    9AU     LIG 3688  30.776  25.161   4.829
    9AU       S 3689  31.949  25.917   6.445
    9AU     LIG 3690  31.836  25.724   5.980
    9AU     LIG 3691  32.135  25.675   5.622
    9AU     LIG 3692  32.376  25.648   5.223
    9AU     LIG 3693  32.328  25.800   4.769
    9AU    AUSL 3694  31.193  25.806   8.248
    9AU    AUSL 3695  31.513  26.144   8.126
    9AU     AUL 3696  31.368  26.085   8.457
    9AU       S 3697  31.184  25.708   8.685
    9AU     LIG 3698  30.963  25.459   8.994
    9AU     LIG 3699  30.728  25.397   9.401
    9AU     LIG 3700  30.526  25.378   9.827
    9AU     LIG 3701  30.156  25.522  10.088
    9AU       S 3702  31.112  26.404   8.215
    9AU     LIG 3703  30.931  26.560   8.596
    9AU     LIG 3704  30.680  26.731   8.942
    9AU     LIG 3705  30.506  27.061   9.214
    9AU     LIG 3706  30.435  27.442   9.486
    9AU    AUSL 3707  31.501  25.509   8.156
    9AU    AUSL 3708  31.073  25.380   8.149
    9AU     AUL 3709  30.994  25.607   8.277
    9AU       S 3710  30.970  25.150   8.410
    9AU     LIG 3711  30.521  24.904   8.324
    9AU     LIG 3712  30.244  24.506   8.290
    9AU     LIG 3713  29.865  24.293   8.520
    9AU     LIG 3714  29.705  24.027   8.879
    9AU       S 3715  31.377  25.445   8.547
    9AU     LIG 3716  31.371  25.147   8.899
    9AU     LIG 3717  31.197  25.129   9.326
    9AU     LIG 3718  31.023  25.169   9.760
    9AU     LIG 3719  30.795  25.035  10.142
    9AU    AUSL 3720  31.226  25.573   6.775
    9AU    AUSL 3721  31.405  25.200   6.987
    9AU     AUL 3722  31.390  25.195   6.632
    9AU       S 3723  31.083  25.473   6.420
    9AU     LIG 3724  30.915  25.217   6.088
    9AU     LIG 3725  30.759  25.293   5.659
    9AU     LIG 3726  30.637  25.440   5.244
    9AU     LIG 3727  30.403  25.546   4.859
    9AU       S 3728  30.971  25.073   6.772
    9AU     LIG 3729  30.752  24.777   6.495
    9AU     LIG 3730  30.570  24.328   6.433
    9AU     LIG 3731  30.311  23.992   6.230
    9AU     LIG 3732  30.143  23.700   5.889
    9AU    AUSL 3733  31.497  25.852   6.547
    9AU    AUSL 3734  31.000  25.924   6.913
    9AU     AUL 3735  31.142  25.898   6.587
    9AU       S 3736  30.755  26.113   6.738
    9AU     LIG 3737  30.381  26.261   6.528
    9AU     LIG 3738  30.222  26.392   6.098
    9AU     LIG 3739  29.861  26.467   5.801
    9AU     LIG 3740  29.511  26.679   5.551
    9AU       S 3741  31.398  25.706   6.245
    9AU     LIG 3742  31.194  25.575   5.816
    9AU     LIG 3743  31.144  25.495   5.364
    9AU     LIG 3744  31.018  25.625   4.931
    9AU     LIG 3745  31.077  26.036   4.706
    9AU    AUSL 3746  32.510  26.158   7.520
    9AU    AUSL 3747  32.509  25.974   7.095
    9AU     AUL 3748  32.800  26.250   7.322
    9AU       S 3749  32.585  26.268   6.931
    9AU     LIG 3750  33.026  26.200   6.810
    9AU     LIG 3751  33.297  26.347   6.438
    9AU     LIG 3752  33.485  26.626   6.105
    9AU     LIG 3753  33.621  26.936   5.771
    9AU       S 3754  32.906  26.027   7.728
    9AU     LIG 3755  33.305  26.201   7.569
    9AU     LIG 3756  33.588  26.598   7.657
    9AU     LIG 3757  33.876  26.981   7.577
    9AU     LIG 3758  33.993  27.419   7.376
    9AU    AUSL 3759  32.714  25.745   7.402
    9AU    AUSL 3760  32.652  25.414   7.720
    9AU     AUL 3761  33.031  25.524   7.727
    9AU       S 3762  32.825  25.816   7.462
    9AU     LIG 3763  33.192  25.816   7.220
    9AU     LIG 3764  33.585  25.983   7.067
    9AU     LIG 3765  34.047  26.094   6.891
    9AU     LIG 3766  34.487  26.308   6.875
    9AU       S 3767  32.908  25.131   7.527
    9AU     LIG 3768  33.355  25.003   7.595
    9AU     LIG 3769  33.724  24.747   7.740
    9AU     LIG 3770  34.050  24.833   8.037
    9AU     LIG 3771  34.487  24.816   8.194
    9AU    AUSL 3772  32.414  25.774   7.728
    9AU    AUSL 3773  32.163  26.163   7.783
    9AU     AUL 3774  32.493  26.216   7.831
    9AU       S 3775  32.483  26.391   8.253
    9AU     LIG 3776  32.884  26.589   8.319
    9AU     LIG 3777  33.287  26.725   8.450
    9AU     LIG 3778  33.451  27.108   8.627
    9AU     LIG 3779  33.437  27.574   8.741
    9AU       S 3780  32.760  25.851   7.884
    9AU     LIG 3781  33.273  25.884   8.027
    9AU     LIG 3782  33.752  25.801   8.122
    9AU     LIG 3783  34.167  26.025   8.030
    9AU     LIG 3784  34.611  26.131   8.048
    9AU    AUSL 3785  31.078  26.251   7.502
    9AU    AUSL 3786  31.159  26.028   7.885
    9AU     AUL 3787  30.856  26.362   7.746
    9AU       S 3788  31.009  26.212   8.150
    9AU     LIG 3789  30.607  26.225   8.360
    9AU     LIG 3790  30.376  26.348   8.750
    9AU     LIG 3791  30.187  26.619   9.076
    9AU     LIG 3792  29.907  26.823   9.383
    9AU       S 3793  31.090  26.627   7.425
    9AU     LIG 3794  30.599  26.600   7.383
    9AU     LIG 3795  30.168  26.814   7.507
    9AU     LIG 3796  29.707  26.935   7.461
    9AU     LIG 3797  29.353  27.133   7.189
    9AU    AUSL 3798  31.030  25.845   7.328
    9AU    AUSL 3799  31.164  26.302   7.082
    9AU     AUL 3800  30.857  26.188   7.196
    9AU       S 3801  30.629  25.665   6.981
    9AU     LIG 3802  30.373  26.073   7.042
    9AU     LIG 3803  30.017  26.376   6.896
    9AU     LIG 3804  29.528  26.354   6.971
    9AU     LIG 3805  29.079  26.484   6.847
    9AU       S 3806  31.007  26.547   6.912
    9AU     LIG 3807  30.776  26.844   6.624
    9AU     LIG 3808  30.730  27.233   6.346
    9AU     LIG 3809  30.445  27.619   6.281
    9AU     LIG 3810  30.372  28.061   6.152
    9AU    AUSL 3811  30.793  25.908   7.704
    9AU    AUSL 3812  30.746  25.533   7.416
    9AU     AUL 3813  30.628  25.851   7.422
    9AU       S 3814  30.531  25.453   7.676
    9AU     LIG 3815  30.167  25.184   7.398
    9AU     LIG 3816  29.721  25.054   7.246
    9AU     LIG 3817  29.289  25.048   7.145
    9AU     LIG 3818  28.825  24.992   7.113
    9AU       S 3819  30.679  25.925   7.928
    9AU     LIG 3820  30.332  26.215   7.910
    9AU     LIG 3821  29.954  26.484   7.870
    9AU     LIG 3822  29.510  26.651   7.944
    9AU     LIG 3823  29.053  26.821   8.016
    9AU    AUSL 3824  32.441  25.054   7.549
    9AU    AUSL 3825  32.252  25.321   7.862
    9AU     AUL 3826  32.588  25.220   7.933
    9AU       S 3827  32.756  24.951   7.571
    9AU     LIG 3828  33.032  24.628   7.417
    9AU     LIG 3829  33.464  24.460   7.405
    9AU     LIG 3830  33.878  24.293   7.517
    9AU     LIG 3831  34.048  23.909   7.383
    9AU       S 3832  32.463  24.784   7.961
    9AU     LIG 3833  32.703  24.443   8.246
    9AU     LIG 3834  32.962  24.205   8.556
    9AU     LIG 3835  33.261  24.019   8.869
    9AU     LIG 3836  33.727  23.992   8.976
    9AU    AUSL 3837  32.429  25.435   7.325
    9AU    AUSL 3838  32.294  24.943   7.152
    9AU     AUL 3839  32.570  25.081   7.169
    9AU       S 3840  32.915  25.320   7.320
    9AU     LIG 3841  33.173  25.019   7.101
    9AU     LIG 3842  33.615  24.900   7.154
    9AU     LIG 3843  34.016  24.701   7.238
    9AU     LIG 3844  34.382  24.654   6.913
    9AU       S 3845  32.484  24.740   6.855
    9AU     LIG 3846  32.457  24.248   6.855
    9AU     LIG 3847  32.692  23.836   6.689
    9AU     LIG 3848  32.923  23.527   6.372
    9AU     LIG 3849  33.155  23.326   5.991
    9AU    AUSL 3850  30.937  25.159   7.570
    9AU    AUSL 3851  31.042  25.406   7.130
    9AU     AUL 3852  30.699  25.241   7.280
    9AU       S 3853  30.901  25.244   6.862
    9AU     LIG 3854  30.442  25.050   6.821
    9AU     LIG 3855  30.212  24.690   6.568
    9AU     LIG 3856  29.949  24.311   6.423
    9AU     LIG 3857  29.876  24.133   5.981
    9AU       S 3858  30.530  25.203   7.727
    9AU     LIG 3859  30.234  24.871   7.895
    9AU     LIG 3860  29.821  24.626   7.959
    9AU     LIG 3861  29.533  24.524   7.602
    9AU     LIG 3862  29.318  24.168   7.451
    9AU    AUSL 3863  31.027  25.552   7.760
    9AU    AUSL 3864  31.282  25.167   7.831
    9AU     AUL 3865  30.943  25.142   7.916
    9AU       S 3866  31.004  24.937   8.324
    9AU     LIG 3867  30.836  24.592   8.042
    9AU     LIG 3868  30.638  24.170   8.141
    9AU     LIG 3869  30.230  23.986   8.346
    9AU     LIG 3870  29.930  23.674   8.552
    9AU       S 3871  30.605  25.459   7.872
    9AU     LIG 3872  30.078  25.381   7.872
    9AU     LIG 3873  29.705  25.080   7.747
    9AU     LIG 3874  29.237  24.930   7.727
    9AU     LIG 3875  28.905  24.851   8.065
    9AU    AUSL 3876  31.778  26.393   7.888
    9AU    AUSL 3877  31.342  26.418   7.809
    9AU     AUL 3878  31.578  26.469   8.176
    9AU       S 3879  31.213  26.624   7.922
    9AU     LIG 3880  30.905  26.868   8.170
    9AU     LIG 3881  30.769  27.090   8.573
    9AU     LIG 3882  30.504  27.421   8.826
    9AU     LIG 3883  30.252  27.836   8.928
    9AU       S 3884  31.775  26.815   7.939
    9AU     LIG 3885  31.894  26.987   8.303
    9AU     LIG 3886  31.969  27.418   8.427
    9AU     LIG 3887  31.835  27.809   8.652
    9AU     LIG 3888  31.814  28.028   9.071
    9AU    AUSL 3889  31.615  26.617   7.537
    9AU    AUSL 3890  31.909  26.543   7.175
    9AU     AUL 3891  31.831  26.884   7.334
    9AU       S 3892  31.621  26.857   7.761
    9AU     LIG 3893  31.719  27.331   7.960
    9AU     LIG 3894  31.777  27.784   8.129
    9AU     LIG 3895  31.600  28.234   8.135
    9AU     LIG 3896  31.464  28.724   8.116
    9AU       S 3897  31.657  26.713   6.948
    9AU     LIG 3898  32.083  27.009   6.944
    9AU     LIG 3899  32.375  27.430   6.999
    9AU     LIG 3900  32.382  27.925   6.939
    9AU     LIG 3901  32.196  28.338   6.731
    9AU    AUSL 3902  32.070  26.529   7.584
    9AU    AUSL 3903  32.021  26.229   8.202
    9AU     AUL 3904  32.126  26.497   7.967
    9AU       S 3905  32.266  26.318   8.404
    9AU     LIG 3906  32.627  26.390   8.728
    9AU     LIG 3907  32.906  26.764   8.828
    9AU     LIG 3908  33.047  26.988   9.216
    9AU     LIG 3909  33.299  27.194   9.575
    9AU       S 3910  31.980  26.890   7.772
    9AU     LIG 3911  32.216  27.258   7.870
    9AU     LIG 3912  32.286  27.670   8.052
    9AU     LIG 3913  32.197  28.081   8.220
    9AU     LIG 3914  32.259  28.531   8.134
    9AU    AUSL 3915  31.659  24.943   7.916
    9AU    AUSL 3916  32.073  24.936   7.745
    9AU     AUL 3917  31.884  24.811   8.131
    9AU       S 3918  31.615  24.464   7.986
    9AU     LIG 3919  31.612  24.093   8.246
    9AU     LIG 3920  31.441  23.703   8.396
    9AU     LIG 3921  31.529  23.260   8.457
    9AU     LIG 3922  31.440  22.863   8.690
    9AU       S 3923  32.224  24.689   7.798
    9AU     LIG 3924  32.272  24.231   8.038
    9AU     LIG 3925  32.577  23.925   8.328
    9AU     LIG 3926  32.966  23.676   8.554
    9AU     LIG 3927  33.200  23.527   8.976
    9AU    AUSL 3928  31.328  24.794   7.636
    9AU    AUSL 3929  31.448  25.100   8.252
    9AU     AUL 3930  31.317  24.833   8.002
    9AU       S 3931  31.435  24.413   7.840
    9AU     LIG 3932  31.149  24.155   8.012
    9AU     LIG 3933  31.315  23.778   7.909
    9AU     LIG 3934  31.244  23.342   8.037
    9AU     LIG 3935  31.151  22.942   8.275
    9AU       S 3936  31.237  24.973   8.453
    9AU     LIG 3937  30.973  24.501   8.533
    9AU     LIG 3938  30.599  24.196   8.646
    9AU     LIG 3939  30.243  23.977   8.872
    9AU     LIG 3940  30.041  24.034   9.289
    9AU    AUSL 3941  31.765  24.677   7.584
    9AU    AUSL 3942  31.509  24.820   7.238
    9AU     AUL 3943  31.388  24.557   7.403
    9AU       S 3944  31.748  24.533   7.116
    9AU     LIG 3945  31.420  24.186   7.045
    9AU     LIG 3946  31.207  23.764   6.990
    9AU     LIG 3947  31.067  23.305   7.031
    9AU     LIG 3948  31.038  22.876   6.860
    9AU       S 3949  31.759  24.488   7.727
    9AU     LIG 3950  31.828  24.035   7.792
    9AU     LIG 3951  31.788  23.619   8.020
    9AU     LIG 3952  31.999  23.203   8.032
    9AU     LIG 3953  31.954  22.726   8.013
    9AU    AUSL 3954  31.754  26.261   6.853
    9AU    AUSL 3955  32.178  26.219   7.244
    9AU     AUL 3956  32.052  26.445   6.873
    9AU       S 3957  31.659  26.674   6.736
    9AU     LIG 3958  31.905  26.938   6.472
    9AU     LIG 3959  32.056  27.203   6.105
    9AU     LIG 3960  31.987  27.620   5.915
    9AU     LIG 3961  31.942  27.975   5.618
    9AU       S 3962  32.421  26.472   7.148
    9AU     LIG 3963  32.864  26.684   6.970
    9AU     LIG 3964  33.170  26.832   6.606
    9AU     LIG 3965  33.343  27.106   6.240
    9AU     LIG 3966  33.682  27.383   6.030
    9AU    AUSL 3967  31.550  26.305   7.253
    9AU    AUSL 3968  31.442  25.980   6.951
    9AU     AUL 3969  31.408  26.292   6.810
    9AU       S 3970  31.459  26.689   7.077
    9AU     LIG 3971  31.568  27.189   6.926
    9AU     LIG 3972  31.496  27.666   6.756
    9AU     LIG 3973  31.202  28.079   6.838
    9AU     LIG 3974  31.003  28.545   6.767
    9AU       S 3975  30.978  26.336   6.652
    9AU     LIG 3976  31.235  26.710   6.463
    9AU     LIG 3977  31.197  27.065   6.134
    9AU     LIG 3978  31.057  27.227   5.693
    9AU     LIG 3979  30.819  27.347   5.286
    9AU    AUSL 3980  31.731  24.941   6.870
    9AU    AUSL 3981  31.110  24.972   7.222
    9AU     AUL 3982  31.359  24.813   6.932
    9AU       S 3983  30.906  24.923   7.001
    9AU     LIG 3984  30.584  24.554   6.933
    9AU     LIG 3985  30.261  24.207   6.835
    9AU     LIG 3986  30.074  23.798   6.645
    9AU     LIG 3987  29.839  23.587   6.289
    9AU       S 3988  31.758  24.546   6.891
    9AU     LIG 3989  31.878  24.169   6.769
    9AU     LIG 3990  31.676  23.802   6.610
    9AU     LIG 3991  31.860  23.441   6.390
    9AU     LIG 3992  31.691  23.199   6.007
    9AU    AUSL 3993  31.904  24.970   7.302
    9AU    AUSL 3994  32.017  25.249   6.963
    9AU     AUL 3995  32.055  24.897   6.915
    9AU       S 3996  31.985  24.539   7.199
    9AU     LIG 3997  31.867  24.072   7.273
    9AU     LIG 3998  31.840  23.655   7.065
    9AU     LIG 3999  32.135  23.309   6.893
    9AU     LIG 4000  32.274  22.838   6.871
    9AU       S 4001  32.302  24.997   6.556
    9AU     LIG 4002  32.185  24.536   6.517
    9AU     LIG 4003  32.433  24.157   6.354
    9AU     LIG 4004  32.733  23.914   6.074
    9AU     LIG 4005  32.966  23.715   5.726
   10AU     AUC 4006  30.149  14.505   7.507
   10AU     AUC 4007  30.444  14.505   7.339
   10AU     AUC 4008  30.404  14.497   7.676
   10AU     AUC 4009  29.876  14.494   7.347
   10AU     AUC 4010  29.883  14.538   7.693
   10AU     AUC 4011  29.980  14.769   7.515
   10AU     AUC 4012  30.334  14.774   7.495
   10AU     AUC 4013  29.959  14.236   7.507
   10AU     AUC 4014  30.314  14.237   7.512
   10AU     AUC 4015  30.151  14.328   7.774
   10AU     AUC 4016  30.140  14.694   7.764
   10AU     AUC 4017  30.150  14.343   7.236
   10AU     AUC 4018  30.179  14.656   7.233
   10AU     AUC 4019  30.778  14.501   7.188
   10AU     AUC 4020  30.767  14.491   7.524
   10AU     AUC 4021  30.699  14.478   7.877
   10AU     AUC 4022  29.561  14.512   7.184
   10AU     AUC 4023  29.539  14.544   7.546
   10AU     AUC 4024  29.595  14.577   7.880
   10AU     AUC 4025  29.829  15.099   7.486
   10AU     AUC 4026  30.180  15.120   7.449
   10AU     AUC 4027  30.502  15.069   7.475
   10AU     AUC 4028  29.758  13.951   7.503
   10AU     AUC 4029  30.087  13.893   7.469
   10AU     AUC 4030  30.479  13.911   7.491
   10AU     AUC 4031  30.135  14.148   8.068
   10AU     AUC 4032  30.149  14.508   8.107
   10AU     AUC 4033  30.170  14.868   8.057
   10AU     AUC 4034  30.177  14.175   6.950
   10AU     AUC 4035  30.165  14.486   6.897
   10AU     AUC 4036  30.178  14.809   6.922
   10AU     AUC 4037  30.421  14.272   7.996
   10AU     AUC 4038  30.444  14.660   7.999
   10AU     AUC 4039  30.495  14.326   7.027
   10AU     AUC 4040  30.500  14.674   7.039
   10AU     AUC 4041  29.849  14.381   8.025
   10AU     AUC 4042  29.871  14.755   8.000
   10AU     AUC 4043  29.847  14.332   7.054
   10AU     AUC 4044  29.836  14.646   7.007
   10AU     AUC 4045  30.689  14.791   7.334
   10AU     AUC 4046  30.614  14.774   7.700
   10AU     AUC 4047  29.671  14.813   7.341
   10AU     AUC 4048  29.686  14.872   7.700
   10AU     AUC 4049  30.652  14.189   7.352
   10AU     AUC 4050  30.609  14.164   7.682
   10AU     AUC 4051  29.614  14.217   7.380
   10AU     AUC 4052  29.674  14.263   7.725
   10AU     AUC 4053  29.999  15.040   7.767
   10AU     AUC 4054  30.334  14.992   7.774
   10AU     AUC 4055  29.952  14.038   7.794
   10AU     AUC 4056  30.276  13.980   7.771
   10AU     AUC 4057  29.991  14.921   7.193
   10AU     AUC 4058  30.386  14.949   7.160
   10AU     AUC 4059  29.931  14.027   7.214
   10AU     AUC 4060  30.324  14.059   7.213
   10AU    AUSL 4061  30.692  14.401   8.245
   10AU    AUSL 4062  30.425  13.972   8.160
   10AU     AUL 4063  30.732  13.995   8.319
   10AU       S 4064  30.758  13.582   8.104
   10AU     LIG 4065  30.665  13.505   8.506
   10AU     LIG 4066  30.889  13.184   8.725
   10AU     LIG 4067  31.033  12.757   8.835
   10AU     LIG 4068  31.089  12.508   9.234
   10AU       S 4069  30.924  14.396   8.441
   10AU     LIG 4070  30.814  14.499   8.879
   10AU     LIG 4071  30.935  14.409   9.308
   10AU     LIG 4072  31.255  14.411   9.631
   10AU     LIG 4073  31.496  14.289  10.011
   10AU    AUSL 4074  30.286  14.300   8.414
   10AU    AUSL 4075  30.023  14.687   8.449
   10AU     AUL 4076  30.216  14.577   8.731
   10AU       S 4077  30.486  14.217   8.632
   10AU     LIG 4078  30.286  14.183   9.028
   10AU     LIG 4079  30.508  14.142   9.432
   10AU     LIG 4080  30.870  14.083   9.734
   10AU     LIG 4081  31.039  14.056  10.171
   10AU       S 4082  29.793  14.417   8.656
   10AU     LIG 4083  29.777  14.401   9.147
   10AU     LIG 4084  29.442  14.448   9.480
   10AU     LIG 4085  29.314  14.480   9.927
   10AU     LIG 4086  29.149  14.730  10.284
   10AU    AUSL 4087  30.342  14.683   8.168
   10AU    AUSL 4088  30.783  14.814   8.127
   10AU     AUL 4089  30.581  14.703   8.453
   10AU       S 4090  30.249  15.049   8.622
   10AU     LIG 4091  30.609  14.967   8.888
   10AU     LIG 4092  30.840  14.914   9.296
   10AU     LIG 4093  30.950  14.957   9.763
   10AU     LIG 4094  30.933  15.009  10.242
   10AU       S 4095  30.932  14.975   8.295
   10AU     LIG 4096  31.369  15.055   8.294
   10AU     LIG 4097  31.688  15.298   8.544
   10AU     LIG 4098  31.939  15.556   8.858
   10AU     LIG 4099  32.318  15.796   9.020
   10AU    AUSL 4100  30.684  14.534   6.899
   10AU    AUSL 4101  30.597  14.963   6.813
   10AU     AUL 4102  30.911  14.760   6.648
   10AU       S 4103  30.546  14.739   6.380
   10AU     LIG 4104  30.931  14.723   6.065
   10AU     LIG 4105  31.143  14.414   5.794
   10AU     LIG 4106  31.257  14.244   5.376
   10AU     LIG 4107  31.387  14.020   4.981
   10AU       S 4108  30.938  15.227   6.789
   10AU     LIG 4109  31.210  15.483   6.500
   10AU     LIG 4110  31.511  15.720   6.197
   10AU     LIG 4111  31.557  15.850   5.733
   10AU     LIG 4112  31.655  16.171   5.384
   10AU    AUSL 4113  30.467  14.300   6.590
   10AU    AUSL 4114  30.892  14.155   6.932
   10AU     AUL 4115  30.833  14.297   6.644
   10AU       S 4116  30.904  13.838   6.709
   10AU     LIG 4117  31.082  13.549   6.380
   10AU     LIG 4118  31.381  13.199   6.315
   10AU     LIG 4119  31.741  13.106   6.039
   10AU     LIG 4120  31.908  13.215   5.601
   10AU       S 4121  30.582  14.553   6.351
   10AU     LIG 4122  30.695  14.244   6.037
   10AU     LIG 4123  30.811  14.066   5.593
   10AU     LIG 4124  30.879  13.984   5.122
   10AU     LIG 4125  30.983  13.920   4.657
   10AU    AUSL 4126  30.280  14.664   6.766
   10AU    AUSL 4127  30.045  14.280   6.705
   10AU     AUL 4128  30.193  14.332   6.435
   10AU       S 4129  29.739  14.333   6.291
   10AU     LIG 4130  29.659  14.004   5.995
   10AU     LIG 4131  29.406  13.889   5.620
   10AU     LIG 4132  29.290  13.913   5.159
   10AU     LIG 4133  29.348  13.919   4.679
   10AU       S 4134  30.352  14.791   6.442
   10AU     LIG 4135  30.327  14.648   5.944
   10AU     LIG 4136  30.669  14.563   5.621
   10AU     LIG 4137  30.842  14.497   5.187
   10AU     LIG 4138  30.853  14.572   4.714
   10AU    AUSL 4139  29.619  14.639   8.269
   10AU    AUSL 4140  29.927  14.990   8.153
   10AU     AUL 4141  29.787  14.920   8.479
   10AU       S 4142  29.619  14.534   8.698
   10AU     LIG 4143  29.266  14.323   8.826
   10AU     LIG 4144  29.004  14.301   9.209
   10AU     LIG 4145  28.959  14.219   9.663
   10AU     LIG 4146  28.825  14.353  10.096
   10AU       S 4147  29.522  15.238   8.260
   10AU     LIG 4148  29.542  15.379   8.676
   10AU     LIG 4149  29.336  15.675   8.970
   10AU     LIG 4150  29.029  15.969   9.151
   10AU     LIG 4151  28.980  16.384   9.345
   10AU    AUSL 4152  29.930  14.349   8.171
   10AU    AUSL 4153  29.501  14.217   8.154
   10AU     AUL 4154  29.421  14.446   8.292
   10AU       S 4155  29.407  13.990   8.405
   10AU     LIG 4156  28.960  14.015   8.287
   10AU     LIG 4157  28.617  13.739   8.458
   10AU     LIG 4158  28.361  13.375   8.639
   10AU     LIG 4159  28.147  12.997   8.852
   10AU       S 4160  29.812  14.279   8.556
   10AU     LIG 4161  29.644  13.989   8.895
   10AU     LIG 4162  29.408  13.981   9.272
   10AU     LIG 4163  29.416  13.989   9.738
   10AU     LIG 4164  29.204  14.000  10.147
   10AU    AUSL 4165  29.645  14.432   6.806
   10AU    AUSL 4166  29.837  14.049   7.002
   10AU     AUL 4167  29.810  14.060   6.650
   10AU       S 4168  29.493  14.297   6.406
   10AU     LIG 4169  29.174  14.120   6.129
   10AU     LIG 4170  28.986  14.179   5.705
   10AU     LIG 4171  28.906  14.261   5.249
   10AU     LIG 4172  28.622  14.358   4.888
   10AU       S 4173  29.401  13.928   6.808
   10AU     LIG 4174  29.401  13.573   6.573
   10AU     LIG 4175  29.039  13.357   6.422
   10AU     LIG 4176  28.682  13.137   6.235
   10AU     LIG 4177  28.497  12.923   5.869
   10AU    AUSL 4178  29.905  14.701   6.556
   10AU    AUSL 4179  29.433  14.806   6.931
   10AU     AUL 4180  29.530  14.699   6.620
   10AU       S 4181  29.239  15.046   6.737
   10AU     LIG 4182  28.866  15.205   6.521
   10AU     LIG 4183  28.738  15.468   6.155
   10AU     LIG 4184  28.430  15.566   5.829
   10AU     LIG 4185  27.970  15.638   5.899
   10AU       S 4186  29.801  14.567   6.258
   10AU     LIG 4187  29.475  14.477   5.886
   10AU     LIG 4188  29.389  14.368   5.429
   10AU     LIG 4189  29.324  14.398   4.960
   10AU     LIG 4190  29.391  14.712   4.616
   10AU    AUSL 4191  30.921  15.028   7.522
   10AU    AUSL 4192  30.925  14.833   7.107
   10AU     AUL 4193  31.203  15.135   7.350
   10AU       S 4194  31.019  15.099   6.946
   10AU     LIG 4195  31.429  15.070   6.733
   10AU     LIG 4196  31.652  15.247   6.350
   10AU     LIG 4197  31.810  15.393   5.906
   10AU     LIG 4198  32.257  15.514   5.794
   10AU       S 4199  31.336  14.910   7.742
   10AU     LIG 4200  31.813  15.019   7.625
   10AU     LIG 4201  32.227  15.257   7.575
   10AU     LIG 4202  32.364  15.673   7.393
   10AU     LIG 4203  32.509  16.097   7.295
   10AU    AUSL 4204  31.140  14.621   7.417
   10AU    AUSL 4205  31.079  14.293   7.733
   10AU     AUL 4206  31.439  14.398   7.755
   10AU       S 4207  31.271  14.700   7.469
   10AU     LIG 4208  31.634  14.846   7.184
   10AU     LIG 4209  32.141  14.883   7.222
   10AU     LIG 4210  32.610  14.916   7.065
   10AU     LIG 4211  33.083  14.997   7.011
   10AU       S 4212  31.341  14.020   7.523
   10AU     LIG 4213  31.759  13.999   7.716
   10AU     LIG 4214  32.048  13.650   7.760
   10AU     LIG 4215  32.427  13.498   8.002
   10AU     LIG 4216  32.788  13.287   8.261
   10AU    AUSL 4217  30.837  14.649   7.739
   10AU    AUSL 4218  30.585  15.034   7.796
   10AU     AUL 4219  30.910  15.093   7.835
   10AU       S 4220  30.894  15.278   8.254
   10AU     LIG 4221  31.250  15.554   8.410
   10AU     LIG 4222  31.593  15.839   8.604
   10AU     LIG 4223  31.980  16.097   8.752
   10AU     LIG 4224  32.448  16.188   8.704
   10AU       S 4225  31.184  14.739   7.893
   10AU     LIG 4226  31.707  14.733   8.028
   10AU     LIG 4227  32.175  14.948   8.033
   10AU     LIG 4228  32.676  14.954   8.088
   10AU     LIG 4229  33.118  15.137   8.201
   10AU    AUSL 4230  29.515  15.095   7.526
   10AU    AUSL 4231  29.571  14.873   7.915
   10AU     AUL 4232  29.273  15.214   7.764
   10AU       S 4233  29.417  15.036   8.166
   10AU     LIG 4234  29.276  14.932   8.589
   10AU     LIG 4235  29.057  15.253   8.868
   10AU     LIG 4236  28.787  15.501   9.179
   10AU     LIG 4237  28.419  15.550   9.494
   10AU       S 4238  29.509  15.488   7.461
   10AU     LIG 4239  29.042  15.588   7.426
   10AU     LIG 4240  28.705  15.934   7.541
   10AU     LIG 4241  28.333  16.180   7.717
   10AU     LIG 4242  27.882  16.103   7.640
   10AU    AUSL 4243  29.466  14.696   7.338
   10AU    AUSL 4244  29.613  15.180   7.115
   10AU     AUL 4245  29.299  15.060   7.216
   10AU       S 4246  29.086  14.510   6.971
   10AU     LIG 4247  28.827  14.938   7.006
   10AU     LIG 4248  28.419  15.214   6.914
   10AU     LIG 4249  27.936  15.350   6.851
   10AU     LIG 4250  27.455  15.320   6.703
   10AU       S 4251  29.456  15.433   6.943
   10AU     LIG 4252  29.123  15.601   6.707
   10AU     LIG 4253  29.011  15.856   6.346
   10AU     LIG 4254  28.679  16.103   6.163
   10AU     LIG 4255  28.280  16.325   6.293
   10AU    AUSL 4256  29.217  14.763   7.704
   10AU    AUSL 4257  29.171  14.393   7.422
   10AU     AUL 4258  29.061  14.709   7.405
   10AU       S 4259  28.955  14.326   7.682
   10AU     LIG 4260  28.706  14.253   7.249
   10AU     LIG 4261  28.269  14.154   7.156
   10AU     LIG 4262  27.862  14.013   7.312
   10AU     LIG 4263  27.458  14.065   7.186
   10AU       S 4264  29.079  14.791   7.911
   10AU     LIG 4265  28.646  14.846   7.824
   10AU     LIG 4266  28.259  15.115   7.832
   10AU     LIG 4267  27.874  15.146   8.085
   10AU     LIG 4268  27.455  15.348   8.109
   10AU    AUSL 4269  30.882  13.927   7.565
   10AU    AUSL 4270  30.681  14.191   7.873
   10AU     AUL 4271  31.026  14.105   7.945
   10AU       S 4272  31.194  13.829   7.586
   10AU     LIG 4273  31.578  13.573   7.479
   10AU     LIG 4274  31.846  13.216   7.412
   10AU     LIG 4275  32.059  12.833   7.514
   10AU     LIG 4276  32.494  12.827   7.581
   10AU       S 4277  30.901  13.673   7.993
   10AU     LIG 4278  31.167  13.484   8.374
   10AU     LIG 4279  31.379  13.126   8.605
   10AU     LIG 4280  31.549  12.820   8.925
   10AU     LIG 4281  31.961  12.837   9.142
   10AU    AUSL 4282  30.862  14.305   7.332
   10AU    AUSL 4283  30.724  13.815   7.175
   10AU     AUL 4284  31.004  13.945   7.178
   10AU       S 4285  31.340  14.197   7.333
   10AU     LIG 4286  31.744  13.991   7.206
   10AU     LIG 4287  32.075  13.655   7.241
   10AU     LIG 4288  32.495  13.558   7.070
   10AU     LIG 4289  32.584  13.416   6.628
   10AU       S 4290  30.898  13.625   6.841
   10AU     LIG 4291  30.970  13.174   6.734
   10AU     LIG 4292  31.150  12.793   6.517
   10AU     LIG 4293  31.528  12.656   6.263
   10AU     LIG 4294  31.809  12.396   6.018
   10AU    AUSL 4295  29.359  14.016   7.579
   10AU    AUSL 4296  29.480  14.251   7.160
   10AU     AUL 4297  29.140  14.094   7.299
   10AU       S 4298  29.336  14.083   6.877
   10AU     LIG 4299  28.968  13.908   6.569
   10AU     LIG 4300  28.589  13.636   6.432
   10AU     LIG 4301  28.215  13.368   6.246
   10AU     LIG 4302  27.976  13.126   5.912
   10AU       S 4303  28.944  14.084   7.737
   10AU     LIG 4304  28.867  13.628   7.724
   10AU     LIG 4305  28.464  13.341   7.691
   10AU     LIG 4306  28.046  13.084   7.640
   10AU     LIG 4307  27.611  13.193   7.520
   10AU    AUSL 4308  29.448  14.405   7.774
   10AU    AUSL 4309  29.709  14.011   7.832
   10AU     AUL 4310  29.366  13.984   7.910
   10AU       S 4311  29.421  13.755   8.300
   10AU     LIG 4312  29.030  13.520   8.200
   10AU     LIG 4313  28.625  13.270   8.206
   10AU     LIG 4314  28.420  12.870   8.414
   10AU     LIG 4315  28.216  12.442   8.565
   10AU       S 4316  29.052  14.322   7.886
   10AU     LIG 4317  28.560  14.284   8.008
   10AU     LIG 4318  28.129  14.132   7.800
   10AU     LIG 4319  27.759  13.891   7.901
   10AU     LIG 4320  27.292  13.835   8.031
   10AU    AUSL 4321  30.182  15.230   7.897
   10AU    AUSL 4322  29.742  15.271   7.857
   10AU     AUL 4323  29.993  15.321   8.195
   10AU       S 4324  29.603  15.484   7.984
   10AU     LIG 4325  29.298  15.683   8.323
   10AU     LIG 4326  29.091  15.994   8.629
   10AU     LIG 4327  28.859  16.364   8.835
   10AU     LIG 4328  28.506  16.456   9.149
   10AU       S 4329  30.179  15.664   7.931
   10AU     LIG 4330  30.319  15.773   8.312
   10AU     LIG 4331  30.376  16.217   8.444
   10AU     LIG 4332  30.378  16.663   8.613
   10AU     LIG 4333  30.254  17.116   8.725
   10AU    AUSL 4334  29.993  15.450   7.557
   10AU    AUSL 4335  30.323  15.419   7.176
   10AU     AUL 4336  29.976  15.623   7.279
   10AU       S 4337  30.043  15.687   7.750
   10AU     LIG 4338  30.084  16.147   7.994
   10AU     LIG 4339  30.145  16.607   8.152
   10AU     LIG 4340  29.891  17.007   8.167
   10AU     LIG 4341  29.519  17.077   7.912
   10AU       S 4342  30.305  15.691   6.945
   10AU     LIG 4343  30.651  15.952   6.895
   10AU     LIG 4344  30.698  16.415   6.894
   10AU     LIG 4345  30.699  16.817   6.667
   10AU     LIG 4346  30.461  17.202   6.595
   10AU    AUSL 4347  30.457  15.385   7.587
   10AU    AUSL 4348  30.440  15.097   8.213
   10AU     AUL 4349  30.531  15.370   7.967
   10AU       S 4350  30.673  15.194   8.409
   10AU     LIG 4351  31.045  15.205   8.735
   10AU     LIG 4352  31.384  15.482   8.920
   10AU     LIG 4353  31.606  15.833   9.148
   10AU     LIG 4354  31.656  15.977   9.600
   10AU       S 4355  30.391  15.695   7.638
   10AU     LIG 4356  30.578  16.029   7.944
   10AU     LIG 4357  30.652  16.494   8.101
   10AU     LIG 4358  30.593  16.947   8.243
   10AU     LIG 4359  30.804  17.354   8.367
   10AU    AUSL 4360  30.101  13.806   7.917
   10AU    AUSL 4361  30.516  13.799   7.756
   10AU     AUL 4362  30.312  13.675   8.144
   10AU       S 4363  30.075  13.311   7.997
   10AU     LIG 4364  30.067  13.004   8.339
   10AU     LIG 4365  30.160  12.558   8.423
   10AU     LIG 4366  29.960  12.139   8.513
   10AU     LIG 4367  29.874  11.834   8.872
   10AU       S 4368  30.680  13.574   7.836
   10AU     LIG 4369  31.048  13.201   7.970
   10AU     LIG 4370  31.043  12.873   8.302
   10AU     LIG 4371  31.393  12.627   8.474
   10AU     LIG 4372  31.730  12.360   8.707
   10AU    AUSL 4373  29.781  13.639   7.643
   10AU    AUSL 4374  29.871  13.938   8.252
   10AU     AUL 4375  29.760  13.671   7.998
   10AU       S 4376  29.905  13.243   7.864
   10AU     LIG 4377  29.747  12.821   7.911
   10AU     LIG 4378  29.682  12.494   8.204
   10AU     LIG 4379  29.574  12.077   8.167
   10AU     LIG 4380  29.624  11.737   8.429
   10AU       S 4381  29.659  13.825   8.441
   10AU     LIG 4382  29.281  13.625   8.742
   10AU     LIG 4383  28.894  13.348   8.670
   10AU     LIG 4384  28.665  12.994   8.859
   10AU     LIG 4385  28.610  12.733   9.249
   10AU    AUSL 4386  30.220  13.528   7.593
   10AU    AUSL 4387  29.946  13.656   7.238
   10AU     AUL 4388  29.853  13.399   7.432
   10AU       S 4389  30.121  13.350   7.057
   10AU     LIG 4390  29.716  13.148   6.991
   10AU     LIG 4391  29.646  12.666   6.915
   10AU     LIG 4392  29.727  12.216   6.753
   10AU     LIG 4393  29.878  11.770   6.768
   10AU       S 4394  30.227  13.321   7.761
   10AU     LIG 4395  30.252  12.818   7.915
   10AU     LIG 4396  30.119  12.378   7.957
   10AU     LIG 4397  30.025  11.926   8.036
   10AU     LIG 4398  30.285  11.633   8.245
   10AU    AUSL 4399  30.191  15.127   6.856
   10AU    AUSL 4400  30.594  15.091   7.239
   10AU     AUL 4401  30.488  15.280   6.861
   10AU       S 4402  30.157  15.483   6.606
   10AU     LIG 4403  30.364  15.892   6.462
   10AU     LIG 4404  30.423  16.363   6.455
   10AU     LIG 4405  30.291  16.800   6.328
   10AU     LIG 4406  30.460  17.122   6.026
   10AU       S 4407  30.842  15.340   7.142
   10AU     LIG 4408  31.315  15.500   7.014
   10AU     LIG 4409  31.660  15.659   6.717
   10AU     LIG 4410  31.927  16.035   6.566
   10AU     LIG 4411  31.920  16.367   6.253
   10AU    AUSL 4412  30.007  15.138   7.272
   10AU    AUSL 4413  29.871  14.857   6.950
   10AU     AUL 4414  29.890  15.264   6.928
   10AU       S 4415  30.092  15.658   6.829
   10AU     LIG 4416  30.177  16.171   6.869
   10AU     LIG 4417  30.226  16.660   6.832
   10AU     LIG 4418  29.951  17.033   6.748
   10AU     LIG 4419  29.609  17.347   6.594
   10AU       S 4420  29.549  15.169   6.639
   10AU     LIG 4421  29.450  15.463   6.337
   10AU     LIG 4422  29.209  15.564   5.973
   10AU     LIG 4423  28.890  15.814   5.765
   10AU     LIG 4424  28.901  15.936   5.315
   10AU    AUSL 4425  30.163  13.794   6.873
   10AU    AUSL 4426  29.552  13.819   7.249
   10AU     AUL 4427  29.789  13.671   6.937
   10AU       S 4428  29.347  13.772   7.039
   10AU     LIG 4429  28.982  13.530   6.914
   10AU     LIG 4430  28.648  13.231   6.756
   10AU     LIG 4431  28.308  12.971   6.566
   10AU     LIG 4432  28.134  12.739   6.205
   10AU       S 4433  30.168  13.399   6.809
   10AU     LIG 4434  29.988  13.057   6.547
   10AU     LIG 4435  30.101  12.580   6.515
   10AU     LIG 4436  30.063  12.104   6.368
   10AU     LIG 4437  29.988  11.628   6.253
   10AU    AUSL 4438  30.327  13.834   7.316
   10AU    AUSL 4439  30.446  14.102   6.968
   10AU     AUL 4440  30.476  13.685   7.014
   10AU       S 4441  30.274  13.309   7.174
   10AU     LIG 4442  30.132  12.861   6.977
   10AU     LIG 4443  30.128  12.440   7.009
   10AU     LIG 4444  30.313  12.105   6.816
   10AU     LIG 4445  30.355  11.729   6.590
   10AU       S 4446  30.636  13.855   6.625
   10AU     LIG 4447  30.585  13.429   6.477
   10AU     LIG 4448  30.840  13.101   6.240
   10AU     LIG 4449  31.150  12.867   5.989
   10AU     LIG 4450  31.492  12.878   5.666
   11POPC   NC3 4451  11.254  10.808   9.522
   11POPC   PO4 4452  11.075  10.209   9.416
   11POPC   GL1 4453  11.266  10.448   9.037
   11POPC   GL2 4454  11.208  10.798   9.018
   11POPC   C1A 4455  11.235  10.573   8.570
   11POPC   D2A 4456  10.896  10.462   8.296
   11POPC   C3A 4457  11.025  10.398   7.868
   11POPC   C4A 4458  11.447  10.408   7.669
   11POPC   C1B 4459  11.529  10.970   8.761
   11POPC   C2B 4460  11.618  10.992   8.336
   11POPC   C3B 4461  11.400  10.726   8.052
   11POPC   C4B 4462  11.145  10.832   7.658
   12POPC   NC3 4463  11.824   9.989   9.461
   12POPC   PO4 4464  12.406   9.675   9.458
   12POPC   GL1 4465  12.088   9.672   9.139
   12POPC   GL2 4466  12.008   9.994   8.984
   12POPC   C1A 4467  12.194   9.553   8.736
   12POPC   D2A 4468  12.075   9.486   8.325
   12POPC   C3A 4469  12.300   9.783   8.069
   12POPC   C4A 4470  12.412   9.741   7.643
   12POPC   C1B 4471  11.721   9.723   8.707
   12POPC   C2B 4472  11.719   9.846   8.262
   12POPC   C3B 4473  11.859   9.886   7.834
   12POPC   C4B 4474  11.690   9.995   7.480
   13POPC   NC3 4475  32.295  35.019   9.556
   13POPC   PO4 4476  32.343  35.665   9.656
   13POPC   GL1 4477  32.203  35.439   9.237
   13POPC   GL2 4478  32.462  35.456   8.996
   13POPC   C1A 4479  32.077  35.241   8.781
   13POPC   D2A 4480  32.006  35.460   8.353
   13POPC   C3A 4481  32.062  35.330   7.914
   13POPC   C4A 4482  32.050  35.074   7.571
   13POPC   C1B 4483  32.469  35.489   8.585
   13POPC   C2B 4484  32.531  35.264   8.233
   13POPC   C3B 4485  32.522  35.135   7.829
   13POPC   C4B 4486  32.455  35.358   7.453
   14POPC   NC3 4487  24.844  28.120   9.454
   14POPC   PO4 4488  24.197  28.146   9.340
   14POPC   GL1 4489  24.267  28.209   8.954
   14POPC   GL2 4490  24.619  28.194   8.999
   14POPC   C1A 4491  24.271  28.538   8.682
   14POPC   D2A 4492  24.423  28.527   8.257
   14POPC   C3A 4493  24.485  28.240   7.949
   14POPC   C4A 4494  24.256  28.245   7.551
   14POPC   C1B 4495  24.773  28.459   8.686
   14POPC   C2B 4496  24.871  28.735   8.319
   14POPC   C3B 4497  24.795  28.669   7.856
   14POPC   C4B 4498  24.463  28.711   7.553
   15POPC   NC3 4499   3.080  31.356   9.627
   15POPC   PO4 4500   2.434  31.390   9.411
   15POPC   GL1 4501   2.810  31.308   9.175
   15POPC   GL2 4502   2.879  31.647   9.244
   15POPC   C1A 4503   2.859  31.255   8.728
   15POPC   D2A 4504   2.639  31.443   8.357
   15POPC   C3A 4505   2.715  31.289   7.929
   15POPC   C4A 4506   2.532  31.259   7.501
   15POPC   C1B 4507   2.910  31.758   8.825
   15POPC   C2B 4508   2.708  31.939   8.463
   15POPC   C3B 4509   2.810  31.854   8.007
   15POPC   C4B 4510   2.958  31.670   7.629
   16POPC   NC3 4511   5.373  31.026   9.813
   16POPC   PO4 4512   4.886  31.397   9.484
   16POPC   GL1 4513   5.029  31.500   9.091
   16POPC   GL2 4514   5.006  31.167   8.877
   16POPC   C1A 4515   5.203  31.656   8.731
   16POPC   D2A 4516   5.443  31.475   8.449
   16POPC   C3A 4517   5.249  31.487   8.048
   16POPC   C4A 4518   5.036  31.806   7.805
   16POPC   C1B 4519   4.765  31.409   8.635
   16POPC   C2B 4520   4.803  31.635   8.254
   16POPC   C3B 4521   4.750  31.402   7.868
   16POPC   C4B 4522   4.576  31.004   7.843
   17POPC   NC3 4523  38.785  37.383   9.289
   17POPC   PO4 4524  38.413  37.943   9.527
   17POPC   GL1 4525  38.489  37.821   9.164
   17POPC   GL2 4526  38.309  37.567   9.159
   17POPC   C1A 4527  38.621  37.756   8.745
   17POPC   D2A 4528  38.755  37.931   8.363
   17POPC   C3A 4529  38.677  37.653   8.014
   17POPC   C4A 4530  38.724  37.882   7.637
   17POPC   C1B 4531  38.132  37.629   8.772
   17POPC   C2B 4532  38.282  37.467   8.360
   17POPC   C3B 4533  38.170  37.609   7.934
   17POPC   C4B 4534  38.272  37.511   7.497
   18POPC   NC3 4535   8.488   7.733   9.841
   18POPC   PO4 4536   8.091   7.417   9.468
   18POPC   GL1 4537   8.105   7.666   9.131
   18POPC   GL2 4538   8.466   7.643   9.163
   18POPC   C1A 4539   8.046   7.512   8.695
   18POPC   D2A 4540   7.840   7.200   8.397
   18POPC   C3A 4541   8.069   7.180   8.009
   18POPC   C4A 4542   8.283   7.361   7.658
   18POPC   C1B 4543   8.558   7.476   8.739
   18POPC   C2B 4544   8.460   7.443   8.261
   18POPC   C3B 4545   8.511   7.747   7.878
   18POPC   C4B 4546   8.383   7.796   7.421
   19POPC   NC3 4547  32.354  29.417   9.539
   19POPC   PO4 4548  31.783  29.310   9.346
   19POPC   GL1 4549  32.115  29.232   9.100
   19POPC   GL2 4550  32.477  29.240   9.091
   19POPC   C1A 4551  32.163  29.043   8.707
   19POPC   D2A 4552  31.944  28.936   8.321
   19POPC   C3A 4553  32.243  29.016   7.998
   19POPC   C4A 4554  32.202  29.116   7.589
   19POPC   C1B 4555  32.658  29.328   8.722
   19POPC   C2B 4556  32.679  29.185   8.319
   19POPC   C3B 4557  32.689  29.262   7.903
   19POPC   C4B 4558  32.657  28.907   7.666
   20POPC   NC3 4559  20.969  25.572   9.443
   20POPC   PO4 4560  20.375  25.197   9.529
   20POPC   GL1 4561  20.609  25.299   9.119
   20POPC   GL2 4562  20.958  25.448   8.961
   20POPC   C1A 4563  20.737  25.051   8.735
   20POPC   D2A 4564  20.508  24.957   8.380
   20POPC   C3A 4565  20.679  25.080   7.999
   20POPC   C4A 4566  20.399  25.294   7.733
   20POPC   C1B 4567  20.613  25.554   8.689
   20POPC   C2B 4568  20.433  25.460   8.317
   20POPC   C3B 4569  20.725  25.596   8.023
   20POPC   C4B 4570  20.832  25.501   7.607
   21POPC   NC3 4571  42.667  23.683   9.272
   21POPC   PO4 4572  42.094  23.985   9.555
   21POPC   GL1 4573  42.175  23.828   9.157
   21POPC   GL2 4574  42.139  23.490   9.190
   21POPC   C1A 4575  42.260  23.896   8.726
   21POPC   D2A 4576  42.255  24.106   8.327
   21POPC   C3A 4577  42.264  23.764   8.023
   21POPC   C4A 4578  42.349  23.743   7.584
   21POPC   C1B 4579  42.239  23.341   8.807
   21POPC   C2B 4580  42.380  23.471   8.442
   21POPC   C3B 4581  42.608  23.261   8.166
   21POPC   C4B 4582  42.464  23.274   7.762
   22POPC   NC3 4583  23.124  28.681   9.575
   22POPC   PO4 4584  22.689  29.125   9.765
   22POPC   GL1 4585  22.871  29.098   9.391
   22POPC   GL2 4586  22.559  29.103   9.256
   22POPC   C1A 4587  23.004  29.102   8.978
   22POPC   D2A 4588  22.891  29.217   8.569
   22POPC   C3A 4589  22.907  29.029   8.169
   22POPC   C4A 4590  23.114  29.227   7.825
   22POPC   C1B 4591  22.514  28.972   8.856
   22POPC   C2B 4592  22.475  28.858   8.449
   22POPC   C3B 4593  22.393  28.963   8.053
   22POPC   C4B 4594  22.641  29.030   7.727
   23POPC   NC3 4595   2.480  30.930   9.342
   23POPC   PO4 4596   3.134  30.926   9.459
   23POPC   GL1 4597   2.897  30.777   9.115
   23POPC   GL2 4598   2.675  30.473   9.149
   23POPC   C1A 4599   2.722  30.747   8.707
   23POPC   D2A 4600   2.702  30.940   8.339
   23POPC   C3A 4601   2.376  30.876   8.096
   23POPC   C4A 4602   2.564  30.825   7.743
   23POPC   C1B 4603   3.021  30.366   8.863
   23POPC   C2B 4604   3.129  30.515   8.436
   23POPC   C3B 4605   3.127  30.377   8.000
   23POPC   C4B 4606   2.809  30.400   7.676
   24POPC   NC3 4607  38.496  23.885   9.515
   24POPC   PO4 4608  38.778  23.288   9.280
   24POPC   GL1 4609  38.671  23.699   9.045
   24POPC   GL2 4610  38.346  23.854   9.043
   24POPC   C1A 4611  38.569  23.756   8.594
   24POPC   D2A 4612  38.582  23.365   8.325
   24POPC   C3A 4613  38.582  23.422   7.898
   24POPC   C4A 4614  38.734  23.833   7.740
   24POPC   C1B 4615  38.099  24.082   8.796
   24POPC   C2B 4616  38.027  23.899   8.430
   24POPC   C3B 4617  38.308  23.782   8.124
   24POPC   C4B 4618  38.219  23.742   7.692
   25POPC   NC3 4619  43.805  13.981   9.535
   25POPC   PO4 4620  44.081  13.363   9.330
   25POPC   GL1 4621  43.906  13.716   9.107
   25POPC   GL2 4622  43.569  13.855   9.109
   25POPC   C1A 4623  43.812  13.531   8.740
   25POPC   D2A 4624  44.084  13.313   8.483
   25POPC   C3A 4625  44.008  13.224   8.069
   25POPC   C4A 4626  43.885  13.358   7.672
   25POPC   C1B 4627  43.435  13.875   8.709
   25POPC   C2B 4628  43.536  14.060   8.329
   25POPC   C3B 4629  43.367  13.942   7.955
   25POPC   C4B 4630  43.613  13.781   7.642
   26POPC   NC3 4631  23.514  27.181   9.449
   26POPC   PO4 4632  23.560  27.798   9.388
   26POPC   GL1 4633  23.640  27.513   9.061
   26POPC   GL2 4634  23.439  27.749   8.855
   26POPC   C1A 4635  23.700  27.396   8.625
   26POPC   D2A 4636  23.690  27.709   8.314
   26POPC   C3A 4637  23.650  27.553   7.906
   26POPC   C4A 4638  23.320  27.470   7.638
   26POPC   C1B 4639  23.924  27.851   8.752
   26POPC   C2B 4640  24.163  28.056   8.407
   26POPC   C3B 4641  24.080  27.897   7.984
   26POPC   C4B 4642  23.998  27.753   7.573
   27POPC   NC3 4643  15.077  36.286   9.862
   27POPC   PO4 4644  15.073  36.648   9.328
   27POPC   GL1 4645  15.030  36.244   9.140
   27POPC   GL2 4646  14.811  35.988   9.069
   27POPC   C1A 4647  15.194  36.068   8.744
   27POPC   D2A 4648  15.299  36.358   8.427
   27POPC   C3A 4649  15.354  36.136   8.067
   27POPC   C4A 4650  15.317  36.361   7.706
   27POPC   C1B 4651  14.655  36.009   8.649
   27POPC   C2B 4652  14.938  35.929   8.296
   27POPC   C3B 4653  15.038  35.789   7.867
   27POPC   C4B 4654  14.809  35.889   7.478
   28POPC   NC3 4655   4.139  27.356   9.574
   28POPC   PO4 4656   4.667  27.739   9.715
   28POPC   GL1 4657   4.525  27.536   9.289
   28POPC   GL2 4658   4.618  27.200   9.358
   28POPC   C1A 4659   4.243  27.495   8.882
   28POPC   D2A 4660   4.152  27.283   8.448
   28POPC   C3A 4661   4.052  27.538   8.088
   28POPC   C4A 4662   3.942  27.522   7.683
   28POPC   C1B 4663   4.659  27.222   8.907
   28POPC   C2B 4664   4.680  27.327   8.489
   28POPC   C3B 4665   4.512  27.301   8.090
   28POPC   C4B 4666   4.448  27.434   7.682
   29POPC   NC3 4667  41.739  27.338   9.404
   29POPC   PO4 4668  41.320  27.863   9.563
   29POPC   GL1 4669  41.393  27.647   9.130
   29POPC   GL2 4670  41.748  27.646   8.993
   29POPC   C1A 4671  41.410  27.761   8.662
   29POPC   D2A 4672  41.825  27.718   8.416
   29POPC   C3A 4673  41.786  27.750   7.969
   29POPC   C4A 4674  41.479  27.734   7.663
   29POPC   C1B 4675  41.619  27.279   8.716
   29POPC   C2B 4676  41.662  27.079   8.303
   29POPC   C3B 4677  41.529  27.293   7.924
   29POPC   C4B 4678  41.680  27.309   7.461
   30POPC   NC3 4679  25.177   7.772   9.414
   30POPC   PO4 4680  25.589   7.245   9.528
   30POPC   GL1 4681  25.283   7.232   9.198
   30POPC   GL2 4682  25.494   7.461   9.013
   30POPC   C1A 4683  25.105   7.164   8.769
   30POPC   D2A 4684  25.228   7.382   8.380
   30POPC   C3A 4685  25.047   7.312   7.972
   30POPC   C4A 4686  25.309   7.286   7.601
   30POPC   C1B 4687  25.265   7.754   8.748
   30POPC   C2B 4688  25.071   7.864   8.326
   30POPC   C3B 4689  25.296   7.773   7.940
   30POPC   C4B 4690  25.367   8.062   7.602
   31POPC   NC3 4691   3.892  13.815   9.534
   31POPC   PO4 4692   4.522  13.649   9.372
   31POPC   GL1 4693   4.288  13.447   9.064
   31POPC   GL2 4694   4.208  13.783   8.973
   31POPC   C1A 4695   4.262  13.370   8.619
   31POPC   D2A 4696   4.426  13.593   8.256
   31POPC   C3A 4697   4.517  13.495   7.807
   31POPC   C4A 4698   4.200  13.603   7.456
   31POPC   C1B 4699   4.619  13.703   8.741
   31POPC   C2B 4700   4.882  13.768   8.402
   31POPC   C3B 4701   4.760  13.920   7.998
   31POPC   C4B 4702   4.552  13.953   7.607
   32POPC   NC3 4703  13.793  22.670   9.515
   32POPC   PO4 4704  13.529  22.029   9.532
   32POPC   GL1 4705  13.530  22.281   9.164
   32POPC   GL2 4706  13.447  21.999   8.990
   32POPC   C1A 4707  13.581  22.382   8.682
   32POPC   D2A 4708  13.903  22.271   8.356
   32POPC   C3A 4709  13.815  22.386   7.915
   32POPC   C4A 4710  14.002  22.058   7.667
   32POPC   C1B 4711  13.347  21.883   8.577
   32POPC   C2B 4712  13.429  22.127   8.226
   32POPC   C3B 4713  13.535  21.971   7.844
   32POPC   C4B 4714  13.391  21.660   7.614
   33POPC   NC3 4715   9.570  43.568   9.643
   33POPC   PO4 4716   9.510  44.187   9.678
   33POPC   GL1 4717   9.529  43.925   9.276
   33POPC   GL2 4718   9.844  43.581   9.221
   33POPC   C1A 4719   9.361  44.051   8.809
   33POPC   D2A 4720   9.669  43.967   8.404
   33POPC   C3A 4721   9.540  43.907   7.973
   33POPC   C4A 4722   9.503  44.204   7.683
   33POPC   C1B 4723  10.167  43.567   8.814
   33POPC   C2B 4724  10.048  43.633   8.362
   33POPC   C3B 4725  10.050  43.859   7.960
   33POPC   C4B 4726  10.122  43.682   7.513
   34POPC   NC3 4727  34.299   1.147   9.529
   34POPC   PO4 4728  33.817   1.644   9.548
   34POPC   GL1 4729  33.907   1.423   9.117
   34POPC   GL2 4730  33.963   1.078   9.165
   34POPC   C1A 4731  33.725   1.388   8.659
   34POPC   D2A 4732  33.429   1.522   8.294
   34POPC   C3A 4733  33.671   1.494   7.892
   34POPC   C4A 4734  34.049   1.312   7.688
   34POPC   C1B 4735  33.554   1.029   8.988
   34POPC   C2B 4736  33.514   0.910   8.552
   34POPC   C3B 4737  33.531   1.044   8.143
   34POPC   C4B 4738  33.640   1.003   7.754
   35POPC   NC3 4739  11.843   7.420   9.418
   35POPC   PO4 4740  12.414   7.823   9.462
   35POPC   GL1 4741  12.153   7.610   9.083
   35POPC   GL2 4742  12.129   7.242   9.015
   35POPC   C1A 4743  11.759   7.656   8.797
   35POPC   D2A 4744  11.640   7.536   8.354
   35POPC   C3A 4745  11.945   7.383   7.991
   35POPC   C4A 4746  12.038   7.599   7.548
   35POPC   C1B 4747  12.057   7.316   8.568
   35POPC   C2B 4748  12.178   7.695   8.320
   35POPC   C3B 4749  12.394   7.625   7.912
   35POPC   C4B 4750  12.397   7.154   7.832
   36POPC   NC3 4751   7.370  14.975   9.507
   36POPC   PO4 4752   7.708  15.469   9.477
   36POPC   GL1 4753   7.623  15.207   9.111
   36POPC   GL2 4754   7.242  15.216   9.086
   36POPC   C1A 4755   7.495  15.301   8.669
   36POPC   D2A 4756   7.617  15.317   8.256
   36POPC   C3A 4757   7.329  15.350   7.924
   36POPC   C4A 4758   7.598  15.353   7.628
   36POPC   C1B 4759   7.397  14.826   8.847
   36POPC   C2B 4760   7.590  14.812   8.430
   36POPC   C3B 4761   7.546  14.872   7.977
   36POPC   C4B 4762   7.182  14.647   7.817
   37POPC   NC3 4763  39.418  24.229   9.516
   37POPC   PO4 4764  38.897  24.632   9.293
   37POPC   GL1 4765  39.309  24.566   9.127
   37POPC   GL2 4766  39.228  24.241   9.059
   37POPC   C1A 4767  39.534  24.446   8.736
   37POPC   D2A 4768  39.403  24.274   8.389
   37POPC   C3A 4769  39.269  24.567   8.104
   37POPC   C4A 4770  39.339  24.507   7.679
   37POPC   C1B 4771  39.041  24.077   8.702
   37POPC   C2B 4772  38.903  24.222   8.297
   37POPC   C3B 4773  39.138  24.102   7.930
   37POPC   C4B 4774  39.036  24.152   7.487
   38POPC   NC3 4775  40.634   0.654   9.403
   38POPC   PO4 4776  41.096   0.203   9.457
   38POPC   GL1 4777  41.064   0.401   9.052
   38POPC   GL2 4778  40.922   0.725   8.992
   38POPC   C1A 4779  40.947   0.350   8.608
   38POPC   D2A 4780  40.589   0.145   8.350
   38POPC   C3A 4781  40.652   0.269   7.892
   38POPC   C4A 4782  41.055   0.263   7.682
   38POPC   C1B 4783  40.537   0.632   8.729
   38POPC   C2B 4784  40.656   0.637   8.283
   38POPC   C3B 4785  40.913   0.742   7.889
   38POPC   C4B 4786  40.791   0.644   7.469
   39POPC   NC3 4787   4.356  24.149   9.478
   39POPC   PO4 4788   4.502  23.522   9.637
   39POPC   GL1 4789   4.311  23.513   9.228
   39POPC   GL2 4790   4.075  23.793   9.132
   39POPC   C1A 4791   4.246  23.445   8.779
   39POPC   D2A 4792   4.164  23.701   8.402
   39POPC   C3A 4793   4.395  23.594   8.020
   39POPC   C4A 4794   4.542  23.851   7.662
   39POPC   C1B 4795   4.092  24.100   8.768
   39POPC   C2B 4796   4.127  24.246   8.319
   39POPC   C3B 4797   4.045  23.963   7.949
   39POPC   C4B 4798   4.029  23.965   7.477
   40POPC   NC3 4799  10.372  30.266   9.534
   40POPC   PO4 4800  10.741  29.646   9.536
   40POPC   GL1 4801  10.618  29.961   9.223
   40POPC   GL2 4802  10.887  30.139   9.087
   40POPC   C1A 4803  10.353  29.970   8.839
   40POPC   D2A 4804  10.512  29.975   8.446
   40POPC   C3A 4805  10.288  29.889   8.072
   40POPC   C4A 4806  10.493  29.988   7.676
   40POPC   C1B 4807  10.830  29.763   8.815
   40POPC   C2B 4808  10.928  29.689   8.414
   40POPC   C3B 4809  10.770  29.739   8.021
   40POPC   C4B 4810  10.910  29.635   7.613
   41POPC   NC3 4811   9.547  20.094   9.511
   41POPC   PO4 4812  10.157  19.728   9.488
   41POPC   GL1 4813  10.012  19.798   9.099
   41POPC   GL2 4814   9.919  20.114   8.982
   41POPC   C1A 4815   9.841  19.652   8.711
   41POPC   D2A 4816   9.861  19.413   8.325
   41POPC   C3A 4817   9.561  19.506   8.011
   41POPC   C4A 4818   9.878  19.707   7.793
   41POPC   C1B 4819   9.861  20.337   8.595
   41POPC   C2B 4820   9.701  20.359   8.186
   41POPC   C3B 4821   9.890  20.208   7.811
   41POPC   C4B 4822   9.860  20.074   7.375
   42POPC   NC3 4823  14.763  23.046   9.610
   42POPC   PO4 4824  14.137  22.993   9.403
   42POPC   GL1 4825  13.943  23.014   9.019
   42POPC   GL2 4826  13.807  22.694   9.028
   42POPC   C1A 4827  14.106  23.077   8.573
   42POPC   D2A 4828  14.165  23.091   8.120
   42POPC   C3A 4829  14.567  23.046   7.969
   42POPC   C4A 4830  14.720  22.678   7.752
   42POPC   C1B 4831  14.083  22.585   8.739
   42POPC   C2B 4832  14.321  22.635   8.392
   42POPC   C3B 4833  14.302  22.499   8.009
   42POPC   C4B 4834  14.189  22.755   7.727
   43POPC   NC3 4835  44.897  16.852   9.394
   43POPC   PO4 4836  44.297  17.229   9.592
   43POPC   GL1 4837  44.439  17.005   9.188
   43POPC   GL2 4838  44.748  17.132   9.000
   43POPC   C1A 4839  44.477  16.743   8.787
   43POPC   D2A 4840  44.732  16.457   8.519
   43POPC   C3A 4841  44.724  16.638   8.098
   43POPC   C4A 4842  44.708  16.639   7.651
   43POPC   C1B 4843   0.047  16.823   8.766
   43POPC   C2B 4844   0.181  16.847   8.340
   43POPC   C3B 4845   0.076  17.196   8.030
   43POPC   C4B 4846  44.675  17.132   7.837
   44POPC   NC3 4847  39.393  40.332   9.708
   44POPC   PO4 4848  39.255  40.987   9.610
   44POPC   GL1 4849  39.160  40.783   9.254
   44POPC   GL2 4850  38.946  41.007   9.069
   44POPC   C1A 4851  39.165  40.610   8.844
   44POPC   D2A 4852  39.008  40.901   8.506
   44POPC   C3A 4853  39.169  40.818   8.087
   44POPC   C4A 4854  39.223  40.446   7.798
   44POPC   C1B 4855  39.357  41.095   8.850
   44POPC   C2B 4856  39.420  41.245   8.414
   44POPC   C3B 4857  39.597  41.162   8.004
   44POPC   C4B 4858  39.428  40.942   7.662
   45POPC   NC3 4859  28.388  38.341   9.756
   45POPC   PO4 4860  28.077  38.838   9.446
   45POPC   GL1 4861  28.205  38.610   9.117
   45POPC   GL2 4862  28.139  38.283   9.155
   45POPC   C1A 4863  28.472  38.675   8.748
   45POPC   D2A 4864  28.616  38.860   8.375
   45POPC   C3A 4865  28.428  38.774   7.986
   45POPC   C4A 4866  28.575  38.623   7.608
   45POPC   C1B 4867  28.194  38.253   8.714
   45POPC   C2B 4868  28.458  38.346   8.356
   45POPC   C3B 4869  28.513  38.251   7.973
   45POPC   C4B 4870  28.259  38.249   7.652
   46POPC   NC3 4871   4.247  29.692   9.326
   46POPC   PO4 4872   4.508  30.034   9.793
   46POPC   GL1 4873   4.460  30.157   9.273
   46POPC   GL2 4874   4.767  30.296   9.241
   46POPC   C1A 4875   4.291  30.060   8.813
   46POPC   D2A 4876   4.396  29.896   8.366
   46POPC   C3A 4877   4.142  29.943   7.978
   46POPC   C4A 4878   4.190  29.790   7.544
   46POPC   C1B 4879   4.799  30.140   8.805
   46POPC   C2B 4880   4.598  30.343   8.502
   46POPC   C3B 4881   4.598  30.307   8.074
   46POPC   C4B 4882   4.491  30.182   7.661
   47POPC   NC3 4883  13.698  26.570   9.385
   47POPC   PO4 4884  13.526  27.135   9.717
   47POPC   GL1 4885  13.433  27.032   9.183
   47POPC   GL2 4886  13.362  26.684   9.037
   47POPC   C1A 4887  13.577  27.073   8.694
   47POPC   D2A 4888  13.981  26.991   8.392
   47POPC   C3A 4889  13.915  27.001   7.915
   47POPC   C4A 4890  13.575  27.184   7.650
   47POPC   C1B 4891  13.667  26.547   8.692
   47POPC   C2B 4892  13.678  26.301   8.287
   47POPC   C3B 4893  13.467  26.406   7.903
   47POPC   C4B 4894  13.709  26.639   7.580
   48POPC   NC3 4895  37.649  41.780   9.537
   48POPC   PO4 4896  37.580  41.122   9.449
   48POPC   GL1 4897  37.639  41.457   9.097
   48POPC   GL2 4898  37.543  41.839   9.046
   48POPC   C1A 4899  37.970  41.484   8.751
   48POPC   D2A 4900  38.022  41.723   8.353
   48POPC   C3A 4901  38.050  41.490   7.964
   48POPC   C4A 4902  37.960  41.471   7.486
   48POPC   C1B 4903  37.564  41.757   8.588
   48POPC   C2B 4904  37.518  41.814   8.134
   48POPC   C3B 4905  37.763  41.865   7.748
   48POPC   C4B 4906  37.607  41.827   7.324
   49POPC   NC3 4907   9.321   3.702   9.891
   49POPC   PO4 4908   9.867   3.623   9.534
   49POPC   GL1 4909   9.709   3.607   9.112
   49POPC   GL2 4910   9.851   3.944   9.055
   49POPC   C1A 4911   9.627   3.358   8.730
   49POPC   D2A 4912   9.774   3.243   8.314
   49POPC   C3A 4913   9.554   3.392   7.918
   49POPC   C4A 4914   9.561   3.235   7.503
   49POPC   C1B 4915   9.547   3.884   8.720
   49POPC   C2B 4916   9.570   3.716   8.337
   49POPC   C3B 4917   9.927   3.699   8.078
   49POPC   C4B 4918   9.874   3.774   7.645
   50POPC   NC3 4919  24.871  14.204   9.416
   50POPC   PO4 4920  25.165  14.584   9.917
   50POPC   GL1 4921  25.327  14.348   9.350
   50POPC   GL2 4922  25.082  14.331   9.001
   50POPC   C1A 4923  25.532  14.317   8.857
   50POPC   D2A 4924  25.314  14.427   8.471
   50POPC   C3A 4925  25.467  14.445   8.050
   50POPC   C4A 4926  25.356  14.759   7.701
   50POPC   C1B 4927  24.963  14.100   8.666
   50POPC   C2B 4928  24.850  14.251   8.296
   50POPC   C3B 4929  24.975  14.602   8.084
   50POPC   C4B 4930  25.080  14.350   7.736
   51POPC   NC3 4931  16.138  33.324   9.500
   51POPC   PO4 4932  15.949  33.907   9.606
   51POPC   GL1 4933  15.849  33.820   9.184
   51POPC   GL2 4934  15.848  33.467   9.084
   51POPC   C1A 4935  15.855  33.880   8.735
   51POPC   D2A 4936  16.015  33.914   8.320
   51POPC   C3A 4937  15.764  34.064   7.986
   51POPC   C4A 4938  16.046  34.177   7.651
   51POPC   C1B 4939  16.018  33.376   8.669
   51POPC   C2B 4940  16.248  33.467   8.294
   51POPC   C3B 4941  15.876  33.483   8.058
   51POPC   C4B 4942  15.892  33.673   7.685
   52POPC   NC3 4943  17.690  36.217   9.559
   52POPC   PO4 4944  17.016  36.309   9.321
   52POPC   GL1 4945  17.270  36.010   9.114
   52POPC   GL2 4946  17.609  36.115   9.041
   52POPC   C1A 4947  17.289  35.984   8.661
   52POPC   D2A 4948  17.521  36.161   8.312
   52POPC   C3A 4949  17.418  36.058   7.890
   52POPC   C4A 4950  17.139  36.306   7.668
   52POPC   C1B 4951  17.656  36.408   8.745
   52POPC   C2B 4952  17.845  36.560   8.362
   52POPC   C3B 4953  17.846  36.337   7.944
   52POPC   C4B 4954  17.890  36.027   7.589
   53POPC   NC3 4955  26.879   9.599   9.583
   53POPC   PO4 4956  27.177  10.210   9.547
   53POPC   GL1 4957  26.942   9.946   9.172
   53POPC   GL2 4958  26.798   9.583   9.083
   53POPC   C1A 4959  26.764  10.031   8.733
   53POPC   D2A 4960  26.815  10.035   8.242
   53POPC   C3A 4961  26.706   9.803   7.856
   53POPC   C4A 4962  26.733   9.917   7.396
   53POPC   C1B 4963  26.492   9.612   8.737
   53POPC   C2B 4964  26.708   9.541   8.318
   53POPC   C3B 4965  26.738   9.312   7.900
   53POPC   C4B 4966  26.521   9.458   7.497
   54POPC   NC3 4967   6.647  14.787   9.560
   54POPC   PO4 4968   6.540  15.401   9.492
   54POPC   GL1 4969   6.488  15.066   9.149
   54POPC   GL2 4970   6.828  14.923   9.093
   54POPC   C1A 4971   6.467  15.124   8.692
   54POPC   D2A 4972   6.602  15.068   8.253
   54POPC   C3A 4973   6.510  15.371   7.904
   54POPC   C4A 4974   6.544  15.407   7.440
   54POPC   C1B 4975   6.982  15.042   8.653
   54POPC   C2B 4976   7.100  14.991   8.209
   54POPC   C3B 4977   6.892  15.048   7.773
   54POPC   C4B 4978   6.864  14.770   7.368
   55POPC   NC3 4979  28.753  27.855   9.834
   55POPC   PO4 4980  29.291  27.541   9.643
   55POPC   GL1 4981  29.103  27.786   9.293
   55POPC   GL2 4982  28.795  27.740   9.125
   55POPC   C1A 4983  29.182  27.866   8.823
   55POPC   D2A 4984  29.205  28.048   8.409
   55POPC   C3A 4985  29.280  27.780   8.052
   55POPC   C4A 4986  28.895  27.791   7.896
   55POPC   C1B 4987  28.923  27.424   8.765
   55POPC   C2B 4988  29.046  27.379   8.289
   55POPC   C3B 4989  29.105  27.293   7.803
   55POPC   C4B 4990  28.864  27.169   7.404
   56POPC   NC3 4991  20.522  26.800   9.810
   56POPC   PO4 4992  21.049  27.044   9.857
   56POPC   GL1 4993  20.868  26.910   9.419
   56POPC   GL2 4994  20.672  26.582   9.351
   56POPC   C1A 4995  20.520  26.998   9.072
   56POPC   D2A 4996  20.428  26.935   8.603
   56POPC   C3A 4997  20.761  27.001   8.274
   56POPC   C4A 4998  20.737  26.995   7.796
   56POPC   C1B 4999  20.514  26.508   8.903
   56POPC   C2B 5000  20.389  26.428   8.477
   56POPC   C3B 5001  20.434  26.650   8.112
   56POPC   C4B 5002  20.550  26.525   7.716
   57POPC   NC3 5003  15.797   3.101   9.555
   57POPC   PO4 5004  16.133   2.584   9.701
   57POPC   GL1 5005  15.954   2.698   9.228
   57POPC   GL2 5006  15.846   2.988   9.076
   57POPC   C1A 5007  16.142   2.743   8.771
   57POPC   D2A 5008  16.013   2.580   8.378
   57POPC   C3A 5009  15.958   2.631   7.950
   57POPC   C4A 5010  15.981   2.798   7.547
   57POPC   C1B 5011  15.675   2.928   8.663
   57POPC   C2B 5012  15.702   2.978   8.212
   57POPC   C3B 5013  15.569   3.021   7.767
   57POPC   C4B 5014  15.577   3.181   7.334
   58POPC   NC3 5015  34.097   4.413   9.564
   58POPC   PO4 5016  33.494   4.244   9.692
   58POPC   GL1 5017  33.692   4.204   9.254
   58POPC   GL2 5018  33.822   4.505   9.130
   58POPC   C1A 5019  33.889   4.138   8.806
   58POPC   D2A 5020  33.892   4.228   8.351
   58POPC   C3A 5021  33.628   4.374   8.032
   58POPC   C4A 5022  33.406   4.149   7.721
   58POPC   C1B 5023  34.135   4.606   8.771
   58POPC   C2B 5024  34.307   4.519   8.346
   58POPC   C3B 5025  34.113   4.595   7.922
   58POPC   C4B 5026  33.938   4.336   7.612
   59POPC   NC3 5027  15.164  26.497   9.592
   59POPC   PO4 5028  14.955  25.909   9.497
   59POPC   GL1 5029  15.107  26.132   9.141
   59POPC   GL2 5030  14.963  26.453   9.112
   59POPC   C1A 5031  14.974  26.095   8.708
   59POPC   D2A 5032  15.225  25.931   8.381
   59POPC   C3A 5033  15.184  26.004   7.979
   59POPC   C4A 5034  15.463  25.841   7.677
   59POPC   C1B 5035  15.295  26.482   8.758
   59POPC   C2B 5036  15.495  26.396   8.327
   59POPC   C3B 5037  15.565  26.324   7.894
   59POPC   C4B 5038  15.175  26.441   7.743
   60POPC   NC3 5039  24.770  38.195   9.626
   60POPC   PO4 5040  24.125  38.250   9.740
   60POPC   GL1 5041  24.242  38.202   9.268
   60POPC   GL2 5042  24.588  38.354   9.167
   60POPC   C1A 5043  24.184  38.413   8.846
   60POPC   D2A 5044  24.215  38.407   8.381
   60POPC   C3A 5045  24.480  38.661   8.124
   60POPC   C4A 5046  24.642  38.687   7.719
   60POPC   C1B 5047  24.616  38.121   8.759
   60POPC   C2B 5048  24.599  38.002   8.316
   60POPC   C3B 5049  24.495  38.172   7.913
   60POPC   C4B 5050  24.760  38.200   7.527
   61POPC   NC3 5051  28.158   7.766   9.908
   61POPC   PO4 5052  28.264   7.187   9.742
   61POPC   GL1 5053  28.122   7.377   9.328
   61POPC   GL2 5054  28.056   7.744   9.396
   61POPC   C1A 5055  28.335   7.416   8.895
   61POPC   D2A 5056  28.355   7.536   8.437
   61POPC   C3A 5057  28.425   7.226   8.087
   61POPC   C4A 5058  28.395   7.407   7.669
   61POPC   C1B 5059  28.055   7.849   8.951
   61POPC   C2B 5060  27.915   7.785   8.519
   61POPC   C3B 5061  27.901   7.898   8.082
   61POPC   C4B 5062  28.006   7.734   7.675
   62POPC   NC3 5063  30.925   1.794   9.574
   62POPC   PO4 5064  30.833   2.473   9.631
   62POPC   GL1 5065  30.699   2.111   9.200
   62POPC   GL2 5066  30.706   1.709   9.131
   62POPC   C1A 5067  30.577   2.050   8.771
   62POPC   D2A 5068  30.390   2.082   8.363
   62POPC   C3A 5069  30.513   2.219   7.938
   62POPC   C4A 5070  30.973   2.143   7.836
   62POPC   C1B 5071  30.897   1.633   8.731
   62POPC   C2B 5072  30.887   1.845   8.356
   62POPC   C3B 5073  30.644   1.747   8.035
   62POPC   C4B 5074  30.672   1.814   7.602
   63POPC   NC3 5075  38.592  30.562   9.522
   63POPC   PO4 5076  38.005  30.887   9.696
   63POPC   GL1 5077  38.174  30.755   9.269
   63POPC   GL2 5078  38.247  30.349   9.216
   63POPC   C1A 5079  38.436  30.905   8.868
   63POPC   D2A 5080  38.705  31.067   8.491
   63POPC   C3A 5081  38.571  30.913   8.092
   63POPC   C4A 5082  38.497  30.874   7.672
   63POPC   C1B 5083  38.591  30.428   8.888
   63POPC   C2B 5084  38.602  30.557   8.454
   63POPC   C3B 5085  38.659  30.393   8.021
   63POPC   C4B 5086  38.630  30.391   7.552
   64POPC   NC3 5087   9.650  32.732   9.584
   64POPC   PO4 5088  10.154  33.118   9.552
   64POPC   GL1 5089   9.945  32.913   9.196
   64POPC   GL2 5090   9.583  32.983   9.128
   64POPC   C1A 5091   9.954  32.904   8.749
   64POPC   D2A 5092   9.738  33.000   8.342
   64POPC   C3A 5093   9.926  32.864   7.957
   64POPC   C4A 5094   9.982  33.226   7.712
   64POPC   C1B 5095   9.431  32.816   8.704
   64POPC   C2B 5096   9.437  32.596   8.257
   64POPC   C3B 5097   9.413  32.856   7.870
   64POPC   C4B 5098   9.489  33.170   7.524
   65POPC   NC3 5099   8.077   4.445   9.853
   65POPC   PO4 5100   8.047   4.025   9.340
   65POPC   GL1 5101   8.206   4.178   9.023
   65POPC   GL2 5102   8.239   4.494   9.176
   65POPC   C1A 5103   8.232   4.193   8.602
   65POPC   D2A 5104   8.102   4.464   8.313
   65POPC   C3A 5105   8.139   4.232   7.971
   65POPC   C4A 5106   8.077   3.928   7.706
   65POPC   C1B 5107   8.259   4.684   8.767
   65POPC   C2B 5108   8.409   4.857   8.376
   65POPC   C3B 5109   8.412   4.699   7.985
   65POPC   C4B 5110   8.071   4.659   7.722
   66POPC   NC3 5111   9.381   8.953   9.498
   66POPC   PO4 5112  10.009   9.055   9.568
   66POPC   GL1 5113   9.816   8.903   9.172
   66POPC   GL2 5114   9.464   8.980   9.011
   66POPC   C1A 5115   9.901   9.073   8.763
   66POPC   D2A 5116   9.635   9.097   8.436
   66POPC   C3A 5117   9.752   8.865   8.108
   66POPC   C4A 5118   9.943   8.765   7.725
   66POPC   C1B 5119   9.337   9.362   8.804
   66POPC   C2B 5120   9.299   9.495   8.350
   66POPC   C3B 5121   9.559   9.353   7.998
   66POPC   C4B 5122   9.535   9.073   7.666
   67POPC   NC3 5123  32.366  17.747   9.384
   67POPC   PO4 5124  31.968  17.216   9.589
   67POPC   GL1 5125  32.066  17.333   9.164
   67POPC   GL2 5126  31.945  17.650   9.114
   67POPC   C1A 5127  32.275  17.289   8.727
   67POPC   D2A 5128  32.367  17.627   8.397
   67POPC   C3A 5129  32.495  17.538   7.961
   67POPC   C4A 5130  32.368  17.773   7.625
   67POPC   C1B 5131  31.929  17.646   8.717
   67POPC   C2B 5132  31.836  17.455   8.348
   67POPC   C3B 5133  31.958  17.599   7.955
   67POPC   C4B 5134  31.887  17.917   7.675
   68POPC   NC3 5135  13.126  25.071   9.506
   68POPC   PO4 5136  12.608  25.512   9.408
   68POPC   GL1 5137  12.895  25.450   9.081
   68POPC   GL2 5138  13.105  25.159   9.021
   68POPC   C1A 5139  12.740  25.280   8.686
   68POPC   D2A 5140  12.792  25.140   8.294
   68POPC   C3A 5141  12.886  25.334   7.929
   68POPC   C4A 5142  12.698  25.271   7.544
   68POPC   C1B 5143  13.026  24.856   8.682
   68POPC   C2B 5144  13.175  24.793   8.279
   68POPC   C3B 5145  12.951  24.821   7.903
   68POPC   C4B 5146  12.980  24.868   7.475
   69POPC   NC3 5147  22.980   6.262   9.365
   69POPC   PO4 5148  23.230   6.814   9.466
   69POPC   GL1 5149  22.900   6.737   9.133
   69POPC   GL2 5150  23.184   6.577   8.991
   69POPC   C1A 5151  22.756   6.483   8.752
   69POPC   D2A 5152  22.924   6.235   8.406
   69POPC   C3A 5153  22.777   6.294   7.985
   69POPC   C4A 5154  22.748   6.725   7.799
   69POPC   C1B 5155  23.154   6.944   8.731
   69POPC   C2B 5156  23.282   6.848   8.313
   69POPC   C3B 5157  23.200   6.970   7.892
   69POPC   C4B 5158  23.110   6.958   7.412
   70POPC   NC3 5159   1.585   6.472   9.486
   70POPC   PO4 5160   0.990   6.860   9.403
   70POPC   GL1 5161   1.299   6.729   9.122
   70POPC   GL2 5162   1.177   6.394   9.109
   70POPC   C1A 5163   1.405   6.953   8.742
   70POPC   D2A 5164   1.218   6.901   8.277
   70POPC   C3A 5165   1.423   6.660   7.906
   70POPC   C4A 5166   1.472   6.812   7.370
   70POPC   C1B 5167   1.115   6.549   8.676
   70POPC   C2B 5168   0.901   6.422   8.292
   70POPC   C3B 5169   0.807   6.678   7.951
   70POPC   C4B 5170   1.033   6.684   7.586
   71POPC   NC3 5171  17.190  16.571   9.410
   71POPC   PO4 5172  16.560  16.730   9.534
   71POPC   GL1 5173  16.832  16.893   9.240
   71POPC   GL2 5174  16.815  16.579   9.043
   71POPC   C1A 5175  16.780  17.042   8.831
   71POPC   D2A 5176  16.786  16.858   8.401
   71POPC   C3A 5177  16.772  17.080   8.005
   71POPC   C4A 5178  16.587  17.102   7.595
   71POPC   C1B 5179  16.411  16.448   8.822
   71POPC   C2B 5180  16.388  16.200   8.440
   71POPC   C3B 5181  16.616  16.243   8.066
   71POPC   C4B 5182  16.580  16.636   7.848
   72POPC   NC3 5183  25.516  34.968   9.870
   72POPC   PO4 5184  25.374  35.567   9.561
   72POPC   GL1 5185  25.312  35.625   9.150
   72POPC   GL2 5186  25.156  35.337   8.964
   72POPC   C1A 5187  25.445  35.702   8.745
   72POPC   D2A 5188  25.238  35.501   8.395
   72POPC   C3A 5189  25.443  35.619   7.985
   72POPC   C4A 5190  25.519  35.337   7.645
   72POPC   C1B 5191  25.323  34.979   8.738
   72POPC   C2B 5192  25.389  35.033   8.284
   72POPC   C3B 5193  25.134  35.216   7.947
   72POPC   C4B 5194  25.195  34.941   7.566
   73POPC   NC3 5195  13.800   9.296   9.403
   73POPC   PO4 5196  13.221   9.098   9.402
   73POPC   GL1 5197  13.379   8.858   9.074
   73POPC   GL2 5198  13.669   9.030   8.978
   73POPC   C1A 5199  13.440   8.718   8.640
   73POPC   D2A 5200  13.816   8.740   8.379
   73POPC   C3A 5201  13.841   9.079   8.080
   73POPC   C4A 5202  13.582   9.003   7.745
   73POPC   C1B 5203  13.680   9.210   8.565
   73POPC   C2B 5204  13.539   9.476   8.223
   73POPC   C3B 5205  13.624   9.503   7.800
   73POPC   C4B 5206  13.810   9.787   7.488
   74POPC   NC3 5207  13.726  36.463   9.571
   74POPC   PO4 5208  13.317  36.922   9.457
   74POPC   GL1 5209  13.444  36.639   9.166
   74POPC   GL2 5210  13.813  36.620   9.100
   74POPC   C1A 5211  13.455  36.647   8.737
   74POPC   D2A 5212  13.517  36.981   8.472
   74POPC   C3A 5213  13.366  36.802   8.107
   74POPC   C4A 5214  13.399  36.854   7.698
   74POPC   C1B 5215  13.974  36.724   8.710
   74POPC   C2B 5216  13.875  36.695   8.273
   74POPC   C3B 5217  13.798  37.063   8.020
   74POPC   C4B 5218  13.905  36.968   7.632
   75POPC   NC3 5219  38.839  21.753   9.629
   75POPC   PO4 5220  39.192  21.210   9.630
   75POPC   GL1 5221  39.213  21.516   9.296
   75POPC   GL2 5222  39.253  21.217   9.114
   75POPC   C1A 5223  39.367  21.605   8.829
   75POPC   D2A 5224  39.377  21.325   8.459
   75POPC   C3A 5225  39.292  21.545   8.092
   75POPC   C4A 5226  39.127  21.635   7.680
   75POPC   C1B 5227  38.942  21.007   8.888
   75POPC   C2B 5228  39.085  20.897   8.514
   75POPC   C3B 5229  39.032  21.104   8.120
   75POPC   C4B 5230  39.294  21.129   7.772
   76POPC   NC3 5231   5.426   5.865   9.558
   76POPC   PO4 5232   6.063   5.999   9.410
   76POPC   GL1 5233   5.706   6.030   9.099
   76POPC   GL2 5234   5.484   5.777   9.075
   76POPC   C1A 5235   5.771   6.146   8.681
   76POPC   D2A 5236   6.092   6.046   8.390
   76POPC   C3A 5237   5.851   6.135   8.017
   76POPC   C4A 5238   6.090   6.137   7.660
   76POPC   C1B 5239   5.566   5.672   8.679
   76POPC   C2B 5240   5.773   5.678   8.274
   76POPC   C3B 5241   6.088   5.688   7.932
   76POPC   C4B 5242   5.984   5.684   7.480
   77POPC   NC3 5243   5.651  21.861   9.503
   77POPC   PO4 5244   6.243  22.143   9.449
   77POPC   GL1 5245   5.879  22.260   9.202
   77POPC   GL2 5246   5.736  21.975   9.030
   77POPC   C1A 5247   5.926  22.418   8.788
   77POPC   D2A 5248   6.181  22.388   8.405
   77POPC   C3A 5249   5.993  22.418   7.982
   77POPC   C4A 5250   5.882  22.256   7.542
   77POPC   C1B 5251   5.803  21.945   8.621
   77POPC   C2B 5252   5.839  22.012   8.218
   77POPC   C3B 5253   5.784  21.853   7.822
   77POPC   C4B 5254   5.790  21.795   7.348
   78POPC   NC3 5255   8.779  20.916   9.402
   78POPC   PO4 5256   9.264  20.478   9.579
   78POPC   GL1 5257   9.201  20.458   9.140
   78POPC   GL2 5258   9.095  20.789   9.048
   78POPC   C1A 5259   8.983  20.433   8.715
   78POPC   D2A 5260   8.788  20.375   8.326
   78POPC   C3A 5261   9.003  20.343   7.929
   78POPC   C4A 5262   8.929  20.306   7.492
   78POPC   C1B 5263   8.843  21.038   8.754
   78POPC   C2B 5264   8.823  20.999   8.330
   78POPC   C3B 5265   8.646  20.748   8.037
   78POPC   C4B 5266   8.668  20.714   7.649
   79POPC   NC3 5267  28.083  42.595   9.564
   79POPC   PO4 5268  27.470  42.204   9.365
   79POPC   GL1 5269  27.859  42.252   9.176
   79POPC   GL2 5270  27.769  42.575   9.174
   79POPC   C1A 5271  27.848  42.079   8.759
   79POPC   D2A 5272  27.665  42.128   8.350
   79POPC   C3A 5273  27.944  42.211   7.989
   79POPC   C4A 5274  27.749  42.280   7.594
   79POPC   C1B 5275  27.561  42.518   8.802
   79POPC   C2B 5276  27.392  42.626   8.444
   79POPC   C3B 5277  27.578  42.561   8.063
   79POPC   C4B 5278  27.428  42.663   7.698
   80POPC   NC3 5279  44.225  15.351   9.591
   80POPC   PO4 5280  43.550  15.156   9.549
   80POPC   GL1 5281  43.805  15.432   9.280
   80POPC   GL2 5282  44.033  15.150   9.161
   80POPC   C1A 5283  43.751  15.469   8.837
   80POPC   D2A 5284  43.840  15.151   8.523
   80POPC   C3A 5285  43.729  15.250   8.094
   80POPC   C4A 5286  43.762  15.262   7.663
   80POPC   C1B 5287  44.258  15.330   8.810
   80POPC   C2B 5288  44.344  15.192   8.377
   80POPC   C3B 5289  44.231  15.273   7.921
   80POPC   C4B 5290  44.161  14.967   7.563
   81POPC   NC3 5291   3.381   4.099   9.364
   81POPC   PO4 5292   3.956   4.556   9.421
   81POPC   GL1 5293   3.611   4.527   9.172
   81POPC   GL2 5294   3.777   4.231   9.060
   81POPC   C1A 5295   3.351   4.482   8.806
   81POPC   D2A 5296   3.468   4.573   8.363
   81POPC   C3A 5297   3.349   4.270   8.034
   81POPC   C4A 5298   3.165   4.448   7.667
   81POPC   C1B 5299   3.845   4.406   8.675
   81POPC   C2B 5300   3.894   4.224   8.274
   81POPC   C3B 5301   3.944   4.320   7.860
   81POPC   C4B 5302   3.650   4.319   7.544
   82POPC   NC3 5303  10.838   7.656   9.459
   82POPC   PO4 5304  11.381   7.326   9.457
   82POPC   GL1 5305  11.340   7.349   9.068
   82POPC   GL2 5306  10.975   7.294   9.090
   82POPC   C1A 5307  11.338   7.176   8.668
   82POPC   D2A 5308  11.168   7.079   8.256
   82POPC   C3A 5309  11.421   7.293   7.971
   82POPC   C4A 5310  11.623   7.732   7.865
   82POPC   C1B 5311  11.058   7.691   8.836
   82POPC   C2B 5312  11.132   7.580   8.417
   82POPC   C3B 5313  11.134   7.779   8.043
   82POPC   C4B 5314  11.184   7.620   7.666
   83POPC   NC3 5315  16.144  34.313   9.655
   83POPC   PO4 5316  15.559  34.601   9.663
   83POPC   GL1 5317  15.666  34.482   9.274
   83POPC   GL2 5318  15.778  34.815   9.184
   83POPC   C1A 5319  15.833  34.381   8.886
   83POPC   D2A 5320  15.737  34.323   8.452
   83POPC   C3A 5321  16.046  34.477   8.121
   83POPC   C4A 5322  16.087  34.692   7.716
   83POPC   C1B 5323  15.561  34.856   8.791
   83POPC   C2B 5324  15.680  34.935   8.348
   83POPC   C3B 5325  15.596  34.892   7.891
   83POPC   C4B 5326  15.626  34.656   7.482
   84POPC   NC3 5327  26.633  21.101   9.468
   84POPC   PO4 5328  27.041  21.574   9.327
   84POPC   GL1 5329  26.836  21.324   9.062
   84POPC   GL2 5330  26.599  21.532   8.910
   84POPC   C1A 5331  26.714  21.064   8.749
   84POPC   D2A 5332  26.721  21.349   8.419
   84POPC   C3A 5333  26.585  21.202   8.080
   84POPC   C4A 5334  26.681  21.142   7.707
   84POPC   C1B 5335  26.976  21.696   8.688
   84POPC   C2B 5336  27.232  21.564   8.333
   84POPC   C3B 5337  26.992  21.530   7.971
   84POPC   C4B 5338  26.755  21.905   7.901
   85POPC   NC3 5339  41.288   9.329   9.560
   85POPC   PO4 5340  41.641   8.883   9.254
   85POPC   GL1 5341  41.423   9.102   9.014
   85POPC   GL2 5342  41.219   8.844   8.934
   85POPC   C1A 5343  41.512   9.136   8.579
   85POPC   D2A 5344  41.811   8.948   8.298
   85POPC   C3A 5345  41.693   8.950   7.889
   85POPC   C4A 5346  41.439   9.233   7.663
   85POPC   C1B 5347  41.480   8.593   8.679
   85POPC   C2B 5348  41.424   8.603   8.260
   85POPC   C3B 5349  41.206   8.870   8.011
   85POPC   C4B 5350  41.274   8.753   7.632
   86POPC   NC3 5351  41.643  25.128   9.535
   86POPC   PO4 5352  41.643  25.728   9.252
   86POPC   GL1 5353  41.536  25.327   9.074
   86POPC   GL2 5354  41.860  25.118   9.084
   86POPC   C1A 5355  41.414  25.148   8.663
   86POPC   D2A 5356  41.264  25.323   8.266
   86POPC   C3A 5357  41.248  25.075   7.887
   86POPC   C4A 5358  41.400  24.850   7.516
   86POPC   C1B 5359  41.902  25.344   8.712
   86POPC   C2B 5360  41.832  25.169   8.324
   86POPC   C3B 5361  41.688  25.375   7.977
   86POPC   C4B 5362  41.862  25.755   7.887
   87POPC   NC3 5363  37.085  21.801   9.418
   87POPC   PO4 5364  36.912  22.514   9.477
   87POPC   GL1 5365  37.001  22.377   9.092
   87POPC   GL2 5366  36.827  22.068   9.077
   87POPC   C1A 5367  37.228  22.209   8.758
   87POPC   D2A 5368  36.999  22.148   8.394
   87POPC   C3A 5369  37.118  22.306   7.999
   87POPC   C4A 5370  36.781  22.304   7.732
   87POPC   C1B 5371  36.629  21.958   8.712
   87POPC   C2B 5372  36.499  22.001   8.266
   87POPC   C3B 5373  36.583  21.860   7.842
   87POPC   C4B 5374  36.383  21.596   7.526
   88POPC   NC3 5375  22.929  31.094   9.611
   88POPC   PO4 5376  23.332  30.504   9.470
   88POPC   GL1 5377  23.053  30.611   9.122
   88POPC   GL2 5378  22.792  30.863   9.179
   88POPC   C1A 5379  23.001  30.759   8.712
   88POPC   D2A 5380  22.762  30.668   8.373
   88POPC   C3A 5381  22.990  30.736   8.011
   88POPC   C4A 5382  23.048  30.379   7.813
   88POPC   C1B 5383  22.515  30.839   8.813
   88POPC   C2B 5384  22.429  31.058   8.453
   88POPC   C3B 5385  22.474  30.913   8.012
   88POPC   C4B 5386  22.694  30.859   7.594
   89POPC   NC3 5387   6.093  26.136   9.657
   89POPC   PO4 5388   5.617  25.727   9.304
   89POPC   GL1 5389   5.818  25.990   9.028
   89POPC   GL2 5390   5.872  26.295   9.174
   89POPC   C1A 5391   5.795  25.891   8.643
   89POPC   D2A 5392   5.413  25.937   8.411
   89POPC   C3A 5393   5.560  25.976   8.004
   89POPC   C4A 5394   5.885  25.739   7.851
   89POPC   C1B 5395   6.083  26.337   8.753
   89POPC   C2B 5396   6.133  26.141   8.353
   89POPC   C3B 5397   6.160  26.205   7.949
   89POPC   C4B 5398   6.224  26.454   7.616
   90POPC   NC3 5399  35.312   3.289   9.459
   90POPC   PO4 5400  35.117   3.935   9.537
   90POPC   GL1 5401  35.195   3.683   9.149
   90POPC   GL2 5402  35.564   3.560   9.095
   90POPC   C1A 5403  35.239   3.536   8.711
   90POPC   D2A 5404  35.349   3.450   8.299
   90POPC   C3A 5405  35.019   3.435   8.001
   90POPC   C4A 5406  34.994   3.333   7.592
   90POPC   C1B 5407  35.715   3.278   8.751
   90POPC   C2B 5408  35.922   3.329   8.363
   90POPC   C3B 5409  35.727   3.328   7.979
   90POPC   C4B 5410  35.455   3.520   7.725
   91POPC   NC3 5411   4.279  11.215   9.775
   91POPC   PO4 5412   4.337  10.512   9.557
   91POPC   GL1 5413   4.229  10.487   9.143
   91POPC   GL2 5414   4.193  10.865   9.180
   91POPC   C1A 5415   4.326  10.612   8.725
   91POPC   D2A 5416   4.409  10.938   8.436
   91POPC   C3A 5417   4.369  10.745   8.028
   91POPC   C4A 5418   4.350  10.368   7.753
   91POPC   C1B 5419   4.047  11.055   8.819
   91POPC   C2B 5420   3.902  10.794   8.506
   91POPC   C3B 5421   3.858  10.833   8.101
   91POPC   C4B 5422   3.947  10.666   7.731
   92POPC   NC3 5423   9.893  24.809   9.309
   92POPC   PO4 5424  10.290  24.376   9.553
   92POPC   GL1 5425  10.116  24.397   9.141
   92POPC   GL2 5426  10.238  24.687   8.913
   92POPC   C1A 5427   9.877  24.339   8.758
   92POPC   D2A 5428  10.008  24.495   8.321
   92POPC   C3A 5429  10.033  24.204   8.015
   92POPC   C4A 5430   9.679  23.955   7.884
   92POPC   C1B 5431   9.863  24.835   8.663
   92POPC   C2B 5432   9.526  24.596   8.497
   92POPC   C3B 5433   9.472  24.392   8.101
   92POPC   C4B 5434   9.685  24.442   7.704
   93POPC   NC3 5435  40.469  35.290   9.455
   93POPC   PO4 5436  41.145  35.249   9.398
   93POPC   GL1 5437  40.865  35.447   9.081
   93POPC   GL2 5438  40.488  35.454   8.982
   93POPC   C1A 5439  40.878  35.416   8.624
   93POPC   D2A 5440  40.731  35.344   8.190
   93POPC   C3A 5441  40.994  35.383   7.825
   93POPC   C4A 5442  40.952  35.649   7.486
   93POPC   C1B 5443  40.459  35.709   8.628
   93POPC   C2B 5444  40.392  35.757   8.230
   93POPC   C3B 5445  40.583  35.719   7.839
   93POPC   C4B 5446  40.422  35.517   7.485
   94POPC   NC3 5447  21.661  11.524   9.256
   94POPC   PO4 5448  22.260  11.362   9.618
   94POPC   GL1 5449  22.259  11.466   9.171
   94POPC   GL2 5450  22.550  11.650   9.040
   94POPC   C1A 5451  22.060  11.312   8.778
   94POPC   D2A 5452  22.062  11.493   8.377
   94POPC   C3A 5453  22.187  11.268   8.049
   94POPC   C4A 5454  22.015  11.484   7.713
   94POPC   C1B 5455  22.468  11.597   8.669
   94POPC   C2B 5456  22.604  11.428   8.317
   94POPC   C3B 5457  22.471  11.703   8.009
   94POPC   C4B 5458  22.537  11.545   7.656
   95POPC   NC3 5459   5.906  14.284   9.607
   95POPC   PO4 5460   5.347  14.204   9.266
   95POPC   GL1 5461   5.685  14.397   9.049
   95POPC   GL2 5462   5.992  14.463   9.134
   95POPC   C1A 5463   5.812  14.307   8.671
   95POPC   D2A 5464   5.605  14.412   8.330
   95POPC   C3A 5465   5.558  14.308   7.913
   95POPC   C4A 5466   5.667  14.508   7.559
   95POPC   C1B 5467   6.149  14.729   8.837
   95POPC   C2B 5468   6.232  14.741   8.410
   95POPC   C3B 5469   6.006  14.553   8.045
   95POPC   C4B 5470   6.169  14.497   7.682
   96POPC   NC3 5471  11.793  30.539   9.627
   96POPC   PO4 5472  12.389  30.792   9.464
   96POPC   GL1 5473  12.157  30.915   9.140
   96POPC   GL2 5474  11.861  30.735   9.131
   96POPC   C1A 5475  12.139  30.907   8.709
   96POPC   D2A 5476  11.930  30.765   8.386
   96POPC   C3A 5477  12.154  30.851   8.059
   96POPC   C4A 5478  12.134  30.714   7.668
   96POPC   C1B 5479  11.928  30.436   8.782
   96POPC   C2B 5480  12.067  30.284   8.393
   96POPC   C3B 5481  11.912  30.310   7.946
   96POPC   C4B 5482  12.138  30.219   7.532
   97POPC   NC3 5483   9.301  18.534   9.497
   97POPC   PO4 5484   9.703  17.983   9.580
   97POPC   GL1 5485   9.581  18.195   9.141
   97POPC   GL2 5486   9.885  18.397   9.050
   97POPC   C1A 5487   9.573  18.360   8.645
   97POPC   D2A 5488   9.568  18.417   8.161
   97POPC   C3A 5489   9.708  18.043   7.865
   97POPC   C4A 5490   9.748  17.841   7.392
   97POPC   C1B 5491  10.095  18.334   8.620
   97POPC   C2B 5492  10.083  18.456   8.172
   97POPC   C3B 5493   9.856  18.622   7.806
   97POPC   C4B 5494   9.750  18.346   7.465
   98POPC   NC3 5495  30.403  40.241   9.464
   98POPC   PO4 5496  30.984  39.859   9.655
   98POPC   GL1 5497  30.794  39.949   9.281
   98POPC   GL2 5498  30.514  39.757   9.340
   98POPC   C1A 5499  30.787  40.015   8.831
   98POPC   D2A 5500  30.880  40.303   8.503
   98POPC   C3A 5501  30.696  40.207   8.124
   98POPC   C4A 5502  30.305  40.247   7.934
   98POPC   C1B 5503  30.400  39.700   8.917
   98POPC   C2B 5504  30.557  39.613   8.496
   98POPC   C3B 5505  30.496  39.726   8.059
   98POPC   C4B 5506  30.873  39.685   7.814
   99POPC   NC3 5507   4.826  10.534   9.598
   99POPC   PO4 5508   5.432  10.385   9.793
   99POPC   GL1 5509   5.246  10.393   9.305
   99POPC   GL2 5510   4.914  10.356   9.125
   99POPC   C1A 5511   5.314  10.431   8.820
   99POPC   D2A 5512   5.245  10.789   8.535
   99POPC   C3A 5513   5.252  10.772   8.103
   99POPC   C4A 5514   5.348  10.404   7.946
   99POPC   C1B 5515   4.824  10.640   8.801
   99POPC   C2B 5516   4.804  10.648   8.336
   99POPC   C3B 5517   4.809  10.393   7.964
   99POPC   C4B 5518   4.948  10.127   7.620
  100POPC   NC3 5519  17.143   2.159   9.510
  100POPC   PO4 5520  17.816   2.244   9.381
  100POPC   GL1 5521  17.676   2.009   9.031
  100POPC   GL2 5522  17.355   2.016   9.087
  100POPC   C1A 5523  17.702   1.870   8.615
  100POPC   D2A 5524  17.671   2.138   8.271
  100POPC   C3A 5525  17.620   2.083   7.849
  100POPC   C4A 5526  17.736   1.709   7.612
  100POPC   C1B 5527  17.198   1.893   8.743
  100POPC   C2B 5528  17.234   1.705   8.391
  100POPC   C3B 5529  17.458   1.664   8.069
  100POPC   C4B 5530  17.209   1.793   7.712
  101POPC   NC3 5531  35.915  17.993   9.846
  101POPC   PO4 5532  36.277  17.577   9.423
  101POPC   GL1 5533  35.937  17.441   9.146
  101POPC   GL2 5534  35.770  17.668   8.931
  101POPC   C1A 5535  35.921  17.233   8.752
  101POPC   D2A 5536  36.065  17.354   8.344
  101POPC   C3A 5537  35.876  17.523   7.975
  101POPC   C4A 5538  36.050  17.513   7.536
  101POPC   C1B 5539  36.233  17.652   8.757
  101POPC   C2B 5540  36.429  17.739   8.343
  101POPC   C3B 5541  36.396  17.697   7.867
  101POPC   C4B 5542  36.327  17.947   7.444
  102POPC   NC3 5543  15.007  32.989   9.647
  102POPC   PO4 5544  15.452  32.485   9.842
  102POPC   GL1 5545  15.395  32.736   9.363
  102POPC   GL2 5546  15.054  32.897   9.164
  102POPC   C1A 5547  15.433  32.787   8.874
  102POPC   D2A 5548  15.556  33.117   8.570
  102POPC   C3A 5549  15.445  33.055   8.145
  102POPC   C4A 5550  15.351  32.884   7.738
  102POPC   C1B 5551  15.071  33.133   8.808
  102POPC   C2B 5552  15.081  32.872   8.459
  102POPC   C3B 5553  14.933  33.010   8.055
  102POPC   C4B 5554  14.984  33.295   7.708
  103POPC   NC3 5555  44.146  17.972   9.479
  103POPC   PO4 5556  44.001  18.632   9.500
  103POPC   GL1 5557  44.094  18.363   9.147
  103POPC   GL2 5558  43.784  18.168   9.124
  103POPC   C1A 5559  44.078  18.181   8.736
  103POPC   D2A 5560  43.896  18.356   8.391
  103POPC   C3A 5561  44.024  18.124   8.051
  103POPC   C4A 5562  43.972  18.210   7.634
  103POPC   C1B 5563  43.588  17.957   8.777
  103POPC   C2B 5564  43.506  18.036   8.321
  103POPC   C3B 5565  43.507  18.172   7.883
  103POPC   C4B 5566  43.501  17.958   7.477
  104POPC   NC3 5567  23.933   8.588   9.442
  104POPC   PO4 5568  23.374   8.384   9.643
  104POPC   GL1 5569  23.446   8.319   9.181
  104POPC   GL2 5570  23.221   8.066   9.146
  104POPC   C1A 5571  23.730   8.370   8.776
  104POPC   D2A 5572  23.998   8.065   8.467
  104POPC   C3A 5573  23.863   8.132   8.002
  104POPC   C4A 5574  23.657   8.552   7.890
  104POPC   C1B 5575  23.367   7.968   8.761
  104POPC   C2B 5576  23.494   8.164   8.391
  104POPC   C3B 5577  23.343   8.075   8.041
  104POPC   C4B 5578  23.462   8.141   7.655
  105POPC   NC3 5579  16.481   5.465   9.400
  105POPC   PO4 5580  16.763   4.788   9.417
  105POPC   GL1 5581  16.717   5.093   9.136
  105POPC   GL2 5582  16.932   5.411   9.136
  105POPC   C1A 5583  16.413   5.131   8.824
  105POPC   D2A 5584  16.305   4.983   8.447
  105POPC   C3A 5585  16.614   5.081   8.108
  105POPC   C4A 5586  16.700   5.180   7.645
  105POPC   C1B 5587  16.916   5.206   8.702
  105POPC   C2B 5588  16.885   5.444   8.335
  105POPC   C3B 5589  17.159   5.388   8.028
  105POPC   C4B 5590  17.192   5.274   7.593
  106POPC   NC3 5591  41.393  34.880   9.552
  106POPC   PO4 5592  42.014  34.691   9.344
  106POPC   GL1 5593  41.590  34.580   9.202
  106POPC   GL2 5594  41.549  34.231   9.244
  106POPC   C1A 5595  41.356  34.520   8.816
  106POPC   D2A 5596  41.499  34.690   8.403
  106POPC   C3A 5597  41.356  34.601   7.966
  106POPC   C4A 5598  41.136  34.909   7.681
  106POPC   C1B 5599  41.803  34.263   8.872
  106POPC   C2B 5600  41.942  34.467   8.561
  106POPC   C3B 5601  41.871  34.440   8.126
  106POPC   C4B 5602  41.746  34.330   7.723
  107POPC   NC3 5603  43.489   9.622   9.746
  107POPC   PO4 5604  42.843   9.750   9.577
  107POPC   GL1 5605  42.769   9.866   9.201
  107POPC   GL2 5606  43.046  10.087   9.155
  107POPC   C1A 5607  42.709   9.766   8.800
  107POPC   D2A 5608  42.923   9.907   8.434
  107POPC   C3A 5609  42.768   9.895   8.044
  107POPC   C4A 5610  42.926  10.040   7.669
  107POPC   C1B 5611  43.227   9.793   8.821
  107POPC   C2B 5612  43.412   9.773   8.389
  107POPC   C3B 5613  43.314   9.817   7.958
  107POPC   C4B 5614  43.296   9.707   7.550
  108POPC   NC3 5615  39.001   7.038   9.466
  108POPC   PO4 5616  39.479   7.498   9.478
  108POPC   GL1 5617  39.435   7.236   9.097
  108POPC   GL2 5618  39.081   7.315   9.040
  108POPC   C1A 5619  39.521   7.346   8.639
  108POPC   D2A 5620  39.677   7.652   8.319
  108POPC   C3A 5621  39.332   7.683   8.061
  108POPC   C4A 5622  39.361   7.468   7.683
  108POPC   C1B 5623  39.001   7.205   8.625
  108POPC   C2B 5624  38.936   7.354   8.214
  108POPC   C3B 5625  38.957   7.108   7.849
  108POPC   C4B 5626  38.905   7.204   7.418
  109POPC   NC3 5627  26.855  32.554   9.859
  109POPC   PO4 5628  27.070  32.043   9.615
  109POPC   GL1 5629  26.817  32.268   9.291
  109POPC   GL2 5630  26.968  32.058   9.028
  109POPC   C1A 5631  26.608  32.382   8.880
  109POPC   D2A 5632  26.512  32.272   8.450
  109POPC   C3A 5633  26.680  32.202   8.014
  109POPC   C4A 5634  26.875  32.169   7.576
  109POPC   C1B 5635  27.052  32.320   8.633
  109POPC   C2B 5636  27.147  32.350   8.187
  109POPC   C3B 5637  27.339  32.239   7.781
  109POPC   C4B 5638  27.436  32.136   7.330
  110POPC   NC3 5639  24.398  20.886   9.480
  110POPC   PO4 5640  24.186  20.299   9.411
  110POPC   GL1 5641  24.461  20.534   9.066
  110POPC   GL2 5642  24.654  20.872   9.022
  110POPC   C1A 5643  24.506  20.432   8.642
  110POPC   D2A 5644  24.543  20.119   8.326
  110POPC   C3A 5645  24.377  20.309   7.956
  110POPC   C4A 5646  24.480  20.478   7.520
  110POPC   C1B 5647  24.430  20.953   8.659
  110POPC   C2B 5648  24.511  20.776   8.244
  110POPC   C3B 5649  24.306  20.818   7.859
  110POPC   C4B 5650  24.628  20.988   7.588
  111POPC   NC3 5651  41.523   1.091   9.536
  111POPC   PO4 5652  41.629   1.777   9.434
  111POPC   GL1 5653  41.531   1.466   9.140
  111POPC   GL2 5654  41.781   1.210   9.128
  111POPC   C1A 5655  41.484   1.320   8.713
  111POPC   D2A 5656  41.650   1.101   8.361
  111POPC   C3A 5657  41.513   1.224   7.959
  111POPC   C4A 5658  41.465   1.648   7.803
  111POPC   C1B 5659  41.974   1.055   8.774
  111POPC   C2B 5660  41.996   0.727   8.468
  111POPC   C3B 5661  41.881   0.785   8.009
  111POPC   C4B 5662  41.900   1.087   7.674
  112POPC   NC3 5663  18.361  18.467   9.532
  112POPC   PO4 5664  17.881  18.158   9.836
  112POPC   GL1 5665  18.089  18.056   9.358
  112POPC   GL2 5666  18.449  17.937   9.320
  112POPC   C1A 5667  18.208  18.267   8.921
  112POPC   D2A 5668  18.416  18.491   8.640
  112POPC   C3A 5669  18.246  18.480   8.244
  112POPC   C4A 5670  18.476  18.490   7.850
  112POPC   C1B 5671  18.270  17.787   8.921
  112POPC   C2B 5672  18.206  17.964   8.499
  112POPC   C3B 5673  18.311  18.014   8.068
  112POPC   C4B 5674  18.168  18.154   7.645
  113POPC   NC3 5675  14.572  13.197   9.301
  113POPC   PO4 5676  14.179  12.655   9.368
  113POPC   GL1 5677  14.347  12.803   9.032
  113POPC   GL2 5678  14.662  12.741   9.115
  113POPC   C1A 5679  14.366  12.959   8.635
  113POPC   D2A 5680  14.132  12.834   8.258
  113POPC   C3A 5681  14.317  13.010   7.905
  113POPC   C4A 5682  14.440  12.927   7.479
  113POPC   C1B 5683  14.641  12.530   8.729
  113POPC   C2B 5684  14.636  12.697   8.312
  113POPC   C3B 5685  14.612  12.595   7.894
  113POPC   C4B 5686  14.827  12.344   7.672
  114POPC   NC3 5687  19.748  17.472   9.969
  114POPC   PO4 5688  20.155  17.749   9.604
  114POPC   GL1 5689  20.008  17.515   9.244
  114POPC   GL2 5690  19.692  17.366   9.159
  114POPC   C1A 5691  20.056  17.447   8.800
  114POPC   D2A 5692  19.823  17.424   8.419
  114POPC   C3A 5693  20.088  17.398   8.067
  114POPC   C4A 5694  20.324  17.511   7.688
  114POPC   C1B 5695  19.511  17.593   8.828
  114POPC   C2B 5696  19.488  17.809   8.431
  114POPC   C3B 5697  19.563  17.655   8.007
  114POPC   C4B 5698  19.812  17.514   7.647
  115POPC   NC3 5699  19.218  15.519   9.534
  115POPC   PO4 5700  18.734  15.040   9.467
  115POPC   GL1 5701  18.822  15.343   9.143
  115POPC   GL2 5702  19.092  15.210   9.108
  115POPC   C1A 5703  18.758  15.285   8.698
  115POPC   D2A 5704  18.950  15.099   8.306
  115POPC   C3A 5705  18.628  15.086   7.979
  115POPC   C4A 5706  18.655  15.326   7.586
  115POPC   C1B 5707  19.287  15.200   8.716
  115POPC   C2B 5708  19.458  14.916   8.407
  115POPC   C3B 5709  19.351  14.805   7.990
  115POPC   C4B 5710  19.100  15.072   7.735
  116POPC   NC3 5711   6.297  44.590   9.608
  116POPC   PO4 5712   5.626  44.685   9.529
  116POPC   GL1 5713   5.739  44.708   9.121
  116POPC   GL2 5714   6.026  44.477   9.163
  116POPC   C1A 5715   6.012  44.820   8.779
  116POPC   D2A 5716   6.192  44.891   8.389
  116POPC   C3A 5717   5.996  44.821   8.003
  116POPC   C4A 5718   5.883   0.073   7.694
  116POPC   C1B 5719   5.853  44.317   8.791
  116POPC   C2B 5720   5.823  44.511   8.395
  116POPC   C3B 5721   5.828  44.315   7.960
  116POPC   C4B 5722   5.862  44.344   7.506
  117POPC   NC3 5723   1.728  15.166   9.515
  117POPC   PO4 5724   2.354  15.403   9.417
  117POPC   GL1 5725   2.056  15.339   9.158
  117POPC   GL2 5726   2.051  14.992   9.103
  117POPC   C1A 5727   1.844  15.315   8.788
  117POPC   D2A 5728   1.705  15.077   8.495
  117POPC   C3A 5729   1.701  15.396   8.196
  117POPC   C4A 5730   1.851  15.307   7.796
  117POPC   C1B 5731   2.261  14.876   8.727
  117POPC   C2B 5732   2.333  14.799   8.319
  117POPC   C3B 5733   1.955  14.853   8.080
  117POPC   C4B 5734   1.943  14.808   7.658
  118POPC   NC3 5735   8.982  22.582   9.339
  118POPC   PO4 5736   8.722  23.309   9.525
  118POPC   GL1 5737   8.967  23.077   9.205
  118POPC   GL2 5738   8.783  22.825   8.969
  118POPC   C1A 5739   9.230  22.960   8.832
  118POPC   D2A 5740   8.981  22.928   8.453
  118POPC   C3A 5741   9.177  22.937   8.053
  118POPC   C4A 5742   9.139  23.213   7.680
  118POPC   C1B 5743   8.828  22.477   8.654
  118POPC   C2B 5744   8.696  22.573   8.226
  118POPC   C3B 5745   8.689  22.808   7.867
  118POPC   C4B 5746   8.974  22.737   7.575
  119POPC   NC3 5747  36.915  37.081   9.524
  119POPC   PO4 5748  36.340  36.640   9.425
  119POPC   GL1 5749  36.779  36.653   9.163
  119POPC   GL2 5750  37.002  36.954   9.055
  119POPC   C1A 5751  36.860  36.639   8.693
  119POPC   D2A 5752  36.570  36.651   8.332
  119POPC   C3A 5753  36.721  36.778   7.949
  119POPC   C4A 5754  37.174  36.828   7.843
  119POPC   C1B 5755  36.798  37.156   8.716
  119POPC   C2B 5756  36.949  37.078   8.321
  119POPC   C3B 5757  36.876  37.249   7.945
  119POPC   C4B 5758  37.076  37.265   7.574
  120POPC   NC3 5759  37.858  21.590   9.751
  120POPC   PO4 5760  37.750  20.951   9.597
  120POPC   GL1 5761  37.879  21.258   9.248
  120POPC   GL2 5762  37.862  21.622   9.197
  120POPC   C1A 5763  37.917  21.298   8.774
  120POPC   D2A 5764  37.874  21.588   8.384
  120POPC   C3A 5765  37.841  21.412   7.960
  120POPC   C4A 5766  37.985  21.162   7.606
  120POPC   C1B 5767  37.583  21.707   8.815
  120POPC   C2B 5768  37.446  21.889   8.389
  120POPC   C3B 5769  37.547  21.821   7.942
  120POPC   C4B 5770  37.390  21.466   7.687
  121POPC   NC3 5771  22.066   0.907   9.644
  121POPC   PO4 5772  22.526   0.365   9.569
  121POPC   GL1 5773  22.309   0.594   9.264
  121POPC   GL2 5774  22.502   0.909   9.304
  121POPC   C1A 5775  22.141   0.461   8.828
  121POPC   D2A 5776  21.820   0.420   8.468
  121POPC   C3A 5777  21.990   0.325   8.048
  121POPC   C4A 5778  22.351   0.281   7.796
  121POPC   C1B 5779  22.522   0.829   8.855
  121POPC   C2B 5780  22.277   0.850   8.465
  121POPC   C3B 5781  22.359   0.745   8.042
  121POPC   C4B 5782  22.586   0.771   7.657
  122POPC   NC3 5783   3.013  24.144   9.429
  122POPC   PO4 5784   3.300  23.558   9.423
  122POPC   GL1 5785   3.037  23.701   9.121
  122POPC   GL2 5786   2.851  23.378   9.098
  122POPC   C1A 5787   2.922  23.948   8.751
  122POPC   D2A 5788   2.849  23.765   8.362
  122POPC   C3A 5789   2.768  23.937   7.989
  122POPC   C4A 5790   3.077  23.998   7.709
  122POPC   C1B 5791   2.626  23.512   8.746
  122POPC   C2B 5792   2.504  23.407   8.343
  122POPC   C3B 5793   2.677  23.429   7.940
  122POPC   C4B 5794   2.720  23.546   7.521
  123POPC   NC3 5795  27.147   6.746   9.435
  123POPC   PO4 5796  27.867   6.641   9.616
  123POPC   GL1 5797  27.766   6.483   9.199
  123POPC   GL2 5798  27.517   6.715   9.061
  123POPC   C1A 5799  27.849   6.451   8.769
  123POPC   D2A 5800  27.653   6.727   8.441
  123POPC   C3A 5801  27.584   6.534   8.010
  123POPC   C4A 5802  27.823   6.608   7.622
  123POPC   C1B 5803  27.402   7.062   8.784
  123POPC   C2B 5804  27.252   7.146   8.367
  123POPC   C3B 5805  27.517   7.054   8.038
  123POPC   C4B 5806  27.480   6.957   7.645
  124POPC   NC3 5807   9.492  29.792   9.537
  124POPC   PO4 5808  10.165  29.835   9.512
  124POPC   GL1 5809   9.909  29.841   9.181
  124POPC   GL2 5810   9.710  30.161   9.225
  124POPC   C1A 5811   9.842  29.707   8.758
  124POPC   D2A 5812   9.577  29.805   8.400
  124POPC   C3A 5813   9.743  29.691   8.016
  124POPC   C4A 5814   9.980  29.779   7.687
  124POPC   C1B 5815   9.944  30.265   8.849
  124POPC   C2B 5816   9.989  30.107   8.439
  124POPC   C3B 5817   9.869  30.203   8.022
  124POPC   C4B 5818  10.089  30.285   7.656
  125POPC   NC3 5819  32.860  43.093   9.604
  125POPC   PO4 5820  33.459  43.373   9.503
  125POPC   GL1 5821  33.247  43.092   9.214
  125POPC   GL2 5822  32.937  43.172   9.124
  125POPC   C1A 5823  33.194  42.800   8.863
  125POPC   D2A 5824  33.465  42.774   8.504
  125POPC   C3A 5825  33.297  42.766   8.091
  125POPC   C4A 5826  33.288  43.089   7.779
  125POPC   C1B 5827  32.715  43.039   8.800
  125POPC   C2B 5828  32.962  42.991   8.445
  125POPC   C3B 5829  32.847  43.013   8.027
  125POPC   C4B 5830  32.793  43.039   7.587
  126POPC   NC3 5831  42.843  14.542   9.151
  126POPC   PO4 5832  43.466  14.319   9.430
  126POPC   GL1 5833  43.411  14.334   9.010
  126POPC   GL2 5834  43.098  14.192   8.905
  126POPC   C1A 5835  43.383  14.673   8.708
  126POPC   D2A 5836  43.535  14.793   8.303
  126POPC   C3A 5837  43.297  14.587   7.999
  126POPC   C4A 5838  43.234  14.766   7.622
  126POPC   C1B 5839  42.748  14.110   8.592
  126POPC   C2B 5840  42.793  14.098   8.152
  126POPC   C3B 5841  42.710  14.238   7.755
  126POPC   C4B 5842  43.016  14.344   7.430
  127POPC   NC3 5843  32.768  35.598   9.395
  127POPC   PO4 5844  33.182  35.000   9.579
  127POPC   GL1 5845  33.255  35.187   9.095
  127POPC   GL2 5846  32.947  35.326   8.930
  127POPC   C1A 5847  33.329  35.330   8.616
  127POPC   D2A 5848  33.049  35.403   8.229
  127POPC   C3A 5849  33.022  35.098   7.865
  127POPC   C4A 5850  32.850  35.017   7.433
  127POPC   C1B 5851  32.915  35.709   8.629
  127POPC   C2B 5852  32.664  35.797   8.245
  127POPC   C3B 5853  32.699  35.617   7.849
  127POPC   C4B 5854  33.126  35.583   7.750
  128POPC   NC3 5855  10.911  20.844   9.676
  128POPC   PO4 5856  11.423  20.407   9.658
  128POPC   GL1 5857  11.535  20.444   9.225
  128POPC   GL2 5858  11.749  20.160   9.221
  128POPC   C1A 5859  11.371  20.667   8.823
  128POPC   D2A 5860  11.270  20.902   8.416
  128POPC   C3A 5861  11.196  20.727   7.966
  128POPC   C4A 5862  11.021  20.906   7.544
  128POPC   C1B 5863  11.829  20.399   8.813
  128POPC   C2B 5864  11.634  20.508   8.419
  128POPC   C3B 5865  11.646  20.323   8.044
  128POPC   C4B 5866  11.378  20.243   7.710
  129POPC   NC3 5867  44.088  25.892   9.546
  129POPC   PO4 5868  43.436  26.183   9.505
  129POPC   GL1 5869  43.712  26.004   9.208
  129POPC   GL2 5870  43.991  26.253   9.185
  129POPC   C1A 5871  44.013  25.822   8.897
  129POPC   D2A 5872  43.994  25.764   8.466
  129POPC   C3A 5873  44.049  25.936   8.065
  129POPC   C4A 5874  43.867  26.045   7.678
  129POPC   C1B 5875  43.777  26.284   8.800
  129POPC   C2B 5876  43.615  26.611   8.566
  129POPC   C3B 5877  43.573  26.614   8.153
  129POPC   C4B 5878  43.730  26.538   7.746
  130POPC   NC3 5879  21.811  23.435   9.462
  130POPC   PO4 5880  21.271  23.808   9.575
  130POPC   GL1 5881  21.440  23.651   9.186
  130POPC   GL2 5882  21.753  23.836   9.142
  130POPC   C1A 5883  21.577  23.503   8.781
  130POPC   D2A 5884  21.511  23.820   8.462
  130POPC   C3A 5885  21.471  23.737   8.048
  130POPC   C4A 5886  21.476  23.464   7.738
  130POPC   C1B 5887  21.856  24.079   8.777
  130POPC   C2B 5888  21.719  24.288   8.415
  130POPC   C3B 5889  21.645  24.261   7.966
  130POPC   C4B 5890  21.488  24.054   7.578
  131POPC   NC3 5891   4.602  21.435   9.330
  131POPC   PO4 5892   3.878  21.468   9.453
  131POPC   GL1 5893   4.011  21.328   9.051
  131POPC   GL2 5894   4.121  21.683   8.998
  131POPC   C1A 5895   3.959  21.323   8.598
  131POPC   D2A 5896   4.027  21.732   8.396
  131POPC   C3A 5897   4.244  21.576   8.065
  131POPC   C4A 5898   4.259  21.199   7.845
  131POPC   C1B 5899   4.421  21.529   8.672
  131POPC   C2B 5900   4.523  21.218   8.331
  131POPC   C3B 5901   4.738  21.351   7.955
  131POPC   C4B 5902   4.654  21.778   7.820
  132POPC   NC3 5903  14.677  35.466   9.553
  132POPC   PO4 5904  14.076  35.392   9.472
  132POPC   GL1 5905  14.364  35.308   9.152
  132POPC   GL2 5906  14.435  35.645   9.126
  132POPC   C1A 5907  14.428  35.082   8.754
  132POPC   D2A 5908  14.559  35.085   8.308
  132POPC   C3A 5909  14.286  35.273   7.974
  132POPC   C4A 5910  14.371  35.133   7.566
  132POPC   C1B 5911  14.289  35.590   8.717
  132POPC   C2B 5912  14.487  35.612   8.332
  132POPC   C3B 5913  14.543  35.774   7.939
  132POPC   C4B 5914  14.381  35.634   7.535
  133POPC   NC3 5915  23.736  41.485   9.523
  133POPC   PO4 5916  23.289  41.917   9.490
  133POPC   GL1 5917  23.534  41.927   9.102
  133POPC   GL2 5918  23.890  41.927   9.226
  133POPC   C1A 5919  23.540  41.609   8.720
  133POPC   D2A 5920  23.688  41.360   8.315
  133POPC   C3A 5921  23.406  41.394   7.936
  133POPC   C4A 5922  23.221  41.800   7.790
  133POPC   C1B 5923  23.923  41.931   8.762
  133POPC   C2B 5924  23.746  41.883   8.327
  133POPC   C3B 5925  23.838  41.668   7.923
  133POPC   C4B 5926  23.990  41.837   7.532
  134POPC   NC3 5927   3.147  28.910   9.273
  134POPC   PO4 5928   3.650  29.235   9.676
  134POPC   GL1 5929   3.629  29.033   9.273
  134POPC   GL2 5930   3.396  29.305   9.107
  134POPC   C1A 5931   3.602  28.870   8.829
  134POPC   D2A 5932   3.388  28.977   8.444
  134POPC   C3A 5933   3.723  29.141   8.204
  134POPC   C4A 5934   3.730  29.120   7.793
  134POPC   C1B 5935   3.566  29.388   8.685
  134POPC   C2B 5936   3.384  29.519   8.336
  134POPC   C3B 5937   3.285  29.336   7.943
  134POPC   C4B 5938   3.031  29.535   7.637
  135POPC   NC3 5939  32.438  36.705   9.475
  135POPC   PO4 5940  31.911  37.093   9.411
  135POPC   GL1 5941  32.053  36.816   9.081
  135POPC   GL2 5942  32.388  36.740   8.988
  135POPC   C1A 5943  32.021  36.920   8.664
  135POPC   D2A 5944  32.093  37.299   8.438
  135POPC   C3A 5945  32.032  37.159   8.033
  135POPC   C4A 5946  31.913  36.758   7.832
  135POPC   C1B 5947  32.525  37.021   8.698
  135POPC   C2B 5948  32.435  36.937   8.300
  135POPC   C3B 5949  32.428  36.776   7.912
  135POPC   C4B 5950  32.506  36.646   7.507
  136POPC   NC3 5951  41.874  17.458   9.528
  136POPC   PO4 5952  41.302  17.157   9.515
  136POPC   GL1 5953  41.331  17.518   9.187
  136POPC   GL2 5954  41.672  17.534   9.080
  136POPC   C1A 5955  41.350  17.781   8.767
  136POPC   D2A 5956  41.495  17.649   8.332
  136POPC   C3A 5957  41.407  17.443   7.915
  136POPC   C4A 5958  41.413  17.045   7.756
  136POPC   C1B 5959  41.849  17.594   8.711
  136POPC   C2B 5960  42.012  17.698   8.323
  136POPC   C3B 5961  41.819  17.747   7.939
  136POPC   C4B 5962  41.751  17.718   7.531
  137POPC   NC3 5963  31.577   9.604   9.498
  137POPC   PO4 5964  31.207  10.034   9.364
  137POPC   GL1 5965  31.543   9.874   9.055
  137POPC   GL2 5966  31.701   9.530   9.024
  137POPC   C1A 5967  31.604   9.843   8.607
  137POPC   D2A 5968  31.541  10.151   8.270
  137POPC   C3A 5969  31.371   9.937   7.929
  137POPC   C4A 5970  31.656   9.626   7.768
  137POPC   C1B 5971  31.367   9.405   8.774
  137POPC   C2B 5972  31.181   9.523   8.396
  137POPC   C3B 5973  31.279   9.390   8.029
  137POPC   C4B 5974  31.402   9.208   7.670
  138POPC   NC3 5975  37.637  22.565   9.748
  138POPC   PO4 5976  37.627  21.942   9.534
  138POPC   GL1 5977  37.628  22.111   9.122
  138POPC   GL2 5978  37.539  22.432   9.143
  138POPC   C1A 5979  37.754  22.185   8.680
  138POPC   D2A 5980  37.900  22.148   8.237
  138POPC   C3A 5981  37.670  22.308   7.891
  138POPC   C4A 5982  37.525  22.147   7.524
  138POPC   C1B 5983  37.540  22.647   8.740
  138POPC   C2B 5984  37.469  22.503   8.326
  138POPC   C3B 5985  37.423  22.728   7.905
  138POPC   C4B 5986  37.477  22.637   7.407
  139POPC   NC3 5987  10.683   5.411   9.617
  139POPC   PO4 5988  10.099   5.097   9.762
  139POPC   GL1 5989  10.357   5.165   9.343
  139POPC   GL2 5990  10.404   4.923   9.173
  139POPC   C1A 5991  10.487   5.405   8.933
  139POPC   D2A 5992  10.188   5.453   8.548
  139POPC   C3A 5993  10.367   5.450   8.105
  139POPC   C4A 5994  10.760   5.218   8.005
  139POPC   C1B 5995  10.228   4.990   8.791
  139POPC   C2B 5996  10.468   5.033   8.421
  139POPC   C3B 5997  10.326   4.943   8.014
  139POPC   C4B 5998  10.255   4.609   7.780
  140POPC   NC3 5999   2.246  38.783  10.002
  140POPC   PO4 6000   1.905  38.531   9.463
  140POPC   GL1 6001   1.858  38.321   9.100
  140POPC   GL2 6002   2.213  38.373   9.012
  140POPC   C1A 6003   1.748  38.455   8.687
  140POPC   D2A 6004   1.977  38.598   8.370
  140POPC   C3A 6005   1.830  38.856   8.038
  140POPC   C4A 6006   2.048  38.792   7.690
  140POPC   C1B 6007   2.197  38.194   8.655
  140POPC   C2B 6008   1.975  38.089   8.312
  140POPC   C3B 6009   2.143  38.325   7.946
  140POPC   C4B 6010   2.485  38.461   7.694
  141POPC   NC3 6011  15.851  38.198   9.588
  141POPC   PO4 6012  16.353  38.620   9.612
  141POPC   GL1 6013  16.113  38.563   9.231
  141POPC   GL2 6014  16.137  38.241   9.181
  141POPC   C1A 6015  16.218  38.518   8.761
  141POPC   D2A 6016  16.024  38.292   8.388
  141POPC   C3A 6017  16.105  38.463   7.971
  141POPC   C4A 6018  15.838  38.578   7.629
  141POPC   C1B 6019  15.777  38.221   8.854
  141POPC   C2B 6020  15.551  38.108   8.426
  141POPC   C3B 6021  15.680  38.144   7.944
  141POPC   C4B 6022  15.631  38.118   7.475
  142POPC   NC3 6023   9.135  25.245   9.540
  142POPC   PO4 6024   8.606  24.886   9.366
  142POPC   GL1 6025   8.812  25.243   9.138
  142POPC   GL2 6026   8.694  25.557   9.260
  142POPC   C1A 6027   8.946  25.401   8.744
  142POPC   D2A 6028   8.881  25.190   8.375
  142POPC   C3A 6029   9.092  25.263   7.995
  142POPC   C4A 6030   9.299  25.566   7.765
  142POPC   C1B 6031   8.493  25.595   8.855
  142POPC   C2B 6032   8.649  25.730   8.458
  142POPC   C3B 6033   8.599  25.527   8.098
  142POPC   C4B 6034   8.634  25.370   7.718
  143POPC   NC3 6035  31.195   8.682   9.437
  143POPC   PO4 6036  30.515   9.012   9.370
  143POPC   GL1 6037  30.881   9.044   9.097
  143POPC   GL2 6038  30.890   8.704   9.031
  143POPC   C1A 6039  30.917   9.186   8.675
  143POPC   D2A 6040  30.876   9.057   8.217
  143POPC   C3A 6041  30.898   9.158   7.773
  143POPC   C4A 6042  31.096   8.940   7.405
  143POPC   C1B 6043  30.891   8.685   8.597
  143POPC   C2B 6044  30.632   8.510   8.312
  143POPC   C3B 6045  30.351   8.510   7.980
  143POPC   C4B 6046  30.338   8.516   7.527
  144POPC   NC3 6047  28.753  11.273   9.382
  144POPC   PO4 6048  29.350  11.625   9.519
  144POPC   GL1 6049  29.159  11.414   9.144
  144POPC   GL2 6050  29.262  11.118   9.167
  144POPC   C1A 6051  28.982  11.250   8.730
  144POPC   D2A 6052  29.065  11.346   8.304
  144POPC   C3A 6053  28.889  11.184   7.962
  144POPC   C4A 6054  29.091  11.425   7.757
  144POPC   C1B 6055  29.330  10.907   8.761
  144POPC   C2B 6056  29.195  10.842   8.354
  144POPC   C3B 6057  29.345  10.974   7.955
  144POPC   C4B 6058  29.175  10.976   7.520
  145POPC   NC3 6059  33.799  28.334   9.683
  145POPC   PO4 6060  33.799  27.685   9.448
  145POPC   GL1 6061  33.762  28.174   9.179
  145POPC   GL2 6062  33.895  28.560   9.241
  145POPC   C1A 6063  33.714  28.498   8.771
  145POPC   D2A 6064  33.670  28.733   8.338
  145POPC   C3A 6065  33.518  28.554   7.945
  145POPC   C4A 6066  33.566  28.218   7.628
  145POPC   C1B 6067  34.151  28.751   8.900
  145POPC   C2B 6068  34.162  28.574   8.485
  145POPC   C3B 6069  34.271  28.449   8.066
  145POPC   C4B 6070  34.055  28.431   7.702
  146POPC   NC3 6071  19.936   8.474   9.625
  146POPC   PO4 6072  19.806   9.068   9.432
  146POPC   GL1 6073  19.946   8.843   9.121
  146POPC   GL2 6074  20.237   8.679   9.225
  146POPC   C1A 6075  19.813   8.932   8.728
  146POPC   D2A 6076  19.704   9.269   8.476
  146POPC   C3A 6077  19.750   9.079   8.089
  146POPC   C4A 6078  19.783   9.064   7.655
  146POPC   C1B 6079  20.347   8.788   8.783
  146POPC   C2B 6080  20.172   8.840   8.364
  146POPC   C3B 6081  20.157   8.828   7.888
  146POPC   C4B 6082  20.106   8.719   7.444
  147POPC   NC3 6083   7.545  40.441   9.332
  147POPC   PO4 6084   7.095  40.855   9.588
  147POPC   GL1 6085   7.151  40.787   9.142
  147POPC   GL2 6086   7.081  40.432   9.105
  147POPC   C1A 6087   7.297  41.036   8.763
  147POPC   D2A 6088   7.539  41.203   8.394
  147POPC   C3A 6089   7.346  40.982   8.043
  147POPC   C4A 6090   7.299  40.689   7.681
  147POPC   C1B 6091   7.294  40.503   8.714
  147POPC   C2B 6092   7.550  40.701   8.429
  147POPC   C3B 6093   7.678  40.585   8.016
  147POPC   C4B 6094   7.713  40.372   7.593
  148POPC   NC3 6095  10.862  23.388   9.460
  148POPC   PO4 6096  10.662  23.934   9.870
  148POPC   GL1 6097  10.547  23.811   9.309
  148POPC   GL2 6098  10.718  23.582   9.033
  148POPC   C1A 6099  10.267  23.690   8.877
  148POPC   D2A 6100  10.457  23.517   8.472
  148POPC   C3A 6101  10.545  23.670   8.020
  148POPC   C4A 6102  10.290  23.875   7.713
  148POPC   C1B 6103  10.961  23.514   8.656
  148POPC   C2B 6104  10.894  23.362   8.245
  148POPC   C3B 6105  10.925  23.394   7.815
  148POPC   C4B 6106  10.670  23.602   7.495
  149POPC   NC3 6107  34.257   7.874   9.222
  149POPC   PO4 6108  34.813   8.154   9.476
  149POPC   GL1 6109  34.661   8.239   9.096
  149POPC   GL2 6110  34.706   7.925   9.007
  149POPC   C1A 6111  34.497   8.468   8.737
  149POPC   D2A 6112  34.284   8.551   8.354
  149POPC   C3A 6113  34.543   8.405   8.011
  149POPC   C4A 6114  34.524   8.535   7.605
  149POPC   C1B 6115  34.573   7.952   8.626
  149POPC   C2B 6116  34.777   7.908   8.276
  149POPC   C3B 6117  34.660   7.915   7.877
  149POPC   C4B 6118  34.293   7.854   7.718
  150POPC   NC3 6119  20.620  17.755   9.570
  150POPC   PO4 6120  20.433  17.123   9.458
  150POPC   GL1 6121  20.531  17.442   9.132
  150POPC   GL2 6122  20.406  17.807   9.129
  150POPC   C1A 6123  20.779  17.487   8.765
  150POPC   D2A 6124  20.913  17.415   8.337
  150POPC   C3A 6125  20.595  17.276   8.096
  150POPC   C4A 6126  20.646  17.132   7.745
  150POPC   C1B 6127  20.405  17.862   8.735
  150POPC   C2B 6128  20.402  17.600   8.432
  150POPC   C3B 6129  20.515  17.787   8.084
  150POPC   C4B 6130  20.790  17.716   7.764
  151POPC   NC3 6131  26.796  11.416   9.454
  151POPC   PO4 6132  26.438  10.868   9.474
  151POPC   GL1 6133  26.677  11.076   9.093
  151POPC   GL2 6134  27.055  11.073   9.132
  151POPC   C1A 6135  26.854  11.430   8.790
  151POPC   D2A 6136  27.178  11.655   8.508
  151POPC   C3A 6137  27.147  11.499   8.072
  151POPC   C4A 6138  26.792  11.464   7.793
  151POPC   C1B 6139  26.989  10.911   8.735
  151POPC   C2B 6140  26.914  11.129   8.354
  151POPC   C3B 6141  26.799  10.979   7.960
  151POPC   C4B 6142  27.038  10.707   7.722
  152POPC   NC3 6143  20.891  14.127   9.440
  152POPC   PO4 6144  20.351  14.662   9.486
  152POPC   GL1 6145  20.439  14.671   9.057
  152POPC   GL2 6146  20.716  14.455   9.090
  152POPC   C1A 6147  20.441  14.477   8.641
  152POPC   D2A 6148  20.462  14.115   8.353
  152POPC   C3A 6149  20.332  14.237   7.978
  152POPC   C4A 6150  20.525  14.469   7.673
  152POPC   C1B 6151  20.747  14.096   8.801
  152POPC   C2B 6152  20.980  14.064   8.438
  152POPC   C3B 6153  20.870  14.250   8.040
  152POPC   C4B 6154  20.834  14.041   7.654
  153POPC   NC3 6155   1.789  27.798   9.522
  153POPC   PO4 6156   2.272  27.299   9.464
  153POPC   GL1 6157   2.121  27.664   9.175
  153POPC   GL2 6158   1.773  27.570   9.074
  153POPC   C1A 6159   2.056  27.843   8.753
  153POPC   D2A 6160   2.081  27.657   8.380
  153POPC   C3A 6161   2.144  27.884   8.049
  153POPC   C4A 6162   2.154  27.686   7.669
  153POPC   C1B 6163   1.879  27.327   8.708
  153POPC   C2B 6164   1.623  27.440   8.340
  153POPC   C3B 6165   1.708  27.594   7.919
  153POPC   C4B 6166   1.681  27.421   7.477
  154POPC   NC3 6167  32.724  42.348   9.490
  154POPC   PO4 6168  32.144  42.591   9.597
  154POPC   GL1 6169  32.145  42.403   9.196
  154POPC   GL2 6170  31.917  42.679   9.156
  154POPC   C1A 6171  32.115  42.187   8.777
  154POPC   D2A 6172  31.940  42.250   8.363
  154POPC   C3A 6173  32.282  42.442   8.137
  154POPC   C4A 6174  32.383  42.403   7.702
  154POPC   C1B 6175  31.839  42.619   8.753
  154POPC   C2B 6176  31.947  42.791   8.384
  154POPC   C3B 6177  31.834  42.653   7.991
  154POPC   C4B 6178  31.954  42.670   7.603
  155POPC   NC3 6179  21.542  12.498   9.446
  155POPC   PO4 6180  21.348  11.756   9.522
  155POPC   GL1 6181  21.546  12.035   9.196
  155POPC   GL2 6182  21.286  12.222   9.052
  155POPC   C1A 6183  21.719  12.310   8.798
  155POPC   D2A 6184  21.420  12.323   8.425
  155POPC   C3A 6185  21.524  12.186   7.979
  155POPC   C4A 6186  21.843  12.310   7.659
  155POPC   C1B 6187  21.488  11.866   8.728
  155POPC   C2B 6188  21.646  11.771   8.294
  155POPC   C3B 6189  21.493  11.643   7.865
  155POPC   C4B 6190  21.210  11.780   7.501
  156POPC   NC3 6191  14.849  38.412   9.494
  156POPC   PO4 6192  15.432  38.132   9.441
  156POPC   GL1 6193  15.242  38.365   9.105
  156POPC   GL2 6194  15.066  38.662   9.112
  156POPC   C1A 6195  15.344  38.485   8.691
  156POPC   D2A 6196  15.157  38.444   8.282
  156POPC   C3A 6197  15.383  38.624   7.914
  156POPC   C4A 6198  15.494  39.008   7.663
  156POPC   C1B 6199  14.996  38.845   8.721
  156POPC   C2B 6200  14.816  38.836   8.359
  156POPC   C3B 6201  14.868  38.696   7.941
  156POPC   C4B 6202  14.949  38.729   7.514
  157POPC   NC3 6203  14.511   1.018   9.552
  157POPC   PO4 6204  14.515   1.689   9.707
  157POPC   GL1 6205  14.592   1.434   9.237
  157POPC   GL2 6206  14.819   1.149   9.175
  157POPC   C1A 6207  14.489   1.254   8.785
  157POPC   D2A 6208  14.382   1.250   8.331
  157POPC   C3A 6209  14.407   0.919   8.012
  157POPC   C4A 6210  14.326   0.941   7.530
  157POPC   C1B 6211  14.950   0.995   8.761
  157POPC   C2B 6212  14.837   0.910   8.318
  157POPC   C3B 6213  14.813   1.229   8.023
  157POPC   C4B 6214  14.641   1.342   7.643
  158POPC   NC3 6215  36.685  22.890   9.637
  158POPC   PO4 6216  37.166  23.282   9.430
  158POPC   GL1 6217  36.887  23.112   9.090
  158POPC   GL2 6218  36.711  22.815   9.121
  158POPC   C1A 6219  37.007  22.865   8.694
  158POPC   D2A 6220  37.219  22.959   8.327
  158POPC   C3A 6221  37.049  23.105   7.952
  158POPC   C4A 6222  37.009  22.755   7.655
  158POPC   C1B 6223  36.522  22.999   8.741
  158POPC   C2B 6224  36.684  22.989   8.300
  158POPC   C3B 6225  36.571  22.947   7.865
  158POPC   C4B 6226  36.580  22.778   7.417
  159POPC   NC3 6227  19.684  19.471   9.562
  159POPC   PO4 6228  19.863  20.122   9.489
  159POPC   GL1 6229  19.797  19.816   9.142
  159POPC   GL2 6230  20.110  19.652   8.957
  159POPC   C1A 6231  19.685  19.846   8.701
  159POPC   D2A 6232  19.924  19.830   8.330
  159POPC   C3A 6233  19.737  19.803   7.913
  159POPC   C4A 6234  19.621  19.479   7.605
  159POPC   C1B 6235  20.104  20.117   8.841
  159POPC   C2B 6236  20.157  20.315   8.430
  159POPC   C3B 6237  20.209  20.307   7.986
  159POPC   C4B 6238  19.881  20.243   7.690
  160POPC   NC3 6239  39.248  32.272   9.634
  160POPC   PO4 6240  39.021  31.681   9.392
  160POPC   GL1 6241  39.073  32.062   9.153
  160POPC   GL2 6242  39.383  32.220   9.135
  160POPC   C1A 6243  39.115  32.083   8.707
  160POPC   D2A 6244  39.365  32.251   8.381
  160POPC   C3A 6245  39.357  32.074   8.000
  160POPC   C4A 6246  39.011  31.958   7.743
  160POPC   C1B 6247  39.535  32.480   8.801
  160POPC   C2B 6248  39.607  32.703   8.430
  160POPC   C3B 6249  39.483  32.605   8.016
  160POPC   C4B 6250  39.682  32.352   7.735
  161POPC   NC3 6251  41.192   3.639   9.463
  161POPC   PO4 6252  40.644   3.410   9.566
  161POPC   GL1 6253  40.761   3.560   9.195
  161POPC   GL2 6254  40.438   3.675   9.090
  161POPC   C1A 6255  40.966   3.526   8.801
  161POPC   D2A 6256  40.674   3.617   8.456
  161POPC   C3A 6257  40.722   3.604   8.021
  161POPC   C4A 6258  41.076   3.568   7.726
  161POPC   C1B 6259  40.525   3.282   8.834
  161POPC   C2B 6260  40.544   3.112   8.403
  161POPC   C3B 6261  40.343   3.170   8.022
  161POPC   C4B 6262  40.567   3.265   7.666
  162POPC   NC3 6263  25.560  24.955   9.645
  162POPC   PO4 6264  25.285  25.522   9.578
  162POPC   GL1 6265  25.228  25.304   9.220
  162POPC   GL2 6266  25.354  25.576   9.020
  162POPC   C1A 6267  25.488  25.037   8.946
  162POPC   D2A 6268  25.576  24.985   8.521
  162POPC   C3A 6269  25.501  25.016   8.079
  162POPC   C4A 6270  25.538  25.183   7.669
  162POPC   C1B 6271  25.117  25.307   8.714
  162POPC   C2B 6272  25.019  25.122   8.322
  162POPC   C3B 6273  25.094  25.319   7.934
  162POPC   C4B 6274  25.285  25.604   7.601
  163POPC   NC3 6275   7.022  25.976   9.464
  163POPC   PO4 6276   7.715  25.740   9.508
  163POPC   GL1 6277   7.435  25.946   9.108
  163POPC   GL2 6278   7.120  26.207   9.007
  163POPC   C1A 6279   7.262  25.910   8.637
  163POPC   D2A 6280   7.120  25.632   8.274
  163POPC   C3A 6281   7.446  25.657   7.979
  163POPC   C4A 6282   7.470  25.993   7.677
  163POPC   C1B 6283   7.445  26.391   8.746
  163POPC   C2B 6284   7.565  26.367   8.303
  163POPC   C3B 6285   7.249  26.371   7.959
  163POPC   C4B 6286   7.132  26.368   7.530
  164POPC   NC3 6287  38.751  11.175   9.631
  164POPC   PO4 6288  39.359  10.946   9.476
  164POPC   GL1 6289  39.368  11.222   9.113
  164POPC   GL2 6290  39.004  11.215   9.176
  164POPC   C1A 6291  39.664  11.238   8.739
  164POPC   D2A 6292  39.630  11.142   8.307
  164POPC   C3A 6293  39.217  11.181   8.119
  164POPC   C4A 6294  39.375  11.273   7.708
  164POPC   C1B 6295  38.953  11.217   8.755
  164POPC   C2B 6296  38.783  11.485   8.490
  164POPC   C3B 6297  38.881  11.591   8.090
  164POPC   C4B 6298  38.878  11.354   7.721
  165POPC   NC3 6299   0.891  24.628   9.471
  165POPC   PO4 6300   0.233  24.538   9.614
  165POPC   GL1 6301   0.252  24.640   9.178
  165POPC   GL2 6302   0.544  24.503   9.127
  165POPC   C1A 6303   0.148  24.473   8.768
  165POPC   D2A 6304   0.199  24.246   8.397
  165POPC   C3A 6305   0.192  24.432   7.993
  165POPC   C4A 6306   0.614  24.476   7.794
  165POPC   C1B 6307   0.606  24.260   8.782
  165POPC   C2B 6308   0.797  24.275   8.418
  165POPC   C3B 6309   1.010  24.274   8.045
  165POPC   C4B 6310   1.078  24.204   7.607
  166POPC   NC3 6311  32.459  41.621   9.439
  166POPC   PO4 6312  31.858  41.864   9.493
  166POPC   GL1 6313  32.073  41.826   9.126
  166POPC   GL2 6314  32.458  41.986   9.104
  166POPC   C1A 6315  31.907  41.584   8.769
  166POPC   D2A 6316  31.778  41.533   8.321
  166POPC   C3A 6317  32.040  41.209   8.142
  166POPC   C4A 6318  32.418  41.164   7.866
  166POPC   C1B 6319  32.413  41.645   8.791
  166POPC   C2B 6320  32.245  41.799   8.416
  166POPC   C3B 6321  32.405  41.946   8.037
  166POPC   C4B 6322  32.262  41.669   7.752
  167POPC   NC3 6323   8.515  40.357   9.560
  167POPC   PO4 6324   9.084  40.051   9.470
  167POPC   GL1 6325   9.089  39.878   9.102
  167POPC   GL2 6326   9.214  39.552   9.055
  167POPC   C1A 6327   9.195  40.135   8.811
  167POPC   D2A 6328   9.293  40.081   8.424
  167POPC   C3A 6329   8.903  40.067   8.213
  167POPC   C4A 6330   8.886  40.121   7.787
  167POPC   C1B 6331   9.054  39.644   8.622
  167POPC   C2B 6332   9.162  39.629   8.155
  167POPC   C3B 6333   9.127  39.687   7.690
  167POPC   C4B 6334   9.029  39.457   7.259
  168POPC   NC3 6335  37.842  31.238   9.446
  168POPC   PO4 6336  37.281  31.648   9.486
  168POPC   GL1 6337  37.660  31.671   9.189
  168POPC   GL2 6338  37.692  31.359   8.976
  168POPC   C1A 6339  37.613  31.778   8.741
  168POPC   D2A 6340  37.777  31.498   8.395
  168POPC   C3A 6341  37.647  31.399   7.956
  168POPC   C4A 6342  37.544  31.606   7.548
  168POPC   C1B 6343  38.021  31.163   8.723
  168POPC   C2B 6344  38.234  31.247   8.323
  168POPC   C3B 6345  38.072  31.068   7.921
  168POPC   C4B 6346  38.032  30.998   7.460
  169POPC   NC3 6347  16.761  14.083   9.481
  169POPC   PO4 6348  16.533  13.476   9.719
  169POPC   GL1 6349  16.723  13.547   9.256
  169POPC   GL2 6350  16.944  13.818   9.103
  169POPC   C1A 6351  16.675  13.604   8.753
  169POPC   D2A 6352  16.795  13.439   8.342
  169POPC   C3A 6353  16.641  13.604   7.965
  169POPC   C4A 6354  16.307  13.921   7.913
  169POPC   C1B 6355  17.244  13.932   8.790
  169POPC   C2B 6356  17.143  13.830   8.442
  169POPC   C3B 6357  17.065  13.887   8.085
  169POPC   C4B 6358  17.097  13.666   7.720
  170POPC   NC3 6359  27.034  29.319   9.577
  170POPC   PO4 6360  26.362  29.150   9.577
  170POPC   GL1 6361  26.580  29.033   9.244
  170POPC   GL2 6362  26.693  29.380   9.211
  170POPC   C1A 6363  26.868  29.054   8.893
  170POPC   D2A 6364  26.912  28.939   8.450
  170POPC   C3A 6365  26.767  29.132   8.099
  170POPC   C4A 6366  26.946  29.187   7.683
  170POPC   C1B 6367  26.652  29.553   8.819
  170POPC   C2B 6368  26.848  29.514   8.424
  170POPC   C3B 6369  26.927  29.598   8.006
  170POPC   C4B 6370  26.640  29.596   7.618
  171POPC   NC3 6371  14.507   3.954   9.417
  171POPC   PO4 6372  14.581   3.256   9.426
  171POPC   GL1 6373  14.460   3.484   9.118
  171POPC   GL2 6374  14.778   3.653   9.100
  171POPC   C1A 6375  14.198   3.411   8.763
  171POPC   D2A 6376  14.139   3.547   8.320
  171POPC   C3A 6377  14.223   3.294   7.950
  171POPC   C4A 6378  14.047   2.999   7.637
  171POPC   C1B 6379  14.615   3.733   8.698
  171POPC   C2B 6380  14.320   3.979   8.506
  171POPC   C3B 6381  14.236   4.008   8.085
  171POPC   C4B 6382  14.308   3.782   7.753
  172POPC   NC3 6383  15.229  35.835   9.389
  172POPC   PO4 6384  15.046  35.159   9.548
  172POPC   GL1 6385  15.261  35.342   9.233
  172POPC   GL2 6386  14.952  35.491   9.109
  172POPC   C1A 6387  15.406  35.408   8.822
  172POPC   D2A 6388  15.367  35.646   8.439
  172POPC   C3A 6389  15.451  35.368   8.104
  172POPC   C4A 6390  15.295  35.340   7.685
  172POPC   C1B 6391  14.897  35.535   8.668
  172POPC   C2B 6392  14.942  35.431   8.223
  172POPC   C3B 6393  14.782  35.325   7.830
  172POPC   C4B 6394  14.854  35.402   7.400
  173POPC   NC3 6395  28.231   5.163   9.520
  173POPC   PO4 6396  28.495   4.557   9.588
  173POPC   GL1 6397  28.517   4.891   9.206
  173POPC   GL2 6398  28.542   5.288   9.128
  173POPC   C1A 6399  28.317   4.967   8.815
  173POPC   D2A 6400  28.457   5.123   8.433
  173POPC   C3A 6401  28.289   4.942   8.055
  173POPC   C4A 6402  28.518   4.693   7.761
  173POPC   C1B 6403  28.362   5.506   8.795
  173POPC   C2B 6404  28.530   5.629   8.418
  173POPC   C3B 6405  28.439   5.449   8.010
  173POPC   C4B 6406  28.335   5.532   7.538
  174POPC   NC3 6407  27.308  39.723   9.588
  174POPC   PO4 6408  27.627  40.204   9.231
  174POPC   GL1 6409  27.536  40.005   8.938
  174POPC   GL2 6410  27.528  39.656   8.996
  174POPC   C1A 6411  27.765  40.011   8.600
  174POPC   D2A 6412  28.094  40.147   8.361
  174POPC   C3A 6413  27.822  40.113   8.039
  174POPC   C4A 6414  27.476  40.422   7.954
  174POPC   C1B 6415  27.317  39.728   8.595
  174POPC   C2B 6416  27.362  39.995   8.263
  174POPC   C3B 6417  27.407  39.888   7.849
  174POPC   C4B 6418  27.346  39.762   7.435
  175POPC   NC3 6419  43.994  30.564   9.600
  175POPC   PO4 6420  43.951  29.879   9.481
  175POPC   GL1 6421  43.764  29.922   9.113
  175POPC   GL2 6422  43.559  29.637   9.075
  175POPC   C1A 6423  43.789  30.152   8.731
  175POPC   D2A 6424  44.028  29.989   8.352
  175POPC   C3A 6425  43.874  29.940   7.915
  175POPC   C4A 6426  43.849  30.207   7.561
  175POPC   C1B 6427  43.653  29.671   8.641
  175POPC   C2B 6428  43.506  29.755   8.231
  175POPC   C3B 6429  43.539  29.540   7.813
  175POPC   C4B 6430  43.672  29.778   7.426
  176POPC   NC3 6431  10.384  36.674   9.471
  176POPC   PO4 6432  10.986  36.908   9.708
  176POPC   GL1 6433  10.810  36.936   9.228
  176POPC   GL2 6434  10.518  36.842   9.018
  176POPC   C1A 6435  10.784  37.270   8.838
  176POPC   D2A 6436  10.795  37.379   8.370
  176POPC   C3A 6437  10.480  37.158   8.115
  176POPC   C4A 6438  10.632  36.927   7.776
  176POPC   C1B 6439  10.078  36.792   8.841
  176POPC   C2B 6440  10.005  36.732   8.386
  176POPC   C3B 6441  10.293  36.603   8.055
  176POPC   C4B 6442  10.283  36.597   7.601
  177POPC   NC3 6443   8.723  36.969   9.557
  177POPC   PO4 6444   9.349  37.193   9.465
  177POPC   GL1 6445   8.980  37.151   9.175
  177POPC   GL2 6446   8.898  36.730   9.169
  177POPC   C1A 6447   8.904  37.022   8.778
  177POPC   D2A 6448   9.200  37.000   8.465
  177POPC   C3A 6449   9.146  37.074   8.047
  177POPC   C4A 6450   9.193  37.323   7.644
  177POPC   C1B 6451   8.676  36.555   8.828
  177POPC   C2B 6452   8.791  36.682   8.419
  177POPC   C3B 6453   8.634  36.797   8.047
  177POPC   C4B 6454   8.893  36.817   7.695
  178POPC   NC3 6455   2.661  22.030   9.475
  178POPC   PO4 6456   2.581  21.366   9.504
  178POPC   GL1 6457   2.754  21.492   9.119
  178POPC   GL2 6458   3.053  21.490   9.257
  178POPC   C1A 6459   2.909  21.189   8.793
  178POPC   D2A 6460   2.813  21.053   8.383
  178POPC   C3A 6461   2.721  21.367   8.072
  178POPC   C4A 6462   2.839  21.263   7.677
  178POPC   C1B 6463   3.156  21.642   8.832
  178POPC   C2B 6464   3.066  21.512   8.423
  178POPC   C3B 6465   3.224  21.343   8.041
  178POPC   C4B 6466   3.202  21.621   7.768
  179POPC   NC3 6467   9.483   6.453   9.464
  179POPC   PO4 6468  10.106   6.412   9.236
  179POPC   GL1 6469   9.846   6.758   9.123
  179POPC   GL2 6470  10.106   6.993   9.025
  179POPC   C1A 6471   9.578   6.828   8.778
  179POPC   D2A 6472   9.599   6.557   8.403
  179POPC   C3A 6473   9.516   6.719   7.964
  179POPC   C4A 6474   9.624   6.497   7.599
  179POPC   C1B 6475  10.086   6.721   8.658
  179POPC   C2B 6476  10.075   6.362   8.407
  179POPC   C3B 6477   9.991   6.587   8.047
  179POPC   C4B 6478   9.970   6.952   7.839
  180POPC   NC3 6479   7.085  33.414   9.775
  180POPC   PO4 6480   7.236  34.036   9.478
  180POPC   GL1 6481   7.417  33.754   9.200
  180POPC   GL2 6482   7.109  33.660   9.065
  180POPC   C1A 6483   7.596  33.680   8.799
  180POPC   D2A 6484   7.485  33.654   8.381
  180POPC   C3A 6485   7.665  34.007   8.186
  180POPC   C4A 6486   7.711  34.151   7.782
  180POPC   C1B 6487   7.201  34.014   8.743
  180POPC   C2B 6488   7.212  34.272   8.347
  180POPC   C3B 6489   7.204  34.074   7.951
  180POPC   C4B 6490   7.380  33.701   7.832
  181POPC   NC3 6491   2.808  34.452   9.461
  181POPC   PO4 6492   2.856  33.831   9.455
  181POPC   GL1 6493   2.963  33.922   9.041
  181POPC   GL2 6494   3.138  34.226   9.080
  181POPC   C1A 6495   2.708  33.978   8.620
  181POPC   D2A 6496   2.326  33.824   8.337
  181POPC   C3A 6497   2.483  33.534   8.021
  181POPC   C4A 6498   2.926  33.495   7.881
  181POPC   C1B 6499   3.223  34.097   8.652
  181POPC   C2B 6500   3.096  33.933   8.250
  181POPC   C3B 6501   3.282  33.849   7.861
  181POPC   C4B 6502   3.349  34.143   7.559
  182POPC   NC3 6503  18.731  44.252   9.385
  182POPC   PO4 6504  19.343  44.141   9.619
  182POPC   GL1 6505  19.166  44.065   9.195
  182POPC   GL2 6506  19.260  43.784   9.003
  182POPC   C1A 6507  18.959  44.171   8.798
  182POPC   D2A 6508  19.101  44.067   8.429
  182POPC   C3A 6509  18.818  43.908   8.179
  182POPC   C4A 6510  18.857  44.113   7.802
  182POPC   C1B 6511  18.968  43.639   8.690
  182POPC   C2B 6512  19.047  43.446   8.303
  182POPC   C3B 6513  19.319  43.337   7.957
  182POPC   C4B 6514  19.474  43.341   7.545
  183POPC   NC3 6515  13.959  23.470   9.519
  183POPC   PO4 6516  13.407  23.000   9.481
  183POPC   GL1 6517  13.419  23.047   9.050
  183POPC   GL2 6518  13.294  22.724   8.994
  183POPC   C1A 6519  13.628  22.901   8.629
  183POPC   D2A 6520  13.807  22.753   8.272
  183POPC   C3A 6521  13.726  22.943   7.876
  183POPC   C4A 6522  13.886  23.341   7.745
  183POPC   C1B 6523  13.143  22.937   8.630
  183POPC   C2B 6524  13.320  23.000   8.212
  183POPC   C3B 6525  13.201  22.961   7.801
  183POPC   C4B 6526  13.435  22.768   7.473
  184POPC   NC3 6527  22.442  43.612   9.664
  184POPC   PO4 6528  21.913  43.858   9.388
  184POPC   GL1 6529  21.972  44.020   8.955
  184POPC   GL2 6530  22.113  43.704   8.925
  184POPC   C1A 6531  22.146  43.985   8.497
  184POPC   D2A 6532  22.524  44.038   8.213
  184POPC   C3A 6533  22.461  44.237   7.851
  184POPC   C4A 6534  22.149  43.949   7.759
  184POPC   C1B 6535  22.120  43.469   8.568
  184POPC   C2B 6536  22.148  43.597   8.168
  184POPC   C3B 6537  22.080  43.441   7.810
  184POPC   C4B 6538  22.332  43.232   7.539
  185POPC   NC3 6539   5.145  33.611   9.368
  185POPC   PO4 6540   5.592  34.097   9.446
  185POPC   GL1 6541   5.285  34.018   9.089
  185POPC   GL2 6542   4.901  33.989   9.100
  185POPC   C1A 6543   5.188  33.776   8.709
  185POPC   D2A 6544   4.905  33.733   8.370
  185POPC   C3A 6545   5.100  33.620   7.970
  185POPC   C4A 6546   5.169  33.677   7.554
  185POPC   C1B 6547   4.936  34.209   8.710
  185POPC   C2B 6548   5.025  34.231   8.276
  185POPC   C3B 6549   4.776  34.014   7.957
  185POPC   C4B 6550   4.653  33.770   7.604
  186POPC   NC3 6551  22.098   5.520   9.594
  186POPC   PO4 6552  22.261   4.897   9.526
  186POPC   GL1 6553  22.195   5.026   9.088
  186POPC   GL2 6554  21.927   5.254   9.138
  186POPC   C1A 6555  22.048   4.954   8.651
  186POPC   D2A 6556  21.985   5.176   8.247
  186POPC   C3A 6557  22.150   4.905   7.896
  186POPC   C4A 6558  22.108   4.716   7.478
  186POPC   C1B 6559  22.075   5.444   8.727
  186POPC   C2B 6560  22.196   5.668   8.367
  186POPC   C3B 6561  21.977   5.638   7.996
  186POPC   C4B 6562  21.927   5.297   7.687
  187POPC   NC3 6563  30.733   4.768   9.388
  187POPC   PO4 6564  30.337   5.266   9.333
  187POPC   GL1 6565  30.690   5.186   9.097
  187POPC   GL2 6566  31.038   5.250   9.151
  187POPC   C1A 6567  30.786   4.949   8.730
  187POPC   D2A 6568  30.518   4.801   8.385
  187POPC   C3A 6569  30.716   4.896   8.012
  187POPC   C4A 6570  30.770   4.928   7.563
  187POPC   C1B 6571  30.926   5.464   8.755
  187POPC   C2B 6572  30.735   5.351   8.327
  187POPC   C3B 6573  30.692   5.401   7.869
  187POPC   C4B 6574  30.601   5.378   7.411
  188POPC   NC3 6575  22.556  33.802   9.421
  188POPC   PO4 6576  23.017  34.144   9.740
  188POPC   GL1 6577  23.073  33.889   9.278
  188POPC   GL2 6578  22.952  33.561   9.185
  188POPC   C1A 6579  23.077  33.931   8.779
  188POPC   D2A 6580  23.237  33.781   8.337
  188POPC   C3A 6581  22.928  33.821   7.952
  188POPC   C4A 6582  22.522  33.964   7.797
  188POPC   C1B 6583  22.838  33.465   8.762
  188POPC   C2B 6584  22.741  33.593   8.366
  188POPC   C3B 6585  22.707  33.363   7.984
  188POPC   C4B 6586  22.937  33.396   7.628
  189POPC   NC3 6587  18.548  44.942   9.382
  189POPC   PO4 6588  18.257  44.355   9.502
  189POPC   GL1 6589  18.383  44.519   9.128
  189POPC   GL2 6590  18.082  44.664   9.122
  189POPC   C1A 6591  18.613  44.593   8.749
  189POPC   D2A 6592  18.682  44.369   8.361
  189POPC   C3A 6593  18.617  44.572   7.969
  189POPC   C4A 6594  18.225  44.610   7.812
  189POPC   C1B 6595  18.065  44.523   8.722
  189POPC   C2B 6596  18.265  44.695   8.366
  189POPC   C3B 6597  18.274   0.047   8.139
  189POPC   C4B 6598  18.305   0.103   7.716
  190POPC   NC3 6599  29.505  22.537   9.511
  190POPC   PO4 6600  29.222  23.152   9.395
  190POPC   GL1 6601  29.254  22.789   9.113
  190POPC   GL2 6602  28.967  22.577   9.017
  190POPC   C1A 6603  29.255  22.990   8.714
  190POPC   D2A 6604  29.147  23.180   8.336
  190POPC   C3A 6605  29.254  23.058   7.906
  190POPC   C4A 6606  29.045  23.226   7.492
  190POPC   C1B 6607  28.782  22.867   8.787
  190POPC   C2B 6608  28.685  22.897   8.418
  190POPC   C3B 6609  28.783  22.935   8.040
  190POPC   C4B 6610  28.858  22.793   7.659
  191POPC   NC3 6611  24.249   4.589   9.438
  191POPC   PO4 6612  24.630   4.056   9.622
  191POPC   GL1 6613  24.597   4.288   9.227
  191POPC   GL2 6614  24.757   4.630   9.321
  191POPC   C1A 6615  24.327   4.340   8.825
  191POPC   D2A 6616  24.517   4.357   8.417
  191POPC   C3A 6617  24.343   4.391   8.014
  191POPC   C4A 6618  24.205   4.030   7.835
  191POPC   C1B 6619  24.661   4.714   8.907
  191POPC   C2B 6620  24.719   4.806   8.504
  191POPC   C3B 6621  24.660   4.779   8.085
  191POPC   C4B 6622  24.764   4.711   7.651
  192POPC   NC3 6623   5.038  21.606   9.641
  192POPC   PO4 6624   4.847  21.067   9.200
  192POPC   GL1 6625   5.215  21.326   9.138
  192POPC   GL2 6626   5.257  21.687   9.199
  192POPC   C1A 6627   5.299  21.252   8.725
  192POPC   D2A 6628   5.059  21.353   8.383
  192POPC   C3A 6629   5.288  21.263   8.032
  192POPC   C4A 6630   5.136  21.070   7.696
  192POPC   C1B 6631   5.344  21.758   8.774
  192POPC   C2B 6632   5.481  21.645   8.349
  192POPC   C3B 6633   5.295  21.762   7.958
  192POPC   C4B 6634   5.439  21.528   7.608
  193POPC   NC3 6635  30.202  22.499   9.298
  193POPC   PO4 6636  29.692  22.043   9.484
  193POPC   GL1 6637  29.759  22.252   9.115
  193POPC   GL2 6638  29.747  22.586   9.074
  193POPC   C1A 6639  29.777  22.142   8.704
  193POPC   D2A 6640  29.691  21.861   8.399
  193POPC   C3A 6641  29.746  21.992   7.970
  193POPC   C4A 6642  30.051  22.248   7.735
  193POPC   C1B 6643  29.594  22.614   8.690
  193POPC   C2B 6644  29.609  22.444   8.271
  193POPC   C3B 6645  29.675  22.627   7.847
  193POPC   C4B 6646  29.585  22.315   7.543
  194POPC   NC3 6647  14.194   2.077   9.454
  194POPC   PO4 6648  13.551   1.955   9.698
  194POPC   GL1 6649  13.684   2.024   9.251
  194POPC   GL2 6650  13.932   2.184   9.052
  194POPC   C1A 6651  13.497   2.029   8.812
  194POPC   D2A 6652  13.553   1.766   8.410
  194POPC   C3A 6653  13.715   1.872   7.989
  194POPC   C4A 6654  13.462   2.146   7.748
  194POPC   C1B 6655  13.966   1.920   8.690
  194POPC   C2B 6656  14.121   1.880   8.307
  194POPC   C3B 6657  14.189   2.112   7.896
  194POPC   C4B 6658  13.975   2.101   7.487
  195POPC   NC3 6659  30.283  36.226   9.439
  195POPC   PO4 6660  29.738  35.925   9.371
  195POPC   GL1 6661  29.865  36.287   9.056
  195POPC   GL2 6662  30.194  36.456   8.999
  195POPC   C1A 6663  29.859  36.313   8.583
  195POPC   D2A 6664  30.081  36.044   8.248
  195POPC   C3A 6665  29.786  35.991   7.900
  195POPC   C4A 6666  29.456  36.288   7.809
  195POPC   C1B 6667  30.378  36.308   8.619
  195POPC   C2B 6668  30.221  36.538   8.307
  195POPC   C3B 6669  29.907  36.468   8.031
  195POPC   C4B 6670  30.183  36.274   7.754
  196POPC   NC3 6671  44.018   0.248   9.522
  196POPC   PO4 6672  43.652   0.861   9.555
  196POPC   GL1 6673  43.780   0.624   9.197
  196POPC   GL2 6674  43.465   0.540   9.008
  196POPC   C1A 6675  44.030   0.449   8.859
  196POPC   D2A 6676  43.997   0.534   8.437
  196POPC   C3A 6677  44.059   0.246   8.110
  196POPC   C4A 6678  44.047   0.434   7.733
  196POPC   C1B 6679  43.569   0.318   8.663
  196POPC   C2B 6680  43.565   0.203   8.266
  196POPC   C3B 6681  43.600   0.219   7.848
  196POPC   C4B 6682  43.621   0.017   7.393
  197POPC   NC3 6683   9.704  25.753   9.581
  197POPC   PO4 6684  10.007  26.342   9.505
  197POPC   GL1 6685   9.774  26.121   9.129
  197POPC   GL2 6686   9.646  25.764   9.070
  197POPC   C1A 6687   9.826  26.020   8.691
  197POPC   D2A 6688   9.622  26.151   8.344
  197POPC   C3A 6689   9.952  26.222   8.066
  197POPC   C4A 6690  10.116  26.274   7.669
  197POPC   C1B 6691   9.422  25.588   8.685
  197POPC   C2B 6692   9.438  25.617   8.265
  197POPC   C3B 6693   9.733  25.769   8.000
  197POPC   C4B 6694   9.730  25.802   7.587
  198POPC   NC3 6695   6.873  41.181   9.353
  198POPC   PO4 6696   6.717  41.927   9.525
  198POPC   GL1 6697   6.847  41.665   9.173
  198POPC   GL2 6698   6.524  41.446   9.113
  198POPC   C1A 6699   6.768  41.630   8.720
  198POPC   D2A 6700   6.610  41.703   8.324
  198POPC   C3A 6701   6.880  41.639   8.003
  198POPC   C4A 6702   6.942  41.228   7.813
  198POPC   C1B 6703   6.558  41.146   8.729
  198POPC   C2B 6704   6.610  41.182   8.290
  198POPC   C3B 6705   6.466  41.048   7.923
  198POPC   C4B 6706   6.373  41.170   7.532
  199POPC   NC3 6707  37.919  30.413   9.626
  199POPC   PO4 6708  37.344  30.736   9.891
  199POPC   GL1 6709  37.593  30.736   9.417
  199POPC   GL2 6710  37.701  30.421   9.168
  199POPC   C1A 6711  37.634  30.866   8.951
  199POPC   D2A 6712  37.558  31.005   8.513
  199POPC   C3A 6713  37.671  30.723   8.168
  199POPC   C4A 6714  37.695  30.721   7.728
  199POPC   C1B 6715  38.026  30.569   8.824
  199POPC   C2B 6716  38.124  30.741   8.429
  199POPC   C3B 6717  38.172  30.559   8.037
  199POPC   C4B 6718  38.138  30.490   7.617
  200POPC   NC3 6719  35.990  12.077   9.490
  200POPC   PO4 6720  36.496  12.575   9.470
  200POPC   GL1 6721  36.342  12.202   9.152
  200POPC   GL2 6722  35.982  12.238   9.041
  200POPC   C1A 6723  36.287  12.025   8.708
  200POPC   D2A 6724  36.091  11.783   8.376
  200POPC   C3A 6725  36.110  11.973   7.962
  200POPC   C4A 6726  36.373  12.221   7.701
  200POPC   C1B 6727  35.806  11.877   8.819
  200POPC   C2B 6728  35.603  11.906   8.429
  200POPC   C3B 6729  35.691  11.645   8.065
  200POPC   C4B 6730  35.804  11.711   7.653
  201POPC   NC3 6731   0.900  29.721   9.628
  201POPC   PO4 6732   1.565  29.804   9.423
  201POPC   GL1 6733   1.224  29.695   9.186
  201POPC   GL2 6734   0.970  29.961   9.188
  201POPC   C1A 6735   1.340  29.801   8.752
  201POPC   D2A 6736   1.602  29.664   8.403
  201POPC   C3A 6737   1.340  29.664   8.050
  201POPC   C4A 6738   1.266  29.768   7.623
  201POPC   C1B 6739   0.881  30.022   8.781
  201POPC   C2B 6740   1.004  29.977   8.352
  201POPC   C3B 6741   0.962  30.038   7.919
  201POPC   C4B 6742   1.056  30.220   7.500
  202POPC   NC3 6743  43.282  15.505   9.386
  202POPC   PO4 6744  43.268  16.114   9.489
  202POPC   GL1 6745  43.074  15.896   9.125
  202POPC   GL2 6746  43.361  15.796   8.964
  202POPC   C1A 6747  42.927  15.649   8.766
  202POPC   D2A 6748  42.726  15.470   8.427
  202POPC   C3A 6749  42.954  15.655   8.068
  202POPC   C4A 6750  43.161  15.967   7.789
  202POPC   C1B 6751  43.205  16.102   8.658
  202POPC   C2B 6752  43.333  16.196   8.238
  202POPC   C3B 6753  43.588  16.283   7.877
  202POPC   C4B 6754  43.445  16.229   7.456
  203POPC   NC3 6755  25.724  19.779   9.594
  203POPC   PO4 6756  25.063  19.934   9.401
  203POPC   GL1 6757  25.251  19.717   9.101
  203POPC   GL2 6758  25.558  19.850   9.126
  203POPC   C1A 6759  25.321  19.818   8.666
  203POPC   D2A 6760  25.430  19.577   8.326
  203POPC   C3A 6761  25.295  19.774   7.955
  203POPC   C4A 6762  25.191  19.847   7.534
  203POPC   C1B 6763  25.749  20.101   8.818
  203POPC   C2B 6764  25.859  20.090   8.402
  203POPC   C3B 6765  25.589  20.183   8.075
  203POPC   C4B 6766  25.556  20.216   7.643
  204POPC   NC3 6767   3.219  13.656   9.543
  204POPC   PO4 6768   3.866  13.324   9.547
  204POPC   GL1 6769   3.777  13.516   9.129
  204POPC   GL2 6770   3.543  13.787   9.138
  204POPC   C1A 6771   3.829  13.668   8.677
  204POPC   D2A 6772   3.753  13.818   8.255
  204POPC   C3A 6773   3.737  13.483   7.920
  204POPC   C4A 6774   3.689  13.465   7.447
  204POPC   C1B 6775   3.333  13.730   8.737
  204POPC   C2B 6776   3.389  13.487   8.387
  204POPC   C3B 6777   3.291  13.701   8.041
  204POPC   C4B 6778   3.249  13.536   7.677
  205POPC   NC3 6779  36.843  41.907   9.263
  205POPC   PO4 6780  36.746  41.312   9.556
  205POPC   GL1 6781  36.815  41.394   9.128
  205POPC   GL2 6782  37.151  41.182   9.026
  205POPC   C1A 6783  36.647  41.602   8.747
  205POPC   D2A 6784  36.553  41.508   8.350
  205POPC   C3A 6785  36.481  41.805   8.043
  205POPC   C4A 6786  36.540  41.632   7.639
  205POPC   C1B 6787  37.179  41.548   8.824
  205POPC   C2B 6788  37.053  41.748   8.455
  205POPC   C3B 6789  36.990  41.604   8.050
  205POPC   C4B 6790  37.271  41.652   7.705
  206POPC   NC3 6791  30.206  13.007   9.860
  206POPC   PO4 6792  30.394  12.578   9.490
  206POPC   GL1 6793  30.570  12.624   9.041
  206POPC   GL2 6794  30.705  12.323   8.931
  206POPC   C1A 6795  30.569  12.820   8.583
  206POPC   D2A 6796  30.561  13.116   8.189
  206POPC   C3A 6797  30.656  13.054   7.729
  206POPC   C4A 6798  30.721  13.370   7.387
  206POPC   C1B 6799  30.844  12.390   8.504
  206POPC   C2B 6800  30.655  12.571   8.144
  206POPC   C3B 6801  30.688  12.500   7.745
  206POPC   C4B 6802  30.719  12.583   7.331
  207POPC   NC3 6803  13.534  11.671   9.490
  207POPC   PO4 6804  13.875  12.214   9.593
  207POPC   GL1 6805  13.852  11.966   9.188
  207POPC   GL2 6806  13.495  11.890   9.049
  207POPC   C1A 6807  13.874  11.959   8.731
  207POPC   D2A 6808  13.794  12.137   8.349
  207POPC   C3A 6809  13.924  11.929   7.987
  207POPC   C4A 6810  13.858  12.173   7.663
  207POPC   C1B 6811  13.279  11.923   8.663
  207POPC   C2B 6812  13.037  12.001   8.326
  207POPC   C3B 6813  13.262  12.176   7.997
  207POPC   C4B 6814  13.449  11.893   7.751
  208POPC   NC3 6815  35.018   1.737   9.400
  208POPC   PO4 6816  34.751   1.067   9.389
  208POPC   GL1 6817  34.469   1.156   9.061
  208POPC   GL2 6818  34.432   1.494   9.086
  208POPC   C1A 6819  34.186   1.071   8.712
  208POPC   D2A 6820  34.033   1.118   8.276
  208POPC   C3A 6821  34.318   0.957   7.955
  208POPC   C4A 6822  34.780   0.977   7.805
  208POPC   C1B 6823  34.686   1.391   8.693
  208POPC   C2B 6824  34.604   1.210   8.306
  208POPC   C3B 6825  34.514   1.410   7.917
  208POPC   C4B 6826  34.755   1.494   7.565
  209POPC   NC3 6827  27.127   1.223   9.747
  209POPC   PO4 6828  26.646   1.399   9.267
  209POPC   GL1 6829  26.902   1.081   9.066
  209POPC   GL2 6830  26.616   0.962   8.903
  209POPC   C1A 6831  26.999   1.249   8.648
  209POPC   D2A 6832  26.748   1.085   8.299
  209POPC   C3A 6833  26.845   1.240   7.919
  209POPC   C4A 6834  26.628   1.577   7.725
  209POPC   C1B 6835  26.906   0.746   8.642
  209POPC   C2B 6836  26.774   0.573   8.268
  209POPC   C3B 6837  26.574   0.761   7.907
  209POPC   C4B 6838  26.408   1.122   7.684
  210POPC   NC3 6839   6.486   0.011   9.318
  210POPC   PO4 6840   6.718  44.437   9.700
  210POPC   GL1 6841   6.802  44.718   9.112
  210POPC   GL2 6842   6.793  44.448   8.840
  210POPC   C1A 6843   6.573  44.880   8.721
  210POPC   D2A 6844   6.665  44.663   8.353
  210POPC   C3A 6845   6.530  44.860   7.996
  210POPC   C4A 6846   6.712  44.836   7.610
  210POPC   C1B 6847   6.332  44.437   8.638
  210POPC   C2B 6848   6.268  44.426   8.185
  210POPC   C3B 6849   6.516  44.371   7.841
  210POPC   C4B 6850   6.840  44.280   7.545
  211POPC   NC3 6851  40.149  40.231   9.411
  211POPC   PO4 6852  39.731  39.692   9.464
  211POPC   GL1 6853  39.867  39.916   9.128
  211POPC   GL2 6854  40.193  39.750   9.158
  211POPC   C1A 6855  39.771  39.930   8.678
  211POPC   D2A 6856  39.773  40.173   8.295
  211POPC   C3A 6857  39.959  39.956   7.978
  211POPC   C4A 6858  39.904  39.546   7.799
  211POPC   C1B 6859  40.251  39.997   8.812
  211POPC   C2B 6860  40.251  39.954   8.402
  211POPC   C3B 6861  40.483  40.060   8.036
  211POPC   C4B 6862  40.276  40.228   7.662
  212POPC   NC3 6863  16.127   1.433   9.368
  212POPC   PO4 6864  15.789   0.817   9.485
  212POPC   GL1 6865  15.922   0.879   9.031
  212POPC   GL2 6866  16.233   1.056   9.011
  212POPC   C1A 6867  15.877   1.214   8.707
  212POPC   D2A 6868  15.649   1.160   8.361
  212POPC   C3A 6869  15.705   0.908   8.031
  212POPC   C4A 6870  15.854   1.187   7.727
  212POPC   C1B 6871  16.357   1.422   8.761
  212POPC   C2B 6872  16.227   1.555   8.373
  212POPC   C3B 6873  16.377   1.415   7.983
  212POPC   C4B 6874  16.362   1.172   7.599
  213POPC   NC3 6875   5.331  23.166   9.437
  213POPC   PO4 6876   4.758  22.871   9.518
  213POPC   GL1 6877   4.937  22.936   9.162
  213POPC   GL2 6878   5.209  22.699   9.177
  213POPC   C1A 6879   5.118  23.096   8.792
  213POPC   D2A 6880   4.951  23.079   8.387
  213POPC   C3A 6881   5.229  23.145   8.045
  213POPC   C4A 6882   5.006  23.196   7.690
  213POPC   C1B 6883   4.999  22.595   8.781
  213POPC   C2B 6884   5.182  22.626   8.383
  213POPC   C3B 6885   5.006  22.681   7.972
  213POPC   C4B 6886   5.242  22.570   7.623
  214POPC   NC3 6887   6.030  31.245   9.351
  214POPC   PO4 6888   5.649  31.512   9.857
  214POPC   GL1 6889   5.547  31.513   9.317
  214POPC   GL2 6890   5.486  31.284   9.028
  214POPC   C1A 6891   5.719  31.673   8.855
  214POPC   D2A 6892   5.956  31.541   8.468
  214POPC   C3A 6893   5.758  31.555   8.062
  214POPC   C4A 6894   5.928  31.548   7.654
  214POPC   C1B 6895   5.775  31.160   8.741
  214POPC   C2B 6896   5.775  31.070   8.334
  214POPC   C3B 6897   6.043  31.149   8.032
  214POPC   C4B 6898   5.823  31.064   7.709
  215POPC   NC3 6899  17.343  32.566   9.379
  215POPC   PO4 6900  17.265  31.943   9.202
  215POPC   GL1 6901  17.561  32.109   8.986
  215POPC   GL2 6902  17.640  32.422   8.997
  215POPC   C1A 6903  17.525  32.001   8.591
  215POPC   D2A 6904  17.151  32.047   8.371
  215POPC   C3A 6905  17.219  31.931   7.952
  215POPC   C4A 6906  17.416  32.054   7.577
  215POPC   C1B 6907  17.476  32.505   8.601
  215POPC   C2B 6908  17.517  32.358   8.188
  215POPC   C3B 6909  17.687  32.550   7.859
  215POPC   C4B 6910  17.800  32.415   7.486
  216POPC   NC3 6911  24.279  31.923   9.387
  216POPC   PO4 6912  24.623  32.491   9.269
  216POPC   GL1 6913  24.698  32.274   8.962
  216POPC   GL2 6914  24.588  31.974   8.993
  216POPC   C1A 6915  24.548  32.233   8.569
  216POPC   D2A 6916  24.403  32.473   8.290
  216POPC   C3A 6917  24.417  32.176   7.957
  216POPC   C4A 6918  24.523  32.173   7.556
  216POPC   C1B 6919  24.221  31.865   8.738
  216POPC   C2B 6920  24.100  31.948   8.315
  216POPC   C3B 6921  24.108  31.716   7.936
  216POPC   C4B 6922  24.252  31.742   7.523
  217POPC   NC3 6923  24.356   9.111   9.472
  217POPC   PO4 6924  23.686   9.010   9.480
  217POPC   GL1 6925  23.792   8.966   9.110
  217POPC   GL2 6926  24.013   9.265   9.097
  217POPC   C1A 6927  23.517   8.870   8.770
  217POPC   D2A 6928  23.574   8.732   8.379
  217POPC   C3A 6929  23.524   9.121   8.171
  217POPC   C4A 6930  23.336   9.002   7.813
  217POPC   C1B 6931  23.983   9.087   8.662
  217POPC   C2B 6932  24.042   9.037   8.219
  217POPC   C3B 6933  23.867   9.031   7.807
  217POPC   C4B 6934  23.865   9.347   7.451
  218POPC   NC3 6935   3.206  29.279   9.750
  218POPC   PO4 6936   2.704  28.965   9.422
  218POPC   GL1 6937   2.741  29.119   9.023
  218POPC   GL2 6938   2.872  29.442   9.113
  218POPC   C1A 6939   2.816  28.903   8.625
  218POPC   D2A 6940   2.950  28.845   8.188
  218POPC   C3A 6941   2.837  29.106   7.829
  218POPC   C4A 6942   2.809  28.971   7.380
  218POPC   C1B 6943   3.050  29.362   8.698
  218POPC   C2B 6944   2.889  29.374   8.276
  218POPC   C3B 6945   2.557  29.491   7.982
  218POPC   C4B 6946   2.551  29.467   7.523
  219POPC   NC3 6947  22.280  36.901   9.494
  219POPC   PO4 6948  21.659  36.721   9.397
  219POPC   GL1 6949  22.057  36.732   9.066
  219POPC   GL2 6950  22.382  36.964   9.008
  219POPC   C1A 6951  22.290  36.592   8.679
  219POPC   D2A 6952  22.095  36.706   8.292
  219POPC   C3A 6953  22.335  36.722   7.949
  219POPC   C4A 6954  22.393  36.601   7.565
  219POPC   C1B 6955  22.314  37.097   8.572
  219POPC   C2B 6956  22.245  37.190   8.123
  219POPC   C3B 6957  21.926  37.039   7.804
  219POPC   C4B 6958  21.657  37.215   7.453
  220POPC   NC3 6959   2.113  42.024   9.383
  220POPC   PO4 6960   1.912  42.676   9.451
  220POPC   GL1 6961   1.925  42.432   9.140
  220POPC   GL2 6962   1.568  42.417   9.081
  220POPC   C1A 6963   2.157  42.426   8.788
  220POPC   D2A 6964   1.964  42.199   8.467
  220POPC   C3A 6965   2.063  42.243   8.053
  220POPC   C4A 6966   2.240  42.381   7.690
  220POPC   C1B 6967   1.634  42.033   8.822
  220POPC   C2B 6968   1.605  41.746   8.480
  220POPC   C3B 6969   1.630  41.825   8.040
  220POPC   C4B 6970   1.900  41.898   7.701
  221POPC   NC3 6971   5.351  41.050   9.570
  221POPC   PO4 6972   4.886  40.617   9.560
  221POPC   GL1 6973   5.094  40.803   9.195
  221POPC   GL2 6974   4.851  41.094   9.204
  221POPC   C1A 6975   5.323  40.852   8.761
  221POPC   D2A 6976   5.594  40.830   8.389
  221POPC   C3A 6977   5.414  41.042   8.055
  221POPC   C4A 6978   5.209  40.813   7.778
  221POPC   C1B 6979   4.820  40.918   8.767
  221POPC   C2B 6980   4.974  40.914   8.332
  221POPC   C3B 6981   4.745  40.864   7.945
  221POPC   C4B 6982   4.778  40.877   7.506
  222POPC   NC3 6983  23.550  21.369   9.700
  222POPC   PO4 6984  23.904  21.915   9.697
  222POPC   GL1 6985  23.923  21.466   9.400
  222POPC   GL2 6986  23.545  21.507   9.217
  222POPC   C1A 6987  23.896  21.260   8.962
  222POPC   D2A 6988  23.934  21.281   8.499
  222POPC   C3A 6989  23.861  21.499   8.107
  222POPC   C4A 6990  23.849  21.245   7.747
  222POPC   C1B 6991  23.374  21.265   8.851
  222POPC   C2B 6992  23.362  21.108   8.416
  222POPC   C3B 6993  23.397  21.296   8.007
  222POPC   C4B 6994  23.522  21.597   7.651
  223POPC   NC3 6995  41.979  16.486   9.543
  223POPC   PO4 6996  42.703  16.594   9.458
  223POPC   GL1 6997  42.531  16.483   9.097
  223POPC   GL2 6998  42.270  16.298   9.179
  223POPC   C1A 6999  42.438  16.520   8.647
  223POPC   D2A 7000  42.142  16.805   8.435
  223POPC   C3A 7001  42.229  16.935   8.040
  223POPC   C4A 7002  42.399  17.066   7.633
  223POPC   C1B 7003  41.983  16.485   8.871
  223POPC   C2B 7004  41.996  16.328   8.458
  223POPC   C3B 7005  42.305  16.415   8.140
  223POPC   C4B 7006  42.356  16.545   7.718
  224POPC   NC3 7007  17.875  17.299   9.429
  224POPC   PO4 7008  18.560  17.410   9.512
  224POPC   GL1 7009  18.355  17.357   9.166
  224POPC   GL2 7010  18.568  17.170   8.981
  224POPC   C1A 7011  18.082  17.345   8.818
  224POPC   D2A 7012  17.970  17.507   8.476
  224POPC   C3A 7013  18.009  17.427   8.059
  224POPC   C4A 7014  18.193  17.649   7.714
  224POPC   C1B 7015  18.590  17.488   8.648
  224POPC   C2B 7016  18.500  17.562   8.214
  224POPC   C3B 7017  18.598  17.359   7.818
  224POPC   C4B 7018  18.483  17.314   7.369
  225POPC   NC3 7019  26.170  27.070   9.515
  225POPC   PO4 7020  26.032  26.428   9.521
  225POPC   GL1 7021  26.070  26.659   9.184
  225POPC   GL2 7022  25.776  26.499   9.026
  225POPC   C1A 7023  26.188  26.748   8.782
  225POPC   D2A 7024  26.166  27.045   8.476
  225POPC   C3A 7025  26.223  26.883   8.065
  225POPC   C4A 7026  25.970  26.799   7.747
  225POPC   C1B 7027  25.851  26.337   8.622
  225POPC   C2B 7028  25.912  26.481   8.197
  225POPC   C3B 7029  25.799  26.333   7.807
  225POPC   C4B 7030  25.752  26.484   7.362
  226POPC   NC3 7031  13.917  39.750   9.559
  226POPC   PO4 7032  14.377  40.207   9.704
  226POPC   GL1 7033  14.316  40.222   9.259
  226POPC   GL2 7034  14.198  39.905   9.177
  226POPC   C1A 7035  14.425  40.171   8.797
  226POPC   D2A 7036  14.635  39.862   8.476
  226POPC   C3A 7037  14.715  40.069   8.066
  226POPC   C4A 7038  14.423  40.362   7.884
  226POPC   C1B 7039  14.020  39.824   8.799
  226POPC   C2B 7040  14.140  39.648   8.420
  226POPC   C3B 7041  14.188  39.927   8.071
  226POPC   C4B 7042  14.397  39.877   7.689
  227POPC   NC3 7043  27.210  25.147   9.346
  227POPC   PO4 7044  26.598  24.998   9.437
  227POPC   GL1 7045  26.764  25.199   9.084
  227POPC   GL2 7046  26.974  25.512   9.069
  227POPC   C1A 7047  26.674  25.311   8.687
  227POPC   D2A 7048  26.847  25.281   8.320
  227POPC   C3A 7049  26.572  25.295   7.970
  227POPC   C4A 7050  26.877  25.060   7.776
  227POPC   C1B 7051  27.156  25.589   8.660
  227POPC   C2B 7052  27.335  25.502   8.241
  227POPC   C3B 7053  27.040  25.525   7.925
  227POPC   C4B 7054  26.825  25.633   7.582
  228POPC   NC3 7055  35.268  12.435   9.530
  228POPC   PO4 7056  35.620  11.877   9.674
  228POPC   GL1 7057  35.507  11.835   9.228
  228POPC   GL2 7058  35.496  12.164   9.165
  228POPC   C1A 7059  35.239  11.927   8.820
  228POPC   D2A 7060  35.001  11.773   8.459
  228POPC   C3A 7061  35.220  11.880   8.078
  228POPC   C4A 7062  35.283  11.731   7.670
  228POPC   C1B 7063  35.572  12.332   8.745
  228POPC   C2B 7064  35.488  12.412   8.323
  228POPC   C3B 7065  35.630  12.183   7.979
  228POPC   C4B 7066  35.404  12.232   7.644
  229POPC   NC3 7067  42.952  11.845   9.542
  229POPC   PO4 7068  43.146  12.325   9.964
  229POPC   GL1 7069  43.159  12.230   9.336
  229POPC   GL2 7070  43.298  11.929   9.112
  229POPC   C1A 7071  43.125  12.322   8.851
  229POPC   D2A 7072  43.276  12.106   8.466
  229POPC   C3A 7073  43.075  12.254   8.077
  229POPC   C4A 7074  43.245  12.180   7.672
  229POPC   C1B 7075  42.922  11.839   8.881
  229POPC   C2B 7076  42.713  11.706   8.527
  229POPC   C3B 7077  42.883  11.797   8.176
  229POPC   C4B 7078  42.876  11.871   7.779
  230POPC   NC3 7079  24.690   0.300   9.517
  230POPC   PO4 7080  24.217   0.730   9.474
  230POPC   GL1 7081  24.291   0.399   9.179
  230POPC   GL2 7082  24.373   0.021   9.168
  230POPC   C1A 7083  24.489   0.385   8.803
  230POPC   D2A 7084  24.451   0.703   8.531
  230POPC   C3A 7085  24.587   0.571   8.158
  230POPC   C4A 7086  24.481   0.637   7.731
  230POPC   C1B 7087  24.054   0.127   8.800
  230POPC   C2B 7088  24.135   0.342   8.373
  230POPC   C3B 7089  24.349   0.157   7.988
  230POPC   C4B 7090  24.354   0.163   7.511
  231POPC   NC3 7091  36.177  42.682   9.592
  231POPC   PO4 7092  36.586  42.160   9.546
  231POPC   GL1 7093  36.220  42.261   9.244
  231POPC   GL2 7094  35.967  42.537   9.145
  231POPC   C1A 7095  36.283  42.338   8.808
  231POPC   D2A 7096  36.466  42.573   8.470
  231POPC   C3A 7097  36.396  42.303   8.133
  231POPC   C4A 7098  36.439  42.280   7.716
  231POPC   C1B 7099  36.040  42.782   8.781
  231POPC   C2B 7100  35.977  42.602   8.374
  231POPC   C3B 7101  36.090  42.657   7.959
  231POPC   C4B 7102  35.928  42.359   7.718
  232POPC   NC3 7103  25.971  32.069   9.637
  232POPC   PO4 7104  26.434  32.577   9.689
  232POPC   GL1 7105  26.278  32.389   9.272
  232POPC   GL2 7106  26.253  32.022   9.195
  232POPC   C1A 7107  26.106  32.470   8.832
  232POPC   D2A 7108  25.890  32.792   8.596
  232POPC   C3A 7109  25.796  32.615   8.209
  232POPC   C4A 7110  25.864  32.264   7.921
  232POPC   C1B 7111  25.952  32.003   8.839
  232POPC   C2B 7112  26.060  32.072   8.374
  232POPC   C3B 7113  26.194  31.878   7.957
  232POPC   C4B 7114  25.925  31.560   7.751
  233POPC   NC3 7115  34.760  32.288   9.408
  233POPC   PO4 7116  34.351  31.861   9.692
  233POPC   GL1 7117  34.371  32.038   9.213
  233POPC   GL2 7118  34.641  31.973   8.956
  233POPC   C1A 7119  34.470  32.410   8.852
  233POPC   D2A 7120  34.540  32.266   8.436
  233POPC   C3A 7121  34.760  32.451   8.084
  233POPC   C4A 7122  34.580  32.573   7.715
  233POPC   C1B 7123  34.214  31.969   8.738
  233POPC   C2B 7124  34.095  31.951   8.304
  233POPC   C3B 7125  34.376  32.129   7.965
  233POPC   C4B 7126  34.530  32.003   7.563
  234POPC   NC3 7127  12.957  15.130   9.483
  234POPC   PO4 7128  12.385  14.815   9.391
  234POPC   GL1 7129  12.651  14.997   9.048
  234POPC   GL2 7130  12.990  14.925   9.026
  234POPC   C1A 7131  12.731  15.318   8.713
  234POPC   D2A 7132  13.159  15.381   8.490
  234POPC   C3A 7133  13.022  15.276   8.078
  234POPC   C4A 7134  12.706  15.283   7.761
  234POPC   C1B 7135  13.010  14.897   8.601
  234POPC   C2B 7136  12.858  14.790   8.203
  234POPC   C3B 7137  12.933  14.802   7.763
  234POPC   C4B 7138  13.162  14.751   7.366
  235POPC   NC3 7139  23.942  25.720   9.431
  235POPC   PO4 7140  23.371  26.149   9.607
  235POPC   GL1 7141  23.536  25.989   9.247
  235POPC   GL2 7142  23.850  26.174   9.215
  235POPC   C1A 7143  23.482  26.131   8.849
  235POPC   D2A 7144  23.628  26.369   8.501
  235POPC   C3A 7145  23.570  26.181   8.107
  235POPC   C4A 7146  23.303  26.132   7.749
  235POPC   C1B 7147  23.964  25.956   8.799
  235POPC   C2B 7148  24.015  26.062   8.375
  235POPC   C3B 7149  24.070  26.203   7.960
  235POPC   C4B 7150  23.793  26.008   7.664
  236POPC   NC3 7151  23.949  28.561   9.385
  236POPC   PO4 7152  23.261  28.467   9.197
  236POPC   GL1 7153  23.396  28.692   8.875
  236POPC   GL2 7154  23.768  28.604   8.879
  236POPC   C1A 7155  23.482  28.655   8.434
  236POPC   D2A 7156  23.889  28.498   8.359
  236POPC   C3A 7157  24.003  28.408   7.975
  236POPC   C4A 7158  23.696  28.477   7.728
  236POPC   C1B 7159  23.604  28.230   8.722
  236POPC   C2B 7160  23.332  28.118   8.426
  236POPC   C3B 7161  23.569  28.141   8.085
  236POPC   C4B 7162  23.513  27.985   7.700
  237POPC   NC3 7163  29.270   4.044   9.425
  237POPC   PO4 7164  28.868   3.445   9.540
  237POPC   GL1 7165  28.963   3.740   9.144
  237POPC   GL2 7166  29.338   3.723   9.006
  237POPC   C1A 7167  28.993   3.841   8.676
  237POPC   D2A 7168  29.075   3.490   8.403
  237POPC   C3A 7169  28.849   3.480   8.023
  237POPC   C4A 7170  28.892   3.827   7.713
  237POPC   C1B 7171  29.485   3.363   8.737
  237POPC   C2B 7172  29.444   3.140   8.340
  237POPC   C3B 7173  29.387   3.416   7.967
  237POPC   C4B 7174  29.104   3.379   7.596
  238POPC   NC3 7175   9.969  13.835   9.292
  238POPC   PO4 7176  10.118  14.493   9.471
  238POPC   GL1 7177   9.733  14.450   9.179
  238POPC   GL2 7178   9.455  14.222   9.253
  238POPC   C1A 7179   9.742  14.309   8.783
  238POPC   D2A 7180   9.878  14.385   8.389
  238POPC   C3A 7181   9.899  14.115   8.041
  238POPC   C4A 7182  10.262  14.100   7.807
  238POPC   C1B 7183   9.252  14.240   8.834
  238POPC   C2B 7184   9.372  14.458   8.439
  238POPC   C3B 7185   9.494  14.414   7.982
  238POPC   C4B 7186   9.430  14.014   7.758
  239POPC   NC3 7187  21.091  26.657  10.091
  239POPC   PO4 7188  21.400  26.840   9.484
  239POPC   GL1 7189  21.373  26.754   9.093
  239POPC   GL2 7190  21.480  26.448   9.055
  239POPC   C1A 7191  21.272  26.908   8.700
  239POPC   D2A 7192  21.243  27.236   8.416
  239POPC   C3A 7193  21.212  27.043   8.036
  239POPC   C4A 7194  21.435  26.725   7.822
  239POPC   C1B 7195  21.295  26.376   8.695
  239POPC   C2B 7196  21.276  26.560   8.309
  239POPC   C3B 7197  20.969  26.581   8.025
  239POPC   C4B 7198  21.044  26.374   7.680
  240POPC   NC3 7199  25.885  41.186   9.380
  240POPC   PO4 7200  26.403  41.633   9.421
  240POPC   GL1 7201  26.378  41.410   9.072
  240POPC   GL2 7202  26.016  41.492   9.017
  240POPC   C1A 7203  26.347  41.536   8.647
  240POPC   D2A 7204  26.185  41.534   8.254
  240POPC   C3A 7205  26.464  41.627   7.953
  240POPC   C4A 7206  26.614  41.389   7.682
  240POPC   C1B 7207  25.795  41.468   8.610
  240POPC   C2B 7208  25.716  41.718   8.241
  240POPC   C3B 7209  25.749  41.772   7.782
  240POPC   C4B 7210  25.712  41.913   7.308
  241POPC   NC3 7211  18.892  22.297   9.602
  241POPC   PO4 7212  19.370  21.918   9.534
  241POPC   GL1 7213  19.214  22.247   9.143
  241POPC   GL2 7214  18.870  22.342   9.096
  241POPC   C1A 7215  19.213  22.270   8.672
  241POPC   D2A 7216  19.062  21.957   8.349
  241POPC   C3A 7217  19.023  21.969   7.901
  241POPC   C4A 7218  19.272  21.808   7.596
  241POPC   C1B 7219  18.526  22.262   8.811
  241POPC   C2B 7220  18.374  22.304   8.389
  241POPC   C3B 7221  18.584  22.216   8.008
  241POPC   C4B 7222  18.566  21.886   7.695
  242POPC   NC3 7223  20.618  24.815   9.381
  242POPC   PO4 7224  20.889  24.302   9.731
  242POPC   GL1 7225  20.942  24.354   9.280
  242POPC   GL2 7226  21.071  24.056   9.176
  242POPC   C1A 7227  20.874  24.457   8.826
  242POPC   D2A 7228  20.774  24.517   8.383
  242POPC   C3A 7229  20.361  24.517   8.181
  242POPC   C4A 7230  20.286  24.780   7.816
  242POPC   C1B 7231  20.701  23.990   8.907
  242POPC   C2B 7232  20.516  24.070   8.508
  242POPC   C3B 7233  20.649  24.126   8.081
  242POPC   C4B 7234  20.395  24.246   7.733
  243POPC   NC3 7235  34.051  32.196   9.584
  243POPC   PO4 7236  33.435  32.425   9.656
  243POPC   GL1 7237  33.641  32.397   9.262
  243POPC   GL2 7238  33.882  32.156   9.099
  243POPC   C1A 7239  33.583  32.467   8.828
  243POPC   D2A 7240  33.791  32.331   8.472
  243POPC   C3A 7241  33.601  32.526   8.111
  243POPC   C4A 7242  33.694  32.278   7.748
  243POPC   C1B 7243  33.583  31.944   8.810
  243POPC   C2B 7244  33.510  31.748   8.426
  243POPC   C3B 7245  33.591  31.859   8.022
  243POPC   C4B 7246  33.989  31.862   7.798
  244POPC   NC3 7247  19.523  22.362   9.507
  244POPC   PO4 7248  19.957  21.788   9.553
  244POPC   GL1 7249  20.097  22.016   9.163
  244POPC   GL2 7250  19.874  22.318   9.140
  244POPC   C1A 7251  20.086  22.132   8.718
  244POPC   D2A 7252  20.260  22.246   8.327
  244POPC   C3A 7253  20.041  22.137   7.945
  244POPC   C4A 7254  19.777  21.954   7.628
  244POPC   C1B 7255  19.623  22.042   8.905
  244POPC   C2B 7256  19.594  21.888   8.484
  244POPC   C3B 7257  19.517  22.029   8.068
  244POPC   C4B 7258  19.379  22.300   7.758
  245POPC   NC3 7259  11.835  27.209   9.570
  245POPC   PO4 7260  12.207  27.793   9.432
  245POPC   GL1 7261  12.081  27.625   9.104
  245POPC   GL2 7262  12.404  27.673   8.907
  245POPC   C1A 7263  12.012  27.425   8.741
  245POPC   D2A 7264  12.304  27.423   8.408
  245POPC   C3A 7265  12.105  27.385   8.026
  245POPC   C4A 7266  11.753  27.310   7.777
  245POPC   C1B 7267  12.106  27.885   8.588
  245POPC   C2B 7268  11.952  27.861   8.169
  245POPC   C3B 7269  12.013  27.811   7.723
  245POPC   C4B 7270  12.336  27.841   7.385
  246POPC   NC3 7271  20.249  36.506   9.557
  246POPC   PO4 7272  19.682  36.889   9.531
  246POPC   GL1 7273  19.804  36.650   9.164
  246POPC   GL2 7274  19.494  36.764   9.038
  246POPC   C1A 7275  19.890  36.815   8.727
  246POPC   D2A 7276  19.889  37.222   8.465
  246POPC   C3A 7277  19.791  37.161   8.020
  246POPC   C4A 7278  19.765  36.729   7.881
  246POPC   C1B 7279  19.456  37.052   8.704
  246POPC   C2B 7280  19.535  36.863   8.319
  246POPC   C3B 7281  19.342  36.974   7.890
  246POPC   C4B 7282  19.561  37.032   7.517
  247POPC   NC3 7283  36.416  40.186   9.365
  247POPC   PO4 7284  35.790  39.991   9.556
  247POPC   GL1 7285  35.932  40.070   9.165
  247POPC   GL2 7286  36.112  39.775   9.054
  247POPC   C1A 7287  35.764  40.183   8.772
  247POPC   D2A 7288  35.961  40.481   8.484
  247POPC   C3A 7289  35.816  40.336   8.114
  247POPC   C4A 7290  36.032  40.161   7.799
  247POPC   C1B 7291  36.268  40.107   8.735
  247POPC   C2B 7292  36.318  40.108   8.284
  247POPC   C3B 7293  36.467  39.910   7.906
  247POPC   C4B 7294  36.743  39.782   7.587
  248POPC   NC3 7295  19.868  10.973   9.899
  248POPC   PO4 7296  19.775  11.434   9.419
  248POPC   GL1 7297  19.937  11.225   9.098
  248POPC   GL2 7298  19.608  11.235   8.964
  248POPC   C1A 7299  20.045  11.403   8.718
  248POPC   D2A 7300  19.927  11.612   8.344
  248POPC   C3A 7301  20.041  11.348   8.026
  248POPC   C4A 7302  20.029  10.969   7.795
  248POPC   C1B 7303  19.787  10.949   8.666
  248POPC   C2B 7304  19.733  10.867   8.230
  248POPC   C3B 7305  19.518  11.047   7.887
  248POPC   C4B 7306  19.598  11.034   7.431
  249POPC   NC3 7307  38.565  16.851   9.731
  249POPC   PO4 7308  38.035  16.555   9.551
  249POPC   GL1 7309  38.217  16.785   9.212
  249POPC   GL2 7310  38.573  16.696   9.155
  249POPC   C1A 7311  38.229  16.892   8.762
  249POPC   D2A 7312  38.605  16.840   8.491
  249POPC   C3A 7313  38.549  16.713   8.077
  249POPC   C4A 7314  38.496  16.983   7.743
  249POPC   C1B 7315  38.346  16.412   8.829
  249POPC   C2B 7316  38.243  16.462   8.421
  249POPC   C3B 7317  38.189  16.334   8.022
  249POPC   C4B 7318  38.228  16.545   7.671
  250POPC   NC3 7319  32.866  11.068   9.310
  250POPC   PO4 7320  32.986  10.444   9.626
  250POPC   GL1 7321  33.015  10.599   9.210
  250POPC   GL2 7322  32.656  10.532   9.141
  250POPC   C1A 7323  33.101  10.739   8.770
  250POPC   D2A 7324  32.906  10.465   8.492
  250POPC   C3A 7325  33.024  10.316   8.099
  250POPC   C4A 7326  33.287  10.321   7.722
  250POPC   C1B 7327  32.570  10.821   8.802
  250POPC   C2B 7328  32.741  10.984   8.445
  250POPC   C3B 7329  32.726  10.768   8.088
  250POPC   C4B 7330  32.833  10.589   7.720
  251POPC   NC3 7331  37.476  20.207   9.508
  251POPC   PO4 7332  37.716  19.590   9.457
  251POPC   GL1 7333  37.706  19.724   9.047
  251POPC   GL2 7334  37.746  20.047   9.112
  251POPC   C1A 7335  37.657  19.847   8.622
  251POPC   D2A 7336  37.702  19.615   8.295
  251POPC   C3A 7337  37.933  19.779   7.979
  251POPC   C4A 7338  37.943  19.726   7.539
  251POPC   C1B 7339  37.322  20.133   8.872
  251POPC   C2B 7340  37.315  20.181   8.404
  251POPC   C3B 7341  37.391  19.932   8.019
  251POPC   C4B 7342  37.520  19.990   7.580
  252POPC   NC3 7343  12.027  36.366   9.509
  252POPC   PO4 7344  11.916  35.782   9.744
  252POPC   GL1 7345  11.897  35.895   9.241
  252POPC   GL2 7346  12.207  36.034   9.112
  252POPC   C1A 7347  11.815  36.137   8.800
  252POPC   D2A 7348  12.045  36.128   8.398
  252POPC   C3A 7349  11.977  36.350   8.026
  252POPC   C4A 7350  11.977  36.214   7.612
  252POPC   C1B 7351  12.393  35.950   8.717
  252POPC   C2B 7352  12.594  36.198   8.378
  252POPC   C3B 7353  12.516  36.311   7.950
  252POPC   C4B 7354  12.385  35.947   7.746
  253POPC   NC3 7355  21.753  44.283   9.352
  253POPC   PO4 7356  21.642  44.922   9.425
  253POPC   GL1 7357  21.370  44.629   9.186
  253POPC   GL2 7358  21.546  44.403   8.907
  253POPC   C1A 7359  21.161  44.732   8.798
  253POPC   D2A 7360  21.293  44.569   8.400
  253POPC   C3A 7361  21.143  44.803   8.071
  253POPC   C4A 7362  21.031  44.729   7.672
  253POPC   C1B 7363  21.753  44.801   8.787
  253POPC   C2B 7364  21.912  44.908   8.381
  253POPC   C3B 7365  21.680  44.694   8.091
  253POPC   C4B 7366  21.535  44.775   7.711
  254POPC   NC3 7367  19.396   1.364   9.432
  254POPC   PO4 7368  18.885   1.008   9.671
  254POPC   GL1 7369  19.093   0.961   9.243
  254POPC   GL2 7370  19.415   0.787   9.198
  254POPC   C1A 7371  18.975   1.158   8.831
  254POPC   D2A 7372  18.809   1.276   8.412
  254POPC   C3A 7373  18.977   1.522   8.066
  254POPC   C4A 7374  19.082   1.350   7.655
  254POPC   C1B 7375  19.418   0.923   8.787
  254POPC   C2B 7376  19.326   1.164   8.442
  254POPC   C3B 7377  19.197   1.042   8.041
  254POPC   C4B 7378  19.420   0.782   7.749
  255POPC   NC3 7379  11.656  31.334   9.766
  255POPC   PO4 7380  11.179  31.497   9.341
  255POPC   GL1 7381  11.199  31.742   9.006
  255POPC   GL2 7382  11.466  31.511   8.900
  255POPC   C1A 7383  11.195  31.764   8.555
  255POPC   D2A 7384  11.395  31.464   8.294
  255POPC   C3A 7385  11.358  31.545   7.875
  255POPC   C4A 7386  11.521  31.905   7.746
  255POPC   C1B 7387  11.124  31.263   8.705
  255POPC   C2B 7388  10.984  31.163   8.297
  255POPC   C3B 7389  11.219  31.063   7.913
  255POPC   C4B 7390  11.225  31.221   7.482
  256POPC   NC3 7391  10.182  35.918   9.494
  256POPC   PO4 7392  10.706  36.345   9.399
  256POPC   GL1 7393  10.486  36.093   9.115
  256POPC   GL2 7394  10.284  36.367   9.066
  256POPC   C1A 7395  10.424  35.945   8.692
  256POPC   D2A 7396  10.595  36.096   8.297
  256POPC   C3A 7397  10.605  35.789   7.993
  256POPC   C4A 7398  10.421  35.805   7.623
  256POPC   C1B 7399  10.355  36.431   8.634
  256POPC   C2B 7400  10.080  36.203   8.354
  256POPC   C3B 7401  10.169  36.111   7.944
  256POPC   C4B 7402  10.588  36.255   7.774
  257POPC   NC3 7403   5.921   0.824   9.460
  257POPC   PO4 7404   5.550   1.533   9.465
  257POPC   GL1 7405   5.701   1.304   9.108
  257POPC   GL2 7406   6.011   1.123   9.082
  257POPC   C1A 7407   5.744   1.286   8.670
  257POPC   D2A 7408   5.653   1.119   8.305
  257POPC   C3A 7409   5.682   1.413   7.984
  257POPC   C4A 7410   5.998   1.641   7.737
  257POPC   C1B 7411   5.941   0.828   8.735
  257POPC   C2B 7412   6.070   0.839   8.299
  257POPC   C3B 7413   5.895   0.951   7.863
  257POPC   C4B 7414   5.935   1.027   7.397
  258POPC   NC3 7415  10.584  14.458   9.416
  258POPC   PO4 7416  10.412  13.839   9.445
  258POPC   GL1 7417  10.450  14.032   9.083
  258POPC   GL2 7418  10.175  14.224   9.042
  258POPC   C1A 7419  10.519  14.224   8.679
  258POPC   D2A 7420  10.367  14.270   8.287
  258POPC   C3A 7421  10.639  14.397   7.968
  258POPC   C4A 7422  10.698  14.313   7.557
  258POPC   C1B 7423  10.170  14.620   8.814
  258POPC   C2B 7424  10.172  14.801   8.405
  258POPC   C3B 7425  10.118  14.600   7.975
  258POPC   C4B 7426  10.248  14.524   7.534
  259POPC   NC3 7427  40.611  20.274   9.470
  259POPC   PO4 7428  41.085  19.738   9.430
  259POPC   GL1 7429  40.878  19.981   9.131
  259POPC   GL2 7430  40.997  20.323   9.115
  259POPC   C1A 7431  40.624  19.815   8.798
  259POPC   D2A 7432  40.500  19.535   8.430
  259POPC   C3A 7433  40.659  19.677   8.049
  259POPC   C4A 7434  40.865  19.599   7.678
  259POPC   C1B 7435  40.760  20.313   8.714
  259POPC   C2B 7436  40.463  20.091   8.401
  259POPC   C3B 7437  40.364  20.082   7.958
  259POPC   C4B 7438  40.725  20.082   7.756
  260POPC   NC3 7439  18.870   2.213   9.488
  260POPC   PO4 7440  19.412   1.816   9.357
  260POPC   GL1 7441  19.058   1.906   9.129
  260POPC   GL2 7442  18.897   1.607   9.087
  260POPC   C1A 7443  18.963   2.095   8.750
  260POPC   D2A 7444  19.270   2.097   8.418
  260POPC   C3A 7445  19.109   2.052   7.995
  260POPC   C4A 7446  18.860   2.259   7.679
  260POPC   C1B 7447  19.211   1.615   8.709
  260POPC   C2B 7448  19.429   1.634   8.290
  260POPC   C3B 7449  19.424   1.700   7.819
  260POPC   C4B 7450  19.417   1.637   7.336
  261POPC   NC3 7451  21.134   3.097   9.530
  261POPC   PO4 7452  21.132   2.556  10.021
  261POPC   GL1 7453  21.186   2.594   9.487
  261POPC   GL2 7454  21.478   2.781   9.291
  261POPC   C1A 7455  21.171   2.486   9.002
  261POPC   D2A 7456  21.261   2.437   8.545
  261POPC   C3A 7457  21.065   2.517   8.116
  261POPC   C4A 7458  21.334   2.696   7.752
  261POPC   C1B 7459  21.432   2.957   8.843
  261POPC   C2B 7460  21.731   3.085   8.477
  261POPC   C3B 7461  21.622   3.099   8.022
  261POPC   C4B 7462  21.808   3.173   7.623
  262POPC   NC3 7463  43.116  24.313   9.258
  262POPC   PO4 7464  42.743  24.601   9.734
  262POPC   GL1 7465  42.760  24.669   9.230
  262POPC   GL2 7466  43.061  24.876   9.222
  262POPC   C1A 7467  42.919  24.591   8.722
  262POPC   D2A 7468  43.219  24.303   8.453
  262POPC   C3A 7469  43.112  24.184   8.026
  262POPC   C4A 7470  42.825  24.120   7.686
  262POPC   C1B 7471  43.332  24.836   8.875
  262POPC   C2B 7472  43.276  25.019   8.474
  262POPC   C3B 7473  43.114  24.751   8.132
  262POPC   C4B 7474  43.169  24.670   7.699
  263POPC   NC3 7475  21.522  14.863   9.457
  263POPC   PO4 7476  21.066  15.272   9.828
  263POPC   GL1 7477  21.170  15.241   9.345
  263POPC   GL2 7478  21.420  15.478   9.239
  263POPC   C1A 7479  21.286  15.130   8.877
  263POPC   D2A 7480  21.044  15.012   8.494
  263POPC   C3A 7481  21.182  15.070   8.068
  263POPC   C4A 7482  21.223  15.284   7.681
  263POPC   C1B 7483  21.698  15.447   8.847
  263POPC   C2B 7484  21.825  15.200   8.497
  263POPC   C3B 7485  21.679  15.231   8.065
  263POPC   C4B 7486  21.704  15.051   7.656
  264POPC   NC3 7487   4.675  20.696   9.441
  264POPC   PO4 7488   4.020  20.616   9.468
  264POPC   GL1 7489   4.028  20.719   9.049
  264POPC   GL2 7490   3.842  20.428   8.957
  264POPC   C1A 7491   4.292  20.924   8.730
  264POPC   D2A 7492   4.534  20.709   8.407
  264POPC   C3A 7493   4.462  20.754   7.962
  264POPC   C4A 7494   4.421  20.648   7.520
  264POPC   C1B 7495   4.149  20.433   8.628
  264POPC   C2B 7496   4.272  20.309   8.214
  264POPC   C3B 7497   4.503  20.242   7.808
  264POPC   C4B 7498   4.564  20.202   7.332
  265POPC   NC3 7499  22.403  34.348   9.579
  265POPC   PO4 7500  21.969  34.854   9.502
  265POPC   GL1 7501  21.994  34.488   9.253
  265POPC   GL2 7502  22.314  34.519   9.095
  265POPC   C1A 7503  21.876  34.394   8.835
  265POPC   D2A 7504  21.996  34.614   8.449
  265POPC   C3A 7505  21.904  34.696   8.013
  265POPC   C4A 7506  22.231  34.668   7.680
  265POPC   C1B 7507  22.348  34.268   8.706
  265POPC   C2B 7508  22.442  34.031   8.353
  265POPC   C3B 7509  22.278  34.317   8.058
  265POPC   C4B 7510  21.937  34.242   7.775
  266POPC   NC3 7511   4.191   1.297   9.556
  266POPC   PO4 7512   4.344   0.596   9.488
  266POPC   GL1 7513   4.269   0.974   9.176
  266POPC   GL2 7514   4.383   0.935   8.831
  266POPC   C1A 7515   4.320   1.420   8.949
  266POPC   D2A 7516   4.347   1.430   8.513
  266POPC   C3A 7517   4.148   1.446   8.144
  266POPC   C4A 7518   4.199   1.369   7.708
  266POPC   C1B 7519   3.953   1.142   8.758
  266POPC   C2B 7520   3.749   1.195   8.371
  266POPC   C3B 7521   3.942   1.019   7.980
  266POPC   C4B 7522   3.788   0.765   7.684
  267POPC   NC3 7523   1.839  23.792   9.423
  267POPC   PO4 7524   2.576  23.759   9.355
  267POPC   GL1 7525   2.217  23.648   9.080
  267POPC   GL2 7526   2.032  23.943   8.989
  267POPC   C1A 7527   2.065  23.489   8.700
  267POPC   D2A 7528   2.019  23.297   8.307
  267POPC   C3A 7529   2.162  23.560   7.979
  267POPC   C4A 7530   1.774  23.684   7.844
  267POPC   C1B 7531   2.396  23.990   8.725
  267POPC   C2B 7532   2.346  23.911   8.319
  267POPC   C3B 7533   1.960  24.042   8.136
  267POPC   C4B 7534   1.898  24.185   7.722
  268POPC   NC3 7535  36.054  25.003   9.459
  268POPC   PO4 7536  36.351  25.577   9.469
  268POPC   GL1 7537  36.271  25.333   9.099
  268POPC   GL2 7538  35.896  25.311   9.076
  268POPC   C1A 7539  36.188  25.200   8.664
  268POPC   D2A 7540  35.899  25.355   8.334
  268POPC   C3A 7541  36.090  25.352   7.914
  268POPC   C4A 7542  36.385  24.997   7.891
  268POPC   C1B 7543  35.800  24.907   8.843
  268POPC   C2B 7544  35.871  24.728   8.421
  268POPC   C3B 7545  35.864  24.906   8.029
  268POPC   C4B 7546  35.643  25.066   7.688
  269POPC   NC3 7547  44.839  14.782   9.569
  269POPC   PO4 7548  44.672  15.450   9.631
  269POPC   GL1 7549  44.586  15.180   9.240
  269POPC   GL2 7550  44.925  15.119   9.169
  269POPC   C1A 7551  44.642  14.983   8.785
  269POPC   D2A 7552  44.992  14.763   8.561
  269POPC   C3A 7553  44.961  14.841   8.105
  269POPC   C4A 7554  44.587  14.914   7.828
  269POPC   C1B 7555  44.754  15.496   8.881
  269POPC   C2B 7556  44.677  15.587   8.440
  269POPC   C3B 7557  44.735  15.332   8.088
  269POPC   C4B 7558  44.985  15.263   7.740
  270POPC   NC3 7559  39.814   0.742   9.424
  270POPC   PO4 7560  40.341   0.267   9.432
  270POPC   GL1 7561  40.101   0.476   9.093
  270POPC   GL2 7562  39.715   0.386   9.057
  270POPC   C1A 7563  40.069   0.394   8.662
  270POPC   D2A 7564  40.120   0.604   8.299
  270POPC   C3A 7565  40.156   0.394   7.921
  270POPC   C4A 7566  40.324   0.507   7.522
  270POPC   C1B 7567  39.671   0.699   8.722
  270POPC   C2B 7568  39.566   0.762   8.270
  270POPC   C3B 7569  39.576   0.615   7.808
  270POPC   C4B 7570  39.833   0.426   7.514
  271POPC   NC3 7571  35.002  39.981   9.470
  271POPC   PO4 7572  34.342  39.765   9.499
  271POPC   GL1 7573  34.461  40.112   9.224
  271POPC   GL2 7574  34.800  40.101   9.024
  271POPC   C1A 7575  34.315  40.039   8.823
  271POPC   D2A 7576  34.548  39.752   8.581
  271POPC   C3A 7577  34.634  39.949   8.205
  271POPC   C4A 7578  34.626  39.848   7.789
  271POPC   C1B 7579  34.663  40.413   8.731
  271POPC   C2B 7580  34.351  40.504   8.411
  271POPC   C3B 7581  34.253  40.300   8.026
  271POPC   C4B 7582  34.408  40.273   7.607
  272POPC   NC3 7583  27.130   1.462   9.298
  272POPC   PO4 7584  27.497   0.910   9.548
  272POPC   GL1 7585  27.490   1.097   9.136
  272POPC   GL2 7586  27.784   1.279   9.113
  272POPC   C1A 7587  27.764   0.973   8.747
  272POPC   D2A 7588  27.841   1.209   8.388
  272POPC   C3A 7589  27.663   1.017   8.063
  272POPC   C4A 7590  27.318   1.111   7.792
  272POPC   C1B 7591  27.518   1.419   8.733
  272POPC   C2B 7592  27.361   1.374   8.289
  272POPC   C3B 7593  27.559   1.525   7.924
  272POPC   C4B 7594  27.921   1.360   7.800
  273POPC   NC3 7595  14.430  38.817   9.719
  273POPC   PO4 7596  14.245  39.430   9.489
  273POPC   GL1 7597  14.446  39.178   9.193
  273POPC   GL2 7598  14.359  39.453   8.963
  273POPC   C1A 7599  14.541  39.018   8.791
  273POPC   D2A 7600  14.522  39.260   8.402
  273POPC   C3A 7601  14.471  38.998   8.029
  273POPC   C4A 7602  14.527  38.972   7.629
  273POPC   C1B 7603  14.072  39.193   8.701
  273POPC   C2B 7604  14.026  39.159   8.262
  273POPC   C3B 7605  14.242  39.428   7.950
  273POPC   C4B 7606  14.338  39.418   7.500
  274POPC   NC3 7607  36.673  39.293   9.488
  274POPC   PO4 7608  37.013  39.813   9.707
  274POPC   GL1 7609  36.999  39.572   9.228
  274POPC   GL2 7610  37.057  39.195   9.160
  274POPC   C1A 7611  36.922  39.484   8.749
  274POPC   D2A 7612  36.832  39.730   8.383
  274POPC   C3A 7613  36.779  39.511   8.036
  274POPC   C4A 7614  36.905  39.321   7.679
  274POPC   C1B 7615  36.771  39.000   8.826
  274POPC   C2B 7616  36.635  39.147   8.417
  274POPC   C3B 7617  36.720  38.990   8.020
  274POPC   C4B 7618  37.146  38.909   7.868
  275POPC   NC3 7619   6.171  21.044   9.443
  275POPC   PO4 7620   5.594  21.385   9.517
  275POPC   GL1 7621   5.719  21.463   9.108
  275POPC   GL2 7622   5.713  21.148   8.999
  275POPC   C1A 7623   6.006  21.491   8.750
  275POPC   D2A 7624   6.038  21.559   8.296
  275POPC   C3A 7625   5.812  21.352   7.960
  275POPC   C4A 7626   6.094  21.499   7.644
  275POPC   C1B 7627   6.053  20.973   8.752
  275POPC   C2B 7628   6.313  21.137   8.415
  275POPC   C3B 7629   6.298  21.130   7.976
  275POPC   C4B 7630   6.004  20.921   7.707
  276POPC   NC3 7631  38.938  10.695   9.416
  276POPC   PO4 7632  39.261  10.070   9.484
  276POPC   GL1 7633  39.206  10.349   9.101
  276POPC   GL2 7634  39.233  10.719   9.030
  276POPC   C1A 7635  39.147  10.372   8.648
  276POPC   D2A 7636  38.958  10.172   8.292
  276POPC   C3A 7637  39.172  10.300   7.904
  276POPC   C4A 7638  39.084  10.396   7.446
  276POPC   C1B 7639  39.328  10.868   8.665
  276POPC   C2B 7640  39.463  10.652   8.340
  276POPC   C3B 7641  39.452  10.775   7.934
  276POPC   C4B 7642  39.057  10.835   7.728
  277POPC   NC3 7643  27.520  37.867   9.611
  277POPC   PO4 7644  27.579  37.196   9.716
  277POPC   GL1 7645  27.642  37.344   9.262
  277POPC   GL2 7646  27.484  37.661   9.133
  277POPC   C1A 7647  27.729  37.327   8.793
  277POPC   D2A 7648  27.906  37.105   8.424
  277POPC   C3A 7649  27.934  37.402   8.095
  277POPC   C4A 7650  27.729  37.469   7.691
  277POPC   C1B 7651  27.197  37.468   8.807
  277POPC   C2B 7652  26.992  37.453   8.417
  277POPC   C3B 7653  27.177  37.448   7.996
  277POPC   C4B 7654  27.348  37.827   7.836
  278POPC   NC3 7655  40.187  27.102   9.487
  278POPC   PO4 7656  39.898  27.835   9.567
  278POPC   GL1 7657  40.046  27.719   9.181
  278POPC   GL2 7658  40.345  27.922   9.186
  278POPC   C1A 7659  39.995  27.553   8.777
  278POPC   D2A 7660  39.886  27.734   8.387
  278POPC   C3A 7661  39.758  27.441   8.117
  278POPC   C4A 7662  39.992  27.222   7.816
  278POPC   C1B 7663  40.459  27.805   8.775
  278POPC   C2B 7664  40.399  27.547   8.429
  278POPC   C3B 7665  40.291  27.635   8.024
  278POPC   C4B 7666  39.980  27.748   7.771
  279POPC   NC3 7667  31.146  40.848   9.182
  279POPC   PO4 7668  31.598  40.496   9.440
  279POPC   GL1 7669  31.642  40.696   9.065
  279POPC   GL2 7670  31.772  41.011   9.095
  279POPC   C1A 7671  31.467  40.692   8.656
  279POPC   D2A 7672  31.352  40.402   8.358
  279POPC   C3A 7673  31.457  40.521   7.982
  279POPC   C4A 7674  31.241  40.445   7.636
  279POPC   C1B 7675  31.700  41.135   8.660
  279POPC   C2B 7676  31.522  41.038   8.246
  279POPC   C3B 7677  31.705  40.942   7.839
  279POPC   C4B 7678  31.839  41.084   7.433
  280POPC   NC3 7679   3.923  31.881   9.298
  280POPC   PO4 7680   3.454  31.587   9.728
  280POPC   GL1 7681   3.359  31.503   9.237
  280POPC   GL2 7682   3.454  31.796   9.091
  280POPC   C1A 7683   3.365  31.402   8.766
  280POPC   D2A 7684   3.637  31.564   8.387
  280POPC   C3A 7685   3.710  31.275   8.060
  280POPC   C4A 7686   3.502  31.019   7.762
  280POPC   C1B 7687   3.375  31.903   8.662
  280POPC   C2B 7688   3.127  31.651   8.371
  280POPC   C3B 7689   3.200  31.417   8.016
  280POPC   C4B 7690   3.436  31.511   7.681
  281POPC   NC3 7691   6.008  40.303   9.462
  281POPC   PO4 7692   5.818  39.706   9.498
  281POPC   GL1 7693   6.099  39.872   9.192
  281POPC   GL2 7694   5.953  39.620   8.986
  281POPC   C1A 7695   6.109  40.073   8.818
  281POPC   D2A 7696   5.933  39.831   8.470
  281POPC   C3A 7697   5.795  40.042   8.097
  281POPC   C4A 7698   6.039  40.226   7.784
  281POPC   C1B 7699   5.629  39.406   8.752
  281POPC   C2B 7700   5.437  39.366   8.336
  281POPC   C3B 7701   5.522  39.598   7.956
  281POPC   C4B 7702   5.868  39.760   7.664
  282POPC   NC3 7703   6.884  28.524   9.627
  282POPC   PO4 7704   6.681  27.894   9.787
  282POPC   GL1 7705   6.660  28.111   9.351
  282POPC   GL2 7706   6.525  28.459   9.260
  282POPC   C1A 7707   6.805  28.072   8.905
  282POPC   D2A 7708   6.631  28.221   8.509
  282POPC   C3A 7709   6.613  28.132   8.050
  282POPC   C4A 7710   6.403  28.348   7.723
  282POPC   C1B 7711   6.894  28.552   8.981
  282POPC   C2B 7712   6.953  28.621   8.554
  282POPC   C3B 7713   6.668  28.630   8.180
  282POPC   C4B 7714   6.859  28.549   7.783
  283POPC   NC3 7715  37.902  35.842   9.439
  283POPC   PO4 7716  37.885  36.466   9.360
  283POPC   GL1 7717  37.828  36.150   9.034
  283POPC   GL2 7718  37.903  35.789   8.948
  283POPC   C1A 7719  37.717  36.149   8.613
  283POPC   D2A 7720  37.545  36.325   8.236
  283POPC   C3A 7721  37.853  36.222   7.922
  283POPC   C4A 7722  37.916  36.275   7.486
  283POPC   C1B 7723  37.701  35.604   8.597
  283POPC   C2B 7724  37.689  35.746   8.182
  283POPC   C3B 7725  37.415  35.950   7.899
  283POPC   C4B 7726  37.422  35.947   7.429
  284POPC   NC3 7727  34.547  11.158   9.526
  284POPC   PO4 7728  34.156  11.660   9.444
  284POPC   GL1 7729  34.325  11.389   9.103
  284POPC   GL2 7730  34.727  11.313   9.086
  284POPC   C1A 7731  34.453  11.278   8.678
  284POPC   D2A 7732  34.827  11.279   8.443
  284POPC   C3A 7733  34.709  11.336   8.031
  284POPC   C4A 7734  34.406  11.275   7.726
  284POPC   C1B 7735  34.930  10.961   8.887
  284POPC   C2B 7736  34.983  10.796   8.488
  284POPC   C3B 7737  34.989  10.908   8.092
  284POPC   C4B 7738  34.753  10.873   7.783
  285POPC   NC3 7739   0.963  27.939   9.273
  285POPC   PO4 7740   1.247  27.486   9.692
  285POPC   GL1 7741   1.280  27.492   9.211
  285POPC   GL2 7742   1.210  27.726   8.916
  285POPC   C1A 7743   1.381  27.295   8.779
  285POPC   D2A 7744   1.083  27.454   8.465
  285POPC   C3A 7745   1.218  27.674   8.108
  285POPC   C4A 7746   1.211  27.486   7.717
  285POPC   C1B 7747   1.554  27.876   8.715
  285POPC   C2B 7748   1.687  27.981   8.334
  285POPC   C3B 7749   1.494  28.100   7.970
  285POPC   C4B 7750   1.466  27.906   7.569
  286POPC   NC3 7751   5.853  31.852   9.541
  286POPC   PO4 7752   6.180  32.444   9.613
  286POPC   GL1 7753   5.938  32.457   9.223
  286POPC   GL2 7754   5.884  32.114   9.109
  286POPC   C1A 7755   5.980  32.531   8.778
  286POPC   D2A 7756   6.189  32.433   8.389
  286POPC   C3A 7757   5.948  32.463   8.028
  286POPC   C4A 7758   5.822  32.525   7.620
  286POPC   C1B 7759   6.084  32.012   8.692
  286POPC   C2B 7760   5.893  32.012   8.302
  286POPC   C3B 7761   5.991  31.983   7.909
  286POPC   C4B 7762   5.954  32.043   7.489
  287POPC   NC3 7763   5.508  15.860   9.310
  287POPC   PO4 7764   5.025  15.857   9.716
  287POPC   GL1 7765   4.977  15.772   9.250
  287POPC   GL2 7766   5.201  15.559   9.057
  287POPC   C1A 7767   4.989  15.964   8.813
  287POPC   D2A 7768   4.883  16.081   8.371
  287POPC   C3A 7769   5.130  16.135   7.975
  287POPC   C4A 7770   4.971  16.041   7.578
  287POPC   C1B 7771   5.273  15.577   8.649
  287POPC   C2B 7772   5.217  15.699   8.217
  287POPC   C3B 7773   5.312  15.675   7.780
  287POPC   C4B 7774   5.699  15.595   7.641
  288POPC   NC3 7775  37.540  27.021   9.483
  288POPC   PO4 7776  38.186  26.955   9.221
  288POPC   GL1 7777  37.799  27.050   9.014
  288POPC   GL2 7778  37.518  26.784   9.036
  288POPC   C1A 7779  37.821  27.035   8.563
  288POPC   D2A 7780  38.038  26.676   8.343
  288POPC   C3A 7781  37.956  26.715   7.919
  288POPC   C4A 7782  37.666  27.054   7.822
  288POPC   C1B 7783  37.630  26.579   8.665
  288POPC   C2B 7784  37.519  26.717   8.241
  288POPC   C3B 7785  37.490  26.496   7.859
  288POPC   C4B 7786  37.648  26.602   7.500
  289POPC   NC3 7787  27.290  11.751   9.670
  289POPC   PO4 7788  26.618  11.850   9.456
  289POPC   GL1 7789  26.784  12.017   9.069
  289POPC   GL2 7790  26.536  12.294   9.014
  289POPC   C1A 7791  26.770  12.005   8.614
  289POPC   D2A 7792  26.924  12.249   8.257
  289POPC   C3A 7793  27.127  12.003   7.983
  289POPC   C4A 7794  26.995  11.895   7.576
  289POPC   C1B 7795  26.336  12.291   8.680
  289POPC   C2B 7796  26.354  12.071   8.289
  289POPC   C3B 7797  26.620  11.975   7.924
  289POPC   C4B 7798  26.557  12.096   7.463
  290POPC   NC3 7799  16.220  44.013   9.276
  290POPC   PO4 7800  15.739  43.633   9.519
  290POPC   GL1 7801  15.723  43.935   9.181
  290POPC   GL2 7802  15.901  43.692   9.023
  290POPC   C1A 7803  15.628  44.028   8.741
  290POPC   D2A 7804  15.715  43.770   8.356
  290POPC   C3A 7805  15.564  43.954   7.959
  290POPC   C4A 7806  15.761  44.090   7.581
  290POPC   C1B 7807  16.113  43.860   8.672
  290POPC   C2B 7808  16.294  44.035   8.347
  290POPC   C3B 7809  16.097  43.964   7.990
  290POPC   C4B 7810  16.271  44.115   7.647
  291POPC   NC3 7811  13.220  34.290   9.151
  291POPC   PO4 7812  13.696  34.604   9.485
  291POPC   GL1 7813  13.666  34.649   9.078
  291POPC   GL2 7814  13.395  34.897   9.085
  291POPC   C1A 7815  13.721  34.350   8.711
  291POPC   D2A 7816  13.483  34.222   8.338
  291POPC   C3A 7817  13.500  34.548   8.020
  291POPC   C4A 7818  13.740  34.521   7.636
  291POPC   C1B 7819  13.452  34.804   8.639
  291POPC   C2B 7820  13.488  35.060   8.284
  291POPC   C3B 7821  13.310  35.041   7.889
  291POPC   C4B 7822  13.286  34.743   7.570
  292POPC   NC3 7823  23.505   3.963   9.428
  292POPC   PO4 7824  23.551   3.319   9.539
  292POPC   GL1 7825  23.642   3.452   9.156
  292POPC   GL2 7826  23.992   3.287   9.143
  292POPC   C1A 7827  23.370   3.425   8.789
  292POPC   D2A 7828  23.450   3.313   8.336
  292POPC   C3A 7829  23.563   3.681   8.068
  292POPC   C4A 7830  23.530   3.637   7.617
  292POPC   C1B 7831  24.012   3.612   8.841
  292POPC   C2B 7832  23.949   3.499   8.427
  292POPC   C3B 7833  23.923   3.326   8.025
  292POPC   C4B 7834  24.019   3.593   7.681
  293POPC   NC3 7835   1.149  27.036   9.663
  293POPC   PO4 7836   1.702  26.584   9.606
  293POPC   GL1 7837   1.411  26.657   9.237
  293POPC   GL2 7838   1.234  26.978   9.170
  293POPC   C1A 7839   1.570  26.799   8.808
  293POPC   D2A 7840   1.466  26.941   8.385
  293POPC   C3A 7841   1.189  26.615   8.229
  293POPC   C4A 7842   0.895  26.570   7.920
  293POPC   C1B 7843   0.912  27.174   8.901
  293POPC   C2B 7844   0.943  26.969   8.489
  293POPC   C3B 7845   1.069  27.101   8.067
  293POPC   C4B 7846   0.859  27.097   7.684
  294POPC   NC3 7847  12.852   6.735   9.462
  294POPC   PO4 7848  12.395   6.208   9.473
  294POPC   GL1 7849  12.536   6.520   9.124
  294POPC   GL2 7850  12.533   6.896   9.114
  294POPC   C1A 7851  12.901   6.631   8.833
  294POPC   D2A 7852  13.034   6.525   8.425
  294POPC   C3A 7853  13.088   6.454   7.968
  294POPC   C4A 7854  12.714   6.431   7.747
  294POPC   C1B 7855  12.583   7.003   8.689
  294POPC   C2B 7856  12.869   6.978   8.328
  294POPC   C3B 7857  12.938   6.927   7.883
  294POPC   C4B 7858  13.123   6.937   7.461
  295POPC   NC3 7859  12.550  32.107   9.455
  295POPC   PO4 7860  13.236  32.337   9.484
  295POPC   GL1 7861  12.999  32.263   9.104
  295POPC   GL2 7862  13.056  31.952   9.019
  295POPC   C1A 7863  12.862  32.490   8.720
  295POPC   D2A 7864  12.767  32.552   8.323
  295POPC   C3A 7865  12.948  32.266   8.070
  295POPC   C4A 7866  12.873  32.149   7.657
  295POPC   C1B 7867  12.839  31.950   8.648
  295POPC   C2B 7868  12.730  31.834   8.237
  295POPC   C3B 7869  12.441  31.976   7.970
  295POPC   C4B 7870  12.378  32.010   7.554
  296POPC   NC3 7871  29.892   4.235   9.481
  296POPC   PO4 7872  29.616   4.816   9.210
  296POPC   GL1 7873  29.966   4.501   9.042
  296POPC   GL2 7874  30.022   4.101   9.021
  296POPC   C1A 7875  29.902   4.365   8.611
  296POPC   D2A 7876  29.692   4.339   8.203
  296POPC   C3A 7877  30.009   4.393   7.848
  296POPC   C4A 7878  30.115   4.434   7.396
  296POPC   C1B 7879  29.863   3.859   8.683
  296POPC   C2B 7880  29.994   3.937   8.290
  296POPC   C3B 7881  29.798   3.911   7.923
  296POPC   C4B 7882  29.931   3.973   7.545
  297POPC   NC3 7883  31.627  32.920   9.548
  297POPC   PO4 7884  32.381  32.924   9.476
  297POPC   GL1 7885  32.074  32.996   9.160
  297POPC   GL2 7886  31.947  32.666   9.069
  297POPC   C1A 7887  32.177  33.115   8.727
  297POPC   D2A 7888  32.437  33.020   8.374
  297POPC   C3A 7889  32.385  33.115   7.948
  297POPC   C4A 7890  32.452  32.841   7.567
  297POPC   C1B 7891  31.732  32.884   8.716
  297POPC   C2B 7892  31.920  32.978   8.299
  297POPC   C3B 7893  31.985  32.783   7.917
  297POPC   C4B 7894  32.014  33.049   7.597
  298POPC   NC3 7895  38.656  28.167   9.266
  298POPC   PO4 7896  38.044  28.483   9.461
  298POPC   GL1 7897  38.141  28.392   9.068
  298POPC   GL2 7898  38.434  28.572   9.020
  298POPC   C1A 7899  38.204  28.415   8.601
  298POPC   D2A 7900  38.575  28.256   8.376
  298POPC   C3A 7901  38.649  28.317   7.956
  298POPC   C4A 7902  38.349  28.079   7.741
  298POPC   C1B 7903  38.793  28.545   8.731
  298POPC   C2B 7904  38.827  28.708   8.344
  298POPC   C3B 7905  38.422  28.753   8.180
  298POPC   C4B 7906  38.227  28.575   7.824
  299POPC   NC3 7907  34.466  37.490   9.530
  299POPC   PO4 7908  34.283  38.154   9.400
  299POPC   GL1 7909  34.488  37.851   9.119
  299POPC   GL2 7910  34.813  37.686   9.156
  299POPC   C1A 7911  34.545  37.687   8.699
  299POPC   D2A 7912  34.401  37.466   8.359
  299POPC   C3A 7913  34.365  37.661   8.004
  299POPC   C4A 7914  34.447  37.584   7.599
  299POPC   C1B 7915  35.020  37.499   8.778
  299POPC   C2B 7916  34.920  37.432   8.343
  299POPC   C3B 7917  34.894  37.570   7.921
  299POPC   C4B 7918  35.219  37.843   7.759
  300POPC   NC3 7919  11.885  20.447   9.653
  300POPC   PO4 7920  12.418  20.893   9.628
  300POPC   GL1 7921  12.338  20.779   9.192
  300POPC   GL2 7922  12.084  20.561   9.208
  300POPC   C1A 7923  12.233  20.767   8.745
  300POPC   D2A 7924  12.138  20.485   8.426
  300POPC   C3A 7925  12.081  20.640   8.039
  300POPC   C4A 7926  12.042  20.384   7.732
  300POPC   C1B 7927  11.812  20.880   9.012
  300POPC   C2B 7928  11.787  20.980   8.566
  300POPC   C3B 7929  11.684  20.936   8.125
  300POPC   C4B 7930  11.648  20.711   7.731
  301POPC   NC3 7931  32.842   8.988   9.613
  301POPC   PO4 7932  32.159   9.025   9.613
  301POPC   GL1 7933  32.324   8.959   9.178
  301POPC   GL2 7934  32.096   8.736   9.024
  301POPC   C1A 7935  32.426   9.025   8.738
  301POPC   D2A 7936  32.149   9.078   8.377
  301POPC   C3A 7937  32.297   9.022   7.959
  301POPC   C4A 7938  32.468   8.787   7.614
  301POPC   C1B 7939  32.046   8.638   8.636
  301POPC   C2B 7940  31.817   8.683   8.275
  301POPC   C3B 7941  32.000   8.616   7.877
  301POPC   C4B 7942  32.006   8.683   7.417
  302POPC   NC3 7943  37.870  40.768   9.530
  302POPC   PO4 7944  37.240  40.446   9.479
  302POPC   GL1 7945  37.467  40.737   9.098
  302POPC   GL2 7946  37.786  40.958   9.039
  302POPC   C1A 7947  37.774  40.560   8.754
  302POPC   D2A 7948  37.857  40.491   8.323
  302POPC   C3A 7949  37.630  40.754   8.052
  302POPC   C4A 7950  37.789  40.706   7.655
  302POPC   C1B 7951  37.559  41.133   8.692
  302POPC   C2B 7952  37.648  41.319   8.278
  302POPC   C3B 7953  37.610  41.244   7.814
  302POPC   C4B 7954  37.348  40.933   7.581
  303POPC   NC3 7955  13.808  37.130   9.340
  303POPC   PO4 7956  13.590  37.827   9.470
  303POPC   GL1 7957  13.575  37.566   9.142
  303POPC   GL2 7958  13.340  37.324   9.175
  303POPC   C1A 7959  13.697  37.632   8.742
  303POPC   D2A 7960  13.636  37.934   8.398
  303POPC   C3A 7961  13.630  37.731   7.995
  303POPC   C4A 7962  13.849  37.875   7.663
  303POPC   C1B 7963  13.262  37.332   8.778
  303POPC   C2B 7964  13.371  37.465   8.374
  303POPC   C3B 7965  13.337  37.308   7.969
  303POPC   C4B 7966  13.550  37.375   7.598
  304POPC   NC3 7967  25.213  27.386   9.481
  304POPC   PO4 7968  25.317  28.081   9.488
  304POPC   GL1 7969  25.264  27.768   9.149
  304POPC   GL2 7970  24.995  27.544   9.039
  304POPC   C1A 7971  25.446  27.534   8.801
  304POPC   D2A 7972  25.357  27.271   8.437
  304POPC   C3A 7973  25.500  27.461   8.080
  304POPC   C4A 7974  25.216  27.554   7.786
  304POPC   C1B 7975  24.946  27.891   8.752
  304POPC   C2B 7976  24.707  28.038   8.395
  304POPC   C3B 7977  24.914  27.966   8.031
  304POPC   C4B 7978  24.996  27.992   7.623
  305POPC   NC3 7979  25.456   1.544   9.599
  305POPC   PO4 7980  26.002   2.058   9.656
  305POPC   GL1 7981  25.991   2.038   9.218
  305POPC   GL2 7982  25.691   1.837   9.247
  305POPC   C1A 7983  26.202   1.901   8.841
  305POPC   D2A 7984  26.368   2.141   8.500
  305POPC   C3A 7985  26.189   2.004   8.079
  305POPC   C4A 7986  26.244   2.284   7.729
  305POPC   C1B 7987  25.651   1.898   8.826
  305POPC   C2B 7988  25.821   1.730   8.474
  305POPC   C3B 7989  25.692   1.826   8.053
  305POPC   C4B 7990  25.833   1.973   7.683
  306POPC   NC3 7991   0.529  44.165   9.560
  306POPC   PO4 7992   0.429  43.485   9.514
  306POPC   GL1 7993   0.222  43.642   9.128
  306POPC   GL2 7994   0.117  44.013   9.191
  306POPC   C1A 7995   0.368  43.522   8.689
  306POPC   D2A 7996   0.740  43.628   8.419
  306POPC   C3A 7997   0.582  43.667   7.999
  306POPC   C4A 7998   0.286  43.499   7.688
  306POPC   C1B 7999   0.252  44.015   8.747
  306POPC   C2B 8000   0.234  43.915   8.288
  306POPC   C3B 8001   0.304  44.045   7.833
  306POPC   C4B 8002   0.524  44.252   7.487
  307POPC   NC3 8003  24.317  36.514   9.761
  307POPC   PO4 8004  24.700  36.000   9.583
  307POPC   GL1 8005  24.519  35.934   9.115
  307POPC   GL2 8006  24.223  35.765   9.077
  307POPC   C1A 8007  24.657  36.163   8.729
  307POPC   D2A 8008  24.869  36.291   8.394
  307POPC   C3A 8009  24.667  36.181   8.022
  307POPC   C4A 8010  24.863  36.108   7.635
  307POPC   C1B 8011  24.181  36.013   8.673
  307POPC   C2B 8012  24.187  36.216   8.257
  307POPC   C3B 8013  24.208  36.387   7.815
  307POPC   C4B 8014  24.092  36.459   7.355
  308POPC   NC3 8015   9.454  42.604   9.463
  308POPC   PO4 8016   9.898  43.180   9.633
  308POPC   GL1 8017   9.855  42.903   9.234
  308POPC   GL2 8018  10.007  43.123   8.993
  308POPC   C1A 8019   9.679  42.829   8.766
  308POPC   D2A 8020   9.729  43.008   8.288
  308POPC   C3A 8021   9.534  42.986   7.872
  308POPC   C4A 8022   9.926  42.906   7.596
  308POPC   C1B 8023   9.735  43.340   8.658
  308POPC   C2B 8024   9.594  43.478   8.224
  308POPC   C3B 8025   9.844  43.396   7.856
  308POPC   C4B 8026   9.736  43.330   7.418
  309POPC   NC3 8027   0.809  28.750   9.577
  309POPC   PO4 8028   0.118  28.829   9.465
  309POPC   GL1 8029   0.490  29.007   9.248
  309POPC   GL2 8030   0.677  28.726   9.094
  309POPC   C1A 8031   0.493  29.219   8.839
  309POPC   D2A 8032   0.500  29.487   8.481
  309POPC   C3A 8033   0.349  29.362   8.093
  309POPC   C4A 8034   0.599  29.143   7.814
  309POPC   C1B 8035   0.352  28.735   8.812
  309POPC   C2B 8036   0.278  28.954   8.432
  309POPC   C3B 8037   0.181  28.873   8.025
  309POPC   C4B 8038   0.262  28.807   7.621
  310POPC   NC3 8039  30.680  23.761   9.458
  310POPC   PO4 8040  30.195  23.379   9.423
  310POPC   GL1 8041  30.459  23.515   9.051
  310POPC   GL2 8042  30.823  23.549   9.017
  310POPC   C1A 8043  30.526  23.639   8.582
  310POPC   D2A 8044  30.420  23.585   8.103
  310POPC   C3A 8045  30.318  23.923   7.845
  310POPC   C4A 8046  30.459  24.321   7.658
  310POPC   C1B 8047  31.030  23.496   8.623
  310POPC   C2B 8048  30.921  23.721   8.245
  310POPC   C3B 8049  30.847  23.601   7.827
  310POPC   C4B 8050  31.141  23.578   7.469
  311POPC   NC3 8051  31.247  11.129   9.402
  311POPC   PO4 8052  31.807  11.605   9.523
  311POPC   GL1 8053  31.772  11.341   9.198
  311POPC   GL2 8054  31.478  11.401   9.055
  311POPC   C1A 8055  31.830  11.218   8.771
  311POPC   D2A 8056  31.656  11.380   8.438
  311POPC   C3A 8057  31.598  11.095   8.112
  311POPC   C4A 8058  31.407  11.019   7.686
  311POPC   C1B 8059  31.294  11.157   8.718
  311POPC   C2B 8060  31.134  11.079   8.282
  311POPC   C3B 8061  31.172  11.366   7.964
  311POPC   C4B 8062  31.205  11.560   7.555
  312POPC   NC3 8063  37.695  28.809   9.503
  312POPC   PO4 8064  37.399  28.176   9.503
  312POPC   GL1 8065  37.575  28.423   9.187
  312POPC   GL2 8066  37.322  28.693   9.134
  312POPC   C1A 8067  37.719  28.313   8.797
  312POPC   D2A 8068  37.690  28.360   8.399
  312POPC   C3A 8069  37.946  28.210   8.086
  312POPC   C4A 8070  37.831  28.316   7.670
  312POPC   C1B 8071  37.384  28.714   8.704
  312POPC   C2B 8072  37.226  28.561   8.344
  312POPC   C3B 8073  37.377  28.382   7.983
  312POPC   C4B 8074  37.376  28.583   7.594
  313POPC   NC3 8075   2.280  43.753   9.538
  313POPC   PO4 8076   1.850  44.245   9.560
  313POPC   GL1 8077   2.165  44.146   9.224
  313POPC   GL2 8078   2.000  43.798   9.102
  313POPC   C1A 8079   2.327  44.005   8.811
  313POPC   D2A 8080   2.108  43.760   8.510
  313POPC   C3A 8081   1.854  43.901   8.197
  313POPC   C4A 8082   1.936  43.889   7.797
  313POPC   C1B 8083   2.344  43.492   8.907
  313POPC   C2B 8084   2.473  43.415   8.452
  313POPC   C3B 8085   2.344  43.646   8.030
  313POPC   C4B 8086   2.300  43.675   7.536
  314POPC   NC3 8087  36.125  10.290   9.473
  314POPC   PO4 8088  35.885  10.986   9.415
  314POPC   GL1 8089  35.966  10.674   9.143
  314POPC   GL2 8090  35.878  10.891   8.883
  314POPC   C1A 8091  36.227  10.501   8.789
  314POPC   D2A 8092  36.164  10.613   8.332
  314POPC   C3A 8093  36.172  10.256   7.984
  314POPC   C4A 8094  35.938  10.104   7.597
  314POPC   C1B 8095  36.280  11.003   8.736
  314POPC   C2B 8096  36.602  10.901   8.422
  314POPC   C3B 8097  36.395  10.960   8.004
  314POPC   C4B 8098  36.007  10.723   7.850
  315POPC   NC3 8099  28.246   2.480   9.535
  315POPC   PO4 8100  28.450   1.786   9.548
  315POPC   GL1 8101  28.340   1.850   9.137
  315POPC   GL2 8102  28.409   2.189   9.068
  315POPC   C1A 8103  28.572   1.775   8.741
  315POPC   D2A 8104  28.483   1.921   8.300
  315POPC   C3A 8105  28.690   1.776   7.949
  315POPC   C4A 8106  28.698   2.080   7.640
  315POPC   C1B 8107  28.152   2.048   8.693
  315POPC   C2B 8108  28.064   2.227   8.296
  315POPC   C3B 8109  28.298   2.249   7.895
  315POPC   C4B 8110  28.259   2.186   7.413
  316POPC   NC3 8111   9.516  26.483   9.382
  316POPC   PO4 8112   8.825  26.764   9.593
  316POPC   GL1 8113   8.989  26.607   9.229
  316POPC   GL2 8114   9.176  26.894   9.169
  316POPC   C1A 8115   8.878  26.684   8.797
  316POPC   D2A 8116   8.582  26.838   8.508
  316POPC   C3A 8117   8.778  26.783   8.113
  316POPC   C4A 8118   8.801  26.726   7.669
  316POPC   C1B 8119   9.299  27.046   8.786
  316POPC   C2B 8120   9.091  27.037   8.431
  316POPC   C3B 8121   9.126  27.222   8.065
  316POPC   C4B 8122   9.120  27.135   7.660
  317POPC   NC3 8123  43.195  30.323   9.418
  317POPC   PO4 8124  42.929  29.654   9.425
  317POPC   GL1 8125  42.933  29.999   9.127
  317POPC   GL2 8126  43.299  30.078   8.984
  317POPC   C1A 8127  42.903  30.282   8.773
  317POPC   D2A 8128  43.228  30.198   8.445
  317POPC   C3A 8129  43.021  30.186   8.046
  317POPC   C4A 8130  42.649  30.397   7.869
  317POPC   C1B 8131  43.136  29.751   8.729
  317POPC   C2B 8132  43.053  29.529   8.361
  317POPC   C3B 8133  43.079  29.690   7.949
  317POPC   C4B 8134  43.393  30.020   7.768
  318POPC   NC3 8135  24.825  25.522   9.528
  318POPC   PO4 8136  24.404  25.050   9.609
  318POPC   GL1 8137  24.612  25.075   9.179
  318POPC   GL2 8138  24.694  25.413   9.064
  318POPC   C1A 8139  24.431  24.993   8.753
  318POPC   D2A 8140  24.464  25.106   8.322
  318POPC   C3A 8141  24.148  25.200   8.084
  318POPC   C4A 8142  24.145  25.091   7.715
  318POPC   C1B 8143  24.623  25.459   8.664
  318POPC   C2B 8144  24.707  25.543   8.268
  318POPC   C3B 8145  24.579  25.394   7.872
  318POPC   C4B 8146  24.727  25.596   7.524
  319POPC   NC3 8147   7.693   6.386   9.446
  319POPC   PO4 8148   6.991   6.242   9.426
  319POPC   GL1 8149   7.064   6.380   9.021
  319POPC   GL2 8150   7.375   6.370   9.057
  319POPC   C1A 8151   7.178   6.742   8.729
  319POPC   D2A 8152   7.350   6.946   8.337
  319POPC   C3A 8153   7.252   6.704   7.956
  319POPC   C4A 8154   7.221   6.262   7.804
  319POPC   C1B 8155   7.618   6.415   8.724
  319POPC   C2B 8156   7.769   6.628   8.386
  319POPC   C3B 8157   7.676   6.382   8.055
  319POPC   C4B 8158   7.706   6.338   7.646
  320POPC   NC3 8159  23.670  30.166   9.400
  320POPC   PO4 8160  24.029  29.795   9.720
  320POPC   GL1 8161  23.964  29.770   9.205
  320POPC   GL2 8162  23.741  30.011   8.943
  320POPC   C1A 8163  23.816  29.527   8.843
  320POPC   D2A 8164  23.488  29.636   8.537
  320POPC   C3A 8165  23.588  29.588   8.095
  320POPC   C4A 8166  23.801  29.892   7.822
  320POPC   C1B 8167  23.392  30.318   8.808
  320POPC   C2B 8168  23.257  30.439   8.384
  320POPC   C3B 8169  23.483  30.249   8.037
  320POPC   C4B 8170  23.457  30.197   7.583
  321POPC   NC3 8171  20.486  31.015   9.858
  321POPC   PO4 8172  20.840  30.776   9.362
  321POPC   GL1 8173  20.766  30.773   8.983
  321POPC   GL2 8174  20.407  30.679   9.046
  321POPC   C1A 8175  20.931  30.798   8.575
  321POPC   D2A 8176  20.834  30.734   8.192
  321POPC   C3A 8177  20.485  30.929   8.006
  321POPC   C4A 8178  20.443  31.071   7.621
  321POPC   C1B 8179  20.540  30.459   8.662
  321POPC   C2B 8180  20.375  30.487   8.281
  321POPC   C3B 8181  20.065  30.643   8.013
  321POPC   C4B 8182  20.107  30.685   7.567
  322POPC   NC3 8183  10.464   1.862   9.489
  322POPC   PO4 8184  10.868   1.720   9.310
  322POPC   GL1 8185  10.687   2.051   9.057
  322POPC   GL2 8186  10.334   1.946   8.972
  322POPC   C1A 8187  10.648   2.187   8.636
  322POPC   D2A 8188  10.455   1.938   8.342
  322POPC   C3A 8189  10.395   2.007   7.909
  322POPC   C4A 8190  10.633   1.873   7.497
  322POPC   C1B 8191  10.151   2.268   8.678
  322POPC   C2B 8192  10.078   2.337   8.241
  322POPC   C3B 8193  10.197   2.469   7.818
  322POPC   C4B 8194  10.172   2.115   7.462
  323POPC   NC3 8195  33.015   1.272   9.618
  323POPC   PO4 8196  32.427   1.172   9.376
  323POPC   GL1 8197  32.771   1.344   9.130
  323POPC   GL2 8198  33.064   1.134   9.118
  323POPC   C1A 8199  32.911   1.449   8.704
  323POPC   D2A 8200  32.908   1.688   8.310
  323POPC   C3A 8201  32.969   1.460   7.953
  323POPC   C4A 8202  33.222   1.310   7.644
  323POPC   C1B 8203  33.015   0.908   8.723
  323POPC   C2B 8204  33.049   1.048   8.292
  323POPC   C3B 8205  33.086   0.883   7.864
  323POPC   C4B 8206  32.843   0.977   7.462
  324POPC   NC3 8207  10.157  40.032   9.520
  324POPC   PO4 8208  10.699  39.662   9.725
  324POPC   GL1 8209  10.664  39.823   9.285
  324POPC   GL2 8210  10.581  40.188   9.187
  324POPC   C1A 8211  10.705  39.747   8.840
  324POPC   D2A 8212  10.691  40.047   8.487
  324POPC   C3A 8213  10.608  40.086   8.033
  324POPC   C4A 8214  10.773  39.874   7.626
  324POPC   C1B 8215  10.284  40.016   8.851
  324POPC   C2B 8216  10.180  40.045   8.399
  324POPC   C3B 8217  10.110  39.769   8.040
  324POPC   C4B 8218  10.273  39.923   7.678
  325POPC   NC3 8219  10.213  23.927   9.654
  325POPC   PO4 8220   9.660  23.587   9.657
  325POPC   GL1 8221   9.621  23.547   9.215
  325POPC   GL2 8222   9.326  23.418   9.076
  325POPC   C1A 8223   9.732  23.768   8.824
  325POPC   D2A 8224   9.965  23.928   8.473
  325POPC   C3A 8225  10.048  23.681   8.130
  325POPC   C4A 8226  10.001  23.454   7.772
  325POPC   C1B 8227   9.475  23.363   8.665
  325POPC   C2B 8228   9.562  23.616   8.323
  325POPC   C3B 8229   9.513  23.470   7.910
  325POPC   C4B 8230   9.408  23.693   7.543
  326POPC   NC3 8231  30.737  42.675   9.347
  326POPC   PO4 8232  30.945  42.185   9.744
  326POPC   GL1 8233  30.804  42.184   9.230
  326POPC   GL2 8234  30.445  42.251   9.149
  326POPC   C1A 8235  30.820  42.394   8.791
  326POPC   D2A 8236  30.591  42.391   8.394
  326POPC   C3A 8237  30.839  42.471   8.030
  326POPC   C4A 8238  30.904  42.248   7.659
  326POPC   C1B 8239  30.304  42.520   8.806
  326POPC   C2B 8240  30.091  42.504   8.397
  326POPC   C3B 8241  30.276  42.612   8.045
  326POPC   C4B 8242  30.427  42.453   7.716
  327POPC   NC3 8243  11.580  34.875   9.406
  327POPC   PO4 8244  11.984  34.404   9.444
  327POPC   GL1 8245  12.028  34.664   9.106
  327POPC   GL2 8246  12.347  34.745   9.075
  327POPC   C1A 8247  12.131  34.491   8.689
  327POPC   D2A 8248  12.148  34.241   8.329
  327POPC   C3A 8249  12.092  34.454   7.954
  327POPC   C4A 8250  12.428  34.463   7.681
  327POPC   C1B 8251  12.471  34.869   8.664
  327POPC   C2B 8252  12.392  34.735   8.266
  327POPC   C3B 8253  12.290  34.926   7.877
  327POPC   C4B 8254  12.411  34.967   7.443
  328POPC   NC3 8255  35.179  14.751   9.545
  328POPC   PO4 8256  35.591  14.140   9.399
  328POPC   GL1 8257  35.458  14.506   9.186
  328POPC   GL2 8258  35.099  14.537   9.060
  328POPC   C1A 8259  35.500  14.575   8.763
  328POPC   D2A 8260  35.292  14.556   8.386
  328POPC   C3A 8261  35.572  14.343   8.101
  328POPC   C4A 8262  35.702  14.381   7.676
  328POPC   C1B 8263  35.111  14.194   8.726
  328POPC   C2B 8264  35.090  14.087   8.268
  328POPC   C3B 8265  35.107  14.414   7.917
  328POPC   C4B 8266  35.185  14.385   7.467
  329POPC   NC3 8267  37.954  37.924   9.415
  329POPC   PO4 8268  38.076  37.340   9.536
  329POPC   GL1 8269  37.771  37.510   9.171
  329POPC   GL2 8270  37.507  37.842   9.192
  329POPC   C1A 8271  37.615  37.627   8.749
  329POPC   D2A 8272  37.829  37.701   8.359
  329POPC   C3A 8273  37.669  37.695   7.964
  329POPC   C4A 8274  37.782  37.596   7.517
  329POPC   C1B 8275  37.327  38.061   8.811
  329POPC   C2B 8276  37.387  37.934   8.368
  329POPC   C3B 8277  37.354  38.117   7.939
  329POPC   C4B 8278  37.624  38.072   7.567
  330POPC   NC3 8279  36.224  37.468   9.300
  330POPC   PO4 8280  36.770  37.835   9.497
  330POPC   GL1 8281  36.994  37.718   9.161
  330POPC   GL2 8282  36.788  37.442   9.138
  330POPC   C1A 8283  37.077  37.625   8.736
  330POPC   D2A 8284  36.871  37.605   8.364
  330POPC   C3A 8285  37.103  37.690   8.021
  330POPC   C4A 8286  37.303  37.694   7.631
  330POPC   C1B 8287  36.546  37.622   8.775
  330POPC   C2B 8288  36.367  37.494   8.379
  330POPC   C3B 8289  36.542  37.628   7.971
  330POPC   C4B 8290  36.610  37.431   7.550
  331POPC   NC3 8291   0.463  21.137   9.469
  331POPC   PO4 8292   0.102  21.733   9.331
  331POPC   GL1 8293   0.245  21.415   9.076
  331POPC   GL2 8294   0.143  21.036   9.089
  331POPC   C1A 8295   0.378  21.504   8.681
  331POPC   D2A 8296   0.513  21.262   8.343
  331POPC   C3A 8297   0.638  21.379   7.977
  331POPC   C4A 8298   0.293  21.577   7.875
  331POPC   C1B 8299   0.214  20.997   8.650
  331POPC   C2B 8300   0.154  20.935   8.204
  331POPC   C3B 8301   0.020  21.122   7.812
  331POPC   C4B 8302  44.942  21.020   7.377
  332POPC   NC3 8303  27.697   3.686   9.441
  332POPC   PO4 8304  27.216   3.285   9.686
  332POPC   GL1 8305  27.342   3.347   9.202
  332POPC   GL2 8306  27.707   3.278   9.131
  332POPC   C1A 8307  27.448   3.696   8.834
  332POPC   D2A 8308  27.370   3.849   8.388
  332POPC   C3A 8309  27.642   3.723   8.024
  332POPC   C4A 8310  27.593   3.908   7.603
  332POPC   C1B 8311  27.475   3.218   8.704
  332POPC   C2B 8312  27.338   3.284   8.247
  332POPC   C3B 8313  27.440   3.328   7.785
  332POPC   C4B 8314  27.546   3.435   7.356
  333POPC   NC3 8315  20.677   7.925   9.498
  333POPC   PO4 8316  20.817   7.299   9.522
  333POPC   GL1 8317  20.661   7.504   9.181
  333POPC   GL2 8318  20.305   7.639   9.226
  333POPC   C1A 8319  20.766   7.561   8.748
  333POPC   D2A 8320  20.718   7.362   8.358
  333POPC   C3A 8321  20.749   7.570   8.010
  333POPC   C4A 8322  20.532   7.806   7.774
  333POPC   C1B 8323  20.311   7.345   8.859
  333POPC   C2B 8324  20.220   7.349   8.438
  333POPC   C3B 8325  20.285   7.349   8.019
  333POPC   C4B 8326  20.207   7.027   7.754
  334POPC   NC3 8327  10.107  25.121   9.741
  334POPC   PO4 8328   9.522  25.365   9.752
  334POPC   GL1 8329   9.673  25.320   9.307
  334POPC   GL2 8330   9.349  25.293   9.096
  334POPC   C1A 8331   9.773  25.281   8.856
  334POPC   D2A 8332   9.906  25.528   8.527
  334POPC   C3A 8333   9.932  25.325   8.155
  334POPC   C4A 8334   9.709  25.290   7.795
  334POPC   C1B 8335   9.308  25.041   8.734
  334POPC   C2B 8336   9.522  25.125   8.395
  334POPC   C3B 8337   9.675  24.878   8.106
  334POPC   C4B 8338   9.411  24.885   7.799
  335POPC   NC3 8339   0.296   8.059   9.423
  335POPC   PO4 8340   0.893   8.417   9.498
  335POPC   GL1 8341   0.659   8.278   9.110
  335POPC   GL2 8342   0.364   8.408   9.022
  335POPC   C1A 8343   0.497   8.038   8.726
  335POPC   D2A 8344   0.188   8.136   8.396
  335POPC   C3A 8345   0.359   8.095   7.995
  335POPC   C4A 8346   0.759   7.975   7.846
  335POPC   C1B 8347   0.035   8.485   8.754
  335POPC   C2B 8348  44.853   8.534   8.374
  335POPC   C3B 8349   0.082   8.523   7.969
  335POPC   C4B 8350   0.518   8.500   7.743
  336POPC   NC3 8351  24.782  16.946   9.563
  336POPC   PO4 8352  24.142  16.749   9.401
  336POPC   GL1 8353  24.282  16.866   9.041
  336POPC   GL2 8354  24.596  16.720   9.162
  336POPC   C1A 8355  24.489  16.657   8.678
  336POPC   D2A 8356  24.374  16.391   8.317
  336POPC   C3A 8357  24.583  16.523   7.959
  336POPC   C4A 8358  24.558  16.725   7.563
  336POPC   C1B 8359  24.725  17.061   8.913
  336POPC   C2B 8360  24.813  17.087   8.500
  336POPC   C3B 8361  24.691  17.201   8.111
  336POPC   C4B 8362  24.387  17.138   7.827
  337POPC   NC3 8363  35.841   1.182   9.515
  337POPC   PO4 8364  36.438   0.987   9.525
  337POPC   GL1 8365  36.305   1.336   9.268
  337POPC   GL2 8366  36.024   1.221   9.049
  337POPC   C1A 8367  36.419   1.510   8.879
  337POPC   D2A 8368  36.388   1.298   8.480
  337POPC   C3A 8369  36.402   1.522   8.096
  337POPC   C4A 8370  36.215   1.295   7.769
  337POPC   C1B 8371  35.728   0.892   8.880
  337POPC   C2B 8372  35.581   0.714   8.506
  337POPC   C3B 8373  35.831   0.913   8.188
  337POPC   C4B 8374  35.890   0.913   7.770
  338POPC   NC3 8375  20.763  34.144   9.674
  338POPC   PO4 8376  20.545  33.476   9.570
  338POPC   GL1 8377  20.680  33.716   9.231
  338POPC   GL2 8378  20.759  34.074   9.182
  338POPC   C1A 8379  20.817  33.601   8.847
  338POPC   D2A 8380  20.714  33.765   8.441
  338POPC   C3A 8381  20.789  33.503   8.094
  338POPC   C4A 8382  20.938  33.572   7.701
  338POPC   C1B 8383  20.499  34.054   8.828
  338POPC   C2B 8384  20.487  34.247   8.436
  338POPC   C3B 8385  20.469  34.015   8.050
  338POPC   C4B 8386  20.527  33.846   7.646
  339POPC   NC3 8387  37.342  35.270   9.445
  339POPC   PO4 8388  37.838  35.540   9.766
  339POPC   GL1 8389  37.872  35.366   9.274
  339POPC   GL2 8390  37.630  35.254   9.038
  339POPC   C1A 8391  38.067  35.298   8.803
  339POPC   D2A 8392  37.976  35.106   8.382
  339POPC   C3A 8393  37.823  35.230   7.956
  339POPC   C4A 8394  37.614  35.536   7.705
  339POPC   C1B 8395  37.402  35.167   8.682
  339POPC   C2B 8396  37.360  35.297   8.249
  339POPC   C3B 8397  37.349  35.036   7.886
  339POPC   C4B 8398  37.559  35.066   7.475
  340POPC   NC3 8399  39.930  38.553   9.662
  340POPC   PO4 8400  40.080  37.902   9.581
  340POPC   GL1 8401  40.131  38.266   9.257
  340POPC   GL2 8402  39.756  38.351   9.200
  340POPC   C1A 8403  40.283  38.453   8.833
  340POPC   D2A 8404  40.088  38.473   8.425
  340POPC   C3A 8405  40.307  38.339   8.069
  340POPC   C4A 8406  40.166  38.565   7.727
  340POPC   C1B 8407  39.815  38.645   8.847
  340POPC   C2B 8408  39.865  38.945   8.494
  340POPC   C3B 8409  39.764  38.833   8.080
  340POPC   C4B 8410  39.685  38.677   7.699
  341POPC   NC3 8411  14.656  32.429   9.818
  341POPC   PO4 8412  14.039  32.117   9.657
  341POPC   GL1 8413  14.122  32.367   9.254
  341POPC   GL2 8414  14.486  32.479   9.218
  341POPC   C1A 8415  14.185  32.392   8.808
  341POPC   D2A 8416  14.495  32.187   8.542
  341POPC   C3A 8417  14.443  32.151   8.108
  341POPC   C4A 8418  14.777  32.090   7.833
  341POPC   C1B 8419  14.720  32.585   8.815
  341POPC   C2B 8420  14.610  32.679   8.384
  341POPC   C3B 8421  14.705  32.570   7.977
  341POPC   C4B 8422  14.596  32.492   7.569
  342POPC   NC3 8423  39.662  26.605   9.467
  342POPC   PO4 8424  40.266  26.640   9.369
  342POPC   GL1 8425  40.038  26.724   9.046
  342POPC   GL2 8426  39.739  26.890   9.034
  342POPC   C1A 8427  40.149  26.728   8.640
  342POPC   D2A 8428  40.248  26.528   8.283
  342POPC   C3A 8429  40.237  26.761   7.920
  342POPC   C4A 8430  40.016  26.681   7.575
  342POPC   C1B 8431  39.742  27.058   8.619
  342POPC   C2B 8432  39.806  26.838   8.216
  342POPC   C3B 8433  39.603  26.889   7.829
  342POPC   C4B 8434  39.452  27.309   7.733
  343POPC   NC3 8435  25.709  22.939   9.849
  343POPC   PO4 8436  25.212  22.954   9.392
  343POPC   GL1 8437  25.085  22.922   9.001
  343POPC   GL2 8438  25.401  22.948   8.831
  343POPC   C1A 8439  25.018  22.710   8.610
  343POPC   D2A 8440  25.296  22.678   8.264
  343POPC   C3A 8441  25.262  22.936   7.898
  343POPC   C4A 8442  25.412  23.349   7.852
  343POPC   C1B 8443  25.655  22.653   8.654
  343POPC   C2B 8444  25.694  22.367   8.291
  343POPC   C3B 8445  25.665  22.587   7.890
  343POPC   C4B 8446  25.621  22.452   7.461
  344POPC   NC3 8447   5.980  34.375   9.418
  344POPC   PO4 8448   6.042  35.054   9.512
  344POPC   GL1 8449   5.850  34.841   9.170
  344POPC   GL2 8450   5.509  34.723   9.252
  344POPC   C1A 8451   5.907  34.634   8.779
  344POPC   D2A 8452   6.176  34.646   8.421
  344POPC   C3A 8453   5.927  34.616   8.054
  344POPC   C4A 8454   5.762  34.297   7.759
  344POPC   C1B 8455   5.431  34.930   8.845
  344POPC   C2B 8456   5.580  34.851   8.430
  344POPC   C3B 8457   5.539  35.017   8.002
  344POPC   C4B 8458   5.690  34.833   7.645
  345POPC   NC3 8459  41.294  11.856   9.563
  345POPC   PO4 8460  41.869  12.277   9.488
  345POPC   GL1 8461  41.595  12.058   9.180
  345POPC   GL2 8462  41.367  11.755   9.085
  345POPC   C1A 8463  41.448  12.163   8.774
  345POPC   D2A 8464  41.639  12.285   8.398
  345POPC   C3A 8465  41.356  12.345   8.083
  345POPC   C4A 8466  41.326  11.973   7.888
  345POPC   C1B 8467  41.727  11.698   8.837
  345POPC   C2B 8468  41.799  11.798   8.425
  345POPC   C3B 8469  41.790  11.611   8.039
  345POPC   C4B 8470  41.484  11.506   7.742
  346POPC   NC3 8471  20.352  10.406   9.514
  346POPC   PO4 8472  20.912  10.806   9.550
  346POPC   GL1 8473  20.656  10.719   9.180
  346POPC   GL2 8474  20.638  10.336   9.093
  346POPC   C1A 8475  20.748  10.674   8.733
  346POPC   D2A 8476  20.504  10.513   8.411
  346POPC   C3A 8477  20.614  10.629   7.998
  346POPC   C4A 8478  20.971  10.903   7.891
  346POPC   C1B 8479  20.868  10.148   8.725
  346POPC   C2B 8480  20.745  10.078   8.300
  346POPC   C3B 8481  20.658  10.084   7.866
  346POPC   C4B 8482  20.716  10.031   7.392
  347POPC   NC3 8483  31.907  22.298   9.433
  347POPC   PO4 8484  32.519  22.107   9.490
  347POPC   GL1 8485  32.250  21.997   9.126
  347POPC   GL2 8486  31.943  21.820   9.126
  347POPC   C1A 8487  32.252  22.099   8.695
  347POPC   D2A 8488  32.459  22.364   8.362
  347POPC   C3A 8489  32.387  22.476   7.915
  347POPC   C4A 8490  32.060  22.271   7.679
  347POPC   C1B 8491  31.794  21.879   8.670
  347POPC   C2B 8492  31.974  22.016   8.270
  347POPC   C3B 8493  31.918  21.817   7.892
  347POPC   C4B 8494  31.715  21.930   7.503
  348POPC   NC3 8495  34.708  30.450   9.390
  348POPC   PO4 8496  34.269  31.073   9.529
  348POPC   GL1 8497  34.494  30.853   9.179
  348POPC   GL2 8498  34.734  31.066   9.096
  348POPC   C1A 8499  34.700  30.716   8.746
  348POPC   D2A 8500  34.420  30.686   8.380
  348POPC   C3A 8501  34.630  30.581   8.022
  348POPC   C4A 8502  34.458  30.541   7.617
  348POPC   C1B 8503  34.931  31.194   8.758
  348POPC   C2B 8504  35.199  31.023   8.457
  348POPC   C3B 8505  34.978  30.992   8.078
  348POPC   C4B 8506  34.862  30.873   7.677
  349POPC   NC3 8507  35.512  12.982   9.368
  349POPC   PO4 8508  35.034  12.811   9.726
  349POPC   GL1 8509  35.022  12.860   9.221
  349POPC   GL2 8510  35.288  12.639   9.051
  349POPC   C1A 8511  35.143  12.998   8.731
  349POPC   D2A 8512  35.324  12.910   8.299
  349POPC   C3A 8513  35.110  12.724   7.919
  349POPC   C4A 8514  34.937  13.005   7.599
  349POPC   C1B 8515  35.631  12.834   8.741
  349POPC   C2B 8516  35.840  12.805   8.332
  349POPC   C3B 8517  35.660  12.789   7.914
  349POPC   C4B 8518  35.432  13.039   7.659
  350POPC   NC3 8519  15.389  27.248   9.529
  350POPC   PO4 8520  14.851  26.833   9.622
  350POPC   GL1 8521  15.039  26.973   9.247
  350POPC   GL2 8522  15.293  26.832   9.148
  350POPC   C1A 8523  14.938  26.906   8.801
  350POPC   D2A 8524  14.947  26.659   8.432
  350POPC   C3A 8525  15.012  26.914   8.100
  350POPC   C4A 8526  14.875  26.825   7.715
  350POPC   C1B 8527  15.468  26.988   8.760
  350POPC   C2B 8528  15.652  26.868   8.360
  350POPC   C3B 8529  15.498  26.830   7.938
  350POPC   C4B 8530  15.614  26.684   7.522
  351POPC   NC3 8531  42.693  43.049   9.555
  351POPC   PO4 8532  43.345  43.216   9.785
  351POPC   GL1 8533  43.199  43.051   9.321
  351POPC   GL2 8534  42.893  43.161   9.100
  351POPC   C1A 8535  43.323  43.006   8.860
  351POPC   D2A 8536  43.270  43.333   8.515
  351POPC   C3A 8537  43.221  43.204   8.081
  351POPC   C4A 8538  43.279  43.167   7.642
  351POPC   C1B 8539  42.862  43.022   8.644
  351POPC   C2B 8540  42.810  42.896   8.197
  351POPC   C3B 8541  42.785  43.143   7.780
  351POPC   C4B 8542  42.639  43.215   7.349
  352POPC   NC3 8543  31.803  30.451   9.473
  352POPC   PO4 8544  31.535  31.036   9.692
  352POPC   GL1 8545  31.513  30.929   9.226
  352POPC   GL2 8546  31.492  30.551   9.072
  352POPC   C1A 8547  31.606  30.922   8.771
  352POPC   D2A 8548  31.541  30.565   8.502
  352POPC   C3A 8549  31.448  30.778   8.113
  352POPC   C4A 8550  31.687  31.023   7.800
  352POPC   C1B 8551  31.162  30.320   8.814
  352POPC   C2B 8552  31.198  30.194   8.384
  352POPC   C3B 8553  31.297  30.319   7.966
  352POPC   C4B 8554  31.220  30.248   7.496
  353POPC   NC3 8555  40.089  32.805   9.541
  353POPC   PO4 8556  39.903  33.434   9.435
  353POPC   GL1 8557  40.008  33.107   9.119
  353POPC   GL2 8558  39.788  32.806   9.128
  353POPC   C1A 8559  40.099  33.203   8.682
  353POPC   D2A 8560  39.863  33.286   8.330
  353POPC   C3A 8561  40.098  33.276   7.981
  353POPC   C4A 8562  39.919  33.085   7.666
  353POPC   C1B 8563  40.011  32.713   8.759
  353POPC   C2B 8564  40.115  32.824   8.333
  353POPC   C3B 8565  40.140  32.693   7.911
  353POPC   C4B 8566  40.450  32.522   7.623
  354POPC   NC3 8567  12.332   5.805   9.716
  354POPC   PO4 8568  12.929   5.545   9.372
  354POPC   GL1 8569  12.775   5.783   9.051
  354POPC   GL2 8570  12.854   6.130   9.079
  354POPC   C1A 8571  12.941   5.819   8.658
  354POPC   D2A 8572  13.151   5.629   8.353
  354POPC   C3A 8573  12.779   5.562   8.090
  354POPC   C4A 8574  12.713   5.551   7.637
  354POPC   C1B 8575  12.646   6.235   8.678
  354POPC   C2B 8576  12.724   6.083   8.267
  354POPC   C3B 8577  12.559   5.970   7.869
  354POPC   C4B 8578  12.219   6.107   7.616
  355POPC   NC3 8579  25.110  44.913   9.598
  355POPC   PO4 8580  25.518  44.414   9.577
  355POPC   GL1 8581  25.328  44.653   9.222
  355POPC   GL2 8582  25.466  44.997   9.236
  355POPC   C1A 8583  25.218  44.652   8.795
  355POPC   D2A 8584  25.431  44.453   8.442
  355POPC   C3A 8585  25.187  44.576   8.094
  355POPC   C4A 8586  25.176  44.711   7.667
  355POPC   C1B 8587  25.444   0.127   8.817
  355POPC   C2B 8588  25.438  44.963   8.408
  355POPC   C3B 8589  25.277   0.074   7.984
  355POPC   C4B 8590  25.261   0.230   7.528
  356POPC   NC3 8591  12.446  30.739   9.913
  356POPC   PO4 8592  12.995  30.727   9.561
  356POPC   GL1 8593  12.986  30.659   9.133
  356POPC   GL2 8594  12.650  30.682   9.060
  356POPC   C1A 8595  12.953  30.615   8.666
  356POPC   D2A 8596  13.004  30.355   8.327
  356POPC   C3A 8597  12.867  30.577   7.979
  356POPC   C4A 8598  12.984  30.842   7.658
  356POPC   C1B 8599  12.443  30.507   8.752
  356POPC   C2B 8600  12.492  30.604   8.346
  356POPC   C3B 8601  12.404  30.383   7.968
  356POPC   C4B 8602  12.642  30.361   7.575
  357POPC   NC3 8603   6.474  34.877   9.469
  357POPC   PO4 8604   6.932  35.250   9.545
  357POPC   GL1 8605   6.766  35.265   9.161
  357POPC   GL2 8606   6.596  35.581   9.141
  357POPC   C1A 8607   6.835  35.048   8.775
  357POPC   D2A 8608   6.675  34.924   8.385
  357POPC   C3A 8609   6.790  35.125   7.993
  357POPC   C4A 8610   6.697  35.307   7.613
  357POPC   C1B 8611   6.870  35.589   8.776
  357POPC   C2B 8612   6.891  35.436   8.377
  357POPC   C3B 8613   6.814  35.666   7.973
  357POPC   C4B 8614   6.609  35.817   7.577
  358POPC   NC3 8615  16.200  44.031   9.797
  358POPC   PO4 8616  16.736  43.710   9.522
  358POPC   GL1 8617  16.980  43.835   9.139
  358POPC   GL2 8618  16.672  43.991   9.078
  358POPC   C1A 8619  17.029  44.131   8.785
  358POPC   D2A 8620  16.790  44.165   8.424
  358POPC   C3A 8621  16.999  44.167   8.088
  358POPC   C4A 8622  17.086  43.818   7.870
  358POPC   C1B 8623  16.594  43.697   8.749
  358POPC   C2B 8624  16.717  43.665   8.328
  358POPC   C3B 8625  16.586  43.823   7.949
  358POPC   C4B 8626  16.570  43.713   7.486
  359POPC   NC3 8627   5.439  35.215   9.456
  359POPC   PO4 8628   4.801  35.519   9.533
  359POPC   GL1 8629   5.019  35.336   9.209
  359POPC   GL2 8630   5.204  35.576   9.159
  359POPC   C1A 8631   5.012  35.253   8.779
  359POPC   D2A 8632   5.037  35.519   8.424
  359POPC   C3A 8633   4.933  35.376   8.011
  359POPC   C4A 8634   4.866  35.158   7.603
  359POPC   C1B 8635   5.476  35.476   8.813
  359POPC   C2B 8636   5.530  35.361   8.391
  359POPC   C3B 8637   5.409  35.544   8.013
  359POPC   C4B 8638   5.239  35.490   7.610
  360POPC   NC3 8639  26.319   1.088   9.382
  360POPC   PO4 8640  25.686   1.109   9.672
  360POPC   GL1 8641  25.800   1.224   9.268
  360POPC   GL2 8642  25.780   0.973   8.979
  360POPC   C1A 8643  25.924   1.465   8.933
  360POPC   D2A 8644  26.000   1.211   8.563
  360POPC   C3A 8645  25.800   1.330   8.175
  360POPC   C4A 8646  26.076   1.527   7.826
  360POPC   C1B 8647  26.151   0.739   8.815
  360POPC   C2B 8648  26.308   0.712   8.413
  360POPC   C3B 8649  26.211   1.039   8.131
  360POPC   C4B 8650  25.914   1.038   7.766
  361POPC   NC3 8651  15.092  29.402   9.486
  361POPC   PO4 8652  15.480  28.704   9.539
  361POPC   GL1 8653  15.214  28.986   9.219
  361POPC   GL2 8654  15.201  29.361   9.008
  361POPC   C1A 8655  15.014  28.958   8.833
  361POPC   D2A 8656  15.158  29.242   8.486
  361POPC   C3A 8657  15.177  29.048   8.109
  361POPC   C4A 8658  15.304  28.965   7.708
  361POPC   C1B 8659  14.759  29.391   8.774
  361POPC   C2B 8660  14.740  29.462   8.294
  361POPC   C3B 8661  14.933  29.431   7.828
  361POPC   C4B 8662  14.790  29.406   7.348
  362POPC   NC3 8663  35.690  30.097   9.349
  362POPC   PO4 8664  35.028  29.853   9.443
  362POPC   GL1 8665  35.230  29.939   9.121
  362POPC   GL2 8666  35.459  29.668   9.148
  362POPC   C1A 8667  35.371  29.973   8.741
  362POPC   D2A 8668  35.239  29.830   8.353
  362POPC   C3A 8669  35.552  29.932   8.070
  362POPC   C4A 8670  35.615  30.148   7.702
  362POPC   C1B 8671  35.200  29.503   8.789
  362POPC   C2B 8672  35.160  29.325   8.370
  362POPC   C3B 8673  35.019  29.523   7.983
  362POPC   C4B 8674  35.262  29.738   7.669
  363POPC   NC3 8675  42.316  24.399   9.662
  363POPC   PO4 8676  42.696  24.137   9.165
  363POPC   GL1 8677  42.297  24.364   9.124
  363POPC   GL2 8678  42.233  24.751   9.206
  363POPC   C1A 8679  42.089  24.404   8.723
  363POPC   D2A 8680  41.987  24.661   8.333
  363POPC   C3A 8681  41.955  24.388   7.994
  363POPC   C4A 8682  42.336  24.235   7.829
  363POPC   C1B 8683  42.224  24.901   8.763
  363POPC   C2B 8684  42.471  24.637   8.489
  363POPC   C3B 8685  42.684  24.427   8.180
  363POPC   C4B 8686  42.687  24.615   7.786
  364POPC   NC3 8687   6.512  26.699   9.566
  364POPC   PO4 8688   6.942  27.200   9.589
  364POPC   GL1 8689   6.737  26.965   9.213
  364POPC   GL2 8690   6.865  26.602   9.221
  364POPC   C1A 8691   6.441  26.882   8.893
  364POPC   D2A 8692   6.384  26.708   8.482
  364POPC   C3A 8693   6.288  26.742   8.048
  364POPC   C4A 8694   6.528  26.922   7.724
  364POPC   C1B 8695   7.017  26.725   8.831
  364POPC   C2B 8696   7.060  26.567   8.437
  364POPC   C3B 8697   6.903  26.763   8.102
  364POPC   C4B 8698   7.065  26.827   7.720
  365POPC   NC3 8699  43.439   6.401   9.343
  365POPC   PO4 8700  43.004   6.903   9.314
  365POPC   GL1 8701  42.966   6.619   9.017
  365POPC   GL2 8702  43.307   6.689   8.934
  365POPC   C1A 8703  42.773   6.510   8.620
  365POPC   D2A 8704  42.809   6.358   8.187
  365POPC   C3A 8705  42.691   6.635   7.840
  365POPC   C4A 8706  42.825   7.105   7.761
  365POPC   C1B 8707  43.068   6.983   8.661
  365POPC   C2B 8708  42.919   6.937   8.255
  365POPC   C3B 8709  43.176   6.748   7.936
  365POPC   C4B 8710  43.462   6.915   7.585
  366POPC   NC3 8711   6.000  41.114   9.381
  366POPC   PO4 8712   5.583  40.568   9.462
  366POPC   GL1 8713   5.632  40.866   9.150
  366POPC   GL2 8714   5.958  40.707   9.097
  366POPC   C1A 8715   5.821  41.082   8.765
  366POPC   D2A 8716   6.121  41.066   8.414
  366POPC   C3A 8717   5.946  41.088   7.997
  366POPC   C4A 8718   5.937  40.833   7.672
  366POPC   C1B 8719   5.717  40.479   8.809
  366POPC   C2B 8720   5.895  40.373   8.464
  366POPC   C3B 8721   5.984  40.588   8.135
  366POPC   C4B 8722   5.605  40.533   7.927
  367POPC   NC3 8723   3.476   6.175   9.633
  367POPC   PO4 8724   3.560   6.856   9.492
  367POPC   GL1 8725   3.680   6.634   9.149
  367POPC   GL2 8726   3.899   6.917   9.128
  367POPC   C1A 8727   3.402   6.571   8.760
  367POPC   D2A 8728   3.316   6.800   8.357
  367POPC   C3A 8729   3.458   6.594   7.942
  367POPC   C4A 8730   3.321   6.354   7.596
  367POPC   C1B 8731   3.653   7.000   8.791
  367POPC   C2B 8732   3.866   7.071   8.433
  367POPC   C3B 8733   3.701   7.018   8.052
  367POPC   C4B 8734   3.565   7.062   7.645
  368POPC   NC3 8735  17.503  24.339   9.673
  368POPC   PO4 8736  17.754  23.824   9.437
  368POPC   GL1 8737  17.774  23.752   9.025
  368POPC   GL2 8738  17.451  23.628   9.054
  368POPC   C1A 8739  17.755  23.644   8.580
  368POPC   D2A 8740  17.861  23.610   8.149
  368POPC   C3A 8741  17.551  23.583   7.843
  368POPC   C4A 8742  17.569  23.673   7.415
  368POPC   C1B 8743  17.281  23.817   8.703
  368POPC   C2B 8744  17.323  23.737   8.280
  368POPC   C3B 8745  17.062  23.752   7.920
  368POPC   C4B 8746  17.073  23.561   7.532
  369POPC   NC3 8747  23.776  29.438   9.534
  369POPC   PO4 8748  23.586  28.773   9.609
  369POPC   GL1 8749  23.683  28.997   9.205
  369POPC   GL2 8750  23.441  29.258   9.187
  369POPC   C1A 8751  23.982  29.048   8.812
  369POPC   D2A 8752  23.835  29.035   8.422
  369POPC   C3A 8753  24.000  29.188   8.067
  369POPC   C4A 8754  24.000  28.883   7.772
  369POPC   C1B 8755  23.457  29.170   8.752
  369POPC   C2B 8756  23.357  29.162   8.336
  369POPC   C3B 8757  23.540  29.000   7.986
  369POPC   C4B 8758  23.658  29.292   7.683
  370POPC   NC3 8759  41.480  38.065   9.446
  370POPC   PO4 8760  41.778  38.692   9.427
  370POPC   GL1 8761  41.439  38.604   9.127
  370POPC   GL2 8762  41.278  38.296   9.031
  370POPC   C1A 8763  41.244  38.758   8.759
  370POPC   D2A 8764  41.410  38.888   8.367
  370POPC   C3A 8765  41.320  38.670   7.984
  370POPC   C4A 8766  41.699  38.611   7.772
  370POPC   C1B 8767  41.709  38.306   8.821
  370POPC   C2B 8768  41.755  37.994   8.504
  370POPC   C3B 8769  41.454  38.085   8.185
  370POPC   C4B 8770  41.465  38.143   7.742
  371POPC   NC3 8771  40.409  14.802   9.264
  371POPC   PO4 8772  40.974  15.207   9.437
  371POPC   GL1 8773  40.749  15.130   9.064
  371POPC   GL2 8774  40.511  15.359   9.114
  371POPC   C1A 8775  40.640  15.043   8.635
  371POPC   D2A 8776  40.796  15.249   8.285
  371POPC   C3A 8777  40.970  15.048   7.936
  371POPC   C4A 8778  41.061  15.247   7.551
  371POPC   C1B 8779  40.318  15.442   8.732
  371POPC   C2B 8780  40.229  15.274   8.336
  371POPC   C3B 8781  40.407  15.048   7.997
  371POPC   C4B 8782  40.557  15.135   7.597
  372POPC   NC3 8783  42.584  31.694   9.429
  372POPC   PO4 8784  43.265  31.622   9.514
  372POPC   GL1 8785  43.239  31.365   9.138
  372POPC   GL2 8786  43.384  31.619   8.985
  372POPC   C1A 8787  43.346  31.165   8.711
  372POPC   D2A 8788  43.162  31.117   8.294
  372POPC   C3A 8789  43.374  31.340   7.957
  372POPC   C4A 8790  43.374  31.309   7.513
  372POPC   C1B 8791  43.034  31.577   8.695
  372POPC   C2B 8792  43.048  31.623   8.253
  372POPC   C3B 8793  42.801  31.542   7.863
  372POPC   C4B 8794  42.797  31.619   7.403
  373POPC   NC3 8795  40.431  42.933   9.308
  373POPC   PO4 8796  40.752  43.324   9.707
  373POPC   GL1 8797  40.831  43.269   9.261
  373POPC   GL2 8798  40.566  43.421   9.094
  373POPC   C1A 8799  41.004  43.072   8.873
  373POPC   D2A 8800  40.892  42.868   8.465
  373POPC   C3A 8801  40.955  43.063   8.064
  373POPC   C4A 8802  40.892  42.829   7.673
  373POPC   C1B 8803  40.535  43.167   8.695
  373POPC   C2B 8804  40.382  42.944   8.327
  373POPC   C3B 8805  40.471  43.010   7.894
  373POPC   C4B 8806  40.689  43.385   7.721
  374POPC   NC3 8807  20.232  19.834   9.412
  374POPC   PO4 8808  20.824  19.429   9.484
  374POPC   GL1 8809  20.625  19.661   9.122
  374POPC   GL2 8810  20.581  20.005   9.055
  374POPC   C1A 8811  20.607  19.504   8.694
  374POPC   D2A 8812  20.880  19.695   8.366
  374POPC   C3A 8813  20.797  19.671   7.922
  374POPC   C4A 8814  20.874  19.612   7.485
  374POPC   C1B 8815  20.498  19.962   8.591
  374POPC   C2B 8816  20.393  19.719   8.219
  374POPC   C3B 8817  20.289  19.819   7.786
  374POPC   C4B 8818  20.309  20.157   7.434
  375POPC   NC3 8819  11.135  42.371   9.659
  375POPC   PO4 8820  11.794  42.295   9.827
  375POPC   GL1 8821  11.568  42.318   9.325
  375POPC   GL2 8822  11.225  42.374   9.173
  375POPC   C1A 8823  11.629  42.341   8.840
  375POPC   D2A 8824  11.788  42.354   8.369
  375POPC   C3A 8825  11.592  42.247   8.012
  375POPC   C4A 8826  11.475  42.381   7.593
  375POPC   C1B 8827  11.141  42.465   8.753
  375POPC   C2B 8828  11.309  42.506   8.357
  375POPC   C3B 8829  11.119  42.423   7.945
  375POPC   C4B 8830  10.778  42.604   7.700
  376POPC   NC3 8831   0.191  29.432   9.434
  376POPC   PO4 8832   0.615  30.092   9.544
  376POPC   GL1 8833   0.470  29.817   9.281
  376POPC   GL2 8834   0.652  29.524   9.227
  376POPC   C1A 8835   0.389  29.795   8.858
  376POPC   D2A 8836   0.502  29.993   8.463
  376POPC   C3A 8837   0.476  29.876   8.062
  376POPC   C4A 8838   0.262  29.736   7.737
  376POPC   C1B 8839   0.886  29.527   8.864
  376POPC   C2B 8840   1.019  29.495   8.472
  376POPC   C3B 8841   0.849  29.524   8.078
  376POPC   C4B 8842   0.760  29.644   7.668
  377POPC   NC3 8843  44.560  11.733   9.590
  377POPC   PO4 8844  44.360  12.360   9.560
  377POPC   GL1 8845  44.466  12.210   9.147
  377POPC   GL2 8846  44.734  12.016   9.181
  377POPC   C1A 8847  44.349  12.105   8.712
  377POPC   D2A 8848  44.343  12.328   8.339
  377POPC   C3A 8849  44.340  12.113   7.964
  377POPC   C4A 8850  44.404  11.778   7.677
  377POPC   C1B 8851  44.814  11.868   8.769
  377POPC   C2B 8852  44.690  11.959   8.339
  377POPC   C3B 8853  44.855  12.051   7.922
  377POPC   C4B 8854  44.940  11.904   7.499
  378POPC   NC3 8855  42.853  37.841   9.537
  378POPC   PO4 8856  42.719  37.211   9.331
  378POPC   GL1 8857  42.909  37.553   9.093
  378POPC   GL2 8858  43.171  37.816   9.124
  378POPC   C1A 8859  42.941  37.695   8.649
  378POPC   D2A 8860  42.884  37.467   8.258
  378POPC   C3A 8861  43.059  37.466   7.823
  378POPC   C4A 8862  42.868  37.236   7.457
  378POPC   C1B 8863  43.259  38.078   8.740
  378POPC   C2B 8864  43.028  38.108   8.327
  378POPC   C3B 8865  42.965  37.990   7.894
  378POPC   C4B 8866  43.344  37.878   7.656
  379POPC   NC3 8867  25.825  21.686   9.396
  379POPC   PO4 8868  26.210  21.220   9.612
  379POPC   GL1 8869  26.198  21.379   9.193
  379POPC   GL2 8870  25.879  21.248   9.135
  379POPC   C1A 8871  26.106  21.523   8.755
  379POPC   D2A 8872  26.187  21.295   8.393
  379POPC   C3A 8873  26.077  21.318   7.967
  379POPC   C4A 8874  26.391  21.557   7.748
  379POPC   C1B 8875  25.682  21.206   8.744
  379POPC   C2B 8876  25.684  21.401   8.347
  379POPC   C3B 8877  25.605  21.092   8.059
  379POPC   C4B 8878  25.702  20.983   7.679
  380POPC   NC3 8879  33.513   2.017   9.539
  380POPC   PO4 8880  32.865   1.771   9.502
  380POPC   GL1 8881  32.970   1.846   9.070
  380POPC   GL2 8882  33.293   1.968   8.929
  380POPC   C1A 8883  32.828   2.027   8.681
  380POPC   D2A 8884  32.846   2.231   8.299
  380POPC   C3A 8885  33.154   2.062   8.051
  380POPC   C4A 8886  33.315   1.805   7.725
  380POPC   C1B 8887  33.264   2.318   8.608
  380POPC   C2B 8888  33.500   2.431   8.243
  380POPC   C3B 8889  33.492   2.350   7.792
  380POPC   C4B 8890  33.129   2.271   7.578
  381POPC   NC3 8891   6.814  34.119   9.262
  381POPC   PO4 8892   6.667  33.490   9.520
  381POPC   GL1 8893   6.493  33.700   9.119
  381POPC   GL2 8894   6.695  33.886   8.847
  381POPC   C1A 8895   6.253  33.710   8.724
  381POPC   D2A 8896   6.437  33.613   8.334
  381POPC   C3A 8897   6.252  33.729   7.982
  381POPC   C4A 8898   6.406  33.780   7.589
  381POPC   C1B 8899   6.885  33.573   8.605
  381POPC   C2B 8900   6.975  33.648   8.196
  381POPC   C3B 8901   6.712  33.955   7.978
  381POPC   C4B 8902   6.788  34.362   7.777
  382POPC   NC3 8903  36.199  17.125   9.439
  382POPC   PO4 8904  36.018  16.516   9.416
  382POPC   GL1 8905  36.200  16.761   9.044
  382POPC   GL2 8906  36.495  16.991   9.059
  382POPC   C1A 8907  36.120  16.785   8.594
  382POPC   D2A 8908  35.807  16.508   8.440
  382POPC   C3A 8909  36.037  16.374   8.120
  382POPC   C4A 8910  36.261  16.653   7.815
  382POPC   C1B 8911  36.448  17.181   8.671
  382POPC   C2B 8912  36.487  17.065   8.238
  382POPC   C3B 8913  36.247  17.164   7.869
  382POPC   C4B 8914  36.355  17.037   7.445
  383POPC   NC3 8915  36.361  34.065   9.456
  383POPC   PO4 8916  35.725  34.061   9.467
  383POPC   GL1 8917  35.897  33.773   9.180
  383POPC   GL2 8918  36.269  33.695   9.088
  383POPC   C1A 8919  35.867  33.667   8.772
  383POPC   D2A 8920  36.228  33.706   8.491
  383POPC   C3A 8921  36.285  33.484   8.129
  383POPC   C4A 8922  36.205  33.617   7.736
  383POPC   C1B 8923  36.411  34.050   8.824
  383POPC   C2B 8924  36.281  34.225   8.449
  383POPC   C3B 8925  36.185  34.054   8.041
  383POPC   C4B 8926  36.458  34.091   7.677
  384POPC   NC3 8927  23.114  14.215   9.453
  384POPC   PO4 8928  22.730  14.710   9.661
  384POPC   GL1 8929  23.022  14.608   9.188
  384POPC   GL2 8930  22.770  14.305   9.081
  384POPC   C1A 8931  22.983  14.598   8.711
  384POPC   D2A 8932  22.846  14.826   8.390
  384POPC   C3A 8933  23.061  14.672   8.064
  384POPC   C4A 8934  22.780  14.458   7.799
  384POPC   C1B 8935  22.962  14.096   8.695
  384POPC   C2B 8936  23.185  14.218   8.310
  384POPC   C3B 8937  23.142  14.113   7.885
  384POPC   C4B 8938  23.145  14.144   7.437
  385POPC   NC3 8939   6.239  35.512   9.532
  385POPC   PO4 8940   5.587  35.730   9.443
  385POPC   GL1 8941   5.831  35.369   9.176
  385POPC   GL2 8942   6.220  35.243   9.088
  385POPC   C1A 8943   5.883  35.170   8.731
  385POPC   D2A 8944   5.988  35.113   8.286
  385POPC   C3A 8945   5.900  35.429   7.962
  385POPC   C4A 8946   5.716  35.360   7.561
  385POPC   C1B 8947   6.413  35.366   8.675
  385POPC   C2B 8948   6.409  35.373   8.221
  385POPC   C3B 8949   6.280  35.132   7.842
  385POPC   C4B 8950   6.215  35.410   7.495
  386POPC   NC3 8951  34.748   2.470   9.555
  386POPC   PO4 8952  34.557   1.822   9.486
  386POPC   GL1 8953  34.509   2.159   9.200
  386POPC   GL2 8954  34.823   2.229   9.047
  386POPC   C1A 8955  34.284   2.326   8.852
  386POPC   D2A 8956  34.201   2.084   8.466
  386POPC   C3A 8957  34.398   2.188   8.100
  386POPC   C4A 8958  34.510   2.230   7.706
  386POPC   C1B 8959  34.625   1.909   8.752
  386POPC   C2B 8960  34.568   1.752   8.312
  386POPC   C3B 8961  34.775   1.850   7.940
  386POPC   C4B 8962  34.950   1.982   7.555
  387POPC   NC3 8963  10.754  25.166   9.383
  387POPC   PO4 8964  10.219  25.549   9.612
  387POPC   GL1 8965  10.451  25.548   9.201
  387POPC   GL2 8966  10.124  25.515   9.101
  387POPC   C1A 8967  10.727  25.460   8.787
  387POPC   D2A 8968  10.775  25.088   8.474
  387POPC   C3A 8969  10.886  25.062   8.027
  387POPC   C4A 8970  10.682  25.070   7.632
  387POPC   C1B 8971  10.274  25.207   8.781
  387POPC   C2B 8972  10.267  24.995   8.390
  387POPC   C3B 8973  10.395  25.183   8.026
  387POPC   C4B 8974  10.183  25.210   7.660
  388POPC   NC3 8975   5.107  27.578   9.697
  388POPC   PO4 8976   4.907  28.160   9.390
  388POPC   GL1 8977   5.160  27.760   9.240
  388POPC   GL2 8978   5.021  27.453   9.189
  388POPC   C1A 8979   5.365  27.563   8.849
  388POPC   D2A 8980   5.216  27.441   8.441
  388POPC   C3A 8981   5.364  27.736   8.128
  388POPC   C4A 8982   5.666  27.582   7.846
  388POPC   C1B 8983   4.846  27.717   8.805
  388POPC   C2B 8984   4.881  27.784   8.321
  388POPC   C3B 8985   4.928  27.536   7.939
  388POPC   C4B 8986   4.853  27.107   7.750
  389POPC   NC3 8987  35.902   6.440   9.663
  389POPC   PO4 8988  36.233   7.052   9.645
  389POPC   GL1 8989  36.059   6.835   9.240
  389POPC   GL2 8990  35.831   6.508   9.173
  389POPC   C1A 8991  36.088   6.736   8.777
  389POPC   D2A 8992  36.165   6.979   8.407
  389POPC   C3A 8993  36.142   6.916   7.962
  389POPC   C4A 8994  36.269   6.546   7.753
  389POPC   C1B 8995  36.121   6.247   8.903
  389POPC   C2B 8996  36.245   6.343   8.469
  389POPC   C3B 8997  35.958   6.449   8.141
  389POPC   C4B 8998  35.895   6.173   7.772
  390POPC   NC3 8999  32.997   0.224   9.580
  390POPC   PO4 9000  33.184   0.858   9.751
  390POPC   GL1 9001  32.996   0.683   9.355
  390POPC   GL2 9002  33.294   0.642   9.178
  390POPC   C1A 9003  32.857   0.453   8.949
  390POPC   D2A 9004  32.788   0.332   8.503
  390POPC   C3A 9005  32.737   0.652   8.197
  390POPC   C4A 9006  32.662   0.608   7.766
  390POPC   C1B 9007  33.363   0.467   8.768
  390POPC   C2B 9008  33.228   0.527   8.339
  390POPC   C3B 9009  33.113   0.361   7.945
  390POPC   C4B 9010  33.439   0.536   7.714
  391POPC   NC3 9011   8.240  29.310   9.550
  391POPC   PO4 9012   8.327  28.689   9.525
  391POPC   GL1 9013   8.277  28.971   9.173
  391POPC   GL2 9014   8.068  29.309   9.075
  391POPC   C1A 9015   8.472  29.116   8.814
  391POPC   D2A 9016   8.356  29.042   8.399
  391POPC   C3A 9017   8.559  28.967   8.036
  391POPC   C4A 9018   8.476  29.172   7.678
  391POPC   C1B 9019   7.960  28.986   8.778
  391POPC   C2B 9020   7.913  28.825   8.360
  391POPC   C3B 9021   8.026  29.067   7.983
  391POPC   C4B 9022   8.029  28.952   7.553
  392POPC   NC3 9023   6.476  38.765   9.530
  392POPC   PO4 9024   7.068  38.380   9.614
  392POPC   GL1 9025   6.768  38.444   9.263
  392POPC   GL2 9026   6.890  38.778   9.195
  392POPC   C1A 9027   6.511  38.355   8.876
  392POPC   D2A 9028   6.501  38.594   8.465
  392POPC   C3A 9029   6.499  38.392   8.089
  392POPC   C4A 9030   6.527  38.531   7.699
  392POPC   C1B 9031   6.948  38.587   8.796
  392POPC   C2B 9032   7.052  38.566   8.392
  392POPC   C3B 9033   6.876  38.781   8.064
  392POPC   C4B 9034   7.016  38.729   7.655
  393POPC   NC3 9035  32.746   6.479   9.461
  393POPC   PO4 9036  33.225   6.975   9.501
  393POPC   GL1 9037  33.134   6.982   9.091
  393POPC   GL2 9038  32.810   6.858   9.134
  393POPC   C1A 9039  33.186   6.696   8.740
  393POPC   D2A 9040  33.024   6.791   8.333
  393POPC   C3A 9041  33.195   6.649   7.938
  393POPC   C4A 9042  33.301   6.399   7.564
  393POPC   C1B 9043  32.723   6.946   8.740
  393POPC   C2B 9044  32.521   6.767   8.408
  393POPC   C3B 9045  32.636   6.824   7.987
  393POPC   C4B 9046  32.750   6.536   7.688
  394POPC   NC3 9047  16.372  13.143   9.440
  394POPC   PO4 9048  15.763  13.158   9.682
  394POPC   GL1 9049  15.876  13.173   9.265
  394POPC   GL2 9050  15.682  13.414   9.097
  394POPC   C1A 9051  15.985  13.066   8.846
  394POPC   D2A 9052  16.039  12.843   8.459
  394POPC   C3A 9053  15.956  12.918   8.012
  394POPC   C4A 9054  16.086  12.613   7.688
  394POPC   C1B 9055  15.602  13.360   8.681
  394POPC   C2B 9056  15.798  13.322   8.299
  394POPC   C3B 9057  15.674  13.325   7.858
  394POPC   C4B 9058  15.955  13.196   7.519
  395POPC   NC3 9059  38.200   8.336   9.238
  395POPC   PO4 9060  37.582   8.125   9.538
  395POPC   GL1 9061  37.699   8.207   9.133
  395POPC   GL2 9062  37.477   8.479   9.131
  395POPC   C1A 9063  37.736   8.358   8.691
  395POPC   D2A 9064  38.018   8.474   8.342
  395POPC   C3A 9065  37.826   8.392   7.946
  395POPC   C4A 9066  37.773   8.382   7.486
  395POPC   C1B 9067  37.242   8.195   8.869
  395POPC   C2B 9068  37.369   7.993   8.539
  395POPC   C3B 9069  37.415   8.145   8.128
  395POPC   C4B 9070  37.401   8.097   7.690
  396POPC   NC3 9071   3.308  11.184   9.548
  396POPC   PO4 9072   3.908  10.996   9.595
  396POPC   GL1 9073   3.681  11.026   9.216
  396POPC   GL2 9074   3.522  11.356   9.121
  396POPC   C1A 9075   3.519  10.961   8.813
  396POPC   D2A 9076   3.589  11.203   8.473
  396POPC   C3A 9077   3.453  11.124   8.072
  396POPC   C4A 9078   3.705  11.113   7.688
  396POPC   C1B 9079   3.421  11.603   8.776
  396POPC   C2B 9080   3.540  11.717   8.341
  396POPC   C3B 9081   3.668  11.575   7.942
  396POPC   C4B 9082   3.399  11.497   7.593
  397POPC   NC3 9083  17.723  42.750   9.508
  397POPC   PO4 9084  17.653  42.051   9.411
  397POPC   GL1 9085  17.487  42.299   9.072
  397POPC   GL2 9086  17.357  42.636   9.109
  397POPC   C1A 9087  17.704  42.551   8.757
  397POPC   D2A 9088  17.578  42.420   8.341
  397POPC   C3A 9089  17.729  42.303   7.935
  397POPC   C4A 9090  17.755  42.297   7.503
  397POPC   C1B 9091  17.208  42.643   8.677
  397POPC   C2B 9092  17.076  42.787   8.270
  397POPC   C3B 9093  17.035  42.801   7.831
  397POPC   C4B 9094  17.340  42.590   7.502
  398POPC   NC3 9095  36.958  34.486   9.493
  398POPC   PO4 9096  36.894  35.156   9.445
  398POPC   GL1 9097  37.047  34.907   9.163
  398POPC   GL2 9098  36.715  34.766   9.144
  398POPC   C1A 9099  37.138  34.583   8.852
  398POPC   D2A 9100  37.295  34.382   8.506
  398POPC   C3A 9101  37.090  34.389   8.121
  398POPC   C4A 9102  36.949  34.141   7.795
  398POPC   C1B 9103  36.631  34.516   8.824
  398POPC   C2B 9104  36.663  34.588   8.425
  398POPC   C3B 9105  36.579  34.405   8.064
  398POPC   C4B 9106  36.451  34.622   7.738
  399POPC   NC3 9107   4.620  12.147   9.299
  399POPC   PO4 9108   5.309  12.050   9.357
  399POPC   GL1 9109   4.996  11.910   9.026
  399POPC   GL2 9110   4.879  11.552   8.976
  399POPC   C1A 9111   4.943  12.143   8.638
  399POPC   D2A 9112   5.229  12.313   8.327
  399POPC   C3A 9113   5.184  12.189   7.908
  399POPC   C4A 9114   4.984  12.370   7.539
  399POPC   C1B 9115   4.961  11.638   8.561
  399POPC   C2B 9116   4.919  11.814   8.162
  399POPC   C3B 9117   5.149  11.678   7.807
  399POPC   C4B 9118   5.257  11.958   7.454
  400POPC   NC3 9119  20.004  16.208   9.356
  400POPC   PO4 9120  19.475  15.898   9.467
  400POPC   GL1 9121  19.638  16.033   9.062
  400POPC   GL2 9122  19.979  15.832   9.011
  400POPC   C1A 9123  19.794  16.097   8.626
  400POPC   D2A 9124  19.969  15.909   8.259
  400POPC   C3A 9125  19.687  15.829   7.932
  400POPC   C4A 9126  19.686  16.196   7.710
  400POPC   C1B 9127  20.282  16.115   8.724
  400POPC   C2B 9128  20.205  16.391   8.361
  400POPC   C3B 9129  20.152  16.325   7.921
  400POPC   C4B 9130  20.139  15.955   7.701
  401POPC   NC3 9131   3.387  16.888   9.607
  401POPC   PO4 9132   3.544  16.393   9.305
  401POPC   GL1 9133   3.290  16.752   9.103
  401POPC   GL2 9134   3.423  17.119   9.131
  401POPC   C1A 9135   3.175  16.979   8.720
  401POPC   D2A 9136   3.367  17.058   8.351
  401POPC   C3A 9137   3.466  16.752   8.065
  401POPC   C4A 9138   3.523  16.618   7.642
  401POPC   C1B 9139   3.700  16.999   8.766
  401POPC   C2B 9140   3.868  16.961   8.330
  401POPC   C3B 9141   3.888  16.959   7.862
  401POPC   C4B 9142   4.029  16.863   7.427
  402POPC   NC3 9143   5.842   6.418   9.388
  402POPC   PO4 9144   5.307   6.826   9.435
  402POPC   GL1 9145   5.633   6.774   9.089
  402POPC   GL2 9146   5.865   7.051   9.035
  402POPC   C1A 9147   5.974   6.624   8.769
  402POPC   D2A 9148   5.994   6.539   8.316
  402POPC   C3A 9149   6.028   6.609   7.854
  402POPC   C4A 9150   5.817   6.503   7.439
  402POPC   C1B 9151   5.624   6.956   8.605
  402POPC   C2B 9152   5.680   6.905   8.139
  402POPC   C3B 9153   5.648   6.906   7.690
  402POPC   C4B 9154   5.936   6.970   7.303
  403POPC   NC3 9155   5.245  43.703   9.841
  403POPC   PO4 9156   5.835  43.798   9.511
  403POPC   GL1 9157   6.148  43.932   9.226
  403POPC   GL2 9158   6.105  43.590   9.101
  403POPC   C1A 9159   6.249  43.966   8.783
  403POPC   D2A 9160   6.009  44.028   8.405
  403POPC   C3A 9161   6.202  43.956   8.028
  403POPC   C4A 9162   6.034  43.889   7.662
  403POPC   C1B 9163   5.773  43.778   8.847
  403POPC   C2B 9164   5.509  43.868   8.506
  403POPC   C3B 9165   5.606  43.850   8.064
  403POPC   C4B 9166   5.684  43.519   7.758
  404POPC   NC3 9167  13.925  13.369   9.554
  404POPC   PO4 9168  13.568  13.907   9.510
  404POPC   GL1 9169  13.739  13.895   9.129
  404POPC   GL2 9170  13.925  13.599   9.108
  404POPC   C1A 9171  13.633  13.778   8.735
  404POPC   D2A 9172  13.803  13.937   8.398
  404POPC   C3A 9173  13.706  13.643   8.124
  404POPC   C4A 9174  13.732  13.661   7.712
  404POPC   C1B 9175  14.149  13.387   8.794
  404POPC   C2B 9176  14.128  13.338   8.356
  404POPC   C3B 9177  14.160  13.472   7.948
  404POPC   C4B 9178  14.130  13.434   7.523
  405POPC   NC3 9179  26.762  34.015   9.437
  405POPC   PO4 9180  26.424  33.463   9.476
  405POPC   GL1 9181  26.525  33.628   9.084
  405POPC   GL2 9182  26.850  33.706   9.019
  405POPC   C1A 9183  26.440  33.899   8.742
  405POPC   D2A 9184  26.705  33.994   8.368
  405POPC   C3A 9185  26.553  33.863   7.964
  405POPC   C4A 9186  26.605  34.025   7.539
  405POPC   C1B 9187  26.707  33.479   8.620
  405POPC   C2B 9188  26.877  33.533   8.201
  405POPC   C3B 9189  27.026  33.726   7.807
  405POPC   C4B 9190  27.154  33.869   7.395
  406POPC   NC3 9191  29.060   6.335   9.414
  406POPC   PO4 9192  29.196   7.004   9.429
  406POPC   GL1 9193  29.218   6.749   9.119
  406POPC   GL2 9194  29.338   6.984   8.909
  406POPC   C1A 9195  29.087   6.504   8.764
  406POPC   D2A 9196  29.197   6.334   8.378
  406POPC   C3A 9197  28.942   6.438   8.037
  406POPC   C4A 9198  28.996   6.273   7.648
  406POPC   C1B 9199  29.640   7.153   8.618
  406POPC   C2B 9200  29.630   7.024   8.210
  406POPC   C3B 9201  29.269   6.842   8.045
  406POPC   C4B 9202  29.197   6.745   7.614
  407POPC   NC3 9203  11.783  28.046   9.449
  407POPC   PO4 9204  11.038  28.356   9.407
  407POPC   GL1 9205  11.211  28.175   9.058
  407POPC   GL2 9206  11.549  28.319   9.077
  407POPC   C1A 9207  11.269  28.303   8.630
  407POPC   D2A 9208  11.607  28.390   8.348
  407POPC   C3A 9209  11.454  28.595   8.008
  407POPC   C4A 9210  11.153  28.657   7.710
  407POPC   C1B 9211  11.645  27.969   8.805
  407POPC   C2B 9212  11.507  27.885   8.419
  407POPC   C3B 9213  11.229  28.111   8.144
  407POPC   C4B 9214  11.277  28.158   7.722
  408POPC   NC3 9215  22.138  20.992   9.325
  408POPC   PO4 9216  22.134  20.360   9.382
  408POPC   GL1 9217  22.294  20.398   8.974
  408POPC   GL2 9218  22.067  20.650   8.946
  408POPC   C1A 9219  22.231  20.392   8.531
  408POPC   D2A 9220  21.873  20.589   8.366
  408POPC   C3A 9221  21.926  20.710   7.975
  408POPC   C4A 9222  22.299  20.564   7.802
  408POPC   C1B 9223  22.221  20.901   8.660
  408POPC   C2B 9224  22.359  20.837   8.269
  408POPC   C3B 9225  22.400  21.043   7.899
  408POPC   C4B 9226  22.050  21.106   7.660
  409POPC   NC3 9227  42.243  34.304   9.465
  409POPC   PO4 9228  42.588  34.828   9.641
  409POPC   GL1 9229  42.505  34.654   9.171
  409POPC   GL2 9230  42.281  34.391   8.989
  409POPC   C1A 9231  42.303  34.852   8.769
  409POPC   D2A 9232  42.299  34.721   8.331
  409POPC   C3A 9233  42.121  34.877   7.972
  409POPC   C4A 9234  42.423  34.656   7.767
  409POPC   C1B 9235  42.327  34.099   8.669
  409POPC   C2B 9236  42.335  34.207   8.198
  409POPC   C3B 9237  42.277  34.162   7.733
  409POPC   C4B 9238  42.497  34.304   7.362
  410POPC   NC3 9239   8.158  38.755   9.630
  410POPC   PO4 9240   8.013  38.158   9.376
  410POPC   GL1 9241   8.386  38.353   9.184
  410POPC   GL2 9242   8.248  38.611   9.121
  410POPC   C1A 9243   8.480  38.404   8.730
  410POPC   D2A 9244   8.521  38.262   8.310
  410POPC   C3A 9245   8.391  38.483   7.921
  410POPC   C4A 9246   8.388  38.587   7.440
  410POPC   C1B 9247   7.973  38.428   8.776
  410POPC   C2B 9248   7.879  38.617   8.386
  410POPC   C3B 9249   7.955  38.721   7.972
  410POPC   C4B 9250   7.877  38.374   7.709
  411POPC   NC3 9251  22.759  24.030   9.343
  411POPC   PO4 9252  22.234  23.588   9.421
  411POPC   GL1 9253  22.491  23.677   9.097
  411POPC   GL2 9254  22.267  23.985   9.086
  411POPC   C1A 9255  22.552  23.881   8.698
  411POPC   D2A 9256  22.460  23.760   8.311
  411POPC   C3A 9257  22.326  23.582   7.947
  411POPC   C4A 9258  22.388  23.991   7.750
  411POPC   C1B 9259  22.097  23.617   8.804
  411POPC   C2B 9260  21.962  23.595   8.440
  411POPC   C3B 9261  21.961  23.890   8.153
  411POPC   C4B 9262  21.896  23.812   7.759
  412POPC   NC3 9263  16.179  16.484   9.477
  412POPC   PO4 9264  15.873  17.047   9.589
  412POPC   GL1 9265  15.981  16.867   9.202
  412POPC   GL2 9266  16.329  16.903   9.108
  412POPC   C1A 9267  15.860  16.689   8.813
  412POPC   D2A 9268  16.037  16.567   8.420
  412POPC   C3A 9269  15.799  16.392   8.096
  412POPC   C4A 9270  15.724  16.642   7.726
  412POPC   C1B 9271  16.314  16.936   8.653
  412POPC   C2B 9272  16.280  16.983   8.215
  412POPC   C3B 9273  16.147  16.934   7.800
  412POPC   C4B 9274  16.270  16.728   7.436
  413POPC   NC3 9275  17.974   1.784   9.369
  413POPC   PO4 9276  18.645   1.798   9.581
  413POPC   GL1 9277  18.486   1.937   9.154
  413POPC   GL2 9278  18.233   2.215   9.107
  413POPC   C1A 9279  18.293   1.871   8.727
  413POPC   D2A 9280  18.393   1.655   8.324
  413POPC   C3A 9281  18.603   1.936   8.001
  413POPC   C4A 9282  18.458   1.937   7.523
  413POPC   C1B 9283  17.979   2.291   8.709
  413POPC   C2B 9284  18.181   2.169   8.299
  413POPC   C3B 9285  18.097   1.912   7.914
  413POPC   C4B 9286  17.982   2.115   7.479
  414POPC   NC3 9287  20.973  22.185   9.535
  414POPC   PO4 9288  21.613  22.017   9.547
  414POPC   GL1 9289  21.632  22.071   9.166
  414POPC   GL2 9290  21.291  22.155   9.144
  414POPC   C1A 9291  21.621  22.273   8.765
  414POPC   D2A 9292  21.799  22.440   8.401
  414POPC   C3A 9293  21.634  22.246   8.030
  414POPC   C4A 9294  21.524  22.450   7.647
  414POPC   C1B 9295  21.076  22.168   8.778
  414POPC   C2B 9296  21.178  22.047   8.371
  414POPC   C3B 9297  21.111  22.264   7.988
  414POPC   C4B 9298  21.071  22.661   7.803
  415POPC   NC3 9299  25.900  18.891   9.225
  415POPC   PO4 9300  25.476  19.362   9.565
  415POPC   GL1 9301  25.340  19.180   9.188
  415POPC   GL2 9302  25.064  18.948   9.259
  415POPC   C1A 9303  25.309  19.322   8.772
  415POPC   D2A 9304  24.979  19.275   8.472
  415POPC   C3A 9305  25.093  19.300   8.037
  415POPC   C4A 9306  25.568  19.314   7.893
  415POPC   C1B 9307  25.130  18.862   8.804
  415POPC   C2B 9308  25.353  18.978   8.364
  415POPC   C3B 9309  25.317  18.877   7.892
  415POPC   C4B 9310  24.968  18.883   7.542
  416POPC   NC3 9311  22.614  11.668   9.522
  416POPC   PO4 9312  22.920  12.183   9.507
  416POPC   GL1 9313  22.918  12.022   9.146
  416POPC   GL2 9314  23.099  11.764   9.087
  416POPC   C1A 9315  22.708  12.053   8.775
  416POPC   D2A 9316  22.772  11.899   8.390
  416POPC   C3A 9317  22.818  12.149   8.080
  416POPC   C4A 9318  22.706  12.043   7.661
  416POPC   C1B 9319  23.188  11.944   8.669
  416POPC   C2B 9320  23.316  11.978   8.206
  416POPC   C3B 9321  23.212  12.098   7.752
  416POPC   C4B 9322  23.099  12.035   7.318
  417POPC   NC3 9323  44.908  37.783   9.471
  417POPC   PO4 9324  44.161  37.799   9.389
  417POPC   GL1 9325  44.569  37.674   9.105
  417POPC   GL2 9326  44.947  37.510   9.053
  417POPC   C1A 9327  44.661  37.642   8.668
  417POPC   D2A 9328  44.439  37.435   8.374
  417POPC   C3A 9329  44.656  37.673   8.105
  417POPC   C4A 9330  44.569  37.678   7.704
  417POPC   C1B 9331   0.186  37.495   8.667
  417POPC   C2B 9332   0.149  37.621   8.253
  417POPC   C3B 9333   0.057  37.555   7.798
  417POPC   C4B 9334   0.303  37.709   7.416
  418POPC   NC3 9335  30.627  29.401   9.489
  418POPC   PO4 9336  30.541  28.700   9.540
  418POPC   GL1 9337  30.567  29.005   9.193
  418POPC   GL2 9338  30.918  29.113   9.168
  418POPC   C1A 9339  30.510  29.286   8.827
  418POPC   D2A 9340  30.725  29.333   8.423
  418POPC   C3A 9341  30.442  29.296   8.110
  418POPC   C4A 9342  30.432  29.153   7.727
  418POPC   C1B 9343  30.877  28.936   8.771
  418POPC   C2B 9344  30.949  28.834   8.374
  418POPC   C3B 9345  30.793  28.837   8.026
  418POPC   C4B 9346  30.902  28.967   7.670
  419POPC   NC3 9347   4.561  44.138   9.700
  419POPC   PO4 9348   4.253  43.616   9.512
  419POPC   GL1 9349   4.250  43.941   9.148
  419POPC   GL2 9350   4.530  43.844   8.916
  419POPC   C1A 9351   4.127  44.012   8.671
  419POPC   D2A 9352   4.522  43.982   8.402
  419POPC   C3A 9353   4.527  44.044   7.969
  419POPC   C4A 9354   4.151  44.058   7.708
  419POPC   C1B 9355   4.314  43.535   8.621
  419POPC   C2B 9356   3.914  43.522   8.417
  419POPC   C3B 9357   4.101  43.757   8.113
  419POPC   C4B 9358   4.409  43.577   7.791
  420POPC   NC3 9359   1.601  43.858   9.474
  420POPC   PO4 9360   0.908  43.993   9.343
  420POPC   GL1 9361   1.228  43.759   9.120
  420POPC   GL2 9362   1.441  43.451   9.221
  420POPC   C1A 9363   1.174  43.785   8.682
  420POPC   D2A 9364   1.367  43.935   8.344
  420POPC   C3A 9365   1.064  43.949   8.071
  420POPC   C4A 9366   1.030  43.628   7.801
  420POPC   C1B 9367   1.619  43.595   8.808
  420POPC   C2B 9368   1.602  43.472   8.373
  420POPC   C3B 9369   1.515  43.539   7.992
  420POPC   C4B 9370   1.393  43.358   7.617
  421POPC   NC3 9371  31.346  11.756   9.486
  421POPC   PO4 9372  31.730  12.295   9.422
  421POPC   GL1 9373  31.478  12.122   9.144
  421POPC   GL2 9374  31.698  11.858   9.094
  421POPC   C1A 9375  31.249  12.278   8.816
  421POPC   D2A 9376  31.288  12.143   8.388
  421POPC   C3A 9377  31.266  12.408   8.012
  421POPC   C4A 9378  31.632  12.517   7.749
  421POPC   C1B 9379  31.427  11.781   8.743
  421POPC   C2B 9380  31.241  11.649   8.376
  421POPC   C3B 9381  31.340  11.841   7.963
  421POPC   C4B 9382  31.652  11.563   7.799
  422POPC   NC3 9383  36.266  43.407   9.596
  422POPC   PO4 9384  35.984  44.047   9.437
  422POPC   GL1 9385  36.181  43.900   9.109
  422POPC   GL2 9386  36.455  43.825   9.299
  422POPC   C1A 9387  36.085  43.704   8.716
  422POPC   D2A 9388  35.740  43.626   8.443
  422POPC   C3A 9389  35.796  43.778   8.014
  422POPC   C4A 9390  36.109  43.968   7.770
  422POPC   C1B 9391  36.591  43.736   8.853
  422POPC   C2B 9392  36.501  43.838   8.414
  422POPC   C3B 9393  36.543  43.739   7.983
  422POPC   C4B 9394  36.264  43.497   7.800
  423POPC   NC3 9395  21.164   1.265   9.888
  423POPC   PO4 9396  20.605   1.312   9.562
  423POPC   GL1 9397  20.617   1.321   9.150
  423POPC   GL2 9398  20.577   0.944   9.156
  423POPC   C1A 9399  20.781   1.186   8.748
  423POPC   D2A 9400  20.744   0.904   8.373
  423POPC   C3A 9401  20.714   1.172   7.994
  423POPC   C4A 9402  20.662   1.057   7.553
  423POPC   C1B 9403  20.393   0.876   8.756
  423POPC   C2B 9404  20.232   0.852   8.330
  423POPC   C3B 9405  20.410   0.785   7.917
  423POPC   C4B 9406  20.282   0.708   7.504
  424POPC   NC3 9407  11.386  26.310   9.528
  424POPC   PO4 9408  11.767  25.872   9.138
  424POPC   GL1 9409  11.570  26.250   9.043
  424POPC   GL2 9410  11.185  26.290   9.075
  424POPC   C1A 9411  11.527  26.276   8.595
  424POPC   D2A 9412  11.512  25.938   8.336
  424POPC   C3A 9413  11.651  25.964   7.928
  424POPC   C4A 9414  11.516  25.564   7.784
  424POPC   C1B 9415  11.036  26.135   8.719
  424POPC   C2B 9416  11.093  26.230   8.313
  424POPC   C3B 9417  10.932  26.186   7.953
  424POPC   C4B 9418  11.168  25.923   7.705
  425POPC   NC3 9419  10.125  18.654   9.470
  425POPC   PO4 9420  10.636  18.262   9.437
  425POPC   GL1 9421  10.373  18.209   9.076
  425POPC   GL2 9422  10.399  18.547   8.986
  425POPC   C1A 9423  10.494  18.028   8.663
  425POPC   D2A 9424  10.532  18.253   8.317
  425POPC   C3A 9425  10.549  18.160   7.885
  425POPC   C4A 9426  10.224  18.325   7.656
  425POPC   C1B 9427  10.787  18.408   8.812
  425POPC   C2B 9428  10.935  18.526   8.439
  425POPC   C3B 9429  10.762  18.610   8.048
  425POPC   C4B 9430  10.604  18.660   7.628
  426POPC   NC3 9431  34.904  43.649   9.501
  426POPC   PO4 9432  35.155  44.258   9.453
  426POPC   GL1 9433  35.486  44.077   9.099
  426POPC   GL2 9434  35.685  43.746   9.099
  426POPC   C1A 9435  35.699  44.094   8.701
  426POPC   D2A 9436  35.450  44.040   8.314
  426POPC   C3A 9437  35.298  44.212   7.915
  426POPC   C4A 9438  35.155  43.958   7.536
  426POPC   C1B 9439  35.328  43.660   8.807
  426POPC   C2B 9440  35.232  43.528   8.395
  426POPC   C3B 9441  35.303  43.647   7.975
  426POPC   C4B 9442  35.075  43.453   7.669
  427POPC   NC3 9443  19.380  13.155   9.204
  427POPC   PO4 9444  18.856  12.778   9.430
  427POPC   GL1 9445  18.892  12.983   9.069
  427POPC   GL2 9446  19.006  12.688   8.939
  427POPC   C1A 9447  19.090  13.094   8.653
  427POPC   D2A 9448  19.067  13.085   8.271
  427POPC   C3A 9449  19.200  12.856   7.961
  427POPC   C4A 9450  19.074  12.763   7.499
  427POPC   C1B 9451  19.174  12.584   8.549
  427POPC   C2B 9452  19.342  12.427   8.186
  427POPC   C3B 9453  19.427  12.467   7.741
  427POPC   C4B 9454  19.260  12.292   7.361
  428POPC   NC3 9455  12.068  41.995   9.600
  428POPC   PO4 9456  12.378  42.591   9.495
  428POPC   GL1 9457  12.100  42.539   9.133
  428POPC   GL2 9458  12.050  42.219   9.140
  428POPC   C1A 9459  12.069  42.574   8.703
  428POPC   D2A 9460  12.294  42.285   8.328
  428POPC   C3A 9461  12.199  42.291   7.922
  428POPC   C4A 9462  11.920  42.547   7.758
  428POPC   C1B 9463  12.052  42.070   8.728
  428POPC   C2B 9464  11.878  41.838   8.408
  428POPC   C3B 9465  11.788  41.779   7.986
  428POPC   C4B 9466  11.859  42.051   7.623
  429POPC   NC3 9467   7.486   2.745   9.625
  429POPC   PO4 9468   7.691   3.290   9.353
  429POPC   GL1 9469   7.683   2.916   9.177
  429POPC   GL2 9470   7.341   2.840   9.161
  429POPC   C1A 9471   7.653   2.711   8.794
  429POPC   D2A 9472   7.353   2.690   8.452
  429POPC   C3A 9473   7.568   2.571   8.085
  429POPC   C4A 9474   7.436   2.587   7.677
  429POPC   C1B 9475   7.310   3.117   8.845
  429POPC   C2B 9476   7.247   3.216   8.419
  429POPC   C3B 9477   7.222   2.987   8.045
  429POPC   C4B 9478   7.414   3.084   7.665
  430POPC   NC3 9479  21.446  32.653   9.504
  430POPC   PO4 9480  21.497  32.000   9.513
  430POPC   GL1 9481  21.605  32.255   9.161
  430POPC   GL2 9482  21.331  32.474   8.986
  430POPC   C1A 9483  21.625  32.185   8.718
  430POPC   D2A 9484  21.297  32.065   8.447
  430POPC   C3A 9485  21.563  32.246   8.185
  430POPC   C4A 9486  21.664  32.297   7.816
  430POPC   C1B 9487  20.953  32.402   8.684
  430POPC   C2B 9488  20.929  32.356   8.202
  430POPC   C3B 9489  21.140  32.160   7.898
  430POPC   C4B 9490  21.238  32.413   7.577
  431POPC   NC3 9491  32.137   0.816   9.475
  431POPC   PO4 9492  32.474   0.186   9.536
  431POPC   GL1 9493  32.381   0.443   9.184
  431POPC   GL2 9494  32.027   0.488   9.095
  431POPC   C1A 9495  32.364   0.275   8.762
  431POPC   D2A 9496  32.318   0.021   8.409
  431POPC   C3A 9497  32.538   0.180   8.066
  431POPC   C4A 9498  32.264   0.308   7.760
  431POPC   C1B 9499  32.075   0.673   8.670
  431POPC   C2B 9500  32.238   0.580   8.273
  431POPC   C3B 9501  32.179   0.796   7.884
  431POPC   C4B 9502  32.108   0.748   7.434
  432POPC   NC3 9503  11.966  14.995   9.498
  432POPC   PO4 9504  12.338  15.648   9.436
  432POPC   GL1 9505  12.251  15.296   9.146
  432POPC   GL2 9506  11.936  15.303   9.080
  432POPC   C1A 9507  12.259  15.077   8.705
  432POPC   D2A 9508  12.491  15.138   8.300
  432POPC   C3A 9509  12.267  15.376   8.007
  432POPC   C4A 9510  11.879  15.359   7.785
  432POPC   C1B 9511  11.815  14.900   8.891
  432POPC   C2B 9512  11.768  14.824   8.490
  432POPC   C3B 9513  11.943  14.997   8.141
  432POPC   C4B 9514  11.918  14.871   7.722
  433POPC   NC3 9515  22.089  30.394   9.566
  433POPC   PO4 9516  22.542  29.974   9.492
  433POPC   GL1 9517  22.210  30.016   9.198
  433POPC   GL2 9518  21.964  30.307   9.101
  433POPC   C1A 9519  22.187  29.812   8.804
  433POPC   D2A 9520  22.324  29.954   8.426
  433POPC   C3A 9521  22.132  29.883   8.033
  433POPC   C4A 9522  22.203  30.048   7.624
  433POPC   C1B 9523  21.898  30.203   8.700
  433POPC   C2B 9524  21.785  30.380   8.334
  433POPC   C3B 9525  21.901  30.354   7.908
  433POPC   C4B 9526  21.748  30.185   7.465
  434POPC   NC3 9527  23.986  25.038   9.777
  434POPC   PO4 9528  23.473  25.356   9.475
  434POPC   GL1 9529  23.780  25.215   9.201
  434POPC   GL2 9530  24.135  25.274   9.234
  434POPC   C1A 9531  23.744  25.122   8.779
  434POPC   D2A 9532  23.788  25.360   8.418
  434POPC   C3A 9533  23.635  25.307   8.008
  434POPC   C4A 9534  23.626  25.058   7.663
  434POPC   C1B 9535  24.135  25.458   8.815
  434POPC   C2B 9536  24.219  25.606   8.383
  434POPC   C3B 9537  23.987  25.681   8.005
  434POPC   C4B 9538  23.877  25.507   7.573
  435POPC   NC3 9539  43.080  14.051   9.447
  435POPC   PO4 9540  43.481  13.615   9.549
  435POPC   GL1 9541  43.222  13.463   9.196
  435POPC   GL2 9542  43.069  13.711   9.036
  435POPC   C1A 9543  43.341  13.346   8.753
  435POPC   D2A 9544  43.522  13.530   8.330
  435POPC   C3A 9545  43.428  13.386   7.928
  435POPC   C4A 9546  43.139  13.582   7.653
  435POPC   C1B 9547  42.927  13.609   8.620
  435POPC   C2B 9548  42.982  13.605   8.164
  435POPC   C3B 9549  42.681  13.715   7.809
  435POPC   C4B 9550  42.753  13.913   7.374
  436POPC   NC3 9551  27.715  10.101   9.617
  436POPC   PO4 9552  27.789   9.423   9.627
  436POPC   GL1 9553  27.665   9.622   9.257
  436POPC   GL2 9554  27.301   9.562   9.207
  436POPC   C1A 9555  27.716   9.567   8.820
  436POPC   D2A 9556  27.718   9.708   8.411
  436POPC   C3A 9557  27.650   9.443   8.089
  436POPC   C4A 9558  27.779   9.715   7.801
  436POPC   C1B 9559  27.198   9.723   8.774
  436POPC   C2B 9560  27.212   9.647   8.322
  436POPC   C3B 9561  27.231   9.677   7.873
  436POPC   C4B 9562  27.031   9.510   7.504
  437POPC   NC3 9563  17.455  26.318   9.366
  437POPC   PO4 9564  17.151  25.722   9.552
  437POPC   GL1 9565  17.294  25.905   9.150
  437POPC   GL2 9566  17.044  26.112   9.068
  437POPC   C1A 9567  17.468  25.981   8.737
  437POPC   D2A 9568  17.321  25.800   8.383
  437POPC   C3A 9569  17.434  25.924   8.068
  437POPC   C4A 9570  17.427  25.873   7.676
  437POPC   C1B 9571  16.972  26.066   8.621
  437POPC   C2B 9572  16.985  26.152   8.159
  437POPC   C3B 9573  17.286  26.355   7.844
  437POPC   C4B 9574  17.330  26.254   7.368
  438POPC   NC3 9575  43.998   7.007   9.773
  438POPC   PO4 9576  43.985   7.588   9.517
  438POPC   GL1 9577  43.865   7.429   9.176
  438POPC   GL2 9578  43.584   7.580   9.146
  438POPC   C1A 9579  43.914   7.410   8.755
  438POPC   D2A 9580  44.026   7.181   8.407
  438POPC   C3A 9581  43.869   7.385   8.066
  438POPC   C4A 9582  43.835   7.233   7.686
  438POPC   C1B 9583  43.613   7.843   8.825
  438POPC   C2B 9584  43.694   7.740   8.415
  438POPC   C3B 9585  43.461   7.712   8.055
  438POPC   C4B 9586  43.642   7.710   7.649
  439POPC   NC3 9587   6.994  27.561   9.874
  439POPC   PO4 9588   6.418  27.507   9.402
  439POPC   GL1 9589   6.605  27.408   9.019
  439POPC   GL2 9590   6.371  27.381   8.777
  439POPC   C1A 9591   6.802  27.620   8.700
  439POPC   D2A 9592   6.594  27.698   8.346
  439POPC   C3A 9593   6.892  27.704   8.048
  439POPC   C4A 9594   6.783  27.813   7.645
  439POPC   C1B 9595   6.701  27.142   8.562
  439POPC   C2B 9596   6.671  27.207   8.167
  439POPC   C3B 9597   6.446  27.442   7.883
  439POPC   C4B 9598   6.450  27.346   7.432
  440POPC   NC3 9599  33.655  24.297   9.619
  440POPC   PO4 9600  33.767  23.656   9.558
  440POPC   GL1 9601  33.727  23.502   9.141
  440POPC   GL2 9602  34.068  23.536   9.051
  440POPC   C1A 9603  33.620  23.569   8.697
  440POPC   D2A 9604  33.793  23.638   8.298
  440POPC   C3A 9605  33.516  23.562   7.973
  440POPC   C4A 9606  33.748  23.556   7.597
  440POPC   C1B 9607  34.117  23.757   8.681
  440POPC   C2B 9608  34.221  23.931   8.274
  440POPC   C3B 9609  33.926  23.951   7.901
  440POPC   C4B 9610  33.495  24.011   7.725
  441POPC   NC3 9611  28.030  14.236   9.476
  441POPC   PO4 9612  27.447  14.111   9.540
  441POPC   GL1 9613  27.496  14.397   9.198
  441POPC   GL2 9614  27.287  14.704   9.280
  441POPC   C1A 9615  27.746  14.442   8.789
  441POPC   D2A 9616  27.838  14.623   8.352
  441POPC   C3A 9617  27.715  14.405   7.971
  441POPC   C4A 9618  27.433  14.233   7.671
  441POPC   C1B 9619  27.255  14.675   8.838
  441POPC   C2B 9620  27.215  14.562   8.397
  441POPC   C3B 9621  27.285  14.692   7.970
  441POPC   C4B 9622  27.229  14.834   7.553
  442POPC   NC3 9623  21.256   5.944   9.611
  442POPC   PO4 9624  21.789   6.276   9.338
  442POPC   GL1 9625  21.444   5.962   9.126
  442POPC   GL2 9626  21.367   5.610   9.241
  442POPC   C1A 9627  21.416   5.977   8.693
  442POPC   D2A 9628  21.209   6.160   8.364
  442POPC   C3A 9629  21.431   5.995   8.043
  442POPC   C4A 9630  21.512   5.956   7.616
  442POPC   C1B 9631  21.112   5.605   8.853
  442POPC   C2B 9632  21.157   5.576   8.451
  442POPC   C3B 9633  20.991   5.744   8.127
  442POPC   C4B 9634  21.047   5.798   7.724
  443POPC   NC3 9635  38.128  26.495   9.333
  443POPC   PO4 9636  38.637  26.870   9.630
  443POPC   GL1 9637  38.709  26.660   9.224
  443POPC   GL2 9638  38.633  26.909   8.975
  443POPC   C1A 9639  38.871  26.508   8.783
  443POPC   D2A 9640  38.690  26.438   8.345
  443POPC   C3A 9641  38.489  26.791   8.133
  443POPC   C4A 9642  38.380  26.904   7.714
  443POPC   C1B 9643  38.348  27.040   8.589
  443POPC   C2B 9644  38.158  27.194   8.179
  443POPC   C3B 9645  38.101  27.329   7.743
  443POPC   C4B 9646  38.343  27.275   7.336
  444POPC   NC3 9647  22.612  44.217   9.460
  444POPC   PO4 9648  23.254  44.254   9.779
  444POPC   GL1 9649  23.132  44.375   9.344
  444POPC   GL2 9650  23.103  44.750   9.304
  444POPC   C1A 9651  23.062  44.352   8.887
  444POPC   D2A 9652  22.779  44.360   8.517
  444POPC   C3A 9653  22.931  44.336   8.066
  444POPC   C4A 9654  22.865  44.456   7.594
  444POPC   C1B 9655  23.034  44.913   8.870
  444POPC   C2B 9656  22.817  44.903   8.448
  444POPC   C3B 9657  22.859  44.831   7.998
  444POPC   C4B 9658  23.107  44.920   7.633
  445POPC   NC3 9659  42.867  36.705   9.435
  445POPC   PO4 9660  43.444  37.092   9.546
  445POPC   GL1 9661  43.174  37.072   9.156
  445POPC   GL2 9662  42.877  36.894   8.984
  445POPC   C1A 9663  43.116  37.234   8.742
  445POPC   D2A 9664  43.021  36.974   8.447
  445POPC   C3A 9665  42.988  37.010   8.041
  445POPC   C4A 9666  43.237  36.969   7.695
  445POPC   C1B 9667  42.597  36.649   8.778
  445POPC   C2B 9668  42.559  36.759   8.411
  445POPC   C3B 9669  42.617  36.651   8.025
  445POPC   C4B 9670  42.676  36.825   7.652
  446POPC   NC3 9671  27.934  39.836   9.262
  446POPC   PO4 9672  28.455  40.312   9.461
  446POPC   GL1 9673  28.475  40.124   9.055
  446POPC   GL2 9674  28.149  40.120   8.912
  446POPC   C1A 9675  28.554  39.949   8.646
  446POPC   D2A 9676  28.676  39.783   8.257
  446POPC   C3A 9677  28.455  40.016   7.939
  446POPC   C4A 9678  28.160  40.322   7.747
  446POPC   C1B 9679  28.136  39.677   8.673
  446POPC   C2B 9680  28.199  39.666   8.254
  446POPC   C3B 9681  28.085  39.616   7.860
  446POPC   C4B 9682  28.142  39.528   7.407
  447POPC   NC3 9683  27.163  40.434   9.440
  447POPC   PO4 9684  26.658  40.912   9.488
  447POPC   GL1 9685  26.769  40.979   9.056
  447POPC   GL2 9686  26.725  40.617   9.031
  447POPC   C1A 9687  26.787  40.894   8.585
  447POPC   D2A 9688  26.774  40.595   8.228
  447POPC   C3A 9689  26.982  40.585   7.846
  447POPC   C4A 9690  26.893  40.592   7.392
  447POPC   C1B 9691  26.388  40.594   8.744
  447POPC   C2B 9692  26.320  40.768   8.357
  447POPC   C3B 9693  26.389  41.043   8.013
  447POPC   C4B 9694  26.534  40.787   7.690
  448POPC   NC3 9695   9.747  11.278   9.761
  448POPC   PO4 9696   9.234  11.641   9.524
  448POPC   GL1 9697   9.578  11.516   9.251
  448POPC   GL2 9698   9.799  11.242   9.263
  448POPC   C1A 9699   9.840  11.619   8.871
  448POPC   D2A 9700   9.880  11.429   8.483
  448POPC   C3A 9701  10.001  11.624   8.127
  448POPC   C4A 9702   9.817  11.568   7.732
  448POPC   C1B 9703   9.601  11.161   8.864
  448POPC   C2B 9704   9.610  10.989   8.448
  448POPC   C3B 9705   9.757  11.156   8.048
  448POPC   C4B 9706   9.605  11.101   7.624
  449POPC   NC3 9707  37.316  17.069   9.360
  449POPC   PO4 9708  38.012  17.286   9.261
  449POPC   GL1 9709  37.749  17.596   9.059
  449POPC   GL2 9710  37.560  17.352   8.976
  449POPC   C1A 9711  37.899  17.676   8.677
  449POPC   D2A 9712  37.835  17.396   8.374
  449POPC   C3A 9713  37.990  17.596   8.043
  449POPC   C4A 9714  37.831  17.832   7.734
  449POPC   C1B 9715  37.311  17.436   8.653
  449POPC   C2B 9716  37.335  17.505   8.269
  449POPC   C3B 9717  37.534  17.403   7.930
  449POPC   C4B 9718  37.218  17.405   7.674
  450POPC   NC3 9719  13.866  25.104   9.507
  450POPC   PO4 9720  13.316  25.501   9.469
  450POPC   GL1 9721  13.647  25.361   9.127
  450POPC   GL2 9722  13.812  25.607   8.943
  450POPC   C1A 9723  13.831  25.176   8.661
  450POPC   D2A 9724  13.694  24.937   8.221
  450POPC   C3A 9725  13.821  24.990   7.736
  450POPC   C4A 9726  13.481  24.953   7.377
  450POPC   C1B 9727  13.389  25.426   8.715
  450POPC   C2B 9728  13.296  25.296   8.292
  450POPC   C3B 9729  13.365  25.200   7.847
  450POPC   C4B 9730  13.185  25.356   7.462
  451POPC   NC3 9731   5.552  37.103   9.198
  451POPC   PO4 9732   4.998  37.059   9.560
  451POPC   GL1 9733   5.065  37.011   9.100
  451POPC   GL2 9734   4.818  37.196   9.045
  451POPC   C1A 9735   5.246  37.045   8.622
  451POPC   D2A 9736   5.313  37.102   8.157
  451POPC   C3A 9737   5.257  36.713   7.885
  451POPC   C4A 9738   5.246  36.335   7.630
  451POPC   C1B 9739   4.781  36.866   8.687
  451POPC   C2B 9740   4.847  36.867   8.215
  451POPC   C3B 9741   4.915  37.094   7.802
  451POPC   C4B 9742   4.849  37.063   7.306
  452POPC   NC3 9743   4.728  28.592   9.500
  452POPC   PO4 9744   5.466  28.660   9.447
  452POPC   GL1 9745   5.182  28.511   9.132
  452POPC   GL2 9746   5.252  28.180   9.008
  452POPC   C1A 9747   4.952  28.457   8.732
  452POPC   D2A 9748   4.675  28.211   8.460
  452POPC   C3A 9749   4.787  28.244   7.997
  452POPC   C4A 9750   5.002  28.596   7.753
  452POPC   C1B 9751   5.236  28.031   8.611
  452POPC   C2B 9752   5.205  28.334   8.298
  452POPC   C3B 9753   5.320  28.238   7.927
  452POPC   C4B 9754   5.171  27.915   7.667
  453POPC   NC3 9755  35.907  23.389   9.453
  453POPC   PO4 9756  36.278  23.893   9.378
  453POPC   GL1 9757  35.879  23.857   9.100
  453POPC   GL2 9758  35.759  23.525   8.976
  453POPC   C1A 9759  35.994  23.881   8.684
  453POPC   D2A 9760  36.436  23.858   8.575
  453POPC   C3A 9761  36.405  23.863   8.140
  453POPC   C4A 9762  36.428  24.047   7.739
  453POPC   C1B 9763  36.207  23.443   8.837
  453POPC   C2B 9764  36.375  23.376   8.428
  453POPC   C3B 9765  36.236  23.352   8.026
  453POPC   C4B 9766  36.113  23.640   7.733
  454POPC   NC3 9767  11.944  10.978   9.440
  454POPC   PO4 9768  11.573  11.540   9.622
  454POPC   GL1 9769  11.962  11.464   9.252
  454POPC   GL2 9770  11.937  11.177   8.995
  454POPC   C1A 9771  12.143  11.584   8.827
  454POPC   D2A 9772  12.003  11.318   8.461
  454POPC   C3A 9773  12.093  11.410   8.043
  454POPC   C4A 9774  12.025  11.661   7.663
  454POPC   C1B 9775  12.010  10.853   8.717
  454POPC   C2B 9776  12.184  10.830   8.337
  454POPC   C3B 9777  11.951  10.828   7.976
  454POPC   C4B 9778  12.108  11.086   7.652
  455POPC   NC3 9779  35.681   5.248   9.528
  455POPC   PO4 9780  36.296   5.103   9.408
  455POPC   GL1 9781  36.225   5.045   9.025
  455POPC   GL2 9782  35.956   5.305   9.034
  455POPC   C1A 9783  36.411   4.855   8.638
  455POPC   D2A 9784  36.393   4.932   8.196
  455POPC   C3A 9785  36.008   5.057   8.041
  455POPC   C4A 9786  36.022   4.970   7.641
  455POPC   C1B 9787  36.193   5.325   8.627
  455POPC   C2B 9788  36.289   5.454   8.246
  455POPC   C3B 9789  36.328   5.382   7.827
  455POPC   C4B 9790  36.282   5.688   7.553
  456POPC   NC3 9791  40.413  36.048   9.412
  456POPC   PO4 9792  41.001  35.928   9.556
  456POPC   GL1 9793  40.849  36.213   9.218
  456POPC   GL2 9794  40.704  35.960   9.001
  456POPC   C1A 9795  41.006  36.319   8.805
  456POPC   D2A 9796  40.810  36.095   8.457
  456POPC   C3A 9797  40.903  36.316   8.093
  456POPC   C4A 9798  40.847  36.148   7.704
  456POPC   C1B 9799  40.484  36.317   8.776
  456POPC   C2B 9800  40.250  36.246   8.395
  456POPC   C3B 9801  40.371  36.184   7.961
  456POPC   C4B 9802  40.376  36.343   7.558
  457POPC   NC3 9803  34.623  12.630   9.723
  457POPC   PO4 9804  34.291  13.135   9.659
  457POPC   GL1 9805  34.462  12.895   9.271
  457POPC   GL2 9806  34.439  12.555   9.121
  457POPC   C1A 9807  34.392  12.956   8.817
  457POPC   D2A 9808  34.498  12.823   8.415
  457POPC   C3A 9809  34.712  13.043   8.065
  457POPC   C4A 9810  34.482  13.194   7.723
  457POPC   C1B 9811  34.792  12.645   8.809
  457POPC   C2B 9812  34.924  12.542   8.376
  457POPC   C3B 9813  34.618  12.541   8.021
  457POPC   C4B 9814  34.587  12.634   7.636
  458POPC   NC3 9815  42.139  14.363   9.579
  458POPC   PO4 9816  42.676  14.105   9.237
  458POPC   GL1 9817  42.289  14.186   9.068
  458POPC   GL2 9818  42.092  14.506   9.044
  458POPC   C1A 9819  42.152  14.099   8.657
  458POPC   D2A 9820  41.920  14.174   8.336
  458POPC   C3A 9821  42.059  14.473   8.080
  458POPC   C4A 9822  42.290  14.524   7.697
  458POPC   C1B 9823  42.404  14.538   8.668
  458POPC   C2B 9824  42.546  14.553   8.233
  458POPC   C3B 9825  42.779  14.720   7.889
  458POPC   C4B 9826  42.734  14.758   7.458
  459POPC   NC3 9827  18.586   1.365   9.744
  459POPC   PO4 9828  17.939   1.256   9.461
  459POPC   GL1 9829  18.302   1.394   9.224
  459POPC   GL2 9830  18.192   1.081   9.023
  459POPC   C1A 9831  18.507   1.408   8.812
  459POPC   D2A 9832  18.310   1.116   8.507
  459POPC   C3A 9833  18.414   1.178   8.090
  459POPC   C4A 9834  18.534   1.491   7.797
  459POPC   C1B 9835  17.997   1.443   8.780
  459POPC   C2B 9836  17.874   1.470   8.333
  459POPC   C3B 9837  17.944   1.343   7.902
  459POPC   C4B 9838  18.170   1.009   7.682
  460POPC   NC3 9839   2.995  41.968   9.498
  460POPC   PO4 9840   2.607  41.367   9.505
  460POPC   GL1 9841   2.764  41.637   9.201
  460POPC   GL2 9842   3.089  41.481   9.212
  460POPC   C1A 9843   2.685  41.631   8.770
  460POPC   D2A 9844   2.611  41.823   8.365
  460POPC   C3A 9845   2.754  41.547   8.068
  460POPC   C4A 9846   2.617  41.463   7.695
  460POPC   C1B 9847   3.138  41.357   8.786
  460POPC   C2B 9848   3.094  41.679   8.459
  460POPC   C3B 9849   3.170  41.842   8.056
  460POPC   C4B 9850   3.195  41.526   7.762
  461POPC   NC3 9851  36.942  31.058   9.841
  461POPC   PO4 9852  36.746  30.477   9.503
  461POPC   GL1 9853  36.842  30.672   9.132
  461POPC   GL2 9854  37.158  30.745   9.168
  461POPC   C1A 9855  36.819  30.775   8.697
  461POPC   D2A 9856  36.674  30.493   8.428
  461POPC   C3A 9857  36.744  30.532   8.023
  461POPC   C4A 9858  36.563  30.486   7.626
  461POPC   C1B 9859  37.270  30.570   8.776
  461POPC   C2B 9860  37.201  30.618   8.372
  461POPC   C3B 9861  37.131  30.931   8.106
  461POPC   C4B 9862  37.122  30.713   7.749
  462POPC   NC3 9863  25.798   8.414   9.863
  462POPC   PO4 9864  25.463   8.883   9.475
  462POPC   GL1 9865  25.349   8.839   9.051
  462POPC   GL2 9866  25.159   9.167   9.085
  462POPC   C1A 9867  25.381   8.830   8.589
  462POPC   D2A 9868  25.356   9.204   8.332
  462POPC   C3A 9869  25.463   9.188   7.903
  462POPC   C4A 9870  25.410   8.917   7.540
  462POPC   C1B 9871  24.959   9.095   8.699
  462POPC   C2B 9872  24.922   8.880   8.334
  462POPC   C3B 9873  25.156   8.785   8.003
  462POPC   C4B 9874  24.941   8.962   7.684
  463POPC   NC3 9875   8.751  41.326   9.631
  463POPC   PO4 9876   9.159  41.812   9.605
  463POPC   GL1 9877   8.934  41.661   9.219
  463POPC   GL2 9878   8.706  41.355   9.125
  463POPC   C1A 9879   9.000  41.758   8.785
  463POPC   D2A 9880   9.163  41.595   8.403
  463POPC   C3A 9881   9.051  41.794   7.999
  463POPC   C4A 9882   9.062  41.630   7.588
  463POPC   C1B 9883   9.072  41.241   8.862
  463POPC   C2B 9884   9.120  41.075   8.427
  463POPC   C3B 9885   9.124  41.279   8.001
  463POPC   C4B 9886   8.846  41.179   7.673
  464POPC   NC3 9887  27.932   0.712   9.453
  464POPC   PO4 9888  28.449   0.229   9.467
  464POPC   GL1 9889  28.228   0.168   9.095
  464POPC   GL2 9890  28.078   0.476   9.032
  464POPC   C1A 9891  28.301   0.205   8.646
  464POPC   D2A 9892  28.179   0.336   8.253
  464POPC   C3A 9893  28.477   0.515   7.982
  464POPC   C4A 9894  28.353   0.488   7.542
  464POPC   C1B 9895  28.138   0.668   8.649
  464POPC   C2B 9896  28.137   0.833   8.249
  464POPC   C3B 9897  27.991   0.660   7.886
  464POPC   C4B 9898  28.242   0.956   7.705
  465POPC   NC3 9899  18.445  34.050   9.907
  465POPC   PO4 9900  17.931  33.680   9.525
  465POPC   GL1 9901  18.060  34.031   9.200
  465POPC   GL2 9902  18.428  34.155   9.207
  465POPC   C1A 9903  18.176  33.892   8.805
  465POPC   D2A 9904  18.234  33.588   8.490
  465POPC   C3A 9905  18.545  33.638   8.178
  465POPC   C4A 9906  18.394  33.658   7.772
  465POPC   C1B 9907  18.503  34.313   8.828
  465POPC   C2B 9908  18.248  34.249   8.468
  465POPC   C3B 9909  18.201  34.019   8.108
  465POPC   C4B 9910  18.272  34.201   7.728
  466POPC   NC3 9911  24.645  15.379   9.274
  466POPC   PO4 9912  24.434  14.795   9.635
  466POPC   GL1 9913  24.327  14.967   9.211
  466POPC   GL2 9914  24.082  15.239   9.267
  466POPC   C1A 9915  24.517  14.985   8.772
  466POPC   D2A 9916  24.799  15.085   8.395
  466POPC   C3A 9917  24.737  15.466   8.110
  466POPC   C4A 9918  24.670  15.315   7.679
  466POPC   C1B 9919  24.073  15.280   8.806
  466POPC   C2B 9920  24.330  15.338   8.435
  466POPC   C3B 9921  24.382  15.103   8.071
  466POPC   C4B 9922  24.207  15.006   7.693
  467POPC   NC3 9923   7.473  26.965   9.641
  467POPC   PO4 9924   7.301  26.333   9.453
  467POPC   GL1 9925   7.400  26.676   9.199
  467POPC   GL2 9926   7.230  27.003   9.215
  467POPC   C1A 9927   7.527  26.884   8.832
  467POPC   D2A 9928   7.686  26.866   8.440
  467POPC   C3A 9929   7.464  26.828   8.068
  467POPC   C4A 9930   7.574  26.786   7.641
  467POPC   C1B 9931   7.129  27.236   8.861
  467POPC   C2B 9932   7.201  27.073   8.446
  467POPC   C3B 9933   7.175  27.253   8.039
  467POPC   C4B 9934   6.895  27.306   7.719
  468POPC   NC3 9935  21.842  41.590   9.517
  468POPC   PO4 9936  22.372  41.836   9.494
  468POPC   GL1 9937  22.194  41.567   9.141
  468POPC   GL2 9938  21.838  41.590   8.997
  468POPC   C1A 9939  22.223  41.332   8.751
  468POPC   D2A 9940  22.310  41.435   8.313
  468POPC   C3A 9941  22.165  41.261   7.911
  468POPC   C4A 9942  22.360  41.283   7.492
  468POPC   C1B 9943  21.875  41.643   8.528
  468POPC   C2B 9944  21.937  41.702   8.054
  468POPC   C3B 9945  21.777  41.577   7.631
  468POPC   C4B 9946  21.471  41.383   7.335
  469POPC   NC3 9947  37.241   2.621   9.786
  469POPC   PO4 9948  36.665   2.719   9.421
  469POPC   GL1 9949  36.609   2.858   9.017
  469POPC   GL2 9950  36.683   2.498   8.949
  469POPC   C1A 9951  36.721   2.906   8.551
  469POPC   D2A 9952  36.681   2.920   8.084
  469POPC   C3A 9953  37.016   2.953   7.772
  469POPC   C4A 9954  37.135   3.279   7.465
  469POPC   C1B 9955  37.036   2.474   8.660
  469POPC   C2B 9956  37.091   2.639   8.273
  469POPC   C3B 9957  37.219   2.504   7.902
  469POPC   C4B 9958  36.976   2.517   7.504
  470POPC   NC3 9959  31.211   2.744   9.702
  470POPC   PO4 9960  30.756   2.737   9.185
  470POPC   GL1 9961  30.491   2.549   8.978
  470POPC   GL2 9962  30.228   2.780   9.106
  470POPC   C1A 9963  30.656   2.511   8.570
  470POPC   D2A 9964  30.847   2.508   8.185
  470POPC   C3A 9965  30.631   2.725   7.895
  470POPC   C4A 9966  30.783   3.068   7.713
  470POPC   C1B 9967  30.310   2.945   8.680
  470POPC   C2B 9968  30.181   3.068   8.253
  470POPC   C3B 9969  30.251   3.081   7.809
  470POPC   C4B 9970  30.377   3.234   7.423
  471POPC   NC3 9971  19.411  10.064   9.491
  471POPC   PO4 9972  18.727   9.851   9.492
  471POPC   GL1 9973  19.064   9.723   9.184
  471POPC   GL2 9974  19.398   9.571   9.128
  471POPC   C1A 9975  19.067   9.530   8.755
  471POPC   D2A 9976  18.974   9.225   8.429
  471POPC   C3A 9977  19.075   9.436   8.067
  471POPC   C4A 9978  19.435   9.397   7.845
  471POPC   C1B 9979  19.394   9.965   8.850
  471POPC   C2B 9980  19.221  10.092   8.460
  471POPC   C3B 9981  19.334   9.913   8.067
  471POPC   C4B 9982  19.392  10.098   7.697
  472POPC   NC3 9983   6.061  15.254   9.420
  472POPC   PO4 9984   5.804  14.727   9.548
  472POPC   GL1 9985   5.790  14.941   9.128
  472POPC   GL2 9986   5.522  15.098   8.959
  472POPC   C1A 9987   5.951  15.182   8.729
  472POPC   D2A 9988   6.137  15.279   8.323
  472POPC   C3A 9989   6.151  15.022   7.970
  472POPC   C4A 9990   6.075  15.258   7.603
  472POPC   C1B 9991   5.608  14.784   8.687
  472POPC   C2B 9992   5.770  14.912   8.326
  472POPC   C3B 9993   5.678  15.193   8.021
  472POPC   C4B 9994   5.596  15.052   7.679
  473POPC   NC3 9995  19.100   4.754   9.525
  473POPC   PO4 9996  19.406   5.435   9.440
  473POPC   GL1 9997  19.188   5.134   9.154
  473POPC   GL2 9998  18.817   5.164   9.124
  473POPC   C1A 9999  19.042   4.989   8.720
  473POPC   D2A10000  18.886   5.087   8.321
  473POPC   C3A10001  19.005   4.811   8.010
  473POPC   C4A10002  19.366   4.824   7.742
  473POPC   C1B10003  18.706   5.399   8.735
  473POPC   C2B10004  18.497   5.424   8.322
  473POPC   C3B10005  18.643   5.474   7.884
  473POPC   C4B10006  18.795   5.383   7.441
  474POPC   NC310007   8.517  21.724   9.560
  474POPC   PO410008   9.029  21.245   9.687
  474POPC   GL110009   9.215  21.221   9.299
  474POPC   GL210010   8.920  21.359   9.175
  474POPC   C1A10011   9.313  21.208   8.832
  474POPC   D2A10012   9.097  21.424   8.469
  474POPC   C3A10013   9.163  21.306   8.040
  474POPC   C4A10014   8.777  21.192   7.841
  474POPC   C1B10015   8.768  21.600   8.853
  474POPC   C2B10016   8.585  21.587   8.452
  474POPC   C3B10017   8.773  21.644   8.085
  474POPC   C4B10018   9.167  21.822   7.987
  475POPC   NC310019   3.893   0.657   9.396
  475POPC   PO410020   3.317   0.535   9.614
  475POPC   GL110021   3.384   0.386   9.200
  475POPC   GL210022   3.687   0.215   9.125
  475POPC   C1A10023   3.392   0.444   8.750
  475POPC   D2A10024   3.163   0.542   8.353
  475POPC   C3A10025   3.357   0.576   7.924
  475POPC   C4A10026   3.296   0.250   7.573
  475POPC   C1B10027   3.819   0.149   8.685
  475POPC   C2B10028   3.671   0.346   8.301
  475POPC   C3B10029   3.706   0.206   7.864
  475POPC   C4B10030   3.974   0.305   7.546
  476POPC   NC310031  35.060  10.645   9.539
  476POPC   PO410032  35.678  10.347   9.619
  476POPC   GL110033  35.456  10.430   9.235
  476POPC   GL210034  35.235  10.163   9.097
  476POPC   C1A10035  35.282  10.570   8.842
  476POPC   D2A10036  35.131  10.321   8.515
  476POPC   C3A10037  35.278  10.483   8.140
  476POPC   C4A10038  35.123  10.484   7.740
  476POPC   C1B10039  35.515  10.056   8.805
  476POPC   C2B10040  35.500  10.013   8.378
  476POPC   C3B10041  35.626  10.150   7.990
  476POPC   C4B10042  35.377  10.040   7.644
  477POPC   NC310043  35.020   7.009   9.184
  477POPC   PO410044  35.460   6.578   9.562
  477POPC   GL110045  35.311   6.553   9.134
  477POPC   GL210046  35.102   6.260   9.059
  477POPC   C1A10047  35.544   6.671   8.783
  477POPC   D2A10048  35.671   6.846   8.425
  477POPC   C3A10049  35.479   6.722   8.060
  477POPC   C4A10050  35.733   6.652   7.718
  477POPC   C1B10051  35.081   6.466   8.641
  477POPC   C2B10052  34.823   6.566   8.236
  477POPC   C3B10053  34.896   6.874   7.905
  477POPC   C4B10054  35.262   7.048   7.724
  478POPC   NC310055   7.018  35.682   9.707
  478POPC   PO410056   7.542  35.240   9.561
  478POPC   GL110057   7.316  35.322   9.206
  478POPC   GL210058   7.545  35.578   9.164
  478POPC   C1A10059   7.295  35.262   8.776
  478POPC   D2A10060   7.390  35.320   8.374
  478POPC   C3A10061   7.381  35.089   8.008
  478POPC   C4A10062   7.196  35.381   7.770
  478POPC   C1B10063   7.803  35.448   8.833
  478POPC   C2B10064   7.794  35.607   8.432
  478POPC   C3B10065   7.783  35.396   8.064
  478POPC   C4B10066   8.018  35.394   7.741
  479POPC   NC310067  43.648  21.157   9.238
  479POPC   PO410068  44.174  21.455   9.580
  479POPC   GL110069  44.202  21.175   9.240
  479POPC   GL210070  44.061  21.462   9.076
  479POPC   C1A10071  44.178  21.077   8.780
  479POPC   D2A10072  43.844  21.252   8.537
  479POPC   C3A10073  43.885  21.163   8.118
  479POPC   C4A10074  43.747  21.174   7.717
  479POPC   C1B10075  44.027  21.695   8.705
  479POPC   C2B10076  43.699  21.730   8.380
  479POPC   C3B10077  43.733  21.652   7.954
  479POPC   C4B10078  44.123  21.535   7.776
  480POPC   NC310079   7.821  42.678   9.813
  480POPC   PO410080   8.318  42.334   9.466
  480POPC   GL110081   8.291  42.088   9.097
  480POPC   GL210082   7.954  42.244   9.022
  480POPC   C1A10083   8.178  41.894   8.707
  480POPC   D2A10084   8.176  42.086   8.336
  480POPC   C3A10085   8.465  41.953   8.052
  480POPC   C4A10086   8.343  42.084   7.645
  480POPC   C1B10087   8.254  42.480   8.738
  480POPC   C2B10088   8.526  42.525   8.373
  480POPC   C3B10089   8.332  42.461   7.995
  480POPC   C4B10090   7.931  42.425   7.884
  481POPC   NC310091  34.075  20.814   9.815
  481POPC   PO410092  33.600  20.371   9.592
  481POPC   GL110093  33.786  20.479   9.192
  481POPC   GL210094  33.867  20.848   9.228
  481POPC   C1A10095  33.907  20.354   8.743
  481POPC   D2A10096  34.187  20.286   8.351
  481POPC   C3A10097  34.024  20.456   7.957
  481POPC   C4A10098  33.591  20.529   7.731
  481POPC   C1B10099  33.550  21.036   8.910
  481POPC   C2B10100  33.378  20.978   8.491
  481POPC   C3B10101  33.571  20.877   8.112
  481POPC   C4B10102  33.935  20.941   7.837
  482POPC   NC310103  31.725  38.880   9.358
  482POPC   PO410104  31.462  38.256   9.402
  482POPC   GL110105  31.698  38.458   9.060
  482POPC   GL210106  31.414  38.487   8.810
  482POPC   C1A10107  31.837  38.714   8.667
  482POPC   D2A10108  31.524  38.718   8.310
  482POPC   C3A10109  31.625  38.649   7.864
  482POPC   C4A10110  31.791  38.709   7.429
  482POPC   C1B10111  30.997  38.322   8.677
  482POPC   C2B10112  30.889  38.007   8.374
  482POPC   C3B10113  31.084  38.070   7.985
  482POPC   C4B10114  31.390  38.281   7.602
  483POPC   NC310115  25.487  36.651   9.202
  483POPC   PO410116  25.945  36.995   9.598
  483POPC   GL110117  25.842  37.017   9.186
  483POPC   GL210118  26.000  36.710   9.135
  483POPC   C1A10119  25.757  37.123   8.765
  483POPC   D2A10120  26.026  37.049   8.426
  483POPC   C3A10121  25.925  37.010   8.008
  483POPC   C4A10122  26.196  37.146   7.730
  483POPC   C1B10123  25.967  36.623   8.712
  483POPC   C2B10124  26.069  36.505   8.280
  483POPC   C3B10125  26.412  36.417   7.995
  483POPC   C4B10126  26.161  36.633   7.711
  484POPC   NC310127  14.467  40.657   9.598
  484POPC   PO410128  13.983  41.047   9.330
  484POPC   GL110129  14.119  40.680   9.080
  484POPC   GL210130  14.494  40.668   9.050
  484POPC   C1A10131  14.222  40.730   8.639
  484POPC   D2A10132  14.396  40.805   8.234
  484POPC   C3A10133  14.149  40.770   7.861
  484POPC   C4A10134  14.227  40.624   7.405
  484POPC   C1B10135  14.715  40.927   8.692
  484POPC   C2B10136  14.860  41.023   8.239
  484POPC   C3B10137  14.598  41.112   7.860
  484POPC   C4B10138  14.636  41.195   7.376
  485POPC   NC310139  22.967  26.463   9.771
  485POPC   PO410140  22.689  25.973   9.405
  485POPC   GL110141  23.039  25.938   9.146
  485POPC   GL210142  22.947  26.180   8.930
  485POPC   C1A10143  23.125  25.795   8.693
  485POPC   D2A10144  23.153  26.172   8.418
  485POPC   C3A10145  22.893  26.116   8.065
  485POPC   C4A10146  22.891  25.826   7.722
  485POPC   C1B10147  22.730  26.409   8.645
  485POPC   C2B10148  22.747  26.566   8.288
  485POPC   C3B10149  22.668  26.553   7.900
  485POPC   C4B10150  22.838  26.347   7.595
  486POPC   NC310151  26.595  44.391   9.588
  486POPC   PO410152  26.819   0.107   9.420
  486POPC   GL110153  26.654  44.836   9.085
  486POPC   GL210154  26.659  44.471   9.104
  486POPC   C1A10155  26.787  44.728   8.701
  486POPC   D2A10156  27.083  44.767   8.406
  486POPC   C3A10157  26.860  44.765   8.033
  486POPC   C4A10158  26.882  44.983   7.670
  486POPC   C1B10159  26.535  44.151   8.813
  486POPC   C2B10160  26.657  44.101   8.415
  486POPC   C3B10161  26.452  44.165   8.061
  486POPC   C4B10162  26.542  44.450   7.783
  487POPC   NC310163  14.631  36.566   9.409
  487POPC   PO410164  14.809  35.926   9.578
  487POPC   GL110165  14.382  36.129   9.283
  487POPC   GL210166  14.459  36.386   8.985
  487POPC   C1A10167  14.112  36.067   8.851
  487POPC   D2A10168  14.160  35.997   8.387
  487POPC   C3A10169  14.096  36.284   8.008
  487POPC   C4A10170  14.329  36.131   7.632
  487POPC   C1B10171  14.368  36.446   8.534
  487POPC   C2B10172  14.575  36.257   8.162
  487POPC   C3B10173  14.801  36.298   7.765
  487POPC   C4B10174  14.646  36.362   7.311
  488POPC   NC310175   3.866  43.844   9.547
  488POPC   PO410176   3.296  44.016   9.540
  488POPC   GL110177   3.527  43.902   9.182
  488POPC   GL210178   3.842  43.636   9.069
  488POPC   C1A10179   3.688  44.192   8.888
  488POPC   D2A10180   3.611  44.175   8.450
  488POPC   C3A10181   3.875  44.255   8.115
  488POPC   C4A10182   3.657  44.175   7.734
  488POPC   C1B10183   3.559  43.709   8.734
  488POPC   C2B10184   3.336  43.624   8.386
  488POPC   C3B10185   3.576  43.806   8.074
  488POPC   C4B10186   3.804  43.641   7.720
  489POPC   NC310187  42.153  11.485   9.344
  489POPC   PO410188  42.397  10.833   9.292
  489POPC   GL110189  42.586  11.159   8.999
  489POPC   GL210190  42.533  11.506   8.971
  489POPC   C1A10191  42.485  11.221   8.550
  489POPC   D2A10192  42.077  11.047   8.377
  489POPC   C3A10193  42.128  10.889   7.950
  489POPC   C4A10194  42.371  11.121   7.647
  489POPC   C1B10195  42.231  11.697   8.693
  489POPC   C2B10196  42.272  11.670   8.245
  489POPC   C3B10197  42.570  11.454   7.978
  489POPC   C4B10198  42.703  11.470   7.538
  490POPC   NC310199  35.581  30.921   9.443
  490POPC   PO410200  34.935  30.847   9.503
  490POPC   GL110201  35.130  30.743   9.114
  490POPC   GL210202  35.337  31.037   9.009
  490POPC   C1A10203  35.117  30.412   8.790
  490POPC   D2A10204  35.360  30.338   8.392
  490POPC   C3A10205  35.224  30.525   8.018
  490POPC   C4A10206  35.301  30.574   7.573
  490POPC   C1B10207  35.536  30.700   8.757
  490POPC   C2B10208  35.636  30.765   8.319
  490POPC   C3B10209  35.473  30.958   7.947
  490POPC   C4B10210  35.558  31.030   7.536
  491POPC   NC310211  39.345  12.567   9.432
  491POPC   PO410212  39.513  13.191   9.398
  491POPC   GL110213  39.225  13.092   9.103
  491POPC   GL210214  39.004  12.827   9.173
  491POPC   C1A10215  39.371  13.119   8.700
  491POPC   D2A10216  39.264  12.955   8.358
  491POPC   C3A10217  39.461  13.135   8.044
  491POPC   C4A10218  39.265  13.080   7.672
  491POPC   C1B10219  39.285  12.637   8.808
  491POPC   C2B10220  39.324  12.455   8.397
  491POPC   C3B10221  39.235  12.616   7.957
  491POPC   C4B10222  39.316  12.587   7.522
  492POPC   NC310223  37.030  10.139   9.517
  492POPC   PO410224  36.744   9.582   9.729
  492POPC   GL110225  36.802   9.734   9.309
  492POPC   GL210226  36.505   9.886   9.228
  492POPC   C1A10227  36.995   9.892   8.863
  492POPC   D2A10228  37.085   9.967   8.389
  492POPC   C3A10229  36.872   9.757   8.029
  492POPC   C4A10230  36.831   9.799   7.594
  492POPC   C1B10231  36.623   9.537   8.903
  492POPC   C2B10232  36.674   9.655   8.500
  492POPC   C3B10233  36.411   9.543   8.154
  492POPC   C4B10234  36.577   9.356   7.759
  493POPC   NC310235  28.047  37.015   9.359
  493POPC   PO410236  27.423  36.695   9.496
  493POPC   GL110237  27.400  36.799   9.087
  493POPC   GL210238  27.707  36.877   9.000
  493POPC   C1A10239  27.324  36.876   8.660
  493POPC   D2A10240  27.402  37.158   8.349
  493POPC   C3A10241  27.584  37.059   7.958
  493POPC   C4A10242  27.691  36.948   7.547
  493POPC   C1B10243  27.793  36.631   8.610
  493POPC   C2B10244  27.847  36.663   8.163
  493POPC   C3B10245  27.790  36.476   7.732
  493POPC   C4B10246  27.738  36.516   7.251
  494POPC   NC310247   6.957  16.506   9.585
  494POPC   PO410248   6.898  17.114   9.474
  494POPC   GL110249   6.773  16.797   9.164
  494POPC   GL210250   6.429  16.697   9.166
  494POPC   C1A10251   6.835  16.566   8.769
  494POPC   D2A10252   6.834  16.347   8.375
  494POPC   C3A10253   6.831  16.568   7.967
  494POPC   C4A10254   6.497  16.515   7.668
  494POPC   C1B10255   6.441  16.904   8.753
  494POPC   C2B10256   6.617  16.816   8.355
  494POPC   C3B10257   6.514  17.002   7.970
  494POPC   C4B10258   6.533  17.013   7.532
  495POPC   NC310259  44.413   2.299   9.420
  495POPC   PO410260  44.702   2.985   9.551
  495POPC   GL110261  44.657   2.733   9.214
  495POPC   GL210262  44.932   2.537   9.234
  495POPC   C1A10263  44.715   2.764   8.782
  495POPC   D2A10264  44.543   3.051   8.471
  495POPC   C3A10265  44.598   2.906   8.052
  495POPC   C4A10266  44.542   2.725   7.645
  495POPC   C1B10267   0.106   2.338   8.880
  495POPC   C2B10268  44.927   2.403   8.487
  495POPC   C3B10269   0.001   2.563   8.099
  495POPC   C4B10270  44.948   2.422   7.639
  496POPC   NC310271  24.252  39.648   9.550
  496POPC   PO410272  24.488  38.966   9.526
  496POPC   GL110273  24.601  39.044   9.092
  496POPC   GL210274  24.584  39.422   9.163
  496POPC   C1A10275  24.545  38.866   8.652
  496POPC   D2A10276  24.394  39.133   8.293
  496POPC   C3A10277  24.307  39.056   7.834
  496POPC   C4A10278  23.957  38.940   7.544
  496POPC   C1B10279  24.692  39.365   8.711
  496POPC   C2B10280  24.724  39.525   8.293
  496POPC   C3B10281  24.399  39.538   7.972
  496POPC   C4B10282  24.571  39.478   7.571
  497POPC   NC310283  23.933  12.932   9.562
  497POPC   PO410284  23.503  12.466   9.552
  497POPC   GL110285  23.660  12.649   9.167
  497POPC   GL210286  23.759  12.986   9.076
  497POPC   C1A10287  23.484  12.695   8.747
  497POPC   D2A10288  23.424  12.907   8.314
  497POPC   C3A10289  23.677  12.713   7.983
  497POPC   C4A10290  23.862  12.517   7.598
  497POPC   C1B10291  23.468  13.199   8.738
  497POPC   C2B10292  23.578  13.442   8.385
  497POPC   C3B10293  23.600  13.322   7.955
  497POPC   C4B10294  23.893  13.110   7.771
  498POPC   NC310295  18.471  12.016   9.465
  498POPC   PO410296  18.161  12.594   9.423
  498POPC   GL110297  18.126  12.332   9.072
  498POPC   GL210298  18.245  11.981   9.035
  498POPC   C1A10299  18.163  12.311   8.648
  498POPC   D2A10300  18.018  12.367   8.255
  498POPC   C3A10301  18.367  12.453   8.007
  498POPC   C4A10302  18.297  12.244   7.666
  498POPC   C1B10303  18.539  11.977   8.714
  498POPC   C2B10304  18.415  12.016   8.283
  498POPC   C3B10305  18.291  11.786   7.902
  498POPC   C4B10306  18.534  11.784   7.555
  499POPC   NC310307   7.586  23.850   9.518
  499POPC   PO410308   7.088  23.376   9.455
  499POPC   GL110309   7.404  23.532   9.145
  499POPC   GL210310   7.630  23.792   9.029
  499POPC   C1A10311   7.237  23.655   8.715
  499POPC   D2A10312   7.028  23.742   8.356
  499POPC   C3A10313   7.288  23.705   8.013
  499POPC   C4A10314   7.246  23.622   7.583
  499POPC   C1B10315   7.742  23.752   8.618
  499POPC   C2B10316   7.574  24.038   8.310
  499POPC   C3B10317   7.406  24.171   7.873
  499POPC   C4B10318   7.417  24.050   7.371
  500POPC   NC310319  24.810  22.727   9.464
  500POPC   PO410320  24.384  23.219   9.650
  500POPC   GL110321  24.422  22.967   9.225
  500POPC   GL210322  24.173  22.709   9.199
  500POPC   C1A10323  24.578  22.942   8.773
  500POPC   D2A10324  24.518  23.083   8.314
  500POPC   C3A10325  24.738  23.024   7.900
  500POPC   C4A10326  24.828  23.026   7.434
  500POPC   C1B10327  24.144  22.640   8.739
  500POPC   C2B10328  24.065  22.795   8.315
  500POPC   C3B10329  24.226  22.881   7.908
  500POPC   C4B10330  24.414  22.758   7.516
  501POPC   NC310331  37.103  27.780   9.557
  501POPC   PO410332  36.531  27.478   9.586
  501POPC   GL110333  36.740  27.627   9.203
  501POPC   GL210334  36.554  27.911   9.130
  501POPC   C1A10335  37.095  27.489   8.901
  501POPC   D2A10336  37.318  27.475   8.472
  501POPC   C3A10337  37.162  27.297   8.049
  501POPC   C4A10338  37.019  27.325   7.581
  501POPC   C1B10339  36.818  27.900   8.746
  501POPC   C2B10340  36.865  27.672   8.339
  501POPC   C3B10341  36.953  27.735   7.886
  501POPC   C4B10342  36.659  27.799   7.554
  502POPC   NC310343   0.125  25.017   9.500
  502POPC   PO410344   0.827  25.045   9.297
  502POPC   GL110345   0.500  25.322   9.149
  502POPC   GL210346   0.156  25.204   9.027
  502POPC   C1A10347   0.492  25.453   8.722
  502POPC   D2A10348   0.228  25.232   8.446
  502POPC   C3A10349   0.274  25.372   8.049
  502POPC   C4A10350   0.649  25.289   7.841
  502POPC   C1B10351   0.429  24.911   8.795
  502POPC   C2B10352   0.508  24.695   8.426
  502POPC   C3B10353   0.427  24.879   8.061
  502POPC   C4B10354   0.140  24.969   7.774
  503POPC   NC310355  13.770   6.769   9.351
  503POPC   PO410356  13.201   6.425   9.403
  503POPC   GL110357  13.563   6.299   9.165
  503POPC   GL210358  13.439   6.596   8.952
  503POPC   C1A10359  13.798   6.290   8.776
  503POPC   D2A10360  13.558   6.521   8.441
  503POPC   C3A10361  13.602   6.367   8.014
  503POPC   C4A10362  13.918   6.568   7.769
  503POPC   C1B10363  13.267   6.959   8.694
  503POPC   C2B10364  13.365   7.090   8.270
  503POPC   C3B10365  13.464   6.851   7.881
  503POPC   C4B10366  13.618   7.034   7.473
  504POPC   NC310367  31.368  31.902   9.460
  504POPC   PO410368  31.763  32.490   9.516
  504POPC   GL110369  31.685  32.218   9.146
  504POPC   GL210370  31.714  31.882   9.015
  504POPC   C1A10371  31.547  32.271   8.708
  504POPC   D2A10372  31.735  32.499   8.363
  504POPC   C3A10373  31.541  32.523   7.954
  504POPC   C4A10374  31.590  32.789   7.544
  504POPC   C1B10375  31.699  31.759   8.584
  504POPC   C2B10376  31.557  32.033   8.235
  504POPC   C3B10377  31.427  32.021   7.821
  504POPC   C4B10378  31.452  31.931   7.402
  505POPC   NC310379  43.478  43.662   9.644
  505POPC   PO410380  42.956  44.136   9.741
  505POPC   GL110381  43.013  43.991   9.272
  505POPC   GL210382  43.045  44.264   8.995
  505POPC   C1A10383  43.165  43.782   8.872
  505POPC   D2A10384  43.175  44.013   8.472
  505POPC   C3A10385  43.114  43.733   8.126
  505POPC   C4A10386  43.082  43.616   7.712
  505POPC   C1B10387  42.708  44.012   8.772
  505POPC   C2B10388  42.571  43.917   8.373
  505POPC   C3B10389  42.802  44.142   8.107
  505POPC   C4B10390  43.084  44.135   7.788
  506POPC   NC310391   5.676  27.217   9.494
  506POPC   PO410392   6.063  26.585   9.559
  506POPC   GL110393   5.945  26.813   9.176
  506POPC   GL210394   6.088  27.154   9.156
  506POPC   C1A10395   5.699  26.674   8.809
  506POPC   D2A10396   5.887  26.637   8.389
  506POPC   C3A10397   5.715  26.480   8.027
  506POPC   C4A10398   5.796  26.741   7.694
  506POPC   C1B10399   6.002  27.058   8.687
  506POPC   C2B10400   6.131  27.196   8.263
  506POPC   C3B10401   6.015  27.191   7.804
  506POPC   C4B10402   6.035  27.060   7.352
  507POPC   NC310403  23.227  25.714   9.618
  507POPC   PO410404  22.938  25.109   9.426
  507POPC   GL110405  22.981  25.212   8.966
  507POPC   GL210406  23.224  25.459   9.063
  507POPC   C1A10407  23.266  25.271   8.598
  507POPC   D2A10408  23.462  24.967   8.345
  507POPC   C3A10409  23.237  24.930   7.979
  507POPC   C4A10410  22.841  24.953   7.800
  507POPC   C1B10411  23.587  25.613   8.851
  507POPC   C2B10412  23.573  25.810   8.443
  507POPC   C3B10413  23.320  25.724   8.057
  507POPC   C4B10414  23.183  25.392   7.748
  508POPC   NC310415  20.015  12.502   9.478
  508POPC   PO410416  19.498  12.727   9.104
  508POPC   GL110417  19.844  12.989   9.034
  508POPC   GL210418  20.085  12.787   9.080
  508POPC   C1A10419  19.939  12.911   8.615
  508POPC   D2A10420  19.566  12.875   8.370
  508POPC   C3A10421  19.673  13.034   8.007
  508POPC   C4A10422  19.523  12.979   7.587
  508POPC   C1B10423  20.162  12.462   8.814
  508POPC   C2B10424  20.339  12.550   8.417
  508POPC   C3B10425  20.124  12.816   8.131
  508POPC   C4B10426  19.929  12.722   7.726
  509POPC   NC310427   6.344  42.418   9.244
  509POPC   PO410428   5.802  42.113   9.469
  509POPC   GL110429   5.960  42.116   9.089
  509POPC   GL210430   5.912  42.433   8.968
  509POPC   C1A10431   5.925  42.044   8.669
  509POPC   D2A10432   5.837  42.336   8.346
  509POPC   C3A10433   5.898  42.082   8.023
  509POPC   C4A10434   6.087  41.994   7.706
  509POPC   C1B10435   6.244  42.538   8.630
  509POPC   C2B10436   6.439  42.579   8.229
  509POPC   C3B10437   6.183  42.476   7.930
  509POPC   C4B10438   5.911  42.696   7.732
  510POPC   NC310439  28.353  26.503   9.516
  510POPC   PO410440  28.419  27.168   9.523
  510POPC   GL110441  28.230  26.916   9.180
  510POPC   GL210442  28.472  26.660   9.026
  510POPC   C1A10443  28.260  27.033   8.748
  510POPC   D2A10444  28.365  26.820   8.369
  510POPC   C3A10445  28.228  27.064   8.055
  510POPC   C4A10446  28.384  27.044   7.636
  510POPC   C1B10447  28.498  26.377   8.646
  510POPC   C2B10448  28.688  26.400   8.239
  510POPC   C3B10449  28.569  26.644   7.900
  510POPC   C4B10450  28.750  26.684   7.507
  511POPC   NC310451  20.631  12.568   9.709
  511POPC   PO410452  20.174  13.000   9.550
  511POPC   GL110453  20.539  12.911   9.255
  511POPC   GL210454  20.547  12.564   9.192
  511POPC   C1A10455  20.510  12.908   8.762
  511POPC   D2A10456  20.655  13.153   8.360
  511POPC   C3A10457  20.435  13.170   7.947
  511POPC   C4A10458  20.391  12.902   7.576
  511POPC   C1B10459  20.829  12.487   8.874
  511POPC   C2B10460  20.860  12.450   8.420
  511POPC   C3B10461  20.683  12.687   8.053
  511POPC   C4B10462  20.896  12.814   7.689
  512POPC   NC310463  22.944  30.227   9.448
  512POPC   PO410464  23.395  29.735   9.406
  512POPC   GL110465  23.136  29.916   9.049
  512POPC   GL210466  22.746  29.969   9.042
  512POPC   C1A10467  22.961  29.747   8.639
  512POPC   D2A10468  23.065  29.583   8.234
  512POPC   C3A10469  23.164  29.847   7.888
  512POPC   C4A10470  22.959  29.648   7.570
  512POPC   C1B10471  22.880  30.265   8.747
  512POPC   C2B10472  22.814  30.165   8.342
  512POPC   C3B10473  22.675  29.916   8.055
  512POPC   C4B10474  22.688  30.059   7.697
  513POPC   NC310475   4.134   9.221   9.414
  513POPC   PO410476   4.640   8.739   9.268
  513POPC   GL110477   4.256   8.784   9.130
  513POPC   GL210478   4.374   9.114   8.989
  513POPC   C1A10479   4.067   8.817   8.728
  513POPC   D2A10480   4.191   9.124   8.434
  513POPC   C3A10481   4.125   9.018   7.979
  513POPC   C4A10482   4.280   8.687   7.718
  513POPC   C1B10483   4.675   9.087   8.647
  513POPC   C2B10484   4.661   9.258   8.224
  513POPC   C3B10485   4.566   9.251   7.792
  513POPC   C4B10486   4.680   9.315   7.356
  514POPC   NC310487  10.417  33.527   9.556
  514POPC   PO410488  10.525  34.218   9.371
  514POPC   GL110489  10.712  33.846   9.247
  514POPC   GL210490  10.382  33.745   9.112
  514POPC   C1A10491  10.806  33.625   8.866
  514POPC   D2A10492  10.495  33.697   8.534
  514POPC   C3A10493  10.557  33.957   8.191
  514POPC   C4A10494  10.556  33.859   7.771
  514POPC   C1B10495  10.073  33.756   8.810
  514POPC   C2B10496  10.013  33.841   8.413
  514POPC   C3B10497  10.078  33.639   8.045
  514POPC   C4B10498  10.067  33.850   7.704
  515POPC   NC310499  30.390   2.390   9.468
  515POPC   PO410500  29.887   2.897   9.492
  515POPC   GL110501  29.703   2.920   9.101
  515POPC   GL210502  29.760   2.569   9.064
  515POPC   C1A10503  29.788   2.914   8.670
  515POPC   D2A10504  29.779   2.714   8.284
  515POPC   C3A10505  29.758   2.985   7.943
  515POPC   C4A10506  29.490   3.056   7.617
  515POPC   C1B10507  30.070   2.476   8.715
  515POPC   C2B10508  30.251   2.558   8.288
  515POPC   C3B10509  30.123   2.594   7.887
  515POPC   C4B10510  30.313   2.695   7.475
  516POPC   NC310511  40.365  39.444   9.535
  516POPC   PO410512  40.990  39.193   9.446
  516POPC   GL110513  40.682  39.241   9.150
  516POPC   GL210514  40.730  39.589   9.153
  516POPC   C1A10515  40.855  39.212   8.741
  516POPC   D2A10516  40.924  39.009   8.383
  516POPC   C3A10517  40.731  39.200   8.033
  516POPC   C4A10518  40.862  39.274   7.620
  516POPC   C1B10519  40.510  39.570   8.787
  516POPC   C2B10520  40.611  39.588   8.378
  516POPC   C3B10521  40.346  39.545   8.057
  516POPC   C4B10522  40.393  39.486   7.638
  517POPC   NC310523  24.158  11.387   9.448
  517POPC   PO410524  24.761  11.238   9.542
  517POPC   GL110525  24.651  11.206   9.133
  517POPC   GL210526  24.310  11.292   8.964
  517POPC   C1A10527  24.802  11.215   8.733
  517POPC   D2A10528  24.533  11.317   8.416
  517POPC   C3A10529  24.580  11.309   7.971
  517POPC   C4A10530  24.435  11.003   7.695
  517POPC   C1B10531  24.097  11.522   8.594
  517POPC   C2B10532  24.262  11.695   8.236
  517POPC   C3B10533  24.250  11.657   7.804
  517POPC   C4B10534  24.438  11.757   7.398
  518POPC   NC310535   5.922  13.176   9.462
  518POPC   PO410536   5.555  12.616   9.698
  518POPC   GL110537   5.668  12.762   9.276
  518POPC   GL210538   6.029  12.769   9.163
  518POPC   C1A10539   5.651  12.899   8.832
  518POPC   D2A10540   5.808  12.777   8.414
  518POPC   C3A10541   6.060  13.015   8.124
  518POPC   C4A10542   5.777  13.060   7.766
  518POPC   C1B10543   6.145  12.550   8.757
  518POPC   C2B10544   6.152  12.409   8.311
  518POPC   C3B10545   5.961  12.578   7.883
  518POPC   C4B10546   5.850  12.689   7.436
  519POPC   NC310547   4.564  41.314   9.614
  519POPC   PO410548   4.190  41.891   9.434
  519POPC   GL110549   4.367  41.755   9.070
  519POPC   GL210550   4.358  41.425   9.149
  519POPC   C1A10551   4.382  41.754   8.616
  519POPC   D2A10552   4.146  41.842   8.246
  519POPC   C3A10553   4.367  41.560   8.022
  519POPC   C4A10554   4.496  41.328   7.665
  519POPC   C1B10555   4.015  41.484   8.791
  519POPC   C2B10556   3.981  41.348   8.355
  519POPC   C3B10557   3.910  41.342   7.883
  519POPC   C4B10558   3.951  41.336   7.416
  520POPC   NC310559  25.745  12.643   9.431
  520POPC   PO410560  25.132  12.974   9.451
  520POPC   GL110561  25.205  12.749   9.116
  520POPC   GL210562  25.529  12.875   9.021
  520POPC   C1A10563  25.166  12.750   8.679
  520POPC   D2A10564  25.379  12.901   8.352
  520POPC   C3A10565  25.181  12.952   7.980
  520POPC   C4A10566  25.140  12.674   7.663
  520POPC   C1B10567  25.734  13.074   8.677
  520POPC   C2B10568  25.819  13.199   8.259
  520POPC   C3B10569  25.694  12.951   7.952
  520POPC   C4B10570  25.501  13.082   7.598
  521POPC   NC310571  23.066  12.591   9.628
  521POPC   PO410572  22.521  13.036   9.572
  521POPC   GL110573  22.808  12.853   9.278
  521POPC   GL210574  22.702  12.527   9.169
  521POPC   C1A10575  23.056  12.960   8.930
  521POPC   D2A10576  22.984  13.149   8.529
  521POPC   C3A10577  22.895  12.887   8.213
  521POPC   C4A10578  22.942  13.030   7.816
  521POPC   C1B10579  23.038  12.444   8.864
  521POPC   C2B10580  23.190  12.427   8.425
  521POPC   C3B10581  23.188  12.545   7.987
  521POPC   C4B10582  22.812  12.535   7.738
  522POPC   NC310583  13.266  16.856   9.440
  522POPC   PO410584  13.771  16.458   9.370
  522POPC   GL110585  13.596  16.637   9.060
  522POPC   GL210586  13.354  16.403   9.082
  522POPC   C1A10587  13.861  16.712   8.708
  522POPC   D2A10588  13.802  16.679   8.286
  522POPC   C3A10589  13.484  16.950   8.128
  522POPC   C4A10590  13.663  16.763   7.768
  522POPC   C1B10591  13.633  16.248   8.721
  522POPC   C2B10592  13.689  16.175   8.308
  522POPC   C3B10593  13.687  16.289   7.911
  522POPC   C4B10594  13.750  16.345   7.450
  523POPC   NC310595  26.084  16.542   9.490
  523POPC   PO410596  26.351  17.140   9.742
  523POPC   GL110597  26.144  17.083   9.298
  523POPC   GL210598  25.891  16.822   9.140
  523POPC   C1A10599  26.048  17.182   8.847
  523POPC   D2A10600  26.036  16.909   8.489
  523POPC   C3A10601  26.084  17.066   8.082
  523POPC   C4A10602  26.120  16.960   7.644
  523POPC   C1B10603  25.881  16.460   8.829
  523POPC   C2B10604  25.870  16.426   8.375
  523POPC   C3B10605  26.095  16.551   8.009
  523POPC   C4B10606  26.485  16.365   7.856
  524POPC   NC310607   0.538   8.707   9.414
  524POPC   PO410608   0.415   9.331   9.508
  524POPC   GL110609   0.276   9.136   9.131
  524POPC   GL210610   0.073   9.445   9.042
  524POPC   C1A10611   0.414   8.855   8.779
  524POPC   D2A10612   0.403   8.605   8.397
  524POPC   C3A10613   0.431   8.910   8.036
  524POPC   C4A10614   0.262   8.950   7.620
  524POPC   C1B10615   0.292   9.380   8.665
  524POPC   C2B10616   0.150   9.490   8.250
  524POPC   C3B10617   0.216   9.407   7.831
  524POPC   C4B10618   0.145   9.433   7.389
  525POPC   NC310619   6.105  25.734   9.331
  525POPC   PO410620   6.551  26.222   9.560
  525POPC   GL110621   6.368  26.144   9.172
  525POPC   GL210622   6.359  26.471   9.137
  525POPC   C1A10623   6.359  25.908   8.758
  525POPC   D2A10624   6.613  25.759   8.410
  525POPC   C3A10625   6.559  25.867   7.962
  525POPC   C4A10626   6.938  25.934   7.724
  525POPC   C1B10627   6.632  26.366   8.768
  525POPC   C2B10628   6.626  26.296   8.286
  525POPC   C3B10629   6.684  26.385   7.834
  525POPC   C4B10630   6.660  26.274   7.390
  526POPC   NC310631   7.864  28.594   9.442
  526POPC   PO410632   7.160  28.174   9.472
  526POPC   GL110633   7.486  28.197   9.185
  526POPC   GL210634   7.418  28.550   9.182
  526POPC   C1A10635   7.394  28.242   8.761
  526POPC   D2A10636   7.122  28.068   8.481
  526POPC   C3A10637   7.099  28.303   8.149
  526POPC   C4A10638   7.227  28.163   7.757
  526POPC   C1B10639   7.510  28.749   8.794
  526POPC   C2B10640   7.447  28.636   8.402
  526POPC   C3B10641   7.616  28.653   7.984
  526POPC   C4B10642   7.713  28.560   7.549
  527POPC   NC310643  16.984  44.141   9.542
  527POPC   PO410644  17.678  43.857   9.554
  527POPC   GL110645  17.517  43.954   9.191
  527POPC   GL210646  17.340  44.258   9.202
  527POPC   C1A10647  17.415  43.818   8.801
  527POPC   D2A10648  17.207  43.815   8.408
  527POPC   C3A10649  17.454  43.612   8.153
  527POPC   C4A10650  17.553  43.674   7.733
  527POPC   C1B10651  17.585  44.305   8.827
  527POPC   C2B10652  17.388  44.285   8.434
  527POPC   C3B10653  17.505  44.108   8.045
  527POPC   C4B10654  17.367  44.195   7.644
  528POPC   NC310655  41.093  31.502   9.492
  528POPC   PO410656  40.738  32.032   9.442
  528POPC   GL110657  40.841  31.723   9.082
  528POPC   GL210658  40.733  31.364   9.098
  528POPC   C1A10659  40.766  31.694   8.611
  528POPC   D2A10660  40.931  31.510   8.203
  528POPC   C3A10661  40.696  31.375   7.831
  528POPC   C4A10662  40.544  31.520   7.406
  528POPC   C1B10663  41.008  31.220   8.728
  528POPC   C2B10664  41.028  30.997   8.315
  528POPC   C3B10665  41.146  31.132   7.894
  528POPC   C4B10666  41.050  31.303   7.464
  529POPC   NC310667  24.512  27.178   9.500
  529POPC   PO410668  24.121  26.634   9.777
  529POPC   GL110669  24.199  26.731   9.291
  529POPC   GL210670  24.575  26.770   9.184
  529POPC   C1A10671  24.230  26.897   8.843
  529POPC   D2A10672  24.122  27.046   8.434
  529POPC   C3A10673  24.325  26.895   8.086
  529POPC   C4A10674  24.184  26.728   7.730
  529POPC   C1B10675  24.730  26.826   8.755
  529POPC   C2B10676  24.709  26.652   8.340
  529POPC   C3B10677  24.792  26.780   7.895
  529POPC   C4B10678  24.645  26.975   7.519
  530POPC   NC310679  10.968  31.083   9.475
  530POPC   PO410680  10.267  31.415   9.583
  530POPC   GL110681  10.437  31.380   9.190
  530POPC   GL210682  10.513  31.046   9.202
  530POPC   C1A10683  10.323  31.416   8.751
  530POPC   D2A10684  10.545  31.488   8.345
  530POPC   C3A10685  10.263  31.586   8.000
  530POPC   C4A10686  10.210  31.611   7.551
  530POPC   C1B10687  10.532  30.929   8.755
  530POPC   C2B10688  10.332  30.995   8.329
  530POPC   C3B10689  10.409  31.125   7.867
  530POPC   C4B10690  10.804  31.403   7.851
  531POPC   NC310691  39.992  28.328   9.579
  531POPC   PO410692  39.305  28.423   9.640
  531POPC   GL110693  39.640  28.537   9.280
  531POPC   GL210694  39.793  28.189   9.148
  531POPC   C1A10695  39.979  28.586   8.896
  531POPC   D2A10696  39.956  28.503   8.444
  531POPC   C3A10697  40.114  28.704   8.050
  531POPC   C4A10698  40.010  28.535   7.656
  531POPC   C1B10699  40.012  28.076   8.776
  531POPC   C2B10700  40.250  28.090   8.399
  531POPC   C3B10701  40.087  28.175   8.018
  531POPC   C4B10702  40.338  28.118   7.654
  532POPC   NC310703  17.885   0.789   9.325
  532POPC   PO410704  18.398   0.368   9.420
  532POPC   GL110705  18.190   0.459   9.064
  532POPC   GL210706  17.989   0.159   9.130
  532POPC   C1A10707  18.441   0.614   8.724
  532POPC   D2A10708  18.609   0.419   8.341
  532POPC   C3A10709  18.520   0.659   7.982
  532POPC   C4A10710  18.424   0.585   7.556
  532POPC   C1B10711  18.176   0.107   8.690
  532POPC   C2B10712  18.096   0.468   8.384
  532POPC   C3B10713  18.043   0.495   7.954
  532POPC   C4B10714  17.910   0.407   7.571
  533POPC   NC310715  25.780  38.393   9.556
  533POPC   PO410716  26.148  38.907   9.441
  533POPC   GL110717  26.113  38.541   9.158
  533POPC   GL210718  26.359  38.244   9.134
  533POPC   C1A10719  26.084  38.423   8.730
  533POPC   D2A10720  25.844  38.442   8.377
  533POPC   C3A10721  26.030  38.426   8.015
  533POPC   C4A10722  26.333  38.711   7.874
  533POPC   C1B10723  26.320  37.972   8.729
  533POPC   C2B10724  26.167  38.020   8.314
  533POPC   C3B10725  26.395  38.100   7.900
  533POPC   C4B10726  26.560  38.048   7.466
  534POPC   NC310727  38.052  33.698   9.561
  534POPC   PO410728  37.513  33.368   9.697
  534POPC   GL110729  37.597  33.652   9.348
  534POPC   GL210730  37.584  33.372   9.179
  534POPC   C1A10731  37.790  33.776   8.919
  534POPC   D2A10732  37.726  34.085   8.575
  534POPC   C3A10733  37.698  33.917   8.156
  534POPC   C4A10734  37.686  34.094   7.743
  534POPC   C1B10735  37.388  33.446   8.796
  534POPC   C2B10736  37.166  33.383   8.419
  534POPC   C3B10737  37.395  33.279   8.015
  534POPC   C4B10738  37.685  33.557   7.797
  535POPC   NC310739  14.315  42.657   9.504
  535POPC   PO410740  14.551  43.267   9.535
  535POPC   GL110741  14.531  43.021   9.179
  535POPC   GL210742  14.153  42.974   9.106
  535POPC   C1A10743  14.511  43.096   8.748
  535POPC   D2A10744  14.181  43.002   8.482
  535POPC   C3A10745  14.525  43.057   8.180
  535POPC   C4A10746  14.465  43.059   7.757
  535POPC   C1B10747  14.110  43.380   8.843
  535POPC   C2B10748  14.243  43.485   8.396
  535POPC   C3B10749  14.079  43.254   8.020
  535POPC   C4B10750  14.014  43.179   7.540
  536POPC   NC310751  25.333  29.431   9.240
  536POPC   PO410752  25.410  28.847   9.528
  536POPC   GL110753  25.358  28.944   9.093
  536POPC   GL210754  25.012  29.065   9.045
  536POPC   C1A10755  25.360  29.120   8.648
  536POPC   D2A10756  25.339  28.914   8.247
  536POPC   C3A10757  25.632  28.780   7.938
  536POPC   C4A10758  25.605  28.800   7.454
  536POPC   C1B10759  24.908  29.400   8.731
  536POPC   C2B10760  25.071  29.552   8.337
  536POPC   C3B10761  25.319  29.394   7.988
  536POPC   C4B10762  25.219  29.021   7.748
  537POPC   NC310763  12.815   4.176   9.312
  537POPC   PO410764  13.002   3.629   9.722
  537POPC   GL110765  12.863   3.592   9.241
  537POPC   GL210766  12.578   3.773   9.131
  537POPC   C1A10767  12.936   3.735   8.770
  537POPC   D2A10768  12.825   3.862   8.342
  537POPC   C3A10769  13.044   3.589   8.089
  537POPC   C4A10770  13.118   3.492   7.673
  537POPC   C1B10771  12.450   3.796   8.699
  537POPC   C2B10772  12.375   3.632   8.268
  537POPC   C3B10773  12.501   3.574   7.839
  537POPC   C4B10774  12.359   3.695   7.435
  538POPC   NC310775  12.552  25.062   9.471
  538POPC   PO410776  11.886  25.094   9.471
  538POPC   GL110777  12.041  25.122   9.065
  538POPC   GL210778  12.362  25.272   9.044
  538POPC   C1A10779  11.852  25.112   8.654
  538POPC   D2A10780  11.692  25.288   8.268
  538POPC   C3A10781  11.941  25.265   7.902
  538POPC   C4A10782  11.988  25.657   7.652
  538POPC   C1B10783  12.244  25.472   8.672
  538POPC   C2B10784  12.445  25.571   8.292
  538POPC   C3B10785  12.399  25.500   7.878
  538POPC   C4B10786  12.470  25.735   7.483
  539POPC   NC310787  42.212  38.574   9.306
  539POPC   PO410788  41.981  37.970   9.370
  539POPC   GL110789  42.243  38.126   9.027
  539POPC   GL210790  42.611  38.119   9.152
  539POPC   C1A10791  42.240  38.443   8.656
  539POPC   D2A10792  42.336  38.784   8.323
  539POPC   C3A10793  42.189  38.716   7.880
  539POPC   C4A10794  42.119  38.353   7.558
  539POPC   C1B10795  42.690  38.162   8.709
  539POPC   C2B10796  42.513  38.211   8.280
  539POPC   C3B10797  42.548  38.333   7.858
  539POPC   C4B10798  42.663  38.149   7.467
  540POPC   NC310799  25.399  29.945   9.657
  540POPC   PO410800  24.933  29.525   9.419
  540POPC   GL110801  25.135  29.871   9.152
  540POPC   GL210802  25.463  30.048   9.158
  540POPC   C1A10803  25.193  29.896   8.717
  540POPC   D2A10804  25.402  29.942   8.313
  540POPC   C3A10805  25.149  29.892   7.930
  540POPC   C4A10806  25.512  29.805   7.710
  540POPC   C1B10807  25.599  30.177   8.747
  540POPC   C2B10808  25.520  30.435   8.378
  540POPC   C3B10809  25.479  30.293   7.909
  540POPC   C4B10810  25.626  30.254   7.448
  541POPC   NC310811  22.763   9.570   9.825
  541POPC   PO410812  22.210   9.422   9.449
  541POPC   GL110813  22.336   9.591   9.025
  541POPC   GL210814  22.275   9.864   9.051
  541POPC   C1A10815  22.286   9.529   8.585
  541POPC   D2A10816  21.980   9.456   8.290
  541POPC   C3A10817  22.048   9.597   7.858
  541POPC   C4A10818  22.046   9.360   7.473
  541POPC   C1B10819  22.318  10.039   8.661
  541POPC   C2B10820  22.164   9.948   8.259
  541POPC   C3B10821  22.382  10.151   7.931
  541POPC   C4B10822  22.375  10.227   7.479
  542POPC   NC310823   1.515  23.034   9.354
  542POPC   PO410824   0.819  23.167   9.429
  542POPC   GL110825   1.071  23.043   9.108
  542POPC   GL210826   1.096  22.725   9.177
  542POPC   C1A10827   1.292  23.194   8.717
  542POPC   D2A10828   1.497  23.021   8.355
  542POPC   C3A10829   1.319  22.994   7.977
  542POPC   C4A10830   1.223  23.308   7.716
  542POPC   C1B10831   1.269  22.684   8.764
  542POPC   C2B10832   1.065  22.695   8.371
  542POPC   C3B10833   0.962  22.627   7.945
  542POPC   C4B10834   1.283  22.598   7.654
  543POPC   NC310835   6.742  31.237   9.506
  543POPC   PO410836   6.202  31.675   9.295
  543POPC   GL110837   6.496  31.381   9.088
  543POPC   GL210838   6.895  31.440   9.079
  543POPC   C1A10839   6.671  31.083   8.800
  543POPC   D2A10840   6.835  31.150   8.399
  543POPC   C3A10841   6.562  31.141   8.062
  543POPC   C4A10842   6.763  31.467   7.829
  543POPC   C1B10843   6.794  31.571   8.697
  543POPC   C2B10844   6.454  31.494   8.439
  543POPC   C3B10845   6.291  31.596   8.044
  543POPC   C4B10846   6.394  31.801   7.666
  544POPC   NC310847  11.059  16.358   9.541
  544POPC   PO410848  11.341  16.962   9.529
  544POPC   GL110849  11.320  16.664   9.185
  544POPC   GL210850  10.976  16.666   9.140
  544POPC   C1A10851  11.360  16.733   8.738
  544POPC   D2A10852  11.339  16.989   8.362
  544POPC   C3A10853  11.550  16.867   7.991
  544POPC   C4A10854  11.551  16.625   7.578
  544POPC   C1B10855  11.091  16.310   8.856
  544POPC   C2B10856  10.969  16.325   8.440
  544POPC   C3B10857  11.176  16.512   8.089
  544POPC   C4B10858  11.095  16.842   7.774
  545POPC   NC310859   2.996  17.294   9.405
  545POPC   PO410860   2.502  17.726   9.415
  545POPC   GL110861   2.719  17.527   9.062
  545POPC   GL210862   3.042  17.696   9.088
  545POPC   C1A10863   2.792  17.328   8.648
  545POPC   D2A10864   2.645  17.619   8.298
  545POPC   C3A10865   2.740  17.676   7.879
  545POPC   C4A10866   2.822  17.359   7.637
  545POPC   C1B10867   2.997  17.777   8.670
  545POPC   C2B10868   3.167  17.554   8.367
  545POPC   C3B10869   3.000  17.274   8.097
  545POPC   C4B10870   3.202  17.060   7.768
  546POPC   NC310871   2.934  41.042   9.466
  546POPC   PO410872   2.429  40.620   9.411
  546POPC   GL110873   2.677  40.820   9.063
  546POPC   GL210874   2.701  41.162   9.041
  546POPC   C1A10875   2.755  40.905   8.606
  546POPC   D2A10876   3.016  41.162   8.311
  546POPC   C3A10877   2.930  41.080   7.878
  546POPC   C4A10878   3.137  40.827   7.601
  546POPC   C1B10879   2.375  41.226   8.787
  546POPC   C2B10880   2.390  41.341   8.375
  546POPC   C3B10881   2.439  41.083   8.012
  546POPC   C4B10882   2.345  41.070   7.585
  547POPC   NC310883   8.190  15.455   9.486
  547POPC   PO410884   8.534  14.907   9.435
  547POPC   GL110885   8.125  14.953   9.232
  547POPC   GL210886   8.276  15.211   9.052
  547POPC   C1A10887   7.954  14.938   8.795
  547POPC   D2A10888   8.281  15.115   8.529
  547POPC   C3A10889   8.125  15.263   8.163
  547POPC   C4A10890   8.067  15.192   7.746
  547POPC   C1B10891   8.437  15.552   8.818
  547POPC   C2B10892   8.421  15.640   8.389
  547POPC   C3B10893   8.432  15.605   7.937
  547POPC   C4B10894   8.534  15.329   7.603
  548POPC   NC310895  17.411  41.634   9.474
  548POPC   PO410896  18.090  41.513   9.573
  548POPC   GL110897  17.787  41.378   9.230
  548POPC   GL210898  17.721  41.706   9.037
  548POPC   C1A10899  17.512  41.302   8.855
  548POPC   D2A10900  17.615  41.584   8.506
  548POPC   C3A10901  17.732  41.442   8.094
  548POPC   C4A10902  17.496  41.509   7.724
  548POPC   C1B10903  17.269  41.777   8.863
  548POPC   C2B10904  17.121  41.730   8.451
  548POPC   C3B10905  17.389  41.868   8.114
  548POPC   C4B10906  17.377  41.992   7.701
  549POPC   NC310907  10.362   4.744   9.641
  549POPC   PO410908  10.672   4.111   9.526
  549POPC   GL110909  10.476   4.126   9.114
  549POPC   GL210910  10.421   4.423   9.199
  549POPC   C1A10911  10.569   4.059   8.674
  549POPC   D2A10912  10.525   3.770   8.329
  549POPC   C3A10913  10.416   3.882   7.934
  549POPC   C4A10914  10.531   4.196   7.657
  549POPC   C1B10915  10.583   4.585   8.837
  549POPC   C2B10916  10.842   4.465   8.525
  549POPC   C3B10917  10.722   4.389   8.100
  549POPC   C4B10918  10.783   4.628   7.731
  550POPC   NC310919  12.812  20.125   9.458
  550POPC   PO410920  12.622  19.428   9.386
  550POPC   GL110921  12.814  19.660   9.097
  550POPC   GL210922  12.767  19.994   8.967
  550POPC   C1A10923  12.965  19.574   8.728
  550POPC   D2A10924  12.857  19.879   8.429
  550POPC   C3A10925  13.124  19.818   8.127
  550POPC   C4A10926  13.105  19.788   7.696
  550POPC   C1B10927  12.475  20.164   8.659
  550POPC   C2B10928  12.554  20.267   8.233
  550POPC   C3B10929  12.863  20.205   7.923
  550POPC   C4B10930  12.750  20.085   7.529
  551POPC   NC310931  13.287  24.206   9.447
  551POPC   PO410932  13.836  24.648   9.439
  551POPC   GL110933  13.553  24.855   9.147
  551POPC   GL210934  13.240  24.680   9.159
  551POPC   C1A10935  13.518  24.778   8.701
  551POPC   D2A10936  13.560  24.436   8.402
  551POPC   C3A10937  13.832  24.440   8.013
  551POPC   C4A10938  14.196  24.201   7.834
  551POPC   C1B10939  13.183  24.368   8.819
  551POPC   C2B10940  13.043  24.305   8.400
  551POPC   C3B10941  13.238  24.363   8.019
  551POPC   C4B10942  13.424  24.676   7.796
  552POPC   NC310943  29.809  20.029   9.547
  552POPC   PO410944  30.422  19.625   9.598
  552POPC   GL110945  30.190  19.825   9.239
  552POPC   GL210946  29.844  19.682   9.185
  552POPC   C1A10947  30.166  19.788   8.789
  552POPC   D2A10948  30.130  19.557   8.389
  552POPC   C3A10949  30.188  19.770   7.997
  552POPC   C4A10950  30.108  20.001   7.632
  552POPC   C1B10951  29.713  19.994   8.896
  552POPC   C2B10952  29.806  19.979   8.453
  552POPC   C3B10953  29.669  19.916   8.042
  552POPC   C4B10954  29.362  20.052   7.806
  553POPC   NC310955  34.019   5.939   9.552
  553POPC   PO410956  33.597   5.425   9.469
  553POPC   GL110957  33.812   5.675   9.154
  553POPC   GL210958  33.741   6.048   9.148
  553POPC   C1A10959  33.980   5.656   8.748
  553POPC   D2A10960  33.821   5.873   8.383
  553POPC   C3A10961  33.942   5.747   7.997
  553POPC   C4A10962  34.010   5.550   7.585
  553POPC   C1B10963  33.518   5.929   8.786
  553POPC   C2B10964  33.349   6.116   8.435
  553POPC   C3B10965  33.417   5.869   8.063
  553POPC   C4B10966  33.621   5.947   7.686
  554POPC   NC310967  18.151  13.925   9.187
  554POPC   PO410968  18.452  13.485   9.563
  554POPC   GL110969  18.454  13.378   9.111
  554POPC   GL210970  18.140  13.449   9.038
  554POPC   C1A10971  18.503  13.594   8.692
  554POPC   D2A10972  18.543  13.796   8.306
  554POPC   C3A10973  18.371  13.737   7.909
  554POPC   C4A10974  18.403  13.345   7.707
  554POPC   C1B10975  18.096  13.278   8.663
  554POPC   C2B10976  18.099  13.518   8.311
  554POPC   C3B10977  17.948  13.432   7.935
  554POPC   C4B10978  17.870  13.167   7.623
  555POPC   NC310979  21.961  31.892   9.627
  555POPC   PO410980  22.395  32.429   9.604
  555POPC   GL110981  22.256  32.439   9.201
  555POPC   GL210982  22.262  32.100   9.220
  555POPC   C1A10983  22.266  32.527   8.763
  555POPC   D2A10984  22.055  32.362   8.396
  555POPC   C3A10985  22.245  32.465   7.994
  555POPC   C4A10986  22.121  32.305   7.594
  555POPC   C1B10987  22.122  32.052   8.818
  555POPC   C2B10988  22.208  31.882   8.421
  555POPC   C3B10989  22.020  31.985   8.037
  555POPC   C4B10990  22.169  31.776   7.726
  556POPC   NC310991   9.685  20.849   9.630
  556POPC   PO410992   9.936  20.304   9.435
  556POPC   GL110993   9.734  20.572   9.137
  556POPC   GL210994   9.589  20.893   9.131
  556POPC   C1A10995   9.934  20.805   8.773
  556POPC   D2A10996   9.746  20.855   8.366
  556POPC   C3A10997   9.932  20.789   7.972
  556POPC   C4A10998   9.631  20.630   7.734
  556POPC   C1B10999   9.447  20.663   8.722
  556POPC   C2B11000   9.241  20.657   8.302
  556POPC   C3B11001   9.138  20.816   7.876
  556POPC   C4B11002   9.236  20.703   7.435
  557POPC   NC311003  35.017  29.396   9.419
  557POPC   PO411004  35.464  28.956   9.373
  557POPC   GL111005  35.519  29.150   8.989
  557POPC   GL211006  35.817  29.383   8.942
  557POPC   C1A11007  35.168  28.992   8.753
  557POPC   D2A11008  35.047  28.771   8.403
  557POPC   C3A11009  35.210  28.893   7.998
  557POPC   C4A11010  35.332  29.210   7.740
  557POPC   C1B11011  35.665  29.588   8.569
  557POPC   C2B11012  35.603  29.439   8.141
  557POPC   C3B11013  35.746  29.513   7.722
  557POPC   C4B11014  35.787  29.139   7.475
  558POPC   NC311015  20.721   2.818   9.845
  558POPC   PO411016  20.762   3.093   9.263
  558POPC   GL111017  20.722   2.715   9.028
  558POPC   GL211018  20.518   2.972   8.835
  558POPC   C1A11019  20.453   2.503   8.737
  558POPC   D2A11020  20.518   2.752   8.342
  558POPC   C3A11021  20.465   2.544   7.941
  558POPC   C4A11022  20.793   2.472   7.640
  558POPC   C1B11023  20.951   2.884   8.636
  558POPC   C2B11024  21.241   2.946   8.339
  558POPC   C3B11025  21.039   3.035   7.977
  558POPC   C4B11026  20.597   3.036   7.881
  559POPC   NC311027  12.300  14.098   9.209
  559POPC   PO411028  11.965  14.514   9.612
  559POPC   GL111029  12.010  14.523   9.178
  559POPC   GL211030  11.811  14.255   9.070
  559POPC   C1A11031  12.115  14.508   8.720
  559POPC   D2A11032  12.273  14.658   8.317
  559POPC   C3A11033  12.098  14.470   7.942
  559POPC   C4A11034  12.244  14.236   7.575
  559POPC   C1B11035  11.622  14.357   8.711
  559POPC   C2B11036  11.757  14.349   8.302
  559POPC   C3B11037  11.658  14.244   7.878
  559POPC   C4B11038  11.742  14.018   7.520
  560POPC   NC311039  31.346  33.862   9.361
  560POPC   PO411040  31.650  33.343   9.774
  560POPC   GL111041  31.703  33.369   9.284
  560POPC   GL211042  31.362  33.388   9.100
  560POPC   C1A11043  31.804  33.469   8.816
  560POPC   D2A11044  31.685  33.826   8.508
  560POPC   C3A11045  31.694  33.848   8.039
  560POPC   C4A11046  31.413  33.673   7.711
  560POPC   C1B11047  31.333  33.364   8.612
  560POPC   C2B11048  31.605  33.384   8.245
  560POPC   C3B11049  31.593  33.193   7.845
  560POPC   C4B11050  31.638  33.295   7.388
  561POPC   NC311051  40.390  26.464   9.780
  561POPC   PO411052  40.811  25.994   9.526
  561POPC   GL111053  40.779  26.227   9.154
  561POPC   GL211054  40.433  26.296   9.028
  561POPC   C1A11055  41.018  26.305   8.805
  561POPC   D2A11056  41.037  26.012   8.454
  561POPC   C3A11057  40.904  26.121   8.048
  561POPC   C4A11058  40.753  25.846   7.722
  561POPC   C1B11059  40.354  26.125   8.621
  561POPC   C2B11060  40.393  26.046   8.157
  561POPC   C3B11061  40.460  26.279   7.764
  561POPC   C4B11062  40.806  26.287   7.459
  562POPC   NC311063  40.019  24.958   9.406
  562POPC   PO411064  40.295  25.473   9.460
  562POPC   GL111065  40.095  25.427   9.140
  562POPC   GL211066  39.770  25.480   9.267
  562POPC   C1A11067  40.239  25.302   8.744
  562POPC   D2A11068  40.370  25.064   8.423
  562POPC   C3A11069  40.376  25.329   8.088
  562POPC   C4A11070  40.045  25.179   7.844
  562POPC   C1B11071  39.732  25.320   8.810
  562POPC   C2B11072  39.826  25.212   8.394
  562POPC   C3B11073  39.656  25.442   8.053
  562POPC   C4B11074  39.574  25.333   7.621
  563POPC   NC311075  35.441  33.675   9.423
  563POPC   PO411076  35.007  34.208   9.471
  563POPC   GL111077  35.157  33.992   9.121
  563POPC   GL211078  35.456  34.106   9.050
  563POPC   C1A11079  35.140  33.657   8.785
  563POPC   D2A11080  35.182  33.463   8.365
  563POPC   C3A11081  35.049  33.620   7.937
  563POPC   C4A11082  35.244  33.622   7.498
  563POPC   C1B11083  35.347  34.125   8.631
  563POPC   C2B11084  35.315  33.939   8.249
  563POPC   C3B11085  35.534  33.796   7.911
  563POPC   C4B11086  35.626  34.063   7.554
  564POPC   NC311087  20.353   0.393   9.471
  564POPC   PO411088  20.950   0.643   9.405
  564POPC   GL111089  20.678   0.438   9.077
  564POPC   GL211090  20.294   0.420   8.988
  564POPC   C1A11091  20.740   0.449   8.661
  564POPC   D2A11092  20.911   0.120   8.443
  564POPC   C3A11093  20.978   0.302   8.080
  564POPC   C4A11094  20.731   0.374   7.748
  564POPC   C1B11095  20.228   0.405   8.592
  564POPC   C2B11096  20.450   0.376   8.215
  564POPC   C3B11097  20.252   0.298   7.816
  564POPC   C4B11098  20.399   0.256   7.318
  565POPC   NC311099   7.002   5.047   9.463
  565POPC   PO411100   6.270   4.925   9.462
  565POPC   GL111101   6.579   5.060   9.172
  565POPC   GL211102   6.328   5.226   9.017
  565POPC   C1A11103   6.881   4.958   8.809
  565POPC   D2A11104   6.871   5.150   8.388
  565POPC   C3A11105   6.821   4.992   7.974
  565POPC   C4A11106   6.984   5.301   7.732
  565POPC   C1B11107   6.418   5.109   8.641
  565POPC   C2B11108   6.387   4.913   8.268
  565POPC   C3B11109   6.357   5.186   7.964
  565POPC   C4B11110   6.132   5.255   7.663
  566POPC   NC311111  21.017   1.135   9.386
  566POPC   PO411112  21.590   1.337   9.737
  566POPC   GL111113  21.545   1.337   9.284
  566POPC   GL211114  21.275   1.453   9.098
  566POPC   C1A11115  21.695   1.160   8.897
  566POPC   D2A11116  21.548   1.014   8.488
  566POPC   C3A11117  21.580   1.280   8.136
  566POPC   C4A11118  21.720   1.057   7.783
  566POPC   C1B11119  21.242   1.378   8.708
  566POPC   C2B11120  21.090   1.293   8.353
  566POPC   C3B11121  21.167   0.987   8.096
  566POPC   C4B11122  21.176   1.181   7.719
  567POPC   NC311123   4.309  32.637   9.475
  567POPC   PO411124   4.363  31.907   9.541
  567POPC   GL111125   4.419  32.132   9.189
  567POPC   GL211126   4.782  32.195   9.183
  567POPC   C1A11127   4.328  32.295   8.785
  567POPC   D2A11128   4.212  32.481   8.392
  567POPC   C3A11129   4.080  32.181   8.071
  567POPC   C4A11130   4.144  32.130   7.636
  567POPC   C1B11131   4.781  32.528   8.858
  567POPC   C2B11132   4.755  32.446   8.393
  567POPC   C3B11133   4.521  32.473   7.973
  567POPC   C4B11134   4.528  32.427   7.512
  568POPC   NC311135  30.011  38.739   9.508
  568POPC   PO411136  29.770  38.123   9.412
  568POPC   GL111137  29.940  38.396   9.147
  568POPC   GL211138  29.645  38.567   9.110
  568POPC   C1A11139  30.016  38.534   8.736
  568POPC   D2A11140  30.057  38.273   8.389
  568POPC   C3A11141  30.128  38.492   8.016
  568POPC   C4A11142  29.860  38.804   7.815
  568POPC   C1B11143  29.615  38.219   8.781
  568POPC   C2B11144  29.516  38.162   8.359
  568POPC   C3B11145  29.755  38.131   7.987
  568POPC   C4B11146  29.802  38.321   7.631
  569POPC   NC311147  23.540   5.454   9.180
  569POPC   PO411148  23.961   4.976   9.440
  569POPC   GL111149  23.782   4.959   9.057
  569POPC   GL211150  23.961   4.659   9.000
  569POPC   C1A11151  23.812   5.094   8.621
  569POPC   D2A11152  24.151   5.318   8.388
  569POPC   C3A11153  23.994   5.352   7.963
  569POPC   C4A11154  23.607   5.245   7.713
  569POPC   C1B11155  23.728   4.566   8.614
  569POPC   C2B11156  23.567   4.758   8.241
  569POPC   C3B11157  23.747   4.765   7.817
  569POPC   C4B11158  23.888   4.878   7.396
  570POPC   NC311159   0.592  26.548   9.436
  570POPC   PO411160   0.622  27.303   9.497
  570POPC   GL111161   0.403  26.955   9.221
  570POPC   GL211162   0.124  26.724   9.243
  570POPC   C1A11163   0.512  26.879   8.797
  570POPC   D2A11164   0.524  27.237   8.511
  570POPC   C3A11165   0.540  27.116   8.089
  570POPC   C4A11166   0.454  26.779   7.760
  570POPC   C1B11167   0.143  26.532   8.829
  570POPC   C2B11168   0.258  26.539   8.400
  570POPC   C3B11169   0.029  26.506   7.991
  570POPC   C4B11170   0.103  26.490   7.537
  571POPC   NC311171  24.971  19.462   9.459
  571POPC   PO411172  24.559  18.998   9.311
  571POPC   GL111173  24.528  19.322   9.092
  571POPC   GL211174  24.830  19.296   8.959
  571POPC   C1A11175  24.317  19.327   8.722
  571POPC   D2A11176  24.509  19.281   8.317
  571POPC   C3A11177  24.416  19.250   7.910
  571POPC   C4A11178  24.246  19.474   7.590
  571POPC   C1B11179  24.651  18.927   8.680
  571POPC   C2B11180  24.903  18.737   8.359
  571POPC   C3B11181  24.771  18.844   7.995
  571POPC   C4B11182  24.465  18.817   7.670
  572POPC   NC311183  13.856  17.879   9.439
  572POPC   PO411184  13.485  17.270   9.518
  572POPC   GL111185  13.343  17.438   9.147
  572POPC   GL211186  13.138  17.163   9.062
  572POPC   C1A11187  13.527  17.572   8.725
  572POPC   D2A11188  13.774  17.683   8.356
  572POPC   C3A11189  13.569  17.732   7.983
  572POPC   C4A11190  13.762  17.658   7.639
  572POPC   C1B11191  13.509  17.070   8.797
  572POPC   C2B11192  13.820  17.179   8.465
  572POPC   C3B11193  13.823  17.277   8.003
  572POPC   C4B11194  13.612  17.192   7.550
  573POPC   NC311195   8.064  44.532   9.714
  573POPC   PO411196   8.675  44.526   9.639
  573POPC   GL111197   8.361  44.523   9.239
  573POPC   GL211198   7.987  44.616   9.220
  573POPC   C1A11199   8.272  44.677   8.783
  573POPC   D2A11200   7.938  44.883   8.479
  573POPC   C3A11201   8.076  44.940   8.041
  573POPC   C4A11202   8.073   0.241   7.676
  573POPC   C1B11203   7.856  44.394   8.864
  573POPC   C2B11204   8.016  44.384   8.430
  573POPC   C3B11205   8.321  44.404   8.103
  573POPC   C4B11206   8.279  44.216   7.719
  574POPC   NC311207  14.228  16.474   9.460
  574POPC   PO411208  14.818  16.953   9.472
  574POPC   GL111209  14.501  17.026   9.190
  574POPC   GL211210  14.495  16.686   9.077
  574POPC   C1A11211  14.249  17.082   8.803
  574POPC   D2A11212  14.261  16.888   8.403
  574POPC   C3A11213  14.143  16.858   7.950
  574POPC   C4A11214  14.138  16.485   7.736
  574POPC   C1B11215  14.579  16.573   8.664
  574POPC   C2B11216  14.506  16.481   8.204
  574POPC   C3B11217  14.655  16.596   7.817
  574POPC   C4B11218  14.918  16.950   7.809
  575POPC   NC311219  44.506   5.526   9.457
  575POPC   PO411220  44.965   6.011   9.457
  575POPC   GL111221  44.743   5.826   9.105
  575POPC   GL211222  44.920   5.510   9.059
  575POPC   C1A11223  44.621   6.036   8.715
  575POPC   D2A11224  44.888   6.335   8.475
  575POPC   C3A11225  44.952   6.160   8.087
  575POPC   C4A11226  44.626   6.148   7.729
  575POPC   C1B11227  44.666   5.475   8.714
  575POPC   C2B11228  44.766   5.676   8.326
  575POPC   C3B11229  44.827   5.712   7.901
  575POPC   C4B11230  44.548   5.619   7.590
  576POPC   NC311231  41.936   9.229   9.323
  576POPC   PO411232  42.552   8.987   9.386
  576POPC   GL111233  42.424   8.736   9.058
  576POPC   GL211234  42.068   8.787   8.954
  576POPC   C1A11235  42.498   8.804   8.635
  576POPC   D2A11236  42.320   8.961   8.319
  576POPC   C3A11237  42.351   8.710   7.990
  576POPC   C4A11238  42.110   8.760   7.656
  576POPC   C1B11239  42.032   9.179   8.694
  576POPC   C2B11240  42.090   9.409   8.302
  576POPC   C3B11241  42.120   9.220   7.923
  576POPC   C4B11242  41.980   9.229   7.526
  577POPC   NC311243   9.981  31.149   9.326
  577POPC   PO411244   9.309  31.213   9.347
  577POPC   GL111245   9.620  31.476   9.124
  577POPC   GL211246   9.962  31.643   9.214
  577POPC   C1A11247   9.788  31.366   8.728
  577POPC   D2A11248   9.695  31.066   8.409
  577POPC   C3A11249   9.917  31.170   8.035
  577POPC   C4A11250   9.772  31.357   7.649
  577POPC   C1B11251   9.987  31.879   8.833
  577POPC   C2B11252   9.779  31.794   8.446
  577POPC   C3B11253   9.752  31.688   8.034
  577POPC   C4B11254   9.871  31.961   7.706
  578POPC   NC311255  35.496  19.473   9.317
  578POPC   PO411256  35.461  20.126   9.575
  578POPC   GL111257  35.230  19.984   9.187
  578POPC   GL211258  34.923  19.724   9.202
  578POPC   C1A11259  35.341  20.065   8.743
  578POPC   D2A11260  35.117  20.031   8.336
  578POPC   C3A11261  35.373  20.032   7.947
  578POPC   C4A11262  35.670  20.118   7.605
  578POPC   C1B11263  35.028  19.639   8.756
  578POPC   C2B11264  35.415  19.601   8.484
  578POPC   C3B11265  35.528  19.327   8.131
  578POPC   C4B11266  35.607  19.556   7.763
  579POPC   NC311267  18.781  13.880   9.543
  579POPC   PO411268  19.411  13.600   9.307
  579POPC   GL111269  19.066  13.827   9.081
  579POPC   GL211270  18.937  13.504   8.967
  579POPC   C1A11271  18.939  13.896   8.626
  579POPC   D2A11272  18.995  13.577   8.313
  579POPC   C3A11273  18.870  13.644   7.898
  579POPC   C4A11274  18.829  14.045   7.703
  579POPC   C1B11275  19.321  13.559   8.695
  579POPC   C2B11276  19.499  13.371   8.392
  579POPC   C3B11277  19.340  13.392   7.983
  579POPC   C4B11278  19.133  13.267   7.673
  580POPC   NC311279  19.393  36.484   9.452
  580POPC   PO411280  19.127  36.005   9.828
  580POPC   GL111281  19.068  36.043   9.354
  580POPC   GL211282  18.734  36.024   9.261
  580POPC   C1A11283  19.098  35.950   8.883
  580POPC   D2A11284  19.322  36.099   8.507
  580POPC   C3A11285  19.153  36.020   8.090
  580POPC   C4A11286  19.184  35.726   7.756
  580POPC   C1B11287  18.622  36.260   8.912
  580POPC   C2B11288  18.819  36.240   8.525
  580POPC   C3B11289  18.711  36.284   8.113
  580POPC   C4B11290  18.820  36.149   7.720
  581POPC   NC311291  19.429  44.593   9.730
  581POPC   PO411292  18.956  44.742   9.307
  581POPC   GL111293  19.247  44.568   9.015
  581POPC   GL211294  19.550  44.398   9.176
  581POPC   C1A11295  19.167  44.586   8.553
  581POPC   D2A11296  19.109  44.473   8.116
  581POPC   C3A11297  19.095  44.733   7.748
  581POPC   C4A11298  18.749  44.741   7.474
  581POPC   C1B11299  19.494  44.207   8.734
  581POPC   C2B11300  19.562  44.246   8.254
  581POPC   C3B11301  19.431  44.316   7.768
  581POPC   C4B11302  19.444  44.591   7.368
  582POPC   NC311303  33.163  16.229   9.336
  582POPC   PO411304  33.198  16.836   9.673
  582POPC   GL111305  33.180  16.743   9.207
  582POPC   GL211306  33.450  16.555   9.047
  582POPC   C1A11307  33.128  16.931   8.753
  582POPC   D2A11308  32.900  16.915   8.315
  582POPC   C3A11309  33.145  16.831   7.937
  582POPC   C4A11310  33.154  16.688   7.517
  582POPC   C1B11311  33.086  16.422   8.757
  582POPC   C2B11312  32.896  16.245   8.421
  582POPC   C3B11313  32.837  16.421   8.025
  582POPC   C4B11314  32.811  16.327   7.621
  583POPC   NC311315  30.777   9.387   9.458
  583POPC   PO411316  30.386   9.942   9.389
  583POPC   GL111317  30.707   9.740   9.067
  583POPC   GL211318  31.075   9.601   9.117
  583POPC   C1A11319  30.657   9.631   8.607
  583POPC   D2A11320  30.314   9.677   8.289
  583POPC   C3A11321  30.392   9.597   7.835
  583POPC   C4A11322  30.602   9.809   7.474
  583POPC   C1B11323  31.096   9.889   8.745
  583POPC   C2B11324  30.967   9.995   8.319
  583POPC   C3B11325  30.885   9.732   7.948
  583POPC   C4B11326  31.138   9.632   7.581
  584POPC   NC311327  41.867   5.195   9.495
  584POPC   PO411328  41.356   4.731   9.649
  584POPC   GL111329  41.380   4.994   9.247
  584POPC   GL211330  41.712   5.038   9.053
  584POPC   C1A11331  41.320   5.232   8.830
  584POPC   D2A11332  41.539   5.102   8.446
  584POPC   C3A11333  41.446   5.213   8.021
  584POPC   C4A11334  41.173   5.002   7.751
  584POPC   C1B11335  41.886   5.341   8.749
  584POPC   C2B11336  42.058   5.259   8.331
  584POPC   C3B11337  41.927   5.377   7.903
  584POPC   C4B11338  41.923   5.320   7.463
  585POPC   NC311339  44.725  19.738  10.030
  585POPC   PO411340  44.538  20.008   9.452
  585POPC   GL111341  44.454  19.800   9.083
  585POPC   GL211342  44.284  19.522   9.238
  585POPC   C1A11343  44.682  19.681   8.711
  585POPC   D2A11344  44.880  19.531   8.321
  585POPC   C3A11345  44.810  19.776   7.961
  585POPC   C4A11346  44.705  19.681   7.479
  585POPC   C1B11347  44.298  19.363   8.809
  585POPC   C2B11348  44.333  19.555   8.368
  585POPC   C3B11349  44.360  19.505   7.926
  585POPC   C4B11350  44.351  19.914   7.776
  586POPC   NC311351   1.522   0.291   9.416
  586POPC   PO411352   1.028   0.801   9.400
  586POPC   GL111353   1.201   0.568   9.068
  586POPC   GL211354   1.545   0.615   9.014
  586POPC   C1A11355   1.044   0.356   8.711
  586POPC   D2A11356   0.932   0.136   8.347
  586POPC   C3A11357   0.840   0.451   8.077
  586POPC   C4A11358   0.998   0.534   7.692
  586POPC   C1B11359   1.605   0.599   8.604
  586POPC   C2B11360   1.333   0.473   8.290
  586POPC   C3B11361   1.426   0.366   7.891
  586POPC   C4B11362   1.625   0.670   7.612
  587POPC   NC311363  43.289  20.247   9.443
  587POPC   PO411364  43.337  20.984   9.548
  587POPC   GL111365  43.304  20.705   9.187
  587POPC   GL211366  42.960  20.588   9.208
  587POPC   C1A11367  43.221  20.622   8.729
  587POPC   D2A11368  43.306  20.757   8.285
  587POPC   C3A11369  43.231  20.455   7.940
  587POPC   C4A11370  43.172  20.470   7.475
  587POPC   C1B11371  42.758  20.818   8.873
  587POPC   C2B11372  42.895  21.003   8.473
  587POPC   C3B11373  42.852  20.859   8.046
  587POPC   C4B11374  42.700  20.699   7.656
  588POPC   NC311375  28.430  36.253   9.495
  588POPC   PO411376  28.736  35.769   9.511
  588POPC   GL111377  28.501  35.904   9.111
  588POPC   GL211378  28.504  36.263   9.006
  588POPC   C1A11379  28.488  35.855   8.657
  588POPC   D2A11380  28.116  35.820   8.370
  588POPC   C3A11381  28.159  35.927   7.927
  588POPC   C4A11382  28.554  36.031   7.683
  588POPC   C1B11383  28.183  36.244   8.736
  588POPC   C2B11384  28.181  36.323   8.317
  588POPC   C3B11385  28.257  36.417   7.895
  588POPC   C4B11386  28.135  36.200   7.450
  589POPC   NC311387  12.882  21.082   9.597
  589POPC   PO411388  13.037  20.503   9.314
  589POPC   GL111389  12.838  20.782   9.061
  589POPC   GL211390  13.056  21.101   9.071
  589POPC   C1A11391  12.696  20.631   8.627
  589POPC   D2A11392  12.512  20.796   8.251
  589POPC   C3A11393  12.565  20.607   7.829
  589POPC   C4A11394  12.895  20.551   7.478
  589POPC   C1B11395  13.148  20.847   8.663
  589POPC   C2B11396  13.031  20.654   8.224
  589POPC   C3B11397  13.242  20.683   7.816
  589POPC   C4B11398  13.495  20.712   7.420
  590POPC   NC311399   3.287  33.943   9.517
  590POPC   PO411400   3.970  33.967   9.608
  590POPC   GL111401   3.863  33.902   9.189
  590POPC   GL211402   3.643  34.160   9.186
  590POPC   C1A11403   3.546  33.748   8.888
  590POPC   D2A11404   3.300  33.585   8.551
  590POPC   C3A11405   3.511  33.494   8.160
  590POPC   C4A11406   3.646  33.473   7.737
  590POPC   C1B11407   3.721  34.201   8.748
  590POPC   C2B11408   3.627  33.988   8.365
  590POPC   C3B11409   3.785  33.912   7.971
  590POPC   C4B11410   3.857  34.072   7.550
  591POPC   NC311411   7.877  35.645   9.525
  591POPC   PO411412   8.333  35.119   9.673
  591POPC   GL111413   8.312  35.191   9.222
  591POPC   GL211414   8.249  35.541   9.134
  591POPC   C1A11415   8.318  35.147   8.756
  591POPC   D2A11416   8.225  35.303   8.327
  591POPC   C3A11417   8.484  35.276   7.946
  591POPC   C4A11418   8.421  35.255   7.474
  591POPC   C1B11419   8.259  35.674   8.702
  591POPC   C2B11420   8.514  35.729   8.297
  591POPC   C3B11421   8.321  35.782   7.903
  591POPC   C4B11422   8.400  35.765   7.460
  592POPC   NC311423  16.002  26.457   9.408
  592POPC   PO411424  15.729  25.794   9.412
  592POPC   GL111425  15.800  26.046   9.086
  592POPC   GL211426  16.132  26.049   9.078
  592POPC   C1A11427  15.647  26.075   8.681
  592POPC   D2A11428  15.743  25.949   8.244
  592POPC   C3A11429  16.021  26.106   7.912
  592POPC   C4A11430  15.896  26.091   7.473
  592POPC   C1B11431  16.134  25.902   8.622
  592POPC   C2B11432  16.250  25.736   8.182
  592POPC   C3B11433  16.417  25.808   7.744
  592POPC   C4B11434  16.253  25.799   7.301
  593POPC   NC311435  37.463  17.933   9.467
  593POPC   PO411436  38.025  18.143   9.504
  593POPC   GL111437  37.819  18.112   9.089
  593POPC   GL211438  37.449  18.221   9.047
  593POPC   C1A11439  37.929  18.200   8.655
  593POPC   D2A11440  37.817  18.466   8.318
  593POPC   C3A11441  37.848  18.288   7.928
  593POPC   C4A11442  37.536  18.302   7.620
  593POPC   C1B11443  37.469  17.933   8.712
  593POPC   C2B11444  37.627  17.928   8.274
  593POPC   C3B11445  37.357  17.883   7.900
  593POPC   C4B11446  37.349  17.854   7.450
  594POPC   NC311447  22.761  27.132   9.579
  594POPC   PO411448  22.750  27.742   9.374
  594POPC   GL111449  23.123  27.480   9.214
  594POPC   GL211450  22.866  27.280   9.094
  594POPC   C1A11451  23.288  27.191   8.843
  594POPC   D2A11452  23.218  27.244   8.391
  594POPC   C3A11453  23.212  27.660   8.155
  594POPC   C4A11454  22.925  27.783   7.833
  594POPC   C1B11455  22.936  27.560   8.715
  594POPC   C2B11456  22.749  27.543   8.296
  594POPC   C3B11457  22.668  27.355   7.892
  594POPC   C4B11458  22.849  27.419   7.472
  595POPC   NC311459   2.552  18.863   9.334
  595POPC   PO411460   2.628  19.495   9.439
  595POPC   GL111461   2.678  19.260   9.039
  595POPC   GL211462   2.963  19.009   9.028
  595POPC   C1A11463   2.516  19.081   8.639
  595POPC   D2A11464   2.697  19.045   8.219
  595POPC   C3A11465   2.856  19.379   7.959
  595POPC   C4A11466   2.857  19.504   7.531
  595POPC   C1B11467   2.906  18.746   8.660
  595POPC   C2B11468   2.705  18.543   8.323
  595POPC   C3B11469   2.658  18.653   7.889
  595POPC   C4B11470   2.760  19.012   7.582
  596POPC   NC311471  29.730  27.809   9.625
  596POPC   PO411472  29.617  28.483   9.573
  596POPC   GL111473  29.707  28.521   9.174
  596POPC   GL211474  29.836  28.186   9.191
  596POPC   C1A11475  29.726  28.740   8.769
  596POPC   D2A11476  29.988  28.615   8.431
  596POPC   C3A11477  29.783  28.645   8.017
  596POPC   C4A11478  29.815  28.380   7.657
  596POPC   C1B11479  30.053  28.322   8.841
  596POPC   C2B11480  30.164  28.141   8.454
  596POPC   C3B11481  30.140  28.266   8.029
  596POPC   C4B11482  30.271  28.135   7.601
  597POPC   NC311483  23.127  28.027   9.304
  597POPC   PO411484  22.649  28.421   9.601
  597POPC   GL111485  22.709  28.309   9.158
  597POPC   GL211486  22.799  28.648   9.125
  597POPC   C1A11487  22.887  28.180   8.711
  597POPC   D2A11488  22.831  28.057   8.253
  597POPC   C3A11489  23.102  28.239   7.911
  597POPC   C4A11490  23.212  28.657   7.830
  597POPC   C1B11491  22.916  28.696   8.688
  597POPC   C2B11492  22.996  28.550   8.307
  597POPC   C3B11493  22.723  28.579   7.962
  597POPC   C4B11494  22.541  28.239   7.817
  598POPC   NC311495  20.017  17.001   9.310
  598POPC   PO411496  19.689  16.470   9.596
  598POPC   GL111497  19.595  16.642   9.145
  598POPC   GL211498  19.372  16.945   9.175
  598POPC   C1A11499  19.614  16.556   8.670
  598POPC   D2A11500  19.665  16.389   8.220
  598POPC   C3A11501  19.761  16.655   7.867
  598POPC   C4A11502  20.035  16.604   7.469
  598POPC   C1B11503  19.587  17.058   8.771
  598POPC   C2B11504  19.712  16.937   8.341
  598POPC   C3B11505  19.647  17.139   7.955
  598POPC   C4B11506  19.736  17.023   7.517
  599POPC   NC311507   6.201  41.885   9.552
  599POPC   PO411508   5.665  41.420   9.496
  599POPC   GL111509   5.685  41.676   9.153
  599POPC   GL211510   6.030  41.609   9.139
  599POPC   C1A11511   5.703  41.588   8.713
  599POPC   D2A11512   5.696  41.363   8.335
  599POPC   C3A11513   5.743  41.601   7.947
  599POPC   C4A11514   5.631  41.806   7.556
  599POPC   C1B11515   6.205  41.538   8.736
  599POPC   C2B11516   6.087  41.667   8.353
  599POPC   C3B11517   6.236  41.506   8.016
  599POPC   C4B11518   6.467  41.636   7.739
  600POPC   NC311519  32.770  28.086   9.918
  600POPC   PO411520  33.335  28.364   9.611
  600POPC   GL111521  33.296  28.398   9.194
  600POPC   GL211522  32.984  28.240   9.149
  600POPC   C1A11523  33.344  28.165   8.802
  600POPC   D2A11524  33.311  28.366   8.401
  600POPC   C3A11525  33.234  28.116   8.050
  600POPC   C4A11526  33.009  28.268   7.726
  600POPC   C1B11527  32.871  28.336   8.689
  600POPC   C2B11528  32.742  28.231   8.231
  600POPC   C3B11529  32.512  28.203   7.817
  600POPC   C4B11530  32.648  28.058   7.402
  601POPC   NC311531  36.775  14.206   9.526
  601POPC   PO411532  36.382  14.671   9.339
  601POPC   GL111533  36.621  14.430   9.085
  601POPC   GL211534  36.902  14.631   9.147
  601POPC   C1A11535  36.717  14.423   8.658
  601POPC   D2A11536  36.630  14.520   8.226
  601POPC   C3A11537  36.930  14.245   8.029
  601POPC   C4A11538  36.856  14.144   7.641
  601POPC   C1B11539  37.072  14.814   8.764
  601POPC   C2B11540  37.120  14.626   8.353
  601POPC   C3B11541  37.018  14.735   7.906
  601POPC   C4B11542  37.015  14.577   7.449
  602POPC   NC311543  38.628  12.013   9.483
  602POPC   PO411544  38.125  12.433   9.408
  602POPC   GL111545  38.455  12.312   9.070
  602POPC   GL211546  38.626  11.966   8.988
  602POPC   C1A11547  38.568  12.325   8.615
  602POPC   D2A11548  38.621  12.124   8.192
  602POPC   C3A11549  38.393  12.208   7.820
  602POPC   C4A11550  38.393  12.450   7.464
  602POPC   C1B11551  38.311  11.805   8.740
  602POPC   C2B11552  38.337  11.677   8.329
  602POPC   C3B11553  38.393  11.712   7.931
  602POPC   C4B11554  38.706  11.817   7.667
  603POPC   NC311555  28.891  18.820   9.309
  603POPC   PO411556  28.343  18.443   9.543
  603POPC   GL111557  28.348  18.379   9.115
  603POPC   GL211558  28.690  18.297   9.111
  603POPC   C1A11559  28.424  18.342   8.657
  603POPC   D2A11560  28.212  18.097   8.340
  603POPC   C3A11561  28.167  18.246   7.916
  603POPC   C4A11562  28.067  18.208   7.470
  603POPC   C1B11563  28.923  18.473   8.744
  603POPC   C2B11564  28.813  18.537   8.329
  603POPC   C3B11565  28.704  18.767   7.978
  603POPC   C4B11566  28.412  18.643   7.707
  604POPC   NC311567  25.789  42.911   9.638
  604POPC   PO411568  26.255  43.318   9.416
  604POPC   GL111569  26.209  43.263   9.026
  604POPC   GL211570  25.884  43.088   9.035
  604POPC   C1A11571  26.146  43.336   8.621
  604POPC   D2A11572  25.884  43.240   8.313
  604POPC   C3A11573  26.210  43.268   8.028
  604POPC   C4A11574  26.080  43.398   7.658
  604POPC   C1B11575  26.096  42.842   8.690
  604POPC   C2B11576  26.126  42.799   8.228
  604POPC   C3B11577  25.861  42.934   7.863
  604POPC   C4B11578  25.753  43.057   7.414
  605POPC   NC311579  31.288  39.779   9.329
  605POPC   PO411580  31.097  39.166   9.665
  605POPC   GL111581  31.265  39.082   9.222
  605POPC   GL211582  31.508  39.336   9.181
  605POPC   C1A11583  31.424  39.005   8.767
  605POPC   D2A11584  31.709  39.191   8.439
  605POPC   C3A11585  31.689  39.154   8.003
  605POPC   C4A11586  31.510  39.108   7.607
  605POPC   C1B11587  31.463  39.510   8.756
  605POPC   C2B11588  31.495  39.649   8.310
  605POPC   C3B11589  31.364  39.555   7.905
  605POPC   C4B11590  31.302  39.559   7.456
  606POPC   NC311591  11.621  24.818   9.740
  606POPC   PO411592  11.940  24.183   9.566
  606POPC   GL111593  11.997  24.229   9.132
  606POPC   GL211594  12.263  24.471   9.071
  606POPC   C1A11595  11.925  24.342   8.698
  606POPC   D2A11596  12.003  24.677   8.420
  606POPC   C3A11597  12.212  24.563   8.059
  606POPC   C4A11598  12.044  24.368   7.714
  606POPC   C1B11599  12.357  24.089   8.794
  606POPC   C2B11600  12.467  24.067   8.365
  606POPC   C3B11601  12.376  24.023   7.908
  606POPC   C4B11602  12.463  24.131   7.464
  607POPC   NC311603   2.420   9.417   9.694
  607POPC   PO411604   2.419   8.754   9.467
  607POPC   GL111605   2.743   8.866   9.134
  607POPC   GL211606   2.808   9.202   9.053
  607POPC   C1A11607   3.018   8.907   8.726
  607POPC   D2A11608   2.776   8.895   8.360
  607POPC   C3A11609   2.975   8.849   7.992
  607POPC   C4A11610   2.823   8.835   7.582
  607POPC   C1B11611   2.786   9.371   8.624
  607POPC   C2B11612   2.780   9.374   8.173
  607POPC   C3B11613   2.906   9.301   7.772
  607POPC   C4B11614   3.006   9.260   7.325
  608POPC   NC311615  28.326  10.883   9.737
  608POPC   PO411616  27.997  11.520   9.634
  608POPC   GL111617  28.162  11.590   9.192
  608POPC   GL211618  28.491  11.662   9.159
  608POPC   C1A11619  28.139  11.361   8.806
  608POPC   D2A11620  28.154  11.178   8.426
  608POPC   C3A11621  28.079  11.463   8.121
  608POPC   C4A11622  28.321  11.306   7.818
  608POPC   C1B11623  28.595  11.574   8.731
  608POPC   C2B11624  28.580  11.407   8.301
  608POPC   C3B11625  28.648  11.658   7.912
  608POPC   C4B11626  28.401  11.716   7.530
  609POPC   NC311627  33.616  29.779   9.770
  609POPC   PO411628  34.271  30.119   9.675
  609POPC   GL111629  33.943  30.044   9.301
  609POPC   GL211630  33.776  29.686   9.273
  609POPC   C1A11631  33.838  29.988   8.817
  609POPC   D2A11632  33.497  29.797   8.502
  609POPC   C3A11633  33.623  29.706   8.070
  609POPC   C4A11634  33.775  29.948   7.708
  609POPC   C1B11635  33.743  29.504   8.842
  609POPC   C2B11636  33.952  29.568   8.436
  609POPC   C3B11637  34.005  29.385   8.006
  609POPC   C4B11638  33.804  29.442   7.649
  610POPC   NC311639  18.776  24.697   9.487
  610POPC   PO411640  19.383  24.391   9.457
  610POPC   GL111641  19.089  24.494   9.147
  610POPC   GL211642  18.845  24.253   9.181
  610POPC   C1A11643  18.847  24.562   8.769
  610POPC   D2A11644  19.043  24.692   8.416
  610POPC   C3A11645  18.857  24.630   8.024
  610POPC   C4A11646  19.038  24.720   7.641
  610POPC   C1B11647  19.135  24.131   8.786
  610POPC   C2B11648  18.977  24.190   8.359
  610POPC   C3B11649  19.077  24.149   7.934
  610POPC   C4B11650  18.735  24.255   7.682
  611POPC   NC311651   7.895  39.718   9.697
  611POPC   PO411652   7.296  40.009   9.425
  611POPC   GL111653   7.492  39.826   9.144
  611POPC   GL211654   7.225  39.691   9.009
  611POPC   C1A11655   7.605  39.907   8.707
  611POPC   D2A11656   7.579  40.199   8.371
  611POPC   C3A11657   7.571  40.042   7.963
  611POPC   C4A11658   7.552  39.602   7.870
  611POPC   C1B11659   7.095  40.027   8.768
  611POPC   C2B11660   7.051  40.188   8.356
  611POPC   C3B11661   7.068  39.903   7.985
  611POPC   C4B11662   7.229  39.931   7.573
  612POPC   NC311663  26.958  16.321   9.406
  612POPC   PO411664  27.134  15.733   9.699
  612POPC   GL111665  26.937  15.806   9.245
  612POPC   GL211666  26.596  15.980   9.211
  612POPC   C1A11667  27.041  16.055   8.831
  612POPC   D2A11668  26.820  16.288   8.494
  612POPC   C3A11669  26.954  16.159   8.072
  612POPC   C4A11670  26.878  16.133   7.623
  612POPC   C1B11671  26.627  15.776   8.797
  612POPC   C2B11672  26.774  15.748   8.355
  612POPC   C3B11673  26.584  15.844   7.936
  612POPC   C4B11674  26.594  15.536   7.652
  613POPC   NC311675  41.850  21.980   9.425
  613POPC   PO411676  41.258  22.365   9.297
  613POPC   GL111677  41.301  22.076   9.016
  613POPC   GL211678  41.632  22.110   8.987
  613POPC   C1A11679  41.304  22.170   8.582
  613POPC   D2A11680  41.376  22.060   8.155
  613POPC   C3A11681  41.605  22.384   7.949
  613POPC   C4A11682  41.672  22.403   7.520
  613POPC   C1B11683  41.624  21.775   8.702
  613POPC   C2B11684  41.912  21.618   8.418
  613POPC   C3B11685  41.727  21.694   8.073
  613POPC   C4B11686  41.649  21.923   7.738
  614POPC   NC311687  41.760  13.441   9.661
  614POPC   PO411688  41.409  13.846   9.324
  614POPC   GL111689  41.494  13.527   9.062
  614POPC   GL211690  41.779  13.353   9.159
  614POPC   C1A11691  41.680  13.665   8.677
  614POPC   D2A11692  42.004  13.664   8.400
  614POPC   C3A11693  41.770  13.742   8.062
  614POPC   C4A11694  41.717  13.848   7.668
  614POPC   C1B11695  41.733  13.160   8.755
  614POPC   C2B11696  41.699  13.260   8.334
  614POPC   C3B11697  41.625  13.186   7.913
  614POPC   C4B11698  41.734  13.366   7.511
  615POPC   NC311699  41.467  28.160   9.230
  615POPC   PO411700  40.905  28.293   9.569
  615POPC   GL111701  40.645  28.336   9.216
  615POPC   GL211702  40.920  28.460   9.008
  615POPC   C1A11703  40.453  28.326   8.827
  615POPC   D2A11704  40.644  28.481   8.478
  615POPC   C3A11705  40.541  28.395   8.061
  615POPC   C4A11706  40.793  28.417   7.691
  615POPC   C1B11707  41.185  28.441   8.618
  615POPC   C2B11708  41.053  28.347   8.192
  615POPC   C3B11709  41.246  28.601   7.897
  615POPC   C4B11710  41.140  28.772   7.537
  616POPC   NC311711   0.152  27.374   9.422
  616POPC   PO411712  44.367  27.565   9.458
  616POPC   GL111713  44.625  27.514   9.127
  616POPC   GL211714  44.915  27.693   9.113
  616POPC   C1A11715  44.711  27.446   8.695
  616POPC   D2A11716  44.590  27.653   8.336
  616POPC   C3A11717  44.696  27.385   8.014
  616POPC   C4A11718  44.857  27.445   7.652
  616POPC   C1B11719  44.813  27.928   8.766
  616POPC   C2B11720   0.063  27.939   8.377
  616POPC   C3B11721  44.876  27.897   7.991
  616POPC   C4B11722  44.994  27.914   7.610
  617POPC   NC311723  17.632  15.468   9.581
  617POPC   PO411724  17.071  15.188   9.289
  617POPC   GL111725  17.372  15.031   9.067
  617POPC   GL211726  17.636  15.266   9.070
  617POPC   C1A11727  17.412  14.981   8.636
  617POPC   D2A11728  17.615  15.139   8.285
  617POPC   C3A11729  17.292  15.177   8.006
  617POPC   C4A11730  17.030  14.947   7.731
  617POPC   C1B11731  17.708  15.495   8.670
  617POPC   C2B11732  17.552  15.678   8.270
  617POPC   C3B11733  17.420  15.637   7.831
  617POPC   C4B11734  17.450  15.300   7.532
  618POPC   NC311735  40.464  14.837   9.783
  618POPC   PO411736  40.607  14.281   9.368
  618POPC   GL111737  40.768  14.459   9.051
  618POPC   GL211738  40.964  14.696   9.229
  618POPC   C1A11739  40.676  14.534   8.623
  618POPC   D2A11740  40.695  14.658   8.168
  618POPC   C3A11741  40.703  14.319   7.807
  618POPC   C4A11742  40.771  14.238   7.331
  618POPC   C1B11743  41.148  14.705   8.801
  618POPC   C2B11744  41.259  14.692   8.349
  618POPC   C3B11745  41.151  14.551   7.922
  618POPC   C4B11746  40.964  14.701   7.526
  619POPC   NC311747  26.374   6.848   9.350
  619POPC   PO411748  25.819   6.455   9.470
  619POPC   GL111749  26.030   6.430   9.103
  619POPC   GL211750  26.039   6.781   8.992
  619POPC   C1A11751  25.854   6.452   8.676
  619POPC   D2A11752  25.963   6.762   8.391
  619POPC   C3A11753  25.752   6.619   8.038
  619POPC   C4A11754  25.783   6.758   7.658
  619POPC   C1B11755  26.383   6.629   8.720
  619POPC   C2B11756  26.508   6.803   8.315
  619POPC   C3B11757  26.248   6.749   7.932
  619POPC   C4B11758  26.255   6.600   7.488
  620POPC   NC311759   0.592  42.568   9.356
  620POPC   PO411760   0.118  41.996   9.379
  620POPC   GL111761   0.239  42.324   9.074
  620POPC   GL211762   0.593  42.251   8.954
  620POPC   C1A11763   0.255  42.488   8.662
  620POPC   D2A11764   0.497  42.374   8.302
  620POPC   C3A11765   0.258  42.346   7.933
  620POPC   C4A11766   0.237  42.501   7.535
  620POPC   C1B11767   0.753  42.621   8.692
  620POPC   C2B11768   0.799  42.798   8.241
  620POPC   C3B11769   0.759  42.512   7.877
  620POPC   C4B11770   0.757  42.043   7.884
  621POPC   NC311771  28.914   1.866   9.481
  621POPC   PO411772  29.500   2.220   9.504
  621POPC   GL111773  29.324   1.973   9.183
  621POPC   GL211774  29.510   1.679   9.040
  621POPC   C1A11775  29.100   2.151   8.823
  621POPC   D2A11776  28.960   2.016   8.436
  621POPC   C3A11777  28.953   2.220   8.054
  621POPC   C4A11778  29.202   2.106   7.706
  621POPC   C1B11779  29.080   1.649   8.820
  621POPC   C2B11780  29.005   1.520   8.376
  621POPC   C3B11781  29.156   1.553   7.939
  621POPC   C4B11782  29.031   1.662   7.522
  622POPC   NC311783   9.370  10.467   9.437
  622POPC   PO411784   8.787  10.786   9.410
  622POPC   GL111785   8.961  10.694   9.093
  622POPC   GL211786   8.891  10.349   9.097
  622POPC   C1A11787   8.831  10.713   8.694
  622POPC   D2A11788   8.821  10.480   8.339
  622POPC   C3A11789   8.815  10.770   8.018
  622POPC   C4A11790   8.648  10.830   7.656
  622POPC   C1B11791   9.141  10.320   8.753
  622POPC   C2B11792   9.355  10.536   8.425
  622POPC   C3B11793   9.233  10.481   8.020
  622POPC   C4B11794   8.893  10.216   7.865
  623POPC   NC311795  27.335  18.903   9.366
  623POPC   PO411796  27.892  19.285   9.512
  623POPC   GL111797  27.723  19.395   9.106
  623POPC   GL211798  27.378  19.341   9.085
  623POPC   C1A11799  27.770  19.244   8.690
  623POPC   D2A11800  27.962  19.053   8.355
  623POPC   C3A11801  27.799  19.237   8.029
  623POPC   C4A11802  27.592  19.386   7.676
  623POPC   C1B11803  27.321  19.015   8.747
  623POPC   C2B11804  27.467  18.912   8.354
  623POPC   C3B11805  27.344  19.034   7.968
  623POPC   C4B11806  27.531  18.856   7.648
  624POPC   NC311807  44.164  43.464   9.561
  624POPC   PO411808  43.711  44.057   9.550
  624POPC   GL111809  43.837  43.916   9.132
  624POPC   GL211810  44.036  43.600   9.107
  624POPC   C1A11811  43.657  43.902   8.717
  624POPC   D2A11812  43.581  43.699   8.318
  624POPC   C3A11813  43.566  43.857   7.876
  624POPC   C4A11814  43.529  43.681   7.443
  624POPC   C1B11815  44.220  43.794   8.799
  624POPC   C2B11816  44.069  43.874   8.429
  624POPC   C3B11817  44.024  43.633   8.063
  624POPC   C4B11818  44.025  43.735   7.645
  625POPC   NC311819  37.794   4.814   9.625
  625POPC   PO411820  37.783   5.397   9.802
  625POPC   GL111821  37.715   5.295   9.353
  625POPC   GL211822  37.493   4.996   9.230
  625POPC   C1A11823  37.789   5.277   8.906
  625POPC   D2A11824  38.009   5.015   8.641
  625POPC   C3A11825  37.878   5.020   8.224
  625POPC   C4A11826  37.984   5.063   7.822
  625POPC   C1B11827  37.514   4.777   8.804
  625POPC   C2B11828  37.476   4.707   8.324
  625POPC   C3B11829  37.517   4.809   7.860
  625POPC   C4B11830  37.401   4.644   7.444
  626POPC   NC311831   1.570  18.426   9.516
  626POPC   PO411832   2.216  18.586   9.506
  626POPC   GL111833   2.155  18.226   9.209
  626POPC   GL211834   1.807  18.118   9.190
  626POPC   C1A11835   2.110  18.046   8.798
  626POPC   D2A11836   2.102  18.306   8.476
  626POPC   C3A11837   2.098  18.262   8.091
  626POPC   C4A11838   2.272  18.356   7.704
  626POPC   C1B11839   1.715  18.393   8.826
  626POPC   C2B11840   1.698  18.574   8.396
  626POPC   C3B11841   1.593  18.284   8.051
  626POPC   C4B11842   1.829  18.128   7.685
  627POPC   NC311843   4.597   8.874   9.699
  627POPC   PO411844   5.227   8.988   9.565
  627POPC   GL111845   5.091   8.999   9.162
  627POPC   GL211846   5.289   8.757   9.059
  627POPC   C1A11847   5.234   9.173   8.772
  627POPC   D2A11848   5.448   9.111   8.368
  627POPC   C3A11849   5.127   9.111   8.034
  627POPC   C4A11850   5.003   9.004   7.634
  627POPC   C1B11851   5.392   8.617   8.660
  627POPC   C2B11852   5.183   8.652   8.270
  627POPC   C3B11853   5.370   8.672   7.876
  627POPC   C4B11854   5.520   8.459   7.490
  628POPC   NC311855  43.347  31.058   9.543
  628POPC   PO411856  42.869  30.652   9.410
  628POPC   GL111857  43.056  30.872   9.090
  628POPC   GL211858  43.405  30.858   9.096
  628POPC   C1A11859  43.008  30.783   8.665
  628POPC   D2A11860  42.851  30.547   8.335
  628POPC   C3A11861  43.043  30.698   7.969
  628POPC   C4A11862  42.998  31.066   7.780
  628POPC   C1B11863  43.434  30.544   8.805
  628POPC   C2B11864  43.436  30.690   8.413
  628POPC   C3B11865  43.529  30.831   8.054
  628POPC   C4B11866  43.530  30.516   7.779
  629POPC   NC311867  41.208   4.466   9.310
  629POPC   PO411868  40.566   4.595   9.555
  629POPC   GL111869  40.722   4.374   9.177
  629POPC   GL211870  40.891   4.052   9.269
  629POPC   C1A11871  40.893   4.472   8.752
  629POPC   D2A11872  41.030   4.822   8.507
  629POPC   C3A11873  41.022   4.657   8.099
  629POPC   C4A11874  41.188   4.423   7.756
  629POPC   C1B11875  40.763   3.985   8.838
  629POPC   C2B11876  40.916   4.070   8.433
  629POPC   C3B11877  41.058   3.985   8.045
  629POPC   C4B11878  40.877   4.028   7.663
  630POPC   NC311879  19.600  35.944  10.197
  630POPC   PO411880  19.968  35.990   9.601
  630POPC   GL111881  19.874  36.082   9.188
  630POPC   GL211882  19.528  36.129   9.107
  630POPC   C1A11883  20.104  35.959   8.820
  630POPC   D2A11884  20.242  36.035   8.417
  630POPC   C3A11885  20.051  36.023   8.046
  630POPC   C4A11886  20.084  36.349   7.801
  630POPC   C1B11887  19.721  36.333   8.757
  630POPC   C2B11888  19.811  36.397   8.326
  630POPC   C3B11889  19.575  36.271   7.958
  630POPC   C4B11890  19.316  36.187   7.583
  631POPC   NC311891   1.212  38.827   9.597
  631POPC   PO411892   1.036  39.467   9.394
  631POPC   GL111893   1.273  39.363   9.067
  631POPC   GL211894   1.164  39.005   9.065
  631POPC   C1A11895   1.175  39.289   8.650
  631POPC   D2A11896   0.920  39.003   8.408
  631POPC   C3A11897   1.013  39.194   8.045
  631POPC   C4A11898   1.269  39.453   7.746
  631POPC   C1B11899   1.346  38.811   8.636
  631POPC   C2B11900   1.349  38.775   8.202
  631POPC   C3B11901   1.362  38.921   7.784
  631POPC   C4B11902   1.567  38.694   7.465
  632POPC   NC311903  36.316  44.364   9.382
  632POPC   PO411904  35.832  44.847   9.429
  632POPC   GL111905  36.099  44.760   9.095
  632POPC   GL211906  36.018  44.402   8.993
  632POPC   C1A11907  36.180  44.778   8.656
  632POPC   D2A11908  36.168  44.633   8.234
  632POPC   C3A11909  35.942  44.938   7.929
  632POPC   C4A11910  35.767   0.107   7.515
  632POPC   C1B11911  36.259  44.205   8.703
  632POPC   C2B11912  36.067  44.088   8.323
  632POPC   C3B11913  35.843  44.301   8.019
  632POPC   C4B11914  36.127  44.515   7.728
  633POPC   NC311915  36.658  18.555   9.402
  633POPC   PO411916  37.013  18.005   9.454
  633POPC   GL111917  36.918  18.225   9.094
  633POPC   GL211918  37.051  18.575   9.045
  633POPC   C1A11919  37.022  18.180   8.690
  633POPC   D2A11920  36.859  18.033   8.322
  633POPC   C3A11921  36.981  18.222   7.908
  633POPC   C4A11922  36.714  18.267   7.535
  633POPC   C1B11923  36.722  18.598   8.722
  633POPC   C2B11924  36.767  18.540   8.278
  633POPC   C3B11925  36.712  18.657   7.853
  633POPC   C4B11926  37.123  18.686   7.624
  634POPC   NC311927  22.193  18.571   9.693
  634POPC   PO411928  21.805  18.030   9.459
  634POPC   GL111929  22.002  18.078   9.095
  634POPC   GL211930  22.303  18.200   9.173
  634POPC   C1A11931  21.835  18.261   8.717
  634POPC   D2A11932  22.018  18.313   8.337
  634POPC   C3A11933  22.181  18.044   8.074
  634POPC   C4A11934  22.029  18.274   7.708
  634POPC   C1B11935  22.343  18.307   8.732
  634POPC   C2B11936  22.513  18.404   8.335
  634POPC   C3B11937  22.299  18.607   7.996
  634POPC   C4B11938  22.467  18.750   7.595
  635POPC   NC311939   1.073   8.015   9.221
  635POPC   PO411940   1.438   8.576   9.536
  635POPC   GL111941   1.464   8.352   9.137
  635POPC   GL211942   1.145   8.482   9.047
  635POPC   C1A11943   1.367   8.179   8.673
  635POPC   D2A11944   1.073   8.019   8.320
  635POPC   C3A11945   1.277   7.975   7.910
  635POPC   C4A11946   1.547   7.733   7.684
  635POPC   C1B11947   0.872   8.432   8.655
  635POPC   C2B11948   0.830   8.446   8.178
  635POPC   C3B11949   1.033   8.407   7.782
  635POPC   C4B11950   1.407   8.517   7.556
  636POPC   NC311951  13.959  14.174   9.518
  636POPC   PO411952  14.624  14.387   9.652
  636POPC   GL111953  14.537  14.427   9.213
  636POPC   GL211954  14.172  14.499   9.148
  636POPC   C1A11955  14.593  14.196   8.811
  636POPC   D2A11956  14.710  14.306   8.406
  636POPC   C3A11957  14.623  14.118   8.020
  636POPC   C4A11958  14.471  14.345   7.676
  636POPC   C1B11959  14.081  14.381   8.724
  636POPC   C2B11960  14.188  14.307   8.297
  636POPC   C3B11961  14.019  14.454   7.891
  636POPC   C4B11962  14.058  14.435   7.408
  637POPC   NC311963  39.049  26.654   9.690
  637POPC   PO411964  39.563  27.070   9.463
  637POPC   GL111965  39.234  26.998   9.150
  637POPC   GL211966  39.224  26.637   9.177
  637POPC   C1A11967  39.204  27.132   8.702
  637POPC   D2A11968  39.367  27.142   8.264
  637POPC   C3A11969  39.106  26.979   7.946
  637POPC   C4A11970  38.840  26.649   7.777
  637POPC   C1B11971  39.388  26.680   8.742
  637POPC   C2B11972  39.162  26.672   8.363
  637POPC   C3B11973  39.311  26.503   7.991
  637POPC   C4B11974  39.534  26.290   7.684
  638POPC   NC311975  44.763  26.520   9.631
  638POPC   PO411976  44.733  27.212   9.553
  638POPC   GL111977  44.667  26.977   9.187
  638POPC   GL211978  44.935  27.138   9.037
  638POPC   C1A11979  44.661  26.706   8.789
  638POPC   D2A11980  44.497  26.619   8.347
  638POPC   C3A11981  44.531  26.878   7.973
  638POPC   C4A11982  44.596  26.584   7.710
  638POPC   C1B11983   0.057  27.053   8.687
  638POPC   C2B11984  44.909  26.937   8.333
  638POPC   C3B11985   0.049  27.031   7.960
  638POPC   C4B11986  44.903  26.949   7.593
  639POPC   NC311987  18.096  43.676   9.452
  639POPC   PO411988  18.726  43.770   9.354
  639POPC   GL111989  18.383  43.977   9.112
  639POPC   GL211990  18.024  44.120   9.130
  639POPC   C1A11991  18.390  44.138   8.715
  639POPC   D2A11992  18.155  44.201   8.327
  639POPC   C3A11993  18.372  44.109   7.976
  639POPC   C4A11994  18.382  43.779   7.687
  639POPC   C1B11995  17.945  43.893   8.799
  639POPC   C2B11996  17.759  43.907   8.437
  639POPC   C3B11997  17.947  43.772   8.057
  639POPC   C4B11998  17.925  44.034   7.726
  640POPC   NC311999   3.572  31.055   9.381
  640POPC   PO412000   4.120  30.850   9.608
  640POPC   GL112001   3.852  30.679   9.166
  640POPC   GL212002   3.454  30.604   9.146
  640POPC   C1A12003   3.687  30.565   8.694
  640POPC   D2A12004   3.581  30.725   8.242
  640POPC   C3A12005   3.626  30.513   7.827
  640POPC   C4A12006   3.730  30.724   7.422
  640POPC   C1B12007   3.268  30.876   8.788
  640POPC   C2B12008   3.196  31.053   8.371
  640POPC   C3B12009   3.053  30.873   7.956
  640POPC   C4B12010   3.216  30.660   7.535
  641POPC   NC312011  24.561  41.052   9.254
  641POPC   PO412012  24.190  41.503   9.618
  641POPC   GL112013  24.388  41.766   9.249
  641POPC   GL212014  24.654  41.561   9.124
  641POPC   C1A12015  24.416  41.891   8.775
  641POPC   D2A12016  24.225  41.698   8.387
  641POPC   C3A12017  24.326  41.778   7.950
  641POPC   C4A12018  24.263  41.436   7.650
  641POPC   C1B12019  24.882  41.710   8.752
  641POPC   C2B12020  24.746  41.651   8.305
  641POPC   C3B12021  24.506  41.325   8.091
  641POPC   C4B12022  24.652  41.119   7.697
  642POPC   NC312023   4.044   8.361   9.432
  642POPC   PO412024   4.679   8.343   9.704
  642POPC   GL112025   4.496   8.275   9.243
  642POPC   GL212026   4.450   7.997   9.097
  642POPC   C1A12027   4.335   8.371   8.791
  642POPC   D2A12028   4.165   8.179   8.392
  642POPC   C3A12029   4.388   8.266   7.996
  642POPC   C4A12030   4.560   8.290   7.543
  642POPC   C1B12031   4.053   7.932   8.874
  642POPC   C2B12032   3.751   7.912   8.528
  642POPC   C3B12033   3.775   7.960   8.099
  642POPC   C4B12034   4.085   7.935   7.782
  643POPC   NC312035  26.175  34.825   9.417
  643POPC   PO412036  26.381  34.245   9.346
  643POPC   GL112037  26.001  34.487   9.081
  643POPC   GL212038  25.808  34.860   9.050
  643POPC   C1A12039  26.035  34.669   8.641
  643POPC   D2A12040  26.337  34.856   8.338
  643POPC   C3A12041  26.274  34.810   7.890
  643POPC   C4A12042  26.035  34.504   7.636
  643POPC   C1B12043  25.792  35.119   8.624
  643POPC   C2B12044  25.887  35.051   8.164
  643POPC   C3B12045  25.846  34.974   7.702
  643POPC   C4B12046  26.051  34.901   7.287
  644POPC   NC312047  23.962  13.809   9.283
  644POPC   PO412048  23.581  14.289   9.537
  644POPC   GL112049  23.594  14.187   9.137
  644POPC   GL212050  23.755  14.513   9.077
  644POPC   C1A12051  23.435  14.342   8.739
  644POPC   D2A12052  23.545  14.601   8.380
  644POPC   C3A12053  23.611  14.352   8.024
  644POPC   C4A12054  23.639  14.147   7.617
  644POPC   C1B12055  24.113  14.680   8.843
  644POPC   C2B12056  24.112  14.869   8.454
  644POPC   C3B12057  23.935  14.792   8.076
  644POPC   C4B12058  23.947  14.559   7.709
  645POPC   NC312059  25.869  35.774   9.491
  645POPC   PO412060  25.808  35.077   9.522
  645POPC   GL112061  25.783  35.365   9.172
  645POPC   GL212062  26.137  35.411   9.230
  645POPC   C1A12063  25.940  35.596   8.784
  645POPC   D2A12064  25.777  35.588   8.352
  645POPC   C3A12065  25.959  35.504   7.911
  645POPC   C4A12066  25.979  35.406   7.443
  645POPC   C1B12067  26.240  35.184   8.842
  645POPC   C2B12068  26.238  35.359   8.410
  645POPC   C3B12069  26.424  35.281   8.008
  645POPC   C4B12070  26.414  35.158   7.547
  646POPC   NC312071  30.238  30.472   9.571
  646POPC   PO412072  30.130  31.106   9.382
  646POPC   GL112073  30.157  30.755   9.141
  646POPC   GL212074  29.873  30.543   9.157
  646POPC   C1A12075  30.187  30.601   8.741
  646POPC   D2A12076  30.033  30.584   8.338
  646POPC   C3A12077  30.122  30.949   8.098
  646POPC   C4A12078  30.118  30.772   7.699
  646POPC   C1B12079  29.682  30.614   8.724
  646POPC   C2B12080  29.634  30.924   8.382
  646POPC   C3B12081  29.664  30.795   7.953
  646POPC   C4B12082  29.682  30.983   7.537
  647POPC   NC312083  18.750   3.128   9.334
  647POPC   PO412084  18.028   3.133   9.330
  647POPC   GL112085  18.276   2.904   9.021
  647POPC   GL212086  18.550   2.651   9.109
  647POPC   C1A12087  18.573   2.980   8.685
  647POPC   D2A12088  18.787   2.939   8.308
  647POPC   C3A12089  18.650   3.091   7.916
  647POPC   C4A12090  18.312   3.052   7.616
  647POPC   C1B12091  18.448   2.479   8.711
  647POPC   C2B12092  18.180   2.719   8.432
  647POPC   C3B12093  18.281   2.732   8.016
  647POPC   C4B12094  18.361   2.346   7.826
  648POPC   NC312095  36.436  27.037   9.484
  648POPC   PO412096  37.091  26.923   9.414
  648POPC   GL112097  36.805  27.119   9.142
  648POPC   GL212098  36.662  26.828   9.061
  648POPC   C1A12099  36.688  27.202   8.701
  648POPC   D2A12100  36.877  26.976   8.357
  648POPC   C3A12101  36.787  26.929   7.927
  648POPC   C4A12102  37.197  26.885   7.726
  648POPC   C1B12103  37.026  26.770   8.801
  648POPC   C2B12104  37.140  26.485   8.524
  648POPC   C3B12105  37.058  26.508   8.106
  648POPC   C4B12106  36.956  26.455   7.687
  649POPC   NC312107  21.357   6.433   9.263
  649POPC   PO412108  21.660   7.032   9.381
  649POPC   GL112109  21.665   6.758   9.026
  649POPC   GL212110  21.328   6.838   8.954
  649POPC   C1A12111  21.582   6.496   8.646
  649POPC   D2A12112  21.408   6.620   8.237
  649POPC   C3A12113  21.500   6.445   7.830
  649POPC   C4A12114  21.235   6.337   7.477
  649POPC   C1B12115  21.070   6.613   8.633
  649POPC   C2B12116  20.880   6.556   8.219
  649POPC   C3B12117  21.058   6.712   7.830
  649POPC   C4B12118  21.401   6.909   7.622
  650POPC   NC312119   9.113  31.599   9.535
  650POPC   PO412120   8.925  30.925   9.656
  650POPC   GL112121   8.764  31.296   9.287
  650POPC   GL212122   9.013  31.508   9.060
  650POPC   C1A12123   8.611  31.398   8.815
  650POPC   D2A12124   8.810  31.243   8.450
  650POPC   C3A12125   8.752  31.396   8.039
  650POPC   C4A12126   8.895  31.499   7.631
  650POPC   C1B12127   9.295  31.592   8.741
  650POPC   C2B12128   9.368  31.451   8.348
  650POPC   C3B12129   9.316  31.398   7.940
  650POPC   C4B12130   9.383  31.719   7.630
  651POPC   NC312131   2.921  26.338   9.378
  651POPC   PO412132   2.583  26.799   9.803
  651POPC   GL112133   2.620  26.746   9.299
  651POPC   GL212134   2.596  26.486   9.041
  651POPC   C1A12135   2.611  26.962   8.882
  651POPC   D2A12136   2.482  26.740   8.508
  651POPC   C3A12137   2.604  26.958   8.141
  651POPC   C4A12138   2.697  26.893   7.726
  651POPC   C1B12139   2.933  26.565   8.722
  651POPC   C2B12140   3.142  26.244   8.483
  651POPC   C3B12141   3.283  26.210   8.067
  651POPC   C4B12142   3.146  26.348   7.673
  652POPC   NC312143   6.776  40.441   9.540
  652POPC   PO412144   6.443  41.007   9.355
  652POPC   GL112145   6.621  40.697   9.121
  652POPC   GL212146   6.389  40.429   9.121
  652POPC   C1A12147   6.802  40.662   8.731
  652POPC   D2A12148   7.004  40.837   8.393
  652POPC   C3A12149   6.888  40.701   7.996
  652POPC   C4A12150   6.811  40.799   7.564
  652POPC   C1B12151   6.285  40.616   8.708
  652POPC   C2B12152   6.470  40.660   8.291
  652POPC   C3B12153   6.413  40.562   7.825
  652POPC   C4B12154   6.348  40.698   7.410
  653POPC   NC312155   9.918   7.689   9.795
  653POPC   PO412156   9.790   7.106   9.496
  653POPC   GL112157   9.753   7.344   9.067
  653POPC   GL212158   9.468   7.571   8.960
  653POPC   C1A12159   9.872   7.244   8.660
  653POPC   D2A12160   9.808   7.010   8.318
  653POPC   C3A12161   9.572   7.231   8.030
  653POPC   C4A12162   9.766   7.407   7.746
  653POPC   C1B12163   9.755   7.741   8.683
  653POPC   C2B12164   9.840   7.611   8.284
  653POPC   C3B12165   9.787   7.863   7.969
  653POPC   C4B12166   9.525   7.822   7.609
  654POPC   NC312167  20.633  35.051   9.318
  654POPC   PO412168  20.424  34.506   9.704
  654POPC   GL112169  20.476  34.516   9.246
  654POPC   GL212170  20.240  34.740   9.109
  654POPC   C1A12171  20.771  34.495   8.860
  654POPC   D2A12172  20.959  34.474   8.420
  654POPC   C3A12173  20.742  34.457   8.006
  654POPC   C4A12174  20.918  34.530   7.594
  654POPC   C1B12175  20.336  34.697   8.697
  654POPC   C2B12176  20.490  34.765   8.311
  654POPC   C3B12177  20.376  34.872   7.910
  654POPC   C4B12178  20.408  34.558   7.588
  655POPC   NC312179  23.694  15.639   9.442
  655POPC   PO412180  23.926  16.252   9.631
  655POPC   GL112181  23.804  16.107   9.167
  655POPC   GL212182  23.537  15.857   9.002
  655POPC   C1A12183  23.578  16.285   8.776
  655POPC   D2A12184  23.335  16.052   8.483
  655POPC   C3A12185  23.476  16.094   8.038
  655POPC   C4A12186  23.748  16.297   7.711
  655POPC   C1B12187  23.753  15.712   8.665
  655POPC   C2B12188  23.974  15.663   8.296
  655POPC   C3B12189  23.979  15.422   7.907
  655POPC   C4B12190  23.892  15.768   7.608
  656POPC   NC312191  11.257  19.912   9.559
  656POPC   PO412192  11.627  19.393   9.287
  656POPC   GL112193  11.451  19.738   9.116
  656POPC   GL212194  11.115  19.761   9.095
  656POPC   C1A12195  11.450  20.063   8.827
  656POPC   D2A12196  11.559  20.005   8.428
  656POPC   C3A12197  11.214  20.060   8.163
  656POPC   C4A12198  11.158  19.789   7.822
  656POPC   C1B12199  11.030  19.807   8.672
  656POPC   C2B12200  11.105  19.585   8.308
  656POPC   C3B12201  11.212  19.293   8.020
  656POPC   C4B12202  11.083  19.354   7.601
  657POPC   NC312203   8.717  29.858   9.497
  657POPC   PO412204   9.261  30.254   9.595
  657POPC   GL112205   9.204  30.245   9.138
  657POPC   GL212206   8.929  30.048   9.085
  657POPC   C1A12207   9.269  30.019   8.736
  657POPC   D2A12208   9.054  29.756   8.423
  657POPC   C3A12209   9.233  29.666   8.038
  657POPC   C4A12210   9.368  30.078   7.988
  657POPC   C1B12211   8.707  30.084   8.706
  657POPC   C2B12212   8.568  29.905   8.322
  657POPC   C3B12213   8.814  29.964   7.951
  657POPC   C4B12214   8.597  30.193   7.648
  658POPC   NC312215  36.560   7.649   9.342
  658POPC   PO412216  37.115   7.241   9.498
  658POPC   GL112217  37.001   7.414   9.157
  658POPC   GL212218  37.187   7.739   9.108
  658POPC   C1A12219  36.965   7.229   8.758
  658POPC   D2A12220  37.148   7.224   8.369
  658POPC   C3A12221  36.863   7.311   8.048
  658POPC   C4A12222  37.035   7.226   7.677
  658POPC   C1B12223  36.940   7.759   8.796
  658POPC   C2B12224  36.824   7.650   8.446
  658POPC   C3B12225  37.094   7.748   8.168
  658POPC   C4B12226  37.048   7.739   7.761
  659POPC   NC312227   1.413  12.759   9.572
  659POPC   PO412228   0.946  12.352   9.742
  659POPC   GL112229   0.881  12.426   9.236
  659POPC   GL212230   1.150  12.734   9.034
  659POPC   C1A12231   0.863  12.434   8.768
  659POPC   D2A12232   1.094  12.782   8.502
  659POPC   C3A12233   1.086  12.717   8.048
  659POPC   C4A12234   0.933  12.730   7.627
  659POPC   C1B12235   1.497  12.974   8.739
  659POPC   C2B12236   1.450  13.184   8.351
  659POPC   C3B12237   1.486  13.108   7.937
  659POPC   C4B12238   1.489  12.764   7.714
  660POPC   NC312239  15.304  39.302   9.517
  660POPC   PO412240  14.831  38.896   9.536
  660POPC   GL112241  14.955  39.158   9.167
  660POPC   GL212242  14.841  39.509   9.230
  660POPC   C1A12243  15.331  39.154   8.888
  660POPC   D2A12244  15.471  38.966   8.459
  660POPC   C3A12245  15.587  39.280   8.121
  660POPC   C4A12246  15.362  39.516   7.760
  660POPC   C1B12247  14.839  39.477   8.783
  660POPC   C2B12248  15.062  39.291   8.462
  660POPC   C3B12249  15.111  39.133   8.055
  660POPC   C4B12250  14.977  39.201   7.654
  661POPC   NC312251  34.702   3.679   9.469
  661POPC   PO412252  34.098   3.451   9.762
  661POPC   GL112253  34.265   3.501   9.295
  661POPC   GL212254  34.379   3.822   9.071
  661POPC   C1A12255  34.210   3.393   8.847
  661POPC   D2A12256  34.359   3.494   8.479
  661POPC   C3A12257  34.573   3.259   8.188
  661POPC   C4A12258  34.479   3.387   7.754
  661POPC   C1B12259  34.801   3.845   8.835
  661POPC   C2B12260  34.829   3.656   8.434
  661POPC   C3B12261  34.615   3.750   8.085
  661POPC   C4B12262  34.776   3.803   7.727
  662POPC   NC312263  23.801  30.806   9.521
  662POPC   PO412264  24.128  30.245   9.266
  662POPC   GL112265  23.820  30.562   9.071
  662POPC   GL212266  23.931  30.937   9.049
  662POPC   C1A12267  23.478  30.828   8.871
  662POPC   D2A12268  23.397  30.948   8.444
  662POPC   C3A12269  23.686  30.780   8.137
  662POPC   C4A12270  23.528  30.666   7.739
  662POPC   C1B12271  23.945  30.835   8.625
  662POPC   C2B12272  24.213  30.927   8.284
  662POPC   C3B12273  24.218  30.843   7.860
  662POPC   C4B12274  24.018  30.556   7.591
  663POPC   NC312275  11.640  17.375   9.538
  663POPC   PO412276  11.033  17.687   9.480
  663POPC   GL112277  11.320  17.592   9.175
  663POPC   GL212278  11.550  17.846   9.277
  663POPC   C1A12279  11.353  17.408   8.765
  663POPC   D2A12280  11.572  17.452   8.347
  663POPC   C3A12281  11.333  17.352   7.957
  663POPC   C4A12282  11.465  17.140   7.582
  663POPC   C1B12283  11.591  17.872   8.810
  663POPC   C2B12284  11.751  17.946   8.370
  663POPC   C3B12285  11.481  17.862   8.000
  663POPC   C4B12286  11.515  17.915   7.514
  664POPC   NC312287  35.104  18.075   9.652
  664POPC   PO412288  35.669  17.652   9.621
  664POPC   GL112289  35.449  17.417   9.280
  664POPC   GL212290  35.210  17.649   9.269
  664POPC   C1A12291  35.401  17.303   8.852
  664POPC   D2A12292  35.554  17.519   8.471
  664POPC   C3A12293  35.368  17.390   8.089
  664POPC   C4A12294  35.508  17.356   7.664
  664POPC   C1B12295  35.304  17.842   8.857
  664POPC   C2B12296  35.379  18.010   8.447
  664POPC   C3B12297  35.475  17.899   8.034
  664POPC   C4B12298  35.150  17.890   7.720
  665POPC   NC312299   6.956   7.691   9.565
  665POPC   PO412300   6.758   8.223   9.468
  665POPC   GL112301   6.665   8.332   9.061
  665POPC   GL212302   6.967   8.530   8.948
  665POPC   C1A12303   6.375   8.311   8.710
  665POPC   D2A12304   6.527   8.503   8.336
  665POPC   C3A12305   6.470   8.298   7.966
  665POPC   C4A12306   6.375   8.085   7.620
  665POPC   C1B12307   6.897   8.231   8.608
  665POPC   C2B12308   6.918   8.156   8.168
  665POPC   C3B12309   6.909   8.143   7.728
  665POPC   C4B12310   7.150   8.019   7.386
  666POPC   NC312311  42.451   0.732   9.438
  666POPC   PO412312  42.691   0.100   9.576
  666POPC   GL112313  42.465   0.277   9.214
  666POPC   GL212314  42.581   0.544   8.992
  666POPC   C1A12315  42.143   0.320   8.877
  666POPC   D2A12316  42.188   0.152   8.461
  666POPC   C3A12317  42.224   0.422   8.121
  666POPC   C4A12318  41.980   0.266   7.814
  666POPC   C1B12319  42.551   0.586   8.532
  666POPC   C2B12320  42.723   0.541   8.093
  666POPC   C3B12321  42.781   0.622   7.642
  666POPC   C4B12322  42.621   0.737   7.187
  667POPC   NC312323  25.626  17.409   9.292
  667POPC   PO412324  25.120  17.845   9.403
  667POPC   GL112325  25.207  17.648   9.058
  667POPC   GL212326  25.095  17.321   9.180
  667POPC   C1A12327  25.216  17.701   8.616
  667POPC   D2A12328  24.911  17.648   8.347
  667POPC   C3A12329  25.007  17.568   7.966
  667POPC   C4A12330  25.357  17.564   7.793
  667POPC   C1B12331  25.229  17.225   8.761
  667POPC   C2B12332  25.250  17.260   8.303
  667POPC   C3B12333  25.331  17.076   7.908
  667POPC   C4B12334  24.937  17.136   7.678
  668POPC   NC312335   8.029  11.518   9.983
  668POPC   PO412336   7.490  11.229   9.556
  668POPC   GL112337   7.375  11.311   9.144
  668POPC   GL212338   7.494  11.047   9.062
  668POPC   C1A12339   7.188  11.218   8.715
  668POPC   D2A12340   6.993  11.029   8.358
  668POPC   C3A12341   7.177  11.254   8.024
  668POPC   C4A12342   7.331  11.440   7.653
  668POPC   C1B12343   7.630  10.936   8.687
  668POPC   C2B12344   7.585  11.167   8.333
  668POPC   C3B12345   7.640  11.050   7.897
  668POPC   C4B12346   7.750  11.014   7.464
  669POPC   NC312347  32.413   1.632   9.374
  669POPC   PO412348  31.831   1.193   9.508
  669POPC   GL112349  31.991   1.356   9.130
  669POPC   GL212350  32.096   1.029   9.015
  669POPC   C1A12351  32.054   1.380   8.659
  669POPC   D2A12352  32.093   1.080   8.327
  669POPC   C3A12353  32.129   1.321   7.961
  669POPC   C4A12354  32.474   1.566   7.806
  669POPC   C1B12355  32.472   1.068   8.722
  669POPC   C2B12356  32.580   1.272   8.324
  669POPC   C3B12357  32.608   1.091   7.925
  669POPC   C4B12358  32.371   1.150   7.540
  670POPC   NC312359  33.086  32.688   9.794
  670POPC   PO412360  32.767  32.092   9.504
  670POPC   GL112361  32.876  31.956   9.089
  670POPC   GL212362  32.617  31.808   8.943
  670POPC   C1A12363  33.052  32.137   8.713
  670POPC   D2A12364  33.307  32.211   8.370
  670POPC   C3A12365  33.200  32.231   7.924
  670POPC   C4A12366  33.286  32.570   7.622
  670POPC   C1B12367  32.545  32.143   8.620
  670POPC   C2B12368  32.751  32.236   8.222
  670POPC   C3B12369  32.744  32.027   7.808
  670POPC   C4B12370  32.535  31.964   7.387
  671POPC   NC312371  26.101   3.582   9.513
  671POPC   PO412372  26.248   3.027   9.634
  671POPC   GL112373  26.032   3.211   9.167
  671POPC   GL212374  26.074   3.602   9.008
  671POPC   C1A12375  25.821   3.255   8.724
  671POPC   D2A12376  25.991   3.136   8.314
  671POPC   C3A12377  26.049   3.349   7.912
  671POPC   C4A12378  26.114   3.446   7.468
  671POPC   C1B12379  25.886   3.768   8.609
  671POPC   C2B12380  25.793   3.671   8.183
  671POPC   C3B12381  25.872   3.815   7.749
  671POPC   C4B12382  25.795   3.920   7.321
  672POPC   NC312383  27.416   9.149   9.539
  672POPC   PO412384  27.888   8.749   9.684
  672POPC   GL112385  27.843   9.091   9.263
  672POPC   GL212386  27.546   9.139   9.060
  672POPC   C1A12387  27.948   9.098   8.799
  672POPC   D2A12388  27.704   8.901   8.480
  672POPC   C3A12389  27.777   8.954   8.046
  672POPC   C4A12390  27.621   8.787   7.674
  672POPC   C1B12391  27.353   9.242   8.653
  672POPC   C2B12392  27.271   9.085   8.239
  672POPC   C3B12393  27.268   9.151   7.806
  672POPC   C4B12394  27.292   9.057   7.366
  673POPC   NC312395   7.417   0.231   9.408
  673POPC   PO412396   7.702   0.729   9.567
  673POPC   GL112397   7.450   0.812   9.174
  673POPC   GL212398   7.140   0.602   9.154
  673POPC   C1A12399   7.478   0.644   8.733
  673POPC   D2A12400   7.494   0.224   8.476
  673POPC   C3A12401   7.723   0.324   8.068
  673POPC   C4A12402   7.573   0.434   7.639
  673POPC   C1B12403   7.046   0.400   8.751
  673POPC   C2B12404   7.097   0.568   8.331
  673POPC   C3B12405   7.225   0.270   8.036
  673POPC   C4B12406   7.132   0.119   7.659
  674POPC   NC312407  35.526  32.814   9.430
  674POPC   PO412408  35.050  33.355   9.437
  674POPC   GL112409  35.354  33.206   9.135
  674POPC   GL212410  35.342  32.846   8.955
  674POPC   C1A12411  35.504  33.276   8.739
  674POPC   D2A12412  35.508  33.006   8.396
  674POPC   C3A12413  35.375  33.137   8.023
  674POPC   C4A12414  35.486  33.183   7.626
  674POPC   C1B12415  35.785  32.777   8.759
  674POPC   C2B12416  35.907  32.723   8.291
  674POPC   C3B12417  35.711  32.767   7.856
  674POPC   C4B12418  35.755  32.837   7.379
  675POPC   NC312419  17.648  11.761   9.446
  675POPC   PO412420  17.289  12.311   9.381
  675POPC   GL112421  17.613  12.316   9.058
  675POPC   GL212422  17.740  11.976   9.003
  675POPC   C1A12423  17.642  12.259   8.600
  675POPC   D2A12424  17.422  12.078   8.250
  675POPC   C3A12425  17.539  12.291   7.888
  675POPC   C4A12426  17.386  12.286   7.437
  675POPC   C1B12427  17.980  11.838   8.637
  675POPC   C2B12428  17.888  11.846   8.209
  675POPC   C3B12429  17.609  11.658   7.921
  675POPC   C4B12430  17.272  11.851   7.760
  676POPC   NC312431  17.382  33.556   9.443
  676POPC   PO412432  17.201  34.256   9.355
  676POPC   GL112433  17.240  33.913   9.084
  676POPC   GL212434  17.593  33.858   9.091
  676POPC   C1A12435  17.313  33.961   8.660
  676POPC   D2A12436  17.057  34.034   8.291
  676POPC   C3A12437  17.324  34.051   7.964
  676POPC   C4A12438  17.373  33.735   7.682
  676POPC   C1B12439  17.779  33.544   8.814
  676POPC   C2B12440  17.774  33.384   8.385
  676POPC   C3B12441  17.754  33.569   7.984
  676POPC   C4B12442  17.914  33.834   7.691
  677POPC   NC312443   8.333  30.404   9.638
  677POPC   PO412444   8.175  29.778   9.570
  677POPC   GL112445   8.103  30.023   9.205
  677POPC   GL212446   8.426  30.117   9.133
  677POPC   C1A12447   8.022  30.009   8.744
  677POPC   D2A12448   8.043  30.251   8.347
  677POPC   C3A12449   8.152  30.030   7.972
  677POPC   C4A12450   8.036  30.063   7.535
  677POPC   C1B12451   8.420  29.692   8.912
  677POPC   C2B12452   8.184  29.494   8.578
  677POPC   C3B12453   8.287  29.495   8.124
  677POPC   C4B12454   8.450  29.689   7.722
  678POPC   NC312455  41.547   0.264   9.357
  678POPC   PO412456  41.971   0.779   9.437
  678POPC   GL112457  41.764   0.663   9.065
  678POPC   GL212458  41.437   0.746   9.161
  678POPC   C1A12459  41.651   0.376   8.708
  678POPC   D2A12460  41.730   0.316   8.270
  678POPC   C3A12461  41.473   0.141   7.956
  678POPC   C4A12462  41.543   0.274   7.549
  678POPC   C1B12463  41.375   0.822   8.737
  678POPC   C2B12464  41.191   0.838   8.337
  678POPC   C3B12465  41.393   0.646   7.997
  678POPC   C4B12466  41.458   0.803   7.614
  679POPC   NC312467  24.482  13.385   9.580
  679POPC   PO412468  24.190  14.034   9.613
  679POPC   GL112469  24.440  13.836   9.202
  679POPC   GL212470  24.392  13.457   9.091
  679POPC   C1A12471  24.532  13.837   8.778
  679POPC   D2A12472  24.399  13.971   8.382
  679POPC   C3A12473  24.650  13.865   8.037
  679POPC   C4A12474  24.439  13.773   7.686
  679POPC   C1B12475  24.475  13.338   8.662
  679POPC   C2B12476  24.499  13.419   8.224
  679POPC   C3B12477  24.361  13.297   7.799
  679POPC   C4B12478  24.160  13.288   7.381
  680POPC   NC312479  29.246  17.390   9.452
  680POPC   PO412480  29.393  18.062   9.523
  680POPC   GL112481  29.363  17.769   9.141
  680POPC   GL212482  29.013  17.706   9.099
  680POPC   C1A12483  29.385  17.508   8.748
  680POPC   D2A12484  29.533  17.415   8.308
  680POPC   C3A12485  29.225  17.485   7.942
  680POPC   C4A12486  29.343  17.729   7.572
  680POPC   C1B12487  28.885  17.498   8.679
  680POPC   C2B12488  28.763  17.504   8.241
  680POPC   C3B12489  28.716  17.399   7.798
  680POPC   C4B12490  28.820  17.340   7.366
  681POPC   NC312491  30.738  21.155   9.516
  681POPC   PO412492  31.019  21.739   9.576
  681POPC   GL112493  30.865  21.565   9.190
  681POPC   GL212494  30.493  21.424   9.156
  681POPC   C1A12495  30.733  21.658   8.770
  681POPC   D2A12496  30.503  21.424   8.452
  681POPC   C3A12497  30.634  21.505   8.038
  681POPC   C4A12498  30.947  21.633   7.732
  681POPC   C1B12499  30.744  21.155   8.865
  681POPC   C2B12500  30.802  20.961   8.495
  681POPC   C3B12501  30.668  21.000   8.097
  681POPC   C4B12502  30.782  21.131   7.728
  682POPC   NC312503  35.562   8.963   9.500
  682POPC   PO412504  36.183   8.917   9.484
  682POPC   GL112505  36.271   9.026   9.090
  682POPC   GL212506  35.964   8.864   9.023
  682POPC   C1A12507  36.355   9.140   8.697
  682POPC   D2A12508  36.355   8.904   8.366
  682POPC   C3A12509  36.252   9.071   8.033
  682POPC   C4A12510  36.303   8.888   7.675
  682POPC   C1B12511  35.907   8.791   8.654
  682POPC   C2B12512  35.832   8.884   8.284
  682POPC   C3B12513  35.888   8.721   7.908
  682POPC   C4B12514  35.728   8.961   7.576
  683POPC   NC312515  33.168  20.978   9.515
  683POPC   PO412516  33.334  21.625   9.412
  683POPC   GL112517  33.191  21.345   9.113
  683POPC   GL212518  32.838  21.396   9.052
  683POPC   C1A12519  33.152  21.400   8.666
  683POPC   D2A12520  33.110  21.798   8.486
  683POPC   C3A12521  33.029  21.845   8.059
  683POPC   C4A12522  33.126  21.592   7.700
  683POPC   C1B12523  32.656  21.395   8.594
  683POPC   C2B12524  32.813  21.398   8.135
  683POPC   C3B12525  32.745  21.252   7.661
  683POPC   C4B12526  32.725  20.962   7.228
  684POPC   NC312527  13.340   2.371   9.650
  684POPC   PO412528  13.950   2.483   9.485
  684POPC   GL112529  13.769   2.686   9.141
  684POPC   GL212530  13.503   2.496   9.051
  684POPC   C1A12531  13.779   2.970   8.792
  684POPC   D2A12532  13.989   3.060   8.392
  684POPC   C3A12533  13.721   3.063   8.018
  684POPC   C4A12534  13.557   2.858   7.609
  684POPC   C1B12535  13.800   2.458   8.668
  684POPC   C2B12536  13.878   2.333   8.241
  684POPC   C3B12537  13.836   2.491   7.806
  684POPC   C4B12538  13.882   2.572   7.322
  685POPC   NC312539  11.175  11.449   9.872
  685POPC   PO412540  11.608  10.988   9.747
  685POPC   GL112541  11.481  11.173   9.257
  685POPC   GL212542  11.486  11.484   9.129
  685POPC   C1A12543  11.141  11.277   8.852
  685POPC   D2A12544  11.099  11.064   8.438
  685POPC   C3A12545  11.228  11.193   8.018
  685POPC   C4A12546  11.638  11.233   7.858
  685POPC   C1B12547  11.639  11.520   8.764
  685POPC   C2B12548  11.486  11.470   8.393
  685POPC   C3B12549  11.165  11.650   8.198
  685POPC   C4B12550  11.111  11.640   7.793
  686POPC   NC312551  41.206  21.925   9.502
  686POPC   PO412552  41.737  21.540   9.547
  686POPC   GL112553  41.603  21.568   9.152
  686POPC   GL212554  41.244  21.547   9.147
  686POPC   C1A12555  41.782  21.294   8.814
  686POPC   D2A12556  41.622  21.145   8.403
  686POPC   C3A12557  41.884  21.216   8.044
  686POPC   C4A12558  41.753  21.386   7.666
  686POPC   C1B12559  41.273  21.365   8.746
  686POPC   C2B12560  41.285  21.561   8.345
  686POPC   C3B12561  41.314  21.382   7.942
  686POPC   C4B12562  41.291  21.579   7.552
  687POPC   NC312563  34.422  18.039   9.879
  687POPC   PO412564  34.893  18.538   9.733
  687POPC   GL112565  34.896  18.385   9.278
  687POPC   GL212566  34.903  18.040   9.195
  687POPC   C1A12567  34.637  18.402   8.874
  687POPC   D2A12568  34.396  18.408   8.469
  687POPC   C3A12569  34.627  18.393   8.034
  687POPC   C4A12570  34.596  18.505   7.607
  687POPC   C1B12571  34.562  17.895   9.004
  687POPC   C2B12572  34.559  17.866   8.588
  687POPC   C3B12573  34.499  17.933   8.181
  687POPC   C4B12574  34.537  17.933   7.734
  688POPC   NC312575  43.132  19.259   9.429
  688POPC   PO412576  43.097  18.559   9.492
  688POPC   GL112577  43.224  18.787   9.141
  688POPC   GL212578  42.901  18.915   9.070
  688POPC   C1A12579  43.213  18.894   8.695
  688POPC   D2A12580  43.346  19.170   8.414
  688POPC   C3A12581  43.320  19.009   8.034
  688POPC   C4A12582  43.085  19.042   7.667
  688POPC   C1B12583  42.849  19.255   8.738
  688POPC   C2B12584  42.964  19.519   8.412
  688POPC   C3B12585  42.936  19.390   8.003
  688POPC   C4B12586  42.863  19.515   7.574
  689POPC   NC312587  14.657  41.974   9.500
  689POPC   PO412588  13.915  42.007   9.629
  689POPC   GL112589  14.190  42.131   9.230
  689POPC   GL212590  14.485  42.315   9.166
  689POPC   C1A12591  14.225  42.154   8.760
  689POPC   D2A12592  14.633  42.158   8.569
  689POPC   C3A12593  14.651  42.229   8.105
  689POPC   C4A12594  14.542  42.049   7.696
  689POPC   C1B12595  14.428  42.608   8.845
  689POPC   C2B12596  14.429  42.588   8.404
  689POPC   C3B12597  14.185  42.691   8.030
  689POPC   C4B12598  14.457  42.553   7.707
  690POPC   NC312599  42.301  15.347   9.500
  690POPC   PO412600  42.743  14.863   9.460
  690POPC   GL112601  42.324  14.970   9.158
  690POPC   GL212602  42.141  15.348   9.041
  690POPC   C1A12603  42.145  14.962   8.728
  690POPC   D2A12604  42.365  15.044   8.364
  690POPC   C3A12605  42.238  14.939   8.020
  690POPC   C4A12606  42.373  15.018   7.673
  690POPC   C1B12607  42.253  15.468   8.652
  690POPC   C2B12608  42.072  15.438   8.243
  690POPC   C3B12609  42.286  15.478   7.826
  690POPC   C4B12610  42.063  15.305   7.392
  691POPC   NC312611  39.494  42.702   9.570
  691POPC   PO412612  39.688  42.146   9.574
  691POPC   GL112613  39.900  42.326   9.206
  691POPC   GL212614  40.189  42.096   9.140
  691POPC   C1A12615  39.798  42.456   8.776
  691POPC   D2A12616  39.975  42.576   8.369
  691POPC   C3A12617  39.745  42.486   7.995
  691POPC   C4A12618  39.842  42.664   7.602
  691POPC   C1B12619  40.292  42.293   8.722
  691POPC   C2B12620  40.323  42.170   8.284
  691POPC   C3B12621  40.372  42.035   7.866
  691POPC   C4B12622  40.075  42.143   7.541
  692POPC   NC312623  36.781  35.596   9.411
  692POPC   PO412624  37.482  35.692   9.269
  692POPC   GL112625  37.136  35.477   9.017
  692POPC   GL212626  36.765  35.328   8.983
  692POPC   C1A12627  37.015  35.509   8.588
  692POPC   D2A12628  36.791  35.292   8.280
  692POPC   C3A12629  36.933  35.373   7.883
  692POPC   C4A12630  37.172  35.395   7.530
  692POPC   C1B12631  36.911  35.012   8.705
  692POPC   C2B12632  37.085  34.863   8.354
  692POPC   C3B12633  36.865  34.841   7.989
  692POPC   C4B12634  36.923  34.949   7.592
  693POPC   NC312635  27.267   0.502   9.542
  693POPC   PO412636  27.807   0.259   9.408
  693POPC   GL112637  27.578   0.280   9.084
  693POPC   GL212638  27.565   0.605   9.114
  693POPC   C1A12639  27.754   0.303   8.678
  693POPC   D2A12640  27.701   0.562   8.337
  693POPC   C3A12641  27.712   0.231   8.066
  693POPC   C4A12642  27.932   0.173   7.693
  693POPC   C1B12643  27.381   0.644   8.767
  693POPC   C2B12644  27.345   0.913   8.469
  693POPC   C3B12645  27.213   0.760   8.131
  693POPC   C4B12646  27.467   0.609   7.828
  694POPC   NC312647  18.079  35.567   9.531
  694POPC   PO412648  18.663  35.167   9.541
  694POPC   GL112649  18.427  35.388   9.211
  694POPC   GL212650  18.155  35.141   9.134
  694POPC   C1A12651  18.126  35.559   8.861
  694POPC   D2A12652  17.934  35.443   8.447
  694POPC   C3A12653  18.215  35.500   8.075
  694POPC   C4A12654  18.248  35.626   7.647
  694POPC   C1B12655  18.469  35.184   8.760
  694POPC   C2B12656  18.659  35.117   8.362
  694POPC   C3B12657  18.419  35.013   8.009
  694POPC   C4B12658  18.402  35.147   7.593
  695POPC   NC312659  27.855  22.351   9.406
  695POPC   PO412660  27.471  21.873   9.706
  695POPC   GL112661  27.481  21.892   9.224
  695POPC   GL212662  27.449  22.253   9.094
  695POPC   C1A12663  27.467  21.843   8.775
  695POPC   D2A12664  27.783  21.871   8.459
  695POPC   C3A12665  27.725  22.134   8.103
  695POPC   C4A12666  27.615  22.231   7.657
  695POPC   C1B12667  27.772  22.334   8.733
  695POPC   C2B12668  27.818  22.579   8.333
  695POPC   C3B12669  27.865  22.589   7.906
  695POPC   C4B12670  27.840  22.685   7.471
  696POPC   NC312671  38.370  28.826   9.476
  696POPC   PO412672  38.763  29.394   9.592
  696POPC   GL112673  38.457  29.341   9.194
  696POPC   GL212674  38.245  29.063   9.061
  696POPC   C1A12675  38.356  29.469   8.778
  696POPC   D2A12676  38.453  29.686   8.406
  696POPC   C3A12677  38.367  29.479   8.022
  696POPC   C4A12678  38.206  29.092   7.833
  696POPC   C1B12679  38.572  29.001   8.772
  696POPC   C2B12680  38.640  29.195   8.402
  696POPC   C3B12681  38.773  29.155   8.005
  696POPC   C4B12682  38.672  28.843   7.734
  697POPC   NC312683  20.023  14.367   9.668
  697POPC   PO412684  19.593  14.581   9.241
  697POPC   GL112685  19.958  14.440   9.008
  697POPC   GL212686  20.194  14.238   9.181
  697POPC   C1A12687  19.943  14.365   8.551
  697POPC   D2A12688  19.688  14.440   8.171
  697POPC   C3A12689  19.821  14.623   7.759
  697POPC   C4A12690  20.038  14.723   7.355
  697POPC   C1B12691  20.225  13.993   8.784
  697POPC   C2B12692  19.979  13.877   8.382
  697POPC   C3B12693  19.865  14.021   7.929
  697POPC   C4B12694  20.036  14.229   7.540
  698POPC   NC312695  26.314  42.089   9.414
  698POPC   PO412696  25.979  42.663   9.316
  698POPC   GL112697  26.083  42.373   9.025
  698POPC   GL212698  25.855  42.083   9.115
  698POPC   C1A12699  25.938  42.371   8.599
  698POPC   D2A12700  25.640  42.239   8.291
  698POPC   C3A12701  25.876  42.423   7.966
  698POPC   C4A12702  26.307  42.529   7.822
  698POPC   C1B12703  26.025  41.909   8.746
  698POPC   C2B12704  26.289  42.012   8.412
  698POPC   C3B12705  26.165  42.021   8.002
  698POPC   C4B12706  26.081  42.111   7.579
  699POPC   NC312707  25.810  19.065   9.741
  699POPC   PO412708  26.283  18.663   9.383
  699POPC   GL112709  26.350  18.919   9.001
  699POPC   GL212710  26.314  19.229   9.182
  699POPC   C1A12711  26.092  19.116   8.657
  699POPC   D2A12712  25.846  18.912   8.339
  699POPC   C3A12713  26.022  18.758   7.967
  699POPC   C4A12714  25.890  19.002   7.632
  699POPC   C1B12715  26.490  19.423   8.823
  699POPC   C2B12716  26.444  19.350   8.385
  699POPC   C3B12717  26.137  19.265   8.055
  699POPC   C4B12718  26.109  19.463   7.673
  700POPC   NC312719  26.338  25.378   9.442
  700POPC   PO412720  25.954  24.761   9.515
  700POPC   GL112721  25.974  25.056   9.222
  700POPC   GL212722  25.748  25.340   9.321
  700POPC   C1A12723  26.231  25.083   8.849
  700POPC   D2A12724  26.047  25.148   8.463
  700POPC   C3A12725  26.100  25.467   8.176
  700POPC   C4A12726  26.039  25.239   7.803
  700POPC   C1B12727  25.827  25.415   8.881
  700POPC   C2B12728  25.583  25.499   8.526
  700POPC   C3B12729  25.563  25.523   8.089
  700POPC   C4B12730  25.802  25.682   7.785
  701POPC   NC312731  38.484  37.517   9.712
  701POPC   PO412732  38.769  36.921   9.468
  701POPC   GL112733  38.424  36.834   9.167
  701POPC   GL212734  38.154  37.097   9.016
  701POPC   C1A12735  38.391  36.721   8.726
  701POPC   D2A12736  38.233  36.919   8.348
  701POPC   C3A12737  38.474  36.908   7.978
  701POPC   C4A12738  38.606  37.182   7.653
  701POPC   C1B12739  37.873  37.193   8.633
  701POPC   C2B12740  37.844  37.224   8.174
  701POPC   C3B12741  38.050  37.135   7.792
  701POPC   C4B12742  38.215  36.821   7.543
  702POPC   NC312743  39.561  27.547   9.437
  702POPC   PO412744  38.930  27.775   9.322
  702POPC   GL112745  39.186  27.533   9.055
  702POPC   GL212746  39.540  27.399   8.964
  702POPC   C1A12747  39.165  27.633   8.650
  702POPC   D2A12748  39.026  27.513   8.320
  702POPC   C3A12749  39.205  27.665   8.017
  702POPC   C4A12750  39.026  27.608   7.644
  702POPC   C1B12751  39.561  27.859   8.845
  702POPC   C2B12752  39.540  28.104   8.457
  702POPC   C3B12753  39.600  28.006   8.032
  702POPC   C4B12754  39.480  27.847   7.632
  703POPC   NC312755  28.486  24.835   9.480
  703POPC   PO412756  28.097  24.348   9.484
  703POPC   GL112757  28.354  24.413   9.123
  703POPC   GL212758  28.281  24.090   8.997
  703POPC   C1A12759  28.750  24.307   8.879
  703POPC   D2A12760  28.876  24.306   8.408
  703POPC   C3A12761  28.566  24.471   8.112
  703POPC   C4A12762  28.488  24.336   7.692
  703POPC   C1B12763  28.356  24.317   8.581
  703POPC   C2B12764  28.113  24.608   8.336
  703POPC   C3B12765  28.064  24.479   7.935
  703POPC   C4B12766  28.116  24.031   7.849
  704POPC   NC312767  39.515   5.441   9.311
  704POPC   PO412768  38.981   5.060   9.523
  704POPC   GL112769  39.130   5.123   9.121
  704POPC   GL212770  39.013   5.452   9.157
  704POPC   C1A12771  39.172   4.992   8.680
  704POPC   D2A12772  39.002   4.767   8.317
  704POPC   C3A12773  38.957   5.027   7.943
  704POPC   C4A12774  39.325   5.206   7.781
  704POPC   C1B12775  39.082   5.511   8.752
  704POPC   C2B12776  39.136   5.688   8.371
  704POPC   C3B12777  38.974   5.574   7.985
  704POPC   C4B12778  38.906   5.403   7.589
  705POPC   NC312779  29.452  37.694   9.451
  705POPC   PO412780  28.866  38.112   9.504
  705POPC   GL112781  28.927  37.910   9.107
  705POPC   GL212782  29.016  37.561   9.168
  705POPC   C1A12783  29.153  37.926   8.693
  705POPC   D2A12784  29.330  37.685   8.325
  705POPC   C3A12785  29.328  37.867   7.921
  705POPC   C4A12786  29.362  37.521   7.671
  705POPC   C1B12787  29.123  37.412   8.740
  705POPC   C2B12788  28.862  37.474   8.357
  705POPC   C3B12789  28.924  37.552   7.911
  705POPC   C4B12790  28.935  37.358   7.479
  706POPC   NC312791  38.585   3.956   9.595
  706POPC   PO412792  38.150   4.519   9.494
  706POPC   GL112793  38.464   4.339   9.214
  706POPC   GL212794  38.414   4.002   9.075
  706POPC   C1A12795  38.660   4.349   8.808
  706POPC   D2A12796  38.628   4.339   8.401
  706POPC   C3A12797  38.848   4.126   8.108
  706POPC   C4A12798  38.627   4.240   7.759
  706POPC   C1B12799  38.218   4.098   8.631
  706POPC   C2B12800  38.258   4.069   8.128
  706POPC   C3B12801  38.280   3.890   7.648
  706POPC   C4B12802  38.069   3.954   7.228
  707POPC   NC312803   5.410  36.813   9.688
  707POPC   PO412804   5.892  36.802   9.195
  707POPC   GL112805   5.695  36.819   8.811
  707POPC   GL212806   5.656  36.483   8.853
  707POPC   C1A12807   5.773  37.046   8.441
  707POPC   D2A12808   6.051  37.329   8.248
  707POPC   C3A12809   6.127  37.147   7.902
  707POPC   C4A12810   5.715  36.984   7.830
  707POPC   C1B12811   6.126  36.610   8.656
  707POPC   C2B12812   6.240  36.768   8.298
  707POPC   C3B12813   6.079  36.633   7.913
  707POPC   C4B12814   5.706  36.382   7.846
  708POPC   NC312815  28.176  20.422   9.287
  708POPC   PO412816  28.630  20.799   9.484
  708POPC   GL112817  28.517  20.780   9.084
  708POPC   GL212818  28.186  20.932   9.100
  708POPC   C1A12819  28.524  20.490   8.729
  708POPC   D2A12820  28.282  20.488   8.337
  708POPC   C3A12821  28.520  20.571   7.990
  708POPC   C4A12822  28.520  20.369   7.611
  708POPC   C1B12823  28.122  20.806   8.714
  708POPC   C2B12824  28.066  20.964   8.331
  708POPC   C3B12825  28.020  20.746   7.952
  708POPC   C4B12826  27.919  20.925   7.576
  709POPC   NC312827  28.147  23.894   9.469
  709POPC   PO412828  28.527  23.306   9.454
  709POPC   GL112829  28.452  23.604   9.138
  709POPC   GL212830  28.098  23.553   9.087
  709POPC   C1A12831  28.487  23.747   8.703
  709POPC   D2A12832  28.285  23.883   8.334
  709POPC   C3A12833  28.616  23.958   8.084
  709POPC   C4A12834  28.611  23.794   7.710
  709POPC   C1B12835  27.957  23.783   8.734
  709POPC   C2B12836  27.793  23.663   8.376
  709POPC   C3B12837  27.964  23.564   8.032
  709POPC   C4B12838  28.166  23.546   7.660
  710POPC   NC312839   2.300  19.823   9.452
  710POPC   PO412840   1.697  20.142   9.356
  710POPC   GL112841   2.001  19.964   9.071
  710POPC   GL212842   1.815  19.663   8.950
  710POPC   C1A12843   2.159  19.884   8.648
  710POPC   D2A12844   2.095  19.476   8.438
  710POPC   C3A12845   1.956  19.618   8.027
  710POPC   C4A12846   2.104  19.971   7.799
  710POPC   C1B12847   1.646  20.039   8.727
  710POPC   C2B12848   1.547  20.166   8.356
  710POPC   C3B12849   1.612  20.002   7.951
  710POPC   C4B12850   1.619  19.914   7.525
  711POPC   NC312851  40.736  15.712   9.418
  711POPC   PO412852  40.697  16.410   9.241
  711POPC   GL112853  40.784  16.035   9.042
  711POPC   GL212854  41.151  15.977   9.150
  711POPC   C1A12855  40.767  15.717   8.704
  711POPC   D2A12856  40.545  15.694   8.294
  711POPC   C3A12857  40.819  15.636   7.913
  711POPC   C4A12858  40.847  15.854   7.509
  711POPC   C1B12859  41.144  16.100   8.703
  711POPC   C2B12860  41.143  15.883   8.302
  711POPC   C3B12861  41.220  16.105   7.925
  711POPC   C4B12862  40.947  16.344   7.681
  712POPC   NC312863  22.497  20.060   9.315
  712POPC   PO412864  21.954  19.655   9.457
  712POPC   GL112865  22.152  19.685   9.075
  712POPC   GL212866  21.992  19.995   9.070
  712POPC   C1A12867  22.219  19.873   8.637
  712POPC   D2A12868  22.409  19.737   8.237
  712POPC   C3A12869  22.156  19.700   7.852
  712POPC   C4A12870  22.269  19.884   7.439
  712POPC   C1B12871  21.808  20.193   8.753
  712POPC   C2B12872  21.805  20.072   8.367
  712POPC   C3B12873  22.062  20.173   8.064
  712POPC   C4B12874  21.951  20.207   7.663
  713POPC   NC312875  27.247  17.908   9.416
  713POPC   PO412876  26.636  18.084   9.576
  713POPC   GL112877  26.634  18.244   9.148
  713POPC   GL212878  26.966  18.207   9.097
  713POPC   C1A12879  26.631  18.419   8.732
  713POPC   D2A12880  26.655  18.283   8.310
  713POPC   C3A12881  26.556  18.556   7.968
  713POPC   C4A12882  26.752  18.397   7.619
  713POPC   C1B12883  27.241  18.063   8.759
  713POPC   C2B12884  27.336  18.147   8.333
  713POPC   C3B12885  27.242  17.952   7.958
  713POPC   C4B12886  27.214  18.191   7.615
  714POPC   NC312887  34.062   5.276   9.378
  714POPC   PO412888  34.519   4.958   9.762
  714POPC   GL112889  34.505   5.007   9.302
  714POPC   GL212890  34.329   4.718   9.225
  714POPC   C1A12891  34.503   5.283   8.888
  714POPC   D2A12892  34.387   5.447   8.447
  714POPC   C3A12893  34.708   5.312   8.130
  714POPC   C4A12894  34.527   5.229   7.716
  714POPC   C1B12895  34.605   4.765   8.854
  714POPC   C2B12896  34.537   4.954   8.467
  714POPC   C3B12897  34.545   4.840   8.039
  714POPC   C4B12898  34.837   4.655   7.822
  715POPC   NC312899   4.245  30.396   9.640
  715POPC   PO412900   4.769  30.801   9.380
  715POPC   GL112901   4.384  30.688   9.172
  715POPC   GL212902   4.222  31.012   9.020
  715POPC   C1A12903   4.199  30.556   8.773
  715POPC   D2A12904   4.053  30.294   8.412
  715POPC   C3A12905   4.115  30.445   7.992
  715POPC   C4A12906   4.308  30.645   7.627
  715POPC   C1B12907   4.566  30.917   8.714
  715POPC   C2B12908   4.464  30.780   8.298
  715POPC   C3B12909   4.100  30.929   8.098
  715POPC   C4B12910   4.025  31.051   7.714
  716POPC   NC312911  27.869  11.081   9.495
  716POPC   PO412912  27.343  11.405   9.366
  716POPC   GL112913  27.624  11.273   9.074
  716POPC   GL212914  27.563  10.926   9.117
  716POPC   C1A12915  27.657  11.414   8.654
  716POPC   D2A12916  27.664  11.155   8.311
  716POPC   C3A12917  27.616  11.306   7.931
  716POPC   C4A12918  27.281  11.167   7.673
  716POPC   C1B12919  27.855  10.931   8.752
  716POPC   C2B12920  27.938  10.712   8.348
  716POPC   C3B12921  28.003  10.947   7.968
  716POPC   C4B12922  27.784  11.002   7.566
  717POPC   NC312923  43.776  21.747   9.473
  717POPC   PO412924  43.932  22.402   9.420
  717POPC   GL112925  43.704  22.346   9.020
  717POPC   GL212926  43.483  22.079   9.123
  717POPC   C1A12927  43.818  22.173   8.628
  717POPC   D2A12928  44.255  22.081   8.464
  717POPC   C3A12929  44.217  21.966   8.060
  717POPC   C4A12930  44.185  22.258   7.751
  717POPC   C1B12931  43.292  22.028   8.705
  717POPC   C2B12932  43.392  22.125   8.281
  717POPC   C3B12933  43.737  22.189   7.986
  717POPC   C4B12934  43.769  22.136   7.496
  718POPC   NC312935  28.534  38.938   9.320
  718POPC   PO412936  28.361  39.674   9.289
  718POPC   GL112937  28.481  39.379   9.017
  718POPC   GL212938  28.753  39.587   8.944
  718POPC   C1A12939  28.272  39.146   8.683
  718POPC   D2A12940  28.024  39.192   8.308
  718POPC   C3A12941  28.027  39.084   7.888
  718POPC   C4A12942  28.333  39.083   7.554
  718POPC   C1B12943  28.715  39.350   8.538
  718POPC   C2B12944  28.500  39.285   8.123
  718POPC   C3B12945  28.578  39.542   7.778
  718POPC   C4B12946  28.725  39.494   7.398
  719POPC   NC312947  31.240  19.183   9.415
  719POPC   PO412948  31.744  18.817   9.576
  719POPC   GL112949  31.620  18.916   9.165
  719POPC   GL212950  31.317  18.783   9.123
  719POPC   C1A12951  31.511  19.152   8.775
  719POPC   D2A12952  31.704  19.091   8.362
  719POPC   C3A12953  31.548  19.167   7.960
  719POPC   C4A12954  31.272  19.300   7.628
  719POPC   C1B12955  31.402  18.675   8.730
  719POPC   C2B12956  31.253  18.856   8.354
  719POPC   C3B12957  31.306  18.723   7.936
  719POPC   C4B12958  31.501  18.765   7.527
  720POPC   NC312959  34.008  36.340   9.471
  720POPC   PO412960  33.504  35.898   9.649
  720POPC   GL112961  33.699  36.001   9.241
  720POPC   GL212962  34.025  35.876   9.156
  720POPC   C1A12963  33.743  36.199   8.818
  720POPC   D2A12964  33.902  36.063   8.402
  720POPC   C3A12965  33.801  36.146   8.012
  720POPC   C4A12966  33.445  35.953   7.886
  720POPC   C1B12967  34.241  36.013   8.779
  720POPC   C2B12968  34.409  36.013   8.378
  720POPC   C3B12969  34.337  35.792   8.014
  720POPC   C4B12970  34.129  35.878   7.643
  721POPC   NC312971  28.328   6.739   9.719
  721POPC   PO412972  28.627   6.186   9.519
  721POPC   GL112973  28.293   6.449   9.276
  721POPC   GL212974  28.169   6.831   9.256
  721POPC   C1A12975  28.348   6.547   8.832
  721POPC   D2A12976  28.556   6.714   8.455
  721POPC   C3A12977  28.418   6.477   8.111
  721POPC   C4A12978  28.499   6.309   7.702
  721POPC   C1B12979  27.969   6.921   8.896
  721POPC   C2B12980  28.109   7.002   8.483
  721POPC   C3B12981  28.031   6.830   8.079
  721POPC   C4B12982  28.316   6.802   7.723
  722POPC   NC312983  39.383  44.261   9.252
  722POPC   PO412984  39.432  43.724   9.710
  722POPC   GL112985  39.223  43.783   9.229
  722POPC   GL212986  39.208  43.470   9.025
  722POPC   C1A12987  39.370  43.884   8.748
  722POPC   D2A12988  39.214  43.695   8.384
  722POPC   C3A12989  39.372  43.792   7.978
  722POPC   C4A12990  39.416  44.079   7.637
  722POPC   C1B12991  38.885  43.370   8.722
  722POPC   C2B12992  38.721  43.612   8.371
  722POPC   C3B12993  38.881  43.526   7.975
  722POPC   C4B12994  38.995  43.780   7.631
  723POPC   NC312995  15.760   2.338   9.579
  723POPC   PO412996  16.250   1.884   9.369
  723POPC   GL112997  16.000   2.188   9.164
  723POPC   GL212998  15.671   2.031   9.171
  723POPC   C1A12999  15.832   2.319   8.784
  723POPC   D2A13000  15.967   2.077   8.432
  723POPC   C3A13001  15.895   2.124   7.995
  723POPC   C4A13002  16.215   1.889   7.792
  723POPC   C1B13003  15.823   1.755   8.834
  723POPC   C2B13004  15.703   1.656   8.415
  723POPC   C3B13005  15.838   1.602   8.020
  723POPC   C4B13006  15.613   1.659   7.650
  724POPC   NC313007  36.881  26.521   9.414
  724POPC   PO413008  36.831  25.957   9.600
  724POPC   GL113009  36.720  25.906   9.182
  724POPC   GL213010  36.537  26.197   9.111
  724POPC   C1A13011  36.896  25.928   8.764
  724POPC   D2A13012  36.681  26.017   8.381
  724POPC   C3A13013  36.891  26.031   8.002
  724POPC   C4A13014  36.947  25.970   7.572
  724POPC   C1B13015  36.664  26.395   8.775
  724POPC   C2B13016  36.645  26.528   8.396
  724POPC   C3B13017  36.546  26.438   8.019
  724POPC   C4B13018  36.460  26.531   7.606
  725POPC   NC313019  23.455  42.366   9.555
  725POPC   PO413020  24.104  42.495   9.525
  725POPC   GL113021  23.781  42.420   9.110
  725POPC   GL213022  23.407  42.462   9.081
  725POPC   C1A13023  23.589  42.292   8.669
  725POPC   D2A13024  23.689  42.393   8.269
  725POPC   C3A13025  23.626  42.124   7.874
  725POPC   C4A13026  23.522  42.018   7.419
  725POPC   C1B13027  23.275  42.740   8.783
  725POPC   C2B13028  23.268  42.675   8.376
  725POPC   C3B13029  23.337  42.561   7.971
  725POPC   C4B13030  23.193  42.304   7.705
  726POPC   NC313031  12.366  37.999   9.587
  726POPC   PO413032  12.900  38.551   9.479
  726POPC   GL113033  12.766  38.208   9.224
  726POPC   GL213034  12.764  38.474   8.988
  726POPC   C1A13035  12.714  38.002   8.798
  726POPC   D2A13036  12.628  38.112   8.348
  726POPC   C3A13037  12.923  38.312   8.061
  726POPC   C4A13038  12.834  38.448   7.668
  726POPC   C1B13039  12.925  38.714   8.662
  726POPC   C2B13040  13.048  38.826   8.269
  726POPC   C3B13041  13.251  38.675   7.902
  726POPC   C4B13042  13.223  38.757   7.477
  727POPC   NC313043  21.828  26.750   9.637
  727POPC   PO413044  22.552  26.721   9.622
  727POPC   GL113045  22.245  26.639   9.259
  727POPC   GL213046  21.902  26.772   9.116
  727POPC   C1A13047  22.350  26.784   8.855
  727POPC   D2A13048  22.130  26.949   8.535
  727POPC   C3A13049  22.289  26.788   8.180
  727POPC   C4A13050  22.381  26.959   7.788
  727POPC   C1B13051  21.735  26.678   8.693
  727POPC   C2B13052  21.655  26.903   8.296
  727POPC   C3B13053  21.881  26.935   7.928
  727POPC   C4B13054  21.984  26.516   7.785
  728POPC   NC313055  24.434   7.106   9.479
  728POPC   PO413056  24.758   7.730   9.255
  728POPC   GL113057  24.435   7.489   9.157
  728POPC   GL213058  24.224   7.742   9.286
  728POPC   C1A13059  24.435   7.232   8.777
  728POPC   D2A13060  24.688   7.292   8.390
  728POPC   C3A13061  24.520   7.331   7.961
  728POPC   C4A13062  24.767   7.419   7.543
  728POPC   C1B13063  24.171   7.676   8.791
  728POPC   C2B13064  24.119   7.472   8.399
  728POPC   C3B13065  24.123   7.676   8.000
  728POPC   C4B13066  24.396   7.735   7.661
  729POPC   NC313067  32.269  43.746   9.878
  729POPC   PO413068  32.789  44.020   9.488
  729POPC   GL113069  32.829  43.909   9.084
  729POPC   GL213070  32.676  43.600   9.147
  729POPC   C1A13071  33.218  43.866   8.816
  729POPC   D2A13072  33.228  43.729   8.403
  729POPC   C3A13073  32.929  43.955   8.191
  729POPC   C4A13074  32.853  44.041   7.754
  729POPC   C1B13075  32.865  43.523   8.740
  729POPC   C2B13076  32.805  43.450   8.313
  729POPC   C3B13077  33.024  43.516   7.940
  729POPC   C4B13078  32.823  43.552   7.566
  730POPC   NC313079  17.575   3.865   9.588
  730POPC   PO413080  17.120   4.347   9.621
  730POPC   GL113081  17.385   4.332   9.272
  730POPC   GL213082  17.140   4.510   9.115
  730POPC   C1A13083  17.649   4.294   8.885
  730POPC   D2A13084  17.645   4.041   8.492
  730POPC   C3A13085  17.787   4.154   8.082
  730POPC   C4A13086  17.494   3.984   7.773
  730POPC   C1B13087  17.137   4.255   8.747
  730POPC   C2B13088  17.051   4.403   8.358
  730POPC   C3B13089  17.432   4.524   8.194
  730POPC   C4B13090  17.660   4.578   7.796
  731POPC   NC313091   0.994  25.467   9.293
  731POPC   PO413092   1.370  24.905   9.481
  731POPC   GL113093   1.370  25.151   9.101
  731POPC   GL213094   1.448  25.527   9.084
  731POPC   C1A13095   1.253  25.094   8.686
  731POPC   D2A13096   0.892  25.209   8.421
  731POPC   C3A13097   1.111  25.334   8.052
  731POPC   C4A13098   1.112  25.286   7.622
  731POPC   C1B13099   1.464  25.813   8.752
  731POPC   C2B13100   1.384  25.623   8.394
  731POPC   C3B13101   1.416  25.739   7.987
  731POPC   C4B13102   1.571  25.418   7.773
  732POPC   NC313103  39.142  28.855   9.553
  732POPC   PO413104  39.487  29.384   9.430
  732POPC   GL113105  39.277  29.078   9.124
  732POPC   GL213106  38.897  29.071   9.162
  732POPC   C1A13107  39.140  28.921   8.730
  732POPC   D2A13108  39.196  29.097   8.323
  732POPC   C3A13109  39.179  28.804   7.998
  732POPC   C4A13110  39.131  28.678   7.612
  732POPC   C1B13111  38.902  29.405   8.837
  732POPC   C2B13112  38.969  29.578   8.410
  732POPC   C3B13113  39.175  29.520   7.998
  732POPC   C4B13114  39.169  29.194   7.676
  733POPC   NC313115  35.548  15.583   9.586
  733POPC   PO413116  35.729  14.953   9.582
  733POPC   GL113117  35.382  15.130   9.279
  733POPC   GL213118  35.245  15.466   9.170
  733POPC   C1A13119  35.182  15.018   8.889
  733POPC   D2A13120  35.441  15.044   8.549
  733POPC   C3A13121  35.371  15.002   8.116
  733POPC   C4A13122  35.568  15.278   7.838
  733POPC   C1B13123  35.029  15.505   8.763
  733POPC   C2B13124  35.003  15.289   8.360
  733POPC   C3B13125  35.067  15.409   7.933
  733POPC   C4B13126  35.045  15.733   7.635
  734POPC   NC313127  43.047  31.999   9.700
  734POPC   PO413128  43.385  32.602   9.676
  734POPC   GL113129  43.051  32.384   9.331
  734POPC   GL213130  42.981  31.992   9.211
  734POPC   C1A13131  42.930  32.445   8.880
  734POPC   D2A13132  42.756  32.606   8.475
  734POPC   C3A13133  42.963  32.527   8.072
  734POPC   C4A13134  43.242  32.275   7.807
  734POPC   C1B13135  42.766  31.986   8.831
  734POPC   C2B13136  42.689  32.040   8.426
  734POPC   C3B13137  42.849  32.026   8.027
  734POPC   C4B13138  42.647  32.052   7.679
  735POPC   NC313139  24.993  24.141   9.526
  735POPC   PO413140  25.231  24.699   9.449
  735POPC   GL113141  25.244  24.575   9.058
  735POPC   GL213142  25.236  24.244   9.104
  735POPC   C1A13143  25.409  24.478   8.692
  735POPC   D2A13144  25.258  24.641   8.341
  735POPC   C3A13145  25.448  24.516   7.993
  735POPC   C4A13146  25.233  24.731   7.685
  735POPC   C1B13147  24.931  24.139   8.821
  735POPC   C2B13148  24.995  24.226   8.405
  735POPC   C3B13149  24.954  24.403   7.989
  735POPC   C4B13150  25.012  24.205   7.618
  736POPC   NC313151  31.819  41.406   9.413
  736POPC   PO413152  31.112  41.318   9.320
  736POPC   GL113153  31.429  41.420   9.041
  736POPC   GL213154  31.463  41.754   9.137
  736POPC   C1A13155  31.350  41.537   8.618
  736POPC   D2A13156  31.096  41.449   8.231
  736POPC   C3A13157  31.374  41.388   7.877
  736POPC   C4A13158  31.793  41.476   7.780
  736POPC   C1B13159  31.132  41.964   8.837
  736POPC   C2B13160  31.022  42.129   8.410
  736POPC   C3B13161  31.091  41.942   8.029
  736POPC   C4B13162  31.255  41.829   7.646
  737POPC   NC313163  10.279   9.360   9.331
  737POPC   PO413164  10.819   9.376   9.715
  737POPC   GL113165  10.786   9.282   9.218
  737POPC   GL213166  10.506   8.969   9.113
  737POPC   C1A13167  10.851   9.103   8.776
  737POPC   D2A13168  10.557   8.908   8.465
  737POPC   C3A13169  10.562   9.034   8.030
  737POPC   C4A13170  10.718   9.267   7.691
  737POPC   C1B13171  10.206   8.662   8.902
  737POPC   C2B13172  10.163   8.538   8.456
  737POPC   C3B13173  10.312   8.571   8.039
  737POPC   C4B13174  10.422   8.648   7.599
  738POPC   NC313175  25.482  28.410   9.784
  738POPC   PO413176  26.137  28.188   9.427
  738POPC   GL113177  26.009  28.437   9.132
  738POPC   GL213178  26.198  28.672   9.045
  738POPC   C1A13179  25.832  28.438   8.724
  738POPC   D2A13180  25.627  28.454   8.348
  738POPC   C3A13181  25.828  28.278   8.001
  738POPC   C4A13182  26.016  28.502   7.688
  738POPC   C1B13183  26.328  28.254   8.795
  738POPC   C2B13184  26.164  28.214   8.397
  738POPC   C3B13185  26.354  28.299   8.036
  738POPC   C4B13186  26.510  28.148   7.696
  739POPC   NC313187  42.835  22.072   9.570
  739POPC   PO413188  42.085  22.376   9.519
  739POPC   GL113189  42.183  22.283   9.129
  739POPC   GL213190  42.477  22.038   9.160
  739POPC   C1A13191  42.081  22.082   8.758
  739POPC   D2A13192  41.829  22.133   8.395
  739POPC   C3A13193  42.066  22.117   8.057
  739POPC   C4A13194  42.130  22.374   7.730
  739POPC   C1B13195  42.555  22.313   8.793
  739POPC   C2B13196  42.385  22.410   8.378
  739POPC   C3B13197  42.607  22.351   7.953
  739POPC   C4B13198  42.928  22.227   7.621
  740POPC   NC313199   0.760  43.541   9.199
  740POPC   PO413200   1.056  43.008   9.439
  740POPC   GL113201   1.193  43.062   9.010
  740POPC   GL213202   1.081  43.331   8.872
  740POPC   C1A13203   1.522  43.092   8.725
  740POPC   D2A13204   1.720  42.887   8.375
  740POPC   C3A13205   1.590  43.030   7.947
  740POPC   C4A13206   1.701  43.028   7.445
  740POPC   C1B13207   1.136  43.276   8.447
  740POPC   C2B13208   1.108  43.186   8.046
  740POPC   C3B13209   1.134  42.864   7.750
  740POPC   C4B13210   1.225  42.848   7.324
  741POPC   NC313211  32.284   5.709   9.368
  741POPC   PO413212  31.870   6.305   9.321
  741POPC   GL113213  32.099   6.050   9.036
  741POPC   GL213214  31.967   5.703   8.996
  741POPC   C1A13215  32.472   5.950   8.756
  741POPC   D2A13216  32.432   5.769   8.340
  741POPC   C3A13217  32.545   5.950   7.966
  741POPC   C4A13218  32.744   5.824   7.568
  741POPC   C1B13219  31.999   5.785   8.601
  741POPC   C2B13220  31.985   5.542   8.276
  741POPC   C3B13221  32.036   5.796   7.961
  741POPC   C4B13222  31.922   5.946   7.588
  742POPC   NC313223  28.662   8.410   9.597
  742POPC   PO413224  29.084   7.908   9.524
  742POPC   GL113225  29.156   8.157   9.148
  742POPC   GL213226  28.831   8.284   9.091
  742POPC   C1A13227  29.391   8.314   8.759
  742POPC   D2A13228  29.119   8.455   8.430
  742POPC   C3A13229  29.243   8.406   8.023
  742POPC   C4A13230  29.469   8.285   7.687
  742POPC   C1B13231  28.684   8.454   8.696
  742POPC   C2B13232  28.626   8.521   8.261
  742POPC   C3B13233  28.750   8.272   7.930
  742POPC   C4B13234  28.979   8.350   7.566
  743POPC   NC313235  27.501  15.899   9.913
  743POPC   PO413236  27.881  16.156   9.548
  743POPC   GL113237  27.524  16.340   9.235
  743POPC   GL213238  27.583  16.077   8.996
  743POPC   C1A13239  27.370  16.470   8.776
  743POPC   D2A13240  27.562  16.307   8.389
  743POPC   C3A13241  27.474  16.145   7.985
  743POPC   C4A13242  27.234  15.769   7.875
  743POPC   C1B13243  27.912  16.038   8.666
  743POPC   C2B13244  27.955  15.995   8.197
  743POPC   C3B13245  27.826  15.664   7.910
  743POPC   C4B13246  27.864  15.336   7.581
  744POPC   NC313247  19.090   3.776   9.734
  744POPC   PO413248  19.286   3.436   9.184
  744POPC   GL113249  18.991   3.665   9.017
  744POPC   GL213250  18.820   3.379   8.884
  744POPC   C1A13251  19.074   3.703   8.573
  744POPC   D2A13252  18.898   3.428   8.260
  744POPC   C3A13253  19.197   3.417   7.920
  744POPC   C4A13254  19.409   3.814   7.814
  744POPC   C1B13255  18.576   3.685   8.675
  744POPC   C2B13256  18.670   3.901   8.316
  744POPC   C3B13257  18.900   3.845   7.950
  744POPC   C4B13258  18.779   3.548   7.624
  745POPC   NC313259  39.549   9.708   9.310
  745POPC   PO413260  39.070   9.356   9.686
  745POPC   GL113261  39.035   9.556   9.218
  745POPC   GL213262  39.309   9.500   8.908
  745POPC   C1A13263  38.925   9.829   8.858
  745POPC   D2A13264  39.088   9.651   8.460
  745POPC   C3A13265  38.876   9.671   8.097
  745POPC   C4A13266  38.754  10.010   7.841
  745POPC   C1B13267  39.427   9.937   8.746
  745POPC   C2B13268  39.433  10.029   8.354
  745POPC   C3B13269  39.398   9.787   8.000
  745POPC   C4B13270  39.701   9.459   7.900
  746POPC   NC313271  19.454  14.057   9.348
  746POPC   PO413272  20.133  13.925   9.594
  746POPC   GL113273  19.969  13.735   9.186
  746POPC   GL213274  19.782  13.944   8.997
  746POPC   C1A13275  19.885  13.494   8.768
  746POPC   D2A13276  20.028  13.330   8.351
  746POPC   C3A13277  19.825  13.524   8.034
  746POPC   C4A13278  19.930  13.573   7.656
  746POPC   C1B13279  19.544  14.013   8.643
  746POPC   C2B13280  19.443  13.856   8.234
  746POPC   C3B13281  19.358  13.843   7.787
  746POPC   C4B13282  19.630  13.936   7.461
  747POPC   NC313283   7.062  42.027   9.838
  747POPC   PO413284   6.744  42.469   9.443
  747POPC   GL113285   6.731  42.190   9.041
  747POPC   GL213286   6.439  41.946   9.093
  747POPC   C1A13287   6.802  42.322   8.600
  747POPC   D2A13288   6.995  42.096   8.251
  747POPC   C3A13289   7.017  42.343   7.881
  747POPC   C4A13290   7.068  42.373   7.407
  747POPC   C1B13291   6.415  42.006   8.694
  747POPC   C2B13292   6.311  42.113   8.320
  747POPC   C3B13293   6.537  42.084   7.976
  747POPC   C4B13294   6.574  42.337   7.658
  748POPC   NC313295  19.949  43.003   9.563
  748POPC   PO413296  19.631  43.552   9.439
  748POPC   GL113297  19.737  43.198   9.117
  748POPC   GL213298  20.105  43.064   9.078
  748POPC   C1A13299  19.789  43.119   8.666
  748POPC   D2A13300  19.767  43.342   8.287
  748POPC   C3A13301  19.831  43.125   7.923
  748POPC   C4A13302  20.173  43.286   7.675
  748POPC   C1B13303  20.247  42.808   8.700
  748POPC   C2B13304  20.178  42.822   8.233
  748POPC   C3B13305  20.406  42.855   7.850
  748POPC   C4B13306  20.313  42.862   7.422
  749POPC   NC313307  40.389   9.955   9.549
  749POPC   PO413308  40.920   9.555   9.422
  749POPC   GL113309  40.775   9.628   9.049
  749POPC   GL213310  40.890   9.932   9.045
  749POPC   C1A13311  40.802   9.728   8.606
  749POPC   D2A13312  40.662   9.541   8.290
  749POPC   C3A13313  40.960   9.579   7.961
  749POPC   C4A13314  40.714   9.621   7.635
  749POPC   C1B13315  40.649  10.187   8.789
  749POPC   C2B13316  40.752  10.191   8.354
  749POPC   C3B13317  40.588   9.958   8.016
  749POPC   C4B13318  40.331  10.032   7.686
  750POPC   NC313319  32.881   2.244   9.424
  750POPC   PO413320  32.165   2.045   9.435
  750POPC   GL113321  32.198   2.220   9.067
  750POPC   GL213322  32.526   2.133   9.056
  750POPC   C1A13323  31.933   2.233   8.743
  750POPC   D2A13324  31.707   2.079   8.384
  750POPC   C3A13325  31.903   1.776   8.166
  750POPC   C4A13326  32.074   1.884   7.770
  750POPC   C1B13327  32.334   1.835   8.729
  750POPC   C2B13328  32.411   1.829   8.269
  750POPC   C3B13329  32.621   2.033   7.905
  750POPC   C4B13330  32.847   1.827   7.580
  751POPC   NC313331   0.017   9.999   9.215
  751POPC   PO413332  44.710  10.394   9.666
  751POPC   GL113333  44.717  10.575   9.223
  751POPC   GL213334  44.355  10.572   9.119
  751POPC   C1A13335  44.645  10.842   8.810
  751POPC   D2A13336  44.344  10.729   8.461
  751POPC   C3A13337  44.480  10.808   8.026
  751POPC   C4A13338  44.846  10.621   7.835
  751POPC   C1B13339  44.556  10.320   8.757
  751POPC   C2B13340  44.599  10.151   8.306
  751POPC   C3B13341  44.582  10.161   7.843
  751POPC   C4B13342  44.497  10.452   7.474
  752POPC   NC313343  18.335  32.423   9.476
  752POPC   PO413344  17.680  32.277   9.499
  752POPC   GL113345  18.032  32.124   9.165
  752POPC   GL213346  18.375  32.246   9.015
  752POPC   C1A13347  18.026  32.122   8.683
  752POPC   D2A13348  18.328  32.204   8.340
  752POPC   C3A13349  18.088  32.250   7.953
  752POPC   C4A13350  17.907  31.970   7.681
  752POPC   C1B13351  18.611  32.481   8.706
  752POPC   C2B13352  18.570  32.664   8.290
  752POPC   C3B13353  18.560  32.406   7.910
  752POPC   C4B13354  18.439  32.000   7.685
  753POPC   NC313355  16.274   5.745   9.953
  753POPC   PO413356  16.812   5.781   9.521
  753POPC   GL113357  16.945   5.940   9.143
  753POPC   GL213358  16.601   5.928   9.066
  753POPC   C1A13359  16.901   6.083   8.715
  753POPC   D2A13360  16.648   5.929   8.375
  753POPC   C3A13361  16.736   6.062   7.992
  753POPC   C4A13362  17.098   6.193   7.814
  753POPC   C1B13363  16.620   5.608   8.765
  753POPC   C2B13364  16.363   5.500   8.398
  753POPC   C3B13365  16.504   5.568   7.952
  753POPC   C4B13366  16.885   5.674   7.719
  754POPC   NC313367  35.531  40.368   9.518
  754POPC   PO413368  35.331  39.655   9.514
  754POPC   GL113369  35.518  39.767   9.145
  754POPC   GL213370  35.383  40.100   9.122
  754POPC   C1A13371  35.394  39.765   8.702
  754POPC   D2A13372  35.048  39.673   8.383
  754POPC   C3A13373  35.118  39.841   7.954
  754POPC   C4A13374  35.538  39.971   7.826
  754POPC   C1B13375  35.226  40.260   8.742
  754POPC   C2B13376  35.322  40.146   8.311
  754POPC   C3B13377  35.316  40.424   7.942
  754POPC   C4B13378  35.643  40.440   7.636
  755POPC   NC313379  26.304  29.590   9.421
  755POPC   PO413380  26.882  29.765   9.567
  755POPC   GL113381  26.935  29.857   9.174
  755POPC   GL213382  26.894  30.212   9.199
  755POPC   C1A13383  27.091  29.802   8.766
  755POPC   D2A13384  26.966  30.018   8.394
  755POPC   C3A13385  27.078  30.094   7.997
  755POPC   C4A13386  27.011  29.936   7.618
  755POPC   C1B13387  26.669  30.108   8.803
  755POPC   C2B13388  26.461  29.915   8.448
  755POPC   C3B13389  26.563  29.940   8.014
  755POPC   C4B13390  26.518  30.083   7.588
  756POPC   NC313391  12.428  23.538   9.628
  756POPC   PO413392  12.904  23.932   9.478
  756POPC   GL113393  12.753  23.936   9.106
  756POPC   GL213394  12.791  23.577   9.053
  756POPC   C1A13395  12.881  23.944   8.720
  756POPC   D2A13396  12.805  23.673   8.426
  756POPC   C3A13397  12.863  23.902   8.074
  756POPC   C4A13398  12.785  23.811   7.663
  756POPC   C1B13399  13.139  23.437   8.775
  756POPC   C2B13400  13.254  23.461   8.363
  756POPC   C3B13401  13.055  23.440   7.944
  756POPC   C4B13402  13.147  23.502   7.506
  757POPC   NC313403  40.079  30.232   9.654
  757POPC   PO413404  40.371  29.646   9.515
  757POPC   GL113405  40.199  29.945   9.226
  757POPC   GL213406  40.409  30.240   9.262
  757POPC   C1A13407  39.932  29.847   8.864
  757POPC   D2A13408  39.825  30.054   8.479
  757POPC   C3A13409  39.982  29.895   8.097
  757POPC   C4A13410  39.702  30.012   7.771
  757POPC   C1B13411  40.530  30.285   8.846
  757POPC   C2B13412  40.321  30.173   8.466
  757POPC   C3B13413  40.390  30.264   8.056
  757POPC   C4B13414  40.262  30.078   7.668
  758POPC   NC313415  28.933  18.082   9.539
  758POPC   PO413416  29.310  18.689   9.472
  758POPC   GL113417  29.389  18.504   9.125
  758POPC   GL213418  29.190  18.240   9.103
  758POPC   C1A13419  29.480  18.428   8.735
  758POPC   D2A13420  29.277  18.303   8.375
  758POPC   C3A13421  29.408  18.433   8.017
  758POPC   C4A13422  29.207  18.727   7.799
  758POPC   C1B13423  29.117  17.995   8.732
  758POPC   C2B13424  29.188  17.790   8.362
  758POPC   C3B13425  29.140  17.983   7.979
  758POPC   C4B13426  28.894  18.312   7.874
  759POPC   NC313427  23.343  43.874  10.034
  759POPC   PO413428  22.902  43.834   9.538
  759POPC   GL113429  22.913  43.915   9.136
  759POPC   GL213430  22.571  43.800   9.129
  759POPC   C1A13431  23.153  43.813   8.773
  759POPC   D2A13432  23.232  44.037   8.395
  759POPC   C3A13433  23.018  43.811   8.078
  759POPC   C4A13434  22.884  43.966   7.711
  759POPC   C1B13435  22.621  43.853   8.687
  759POPC   C2B13436  22.629  43.554   8.327
  759POPC   C3B13437  22.558  43.608   7.851
  759POPC   C4B13438  22.698  43.594   7.402
  760POPC   NC313439   1.195  31.784   9.399
  760POPC   PO413440   0.790  32.135   9.361
  760POPC   GL113441   1.102  32.091   8.980
  760POPC   GL213442   1.483  32.160   8.977
  760POPC   C1A13443   1.241  32.046   8.538
  760POPC   D2A13444   1.411  32.168   8.149
  760POPC   C3A13445   1.321  31.900   7.809
  760POPC   C4A13446   0.987  31.942   7.491
  760POPC   C1B13447   1.717  32.199   8.565
  760POPC   C2B13448   1.904  32.050   8.143
  760POPC   C3B13449   1.752  32.175   7.742
  760POPC   C4B13450   1.442  32.506   7.570
  761POPC   NC313451  38.528  44.154   9.414
  761POPC   PO413452  38.480  43.460   9.553
  761POPC   GL113453  38.340  43.715   9.241
  761POPC   GL213454  38.694  43.733   9.159
  761POPC   C1A13455  38.121  43.939   8.883
  761POPC   D2A13456  38.322  44.072   8.524
  761POPC   C3A13457  38.347  43.981   8.107
  761POPC   C4A13458  38.521  43.898   7.722
  761POPC   C1B13459  38.870  43.882   8.826
  761POPC   C2B13460  38.831  44.102   8.480
  761POPC   C3B13461  38.907  44.033   8.082
  761POPC   C4B13462  38.896  44.288   7.760
  762POPC   NC313463  22.615  22.541   9.713
  762POPC   PO413464  23.092  22.020   9.670
  762POPC   GL113465  22.937  22.002   9.250
  762POPC   GL213466  22.660  22.187   9.312
  762POPC   C1A13467  23.050  22.143   8.826
  762POPC   D2A13468  23.388  22.130   8.512
  762POPC   C3A13469  23.282  22.352   8.132
  762POPC   C4A13470  23.037  22.160   7.833
  762POPC   C1B13471  22.538  22.113   8.897
  762POPC   C2B13472  22.642  22.239   8.488
  762POPC   C3B13473  22.613  22.312   8.062
  762POPC   C4B13474  22.555  22.032   7.715
  763POPC   NC313475  15.123  18.203   9.328
  763POPC   PO413476  15.580  18.375   8.883
  763POPC   GL113477  15.296  17.982   8.874
  763POPC   GL213478  14.932  17.900   8.953
  763POPC   C1A13479  15.132  17.856   8.474
  763POPC   D2A13480  15.007  18.080   8.112
  763POPC   C3A13481  15.364  18.064   7.823
  763POPC   C4A13482  15.441  17.922   7.381
  763POPC   C1B13483  14.777  18.245   8.641
  763POPC   C2B13484  14.694  18.485   8.230
  763POPC   C3B13485  14.876  18.578   7.799
  763POPC   C4B13486  14.926  18.637   7.324
  764POPC   NC313487   8.763   8.650   9.552
  764POPC   PO413488   9.056   9.287   9.476
  764POPC   GL113489   8.943   8.952   9.186
  764POPC   GL213490   8.669   9.181   9.137
  764POPC   C1A13491   9.008   8.712   8.799
  764POPC   D2A13492   9.144   9.007   8.497
  764POPC   C3A13493   9.147   9.042   8.052
  764POPC   C4A13494   9.051   8.962   7.623
  764POPC   C1B13495   8.580   9.005   8.750
  764POPC   C2B13496   8.675   8.883   8.340
  764POPC   C3B13497   8.630   9.024   7.937
  764POPC   C4B13498   8.738   9.358   7.695
  765POPC   NC313499  16.922   4.065   9.321
  765POPC   PO413500  16.303   4.012   9.441
  765POPC   GL113501  16.460   4.119   9.068
  765POPC   GL213502  16.639   4.425   9.067
  765POPC   C1A13503  16.659   4.114   8.652
  765POPC   D2A13504  16.910   3.914   8.335
  765POPC   C3A13505  16.706   4.128   8.042
  765POPC   C4A13506  16.449   4.356   7.812
  765POPC   C1B13507  16.691   4.672   8.697
  765POPC   C2B13508  16.558   4.582   8.275
  765POPC   C3B13509  16.840   4.640   7.941
  765POPC   C4B13510  17.129   4.322   7.836
  766POPC   NC313511  21.225  36.511   9.445
  766POPC   PO413512  21.580  35.870   9.471
  766POPC   GL113513  21.495  36.042   9.101
  766POPC   GL213514  21.139  36.017   9.100
  766POPC   C1A13515  21.404  36.124   8.661
  766POPC   D2A13516  21.258  36.219   8.247
  766POPC   C3A13517  21.502  36.177   7.899
  766POPC   C4A13518  21.616  36.466   7.569
  766POPC   C1B13519  21.035  35.748   8.763
  766POPC   C2B13520  21.223  35.729   8.352
  766POPC   C3B13521  21.067  35.828   7.938
  766POPC   C4B13522  21.024  36.248   7.751
  767POPC   NC313523   7.211  31.854   9.190
  767POPC   PO413524   7.684  31.512   9.517
  767POPC   GL113525   7.352  31.320   9.259
  767POPC   GL213526   7.494  31.481   9.018
  767POPC   C1A13527   7.201  31.161   8.773
  767POPC   D2A13528   7.304  30.993   8.321
  767POPC   C3A13529   7.253  31.307   7.998
  767POPC   C4A13530   7.298  31.774   8.072
  767POPC   C1B13531   7.621  31.496   8.636
  767POPC   C2B13532   7.884  31.733   8.413
  767POPC   C3B13533   7.960  31.670   8.033
  767POPC   C4B13534   7.727  31.417   7.796
  768POPC   NC313535   6.426   2.571   9.381
  768POPC   PO413536   7.045   2.599   9.507
  768POPC   GL113537   6.838   2.853   9.119
  768POPC   GL213538   6.615   2.630   8.929
  768POPC   C1A13539   6.903   2.907   8.644
  768POPC   D2A13540   6.820   2.563   8.414
  768POPC   C3A13541   7.037   2.484   8.045
  768POPC   C4A13542   6.941   2.714   7.687
  768POPC   C1B13543   6.381   2.403   8.643
  768POPC   C2B13544   6.294   2.474   8.234
  768POPC   C3B13545   6.416   2.563   7.807
  768POPC   C4B13546   6.187   2.569   7.422
  769POPC   NC313547   6.400  36.499   9.564
  769POPC   PO413548   6.570  35.832   9.592
  769POPC   GL113549   6.515  36.090   9.199
  769POPC   GL213550   6.480  36.446   9.052
  769POPC   C1A13551   6.473  35.930   8.778
  769POPC   D2A13552   6.683  35.929   8.396
  769POPC   C3A13553   6.587  36.292   8.133
  769POPC   C4A13554   6.374  36.256   7.779
  769POPC   C1B13555   6.793  36.339   8.716
  769POPC   C2B13556   7.052  36.301   8.330
  769POPC   C3B13557   7.010  36.527   7.949
  769POPC   C4B13558   6.857  36.290   7.654
  770POPC   NC313559  42.598  40.393   9.738
  770POPC   PO413560  42.394  39.826   9.389
  770POPC   GL113561  42.434  39.870   8.994
  770POPC   GL213562  42.332  40.200   9.011
  770POPC   C1A13563  42.390  39.930   8.594
  770POPC   D2A13564  42.185  40.164   8.363
  770POPC   C3A13565  42.243  39.971   7.997
  770POPC   C4A13566  42.562  39.884   7.665
  770POPC   C1B13567  42.585  40.387   8.641
  770POPC   C2B13568  42.715  40.219   8.314
  770POPC   C3B13569  42.755  40.421   8.014
  770POPC   C4B13570  42.467  40.364   7.788
  771POPC   NC313571  14.434  29.655   9.484
  771POPC   PO413572  14.610  30.229   9.681
  771POPC   GL113573  14.433  30.088   9.231
  771POPC   GL213574  14.092  29.999   9.340
  771POPC   C1A13575  14.585  29.909   8.785
  771POPC   D2A13576  14.768  29.998   8.354
  771POPC   C3A13577  14.593  29.828   7.981
  771POPC   C4A13578  14.503  30.174   7.749
  771POPC   C1B13579  14.085  29.914   8.893
  771POPC   C2B13580  13.923  30.016   8.491
  771POPC   C3B13581  14.139  30.066   8.105
  771POPC   C4B13582  14.135  29.785   7.756
  772POPC   NC313583  17.732  12.754   9.372
  772POPC   PO413584  17.459  13.214   9.777
  772POPC   GL113585  17.325  13.032   9.273
  772POPC   GL213586  16.967  13.088   9.181
  772POPC   C1A13587  17.545  13.065   8.782
  772POPC   D2A13588  17.742  13.117   8.334
  772POPC   C3A13589  17.769  12.769   8.052
  772POPC   C4A13590  17.591  12.724   7.623
  772POPC   C1B13591  17.125  12.791   8.848
  772POPC   C2B13592  17.393  12.703   8.451
  772POPC   C3B13593  17.277  12.734   8.008
  772POPC   C4B13594  17.077  12.744   7.556
  773POPC   NC313595  19.782  43.987   9.567
  773POPC   PO413596  20.477  44.082   9.497
  773POPC   GL113597  20.091  44.153   9.167
  773POPC   GL213598  19.763  43.927   9.082
  773POPC   C1A13599  20.001  44.120   8.692
  773POPC   D2A13600  19.995  43.855   8.325
  773POPC   C3A13601  19.795  43.939   7.913
  773POPC   C4A13602  19.853  43.691   7.546
  773POPC   C1B13603  19.680  43.667   8.722
  773POPC   C2B13604  19.473  43.742   8.342
  773POPC   C3B13605  19.287  43.864   7.970
  773POPC   C4B13606  19.284  43.876   7.516
  774POPC   NC313607   8.126   3.137   9.460
  774POPC   PO413608   8.307   3.739   9.736
  774POPC   GL113609   8.298   3.578   9.258
  774POPC   GL213610   7.986   3.567   9.062
  774POPC   C1A13611   8.419   3.458   8.808
  774POPC   D2A13612   8.258   3.330   8.385
  774POPC   C3A13613   8.404   3.528   8.011
  774POPC   C4A13614   8.303   3.513   7.544
  774POPC   C1B13615   7.649   3.465   8.724
  774POPC   C2B13616   7.786   3.549   8.322
  774POPC   C3B13617   7.904   3.505   7.919
  774POPC   C4B13618   7.847   3.297   7.523
  775POPC   NC313619  22.215  24.842   9.554
  775POPC   PO413620  22.728  24.449   9.532
  775POPC   GL113621  22.422  24.485   9.197
  775POPC   GL213622  22.040  24.447   9.244
  775POPC   C1A13623  22.260  24.417   8.792
  775POPC   D2A13624  22.234  24.232   8.424
  775POPC   C3A13625  22.061  24.543   8.133
  775POPC   C4A13626  22.086  24.387   7.739
  775POPC   C1B13627  21.826  24.665   8.887
  775POPC   C2B13628  21.693  24.810   8.466
  775POPC   C3B13629  21.628  24.858   8.029
  775POPC   C4B13630  21.868  24.820   7.674
  776POPC   NC313631  15.321   4.271   9.647
  776POPC   PO413632  14.798   4.605   9.596
  776POPC   GL113633  15.071   4.392   9.216
  776POPC   GL213634  15.404   4.535   9.184
  776POPC   C1A13635  15.163   4.197   8.783
  776POPC   D2A13636  14.976   3.986   8.402
  776POPC   C3A13637  15.191   4.092   8.022
  776POPC   C4A13638  15.125   4.366   7.678
  776POPC   C1B13639  15.466   4.607   8.730
  776POPC   C2B13640  15.499   4.383   8.319
  776POPC   C3B13641  15.583   4.499   7.883
  776POPC   C4B13642  15.881   4.703   7.580
  777POPC   NC313643  21.226  13.320   9.636
  777POPC   PO413644  21.089  12.598   9.592
  777POPC   GL113645  21.155  12.735   9.182
  777POPC   GL213646  21.416  12.994   9.184
  777POPC   C1A13647  21.244  12.720   8.734
  777POPC   D2A13648  21.123  12.923   8.346
  777POPC   C3A13649  21.194  12.607   8.052
  777POPC   C4A13650  21.401  12.609   7.672
  777POPC   C1B13651  21.654  13.002   8.784
  777POPC   C2B13652  21.633  12.823   8.396
  777POPC   C3B13653  21.552  12.961   8.020
  777POPC   C4B13654  21.666  13.021   7.625
  778POPC   NC313655  19.089  34.927   9.462
  778POPC   PO413656  18.778  34.260   9.578
  778POPC   GL113657  18.902  34.434   9.185
  778POPC   GL213658  19.174  34.672   9.047
  778POPC   C1A13659  19.029  34.264   8.788
  778POPC   D2A13660  19.125  34.504   8.440
  778POPC   C3A13661  19.164  34.255   8.094
  778POPC   C4A13662  19.113  34.253   7.690
  778POPC   C1B13663  19.342  34.920   8.706
  778POPC   C2B13664  19.492  34.827   8.275
  778POPC   C3B13665  19.269  34.758   7.874
  778POPC   C4B13666  18.885  35.043   7.775
  779POPC   NC313667  19.767  37.358   9.761
  779POPC   PO413668  20.362  37.609   9.667
  779POPC   GL113669  19.965  37.504   9.307
  779POPC   GL213670  19.871  37.171   9.134
  779POPC   C1A13671  19.715  37.570   8.868
  779POPC   D2A13672  19.926  37.732   8.482
  779POPC   C3A13673  19.794  37.684   8.059
  779POPC   C4A13674  20.082  37.876   7.756
  779POPC   C1B13675  20.194  37.388   8.847
  779POPC   C2B13676  20.357  37.436   8.395
  779POPC   C3B13677  20.213  37.408   7.973
  779POPC   C4B13678  19.975  37.371   7.585
  780POPC   NC313679  41.111  23.469   9.386
  780POPC   PO413680  40.534  23.899   9.385
  780POPC   GL113681  40.724  23.676   9.074
  780POPC   GL213682  40.968  23.925   9.077
  780POPC   C1A13683  40.694  23.395   8.721
  780POPC   D2A13684  40.463  23.424   8.362
  780POPC   C3A13685  40.706  23.415   7.994
  780POPC   C4A13686  40.664  23.113   7.685
  780POPC   C1B13687  41.092  23.736   8.705
  780POPC   C2B13688  40.819  23.772   8.362
  780POPC   C3B13689  40.766  23.949   7.949
  780POPC   C4B13690  41.106  23.999   7.658
  781POPC   NC313691  21.964   9.899   9.448
  781POPC   PO413692  21.260   9.720   9.543
  781POPC   GL113693  21.496   9.659   9.143
  781POPC   GL213694  21.834   9.532   9.115
  781POPC   C1A13695  21.336   9.765   8.761
  781POPC   D2A13696  21.071   9.733   8.441
  781POPC   C3A13697  21.148   9.908   8.015
  781POPC   C4A13698  21.135   9.575   7.712
  781POPC   C1B13699  21.856   9.828   8.757
  781POPC   C2B13700  21.645   9.829   8.363
  781POPC   C3B13701  21.570   9.633   7.988
  781POPC   C4B13702  21.553   9.844   7.595
  782POPC   NC313703  32.994  40.168   9.513
  782POPC   PO413704  32.707  39.525   9.397
  782POPC   GL113705  32.937  39.839   9.113
  782POPC   GL213706  33.170  40.155   9.053
  782POPC   C1A13707  32.808  40.054   8.728
  782POPC   D2A13708  32.760  39.972   8.321
  782POPC   C3A13709  33.061  40.045   8.027
  782POPC   C4A13710  32.930  39.962   7.639
  782POPC   C1B13711  33.296  39.884   8.733
  782POPC   C2B13712  33.468  39.993   8.364
  782POPC   C3B13713  33.520  39.819   7.981
  782POPC   C4B13714  33.244  39.558   7.769
  783POPC   NC313715  25.384   6.796   9.482
  783POPC   PO413716  25.053   6.117   9.450
  783POPC   GL113717  25.111   6.477   9.165
  783POPC   GL213718  25.493   6.481   9.082
  783POPC   C1A13719  25.161   6.617   8.726
  783POPC   D2A13720  25.377   6.458   8.355
  783POPC   C3A13721  25.070   6.394   8.022
  783POPC   C4A13722  24.935   6.502   7.628
  783POPC   C1B13723  25.564   6.892   8.870
  783POPC   C2B13724  25.490   6.946   8.466
  783POPC   C3B13725  25.487   7.063   8.055
  783POPC   C4B13726  25.276   6.821   7.805
  784POPC   NC313727  23.366  43.930   9.452
  784POPC   PO413728  23.828  43.461   9.578
  784POPC   GL113729  23.767  43.791   9.133
  784POPC   GL213730  23.511  44.103   9.029
  784POPC   C1A13731  23.676  43.854   8.643
  784POPC   D2A13732  23.483  43.591   8.325
  784POPC   C3A13733  23.503  43.754   7.925
  784POPC   C4A13734  23.814  43.985   7.759
  784POPC   C1B13735  23.538  44.371   8.673
  784POPC   C2B13736  23.705  44.292   8.279
  784POPC   C3B13737  23.425  44.268   7.946
  784POPC   C4B13738  23.357  44.165   7.540
  785POPC   NC313739  22.355   2.585   9.503
  785POPC   PO413740  21.921   3.149   9.403
  785POPC   GL113741  22.223   2.930   9.149
  785POPC   GL213742  22.041   2.582   9.101
  785POPC   C1A13743  22.376   2.759   8.764
  785POPC   D2A13744  22.171   2.735   8.385
  785POPC   C3A13745  22.421   2.651   8.043
  785POPC   C4A13746  22.252   2.577   7.631
  785POPC   C1B13747  21.791   2.620   8.718
  785POPC   C2B13748  21.647   2.617   8.280
  785POPC   C3B13749  21.837   2.629   7.914
  785POPC   C4B13750  21.791   2.697   7.483
  786POPC   NC313751  43.417  19.822   9.887
  786POPC   PO413752  42.812  20.029   9.571
  786POPC   GL113753  42.942  19.866   9.179
  786POPC   GL213754  43.270  19.719   9.235
  786POPC   C1A13755  43.123  19.930   8.753
  786POPC   D2A13756  43.222  20.108   8.333
  786POPC   C3A13757  43.058  19.894   7.965
  786POPC   C4A13758  42.959  20.005   7.501
  786POPC   C1B13759  43.321  19.467   8.840
  786POPC   C2B13760  43.449  19.664   8.456
  786POPC   C3B13761  43.430  19.533   8.043
  786POPC   C4B13762  43.351  19.661   7.634
  787POPC   NC313763  29.244  30.377   9.518
  787POPC   PO413764  29.410  29.752   9.482
  787POPC   GL113765  29.234  29.987   9.150
  787POPC   GL213766  29.528  30.158   9.126
  787POPC   C1A13767  29.000  30.019   8.747
  787POPC   D2A13768  28.811  29.839   8.324
  787POPC   C3A13769  29.056  29.854   7.968
  787POPC   C4A13770  29.306  30.168   7.725
  787POPC   C1B13771  29.509  29.870   8.759
  787POPC   C2B13772  29.364  29.969   8.370
  787POPC   C3B13773  29.568  29.816   8.027
  787POPC   C4B13774  29.776  29.924   7.662
  788POPC   NC313775  33.681  32.828   9.590
  788POPC   PO413776  33.271  33.359   9.338
  788POPC   GL113777  33.608  33.115   9.116
  788POPC   GL213778  33.876  32.848   9.129
  788POPC   C1A13779  33.692  33.011   8.685
  788POPC   D2A13780  33.681  33.147   8.288
  788POPC   C3A13781  33.412  33.008   7.974
  788POPC   C4A13782  33.370  33.059   7.535
  788POPC   C1B13783  34.053  32.667   8.773
  788POPC   C2B13784  34.041  32.760   8.345
  788POPC   C3B13785  34.077  32.590   7.952
  788POPC   C4B13786  33.763  32.775   7.694
  789POPC   NC313787  26.697  38.026   9.520
  789POPC   PO413788  27.103  38.616   9.494
  789POPC   GL113789  26.891  38.382   9.145
  789POPC   GL213790  27.193  38.344   8.956
  789POPC   C1A13791  26.622  38.387   8.743
  789POPC   D2A13792  26.429  38.480   8.341
  789POPC   C3A13793  26.759  38.478   8.033
  789POPC   C4A13794  26.987  38.227   7.743
  789POPC   C1B13795  26.998  38.719   8.732
  789POPC   C2B13796  27.049  38.873   8.299
  789POPC   C3B13797  27.024  38.889   7.862
  789POPC   C4B13798  27.150  38.673   7.485
  790POPC   NC313799   2.572   1.782   9.517
  790POPC   PO413800   3.152   2.169   9.440
  790POPC   GL113801   2.900   1.972   9.153
  790POPC   GL213802   2.645   2.256   9.191
  790POPC   C1A13803   2.931   1.765   8.739
  790POPC   D2A13804   2.852   1.608   8.329
  790POPC   C3A13805   2.914   1.826   7.921
  790POPC   C4A13806   2.689   1.869   7.507
  790POPC   C1B13807   2.474   2.002   8.856
  790POPC   C2B13808   2.390   1.784   8.469
  790POPC   C3B13809   2.415   1.885   8.011
  790POPC   C4B13810   2.554   2.282   7.765
  791POPC   NC313811   3.017   2.638   9.386
  791POPC   PO413812   2.375   2.798   9.439
  791POPC   GL113813   2.688   2.967   9.148
  791POPC   GL213814   2.876   2.697   8.917
  791POPC   C1A13815   2.619   3.080   8.734
  791POPC   D2A13816   2.538   2.818   8.379
  791POPC   C3A13817   2.645   3.013   8.009
  791POPC   C4A13818   2.998   2.818   7.828
  791POPC   C1B13819   2.923   2.286   8.745
  791POPC   C2B13820   2.734   2.155   8.364
  791POPC   C3B13821   2.974   2.332   8.025
  791POPC   C4B13822   3.055   2.207   7.587
  792POPC   NC313823  39.274  39.746   9.401
  792POPC   PO413824  38.940  40.262   9.685
  792POPC   GL113825  39.123  40.266   9.267
  792POPC   GL213826  38.910  40.029   9.131
  792POPC   C1A13827  39.332  40.115   8.870
  792POPC   D2A13828  39.268  39.822   8.541
  792POPC   C3A13829  39.292  40.053   8.165
  792POPC   C4A13830  39.448  39.892   7.804
  792POPC   C1B13831  38.814  40.100   8.675
  792POPC   C2B13832  38.839  40.295   8.242
  792POPC   C3B13833  38.880  40.059   7.823
  792POPC   C4B13834  38.941  40.250   7.389
  793POPC   NC313835  31.053  42.684   9.800
  793POPC   PO413836  30.449  43.013   9.482
  793POPC   GL113837  30.661  43.182   9.146
  793POPC   GL213838  30.885  43.475   9.237
  793POPC   C1A13839  30.654  42.996   8.760
  793POPC   D2A13840  30.454  42.887   8.426
  793POPC   C3A13841  30.665  42.956   8.089
  793POPC   C4A13842  30.844  43.104   7.759
  793POPC   C1B13843  31.061  43.325   8.848
  793POPC   C2B13844  30.963  43.243   8.430
  793POPC   C3B13845  31.071  43.440   8.084
  793POPC   C4B13846  31.266  43.408   7.699
  794POPC   NC313847  27.344  25.945   9.557
  794POPC   PO413848  27.960  26.291   9.669
  794POPC   GL113849  27.663  26.111   9.217
  794POPC   GL213850  27.261  25.997   9.068
  794POPC   C1A13851  27.652  26.027   8.747
  794POPC   D2A13852  27.851  26.038   8.346
  794POPC   C3A13853  27.743  25.846   7.967
  794POPC   C4A13854  27.886  25.745   7.529
  794POPC   C1B13855  27.250  26.352   8.771
  794POPC   C2B13856  27.513  26.418   8.391
  794POPC   C3B13857  27.645  26.367   7.965
  794POPC   C4B13858  27.554  26.132   7.571
  795POPC   NC313859  38.880  25.758   9.496
  795POPC   PO413860  38.155  25.970   9.392
  795POPC   GL113861  38.491  25.911   9.098
  795POPC   GL213862  38.832  26.131   9.144
  795POPC   C1A13863  38.330  25.718   8.714
  795POPC   D2A13864  38.176  25.735   8.291
  795POPC   C3A13865  38.391  25.937   7.974
  795POPC   C4A13866  38.392  26.368   7.886
  795POPC   C1B13867  38.914  25.866   8.764
  795POPC   C2B13868  38.706  25.752   8.355
  795POPC   C3B13869  38.840  25.707   7.913
  795POPC   C4B13870  38.695  25.754   7.487
  796POPC   NC313871  27.196  20.506   9.466
  796POPC   PO413872  26.514  20.662   9.566
  796POPC   GL113873  26.681  20.682   9.157
  796POPC   GL213874  27.007  20.844   9.144
  796POPC   C1A13875  26.620  20.536   8.744
  796POPC   D2A13876  26.885  20.313   8.434
  796POPC   C3A13877  26.895  20.451   8.019
  796POPC   C4A13878  26.678  20.332   7.664
  796POPC   C1B13879  27.117  20.700   8.729
  796POPC   C2B13880  26.961  20.875   8.339
  796POPC   C3B13881  27.098  20.994   7.939
  796POPC   C4B13882  27.043  20.718   7.601
  797POPC   NC313883  37.252   6.104   9.379
  797POPC   PO413884  36.834   5.663   9.630
  797POPC   GL113885  36.867   5.659   9.144
  797POPC   GL213886  36.890   5.986   9.010
  797POPC   C1A13887  36.993   5.609   8.687
  797POPC   D2A13888  37.218   5.717   8.307
  797POPC   C3A13889  36.957   5.963   8.053
  797POPC   C4A13890  36.726   5.870   7.715
  797POPC   C1B13891  37.218   6.081   8.702
  797POPC   C2B13892  37.349   6.220   8.293
  797POPC   C3B13893  37.314   6.241   7.844
  797POPC   C4B13894  37.170   6.582   7.605
  798POPC   NC313895   8.657   6.120   9.465
  798POPC   PO413896   8.986   5.504   9.588
  798POPC   GL113897   8.864   5.614   9.203
  798POPC   GL213898   9.161   5.435   9.080
  798POPC   C1A13899   8.771   5.904   8.848
  798POPC   D2A13900   8.977   6.151   8.538
  798POPC   C3A13901   8.905   6.073   8.096
  798POPC   C4A13902   9.093   5.982   7.705
  798POPC   C1B13903   8.844   5.400   8.745
  798POPC   C2B13904   8.872   5.645   8.389
  798POPC   C3B13905   8.924   5.571   7.972
  798POPC   C4B13906   8.601   5.483   7.685
  799POPC   NC313907   5.495  39.372   9.505
  799POPC   PO413908   6.074  39.018   9.514
  799POPC   GL113909   5.994  39.135   9.144
  799POPC   GL213910   5.670  39.064   9.136
  799POPC   C1A13911   6.106  39.185   8.728
  799POPC   D2A13912   5.893  39.122   8.354
  799POPC   C3A13913   5.972  39.342   7.994
  799POPC   C4A13914   6.269  39.417   7.679
  799POPC   C1B13915   5.616  38.870   8.749
  799POPC   C2B13916   5.478  38.817   8.303
  799POPC   C3B13917   5.653  38.932   7.889
  799POPC   C4B13918   5.647  38.788   7.453
  800POPC   NC313919  44.895  44.954   9.524
  800POPC   PO413920  44.340  44.571   9.574
  800POPC   GL113921  44.511  44.607   9.151
  800POPC   GL213922  44.853  44.646   9.128
  800POPC   C1A13923  44.627  44.685   8.686
  800POPC   D2A13924  44.435  44.845   8.336
  800POPC   C3A13925  44.520  44.523   8.059
  800POPC   C4A13926  44.270  44.524   7.734
  800POPC   C1B13927  44.996  44.998   8.835
  800POPC   C2B13928   0.035  44.915   8.389
  800POPC   C3B13929  44.810  44.944   8.005
  800POPC   C4B13930  44.723  44.709   7.625
  801POPC   NC313931  21.651  25.219   9.501
  801POPC   PO413932  21.009  25.076   9.335
  801POPC   GL113933  21.364  25.135   9.077
  801POPC   GL213934  21.478  25.460   9.074
  801POPC   C1A13935  21.345  25.206   8.640
  801POPC   D2A13936  21.113  25.505   8.384
  801POPC   C3A13937  21.184  25.352   7.970
  801POPC   C4A13938  21.316  25.410   7.546
  801POPC   C1B13939  21.649  25.615   8.694
  801POPC   C2B13940  21.640  25.496   8.275
  801POPC   C3B13941  21.540  25.719   7.915
  801POPC   C4B13942  21.689  25.760   7.498
  802POPC   NC313943   6.559  43.858   9.655
  802POPC   PO413944   6.507  44.360   9.256
  802POPC   GL113945   6.680  43.986   9.124
  802POPC   GL213946   6.595  43.648   9.206
  802POPC   C1A13947   6.792  43.954   8.719
  802POPC   D2A13948   6.574  44.061   8.382
  802POPC   C3A13949   6.781  43.977   8.038
  802POPC   C4A13950   6.577  43.830   7.717
  802POPC   C1B13951   6.499  43.532   8.793
  802POPC   C2B13952   6.726  43.517   8.437
  802POPC   C3B13953   6.726  43.444   8.020
  802POPC   C4B13954   6.673  43.282   7.619
  803POPC   NC313955   1.529  16.830   9.437
  803POPC   PO413956   1.058  16.401   9.614
  803POPC   GL113957   1.279  16.487   9.196
  803POPC   GL213958   1.223  16.897   9.049
  803POPC   C1A13959   1.505  16.583   8.806
  803POPC   D2A13960   1.328  16.771   8.442
  803POPC   C3A13961   1.459  16.570   8.097
  803POPC   C4A13962   1.301  16.554   7.697
  803POPC   C1B13963   1.513  17.115   8.765
  803POPC   C2B13964   1.633  17.150   8.298
  803POPC   C3B13965   1.423  17.049   7.897
  803POPC   C4B13966   0.991  16.952   7.799
  804POPC   NC313967  41.707  15.828   9.632
  804POPC   PO413968  41.527  16.369   9.541
  804POPC   GL113969  41.748  16.151   9.199
  804POPC   GL213970  41.665  15.793   9.136
  804POPC   C1A13971  41.648  16.110   8.747
  804POPC   D2A13972  41.483  16.301   8.356
  804POPC   C3A13973  41.760  16.290   8.013
  804POPC   C4A13974  41.709  16.139   7.648
  804POPC   C1B13975  41.395  15.659   8.803
  804POPC   C2B13976  41.615  15.720   8.419
  804POPC   C3B13977  41.624  15.794   8.037
  804POPC   C4B13978  41.847  15.670   7.714
  805POPC   NC313979  10.620  22.796   9.601
  805POPC   PO413980  10.320  23.378   9.501
  805POPC   GL113981  10.514  23.128   9.181
  805POPC   GL213982  10.483  22.796   9.089
  805POPC   C1A13983  10.651  23.134   8.764
  805POPC   D2A13984  10.575  22.973   8.365
  805POPC   C3A13985  10.327  23.199   8.081
  805POPC   C4A13986  10.424  23.176   7.646
  805POPC   C1B13987  10.197  22.893   8.699
  805POPC   C2B13988  10.136  22.743   8.245
  805POPC   C3B13989  10.427  22.718   7.894
  805POPC   C4B13990  10.361  22.613   7.429
  806POPC   NC313991  31.735   8.903   9.790
  806POPC   PO413992  31.235   9.264   9.534
  806POPC   GL113993  31.405   9.098   9.185
  806POPC   GL213994  31.748   9.037   9.261
  806POPC   C1A13995  31.336   8.870   8.804
  806POPC   D2A13996  31.362   9.020   8.395
  806POPC   C3A13997  31.279   8.823   8.003
  806POPC   C4A13998  31.555   8.730   7.687
  806POPC   C1B13999  31.803   9.095   8.791
  806POPC   C2B14000  31.729   9.365   8.416
  806POPC   C3B14001  31.750   9.143   8.033
  806POPC   C4B14002  31.910   9.149   7.630
  807POPC   NC314003  31.872  17.681   9.614
  807POPC   PO414004  31.270  17.339   9.640
  807POPC   GL114005  31.500  17.471   9.294
  807POPC   GL214006  31.420  17.814   9.367
  807POPC   C1A14007  31.520  17.389   8.826
  807POPC   D2A14008  31.312  17.424   8.390
  807POPC   C3A14009  31.478  17.361   7.961
  807POPC   C4A14010  31.484  17.112   7.588
  807POPC   C1B14011  31.516  17.865   8.939
  807POPC   C2B14012  31.508  17.870   8.522
  807POPC   C3B14013  31.535  17.875   8.108
  807POPC   C4B14014  31.399  17.919   7.707
  808POPC   NC314015  29.674  31.072   9.188
  808POPC   PO414016  30.008  31.576   9.599
  808POPC   GL114017  30.083  31.550   9.141
  808POPC   GL214018  29.724  31.578   9.102
  808POPC   C1A14019  30.241  31.372   8.722
  808POPC   D2A14020  30.069  31.445   8.284
  808POPC   C3A14021  30.251  31.400   7.876
  808POPC   C4A14022  30.146  31.227   7.482
  808POPC   C1B14023  29.795  31.616   8.675
  808POPC   C2B14024  29.548  31.449   8.307
  808POPC   C3B14025  29.676  31.316   7.918
  808POPC   C4B14026  29.721  31.511   7.511
  809POPC   NC314027  40.777  19.291   9.392
  809POPC   PO414028  40.456  18.550   9.419
  809POPC   GL114029  40.615  18.857   9.127
  809POPC   GL214030  40.970  18.878   9.130
  809POPC   C1A14031  40.736  19.012   8.698
  809POPC   D2A14032  40.704  18.840   8.286
  809POPC   C3A14033  40.704  19.175   8.017
  809POPC   C4A14034  40.463  19.272   7.684
  809POPC   C1B14035  41.138  18.705   8.777
  809POPC   C2B14036  41.233  18.915   8.369
  809POPC   C3B14037  41.098  18.862   7.931
  809POPC   C4B14038  40.971  19.100   7.558
  810POPC   NC314039   8.120  31.711   9.490
  810POPC   PO414040   8.150  31.034   9.425
  810POPC   GL114041   7.968  31.307   9.102
  810POPC   GL214042   8.009  31.654   8.988
  810POPC   C1A14043   8.122  31.304   8.664
  810POPC   D2A14044   8.312  31.350   8.303
  810POPC   C3A14045   8.180  31.165   7.926
  810POPC   C4A14046   8.496  31.182   7.645
  810POPC   C1B14047   8.326  31.803   8.639
  810POPC   C2B14048   8.460  31.840   8.184
  810POPC   C3B14049   8.382  31.663   7.759
  810POPC   C4B14050   8.026  31.747   7.430
  811POPC   NC314051   4.252   5.700   9.558
  811POPC   PO414052   4.492   6.285   9.372
  811POPC   GL114053   4.416   5.918   9.100
  811POPC   GL214054   4.566   5.576   9.158
  811POPC   C1A14055   4.134   5.903   8.737
  811POPC   D2A14056   4.103   6.193   8.389
  811POPC   C3A14057   4.245   6.048   8.007
  811POPC   C4A14058   3.998   5.732   7.844
  811POPC   C1B14059   4.435   5.481   8.738
  811POPC   C2B14060   4.222   5.534   8.349
  811POPC   C3B14061   4.439   5.531   7.993
  811POPC   C4B14062   4.830   5.766   7.904
  812POPC   NC314063  25.229  10.199   9.574
  812POPC   PO414064  25.521  10.752   9.404
  812POPC   GL114065  25.196  10.550   9.194
  812POPC   GL214066  25.375  10.240   9.073
  812POPC   C1A14067  24.979  10.451   8.834
  812POPC   D2A14068  25.277  10.388   8.511
  812POPC   C3A14069  25.133  10.583   8.151
  812POPC   C4A14070  25.169  10.480   7.741
  812POPC   C1B14071  25.709  10.129   8.776
  812POPC   C2B14072  25.746  10.210   8.363
  812POPC   C3B14073  25.457  10.173   8.057
  812POPC   C4B14074  25.724  10.106   7.724
  813POPC   NC314075  13.764  12.490   9.238
  813POPC   PO414076  13.519  13.107   9.547
  813POPC   GL114077  13.565  13.032   9.127
  813POPC   GL214078  13.918  13.055   9.136
  813POPC   C1A14079  13.348  12.980   8.702
  813POPC   D2A14080  13.287  12.768   8.266
  813POPC   C3A14081  13.573  12.620   7.901
  813POPC   C4A14082  13.368  12.389   7.540
  813POPC   C1B14083  13.863  12.954   8.694
  813POPC   C2B14084  13.662  13.129   8.307
  813POPC   C3B14085  13.682  13.174   7.865
  813POPC   C4B14086  13.923  12.981   7.543
  814POPC   NC314087  33.271  29.511   9.325
  814POPC   PO414088  33.272  30.071   9.663
  814POPC   GL114089  33.023  29.991   9.229
  814POPC   GL214090  32.925  29.670   8.997
  814POPC   C1A14091  33.178  30.068   8.805
  814POPC   D2A14092  33.053  30.052   8.378
  814POPC   C3A14093  33.294  30.076   8.048
  814POPC   C4A14094  33.277  29.865   7.695
  814POPC   C1B14095  32.678  29.904   8.730
  814POPC   C2B14096  32.625  30.280   8.479
  814POPC   C3B14097  32.680  30.208   8.035
  814POPC   C4B14098  32.773  29.784   7.854
  815POPC   NC314099  24.911  14.927   9.711
  815POPC   PO414100  25.078  15.456   9.435
  815POPC   GL114101  25.285  15.104   9.160
  815POPC   GL214102  25.404  14.760   9.043
  815POPC   C1A14103  25.247  15.064   8.684
  815POPC   D2A14104  25.265  15.321   8.318
  815POPC   C3A14105  25.096  15.141   7.943
  815POPC   C4A14106  25.175  15.467   7.627
  815POPC   C1B14107  25.674  14.768   8.641
  815POPC   C2B14108  25.571  14.931   8.206
  815POPC   C3B14109  25.586  15.209   7.825
  815POPC   C4B14110  25.504  15.185   7.354
  816POPC   NC314111   8.136  25.504   9.398
  816POPC   PO414112   7.954  24.970   9.748
  816POPC   GL114113   7.962  25.020   9.290
  816POPC   GL214114   7.751  25.301   9.162
  816POPC   C1A14115   8.155  25.033   8.856
  816POPC   D2A14116   8.393  25.221   8.503
  816POPC   C3A14117   8.306  25.092   8.071
  816POPC   C4A14118   8.163  25.191   7.654
  816POPC   C1B14119   7.899  25.514   8.791
  816POPC   C2B14120   8.146  25.648   8.459
  816POPC   C3B14121   8.085  25.564   8.055
  816POPC   C4B14122   7.869  25.641   7.692
  817POPC   NC314123  37.111  38.170   9.435
  817POPC   PO414124  36.798  38.834   9.478
  817POPC   GL114125  36.779  38.545   9.145
  817POPC   GL214126  36.606  38.247   9.219
  817POPC   C1A14127  37.009  38.538   8.767
  817POPC   D2A14128  37.015  38.772   8.394
  817POPC   C3A14129  37.022  38.491   8.081
  817POPC   C4A14130  36.883  38.414   7.675
  817POPC   C1B14131  36.796  38.073   8.840
  817POPC   C2B14132  36.935  38.128   8.439
  817POPC   C3B14133  36.774  38.070   8.038
  817POPC   C4B14134  36.825  37.897   7.654
  818POPC   NC314135   9.379   7.312   9.404
  818POPC   PO414136   8.718   7.411   9.589
  818POPC   GL114137   8.845   7.271   9.164
  818POPC   GL214138   8.972   7.583   9.075
  818POPC   C1A14139   9.053   7.185   8.744
  818POPC   D2A14140   9.288   6.996   8.382
  818POPC   C3A14141   9.102   7.026   7.966
  818POPC   C4A14142   8.794   7.326   7.864
  818POPC   C1B14143   9.005   7.703   8.635
  818POPC   C2B14144   8.929   7.708   8.176
  818POPC   C3B14145   9.008   7.796   7.719
  818POPC   C4B14146   9.161   7.797   7.252
  819POPC   NC314147  18.942   5.560   9.414
  819POPC   PO414148  19.284   6.159   9.292
  819POPC   GL114149  18.982   5.926   9.047
  819POPC   GL214150  19.152   5.618   8.934
  819POPC   C1A14151  18.796   5.911   8.624
  819POPC   D2A14152  18.727   6.246   8.290
  819POPC   C3A14153  18.692   5.991   7.907
  819POPC   C4A14154  18.827   5.923   7.491
  819POPC   C1B14155  19.293   5.966   8.630
  819POPC   C2B14156  19.146   5.949   8.200
  819POPC   C3B14157  19.177   5.716   7.835
  819POPC   C4B14158  19.115   5.268   7.804
  820POPC   NC314159   8.656   6.823   9.890
  820POPC   PO414160   9.007   6.494   9.449
  820POPC   GL114161   8.882   6.480   9.049
  820POPC   GL214162   8.650   6.730   9.097
  820POPC   C1A14163   8.997   6.663   8.641
  820POPC   D2A14164   9.135   6.527   8.226
  820POPC   C3A14165   9.019   6.542   7.804
  820POPC   C4A14166   8.852   6.352   7.445
  820POPC   C1B14167   8.581   6.961   8.735
  820POPC   C2B14168   8.733   6.999   8.317
  820POPC   C3B14169   8.591   6.872   7.890
  820POPC   C4B14170   8.846   6.947   7.497
  821POPC   NC314171  22.887  37.605   9.545
  821POPC   PO414172  22.923  38.176   9.552
  821POPC   GL114173  23.088  37.956   9.160
  821POPC   GL214174  23.205  37.576   9.131
  821POPC   C1A14175  22.965  37.852   8.729
  821POPC   D2A14176  23.056  37.495   8.407
  821POPC   C3A14177  22.856  37.532   7.981
  821POPC   C4A14178  22.647  37.535   7.558
  821POPC   C1B14179  23.476  37.805   8.833
  821POPC   C2B14180  23.354  37.909   8.410
  821POPC   C3B14181  23.165  37.935   8.026
  821POPC   C4B14182  23.150  37.755   7.601
  822POPC   NC314183  24.408  29.997   9.535
  822POPC   PO414184  25.103  30.274   9.485
  822POPC   GL114185  24.735  30.157   9.094
  822POPC   GL214186  24.482  29.842   9.076
  822POPC   C1A14187  24.702  29.884   8.646
  822POPC   D2A14188  24.468  29.927   8.267
  822POPC   C3A14189  24.623  29.986   7.862
  822POPC   C4A14190  24.259  30.039   7.603
  822POPC   C1B14191  24.185  29.873   8.715
  822POPC   C2B14192  24.063  29.608   8.354
  822POPC   C3B14193  24.231  29.609   7.906
  822POPC   C4B14194  24.019  29.592   7.475
  823POPC   NC314195  26.726   7.642   9.299
  823POPC   PO414196  27.137   7.202   9.626
  823POPC   GL114197  27.074   7.227   9.177
  823POPC   GL214198  26.764   7.066   9.090
  823POPC   C1A14199  26.958   7.362   8.733
  823POPC   D2A14200  26.754   7.480   8.351
  823POPC   C3A14201  26.960   7.670   8.008
  823POPC   C4A14202  27.114   7.316   7.761
  823POPC   C1B14203  26.467   7.168   8.734
  823POPC   C2B14204  26.248   7.491   8.469
  823POPC   C3B14205  26.332   7.537   8.042
  823POPC   C4B14206  26.599   7.246   7.820
  824POPC   NC314207  44.226  38.253   9.459
  824POPC   PO414208  44.939  38.369   9.499
  824POPC   GL114209  44.899  38.470   9.080
  824POPC   GL214210  44.558  38.397   9.098
  824POPC   C1A14211  44.752  38.509   8.653
  824POPC   D2A14212  44.561  38.398   8.293
  824POPC   C3A14213  44.922  38.541   8.106
  824POPC   C4A14214   0.024  38.874   7.831
  824POPC   C1B14215  44.494  38.090   8.804
  824POPC   C2B14216  44.315  37.944   8.408
  824POPC   C3B14217  44.353  38.051   7.972
  824POPC   C4B14218  44.594  38.401   7.764
  825POPC   NC314219  13.952  35.833   9.459
  825POPC   PO414220  13.332  36.206   9.603
  825POPC   GL114221  13.399  36.127   9.151
  825POPC   GL214222  13.658  35.886   9.050
  825POPC   C1A14223  13.411  36.118   8.683
  825POPC   D2A14224  13.709  36.231   8.383
  825POPC   C3A14225  13.567  36.310   7.960
  825POPC   C4A14226  13.313  36.016   7.739
  825POPC   C1B14227  13.760  35.697   8.655
  825POPC   C2B14228  13.968  35.522   8.302
  825POPC   C3B14229  14.040  35.777   7.919
  825POPC   C4B14230  13.839  36.020   7.578
  826POPC   NC314231  22.240  12.592   9.441
  826POPC   PO414232  21.837  13.226   9.378
  826POPC   GL114233  22.018  12.915   9.109
  826POPC   GL214234  22.349  12.953   9.095
  826POPC   C1A14235  22.072  12.728   8.664
  826POPC   D2A14236  21.963  12.454   8.277
  826POPC   C3A14237  22.010  12.733   7.887
  826POPC   C4A14238  22.014  12.758   7.398
  826POPC   C1B14239  22.581  12.840   8.757
  826POPC   C2B14240  22.449  13.036   8.403
  826POPC   C3B14241  22.457  13.098   7.991
  826POPC   C4B14242  22.446  12.865   7.648
  827POPC   NC314243  30.419  43.505   9.476
  827POPC   PO414244  31.068  43.777   9.618
  827POPC   GL114245  30.876  44.030   9.281
  827POPC   GL214246  30.561  43.912   9.174
  827POPC   C1A14247  30.874  44.207   8.853
  827POPC   D2A14248  30.737  44.249   8.418
  827POPC   C3A14249  30.831  43.981   8.044
  827POPC   C4A14250  30.906  44.118   7.626
  827POPC   C1B14251  30.681  43.664   8.790
  827POPC   C2B14252  30.475  43.419   8.447
  827POPC   C3B14253  30.556  43.479   8.014
  827POPC   C4B14254  30.793  43.607   7.656
  828POPC   NC314255   3.273   1.672   9.427
  828POPC   PO414256   3.825   1.942   9.645
  828POPC   GL114257   3.636   1.982   9.223
  828POPC   GL214258   3.887   2.213   9.163
  828POPC   C1A14259   3.428   1.929   8.803
  828POPC   D2A14260   3.225   2.011   8.379
  828POPC   C3A14261   3.412   2.079   7.959
  828POPC   C4A14262   3.475   1.893   7.544
  828POPC   C1B14263   3.979   1.854   8.859
  828POPC   C2B14264   3.809   1.713   8.446
  828POPC   C3B14265   3.836   1.808   7.994
  828POPC   C4B14266   3.928   2.115   7.711
  829POPC   NC314267  31.758  27.659   9.911
  829POPC   PO414268  31.622  27.493   9.488
  829POPC   GL114269  31.501  27.610   9.020
  829POPC   GL214270  31.312  27.940   9.008
  829POPC   C1A14271  31.459  27.455   8.552
  829POPC   D2A14272  31.375  27.078   8.246
  829POPC   C3A14273  31.252  27.202   7.819
  829POPC   C4A14274  31.535  27.306   7.457
  829POPC   C1B14275  31.349  27.992   8.554
  829POPC   C2B14276  31.263  27.761   8.170
  829POPC   C3B14277  31.437  27.755   7.764
  829POPC   C4B14278  31.721  28.110   7.633
  830POPC   NC314279  14.996  14.281   9.927
  830POPC   PO414280  15.412  14.602   9.502
  830POPC   GL114281  15.409  14.413   9.129
  830POPC   GL214282  15.063  14.360   9.132
  830POPC   C1A14283  15.480  14.441   8.704
  830POPC   D2A14284  15.380  14.228   8.340
  830POPC   C3A14285  15.491  14.486   8.010
  830POPC   C4A14286  15.480  14.219   7.687
  830POPC   C1B14287  14.978  14.558   8.766
  830POPC   C2B14288  15.104  14.667   8.383
  830POPC   C3B14289  14.976  14.504   8.010
  830POPC   C4B14290  14.812  14.724   7.676
  831POPC   NC314291   1.526  42.925   9.383
  831POPC   PO414292   1.916  43.464   9.466
  831POPC   GL114293   1.902  43.265   9.062
  831POPC   GL214294   1.893  42.922   9.011
  831POPC   C1A14295   1.985  43.282   8.613
  831POPC   D2A14296   2.084  43.197   8.186
  831POPC   C3A14297   1.975  43.350   7.807
  831POPC   C4A14298   2.171  43.206   7.424
  831POPC   C1B14299   2.279  42.945   8.809
  831POPC   C2B14300   2.418  42.894   8.420
  831POPC   C3B14301   2.301  42.720   8.069
  831POPC   C4B14302   2.012  42.824   7.797
  832POPC   NC314303  17.995  40.999   9.568
  832POPC   PO414304  18.122  40.332   9.804
  832POPC   GL114305  18.206  40.569   9.339
  832POPC   GL214306  17.892  40.633   9.201
  832POPC   C1A14307  18.227  40.573   8.812
  832POPC   D2A14308  18.289  40.815   8.401
  832POPC   C3A14309  18.406  40.760   7.956
  832POPC   C4A14310  18.125  40.735   7.630
  832POPC   C1B14311  17.879  40.942   8.884
  832POPC   C2B14312  17.832  41.089   8.478
  832POPC   C3B14313  17.926  40.966   8.061
  832POPC   C4B14314  17.823  41.137   7.666
  833POPC   NC314315  42.168  11.973   9.678
  833POPC   PO414316  42.605  11.510   9.468
  833POPC   GL114317  42.484  11.921   9.253
  833POPC   GL214318  42.119  11.955   9.161
  833POPC   C1A14319  42.500  12.124   8.841
  833POPC   D2A14320  42.761  12.211   8.475
  833POPC   C3A14321  42.565  12.196   8.061
  833POPC   C4A14322  42.364  11.901   7.781
  833POPC   C1B14323  41.983  12.162   8.790
  833POPC   C2B14324  42.145  12.178   8.362
  833POPC   C3B14325  41.894  12.094   7.983
  833POPC   C4B14326  41.900  11.824   7.595
  834POPC   NC314327   6.234   7.157   9.427
  834POPC   PO414328   6.914   7.236   9.506
  834POPC   GL114329   6.666   7.446   9.214
  834POPC   GL214330   6.688   7.801   9.156
  834POPC   C1A14331   6.771   7.347   8.800
  834POPC   D2A14332   6.814   7.524   8.397
  834POPC   C3A14333   6.862   7.229   8.069
  834POPC   C4A14334   6.593   7.296   7.714
  834POPC   C1B14335   6.584   7.834   8.763
  834POPC   C2B14336   6.493   7.929   8.349
  834POPC   C3B14337   6.653   7.760   7.937
  834POPC   C4B14338   6.699   7.745   7.452
  835POPC   NC314339  12.575  34.942   9.479
  835POPC   PO414340  12.775  34.234   9.366
  835POPC   GL114341  12.717  34.404   9.007
  835POPC   GL214342  12.875  34.727   9.109
  835POPC   C1A14343  12.619  34.334   8.579
  835POPC   D2A14344  12.670  34.336   8.138
  835POPC   C3A14345  13.033  34.331   7.911
  835POPC   C4A14346  12.911  34.432   7.510
  835POPC   C1B14347  12.955  34.716   8.681
  835POPC   C2B14348  13.041  34.730   8.258
  835POPC   C3B14349  12.804  34.797   7.894
  835POPC   C4B14350  12.879  35.077   7.588
  836POPC   NC314351  11.960  18.247   9.770
  836POPC   PO414352  12.594  18.497   9.722
  836POPC   GL114353  12.349  18.587   9.287
  836POPC   GL214354  11.987  18.504   9.318
  836POPC   C1A14355  12.355  18.338   8.865
  836POPC   D2A14356  12.144  18.268   8.501
  836POPC   C3A14357  12.240  18.167   8.091
  836POPC   C4A14358  11.918  18.027   7.840
  836POPC   C1B14359  11.815  18.314   8.942
  836POPC   C2B14360  11.694  18.489   8.549
  836POPC   C3B14361  11.789  18.444   8.158
  836POPC   C4B14362  11.970  18.536   7.784
  837POPC   NC314363  24.092  11.946   9.525
  837POPC   PO414364  24.724  12.113   9.484
  837POPC   GL114365  24.444  12.007   9.165
  837POPC   GL214366  24.314  12.350   9.143
  837POPC   C1A14367  24.333  11.960   8.741
  837POPC   D2A14368  24.339  12.197   8.400
  837POPC   C3A14369  24.548  12.032   8.007
  837POPC   C4A14370  24.307  12.163   7.692
  837POPC   C1B14371  24.671  12.531   8.878
  837POPC   C2B14372  24.809  12.484   8.449
  837POPC   C3B14373  24.605  12.510   8.104
  837POPC   C4B14374  24.645  12.550   7.719
  838POPC   NC314375  12.688   3.982   9.740
  838POPC   PO414376  13.066   4.559   9.462
  838POPC   GL114377  12.992   4.474   8.982
  838POPC   GL214378  12.618   4.301   8.876
  838POPC   C1A14379  13.074   4.239   8.654
  838POPC   D2A14380  12.822   4.362   8.353
  838POPC   C3A14381  12.942   4.267   7.960
  838POPC   C4A14382  12.869   3.924   7.764
  838POPC   C1B14383  12.596   4.709   8.739
  838POPC   C2B14384  12.623   4.844   8.365
  838POPC   C3B14385  12.508   4.610   8.050
  838POPC   C4B14386  12.636   4.623   7.686
  839POPC   NC314387  14.131  28.144   9.791
  839POPC   PO414388  14.111  28.433   9.277
  839POPC   GL114389  14.326  28.404   8.961
  839POPC   GL214390  14.544  28.119   8.962
  839POPC   C1A14391  14.126  28.522   8.588
  839POPC   D2A14392  14.317  28.718   8.290
  839POPC   C3A14393  14.415  28.407   8.061
  839POPC   C4A14394  14.084  28.341   7.792
  839POPC   C1B14395  14.576  28.252   8.538
  839POPC   C2B14396  14.806  28.085   8.214
  839POPC   C3B14397  14.795  28.070   7.778
  839POPC   C4B14398  14.558  28.428   7.587
  840POPC   NC314399  37.481   0.249   9.422
  840POPC   PO414400  38.092   0.373   9.422
  840POPC   GL114401  37.874   0.432   9.085
  840POPC   GL214402  37.629   0.680   9.138
  840POPC   C1A14403  37.972   0.587   8.689
  840POPC   D2A14404  37.792   0.363   8.384
  840POPC   C3A14405  37.878   0.306   7.987
  840POPC   C4A14406  37.609   0.066   7.778
  840POPC   C1B14407  37.449   0.436   8.776
  840POPC   C2B14408  37.310   0.558   8.341
  840POPC   C3B14409  37.397   0.550   7.902
  840POPC   C4B14410  37.744   0.808   7.760
  841POPC   NC314411  33.268  30.546   9.649
  841POPC   PO414412  32.693  30.510   9.475
  841POPC   GL114413  33.026  30.604   9.169
  841POPC   GL214414  33.389  30.744   9.178
  841POPC   C1A14415  33.026  30.547   8.731
  841POPC   D2A14416  32.922  30.715   8.343
  841POPC   C3A14417  33.090  30.529   8.018
  841POPC   C4A14418  33.014  30.560   7.634
  841POPC   C1B14419  33.406  30.873   8.701
  841POPC   C2B14420  33.446  30.783   8.253
  841POPC   C3B14421  33.469  30.867   7.784
  841POPC   C4B14422  33.303  30.821   7.325
  842POPC   NC314423   1.419  24.377   9.410
  842POPC   PO414424   0.774  24.162   9.514
  842POPC   GL114425   1.018  24.283   9.096
  842POPC   GL214426   1.181  24.651   9.059
  842POPC   C1A14427   1.250  24.286   8.674
  842POPC   D2A14428   1.460  24.124   8.280
  842POPC   C3A14429   1.474  24.396   7.906
  842POPC   C4A14430   1.517  24.475   7.470
  842POPC   C1B14431   0.910  24.683   8.748
  842POPC   C2B14432   1.045  24.717   8.354
  842POPC   C3B14433   0.925  24.861   8.000
  842POPC   C4B14434   1.072  24.723   7.672
  843POPC   NC314435   9.277  30.661   9.842
  843POPC   PO414436   8.753  30.386   9.434
  843POPC   GL114437   8.784  30.560   9.024
  843POPC   GL214438   8.933  30.915   8.992
  843POPC   C1A14439   9.051  30.489   8.693
  843POPC   D2A14440   9.000  30.279   8.316
  843POPC   C3A14441   8.965  30.492   7.920
  843POPC   C4A14442   9.111  30.247   7.578
  843POPC   C1B14443   9.222  30.998   8.646
  843POPC   C2B14444   9.155  30.956   8.192
  843POPC   C3B14445   8.974  31.012   7.771
  843POPC   C4B14446   8.867  31.081   7.298
  844POPC   NC314447  33.131   5.481   9.586
  844POPC   PO414448  32.661   6.009   9.478
  844POPC   GL114449  32.914   5.767   9.210
  844POPC   GL214450  33.278   5.803   9.206
  844POPC   C1A14451  32.966   5.685   8.792
  844POPC   D2A14452  32.906   5.891   8.405
  844POPC   C3A14453  32.894   5.594   8.087
  844POPC   C4A14454  33.144   5.576   7.751
  844POPC   C1B14455  33.103   6.185   8.943
  844POPC   C2B14456  32.796   6.367   8.633
  844POPC   C3B14457  32.800   6.355   8.180
  844POPC   C4B14458  33.025   6.115   7.871
  845POPC   NC314459   4.020  38.920   9.219
  845POPC   PO414460   3.431  38.972   9.590
  845POPC   GL114461   3.259  39.019   9.182
  845POPC   GL214462   3.042  38.788   9.074
  845POPC   C1A14463   3.417  39.098   8.776
  845POPC   D2A14464   3.216  39.258   8.405
  845POPC   C3A14465   3.364  39.461   8.025
  845POPC   C4A14466   3.747  39.458   7.755
  845POPC   C1B14467   3.125  38.700   8.629
  845POPC   C2B14468   3.483  38.798   8.350
  845POPC   C3B14469   3.632  39.015   8.002
  845POPC   C4B14470   3.355  39.097   7.644
  846POPC   NC314471  13.094   5.049   9.518
  846POPC   PO414472  12.501   5.367   9.631
  846POPC   GL114473  12.641   5.198   9.160
  846POPC   GL214474  12.738   4.855   9.198
  846POPC   C1A14475  12.767   5.328   8.695
  846POPC   D2A14476  13.006   5.165   8.315
  846POPC   C3A14477  12.793   5.083   7.910
  846POPC   C4A14478  12.544   5.100   7.503
  846POPC   C1B14479  13.036   4.952   8.891
  846POPC   C2B14480  13.096   4.736   8.551
  846POPC   C3B14481  13.128   4.702   8.125
  846POPC   C4B14482  13.121   4.754   7.707
  847POPC   NC314483  13.533   4.512   9.484
  847POPC   PO414484  13.220   3.952   9.297
  847POPC   GL114485  13.420   4.223   9.073
  847POPC   GL214486  13.747   4.222   9.092
  847POPC   C1A14487  13.500   4.564   8.798
  847POPC   D2A14488  13.517   4.453   8.383
  847POPC   C3A14489  13.649   4.638   8.001
  847POPC   C4A14490  13.457   4.383   7.690
  847POPC   C1B14491  13.914   3.918   8.817
  847POPC   C2B14492  13.817   3.930   8.387
  847POPC   C3B14493  13.758   4.136   8.030
  847POPC   C4B14494  13.983   4.247   7.698
  848POPC   NC314495  41.147  42.952   9.535
  848POPC   PO414496  41.786  43.190   9.697
  848POPC   GL114497  41.839  43.217   9.223
  848POPC   GL214498  41.968  43.515   9.036
  848POPC   C1A14499  41.546  43.065   8.876
  848POPC   D2A14500  41.321  43.159   8.476
  848POPC   C3A14501  41.474  43.251   8.059
  848POPC   C4A14502  41.328  43.101   7.669
  848POPC   C1B14503  41.835  43.350   8.581
  848POPC   C2B14504  41.786  42.927   8.388
  848POPC   C3B14505  41.875  42.928   7.965
  848POPC   C4B14506  41.961  43.397   7.885
  849POPC   NC314507  39.961  13.321   9.490
  849POPC   PO414508  40.365  12.703   9.588
  849POPC   GL114509  40.108  12.845   9.240
  849POPC   GL214510  40.248  13.131   9.097
  849POPC   C1A14511  39.833  12.762   8.875
  849POPC   D2A14512  39.949  12.554   8.484
  849POPC   C3A14513  39.703  12.667   8.136
  849POPC   C4A14514  39.712  12.816   7.725
  849POPC   C1B14515  40.300  12.933   8.737
  849POPC   C2B14516  40.378  12.823   8.355
  849POPC   C3B14517  40.161  12.806   7.995
  849POPC   C4B14518  40.168  12.985   7.570
  850POPC   NC314519  24.120  42.838   9.217
  850POPC   PO414520  24.454  43.378   9.533
  850POPC   GL114521  24.477  43.411   9.107
  850POPC   GL214522  24.114  43.384   9.121
  850POPC   C1A14523  24.746  43.291   8.720
  850POPC   D2A14524  24.748  43.044   8.320
  850POPC   C3A14525  24.781  43.181   7.893
  850POPC   C4A14526  24.540  42.815   7.700
  850POPC   C1B14527  24.218  43.586   8.701
  850POPC   C2B14528  24.428  43.466   8.321
  850POPC   C3B14529  24.298  43.141   8.044
  850POPC   C4B14530  24.154  43.149   7.643
  851POPC   NC314531  26.408  12.988   9.492
  851POPC   PO414532  25.793  13.124   9.390
  851POPC   GL114533  26.066  12.967   9.090
  851POPC   GL214534  26.426  13.134   9.028
  851POPC   C1A14535  25.948  12.626   8.802
  851POPC   D2A14536  25.789  12.604   8.410
  851POPC   C3A14537  26.039  12.588   8.049
  851POPC   C4A14538  26.032  12.732   7.628
  851POPC   C1B14539  26.395  12.825   8.743
  851POPC   C2B14540  26.208  12.918   8.378
  851POPC   C3B14541  26.371  12.980   7.926
  851POPC   C4B14542  26.379  13.104   7.437
  852POPC   NC314543  11.905   3.375   9.599
  852POPC   PO414544  12.271   3.894   9.532
  852POPC   GL114545  12.092   3.613   9.200
  852POPC   GL214546  12.317   3.326   9.218
  852POPC   C1A14547  12.055   3.487   8.769
  852POPC   D2A14548  11.886   3.620   8.371
  852POPC   C3A14549  11.826   3.331   8.061
  852POPC   C4A14550  11.994   3.391   7.655
  852POPC   C1B14551  12.448   3.144   8.808
  852POPC   C2B14552  12.433   3.000   8.374
  852POPC   C3B14553  12.288   3.109   7.979
  852POPC   C4B14554  12.325   3.052   7.523
  853POPC   NC314555  41.159  21.110   9.461
  853POPC   PO414556  40.600  20.716   9.584
  853POPC   GL114557  40.623  20.705   9.172
  853POPC   GL214558  40.909  20.846   9.096
  853POPC   C1A14559  40.509  20.783   8.781
  853POPC   D2A14560  40.391  20.589   8.407
  853POPC   C3A14561  40.523  20.766   8.019
  853POPC   C4A14562  40.382  20.552   7.667
  853POPC   C1B14563  41.098  20.861   8.702
  853POPC   C2B14564  41.094  21.078   8.315
  853POPC   C3B14565  41.046  20.938   7.891
  853POPC   C4B14566  40.970  20.515   7.812
  854POPC   NC314567  42.639  18.627   9.404
  854POPC   PO414568  42.675  19.284   9.345
  854POPC   GL114569  42.391  19.006   9.069
  854POPC   GL214570  42.036  19.080   8.946
  854POPC   C1A14571  42.566  18.817   8.675
  854POPC   D2A14572  42.891  18.867   8.306
  854POPC   C3A14573  42.675  18.848   7.904
  854POPC   C4A14574  42.492  19.243   7.762
  854POPC   C1B14575  42.136  19.322   8.578
  854POPC   C2B14576  42.154  19.285   8.129
  854POPC   C3B14577  42.006  19.087   7.720
  854POPC   C4B14578  41.918  18.914   7.274
  855POPC   NC314579  34.196  23.461   9.526
  855POPC   PO414580  34.690  24.025   9.445
  855POPC   GL114581  34.501  23.826   9.111
  855POPC   GL214582  34.606  23.501   9.097
  855POPC   C1A14583  34.604  23.888   8.679
  855POPC   D2A14584  34.640  23.634   8.313
  855POPC   C3A14585  34.676  23.898   7.991
  855POPC   C4A14586  34.405  24.014   7.712
  855POPC   C1B14587  34.440  23.349   8.720
  855POPC   C2B14588  34.215  23.331   8.319
  855POPC   C3B14589  34.242  23.546   7.932
  855POPC   C4B14590  34.568  23.481   7.647
  856POPC   NC314591  33.968  25.367   9.509
  856POPC   PO414592  33.964  24.636   9.577
  856POPC   GL114593  33.848  24.912   9.210
  856POPC   GL214594  34.095  25.129   9.090
  856POPC   C1A14595  33.731  25.060   8.759
  856POPC   D2A14596  33.942  25.200   8.369
  856POPC   C3A14597  33.743  25.245   7.940
  856POPC   C4A14598  33.884  25.164   7.505
  856POPC   C1B14599  34.070  25.460   8.780
  856POPC   C2B14600  34.202  25.729   8.475
  856POPC   C3B14601  34.223  25.530   8.112
  856POPC   C4B14602  34.052  25.595   7.744
  857POPC   NC314603  31.661  29.720   9.520
  857POPC   PO414604  31.330  30.324   9.490
  857POPC   GL114605  31.410  30.023   9.157
  857POPC   GL214606  31.438  29.636   9.073
  857POPC   C1A14607  31.649  30.082   8.790
  857POPC   D2A14608  31.820  29.802   8.479
  857POPC   C3A14609  31.591  29.850   8.092
  857POPC   C4A14610  31.649  30.067   7.726
  857POPC   C1B14611  31.254  29.756   8.668
  857POPC   C2B14612  31.032  29.720   8.242
  857POPC   C3B14613  31.145  29.852   7.814
  857POPC   C4B14614  31.388  29.763   7.419
  858POPC   NC314615   5.388  10.783   9.584
  858POPC   PO414616   6.056  10.457   9.508
  858POPC   GL114617   6.050  10.690   9.146
  858POPC   GL214618   5.686  10.660   9.175
  858POPC   C1A14619   6.220  10.567   8.735
  858POPC   D2A14620   6.167  10.339   8.336
  858POPC   C3A14621   6.194  10.568   7.934
  858POPC   C4A14622   6.045  10.794   7.525
  858POPC   C1B14623   5.716  10.766   8.752
  858POPC   C2B14624   5.691  10.594   8.340
  858POPC   C3B14625   5.740  10.797   7.961
  858POPC   C4B14626   5.544  10.777   7.580
  859POPC   NC314627   5.135  12.823   9.659
  859POPC   PO414628   5.462  13.311   9.342
  859POPC   GL114629   5.197  12.958   9.145
  859POPC   GL214630   4.827  12.882   9.239
  859POPC   C1A14631   5.056  12.824   8.725
  859POPC   D2A14632   5.058  12.998   8.294
  859POPC   C3A14633   5.054  12.703   7.946
  859POPC   C4A14634   5.399  12.671   7.666
  859POPC   C1B14635   4.628  13.087   8.869
  859POPC   C2B14636   4.568  13.029   8.412
  859POPC   C3B14637   4.646  13.022   7.952
  859POPC   C4B14638   4.619  12.716   7.599
  860POPC   NC314639  42.453   0.971   9.884
  860POPC   PO414640  41.947   1.369   9.671
  860POPC   GL114641  42.263   1.189   9.301
  860POPC   GL214642  42.525   1.460   9.187
  860POPC   C1A14643  42.476   1.044   8.884
  860POPC   D2A14644  42.497   1.183   8.479
  860POPC   C3A14645  42.366   0.929   8.146
  860POPC   C4A14646  42.325   0.818   7.713
  860POPC   C1B14647  42.434   1.643   8.750
  860POPC   C2B14648  42.097   1.499   8.485
  860POPC   C3B14649  42.032   1.335   8.100
  860POPC   C4B14650  42.337   1.336   7.797
  861POPC   NC314651  10.858  31.834   9.465
  861POPC   PO414652  10.369  32.316   9.579
  861POPC   GL114653  10.383  32.243   9.170
  861POPC   GL214654  10.421  31.898   9.182
  861POPC   C1A14655  10.273  32.377   8.771
  861POPC   D2A14656  10.520  32.398   8.399
  861POPC   C3A14657  10.413  32.583   8.018
  861POPC   C4A14658  10.616  32.431   7.598
  861POPC   C1B14659  10.495  31.907   8.734
  861POPC   C2B14660  10.250  31.976   8.351
  861POPC   C3B14661  10.367  32.076   7.920
  861POPC   C4B14662  10.631  31.887   7.653
  862POPC   NC314663  38.968  31.149   9.489
  862POPC   PO414664  39.578  31.160   9.372
  862POPC   GL114665  39.214  31.287   9.061
  862POPC   GL214666  38.920  31.081   8.989
  862POPC   C1A14667  39.065  31.512   8.701
  862POPC   D2A14668  39.230  31.726   8.350
  862POPC   C3A14669  39.261  31.573   7.915
  862POPC   C4A14670  39.258  31.514   7.441
  862POPC   C1B14671  39.196  31.000   8.640
  862POPC   C2B14672  39.187  31.204   8.293
  862POPC   C3B14673  39.026  31.107   7.928
  862POPC   C4B14674  38.884  31.215   7.579
  863POPC   NC314675  41.927  19.063   9.434
  863POPC   PO414676  41.289  18.761   9.499
  863POPC   GL114677  41.528  18.842   9.149
  863POPC   GL214678  41.533  19.199   9.122
  863POPC   C1A14679  41.612  18.871   8.725
  863POPC   D2A14680  41.753  19.065   8.350
  863POPC   C3A14681  41.606  18.898   8.005
  863POPC   C4A14682  41.487  18.922   7.603
  863POPC   C1B14683  41.563  19.377   8.699
  863POPC   C2B14684  41.740  19.586   8.356
  863POPC   C3B14685  41.695  19.424   7.954
  863POPC   C4B14686  41.312  19.368   7.805
  864POPC   NC314687   1.308   7.182   9.368
  864POPC   PO414688   1.451   7.776   9.380
  864POPC   GL114689   1.309   7.591   9.048
  864POPC   GL214690   1.005   7.495   9.115
  864POPC   C1A14691   1.195   7.640   8.651
  864POPC   D2A14692   1.399   7.374   8.397
  864POPC   C3A14693   1.275   7.437   8.012
  864POPC   C4A14694   1.378   7.132   7.756
  864POPC   C1B14695   0.959   7.198   8.781
  864POPC   C2B14696   0.854   7.323   8.373
  864POPC   C3B14697   0.762   7.464   7.972
  864POPC   C4B14698   0.869   7.149   7.703
  865POPC   NC314699  34.345  34.983   9.441
  865POPC   PO414700  34.173  34.310   9.532
  865POPC   GL114701  34.226  34.575   9.164
  865POPC   GL214702  34.574  34.639   9.108
  865POPC   C1A14703  34.202  34.640   8.718
  865POPC   D2A14704  34.429  34.443   8.342
  865POPC   C3A14705  34.309  34.399   7.892
  865POPC   C4A14706  34.491  34.588   7.502
  865POPC   C1B14707  34.695  34.793   8.684
  865POPC   C2B14708  34.723  34.865   8.264
  865POPC   C3B14709  34.765  34.609   7.943
  865POPC   C4B14710  35.002  34.570   7.591
  866POPC   NC314711  22.351   3.395   9.467
  866POPC   PO414712  22.175   4.085   9.649
  866POPC   GL114713  22.256   3.819   9.231
  866POPC   GL214714  22.040   3.554   9.079
  866POPC   C1A14715  22.417   3.761   8.809
  866POPC   D2A14716  22.122   3.747   8.502
  866POPC   C3A14717  22.269   3.784   8.118
  866POPC   C4A14718  22.189   3.513   7.811
  866POPC   C1B14719  22.181   3.272   8.747
  866POPC   C2B14720  22.281   3.262   8.316
  866POPC   C3B14721  22.142   3.049   7.974
  866POPC   C4B14722  22.307   3.086   7.559
  867POPC   NC314723  24.446  40.400   9.593
  867POPC   PO414724  24.675  39.810   9.529
  867POPC   GL114725  24.435  39.954   9.154
  867POPC   GL214726  24.226  40.242   9.142
  867POPC   C1A14727  24.535  39.856   8.701
  867POPC   D2A14728  24.548  40.013   8.280
  867POPC   C3A14729  24.722  39.891   7.877
  867POPC   C4A14730  24.482  39.956   7.451
  867POPC   C1B14731  24.372  40.365   8.726
  867POPC   C2B14732  24.344  40.463   8.270
  867POPC   C3B14733  24.357  40.278   7.842
  867POPC   C4B14734  24.218  40.394   7.406
  868POPC   NC314735  10.926   3.699   9.570
  868POPC   PO414736  11.585   3.704   9.572
  868POPC   GL114737  11.308   3.704   9.209
  868POPC   GL214738  11.483   3.976   9.110
  868POPC   C1A14739  11.182   3.497   8.793
  868POPC   D2A14740  11.400   3.460   8.378
  868POPC   C3A14741  11.178   3.481   7.979
  868POPC   C4A14742  11.104   3.382   7.525
  868POPC   C1B14743  11.615   3.768   8.792
  868POPC   C2B14744  11.539   3.976   8.435
  868POPC   C3B14745  11.459   3.925   8.033
  868POPC   C4B14746  11.587   3.665   7.745
  869POPC   NC314747   9.215  11.154   9.469
  869POPC   PO414748   8.622  11.247   9.751
  869POPC   GL114749   8.727  11.260   9.245
  869POPC   GL214750   9.015  11.458   9.115
  869POPC   C1A14751   8.646  11.360   8.805
  869POPC   D2A14752   8.872  11.569   8.488
  869POPC   C3A14753   8.654  11.500   8.119
  869POPC   C4A14754   8.818  11.273   7.810
  869POPC   C1B14755   9.099  11.134   8.811
  869POPC   C2B14756   9.091  11.007   8.382
  869POPC   C3B14757   9.253  11.049   7.988
  869POPC   C4B14758   9.292  11.469   7.801
  870POPC   NC314759   3.825  34.449   9.576
  870POPC   PO414760   3.244  34.402   9.558
  870POPC   GL114761   3.449  34.627   9.215
  870POPC   GL214762   3.815  34.653   9.117
  870POPC   C1A14763   3.373  34.582   8.772
  870POPC   D2A14764   3.082  34.512   8.395
  870POPC   C3A14765   3.178  34.735   8.011
  870POPC   C4A14766   3.146  34.620   7.557
  870POPC   C1B14767   4.054  34.586   8.758
  870POPC   C2B14768   4.085  34.312   8.387
  870POPC   C3B14769   3.941  34.390   7.980
  870POPC   C4B14770   3.639  34.657   7.764
  871POPC   NC314771   4.026  21.934   9.489
  871POPC   PO414772   4.719  21.879   9.410
  871POPC   GL114773   4.405  22.127   9.138
  871POPC   GL214774   4.036  22.279   9.120
  871POPC   C1A14775   4.435  22.160   8.687
  871POPC   D2A14776   4.428  22.013   8.257
  871POPC   C3A14777   4.503  22.260   7.877
  871POPC   C4A14778   4.721  22.470   7.505
  871POPC   C1B14779   3.942  22.111   8.775
  871POPC   C2B14780   4.015  22.329   8.414
  871POPC   C3B14781   3.961  22.125   8.051
  871POPC   C4B14782   4.027  22.304   7.687
  872POPC   NC314783  35.039   6.943   9.713
  872POPC   PO414784  35.456   7.511   9.511
  872POPC   GL114785  35.501   7.351   9.122
  872POPC   GL214786  35.576   7.008   9.176
  872POPC   C1A14787  35.364   7.225   8.694
  872POPC   D2A14788  35.292   7.171   8.275
  872POPC   C3A14789  35.366   7.563   8.157
  872POPC   C4A14790  35.399   7.521   7.766
  872POPC   C1B14791  35.849   7.174   8.812
  872POPC   C2B14792  35.798   7.346   8.399
  872POPC   C3B14793  35.908   7.399   7.992
  872POPC   C4B14794  35.778   7.151   7.655
  873POPC   NC314795  26.317  31.160   9.406
  873POPC   PO414796  25.942  30.678   9.727
  873POPC   GL114797  25.987  30.651   9.277
  873POPC   GL214798  26.161  30.864   9.061
  873POPC   C1A14799  25.881  30.575   8.803
  873POPC   D2A14800  25.966  30.781   8.428
  873POPC   C3A14801  25.815  30.644   8.034
  873POPC   C4A14802  25.983  30.575   7.655
  873POPC   C1B14803  26.339  31.077   8.745
  873POPC   C2B14804  26.458  31.021   8.348
  873POPC   C3B14805  26.320  30.781   8.017
  873POPC   C4B14806  26.333  31.008   7.643
  874POPC   NC314807  37.006  12.442   9.446
  874POPC   PO414808  37.263  11.854   9.322
  874POPC   GL114809  37.185  12.186   9.042
  874POPC   GL214810  36.835  12.179   9.036
  874POPC   C1A14811  37.115  12.186   8.601
  874POPC   D2A14812  37.224  12.148   8.205
  874POPC   C3A14813  36.969  11.812   8.109
  874POPC   C4A14814  36.597  11.815   7.901
  874POPC   C1B14815  36.644  12.371   8.666
  874POPC   C2B14816  36.664  12.230   8.219
  874POPC   C3B14817  36.875  12.302   7.805
  874POPC   C4B14818  36.671  12.508   7.404
  875POPC   NC314819  29.078  42.511   9.617
  875POPC   PO414820  29.107  41.891   9.476
  875POPC   GL114821  28.925  42.261   9.196
  875POPC   GL214822  28.978  42.661   9.152
  875POPC   C1A14823  28.837  42.225   8.779
  875POPC   D2A14824  29.066  42.082   8.450
  875POPC   C3A14825  28.969  42.282   8.062
  875POPC   C4A14826  29.142  42.174   7.683
  875POPC   C1B14827  29.280  42.449   8.883
  875POPC   C2B14828  29.165  42.568   8.484
  875POPC   C3B14829  29.296  42.683   8.085
  875POPC   C4B14830  29.377  42.632   7.680
  876POPC   NC314831  25.968   4.569   9.603
  876POPC   PO414832  26.212   4.000   9.382
  876POPC   GL114833  26.251   4.212   9.042
  876POPC   GL214834  25.979   4.441   9.099
  876POPC   C1A14835  26.359   3.962   8.699
  876POPC   D2A14836  26.258   3.918   8.272
  876POPC   C3A14837  25.967   4.189   8.095
  876POPC   C4A14838  26.080   4.330   7.699
  876POPC   C1B14839  25.907   4.318   8.658
  876POPC   C2B14840  25.960   4.618   8.362
  876POPC   C3B14841  25.987   4.769   7.971
  876POPC   C4B14842  25.724   4.707   7.653
  877POPC   NC314843   3.060   0.909   9.508
  877POPC   PO414844   3.760   1.100   9.416
  877POPC   GL114845   3.480   0.905   9.134
  877POPC   GL214846   3.261   1.199   9.145
  877POPC   C1A14847   3.396   0.949   8.687
  877POPC   D2A14848   3.214   1.048   8.301
  877POPC   C3A14849   3.450   1.097   7.960
  877POPC   C4A14850   3.689   1.404   7.732
  877POPC   C1B14851   3.519   1.418   8.855
  877POPC   C2B14852   3.334   1.511   8.493
  877POPC   C3B14853   3.342   1.582   8.073
  877POPC   C4B14854   3.186   1.458   7.661
  878POPC   NC314855  19.786  35.564   9.452
  878POPC   PO414856  20.198  35.020   9.520
  878POPC   GL114857  20.060  35.229   9.134
  878POPC   GL214858  19.685  35.271   9.014
  878POPC   C1A14859  20.072  35.346   8.705
  878POPC   D2A14860  19.715  35.318   8.421
  878POPC   C3A14861  19.937  35.339   8.030
  878POPC   C4A14862  20.147  35.622   7.739
  878POPC   C1B14863  19.666  35.694   8.830
  878POPC   C2B14864  19.757  35.854   8.442
  878POPC   C3B14865  19.608  35.746   8.047
  878POPC   C4B14866  19.729  35.892   7.643
  879POPC   NC314867  34.395  24.462   9.505
  879POPC   PO414868  34.947  24.806   9.481
  879POPC   GL114869  34.769  24.597   9.133
  879POPC   GL214870  34.458  24.776   9.097
  879POPC   C1A14871  34.731  24.615   8.673
  879POPC   D2A14872  34.629  24.301   8.358
  879POPC   C3A14873  34.759  24.411   7.962
  879POPC   C4A14874  34.772  24.305   7.519
  879POPC   C1B14875  34.260  24.859   8.685
  879POPC   C2B14876  34.145  24.492   8.426
  879POPC   C3B14877  34.230  24.366   8.018
  879POPC   C4B14878  34.351  24.591   7.687
  880POPC   NC314879   9.422  12.131   9.510
  880POPC   PO414880   9.992  11.641   9.583
  880POPC   GL114881   9.867  11.963   9.245
  880POPC   GL214882   9.502  11.969   9.036
  880POPC   C1A14883   9.946  12.141   8.819
  880POPC   D2A14884   9.764  11.953   8.444
  880POPC   C3A14885   9.929  12.139   8.040
  880POPC   C4A14886   9.702  12.395   7.753
  880POPC   C1B14887   9.342  11.619   8.755
  880POPC   C2B14888   9.400  11.539   8.307
  880POPC   C3B14889   9.503  11.880   7.994
  880POPC   C4B14890   9.554  11.958   7.544
  881POPC   NC314891  13.300  38.841   9.632
  881POPC   PO414892  12.650  39.099   9.628
  881POPC   GL114893  12.809  39.025   9.141
  881POPC   GL214894  12.521  38.933   8.921
  881POPC   C1A14895  12.953  39.207   8.760
  881POPC   D2A14896  13.150  39.317   8.372
  881POPC   C3A14897  12.856  39.368   8.027
  881POPC   C4A14898  12.813  39.624   7.668
  881POPC   C1B14899  12.421  38.591   8.617
  881POPC   C2B14900  12.556  38.647   8.188
  881POPC   C3B14901  12.779  38.897   7.844
  881POPC   C4B14902  12.694  38.852   7.389
  882POPC   NC314903   0.165  30.223   9.574
  882POPC   PO414904   0.407  30.789   9.404
  882POPC   GL114905   0.547  30.614   9.006
  882POPC   GL214906   0.532  30.273   9.067
  882POPC   C1A14907   0.737  30.472   8.590
  882POPC   D2A14908   0.647  30.358   8.151
  882POPC   C3A14909   0.467  30.631   7.871
  882POPC   C4A14910   0.217  30.633   7.495
  882POPC   C1B14911   0.242  30.311   8.731
  882POPC   C2B14912   0.041  30.234   8.310
  882POPC   C3B14913   0.135  30.245   7.868
  882POPC   C4B14914   0.124  30.137   7.404
  883POPC   NC314915  30.687  41.200   9.456
  883POPC   PO414916  30.863  40.518   9.378
  883POPC   GL114917  30.619  40.816   9.122
  883POPC   GL214918  30.350  41.103   9.074
  883POPC   C1A14919  30.697  40.922   8.707
  883POPC   D2A14920  31.025  40.807   8.428
  883POPC   C3A14921  30.951  40.642   8.042
  883POPC   C4A14922  31.037  40.994   7.817
  883POPC   C1B14923  30.224  40.714   8.827
  883POPC   C2B14924  30.437  40.562   8.458
  883POPC   C3B14925  30.446  40.771   8.093
  883POPC   C4B14926  30.262  40.720   7.729
  884POPC   NC314927  29.021   7.433   9.528
  884POPC   PO414928  29.648   7.566   9.438
  884POPC   GL114929  29.306   7.473   9.106
  884POPC   GL214930  28.981   7.669   9.071
  884POPC   C1A14931  29.136   7.380   8.671
  884POPC   D2A14932  29.150   7.531   8.243
  884POPC   C3A14933  28.849   7.467   7.915
  884POPC   C4A14934  28.779   7.047   7.708
  884POPC   C1B14935  29.109   7.900   8.705
  884POPC   C2B14936  29.337   7.992   8.317
  884POPC   C3B14937  29.142   7.921   7.899
  884POPC   C4B14938  29.196   7.721   7.502
  885POPC   NC314939  37.096   4.277   9.575
  885POPC   PO414940  36.525   4.201   9.336
  885POPC   GL114941  36.810   4.384   9.067
  885POPC   GL214942  37.169   4.462   9.090
  885POPC   C1A14943  36.662   4.388   8.668
  885POPC   D2A14944  36.426   4.430   8.327
  885POPC   C3A14945  36.626   4.313   7.996
  885POPC   C4A14946  36.614   4.174   7.564
  885POPC   C1B14947  37.173   4.410   8.643
  885POPC   C2B14948  37.175   4.298   8.223
  885POPC   C3B14949  37.057   4.535   7.842
  885POPC   C4B14950  36.890   4.659   7.432
  886POPC   NC314951  35.421  21.993   9.417
  886POPC   PO414952  34.890  22.433   9.475
  886POPC   GL114953  35.087  22.342   9.090
  886POPC   GL214954  35.420  22.402   9.101
  886POPC   C1A14955  35.084  22.107   8.702
  886POPC   D2A14956  34.863  22.112   8.287
  886POPC   C3A14957  35.164  22.226   7.964
  886POPC   C4A14958  35.452  22.239   7.634
  886POPC   C1B14959  35.612  22.249   8.726
  886POPC   C2B14960  35.571  22.162   8.291
  886POPC   C3B14961  35.650  21.880   7.944
  886POPC   C4B14962  35.686  21.829   7.451
  887POPC   NC314963  15.562  36.741   9.434
  887POPC   PO414964  15.080  37.086   9.733
  887POPC   GL114965  15.131  37.141   9.266
  887POPC   GL214966  15.416  37.057   9.075
  887POPC   C1A14967  15.018  37.167   8.790
  887POPC   D2A14968  15.267  37.083   8.415
  887POPC   C3A14969  15.294  36.882   7.991
  887POPC   C4A14970  15.477  36.816   7.569
  887POPC   C1B14971  15.539  36.750   8.769
  887POPC   C2B14972  15.667  36.765   8.368
  887POPC   C3B14973  15.672  36.534   8.049
  887POPC   C4B14974  15.852  36.513   7.696
  888POPC   NC314975  17.709  13.575   9.624
  888POPC   PO414976  17.235  14.068   9.421
  888POPC   GL114977  17.502  13.779   9.198
  888POPC   GL214978  17.305  13.522   9.301
  888POPC   C1A14979  17.652  13.598   8.791
  888POPC   D2A14980  17.667  13.825   8.417
  888POPC   C3A14981  17.506  13.646   8.046
  888POPC   C4A14982  17.584  13.622   7.592
  888POPC   C1B14983  17.170  13.422   8.868
  888POPC   C2B14984  17.292  13.346   8.441
  888POPC   C3B14985  17.155  13.256   8.031
  888POPC   C4B14986  17.358  13.178   7.685
  889POPC   NC314987   4.182  39.791   9.423
  889POPC   PO414988   4.708  40.115   9.289
  889POPC   GL114989   4.576  39.745   9.073
  889POPC   GL214990   4.233  39.656   8.927
  889POPC   C1A14991   4.619  39.855   8.684
  889POPC   D2A14992   4.638  40.182   8.434
  889POPC   C3A14993   4.644  40.000   8.042
  889POPC   C4A14994   4.537  40.155   7.666
  889POPC   C1B14995   4.179  40.116   8.836
  889POPC   C2B14996   4.091  40.338   8.453
  889POPC   C3B14997   3.962  40.172   8.065
  889POPC   C4B14998   4.104  39.847   7.751
  890POPC   NC314999  12.998  39.370   9.458
  890POPC   PO415000  12.784  40.012   9.380
  890POPC   GL115001  12.925  40.064   8.993
  890POPC   GL215002  12.967  40.406   9.005
  890POPC   C1A15003  12.947  40.086   8.582
  890POPC   D2A15004  12.764  39.821   8.279
  890POPC   C3A15005  12.722  40.044   7.896
  890POPC   C4A15006  12.757  40.026   7.389
  890POPC   C1B15007  13.242  40.510   8.695
  890POPC   C2B15008  13.491  40.432   8.362
  890POPC   C3B15009  13.261  40.277   8.011
  890POPC   C4B15010  12.953  40.434   7.706
  891POPC   NC315011   8.705   3.588   9.960
  891POPC   PO415012   9.195   3.546   9.467
  891POPC   GL115013   9.180   3.703   9.070
  891POPC   GL215014   8.810   3.788   9.026
  891POPC   C1A15015   9.142   3.563   8.643
  891POPC   D2A15016   8.836   3.664   8.344
  891POPC   C3A15017   8.930   3.414   8.017
  891POPC   C4A15018   8.701   3.233   7.709
  891POPC   C1B15019   9.058   4.073   8.749
  891POPC   C2B15020   9.169   4.068   8.339
  891POPC   C3B15021   9.105   3.890   7.926
  891POPC   C4B15022   8.727   3.781   7.717
  892POPC   NC315023  33.665  12.705   9.702
  892POPC   PO415024  33.597  13.241   9.352
  892POPC   GL115025  33.941  12.999   9.226
  892POPC   GL215026  33.949  12.637   9.247
  892POPC   C1A15027  33.888  12.965   8.809
  892POPC   D2A15028  33.992  12.756   8.445
  892POPC   C3A15029  34.106  12.997   8.079
  892POPC   C4A15030  34.128  12.810   7.683
  892POPC   C1B15031  33.714  12.484   8.879
  892POPC   C2B15032  33.580  12.461   8.442
  892POPC   C3B15033  33.664  12.619   8.028
  892POPC   C4B15034  33.358  12.737   7.746
  893POPC   NC315035  37.396   7.695   9.550
  893POPC   PO415036  37.810   7.152   9.489
  893POPC   GL115037  37.537   7.343   9.173
  893POPC   GL215038  37.712   7.676   9.124
  893POPC   C1A15039  37.410   7.486   8.738
  893POPC   D2A15040  37.575   7.586   8.331
  893POPC   C3A15041  37.422   7.415   7.965
  893POPC   C4A15042  37.488   7.602   7.570
  893POPC   C1B15043  37.933   7.499   8.737
  893POPC   C2B15044  38.076   7.428   8.306
  893POPC   C3B15045  37.917   7.562   7.926
  893POPC   C4B15046  37.877   7.927   7.697
  894POPC   NC315047  20.423  15.738  10.019
  894POPC   PO415048  20.753  16.218   9.736
  894POPC   GL115049  20.741  16.226   9.297
  894POPC   GL215050  20.468  16.008   9.246
  894POPC   C1A15051  20.795  16.088   8.859
  894POPC   D2A15052  20.727  16.252   8.465
  894POPC   C3A15053  20.840  16.040   8.123
  894POPC   C4A15054  20.627  16.115   7.779
  894POPC   C1B15055  20.468  15.695   8.929
  894POPC   C2B15056  20.334  15.644   8.521
  894POPC   C3B15057  20.414  15.699   8.096
  894POPC   C4B15058  20.127  15.449   7.880
  895POPC   NC315059  14.104  30.734   9.562
  895POPC   PO415060  14.782  30.765   9.488
  895POPC   GL115061  14.454  30.619   9.189
  895POPC   GL215062  14.119  30.475   9.138
  895POPC   C1A15063  14.453  30.576   8.745
  895POPC   D2A15064  14.462  30.843   8.373
  895POPC   C3A15065  14.678  30.712   7.994
  895POPC   C4A15066  14.508  30.655   7.589
  895POPC   C1B15067  13.906  30.431   8.794
  895POPC   C2B15068  14.069  30.490   8.404
  895POPC   C3B15069  14.179  30.600   8.006
  895POPC   C4B15070  13.976  30.647   7.663
  896POPC   NC315071  43.326  25.682   9.346
  896POPC   PO415072  43.955  25.442   9.470
  896POPC   GL115073  44.023  25.293   9.078
  896POPC   GL215074  43.945  24.938   9.183
  896POPC   C1A15075  44.167  25.315   8.678
  896POPC   D2A15076  44.357  25.448   8.314
  896POPC   C3A15077  44.035  25.415   8.046
  896POPC   C4A15078  44.035  25.571   7.680
  896POPC   C1B15079  43.811  24.945   8.773
  896POPC   C2B15080  43.780  25.133   8.382
  896POPC   C3B15081  43.561  25.077   8.002
  896POPC   C4B15082  43.664  24.806   7.646
  897POPC   NC315083   3.025  44.386   9.523
  897POPC   PO415084   2.601  44.905   9.591
  897POPC   GL115085   2.807  44.747   9.218
  897POPC   GL215086   2.643  44.440   9.164
  897POPC   C1A15087   2.685  44.783   8.773
  897POPC   D2A15088   2.713   0.067   8.434
  897POPC   C3A15089   2.541  44.928   8.059
  897POPC   C4A15090   2.445  44.631   7.748
  897POPC   C1B15091   2.731  44.284   8.772
  897POPC   C2B15092   2.542  44.394   8.411
  897POPC   C3B15093   2.683  44.226   8.032
  897POPC   C4B15094   2.925  44.480   7.822
  898POPC   NC315095  31.098  30.981   9.565
  898POPC   PO415096  30.652  30.569   9.731
  898POPC   GL115097  30.652  30.594   9.282
  898POPC   GL215098  30.992  30.592   9.233
  898POPC   C1A15099  30.683  30.596   8.823
  898POPC   D2A15100  30.533  30.793   8.415
  898POPC   C3A15101  30.468  30.581   8.025
  898POPC   C4A15102  30.614  30.765   7.648
  898POPC   C1B15103  31.120  30.845   8.885
  898POPC   C2B15104  31.054  30.714   8.478
  898POPC   C3B15105  30.944  30.698   8.078
  898POPC   C4B15106  31.123  30.725   7.709
  899POPC   NC315107  15.013   1.786   9.950
  899POPC   PO415108  15.311   2.255   9.492
  899POPC   GL115109  15.180   2.137   9.081
  899POPC   GL215110  15.191   1.790   9.087
  899POPC   C1A15111  15.395   2.018   8.701
  899POPC   D2A15112  15.221   1.819   8.388
  899POPC   C3A15113  15.416   1.952   8.023
  899POPC   C4A15114  15.480   2.186   7.623
  899POPC   C1B15115  14.916   1.525   8.820
  899POPC   C2B15116  14.762   1.593   8.391
  899POPC   C3B15117  14.933   1.740   7.980
  899POPC   C4B15118  15.119   1.825   7.613
  900POPC   NC315119   2.969  13.041   9.318
  900POPC   PO415120   2.269  13.135   9.300
  900POPC   GL115121   2.549  12.994   8.995
  900POPC   GL215122   2.763  12.717   8.953
  900POPC   C1A15123   2.823  13.178   8.701
  900POPC   D2A15124   2.896  12.947   8.353
  900POPC   C3A15125   3.036  13.217   8.062
  900POPC   C4A15126   2.708  13.139   7.810
  900POPC   C1B15127   2.441  12.563   8.732
  900POPC   C2B15128   2.393  12.751   8.366
  900POPC   C3B15129   2.561  12.689   7.979
  900POPC   C4B15130   2.553  12.532   7.586
  901POPC   NC315131  27.918  16.596   9.461
  901POPC   PO415132  27.230  16.713   9.527
  901POPC   GL115133  27.302  16.837   9.120
  901POPC   GL215134  27.656  16.828   9.089
  901POPC   C1A15135  27.398  17.027   8.717
  901POPC   D2A15136  27.641  16.804   8.432
  901POPC   C3A15137  27.449  16.809   8.059
  901POPC   C4A15138  27.437  16.988   7.666
  901POPC   C1B15139  27.877  16.535   8.825
  901POPC   C2B15140  28.036  16.480   8.435
  901POPC   C3B15141  27.908  16.470   8.015
  901POPC   C4B15142  27.662  16.550   7.658
  902POPC   NC315143  44.967  24.262   9.359
  902POPC   PO415144  44.411  24.679   9.431
  902POPC   GL115145  44.745  24.758   9.163
  902POPC   GL215146  44.656  24.460   8.992
  902POPC   C1A15147  44.873  24.898   8.746
  902POPC   D2A15148   0.003  24.766   8.353
  902POPC   C3A15149  44.655  24.675   8.106
  902POPC   C4A15150  44.724  24.699   7.693
  902POPC   C1B15151  44.679  24.417   8.562
  902POPC   C2B15152  44.737  24.106   8.257
  902POPC   C3B15153  44.723  24.212   7.853
  902POPC   C4B15154  44.453  24.286   7.501
  903POPC   NC315155  18.175  14.671   9.457
  903POPC   PO415156  18.566  14.125   9.215
  903POPC   GL115157  18.444  14.339   8.907
  903POPC   GL215158  18.191  14.506   8.987
  903POPC   C1A15159  18.514  14.261   8.527
  903POPC   D2A15160  18.616  14.245   8.117
  903POPC   C3A15161  18.379  14.397   7.815
  903POPC   C4A15162  18.259  14.095   7.535
  903POPC   C1B15163  17.987  14.290   8.638
  903POPC   C2B15164  18.103  14.055   8.258
  903POPC   C3B15165  17.904  13.954   7.883
  903POPC   C4B15166  17.850  14.359   7.737
  904POPC   NC315167  38.660   3.269   9.570
  904POPC   PO415168  38.171   3.708   9.572
  904POPC   GL115169  38.318   3.507   9.202
  904POPC   GL215170  38.702   3.563   9.146
  904POPC   C1A15171  38.349   3.611   8.764
  904POPC   D2A15172  38.613   3.809   8.451
  904POPC   C3A15173  38.581   3.663   8.016
  904POPC   C4A15174  38.401   3.403   7.686
  904POPC   C1B15175  38.817   3.399   8.715
  904POPC   C2B15176  38.893   3.199   8.297
  904POPC   C3B15177  38.816   3.208   7.864
  904POPC   C4B15178  38.823   3.233   7.396
  905POPC   NC315179  43.054  37.349   9.611
  905POPC   PO415180  43.521  37.777   9.522
  905POPC   GL115181  43.691  37.759   9.108
  905POPC   GL215182  43.526  37.432   9.078
  905POPC   C1A15183  43.787  37.947   8.675
  905POPC   D2A15184  43.539  37.941   8.280
  905POPC   C3A15185  43.833  37.926   7.923
  905POPC   C4A15186  44.139  37.568   7.952
  905POPC   C1B15187  43.445  37.589   8.674
  905POPC   C2B15188  43.380  37.371   8.290
  905POPC   C3B15189  43.584  37.289   7.902
  905POPC   C4B15190  43.727  37.533   7.576
  906POPC   NC315191   8.891  20.191   9.592
  906POPC   PO415192   9.344  19.682   9.559
  906POPC   GL115193   9.185  19.924   9.210
  906POPC   GL215194   9.495  19.817   9.067
  906POPC   C1A15195   8.967  19.932   8.814
  906POPC   D2A15196   8.694  19.894   8.460
  906POPC   C3A15197   8.876  19.871   8.047
  906POPC   C4A15198   9.079  19.592   7.741
  906POPC   C1B15199   9.428  20.147   8.784
  906POPC   C2B15200   9.248  20.128   8.365
  906POPC   C3B15201   9.392  19.990   7.951
  906POPC   C4B15202   9.414  20.194   7.582
  907POPC   NC315203  18.391  33.700   9.409
  907POPC   PO415204  18.376  32.991   9.586
  907POPC   GL115205  18.177  32.946   9.203
  907POPC   GL215206  17.829  32.851   9.203
  907POPC   C1A15207  18.140  33.172   8.818
  907POPC   D2A15208  18.132  33.030   8.405
  907POPC   C3A15209  18.183  33.278   8.047
  907POPC   C4A15210  18.396  33.120   7.683
  907POPC   C1B15211  18.046  32.641   8.811
  907POPC   C2B15212  17.971  32.558   8.365
  907POPC   C3B15213  18.162  32.747   7.976
  907POPC   C4B15214  18.278  32.601   7.549
  908POPC   NC315215   3.453   7.957   9.541
  908POPC   PO415216   3.355   8.472   9.294
  908POPC   GL115217   3.659   8.222   9.118
  908POPC   GL215218   3.592   7.872   9.069
  908POPC   C1A15219   3.820   8.369   8.753
  908POPC   D2A15220   3.646   8.394   8.357
  908POPC   C3A15221   3.903   8.457   8.005
  908POPC   C4A15222   3.673   8.267   7.697
  908POPC   C1B15223   3.294   7.782   8.739
  908POPC   C2B15224   3.104   7.769   8.322
  908POPC   C3B15225   3.242   7.977   7.934
  908POPC   C4B15226   3.327   7.913   7.505
  909POPC   NC315227  22.091   0.102   9.498
  909POPC   PO415228  22.206  44.421   9.501
  909POPC   GL115229  22.144  44.542   9.079
  909POPC   GL215230  22.398  44.306   8.925
  909POPC   C1A15231  22.271  44.929   8.801
  909POPC   D2A15232  22.364   0.179   8.414
  909POPC   C3A15233  22.353  44.866   8.091
  909POPC   C4A15234  22.057  44.840   7.774
  909POPC   C1B15235  22.107  44.473   8.579
  909POPC   C2B15236  22.086  44.406   8.129
  909POPC   C3B15237  21.870  44.362   7.711
  909POPC   C4B15238  21.959  44.144   7.297
  910POPC   NC315239  25.781  39.272   9.425
  910POPC   PO415240  26.426  39.446   9.547
  910POPC   GL115241  26.232  39.313   9.126
  910POPC   GL215242  25.940  39.064   9.014
  910POPC   C1A15243  26.201  39.282   8.659
  910POPC   D2A15244  25.907  39.425   8.357
  910POPC   C3A15245  26.078  39.496   7.957
  910POPC   C4A15246  26.084  39.136   7.757
  910POPC   C1B15247  25.860  38.884   8.657
  910POPC   C2B15248  26.091  38.907   8.302
  910POPC   C3B15249  25.777  38.859   8.049
  910POPC   C4B15250  25.787  38.714   7.660
  911POPC   NC315251  13.044  22.663   9.466
  911POPC   PO415252  12.687  23.228   9.408
  911POPC   GL115253  12.892  23.059   9.084
  911POPC   GL215254  12.765  22.729   9.012
  911POPC   C1A15255  12.703  23.176   8.699
  911POPC   D2A15256  12.815  23.152   8.291
  911POPC   C3A15257  12.731  22.801   8.053
  911POPC   C4A15258  12.680  22.953   7.683
  911POPC   C1B15259  12.737  22.654   8.557
  911POPC   C2B15260  13.115  22.554   8.266
  911POPC   C3B15261  13.224  22.442   7.861
  911POPC   C4B15262  12.959  22.567   7.514
  912POPC   NC315263  15.719  15.824   9.491
  912POPC   PO415264  16.291  16.045   9.559
  912POPC   GL115265  16.045  16.076   9.170
  912POPC   GL215266  15.933  15.734   9.031
  912POPC   C1A15267  15.961  16.169   8.748
  912POPC   D2A15268  15.972  15.822   8.471
  912POPC   C3A15269  16.123  15.943   8.084
  912POPC   C4A15270  16.031  15.780   7.704
  912POPC   C1B15271  15.555  15.869   8.785
  912POPC   C2B15272  15.480  16.075   8.407
  912POPC   C3B15273  15.625  15.876   8.040
  912POPC   C4B15274  15.646  16.134   7.674
  913POPC   NC315275  36.664   7.025   9.426
  913POPC   PO415276  36.795   6.339   9.359
  913POPC   GL115277  37.082   6.503   9.029
  913POPC   GL215278  37.067   6.859   9.113
  913POPC   C1A15279  37.092   6.588   8.554
  913POPC   D2A15280  36.755   6.391   8.270
  913POPC   C3A15281  36.747   6.394   7.799
  913POPC   C4A15282  36.660   6.603   7.339
  913POPC   C1B15283  36.697   6.775   8.813
  913POPC   C2B15284  36.708   6.920   8.396
  913POPC   C3B15285  36.958   6.816   8.036
  913POPC   C4B15286  36.637   6.915   7.736
  914POPC   NC315287  32.731   8.111   9.386
  914POPC   PO415288  33.161   8.597   9.571
  914POPC   GL115289  33.136   8.430   9.157
  914POPC   GL215290  33.100   8.091   9.055
  914POPC   C1A15291  33.077   8.459   8.724
  914POPC   D2A15292  33.289   8.568   8.364
  914POPC   C3A15293  32.996   8.508   8.059
  914POPC   C4A15294  32.909   8.331   7.678
  914POPC   C1B15295  32.908   7.980   8.683
  914POPC   C2B15296  32.722   8.126   8.293
  914POPC   C3B15297  32.744   7.898   7.884
  914POPC   C4B15298  33.066   7.629   7.703
  915POPC   NC315299   5.531  24.316   9.411
  915POPC   PO415300   4.853  24.261   9.474
  915POPC   GL115301   5.074  24.469   9.161
  915POPC   GL215302   5.248  24.778   9.240
  915POPC   C1A15303   4.967  24.591   8.762
  915POPC   D2A15304   5.148  24.454   8.399
  915POPC   C3A15305   4.960  24.591   8.017
  915POPC   C4A15306   5.161  24.515   7.620
  915POPC   C1B15307   5.448  24.774   8.827
  915POPC   C2B15308   5.400  24.932   8.401
  915POPC   C3B15309   5.486  24.737   7.979
  915POPC   C4B15310   5.570  24.812   7.520
  916POPC   NC315311  10.812  37.383   9.474
  916POPC   PO415312  11.236  37.905   9.780
  916POPC   GL115313  11.157  37.762   9.347
  916POPC   GL215314  11.473  37.645   9.234
  916POPC   C1A15315  11.067  37.742   8.900
  916POPC   D2A15316  11.296  37.801   8.509
  916POPC   C3A15317  11.068  37.779   8.125
  916POPC   C4A15318  11.272  37.931   7.766
  916POPC   C1B15319  11.452  37.410   8.834
  916POPC   C2B15320  11.289  37.282   8.486
  916POPC   C3B15321  11.465  37.423   8.138
  916POPC   C4B15322  11.333  37.431   7.775
  917POPC   NC315323  26.196  22.546   9.543
  917POPC   PO415324  25.766  22.127   9.290
  917POPC   GL115325  25.954  21.959   8.973
  917POPC   GL215326  26.280  21.910   9.092
  917POPC   C1A15327  25.984  21.999   8.552
  917POPC   D2A15328  26.215  22.296   8.342
  917POPC   C3A15329  26.091  22.297   7.953
  917POPC   C4A15330  26.332  22.073   7.730
  917POPC   C1B15331  26.496  21.972   8.675
  917POPC   C2B15332  26.400  21.793   8.274
  917POPC   C3B15333  26.006  21.803   8.060
  917POPC   C4B15334  25.944  21.729   7.610
  918POPC   NC315335  10.889  17.169   9.528
  918POPC   PO415336  10.626  16.536   9.558
  918POPC   GL115337  10.517  16.871   9.263
  918POPC   GL215338  10.318  16.620   9.154
  918POPC   C1A15339  10.301  17.031   8.863
  918POPC   D2A15340  10.130  17.141   8.459
  918POPC   C3A15341  10.221  16.962   8.051
  918POPC   C4A15342  10.615  16.936   7.864
  918POPC   C1B15343  10.601  16.620   8.784
  918POPC   C2B15344  10.477  16.436   8.378
  918POPC   C3B15345  10.636  16.357   7.956
  918POPC   C4B15346  10.327  16.551   7.698
  919POPC   NC315347  12.918  33.010   9.750
  919POPC   PO415348  12.608  32.544   9.300
  919POPC   GL115349  12.668  32.901   9.034
  919POPC   GL215350  12.815  33.192   9.200
  919POPC   C1A15351  12.716  33.002   8.623
  919POPC   D2A15352  12.423  32.916   8.301
  919POPC   C3A15353  12.707  32.947   7.973
  919POPC   C4A15354  12.973  32.670   7.750
  919POPC   C1B15355  13.067  33.371   8.833
  919POPC   C2B15356  13.217  33.338   8.427
  919POPC   C3B15357  12.990  33.382   8.061
  919POPC   C4B15358  13.054  33.193   7.676
  920POPC   NC315359  36.760  21.544  10.022
  920POPC   PO415360  36.976  21.183   9.525
  920POPC   GL115361  36.931  21.360   9.136
  920POPC   GL215362  37.276  21.324   9.025
  920POPC   C1A15363  36.754  21.271   8.718
  920POPC   D2A15364  36.862  21.039   8.314
  920POPC   C3A15365  37.066  21.256   8.007
  920POPC   C4A15366  36.863  21.475   7.653
  920POPC   C1B15367  37.071  21.676   8.757
  920POPC   C2B15368  36.854  21.633   8.366
  920POPC   C3B15369  37.049  21.778   8.034
  920POPC   C4B15370  37.109  21.916   7.652
  921POPC   NC315371  34.384  22.625   9.535
  921POPC   PO415372  34.682  23.254   9.544
  921POPC   GL115373  34.660  22.987   9.181
  921POPC   GL215374  34.346  23.048   9.152
  921POPC   C1A15375  34.831  23.013   8.765
  921POPC   D2A15376  34.720  23.129   8.342
  921POPC   C3A15377  34.621  22.990   7.932
  921POPC   C4A15378  34.919  23.101   7.618
  921POPC   C1B15379  34.195  22.733   8.889
  921POPC   C2B15380  34.267  22.829   8.511
  921POPC   C3B15381  34.146  22.815   8.133
  921POPC   C4B15382  34.251  22.572   7.812
  922POPC   NC315383  34.880   4.654   9.601
  922POPC   PO415384  34.440   4.108   9.484
  922POPC   GL115385  34.668   4.309   9.154
  922POPC   GL215386  35.029   4.259   9.140
  922POPC   C1A15387  34.545   4.274   8.728
  922POPC   D2A15388  34.352   4.002   8.446
  922POPC   C3A15389  34.279   4.126   8.009
  922POPC   C4A15390  34.505   4.296   7.681
  922POPC   C1B15391  35.041   4.418   8.730
  922POPC   C2B15392  34.851   4.523   8.359
  922POPC   C3B15393  34.819   4.212   8.068
  922POPC   C4B15394  35.028   4.218   7.654
  923POPC   NC315395  41.399  38.972   9.462
  923POPC   PO415396  41.748  39.621   9.462
  923POPC   GL115397  41.564  39.383   9.154
  923POPC   GL215398  41.732  39.092   9.122
  923POPC   C1A15399  41.381  39.262   8.757
  923POPC   D2A15400  41.276  39.394   8.339
  923POPC   C3A15401  41.252  39.184   7.961
  923POPC   C4A15402  41.382  39.399   7.606
  923POPC   C1B15403  41.804  38.944   8.736
  923POPC   C2B15404  41.784  39.248   8.416
  923POPC   C3B15405  41.724  39.414   8.010
  923POPC   C4B15406  41.829  39.147   7.680
  924POPC   NC315407   4.570  35.097   9.483
  924POPC   PO415408   4.114  35.672   9.286
  924POPC   GL115409   4.346  35.595   8.925
  924POPC   GL215410   4.562  35.382   9.040
  924POPC   C1A15411   4.491  35.473   8.511
  924POPC   D2A15412   4.137  35.361   8.252
  924POPC   C3A15413   4.094  35.561   7.848
  924POPC   C4A15414   3.927  35.525   7.449
  924POPC   C1B15415   4.560  35.020   8.760
  924POPC   C2B15416   4.592  34.994   8.306
  924POPC   C3B15417   4.472  35.221   7.915
  924POPC   C4B15418   4.405  35.296   7.456
  925POPC   NC315419   1.716  16.981  10.008
  925POPC   PO415420   1.917  16.501   9.555
  925POPC   GL115421   1.919  16.679   9.154
  925POPC   GL215422   2.245  16.605   9.072
  925POPC   C1A15423   1.953  16.866   8.767
  925POPC   D2A15424   1.855  16.650   8.432
  925POPC   C3A15425   1.962  16.828   8.093
  925POPC   C4A15426   1.784  16.709   7.729
  925POPC   C1B15427   2.399  16.442   8.726
  925POPC   C2B15428   2.396  16.610   8.307
  925POPC   C3B15429   2.460  16.455   7.915
  925POPC   C4B15430   2.163  16.434   7.542
  926POPC   NC315431  38.069  15.323   9.294
  926POPC   PO415432  38.598  15.037   9.557
  926POPC   GL115433  38.473  15.068   9.135
  926POPC   GL215434  38.595  15.409   9.148
  926POPC   C1A15435  38.203  14.988   8.746
  926POPC   D2A15436  38.410  14.945   8.366
  926POPC   C3A15437  38.245  14.816   7.979
  926POPC   C4A15438  38.456  14.981   7.610
  926POPC   C1B15439  38.418  15.453   8.756
  926POPC   C2B15440  38.589  15.417   8.374
  926POPC   C3B15441  38.404  15.330   7.988
  926POPC   C4B15442  38.462  15.494   7.584
  927POPC   NC315443  27.428  12.518   9.523
  927POPC   PO415444  27.500  13.113   9.508
  927POPC   GL115445  27.522  12.841   9.146
  927POPC   GL215446  27.208  12.977   9.108
  927POPC   C1A15447  27.759  12.640   8.783
  927POPC   D2A15448  27.901  12.861   8.413
  927POPC   C3A15449  27.790  12.776   7.991
  927POPC   C4A15450  27.691  12.664   7.566
  927POPC   C1B15451  27.269  12.749   8.713
  927POPC   C2B15452  27.366  12.818   8.290
  927POPC   C3B15453  27.318  12.919   7.834
  927POPC   C4B15454  27.216  12.741   7.425
  928POPC   NC315455  31.362  18.533   9.597
  928POPC   PO415456  31.917  18.091   9.369
  928POPC   GL115457  31.731  18.359   9.086
  928POPC   GL215458  31.420  18.294   9.155
  928POPC   C1A15459  31.741  18.315   8.649
  928POPC   D2A15460  31.710  18.569   8.267
  928POPC   C3A15461  31.641  18.340   7.868
  928POPC   C4A15462  31.714  18.330   7.396
  928POPC   C1B15463  31.200  18.203   8.764
  928POPC   C2B15464  31.259  18.330   8.369
  928POPC   C3B15465  31.134  18.235   8.003
  928POPC   C4B15466  31.194  18.351   7.565
  929POPC   NC315467   4.637   0.579   9.128
  929POPC   PO415468   4.159   0.140   9.281
  929POPC   GL115469   4.292   0.238   8.953
  929POPC   GL215470   4.120   0.524   8.966
  929POPC   C1A15471   4.534   0.078   8.645
  929POPC   D2A15472   4.295   0.223   8.361
  929POPC   C3A15473   4.563   0.330   7.996
  929POPC   C4A15474   4.493   0.235   7.567
  929POPC   C1B15475   3.839   0.660   8.728
  929POPC   C2B15476   4.022   0.727   8.385
  929POPC   C3B15477   4.082   0.519   8.014
  929POPC   C4B15478   4.300   0.685   7.696
  930POPC   NC315479   6.647  23.508   9.493
  930POPC   PO415480   6.348  24.009   9.182
  930POPC   GL115481   6.662  23.704   9.035
  930POPC   GL215482   6.993  23.832   9.107
  930POPC   C1A15483   6.749  23.443   8.669
  930POPC   D2A15484   6.479  23.427   8.281
  930POPC   C3A15485   6.686  23.542   7.887
  930POPC   C4A15486   6.817  23.354   7.500
  930POPC   C1B15487   6.824  24.062   8.729
  930POPC   C2B15488   6.652  24.127   8.341
  930POPC   C3B15489   6.847  24.024   7.974
  930POPC   C4B15490   6.573  24.048   7.677
  931POPC   NC315491  36.543   5.943   9.423
  931POPC   PO415492  35.866   6.000   9.509
  931POPC   GL115493  36.105   5.801   9.149
  931POPC   GL215494  36.371   5.549   9.161
  931POPC   C1A15495  35.964   5.769   8.713
  931POPC   D2A15496  35.934   5.953   8.297
  931POPC   C3A15497  35.940   5.695   7.933
  931POPC   C4A15498  35.847   5.442   7.543
  931POPC   C1B15499  36.482   5.755   8.762
  931POPC   C2B15500  36.522   5.901   8.333
  931POPC   C3B15501  36.347   6.077   7.955
  931POPC   C4B15502  36.411   6.158   7.454
  932POPC   NC315503  41.153  36.356   9.614
  932POPC   PO415504  41.674  36.084   9.549
  932POPC   GL115505  41.621  35.940   9.142
  932POPC   GL215506  41.334  36.130   9.157
  932POPC   C1A15507  41.609  36.065   8.726
  932POPC   D2A15508  41.917  36.311   8.570
  932POPC   C3A15509  41.794  36.229   8.144
  932POPC   C4A15510  41.888  36.349   7.719
  932POPC   C1B15511  41.178  35.814   8.859
  932POPC   C2B15512  41.200  35.759   8.401
  932POPC   C3B15513  41.203  35.871   7.951
  932POPC   C4B15514  41.365  36.256   7.725
  933POPC   NC315515  14.782  24.037   9.475
  933POPC   PO415516  14.775  23.374   9.298
  933POPC   GL115517  14.911  23.748   9.070
  933POPC   GL215518  15.229  23.919   9.128
  933POPC   C1A15519  14.910  24.100   8.783
  933POPC   D2A15520  14.885  24.222   8.362
  933POPC   C3A15521  15.010  23.961   8.026
  933POPC   C4A15522  15.134  23.929   7.600
  933POPC   C1B15523  15.271  23.747   8.693
  933POPC   C2B15524  15.301  23.607   8.252
  933POPC   C3B15525  15.412  23.547   7.814
  933POPC   C4B15526  15.623  23.739   7.453
  934POPC   NC315527   0.484   9.583   9.910
  934POPC   PO415528   0.431  10.082   9.402
  934POPC   GL115529   0.434   9.832   9.012
  934POPC   GL215530   0.726   9.959   8.948
  934POPC   C1A15531   0.279   9.896   8.594
  934POPC   D2A15532   0.100  10.055   8.207
  934POPC   C3A15533   0.285   9.915   7.834
  934POPC   C4A15534   0.338   9.896   7.367
  934POPC   C1B15535   0.756   9.679   8.636
  934POPC   C2B15536   0.617   9.756   8.224
  934POPC   C3B15537   0.783   9.773   7.826
  934POPC   C4B15538   0.641   9.524   7.512
  935POPC   NC315539  20.841  11.194   9.809
  935POPC   PO415540  21.406  11.134   9.394
  935POPC   GL115541  21.341  11.280   8.965
  935POPC   GL215542  21.163  11.608   9.054
  935POPC   C1A15543  21.559  11.340   8.584
  935POPC   D2A15544  21.798  11.046   8.335
  935POPC   C3A15545  21.699  11.149   7.932
  935POPC   C4A15546  21.372  11.122   7.659
  935POPC   C1B15547  21.017  11.464   8.627
  935POPC   C2B15548  21.186  11.382   8.203
  935POPC   C3B15549  20.999  11.415   7.813
  935POPC   C4B15550  20.950  11.348   7.387
  936POPC   NC315551  39.957  29.411   9.460
  936POPC   PO415552  40.244  28.732   9.486
  936POPC   GL115553  40.118  29.029   9.129
  936POPC   GL215554  39.782  29.195   9.047
  936POPC   C1A15555  40.200  29.307   8.771
  936POPC   D2A15556  40.026  29.463   8.392
  936POPC   C3A15557  40.248  29.283   8.037
  936POPC   C4A15558  40.037  29.108   7.695
  936POPC   C1B15559  39.666  28.948   8.734
  936POPC   C2B15560  39.795  28.988   8.331
  936POPC   C3B15561  39.605  29.079   7.961
  936POPC   C4B15562  39.612  28.855   7.582
  937POPC   NC315563  42.783  35.837   9.444
  937POPC   PO415564  43.377  36.304   9.290
  937POPC   GL115565  43.063  36.112   9.097
  937POPC   GL215566  42.929  36.389   9.047
  937POPC   C1A15567  43.084  36.053   8.654
  937POPC   D2A15568  43.382  36.157   8.321
  937POPC   C3A15569  43.257  36.044   7.895
  937POPC   C4A15570  42.961  35.902   7.600
  937POPC   C1B15571  43.142  36.559   8.722
  937POPC   C2B15572  42.993  36.480   8.341
  937POPC   C3B15573  43.185  36.539   7.978
  937POPC   C4B15574  42.934  36.403   7.657
  938POPC   NC315575  42.541   6.824   9.375
  938POPC   PO415576  42.317   6.197   9.454
  938POPC   GL115577  42.172   6.523   9.144
  938POPC   GL215578  42.146   6.886   9.072
  938POPC   C1A15579  42.256   6.535   8.719
  938POPC   D2A15580  42.371   6.208   8.445
  938POPC   C3A15581  42.254   6.299   8.060
  938POPC   C4A15582  42.228   6.418   7.663
  938POPC   C1B15583  42.522   6.964   8.729
  938POPC   C2B15584  42.416   6.780   8.286
  938POPC   C3B15585  42.332   6.982   7.859
  938POPC   C4B15586  42.322   6.848   7.419
  939POPC   NC315587   4.648  16.101   9.760
  939POPC   PO415588   4.160  15.734   9.503
  939POPC   GL115589   4.456  15.793   9.147
  939POPC   GL215590   4.152  15.853   9.003
  939POPC   C1A15591   4.493  15.892   8.659
  939POPC   D2A15592   4.482  15.724   8.238
  939POPC   C3A15593   4.598  16.055   7.943
  939POPC   C4A15594   4.771  16.471   7.796
  939POPC   C1B15595   3.965  15.992   8.643
  939POPC   C2B15596   4.011  15.886   8.222
  939POPC   C3B15597   4.123  15.910   7.781
  939POPC   C4B15598   4.430  15.706   7.586
  940POPC   NC315599   7.750   1.787   9.370
  940POPC   PO415600   7.601   2.305   9.739
  940POPC   GL115601   7.495   2.348   9.265
  940POPC   GL215602   7.371   2.010   9.113
  940POPC   C1A15603   7.237   2.425   8.870
  940POPC   D2A15604   7.175   2.184   8.468
  940POPC   C3A15605   7.411   2.072   8.136
  940POPC   C4A15606   7.289   2.122   7.724
  940POPC   C1B15607   7.150   1.745   8.790
  940POPC   C2B15608   7.105   1.671   8.342
  940POPC   C3B15609   7.253   1.619   7.898
  940POPC   C4B15610   7.497   1.744   7.475
  941POPC   NC315611  35.571  21.067   9.470
  941POPC   PO415612  36.149  20.726   9.500
  941POPC   GL115613  36.413  20.499   9.214
  941POPC   GL215614  36.076  20.540   9.042
  941POPC   C1A15615  36.436  20.330   8.784
  941POPC   D2A15616  36.115  20.539   8.554
  941POPC   C3A15617  35.984  20.619   8.172
  941POPC   C4A15618  36.030  20.615   7.744
  941POPC   C1B15619  35.964  20.950   8.900
  941POPC   C2B15620  35.931  21.091   8.510
  941POPC   C3B15621  35.944  21.117   8.092
  941POPC   C4B15622  35.700  21.013   7.743
  942POPC   NC315623  37.277  13.782   9.362
  942POPC   PO415624  37.753  13.351   9.549
  942POPC   GL115625  37.811  13.629   9.195
  942POPC   GL215626  37.770  14.008   9.269
  942POPC   C1A15627  37.965  13.534   8.784
  942POPC   D2A15628  37.861  13.729   8.389
  942POPC   C3A15629  37.730  13.432   8.084
  942POPC   C4A15630  37.696  13.554   7.670
  942POPC   C1B15631  37.634  13.977   8.822
  942POPC   C2B15632  37.404  14.073   8.408
  942POPC   C3B15633  37.460  13.907   7.985
  942POPC   C4B15634  37.226  13.751   7.613
  943POPC   NC315635  15.779  17.497   9.595
  943POPC   PO415636  15.162  17.728   9.414
  943POPC   GL115637  15.214  17.355   9.163
  943POPC   GL215638  15.568  17.225   9.202
  943POPC   C1A15639  15.117  17.432   8.750
  943POPC   D2A15640  14.803  17.444   8.426
  943POPC   C3A15641  14.968  17.415   8.035
  943POPC   C4A15642  14.895  17.761   7.738
  943POPC   C1B15643  15.588  17.569   8.913
  943POPC   C2B15644  15.589  17.544   8.484
  943POPC   C3B15645  15.424  17.601   8.091
  943POPC   C4B15646  15.320  17.499   7.667
  944POPC   NC315647  11.440  36.857   9.636
  944POPC   PO415648  11.582  36.243   9.413
  944POPC   GL115649  11.355  36.146   9.075
  944POPC   GL215650  11.032  36.031   9.177
  944POPC   C1A15651  11.342  36.407   8.729
  944POPC   D2A15652  11.597  36.425   8.375
  944POPC   C3A15653  11.544  36.092   8.069
  944POPC   C4A15654  11.469  36.314   7.685
  944POPC   C1B15655  10.907  36.094   8.761
  944POPC   C2B15656  11.120  36.059   8.379
  944POPC   C3B15657  11.046  36.148   7.952
  944POPC   C4B15658  10.924  35.892   7.609
  945POPC   NC315659  22.875   7.126   9.467
  945POPC   PO415660  23.435   7.430   9.348
  945POPC   GL115661  23.148   7.542   9.104
  945POPC   GL215662  22.899   7.706   9.291
  945POPC   C1A15663  23.169   7.488   8.681
  945POPC   D2A15664  23.291   7.387   8.277
  945POPC   C3A15665  22.983   7.505   8.026
  945POPC   C4A15666  22.772   7.247   7.730
  945POPC   C1B15667  22.760   7.757   8.851
  945POPC   C2B15668  22.701   7.465   8.484
  945POPC   C3B15669  22.465   7.500   8.094
  945POPC   C4B15670  22.566   7.721   7.719
  946POPC   NC315671   0.815  27.686   9.715
  946POPC   PO415672   0.220  27.835   9.499
  946POPC   GL115673   0.505  27.698   9.162
  946POPC   GL215674   0.432  27.395   9.005
  946POPC   C1A15675   0.711  27.700   8.730
  946POPC   D2A15676   0.551  27.712   8.316
  946POPC   C3A15677   0.736  27.583   7.910
  946POPC   C4A15678   0.488  27.803   7.599
  946POPC   C1B15679   0.203  27.581   8.719
  946POPC   C2B15680   0.082  27.436   8.332
  946POPC   C3B15681   0.232  27.526   7.959
  946POPC   C4B15682   0.368  27.280   7.620
  947POPC   NC315683  21.382  26.364   9.540
  947POPC   PO415684  21.420  25.646   9.549
  947POPC   GL115685  21.274  25.920   9.211
  947POPC   GL215686  21.599  25.960   9.089
  947POPC   C1A15687  21.191  25.869   8.768
  947POPC   D2A15688  21.376  25.971   8.366
  947POPC   C3A15689  21.099  25.944   8.020
  947POPC   C4A15690  21.176  25.891   7.588
  947POPC   C1B15691  21.753  26.139   8.694
  947POPC   C2B15692  21.760  26.349   8.283
  947POPC   C3B15693  21.500  26.245   7.931
  947POPC   C4B15694  21.554  26.228   7.500
  948POPC   NC315695  27.943   6.151   9.549
  948POPC   PO415696  28.249   5.576   9.718
  948POPC   GL115697  28.329   5.791   9.268
  948POPC   GL215698  28.091   6.020   9.076
  948POPC   C1A15699  28.625   5.933   8.906
  948POPC   D2A15700  28.694   6.212   8.536
  948POPC   C3A15701  28.653   6.028   8.129
  948POPC   C4A15702  28.720   5.833   7.740
  948POPC   C1B15703  28.191   6.021   8.629
  948POPC   C2B15704  28.087   5.804   8.250
  948POPC   C3B15705  28.232   5.900   7.901
  948POPC   C4B15706  28.021   6.240   7.864
  949POPC   NC315707  23.419  35.159   9.521
  949POPC   PO415708  24.112  35.217   9.474
  949POPC   GL115709  23.872  35.395   9.146
  949POPC   GL215710  23.501  35.471   9.130
  949POPC   C1A15711  23.778  35.201   8.778
  949POPC   D2A15712  23.509  35.289   8.460
  949POPC   C3A15713  23.789  35.338   8.133
  949POPC   C4A15714  23.929  35.276   7.723
  949POPC   C1B15715  23.291  35.713   8.824
  949POPC   C2B15716  23.143  35.638   8.413
  949POPC   C3B15717  23.296  35.524   8.017
  949POPC   C4B15718  23.298  35.705   7.625
  950POPC   NC315719  34.158  35.525   9.513
  950POPC   PO415720  34.769  35.178   9.510
  950POPC   GL115721  34.559  35.434   9.205
  950POPC   GL215722  34.532  35.146   8.993
  950POPC   C1A15723  34.542  35.590   8.778
  950POPC   D2A15724  34.779  35.311   8.525
  950POPC   C3A15725  34.569  35.341   8.136
  950POPC   C4A15726  34.743  35.584   7.774
  950POPC   C1B15727  34.313  35.131   8.596
  950POPC   C2B15728  34.211  34.908   8.271
  950POPC   C3B15729  34.331  34.911   7.874
  950POPC   C4B15730  34.704  35.062   7.718
  951POPC   NC315731   3.790  36.250   9.459
  951POPC   PO415732   3.153  35.934   9.373
  951POPC   GL115733   3.278  36.274   9.067
  951POPC   GL215734   3.636  36.332   9.007
  951POPC   C1A15735   3.387  36.265   8.595
  951POPC   D2A15736   3.738  36.117   8.316
  951POPC   C3A15737   3.605  36.071   7.891
  951POPC   C4A15738   3.332  36.371   7.691
  951POPC   C1B15739   3.832  36.531   8.689
  951POPC   C2B15740   4.029  36.526   8.320
  951POPC   C3B15741   3.825  36.524   7.922
  951POPC   C4B15742   3.789  36.430   7.470
  952POPC   NC315743  12.844  29.411   9.473
  952POPC   PO415744  12.490  28.836   9.634
  952POPC   GL115745  12.580  29.061   9.217
  952POPC   GL215746  12.621  29.379   9.031
  952POPC   C1A15747  12.773  28.956   8.808
  952POPC   D2A15748  12.879  29.206   8.447
  952POPC   C3A15749  12.899  28.930   8.084
  952POPC   C4A15750  12.920  28.855   7.652
  952POPC   C1B15751  12.627  29.654   8.704
  952POPC   C2B15752  12.569  29.589   8.274
  952POPC   C3B15753  12.858  29.447   7.975
  952POPC   C4B15754  12.810  29.423   7.548
  953POPC   NC315755  17.669   9.182   9.414
  953POPC   PO415756  17.127   9.087   9.289
  953POPC   GL115757  17.499   8.860   9.061
  953POPC   GL215758  17.859   8.733   9.157
  953POPC   C1A15759  17.740   9.016   8.721
  953POPC   D2A15760  17.576   8.963   8.312
  953POPC   C3A15761  17.524   9.228   7.982
  953POPC   C4A15762  17.232   9.231   7.635
  953POPC   C1B15763  17.762   8.500   8.736
  953POPC   C2B15764  17.602   8.464   8.269
  953POPC   C3B15765  17.535   8.718   7.850
  953POPC   C4B15766  17.652   8.587   7.422
  954POPC   NC315767  10.010  17.631   9.642
  954POPC   PO415768   9.601  17.026   9.588
  954POPC   GL115769   9.826  17.314   9.289
  954POPC   GL215770   9.662  17.634   9.207
  954POPC   C1A15771   9.917  17.375   8.862
  954POPC   D2A15772   9.835  17.618   8.475
  954POPC   C3A15773   9.991  17.457   8.084
  954POPC   C4A15774   9.864  17.392   7.670
  954POPC   C1B15775   9.431  17.538   8.832
  954POPC   C2B15776   9.299  17.467   8.429
  954POPC   C3B15777   9.500  17.566   8.049
  954POPC   C4B15778   9.395  17.653   7.674
  955POPC   NC315779  18.754  23.285   9.535
  955POPC   PO415780  19.115  22.675   9.475
  955POPC   GL115781  19.096  22.986   9.133
  955POPC   GL215782  19.081  22.745   8.878
  955POPC   C1A15783  19.421  23.098   8.804
  955POPC   D2A15784  19.408  23.266   8.396
  955POPC   C3A15785  19.260  22.967   8.120
  955POPC   C4A15786  19.193  23.116   7.729
  955POPC   C1B15787  18.953  23.120   8.619
  955POPC   C2B15788  18.775  23.148   8.190
  955POPC   C3B15789  18.660  22.991   7.776
  955POPC   C4B15790  18.512  23.234   7.391
  956POPC   NC315791   6.180  37.810   9.521
  956POPC   PO415792   5.558  37.449   9.503
  956POPC   GL115793   5.739  37.614   9.132
  956POPC   GL215794   6.104  37.538   9.097
  956POPC   C1A15795   5.797  37.513   8.686
  956POPC   D2A15796   5.870  37.809   8.375
  956POPC   C3A15797   5.901  37.714   7.953
  956POPC   C4A15798   5.732  37.877   7.586
  956POPC   C1B15799   6.071  37.937   8.859
  956POPC   C2B15800   6.200  38.175   8.504
  956POPC   C3B15801   6.032  38.204   8.095
  956POPC   C4B15802   6.189  38.088   7.712
  957POPC   NC315803   0.776  26.131   9.864
  957POPC   PO415804   0.183  26.319   9.528
  957POPC   GL115805   0.358  26.196   9.138
  957POPC   GL215806   0.511  25.859   9.113
  957POPC   C1A15807   0.650  26.352   8.804
  957POPC   D2A15808   0.768  26.258   8.380
  957POPC   C3A15809   0.485  26.255   8.029
  957POPC   C4A15810   0.607  26.277   7.618
  957POPC   C1B15811   0.364  25.954   8.681
  957POPC   C2B15812   0.406  25.807   8.274
  957POPC   C3B15813   0.522  25.775   7.825
  957POPC   C4B15814   0.506  25.864   7.360
  958POPC   NC315815  11.455  25.726   9.436
  958POPC   PO415816  11.264  25.004   9.467
  958POPC   GL115817  11.260  25.217   9.089
  958POPC   GL215818  11.578  25.384   9.044
  958POPC   C1A15819  11.291  25.178   8.634
  958POPC   D2A15820  11.321  24.941   8.263
  958POPC   C3A15821  11.381  25.088   7.849
  958POPC   C4A15822  11.166  25.000   7.470
  958POPC   C1B15823  11.245  25.661   8.802
  958POPC   C2B15824  11.010  25.704   8.414
  958POPC   C3B15825  10.797  25.675   8.015
  958POPC   C4B15826  11.018  25.441   7.701
  959POPC   NC315827   8.480   9.494  10.008
  959POPC   PO415828   8.335   9.969   9.507
  959POPC   GL115829   8.126   9.791   9.187
  959POPC   GL215830   8.140  10.107   9.036
  959POPC   C1A15831   8.080   9.573   8.789
  959POPC   D2A15832   8.276   9.317   8.461
  959POPC   C3A15833   8.371   9.517   8.052
  959POPC   C4A15834   8.447   9.891   7.790
  959POPC   C1B15835   8.053  10.076   8.616
  959POPC   C2B15836   8.105   9.987   8.165
  959POPC   C3B15837   8.026  10.191   7.759
  959POPC   C4B15838   7.758  10.123   7.410
  960POPC   NC315839  17.192  36.016   9.636
  960POPC   PO415840  16.440  36.032   9.630
  960POPC   GL115841  16.641  35.972   9.225
  960POPC   GL215842  16.478  36.244   9.121
  960POPC   C1A15843  16.765  36.004   8.768
  960POPC   D2A15844  16.729  35.779   8.377
  960POPC   C3A15845  17.025  35.759   8.039
  960POPC   C4A15846  16.942  35.829   7.602
  960POPC   C1B15847  16.427  36.430   8.745
  960POPC   C2B15848  16.566  36.301   8.360
  960POPC   C3B15849  16.748  36.181   8.005
  960POPC   C4B15850  16.559  36.187   7.619
  961POPC   NC315851   4.169  29.061   9.592
  961POPC   PO415852   3.838  29.501   9.236
  961POPC   GL115853   4.094  29.124   9.082
  961POPC   GL215854   4.432  28.931   9.157
  961POPC   C1A15855   4.096  28.937   8.685
  961POPC   D2A15856   4.272  28.821   8.277
  961POPC   C3A15857   4.217  29.032   7.919
  961POPC   C4A15858   4.122  29.437   7.899
  961POPC   C1B15859   4.601  28.811   8.739
  961POPC   C2B15860   4.758  28.688   8.299
  961POPC   C3B15861   4.730  28.979   7.941
  961POPC   C4B15862   4.682  28.949   7.490
  962POPC   NC315863  38.741  14.120   9.638
  962POPC   PO415864  39.272  14.615   9.736
  962POPC   GL115865  39.271  14.648   9.228
  962POPC   GL215866  39.298  14.342   8.992
  962POPC   C1A15867  38.983  14.675   8.851
  962POPC   D2A15868  39.162  14.464   8.491
  962POPC   C3A15869  39.051  14.486   8.075
  962POPC   C4A15870  39.137  14.712   7.701
  962POPC   C1B15871  39.443  14.080   8.636
  962POPC   C2B15872  39.383  14.060   8.189
  962POPC   C3B15873  39.352  14.203   7.774
  962POPC   C4B15874  39.653  14.254   7.434
  963POPC   NC315875   5.160  31.046   9.333
  963POPC   PO415876   5.358  30.560   9.760
  963POPC   GL115877   5.217  30.559   9.277
  963POPC   GL215878   5.503  30.518   9.098
  963POPC   C1A15879   4.973  30.605   8.828
  963POPC   D2A15880   5.064  30.507   8.386
  963POPC   C3A15881   4.941  30.723   8.069
  963POPC   C4A15882   4.839  30.550   7.701
  963POPC   C1B15883   5.407  30.828   8.772
  963POPC   C2B15884   5.247  31.009   8.399
  963POPC   C3B15885   5.376  30.987   7.960
  963POPC   C4B15886   5.072  30.999   7.630
  964POPC   NC315887  12.412  13.430   9.493
  964POPC   PO415888  11.919  13.907   9.412
  964POPC   GL115889  11.954  13.727   9.044
  964POPC   GL215890  12.326  13.632   9.014
  964POPC   C1A15891  11.950  13.920   8.639
  964POPC   D2A15892  12.217  14.140   8.338
  964POPC   C3A15893  12.096  13.950   7.964
  964POPC   C4A15894  11.814  13.630   7.843
  964POPC   C1B15895  12.116  13.337   8.774
  964POPC   C2B15896  12.286  13.082   8.479
  964POPC   C3B15897  12.525  13.272   8.157
  964POPC   C4B15898  12.307  13.488   7.835
  965POPC   NC315899  28.117  17.526   9.401
  965POPC   PO415900  28.790  17.568   9.527
  965POPC   GL115901  28.571  17.475   9.185
  965POPC   GL215902  28.460  17.826   9.159
  965POPC   C1A15903  28.395  17.381   8.804
  965POPC   D2A15904  28.244  17.592   8.452
  965POPC   C3A15905  28.274  17.454   8.040
  965POPC   C4A15906  28.137  17.745   7.757
  965POPC   C1B15907  28.594  17.887   8.771
  965POPC   C2B15908  28.724  18.016   8.361
  965POPC   C3B15909  28.598  17.897   7.942
  965POPC   C4B15910  28.861  17.826   7.573
  966POPC   NC315911  34.716  22.016   9.338
  966POPC   PO415912  34.117  22.242   9.489
  966POPC   GL115913  34.312  22.274   9.109
  966POPC   GL215914  34.587  22.485   9.080
  966POPC   C1A15915  34.377  22.185   8.680
  966POPC   D2A15916  34.215  22.299   8.295
  966POPC   C3A15917  34.413  22.112   7.995
  966POPC   C4A15918  34.740  21.890   7.806
  966POPC   C1B15919  34.759  22.521   8.686
  966POPC   C2B15920  34.641  22.579   8.265
  966POPC   C3B15921  34.733  22.468   7.855
  966POPC   C4B15922  34.640  22.666   7.478
  967POPC   NC315923  13.297  43.684   9.663
  967POPC   PO415924  13.932  43.952   9.649
  967POPC   GL115925  13.825  44.071   9.205
  967POPC   GL215926  14.018  43.810   9.113
  967POPC   C1A15927  13.657  44.049   8.753
  967POPC   D2A15928  13.421  43.802   8.374
  967POPC   C3A15929  13.417  43.867   7.910
  967POPC   C4A15930  13.630  44.136   7.632
  967POPC   C1B15931  14.174  43.893   8.724
  967POPC   C2B15932  13.936  43.892   8.362
  967POPC   C3B15933  13.954  43.884   7.951
  967POPC   C4B15934  13.797  43.649   7.619
  968POPC   NC315935  28.302  18.929   9.575
  968POPC   PO415936  28.679  19.120   9.040
  968POPC   GL115937  28.239  19.272   8.923
  968POPC   GL215938  28.061  19.006   9.097
  968POPC   C1A15939  28.251  19.459   8.523
  968POPC   D2A15940  28.475  19.133   8.303
  968POPC   C3A15941  28.300  19.086   7.939
  968POPC   C4A15942  28.066  19.228   7.590
  968POPC   C1B15943  28.118  18.734   8.725
  968POPC   C2B15944  28.261  18.648   8.266
  968POPC   C3B15945  27.958  18.732   7.913
  968POPC   C4B15946  27.996  18.742   7.454
  969POPC   NC315947   1.137  15.548   9.651
  969POPC   PO415948   1.131  14.899   9.549
  969POPC   GL115949   1.220  15.224   9.243
  969POPC   GL215950   0.904  15.423   9.140
  969POPC   C1A15951   1.332  15.310   8.821
  969POPC   D2A15952   1.224  15.197   8.404
  969POPC   C3A15953   1.456  15.018   8.037
  969POPC   C4A15954   1.355  15.200   7.662
  969POPC   C1B15955   0.874  15.072   8.790
  969POPC   C2B15956   0.826  14.896   8.352
  969POPC   C3B15957   0.951  15.057   7.973
  969POPC   C4B15958   0.956  14.883   7.590
  970POPC   NC315959  12.716  42.252   9.495
  970POPC   PO415960  13.313  42.326   9.250
  970POPC   GL115961  12.971  42.354   9.000
  970POPC   GL215962  12.636  42.525   9.079
  970POPC   C1A15963  12.969  42.130   8.606
  970POPC   D2A15964  12.773  42.021   8.211
  970POPC   C3A15965  13.063  42.106   7.840
  970POPC   C4A15966  12.941  42.362   7.469
  970POPC   C1B15967  12.534  42.365   8.749
  970POPC   C2B15968  12.741  42.541   8.387
  970POPC   C3B15969  12.696  42.469   7.951
  970POPC   C4B15970  12.679  42.755   7.637
  971POPC   NC315971  42.791  16.084   9.510
  971POPC   PO415972  42.113  16.039   9.659
  971POPC   GL115973  42.165  15.809   9.282
  971POPC   GL215974  42.516  15.834   9.142
  971POPC   C1A15975  42.116  15.934   8.848
  971POPC   D2A15976  42.361  15.946   8.480
  971POPC   C3A15977  42.111  15.926   8.146
  971POPC   C4A15978  42.184  16.057   7.788
  971POPC   C1B15979  42.710  16.112   8.819
  971POPC   C2B15980  42.779  16.231   8.366
  971POPC   C3B15981  42.675  16.100   7.943
  971POPC   C4B15982  42.594  16.159   7.500
  972POPC   NC315983  26.994  30.940   9.325
  972POPC   PO415984  27.468  30.534   9.627
  972POPC   GL115985  27.668  30.490   9.187
  972POPC   GL215986  27.418  30.714   9.139
  972POPC   C1A15987  27.772  30.523   8.693
  972POPC   D2A15988  27.614  30.698   8.273
  972POPC   C3A15989  27.858  30.736   7.858
  972POPC   C4A15990  27.753  30.476   7.452
  972POPC   C1B15991  27.165  30.492   8.870
  972POPC   C2B15992  27.138  30.493   8.450
  972POPC   C3B15993  27.137  30.608   8.058
  972POPC   C4B15994  27.360  30.872   7.802
  973POPC   NC315995  18.412  15.380   9.425
  973POPC   PO415996  17.800  14.988   9.518
  973POPC   GL115997  18.096  15.066   9.127
  973POPC   GL215998  18.435  14.977   9.060
  973POPC   C1A15999  18.189  15.289   8.721
  973POPC   D2A16000  18.139  15.136   8.290
  973POPC   C3A16001  17.906  15.330   7.908
  973POPC   C4A16002  18.190  15.534   7.599
  973POPC   C1B16003  18.417  14.807   8.638
  973POPC   C2B16004  18.219  14.604   8.291
  973POPC   C3B16005  18.037  14.780   7.945
  973POPC   C4B16006  18.212  15.033   7.636
  974POPC   NC316007  11.232   9.201   9.592
  974POPC   PO416008  10.918   8.805   9.346
  974POPC   GL116009  11.184   8.774   9.024
  974POPC   GL216010  11.286   9.121   9.081
  974POPC   C1A16011  11.154   8.698   8.584
  974POPC   D2A16012  11.352   8.851   8.223
  974POPC   C3A16013  11.283   8.729   7.826
  974POPC   C4A16014  11.213   9.133   7.725
  974POPC   C1B16015  11.356   9.177   8.647
  974POPC   C2B16016  11.602   9.312   8.312
  974POPC   C3B16017  11.537   9.492   7.915
  974POPC   C4B16018  11.611   9.379   7.502
  975POPC   NC316019   8.780  39.429   9.491
  975POPC   PO416020   8.604  38.772   9.469
  975POPC   GL116021   8.905  39.049   9.189
  975POPC   GL216022   8.753  39.357   9.005
  975POPC   C1A16023   9.145  39.126   8.793
  975POPC   D2A16024   8.961  39.166   8.408
  975POPC   C3A16025   9.226  39.098   8.062
  975POPC   C4A16026   9.129  39.186   7.660
  975POPC   C1B16027   8.504  39.314   8.671
  975POPC   C2B16028   8.495  39.446   8.297
  975POPC   C3B16029   8.758  39.370   7.989
  975POPC   C4B16030   8.670  39.419   7.618
  976POPC   NC316031  14.869   6.596   9.477
  976POPC   PO416032  14.188   6.583   9.408
  976POPC   GL116033  14.227   6.420   9.015
  976POPC   GL216034  14.575   6.329   9.107
  976POPC   C1A16035  14.102   6.673   8.642
  976POPC   D2A16036  14.334   6.920   8.334
  976POPC   C3A16037  14.390   6.737   7.914
  976POPC   C4A16038  14.394   6.472   7.536
  976POPC   C1B16039  14.606   6.562   8.708
  976POPC   C2B16040  14.425   6.397   8.353
  976POPC   C3B16041  14.619   6.294   7.989
  976POPC   C4B16042  14.894   6.568   7.744
  977POPC   NC316043   8.281  23.134   9.571
  977POPC   PO416044   8.513  22.598   9.330
  977POPC   GL116045   8.269  22.894   9.106
  977POPC   GL216046   8.460  23.211   9.081
  977POPC   C1A16047   7.979  23.017   8.776
  977POPC   D2A16048   7.847  23.233   8.391
  977POPC   C3A16049   7.908  22.980   8.028
  977POPC   C4A16050   8.203  22.915   7.713
  977POPC   C1B16051   8.498  23.032   8.648
  977POPC   C2B16052   8.398  22.999   8.261
  977POPC   C3B16053   8.264  23.341   8.099
  977POPC   C4B16054   8.102  23.425   7.724
  978POPC   NC316055  32.888  22.457   9.548
  978POPC   PO416056  32.901  23.124   9.648
  978POPC   GL116057  32.987  23.094   9.169
  978POPC   GL216058  32.927  22.770   9.046
  978POPC   C1A16059  33.100  23.139   8.685
  978POPC   D2A16060  33.156  23.201   8.224
  978POPC   C3A16061  32.886  22.946   7.943
  978POPC   C4A16062  32.518  22.931   7.673
  978POPC   C1B16063  33.216  22.655   8.719
  978POPC   C2B16064  33.391  22.730   8.321
  978POPC   C3B16065  33.309  22.681   7.909
  978POPC   C4B16066  33.380  23.113   7.750
  979POPC   NC316067   0.374  24.079   9.743
  979POPC   PO416068   0.350  23.413   9.622
  979POPC   GL116069   0.331  23.555   9.179
  979POPC   GL216070   0.431  23.955   9.175
  979POPC   C1A16071   0.546  23.503   8.808
  979POPC   D2A16072   0.449  23.310   8.421
  979POPC   C3A16073   0.402  23.515   8.027
  979POPC   C4A16074   0.306  23.350   7.641
  979POPC   C1B16075   0.231  23.912   8.796
  979POPC   C2B16076   0.513  23.842   8.436
  979POPC   C3B16077   0.542  24.023   8.054
  979POPC   C4B16078   0.313  24.039   7.683
  980POPC   NC316079  32.797   7.203   9.532
  980POPC   PO416080  33.155   7.751   9.421
  980POPC   GL116081  32.962   7.524   9.110
  980POPC   GL216082  33.255   7.615   8.900
  980POPC   C1A16083  32.806   7.465   8.713
  980POPC   D2A16084  32.882   7.616   8.305
  980POPC   C3A16085  32.765   7.328   7.999
  980POPC   C4A16086  32.991   7.067   7.710
  980POPC   C1B16087  33.254   7.228   8.641
  980POPC   C2B16088  33.248   7.222   8.190
  980POPC   C3B16089  33.504   7.079   7.863
  980POPC   C4B16090  33.426   6.873   7.473
  981POPC   NC316091  13.545  18.627   9.384
  981POPC   PO416092  13.585  19.293   9.423
  981POPC   GL116093  13.390  19.245   9.039
  981POPC   GL216094  13.327  18.911   9.038
  981POPC   C1A16095  13.448  19.436   8.662
  981POPC   D2A16096  13.329  19.360   8.249
  981POPC   C3A16097  13.726  19.295   8.053
  981POPC   C4A16098  13.855  18.977   7.766
  981POPC   C1B16099  13.603  18.937   8.673
  981POPC   C2B16100  13.657  18.779   8.264
  981POPC   C3B16101  13.378  18.909   7.964
  981POPC   C4B16102  13.313  18.856   7.515
  982POPC   NC316103  40.695  44.971   9.492
  982POPC   PO416104  40.637  44.316   9.519
  982POPC   GL116105  40.467  44.599   9.190
  982POPC   GL216106  40.405  44.319   9.028
  982POPC   C1A16107  40.560  44.790   8.773
  982POPC   D2A16108  40.972  44.842   8.567
  982POPC   C3A16109  40.979  44.917   8.099
  982POPC   C4A16110  40.821  44.799   7.687
  982POPC   C1B16111  40.675  44.291   8.707
  982POPC   C2B16112  40.699  44.503   8.315
  982POPC   C3B16113  40.657  44.362   7.919
  982POPC   C4B16114  40.306  44.153   7.779
  983POPC   NC316115  35.810  38.605   9.567
  983POPC   PO416116  35.205  38.381   9.471
  983POPC   GL116117  35.318  38.372   9.065
  983POPC   GL216118  35.507  38.698   9.066
  983POPC   C1A16119  35.126  38.165   8.685
  983POPC   D2A16120  35.046  37.962   8.283
  983POPC   C3A16121  35.202  38.271   8.042
  983POPC   C4A16122  35.515  38.436   7.797
  983POPC   C1B16123  35.217  38.705   8.693
  983POPC   C2B16124  35.124  38.734   8.237
  983POPC   C3B16125  35.083  38.745   7.798
  983POPC   C4B16126  35.322  38.657   7.400
  984POPC   NC316127  11.121  39.768   9.565
  984POPC   PO416128  11.221  40.430   9.402
  984POPC   GL116129  11.127  40.073   9.137
  984POPC   GL216130  11.439  39.847   9.153
  984POPC   C1A16131  11.166  39.915   8.715
  984POPC   D2A16132  11.011  39.602   8.432
  984POPC   C3A16133  11.047  39.833   8.064
  984POPC   C4A16134  11.291  39.896   7.706
  984POPC   C1B16135  11.568  40.203   8.870
  984POPC   C2B16136  11.564  40.264   8.409
  984POPC   C3B16137  11.621  40.195   7.953
  984POPC   C4B16138  11.449  40.337   7.538
  985POPC   NC316139  24.925  43.398   9.412
  985POPC   PO416140  25.360  43.003   9.732
  985POPC   GL116141  25.416  43.041   9.277
  985POPC   GL216142  25.490  42.723   9.250
  985POPC   C1A16143  25.303  43.147   8.835
  985POPC   D2A16144  25.248  43.056   8.379
  985POPC   C3A16145  25.427  43.232   7.999
  985POPC   C4A16146  25.255  43.319   7.571
  985POPC   C1B16147  25.542  42.686   8.815
  985POPC   C2B16148  25.654  42.755   8.408
  985POPC   C3B16149  25.455  42.681   8.055
  985POPC   C4B16150  25.392  42.824   7.665
  986POPC   NC316151  12.158  22.203   9.569
  986POPC   PO416152  11.928  22.658   9.125
  986POPC   GL116153  11.992  22.239   9.026
  986POPC   GL216154  11.705  22.040   9.149
  986POPC   C1A16155  12.067  22.235   8.575
  986POPC   D2A16156  11.947  22.530   8.241
  986POPC   C3A16157  11.961  22.272   7.897
  986POPC   C4A16158  12.249  22.163   7.601
  986POPC   C1B16159  11.612  22.023   8.690
  986POPC   C2B16160  11.815  21.890   8.272
  986POPC   C3B16161  11.784  21.793   7.824
  986POPC   C4B16162  11.854  21.926   7.374
  987POPC   NC316163  32.323  16.805   9.442
  987POPC   PO416164  32.771  16.271   9.561
  987POPC   GL116165  32.684  16.486   9.134
  987POPC   GL216166  32.303  16.518   9.034
  987POPC   C1A16167  32.638  16.669   8.695
  987POPC   D2A16168  32.426  16.518   8.318
  987POPC   C3A16169  32.454  16.787   7.980
  987POPC   C4A16170  32.698  16.844   7.642
  987POPC   C1B16171  32.059  16.652   8.661
  987POPC   C2B16172  31.997  16.897   8.259
  987POPC   C3B16173  31.967  16.819   7.799
  987POPC   C4B16174  31.922  16.860   7.363
  988POPC   NC316175  12.750  18.292   9.342
  988POPC   PO416176  13.390  18.187   9.441
  988POPC   GL116177  13.144  18.370   9.055
  988POPC   GL216178  12.880  18.029   8.950
  988POPC   C1A16179  12.844  18.456   8.691
  988POPC   D2A16180  12.678  18.179   8.390
  988POPC   C3A16181  12.726  18.328   7.965
  988POPC   C4A16182  12.511  18.649   7.745
  988POPC   C1B16183  13.257  17.999   8.755
  988POPC   C2B16184  13.308  17.942   8.358
  988POPC   C3B16185  13.078  17.933   7.963
  988POPC   C4B16186  13.242  17.961   7.547
  989POPC   NC316187  25.485  14.766   9.535
  989POPC   PO416188  25.760  14.113   9.400
  989POPC   GL116189  26.008  14.367   9.104
  989POPC   GL216190  26.376  14.293   9.026
  989POPC   C1A16191  25.990  14.330   8.670
  989POPC   D2A16192  25.741  14.138   8.372
  989POPC   C3A16193  25.898  14.179   7.960
  989POPC   C4A16194  25.719  14.273   7.575
  989POPC   C1B16195  26.468  14.177   8.592
  989POPC   C2B16196  26.416  14.281   8.145
  989POPC   C3B16197  26.330  14.654   7.888
  989POPC   C4B16198  26.196  14.599   7.447
  990POPC   NC316199  10.081  16.932   9.537
  990POPC   PO416200   9.914  16.317   9.571
  990POPC   GL116201   9.835  16.514   9.147
  990POPC   GL216202   9.711  16.845   9.116
  990POPC   C1A16203   9.998  16.619   8.730
  990POPC   D2A16204   9.878  16.671   8.308
  990POPC   C3A16205   9.736  16.437   7.943
  990POPC   C4A16206   9.865  16.477   7.538
  990POPC   C1B16207   9.573  17.054   8.730
  990POPC   C2B16208   9.652  17.128   8.304
  990POPC   C3B16209   9.725  16.957   7.895
  990POPC   C4B16210   9.616  16.904   7.462
  991POPC   NC316211   8.190  13.786   9.630
  991POPC   PO416212   7.804  13.187   9.572
  991POPC   GL116213   8.012  13.346   9.054
  991POPC   GL216214   8.304  13.602   9.158
  991POPC   C1A16215   7.875  13.523   8.682
  991POPC   D2A16216   7.933  13.857   8.396
  991POPC   C3A16217   7.968  13.616   8.027
  991POPC   C4A16218   7.674  13.410   7.795
  991POPC   C1B16219   8.286  13.802   8.800
  991POPC   C2B16220   8.397  13.657   8.430
  991POPC   C3B16221   8.396  13.849   8.086
  991POPC   C4B16222   8.424  13.592   7.740
  992POPC   NC316223  10.021  40.596   9.846
  992POPC   PO416224   9.644  40.826   9.406
  992POPC   GL116225   9.643  40.697   9.050
  992POPC   GL216226   9.268  40.764   8.993
  992POPC   C1A16227   9.924  40.763   8.705
  992POPC   D2A16228  10.028  40.987   8.333
  992POPC   C3A16229   9.931  40.752   7.986
  992POPC   C4A16230  10.166  40.899   7.671
  992POPC   C1B16231   9.419  40.565   8.635
  992POPC   C2B16232   9.548  40.785   8.335
  992POPC   C3B16233   9.365  40.854   8.012
  992POPC   C4B16234   9.470  40.712   7.658
  993POPC   NC316235  41.458  12.492   9.433
  993POPC   PO416236  41.849  12.993   9.606
  993POPC   GL116237  41.805  12.829   9.183
  993POPC   GL216238  41.470  12.922   9.123
  993POPC   C1A16239  41.723  12.636   8.769
  993POPC   D2A16240  41.580  12.773   8.347
  993POPC   C3A16241  41.739  12.654   7.955
  993POPC   C4A16242  41.675  12.826   7.536
  993POPC   C1B16243  41.256  12.946   8.703
  993POPC   C2B16244  41.203  13.081   8.232
  993POPC   C3B16245  41.248  12.812   7.841
  993POPC   C4B16246  41.264  12.437   7.559
  994POPC   NC316247  11.430  41.493   9.308
  994POPC   PO416248  10.948  41.884   9.488
  994POPC   GL116249  11.064  41.777   9.057
  994POPC   GL216250  11.367  41.922   8.993
  994POPC   C1A16251  11.219  41.509   8.677
  994POPC   D2A16252  11.568  41.437   8.361
  994POPC   C3A16253  11.421  41.389   7.929
  994POPC   C4A16254  11.001  41.238   7.773
  994POPC   C1B16255  11.357  42.000   8.552
  994POPC   C2B16256  11.235  41.898   8.134
  994POPC   C3B16257  11.360  41.869   7.719
  994POPC   C4B16258  11.663  41.604   7.501
  995POPC   NC316259  12.556  43.014   9.619
  995POPC   PO416260  13.092  42.497   9.697
  995POPC   GL116261  12.984  42.807   9.287
  995POPC   GL216262  12.824  43.127   9.165
  995POPC   C1A16263  12.958  42.845   8.789
  995POPC   D2A16264  12.750  43.176   8.478
  995POPC   C3A16265  12.770  43.017   8.072
  995POPC   C4A16266  13.150  42.926   7.838
  995POPC   C1B16267  13.099  43.333   8.831
  995POPC   C2B16268  13.256  43.313   8.425
  995POPC   C3B16269  13.071  43.443   8.068
  995POPC   C4B16270  12.611  43.527   8.045
  996POPC   NC316271  40.394  31.980   9.132
  996POPC   PO416272  40.441  32.508   9.582
  996POPC   GL116273  40.675  32.448   9.170
  996POPC   GL216274  40.355  32.520   9.069
  996POPC   C1A16275  40.939  32.170   8.829
  996POPC   D2A16276  40.880  32.253   8.383
  996POPC   C3A16277  40.728  31.965   8.086
  996POPC   C4A16278  41.013  31.791   7.760
  996POPC   C1B16279  40.471  32.413   8.669
  996POPC   C2B16280  40.388  32.398   8.274
  996POPC   C3B16281  40.640  32.621   8.075
  996POPC   C4B16282  40.944  32.365   7.839
  997POPC   NC316283  16.934  39.898   9.605
  997POPC   PO416284  16.658  40.504   9.466
  997POPC   GL116285  16.738  40.241   9.114
  997POPC   GL216286  16.699  39.867   9.157
  997POPC   C1A16287  16.824  40.086   8.693
  997POPC   D2A16288  16.680  40.063   8.282
  997POPC   C3A16289  16.667  40.125   7.831
  997POPC   C4A16290  16.372  40.388   7.712
  997POPC   C1B16291  16.571  39.601   8.825
  997POPC   C2B16292  16.371  39.698   8.442
  997POPC   C3B16293  16.517  39.675   8.013
  997POPC   C4B16294  16.699  39.658   7.613
  998POPC   NC316295  19.670   2.194   9.325
  998POPC   PO416296  20.146   1.757   9.383
  998POPC   GL116297  19.856   1.746   9.055
  998POPC   GL216298  19.573   1.982   8.875
  998POPC   C1A16299  19.978   1.805   8.642
  998POPC   D2A16300  19.772   2.009   8.347
  998POPC   C3A16301  19.891   1.703   8.069
  998POPC   C4A16302  20.041   1.716   7.684
  998POPC   C1B16303  19.931   2.315   8.754
  998POPC   C2B16304  20.132   2.412   8.360
  998POPC   C3B16305  20.092   2.197   8.007
  998POPC   C4B16306  19.717   2.114   7.829
  999POPC   NC316307   7.680   1.145   9.717
  999POPC   PO416308   7.271   1.626   9.464
  999POPC   GL116309   7.263   1.341   9.136
  999POPC   GL216310   7.564   1.486   8.982
  999POPC   C1A16311   7.270   1.159   8.716
  999POPC   D2A16312   7.424   1.273   8.296
  999POPC   C3A16313   7.243   1.065   7.937
  999POPC   C4A16314   7.122   0.666   7.766
  999POPC   C1B16315   7.642   1.713   8.563
  999POPC   C2B16316   7.725   1.635   8.098
  999POPC   C3B16317   7.655   1.335   7.743
  999POPC   C4B16318   7.833   1.309   7.305
 1000POPC   NC316319  13.117  21.763   9.897
 1000POPC   PO416320  12.771  22.255   9.483
 1000POPC   GL116321  12.752  22.107   9.066
 1000POPC   GL216322  13.036  22.295   9.056
 1000POPC   C1A16323  12.561  22.133   8.659
 1000POPC   D2A16324  12.449  22.366   8.238
 1000POPC   C3A16325  12.683  22.278   7.857
 1000POPC   C4A16326  12.652  21.868   7.642
 1000POPC   C1B16327  13.067  22.282   8.675
 1000POPC   C2B16328  12.912  22.094   8.293
 1000POPC   C3B16329  13.047  21.914   7.937
 1000POPC   C4B16330  13.112  22.078   7.514
 1001POPC   NC316331  19.872   5.248   9.609
 1001POPC   PO416332  19.660   4.629   9.571
 1001POPC   GL116333  19.884   4.909   9.219
 1001POPC   GL216334  19.749   5.245   9.103
 1001POPC   C1A16335  20.185   5.071   8.892
 1001POPC   D2A16336  19.985   5.285   8.540
 1001POPC   C3A16337  20.083   5.319   8.113
 1001POPC   C4A16338  20.032   5.062   7.751
 1001POPC   C1B16339  19.485   5.261   8.751
 1001POPC   C2B16340  19.334   5.454   8.388
 1001POPC   C3B16341  19.553   5.241   8.070
 1001POPC   C4B16342  19.603   5.295   7.645
 1002POPC   NC316343  38.853  40.722   9.673
 1002POPC   PO416344  38.169  40.496   9.893
 1002POPC   GL116345  38.322  40.605   9.363
 1002POPC   GL216346  38.678  40.565   9.225
 1002POPC   C1A16347  38.230  40.770   8.903
 1002POPC   D2A16348  38.018  40.940   8.489
 1002POPC   C3A16349  38.149  40.804   8.025
 1002POPC   C4A16350  38.283  40.843   7.567
 1002POPC   C1B16351  38.671  40.589   8.769
 1002POPC   C2B16352  38.525  40.759   8.378
 1002POPC   C3B16353  38.671  40.721   7.963
 1002POPC   C4B16354  38.546  40.416   7.715
 1003POPC   NC316355  39.749  41.093   9.430
 1003POPC   PO416356  39.688  40.384   9.373
 1003POPC   GL116357  39.998  40.667   9.150
 1003POPC   GL216358  40.307  40.497   9.003
 1003POPC   C1A16359  40.092  40.933   8.780
 1003POPC   D2A16360  39.950  41.068   8.363
 1003POPC   C3A16361  40.267  41.029   8.062
 1003POPC   C4A16362  40.270  40.769   7.717
 1003POPC   C1B16363  40.047  40.429   8.656
 1003POPC   C2B16364  40.115  40.566   8.236
 1003POPC   C3B16365  39.820  40.697   7.939
 1003POPC   C4B16366  39.719  40.368   7.680
 1004POPC   NC316367  16.523  24.602   9.657
 1004POPC   PO416368  17.132  24.598   9.553
 1004POPC   GL116369  16.871  24.798   9.205
 1004POPC   GL216370  16.539  24.614   9.150
 1004POPC   C1A16371  16.864  24.726   8.738
 1004POPC   D2A16372  17.056  24.679   8.314
 1004POPC   C3A16373  17.010  24.985   7.993
 1004POPC   C4A16374  16.819  24.856   7.639
 1004POPC   C1B16375  16.627  24.283   8.827
 1004POPC   C2B16376  16.789  24.233   8.372
 1004POPC   C3B16377  16.876  24.242   7.906
 1004POPC   C4B16378  16.713  23.947   7.567
 1005POPC   NC316379   4.112  18.498   9.575
 1005POPC   PO416380   4.289  17.852   9.804
 1005POPC   GL116381   4.323  18.056   9.384
 1005POPC   GL216382   4.025  17.985   9.302
 1005POPC   C1A16383   4.268  18.191   8.894
 1005POPC   D2A16384   4.390  18.165   8.423
 1005POPC   C3A16385   4.449  18.500   8.107
 1005POPC   C4A16386   4.385  18.439   7.656
 1005POPC   C1B16387   3.854  17.888   8.927
 1005POPC   C2B16388   4.010  17.833   8.549
 1005POPC   C3B16389   4.069  17.841   8.163
 1005POPC   C4B16390   4.053  18.211   7.976
 1006POPC   NC316391  32.069  11.133   9.559
 1006POPC   PO416392  32.705  11.336   9.669
 1006POPC   GL116393  32.489  11.405   9.272
 1006POPC   GL216394  32.271  11.158   9.105
 1006POPC   C1A16395  32.607  11.386   8.810
 1006POPC   D2A16396  32.682  11.493   8.394
 1006POPC   C3A16397  32.515  11.306   8.033
 1006POPC   C4A16398  32.295  11.607   7.746
 1006POPC   C1B16399  32.150  11.558   8.939
 1006POPC   C2B16400  32.178  11.462   8.500
 1006POPC   C3B16401  32.020  11.403   8.102
 1006POPC   C4B16402  31.951  11.109   7.758
 1007POPC   NC316403  24.105  43.113   9.693
 1007POPC   PO416404  23.594  42.807   9.387
 1007POPC   GL116405  23.646  42.965   9.034
 1007POPC   GL216406  23.572  43.295   9.182
 1007POPC   C1A16407  23.784  42.776   8.639
 1007POPC   D2A16408  24.055  42.747   8.277
 1007POPC   C3A16409  23.798  42.813   7.907
 1007POPC   C4A16410  23.700  42.999   7.482
 1007POPC   C1B16411  23.749  43.386   8.786
 1007POPC   C2B16412  23.932  43.272   8.397
 1007POPC   C3B16413  23.806  43.328   7.989
 1007POPC   C4B16414  23.778  43.485   7.578
 1008POPC   NC316415  34.947  23.629   9.463
 1008POPC   PO416416  35.494  24.034   9.449
 1008POPC   GL116417  35.325  23.747   9.128
 1008POPC   GL216418  35.011  23.865   9.031
 1008POPC   C1A16419  35.423  23.782   8.674
 1008POPC   D2A16420  35.687  23.563   8.358
 1008POPC   C3A16421  35.573  23.607   7.897
 1008POPC   C4A16422  35.343  23.500   7.522
 1008POPC   C1B16423  34.958  23.541   8.720
 1008POPC   C2B16424  35.137  23.476   8.321
 1008POPC   C3B16425  35.017  23.518   7.911
 1008POPC   C4B16426  34.966  23.837   7.567
 1009POPC   NC316427  42.620  39.444   9.211
 1009POPC   PO416428  43.184  39.251   9.506
 1009POPC   GL116429  43.133  39.346   9.096
 1009POPC   GL216430  42.961  39.034   9.053
 1009POPC   C1A16431  43.101  39.323   8.651
 1009POPC   D2A16432  43.092  39.573   8.307
 1009POPC   C3A16433  43.070  39.338   7.958
 1009POPC   C4A16434  43.331  39.293   7.654
 1009POPC   C1B16435  42.724  38.979   8.708
 1009POPC   C2B16436  42.758  39.091   8.292
 1009POPC   C3B16437  42.662  38.950   7.928
 1009POPC   C4B16438  42.927  38.969   7.607
 1010POPC   NC316439  42.385   9.667   9.677
 1010POPC   PO416440  41.814  10.000   9.386
 1010POPC   GL116441  42.085   9.691   9.142
 1010POPC   GL216442  42.404   9.481   9.193
 1010POPC   C1A16443  42.203   9.682   8.716
 1010POPC   D2A16444  42.396   9.970   8.428
 1010POPC   C3A16445  42.216   9.906   8.055
 1010POPC   C4A16446  42.416  10.111   7.727
 1010POPC   C1B16447  42.515   9.296   8.780
 1010POPC   C2B16448  42.588   9.485   8.383
 1010POPC   C3B16449  42.587   9.419   7.958
 1010POPC   C4B16450  42.310   9.610   7.640
 1011POPC   NC316451  44.014  27.795   9.644
 1011POPC   PO416452  43.747  27.125   9.630
 1011POPC   GL116453  43.836  27.444   9.248
 1011POPC   GL216454  44.128  27.425   9.030
 1011POPC   C1A16455  43.768  27.720   8.818
 1011POPC   D2A16456  43.802  27.532   8.345
 1011POPC   C3A16457  43.769  27.715   7.912
 1011POPC   C4A16458  43.471  27.695   7.528
 1011POPC   C1B16459  44.362  27.116   8.801
 1011POPC   C2B16460  44.407  27.149   8.374
 1011POPC   C3B16461  44.192  27.337   7.989
 1011POPC   C4B16462  44.394  27.718   7.788
 1012POPC   NC316463  12.354  21.327   9.727
 1012POPC   PO416464  11.906  21.747   9.536
 1012POPC   GL116465  12.173  21.546   9.264
 1012POPC   GL216466  12.315  21.865   9.214
 1012POPC   C1A16467  12.173  21.266   8.888
 1012POPC   D2A16468  12.268  21.208   8.439
 1012POPC   C3A16469  12.025  21.411   8.137
 1012POPC   C4A16470  11.887  21.234   7.765
 1012POPC   C1B16471  12.094  21.776   8.814
 1012POPC   C2B16472  12.310  21.740   8.434
 1012POPC   C3B16473  12.292  21.881   8.029
 1012POPC   C4B16474  12.220  21.612   7.681
 1013POPC   NC316475  10.209   3.964   9.514
 1013POPC   PO416476  10.566   3.392   9.601
 1013POPC   GL116477  10.546   3.633   9.223
 1013POPC   GL216478  10.224   3.600   9.099
 1013POPC   C1A16479  10.659   3.560   8.771
 1013POPC   D2A16480  10.851   3.368   8.369
 1013POPC   C3A16481  10.665   3.437   7.937
 1013POPC   C4A16482  10.231   3.419   7.762
 1013POPC   C1B16483  10.106   3.623   8.630
 1013POPC   C2B16484  10.271   3.338   8.270
 1013POPC   C3B16485  10.410   2.986   7.981
 1013POPC   C4B16486  10.528   2.839   7.567
 1014POPC   NC316487  40.624  41.111   9.448
 1014POPC   PO416488  40.555  41.796   9.560
 1014POPC   GL116489  40.750  41.569   9.205
 1014POPC   GL216490  41.109  41.461   9.230
 1014POPC   C1A16491  40.553  41.459   8.791
 1014POPC   D2A16492  40.338  41.650   8.425
 1014POPC   C3A16493  40.522  41.527   8.036
 1014POPC   C4A16494  40.653  41.675   7.647
 1014POPC   C1B16495  41.056  41.589   8.784
 1014POPC   C2B16496  40.910  41.518   8.385
 1014POPC   C3B16497  41.019  41.425   7.959
 1014POPC   C4B16498  41.266  41.635   7.680
 1015POPC   NC316499   0.201   7.302   9.416
 1015POPC   PO416500   0.686   7.811   9.352
 1015POPC   GL116501   0.486   7.532   9.069
 1015POPC   GL216502   0.617   7.173   9.175
 1015POPC   C1A16503   0.228   7.577   8.698
 1015POPC   D2A16504   0.458   7.706   8.317
 1015POPC   C3A16505   0.264   7.602   7.928
 1015POPC   C4A16506   0.208   7.316   7.614
 1015POPC   C1B16507   0.451   7.108   8.768
 1015POPC   C2B16508   0.348   7.212   8.360
 1015POPC   C3B16509   0.439   7.067   7.988
 1015POPC   C4B16510   0.424   6.852   7.613
 1016POPC   NC316511   1.615  38.821   9.228
 1016POPC   PO416512   1.263  38.357   9.517
 1016POPC   GL116513   1.102  38.505   9.142
 1016POPC   GL216514   1.344  38.488   9.002
 1016POPC   C1A16515   0.869  38.628   8.773
 1016POPC   D2A16516   0.946  38.475   8.351
 1016POPC   C3A16517   0.910  38.690   7.960
 1016POPC   C4A16518   1.232  38.428   7.778
 1016POPC   C1B16519   1.232  38.250   8.699
 1016POPC   C2B16520   1.426  38.270   8.328
 1016POPC   C3B16521   1.656  38.383   8.025
 1016POPC   C4B16522   1.742  38.242   7.638
 1017POPC   NC316523   5.032   1.688   9.530
 1017POPC   PO416524   4.717   2.235   9.523
 1017POPC   GL116525   4.920   2.047   9.137
 1017POPC   GL216526   5.238   1.799   9.098
 1017POPC   C1A16527   5.227   2.238   8.861
 1017POPC   D2A16528   5.433   2.156   8.475
 1017POPC   C3A16529   5.230   1.977   8.142
 1017POPC   C4A16530   5.222   2.239   7.766
 1017POPC   C1B16531   5.087   1.761   8.667
 1017POPC   C2B16532   5.260   1.490   8.333
 1017POPC   C3B16533   5.146   1.511   7.909
 1017POPC   C4B16534   4.924   1.841   7.689
 1018POPC   NC316535  41.745   3.386   9.496
 1018POPC   PO416536  41.401   4.054   9.452
 1018POPC   GL116537  41.601   3.751   9.158
 1018POPC   GL216538  41.418   3.450   9.053
 1018POPC   C1A16539  41.631   3.809   8.715
 1018POPC   D2A16540  41.286   3.687   8.436
 1018POPC   C3A16541  41.408   3.399   8.129
 1018POPC   C4A16542  41.586   3.613   7.823
 1018POPC   C1B16543  41.642   3.314   8.698
 1018POPC   C2B16544  41.866   3.470   8.360
 1018POPC   C3B16545  41.916   3.270   7.944
 1018POPC   C4B16546  41.993   3.439   7.515
 1019POPC   NC316547  21.834   1.685   9.557
 1019POPC   PO416548  22.428   1.331   9.616
 1019POPC   GL116549  22.163   1.300   9.258
 1019POPC   GL216550  21.982   1.559   9.088
 1019POPC   C1A16551  22.232   1.236   8.819
 1019POPC   D2A16552  21.970   1.314   8.482
 1019POPC   C3A16553  22.108   1.239   8.092
 1019POPC   C4A16554  22.214   1.118   7.709
 1019POPC   C1B16555  22.157   1.752   8.671
 1019POPC   C2B16556  22.284   1.802   8.219
 1019POPC   C3B16557  22.367   1.615   7.811
 1019POPC   C4B16558  22.181   1.503   7.374
 1020POPC   NC316559  10.335  27.070   9.433
 1020POPC   PO416560  10.525  26.492   9.747
 1020POPC   GL116561  10.742  26.502   9.316
 1020POPC   GL216562  10.438  26.507   9.161
 1020POPC   C1A16563  10.869  26.617   8.838
 1020POPC   D2A16564  10.716  26.559   8.365
 1020POPC   C3A16565  10.977  26.705   7.991
 1020POPC   C4A16566  10.830  26.919   7.603
 1020POPC   C1B16567  10.413  26.829   8.801
 1020POPC   C2B16568  10.665  27.055   8.466
 1020POPC   C3B16569  10.524  26.973   8.025
 1020POPC   C4B16570  10.511  26.549   7.850
 1021POPC   NC316571   3.599  26.707   9.439
 1021POPC   PO416572   4.289  26.840   9.492
 1021POPC   GL116573   4.441  26.785   9.086
 1021POPC   GL216574   4.613  26.481   9.046
 1021POPC   C1A16575   4.335  26.859   8.656
 1021POPC   D2A16576   4.383  26.826   8.210
 1021POPC   C3A16577   4.097  27.050   7.864
 1021POPC   C4A16578   4.137  27.170   7.380
 1021POPC   C1B16579   4.198  26.394   8.827
 1021POPC   C2B16580   4.128  26.407   8.381
 1021POPC   C3B16581   4.109  26.457   7.939
 1021POPC   C4B16582   4.426  26.688   7.724
 1022POPC   NC316583  23.789  38.034   9.511
 1022POPC   PO416584  23.548  37.399   9.493
 1022POPC   GL116585  23.712  37.425   9.136
 1022POPC   GL216586  23.917  37.742   9.112
 1022POPC   C1A16587  23.540  37.305   8.761
 1022POPC   D2A16588  23.658  37.517   8.400
 1022POPC   C3A16589  23.420  37.490   8.025
 1022POPC   C4A16590  23.629  37.526   7.645
 1022POPC   C1B16591  24.146  37.900   8.743
 1022POPC   C2B16592  24.081  37.929   8.300
 1022POPC   C3B16593  23.719  37.929   8.061
 1022POPC   C4B16594  23.909  37.968   7.710
 1023POPC   NC316595  35.753  22.706   9.326
 1023POPC   PO416596  36.285  23.097   9.514
 1023POPC   GL116597  36.205  22.856   9.145
 1023POPC   GL216598  35.960  23.063   9.041
 1023POPC   C1A16599  36.134  22.667   8.718
 1023POPC   D2A16600  36.191  22.895   8.305
 1023POPC   C3A16601  36.067  22.906   7.866
 1023POPC   C4A16602  36.301  23.208   7.507
 1023POPC   C1B16603  35.835  23.073   8.634
 1023POPC   C2B16604  35.701  22.671   8.429
 1023POPC   C3B16605  35.535  22.614   8.026
 1023POPC   C4B16606  35.666  22.698   7.628
 1024POPC   NC316607  36.317  30.302   9.384
 1024POPC   PO416608  36.003  29.738   9.365
 1024POPC   GL116609  35.980  29.866   8.979
 1024POPC   GL216610  36.027  30.219   8.961
 1024POPC   C1A16611  36.225  29.801   8.642
 1024POPC   D2A16612  36.264  30.080   8.308
 1024POPC   C3A16613  36.108  29.803   7.991
 1024POPC   C4A16614  36.492  29.736   7.748
 1024POPC   C1B16615  35.812  30.135   8.552
 1024POPC   C2B16616  35.847  30.342   8.140
 1024POPC   C3B16617  36.137  30.267   7.807
 1024POPC   C4B16618  36.090  29.928   7.477
 1025POPC   NC316619  30.091   3.328   9.450
 1025POPC   PO416620  29.687   3.843   9.344
 1025POPC   GL116621  29.848   3.528   9.058
 1025POPC   GL216622  30.190   3.612   9.019
 1025POPC   C1A16623  29.997   3.370   8.640
 1025POPC   D2A16624  29.838   3.459   8.259
 1025POPC   C3A16625  30.149   3.552   7.966
 1025POPC   C4A16626  29.872   3.435   7.673
 1025POPC   C1B16627  30.360   3.799   8.641
 1025POPC   C2B16628  30.519   3.840   8.210
 1025POPC   C3B16629  30.378   3.999   7.792
 1025POPC   C4B16630  30.355   3.746   7.380
 1026POPC   NC316631  34.253  14.181   9.442
 1026POPC   PO416632  34.919  14.371   9.501
 1026POPC   GL116633  34.602  14.430   9.170
 1026POPC   GL216634  34.540  14.784   9.151
 1026POPC   C1A16635  34.578  14.245   8.760
 1026POPC   D2A16636  34.712  14.412   8.348
 1026POPC   C3A16637  34.647  14.202   7.926
 1026POPC   C4A16638  34.693  14.526   7.598
 1026POPC   C1B16639  34.334  14.689   8.760
 1026POPC   C2B16640  34.201  14.424   8.448
 1026POPC   C3B16641  34.269  14.529   8.061
 1026POPC   C4B16642  34.160  14.308   7.719
 1027POPC   NC316643  26.681  12.305   9.479
 1027POPC   PO416644  26.864  12.917   9.515
 1027POPC   GL116645  26.754  12.748   9.144
 1027POPC   GL216646  27.014  12.493   9.110
 1027POPC   C1A16647  26.847  13.024   8.780
 1027POPC   D2A16648  26.710  13.099   8.393
 1027POPC   C3A16649  26.881  12.856   8.078
 1027POPC   C4A16650  26.824  12.969   7.661
 1027POPC   C1B16651  26.812  12.530   8.675
 1027POPC   C2B16652  26.541  12.567   8.323
 1027POPC   C3B16653  26.544  12.482   7.936
 1027POPC   C4B16654  26.914  12.422   7.727
 1028POPC   NC316655   7.351  29.240  10.007
 1028POPC   PO416656   7.806  29.103   9.494
 1028POPC   GL116657   7.362  29.045   9.320
 1028POPC   GL216658   7.227  29.366   9.256
 1028POPC   C1A16659   7.099  29.000   8.920
 1028POPC   D2A16660   7.209  29.079   8.487
 1028POPC   C3A16661   7.123  28.857   8.100
 1028POPC   C4A16662   7.285  28.841   7.658
 1028POPC   C1B16663   7.537  29.277   8.888
 1028POPC   C2B16664   7.688  29.276   8.439
 1028POPC   C3B16665   7.532  29.164   8.020
 1028POPC   C4B16666   7.608  29.234   7.553
 1029POPC   NC316667   2.138  26.893   9.659
 1029POPC   PO416668   2.463  26.308   9.535
 1029POPC   GL116669   2.145  26.591   9.251
 1029POPC   GL216670   1.852  26.439   9.126
 1029POPC   C1A16671   2.103  26.876   8.896
 1029POPC   D2A16672   1.975  26.842   8.473
 1029POPC   C3A16673   1.996  27.135   8.153
 1029POPC   C4A16674   2.198  27.017   7.794
 1029POPC   C1B16675   1.708  26.293   8.734
 1029POPC   C2B16676   1.661  26.464   8.352
 1029POPC   C3B16677   1.746  26.677   7.986
 1029POPC   C4B16678   1.364  26.754   7.764
 1030POPC   NC316679  43.062  28.078   9.528
 1030POPC   PO416680  43.305  28.727   9.427
 1030POPC   GL116681  43.141  28.464   9.134
 1030POPC   GL216682  42.794  28.485   9.221
 1030POPC   C1A16683  43.080  28.529   8.704
 1030POPC   D2A16684  43.288  28.421   8.348
 1030POPC   C3A16685  43.287  28.583   7.960
 1030POPC   C4A16686  43.411  28.579   7.516
 1030POPC   C1B16687  42.778  28.151   8.895
 1030POPC   C2B16688  42.935  28.063   8.476
 1030POPC   C3B16689  42.865  28.242   8.076
 1030POPC   C4B16690  43.012  28.268   7.673
 1031POPC   NC316691  38.122   6.567   9.548
 1031POPC   PO416692  38.712   6.801   9.740
 1031POPC   GL116693  38.548   6.563   9.295
 1031POPC   GL216694  38.710   6.427   9.039
 1031POPC   C1A16695  38.230   6.559   8.897
 1031POPC   D2A16696  38.355   6.521   8.439
 1031POPC   C3A16697  38.132   6.620   8.032
 1031POPC   C4A16698  38.237   6.498   7.595
 1031POPC   C1B16699  38.802   6.671   8.673
 1031POPC   C2B16700  38.916   6.544   8.328
 1031POPC   C3B16701  38.644   6.561   8.020
 1031POPC   C4B16702  38.516   6.876   7.748
 1032POPC   NC316703   7.805   3.689   9.536
 1032POPC   PO416704   7.178   3.586   9.600
 1032POPC   GL116705   7.244   3.557   9.170
 1032POPC   GL216706   7.510   3.800   9.098
 1032POPC   C1A16707   7.129   3.598   8.739
 1032POPC   D2A16708   7.324   3.751   8.369
 1032POPC   C3A16709   7.379   3.492   8.007
 1032POPC   C4A16710   7.156   3.534   7.655
 1032POPC   C1B16711   7.814   3.925   8.744
 1032POPC   C2B16712   7.766   4.069   8.332
 1032POPC   C3B16713   7.587   3.962   7.945
 1032POPC   C4B16714   7.611   3.727   7.574
 1033POPC   NC316715   7.030   6.727   9.403
 1033POPC   PO416716   6.291   6.648   9.411
 1033POPC   GL116717   6.607   6.611   9.142
 1033POPC   GL216718   6.673   6.949   9.131
 1033POPC   C1A16719   6.689   6.544   8.725
 1033POPC   D2A16720   6.501   6.429   8.358
 1033POPC   C3A16721   6.768   6.463   8.010
 1033POPC   C4A16722   6.497   6.449   7.687
 1033POPC   C1B16723   6.389   6.961   8.806
 1033POPC   C2B16724   6.572   6.961   8.408
 1033POPC   C3B16725   6.453   6.885   7.992
 1033POPC   C4B16726   6.118   7.118   7.812
 1034POPC   NC316727  37.421  32.922   9.595
 1034POPC   PO416728  37.978  32.528   9.427
 1034POPC   GL116729  37.954  32.917   9.190
 1034POPC   GL216730  37.614  32.876   9.112
 1034POPC   C1A16731  37.919  33.212   8.832
 1034POPC   D2A16732  37.661  33.176   8.448
 1034POPC   C3A16733  37.804  32.968   8.074
 1034POPC   C4A16734  37.796  33.063   7.681
 1034POPC   C1B16735  37.776  32.738   8.698
 1034POPC   C2B16736  37.647  32.559   8.304
 1034POPC   C3B16737  37.884  32.449   7.949
 1034POPC   C4B16738  37.782  32.530   7.532
 1035POPC   NC316739  21.338  21.171   9.517
 1035POPC   PO416740  21.914  21.323   9.533
 1035POPC   GL116741  21.635  21.483   9.203
 1035POPC   GL216742  21.299  21.637   9.249
 1035POPC   C1A16743  21.385  21.273   8.865
 1035POPC   D2A16744  21.479  21.419   8.452
 1035POPC   C3A16745  21.173  21.328   8.144
 1035POPC   C4A16746  21.270  21.385   7.717
 1035POPC   C1B16747  21.431  21.783   8.813
 1035POPC   C2B16748  21.657  21.893   8.420
 1035POPC   C3B16749  21.443  21.769   8.037
 1035POPC   C4B16750  21.359  21.975   7.640
 1036POPC   NC316751  35.088   8.505   9.317
 1036POPC   PO416752  34.671   8.968   9.610
 1036POPC   GL116753  34.543   9.066   9.194
 1036POPC   GL216754  34.708   8.763   9.107
 1036POPC   C1A16755  34.497   9.025   8.727
 1036POPC   D2A16756  34.280   9.137   8.350
 1036POPC   C3A16757  34.367   8.915   7.969
 1036POPC   C4A16758  34.371   9.057   7.543
 1036POPC   C1B16759  34.950   8.769   8.717
 1036POPC   C2B16760  34.747   8.774   8.320
 1036POPC   C3B16761  34.883   8.774   7.881
 1036POPC   C4B16762  34.857   8.959   7.450
 1037POPC   NC316763  29.908  39.481   9.438
 1037POPC   PO416764  29.559  38.831   9.555
 1037POPC   GL116765  29.728  39.066   9.180
 1037POPC   GL216766  29.541  39.375   9.097
 1037POPC   C1A16767  29.933  39.059   8.766
 1037POPC   D2A16768  30.127  39.341   8.442
 1037POPC   C3A16769  30.118  39.238   7.991
 1037POPC   C4A16770  30.037  39.442   7.585
 1037POPC   C1B16771  29.652  39.476   8.647
 1037POPC   C2B16772  29.642  39.208   8.241
 1037POPC   C3B16773  29.605  39.257   7.776
 1037POPC   C4B16774  29.550  39.435   7.348
 1038POPC   NC316775  14.333  12.266   9.577
 1038POPC   PO416776  14.702  11.654   9.543
 1038POPC   GL116777  14.461  11.914   9.173
 1038POPC   GL216778  14.300  12.266   9.069
 1038POPC   C1A16779  14.393  11.940   8.709
 1038POPC   D2A16780  14.234  11.756   8.353
 1038POPC   C3A16781  14.466  11.870   8.014
 1038POPC   C4A16782  14.370  12.103   7.681
 1038POPC   C1B16783  14.160  12.415   8.636
 1038POPC   C2B16784  14.246  12.335   8.175
 1038POPC   C3B16785  14.130  12.563   7.772
 1038POPC   C4B16786  14.281  12.477   7.335
 1039POPC   NC316787  25.962  23.907   9.608
 1039POPC   PO416788  25.725  23.274   9.536
 1039POPC   GL116789  25.898  23.598   9.209
 1039POPC   GL216790  26.199  23.661   9.032
 1039POPC   C1A16791  25.801  23.643   8.744
 1039POPC   D2A16792  25.993  23.571   8.335
 1039POPC   C3A16793  25.797  23.723   7.927
 1039POPC   C4A16794  25.779  23.499   7.506
 1039POPC   C1B16795  26.351  23.872   8.641
 1039POPC   C2B16796  26.450  23.796   8.208
 1039POPC   C3B16797  26.259  23.922   7.794
 1039POPC   C4B16798  26.388  24.070   7.339
 1040POPC   NC316799  30.419   1.392   9.535
 1040POPC   PO416800  30.870   0.917   9.506
 1040POPC   GL116801  30.817   1.186   9.139
 1040POPC   GL216802  30.465   1.239   9.053
 1040POPC   C1A16803  30.793   1.102   8.684
 1040POPC   D2A16804  30.791   1.320   8.294
 1040POPC   C3A16805  31.035   1.083   7.993
 1040POPC   C4A16806  30.860   0.905   7.644
 1040POPC   C1B16807  30.390   1.557   8.744
 1040POPC   C2B16808  30.193   1.616   8.340
 1040POPC   C3B16809  30.283   1.328   8.041
 1040POPC   C4B16810  30.618   1.324   7.768
 1041POPC   NC316811  25.499  30.548   9.543
 1041POPC   PO416812  25.053  31.061   9.474
 1041POPC   GL116813  25.204  30.753   9.153
 1041POPC   GL216814  25.535  30.790   9.097
 1041POPC   C1A16815  25.127  30.464   8.807
 1041POPC   D2A16816  25.056  30.645   8.401
 1041POPC   C3A16817  24.960  30.378   8.055
 1041POPC   C4A16818  25.042  30.399   7.627
 1041POPC   C1B16819  25.416  30.883   8.692
 1041POPC   C2B16820  25.483  30.987   8.283
 1041POPC   C3B16821  25.274  30.793   7.953
 1041POPC   C4B16822  25.470  30.711   7.598
 1042POPC   NC316823  28.547  19.494   9.244
 1042POPC   PO416824  28.555  20.107   9.418
 1042POPC   GL116825  28.234  19.948   9.116
 1042POPC   GL216826  28.436  19.802   8.880
 1042POPC   C1A16827  28.150  20.142   8.685
 1042POPC   D2A16828  28.509  20.030   8.416
 1042POPC   C3A16829  28.362  20.077   8.026
 1042POPC   C4A16830  28.377  19.879   7.652
 1042POPC   C1B16831  28.795  19.681   8.694
 1042POPC   C2B16832  28.783  19.533   8.371
 1042POPC   C3B16833  28.521  19.590   8.065
 1042POPC   C4B16834  28.560  19.420   7.694
 1043POPC   NC316835  26.684  36.197   9.496
 1043POPC   PO416836  27.196  35.844   9.371
 1043POPC   GL116837  26.990  36.121   9.081
 1043POPC   GL216838  26.992  36.489   9.169
 1043POPC   C1A16839  26.738  35.932   8.730
 1043POPC   D2A16840  26.661  35.700   8.304
 1043POPC   C3A16841  26.673  35.966   7.930
 1043POPC   C4A16842  26.809  35.926   7.480
 1043POPC   C1B16843  26.860  36.455   8.710
 1043POPC   C2B16844  26.898  36.195   8.328
 1043POPC   C3B16845  27.110  36.199   7.907
 1043POPC   C4B16846  26.824  36.413   7.638
 1044POPC   NC316847  39.838  35.156   9.521
 1044POPC   PO416848  40.172  35.658   9.354
 1044POPC   GL116849  39.949  35.421   9.048
 1044POPC   GL216850  39.783  35.062   9.031
 1044POPC   C1A16851  39.813  35.386   8.618
 1044POPC   D2A16852  39.820  35.153   8.222
 1044POPC   C3A16853  39.752  35.359   7.815
 1044POPC   C4A16854  39.829  35.532   7.375
 1044POPC   C1B16855  40.151  35.026   8.773
 1044POPC   C2B16856  40.292  35.249   8.419
 1044POPC   C3B16857  40.245  35.326   7.964
 1044POPC   C4B16858  40.103  35.124   7.553
 1045POPC   NC316859   4.724  22.374   9.496
 1045POPC   PO416860   5.258  22.015   9.654
 1045POPC   GL116861   5.318  22.197   9.240
 1045POPC   GL216862   4.999  22.179   9.097
 1045POPC   C1A16863   5.415  22.284   8.787
 1045POPC   D2A16864   5.363  22.135   8.367
 1045POPC   C3A16865   5.483  22.259   7.951
 1045POPC   C4A16866   5.399  22.077   7.533
 1045POPC   C1B16867   4.939  22.082   8.662
 1045POPC   C2B16868   4.879  22.241   8.241
 1045POPC   C3B16869   4.994  22.164   7.822
 1045POPC   C4B16870   4.894  21.992   7.407
 1046POPC   NC316871  43.197  33.006   9.495
 1046POPC   PO416872  42.512  33.028   9.747
 1046POPC   GL116873  42.709  33.166   9.339
 1046POPC   GL216874  42.749  32.848   9.158
 1046POPC   C1A16875  42.753  33.287   8.885
 1046POPC   D2A16876  43.006  33.383   8.516
 1046POPC   C3A16877  43.021  33.014   8.248
 1046POPC   C4A16878  42.835  32.980   7.850
 1046POPC   C1B16879  43.068  32.915   8.796
 1046POPC   C2B16880  43.306  32.653   8.525
 1046POPC   C3B16881  43.490  32.736   8.142
 1046POPC   C4B16882  43.316  32.839   7.797
 1047POPC   NC316883   6.177  37.020   9.499
 1047POPC   PO416884   6.848  36.787   9.486
 1047POPC   GL116885   6.717  36.962   9.117
 1047POPC   GL216886   6.444  37.162   9.103
 1047POPC   C1A16887   6.598  36.829   8.715
 1047POPC   D2A16888   6.783  36.739   8.339
 1047POPC   C3A16889   6.575  36.822   7.930
 1047POPC   C4A16890   6.534  36.663   7.527
 1047POPC   C1B16891   6.248  37.193   8.702
 1047POPC   C2B16892   6.527  37.180   8.330
 1047POPC   C3B16893   6.578  37.380   7.994
 1047POPC   C4B16894   6.315  37.583   7.696
 1048POPC   NC316895  44.943  38.898   9.380
 1048POPC   PO416896  44.470  39.241   9.677
 1048POPC   GL116897  44.520  39.176   9.234
 1048POPC   GL216898  44.433  38.854   9.275
 1048POPC   C1A16899  44.478  39.408   8.817
 1048POPC   D2A16900  44.401  39.308   8.371
 1048POPC   C3A16901  44.580  39.499   8.012
 1048POPC   C4A16902  44.858  39.366   7.691
 1048POPC   C1B16903  44.420  38.861   8.824
 1048POPC   C2B16904  44.308  38.819   8.381
 1048POPC   C3B16905  44.491  38.930   7.981
 1048POPC   C4B16906  44.295  39.226   7.680
 1049POPC   NC316907  37.435  29.553   9.466
 1049POPC   PO416908  38.033  29.176   9.533
 1049POPC   GL116909  37.853  29.371   9.161
 1049POPC   GL216910  37.602  29.135   9.101
 1049POPC   C1A16911  37.878  29.295   8.698
 1049POPC   D2A16912  37.558  29.251   8.389
 1049POPC   C3A16913  37.732  29.231   7.992
 1049POPC   C4A16914  37.568  29.311   7.611
 1049POPC   C1B16915  37.857  28.809   8.867
 1049POPC   C2B16916  37.937  28.826   8.422
 1049POPC   C3B16917  37.769  28.718   8.020
 1049POPC   C4B16918  37.820  28.834   7.596
 1050POPC   NC316919  10.202  29.413   9.746
 1050POPC   PO416920  10.664  28.979   9.465
 1050POPC   GL116921  10.530  29.024   9.078
 1050POPC   GL216922  10.230  28.832   9.152
 1050POPC   C1A16923  10.600  29.294   8.717
 1050POPC   D2A16924  10.424  29.477   8.391
 1050POPC   C3A16925  10.536  29.295   8.034
 1050POPC   C4A16926  10.427  29.502   7.678
 1050POPC   C1B16927  10.314  28.736   8.719
 1050POPC   C2B16928  10.576  28.898   8.391
 1050POPC   C3B16929  10.562  28.782   7.954
 1050POPC   C4B16930  10.487  29.014   7.602
 1051POPC   NC316931  15.928  31.689   9.604
 1051POPC   PO416932  16.503  31.742   9.455
 1051POPC   GL116933  16.224  31.574   9.152
 1051POPC   GL216934  15.833  31.569   9.116
 1051POPC   C1A16935  16.130  31.456   8.734
 1051POPC   D2A16936  15.783  31.617   8.450
 1051POPC   C3A16937  15.881  31.481   8.025
 1051POPC   C4A16938  15.996  31.596   7.572
 1051POPC   C1B16939  15.680  31.260   8.796
 1051POPC   C2B16940  15.804  31.087   8.385
 1051POPC   C3B16941  15.666  30.996   7.950
 1051POPC   C4B16942  15.562  31.335   7.668
 1052POPC   NC316943  10.237   6.801   9.462
 1052POPC   PO416944  10.830   6.560   9.790
 1052POPC   GL116945  10.642   6.490   9.371
 1052POPC   GL216946  10.673   6.842   9.202
 1052POPC   C1A16947  10.663   6.435   8.907
 1052POPC   D2A16948  10.584   6.288   8.504
 1052POPC   C3A16949  10.479   6.477   8.110
 1052POPC   C4A16950  10.213   6.294   7.721
 1052POPC   C1B16951  10.539   6.926   8.780
 1052POPC   C2B16952  10.650   6.979   8.353
 1052POPC   C3B16953  10.463   6.983   7.983
 1052POPC   C4B16954  10.404   6.754   7.658
 1053POPC   NC316955  30.046  41.954   9.309
 1053POPC   PO416956  29.816  41.482   9.707
 1053POPC   GL116957  29.772  41.532   9.222
 1053POPC   GL216958  29.555  41.828   9.193
 1053POPC   C1A16959  29.930  41.605   8.755
 1053POPC   D2A16960  29.979  41.433   8.319
 1053POPC   C3A16961  30.229  41.607   7.973
 1053POPC   C4A16962  30.034  41.707   7.571
 1053POPC   C1B16963  29.506  41.915   8.757
 1053POPC   C2B16964  29.697  41.847   8.346
 1053POPC   C3B16965  29.675  41.757   7.923
 1053POPC   C4B16966  29.596  41.984   7.529
 1054POPC   NC316967  28.115  21.444   9.375
 1054POPC   PO416968  28.757  21.691   9.527
 1054POPC   GL116969  28.605  21.474   9.159
 1054POPC   GL216970  28.374  21.693   9.006
 1054POPC   C1A16971  28.501  21.258   8.770
 1054POPC   D2A16972  28.663  21.391   8.350
 1054POPC   C3A16973  28.376  21.243   8.043
 1054POPC   C4A16974  28.170  21.362   7.683
 1054POPC   C1B16975  28.677  21.785   8.686
 1054POPC   C2B16976  28.604  21.915   8.258
 1054POPC   C3B16977  28.530  21.725   7.851
 1054POPC   C4B16978  28.716  21.350   7.676
 1055POPC   NC316979   6.648  21.926   9.455
 1055POPC   PO416980   6.763  22.496   9.709
 1055POPC   GL116981   6.667  22.389   9.242
 1055POPC   GL216982   6.915  22.154   9.061
 1055POPC   C1A16983   6.522  22.485   8.812
 1055POPC   D2A16984   6.681  22.597   8.391
 1055POPC   C3A16985   6.505  22.443   7.996
 1055POPC   C4A16986   6.310  22.053   7.785
 1055POPC   C1B16987   7.072  22.381   8.672
 1055POPC   C2B16988   7.021  22.217   8.271
 1055POPC   C3B16989   6.875  22.119   7.899
 1055POPC   C4B16990   7.125  22.374   7.660
 1056POPC   NC316991  33.355   8.160   9.544
 1056POPC   PO416992  34.040   8.211   9.444
 1056POPC   GL116993  33.884   8.178   9.026
 1056POPC   GL216994  33.589   8.037   9.099
 1056POPC   C1A16995  34.042   8.094   8.613
 1056POPC   D2A16996  34.263   8.043   8.229
 1056POPC   C3A16997  34.042   8.246   7.926
 1056POPC   C4A16998  33.800   7.945   7.706
 1056POPC   C1B16999  33.468   8.110   8.652
 1056POPC   C2B17000  33.580   8.111   8.191
 1056POPC   C3B17001  33.318   8.075   7.824
 1056POPC   C4B17002  33.263   8.068   7.365
 1057POPC   NC317003  31.382  29.120   9.412
 1057POPC   PO417004  31.211  28.492   9.409
 1057POPC   GL117005  31.315  28.758   9.041
 1057POPC   GL217006  31.670  28.947   9.014
 1057POPC   C1A17007  31.383  28.897   8.620
 1057POPC   D2A17008  31.224  29.267   8.483
 1057POPC   C3A17009  31.164  29.206   8.066
 1057POPC   C4A17010  31.308  29.372   7.716
 1057POPC   C1B17011  31.713  29.314   8.694
 1057POPC   C2B17012  31.666  29.369   8.243
 1057POPC   C3B17013  31.762  29.169   7.873
 1057POPC   C4B17014  31.877  28.735   7.753
 1058POPC   NC317015  18.036   5.978   9.466
 1058POPC   PO417016  18.494   5.498   9.364
 1058POPC   GL117017  18.409   5.935   9.099
 1058POPC   GL217018  18.033   6.015   8.979
 1058POPC   C1A17019  18.375   6.167   8.674
 1058POPC   D2A17020  18.329   5.908   8.282
 1058POPC   C3A17021  18.196   6.066   7.886
 1058POPC   C4A17022  18.360   6.161   7.472
 1058POPC   C1B17023  18.190   5.652   8.711
 1058POPC   C2B17024  17.959   5.524   8.346
 1058POPC   C3B17025  18.094   5.545   7.926
 1058POPC   C4B17026  17.895   5.791   7.591
 1059POPC   NC317027   8.354  10.994   9.480
 1059POPC   PO417028   8.293  11.649   9.514
 1059POPC   GL117029   8.229  11.362   9.128
 1059POPC   GL217030   7.986  11.069   9.139
 1059POPC   C1A17031   8.203  11.183   8.678
 1059POPC   D2A17032   8.511  10.998   8.402
 1059POPC   C3A17033   8.366  11.059   7.996
 1059POPC   C4A17034   8.347  11.383   7.680
 1059POPC   C1B17035   7.797  11.415   8.866
 1059POPC   C2B17036   7.949  11.569   8.457
 1059POPC   C3B17037   7.988  11.394   8.066
 1059POPC   C4B17038   7.811  11.478   7.684
 1060POPC   NC317039   2.192  41.122   9.516
 1060POPC   PO417040   1.759  41.700   9.391
 1060POPC   GL117041   1.939  41.402   9.149
 1060POPC   GL217042   2.258  41.551   9.155
 1060POPC   C1A17043   1.898  41.367   8.707
 1060POPC   D2A17044   1.863  41.267   8.282
 1060POPC   C3A17045   2.079  41.427   7.913
 1060POPC   C4A17046   2.147  41.515   7.495
 1060POPC   C1B17047   2.187  41.793   8.747
 1060POPC   C2B17048   2.103  41.755   8.295
 1060POPC   C3B17049   2.354  41.842   7.914
 1060POPC   C4B17050   2.386  41.952   7.483
 1061POPC   NC317051  25.529  26.677   9.450
 1061POPC   PO417052  24.942  26.995   9.485
 1061POPC   GL117053  25.063  27.019   9.101
 1061POPC   GL217054  25.095  26.660   9.077
 1061POPC   C1A17055  25.441  26.992   8.857
 1061POPC   D2A17056  25.702  26.817   8.528
 1061POPC   C3A17057  25.631  26.947   8.097
 1061POPC   C4A17058  25.227  27.052   7.906
 1061POPC   C1B17059  25.294  26.512   8.705
 1061POPC   C2B17060  25.237  26.653   8.261
 1061POPC   C3B17061  25.311  26.536   7.812
 1061POPC   C4B17062  25.021  26.609   7.446
 1062POPC   NC317063  35.719  18.777   9.475
 1062POPC   PO417064  35.082  19.209   9.449
 1062POPC   GL117065  35.291  19.036   9.145
 1062POPC   GL217066  35.295  18.709   9.169
 1062POPC   C1A17067  35.294  19.183   8.740
 1062POPC   D2A17068  35.104  19.145   8.364
 1062POPC   C3A17069  35.019  19.516   8.154
 1062POPC   C4A17070  35.156  19.323   7.771
 1062POPC   C1B17071  35.639  18.835   8.832
 1062POPC   C2B17072  35.571  18.849   8.384
 1062POPC   C3B17073  35.388  18.828   7.964
 1062POPC   C4B17074  35.598  19.049   7.645
 1063POPC   NC317075  38.331  29.546   9.636
 1063POPC   PO417076  38.634  30.110   9.671
 1063POPC   GL117077  38.516  29.884   9.272
 1063POPC   GL217078  38.131  29.809   9.193
 1063POPC   C1A17079  38.432  29.963   8.832
 1063POPC   D2A17080  38.250  30.205   8.514
 1063POPC   C3A17081  38.279  30.050   8.105
 1063POPC   C4A17082  38.346  29.999   7.692
 1063POPC   C1B17083  37.957  29.817   8.707
 1063POPC   C2B17084  37.934  29.677   8.230
 1063POPC   C3B17085  37.975  29.637   7.729
 1063POPC   C4B17086  38.233  29.693   7.308
 1064POPC   NC317087  14.997   2.553   9.308
 1064POPC   PO417088  15.343   3.032   9.474
 1064POPC   GL117089  15.352   2.882   9.104
 1064POPC   GL217090  15.494   2.555   9.129
 1064POPC   C1A17091  15.154   3.023   8.760
 1064POPC   D2A17092  14.957   2.830   8.438
 1064POPC   C3A17093  15.183   2.950   8.111
 1064POPC   C4A17094  15.066   3.103   7.734
 1064POPC   C1B17095  15.364   2.531   8.723
 1064POPC   C2B17096  15.526   2.374   8.340
 1064POPC   C3B17097  15.469   2.548   7.964
 1064POPC   C4B17098  15.164   2.604   7.666
 1065POPC   NC317099   9.136  28.153  10.081
 1065POPC   PO417100   9.146  28.449   9.404
 1065POPC   GL117101   9.014  28.638   9.064
 1065POPC   GL217102   8.663  28.672   8.986
 1065POPC   C1A17103   9.027  28.528   8.648
 1065POPC   D2A17104   8.712  28.648   8.407
 1065POPC   C3A17105   8.900  28.547   8.057
 1065POPC   C4A17106   9.311  28.576   7.870
 1065POPC   C1B17107   8.620  28.257   8.793
 1065POPC   C2B17108   8.759  28.122   8.407
 1065POPC   C3B17109   8.639  28.112   7.994
 1065POPC   C4B17110   8.983  28.140   7.743
 1066POPC   NC317111   9.180  37.645   9.462
 1066POPC   PO417112   8.499  37.364   9.448
 1066POPC   GL117113   8.648  37.570   9.089
 1066POPC   GL217114   8.933  37.752   9.038
 1066POPC   C1A17115   8.789  37.482   8.653
 1066POPC   D2A17116   8.703  37.218   8.346
 1066POPC   C3A17117   8.835  37.464   8.045
 1066POPC   C4A17118   8.744  37.536   7.668
 1066POPC   C1B17119   9.118  37.884   8.686
 1066POPC   C2B17120   8.947  37.925   8.301
 1066POPC   C3B17121   9.069  37.887   7.892
 1066POPC   C4B17122   9.000  37.934   7.465
 1067POPC   NC317123   7.216  22.149   9.507
 1067POPC   PO417124   7.759  22.645   9.580
 1067POPC   GL117125   7.726  22.433   9.193
 1067POPC   GL217126   7.582  22.110   9.150
 1067POPC   C1A17127   7.759  22.436   8.739
 1067POPC   D2A17128   7.524  22.316   8.348
 1067POPC   C3A17129   7.595  22.412   7.878
 1067POPC   C4A17130   7.580  22.346   7.395
 1067POPC   C1B17131   7.411  21.967   8.758
 1067POPC   C2B17132   7.544  21.812   8.342
 1067POPC   C3B17133   7.371  21.961   7.928
 1067POPC   C4B17134   7.074  21.758   7.613
 1068POPC   NC317135  33.866  31.225   9.737
 1068POPC   PO417136  33.721  31.796   9.447
 1068POPC   GL117137  33.770  31.545   9.096
 1068POPC   GL217138  33.530  31.308   9.213
 1068POPC   C1A17139  33.938  31.544   8.675
 1068POPC   D2A17140  34.106  31.302   8.347
 1068POPC   C3A17141  33.949  31.360   7.921
 1068POPC   C4A17142  34.088  31.458   7.493
 1068POPC   C1B17143  33.433  31.373   8.765
 1068POPC   C2B17144  33.602  31.250   8.358
 1068POPC   C3B17145  33.428  31.368   7.942
 1068POPC   C4B17146  33.602  31.575   7.582
 1069POPC   NC317147  11.065   6.975   9.536
 1069POPC   PO417148  11.431   6.449   9.584
 1069POPC   GL117149  11.397   6.693   9.216
 1069POPC   GL217150  11.100   6.559   9.177
 1069POPC   C1A17151  11.463   6.563   8.775
 1069POPC   D2A17152  11.748   6.537   8.457
 1069POPC   C3A17153  11.441   6.625   8.154
 1069POPC   C4A17154  11.372   6.671   7.742
 1069POPC   C1B17155  11.023   6.797   8.808
 1069POPC   C2B17156  10.994   6.610   8.399
 1069POPC   C3B17157  10.908   6.705   7.952
 1069POPC   C4B17158  10.738   6.348   7.697
 1070POPC   NC317159  23.692  18.146   9.366
 1070POPC   PO417160  23.156  18.630   9.231
 1070POPC   GL117161  23.547  18.508   9.022
 1070POPC   GL217162  23.926  18.515   9.081
 1070POPC   C1A17163  23.715  18.346   8.625
 1070POPC   D2A17164  23.907  18.496   8.244
 1070POPC   C3A17165  23.659  18.393   7.900
 1070POPC   C4A17166  23.350  18.048   7.848
 1070POPC   C1B17167  24.209  18.321   8.747
 1070POPC   C2B17168  24.141  18.070   8.380
 1070POPC   C3B17169  24.065  18.051   7.973
 1070POPC   C4B17170  23.841  17.988   7.596
 1071POPC   NC317171  21.174   9.312   9.347
 1071POPC   PO417172  21.606   8.794   9.393
 1071POPC   GL117173  21.534   9.111   9.033
 1071POPC   GL217174  21.193   9.264   8.853
 1071POPC   C1A17175  21.656   9.355   8.679
 1071POPC   D2A17176  21.372   9.340   8.351
 1071POPC   C3A17177  21.408   9.029   8.047
 1071POPC   C4A17178  21.610   8.658   7.894
 1071POPC   C1B17179  21.075   8.841   8.742
 1071POPC   C2B17180  21.023   8.611   8.337
 1071POPC   C3B17181  21.079   8.683   7.880
 1071POPC   C4B17182  20.987   9.085   7.695
 1072POPC   NC317183  40.875  40.283   9.541
 1072POPC   PO417184  40.401  40.658   9.479
 1072POPC   GL117185  40.755  40.662   9.218
 1072POPC   GL217186  40.938  40.958   9.064
 1072POPC   C1A17187  40.812  40.509   8.833
 1072POPC   D2A17188  40.879  40.638   8.429
 1072POPC   C3A17189  40.621  40.581   8.074
 1072POPC   C4A17190  40.690  40.516   7.658
 1072POPC   C1B17191  40.907  41.087   8.658
 1072POPC   C2B17192  40.756  41.072   8.216
 1072POPC   C3B17193  40.710  41.059   7.767
 1072POPC   C4B17194  40.432  41.182   7.408
 1073POPC   NC317195  35.138  13.983   9.368
 1073POPC   PO417196  35.214  13.321   9.416
 1073POPC   GL117197  35.581  13.546   9.240
 1073POPC   GL217198  35.750  13.296   9.028
 1073POPC   C1A17199  35.545  13.764   8.844
 1073POPC   D2A17200  35.362  13.621   8.456
 1073POPC   C3A17201  35.504  13.832   8.090
 1073POPC   C4A17202  35.200  13.936   7.766
 1073POPC   C1B17203  35.828  13.414   8.591
 1073POPC   C2B17204  35.702  13.274   8.195
 1073POPC   C3B17205  35.333  13.366   8.000
 1073POPC   C4B17206  35.550  13.554   7.661
 1074POPC   NC317207  39.602   5.583   9.881
 1074POPC   PO417208  39.094   5.977   9.668
 1074POPC   GL117209  38.990   6.010   9.214
 1074POPC   GL217210  39.293   5.873   9.050
 1074POPC   C1A17211  38.915   6.058   8.744
 1074POPC   D2A17212  38.790   6.061   8.281
 1074POPC   C3A17213  39.128   6.074   7.947
 1074POPC   C4A17214  39.191   6.180   7.503
 1074POPC   C1B17215  39.572   5.648   8.713
 1074POPC   C2B17216  39.776   5.659   8.309
 1074POPC   C3B17217  39.481   5.653   7.979
 1074POPC   C4B17218  39.369   5.684   7.537
 1075POPC   NC317219  21.168  30.445   9.398
 1075POPC   PO417220  21.195  31.035   9.764
 1075POPC   GL117221  21.313  30.937   9.308
 1075POPC   GL217222  21.587  30.669   9.188
 1075POPC   C1A17223  21.290  30.958   8.879
 1075POPC   D2A17224  21.568  30.918   8.515
 1075POPC   C3A17225  21.502  30.755   8.097
 1075POPC   C4A17226  21.450  30.967   7.701
 1075POPC   C1B17227  21.493  30.486   8.790
 1075POPC   C2B17228  21.248  30.374   8.421
 1075POPC   C3B17229  21.119  30.355   7.999
 1075POPC   C4B17230  21.393  30.469   7.676
 1076POPC   NC317231  34.780  41.536   9.599
 1076POPC   PO417232  34.161  41.234   9.474
 1076POPC   GL117233  34.446  41.477   9.186
 1076POPC   GL217234  34.789  41.676   9.118
 1076POPC   C1A17235  34.281  41.373   8.791
 1076POPC   D2A17236  34.372  41.312   8.356
 1076POPC   C3A17237  34.786  41.388   8.166
 1076POPC   C4A17238  34.681  41.262   7.740
 1076POPC   C1B17239  34.713  41.608   8.688
 1076POPC   C2B17240  34.475  41.816   8.354
 1076POPC   C3B17241  34.510  41.734   7.915
 1076POPC   C4B17242  34.879  41.760   7.717
 1077POPC   NC317243  31.398  21.455   9.603
 1077POPC   PO417244  32.065  21.226   9.620
 1077POPC   GL117245  31.785  21.332   9.231
 1077POPC   GL217246  31.476  21.602   9.137
 1077POPC   C1A17247  31.733  21.372   8.772
 1077POPC   D2A17248  31.569  21.515   8.388
 1077POPC   C3A17249  31.820  21.355   8.091
 1077POPC   C4A17250  31.652  21.082   7.802
 1077POPC   C1B17251  31.202  21.428   8.817
 1077POPC   C2B17252  31.023  21.436   8.394
 1077POPC   C3B17253  31.202  21.294   8.015
 1077POPC   C4B17254  31.471  21.554   7.765
 1078POPC   NC317255  28.609  44.044   9.510
 1078POPC   PO417256  27.989  44.034   9.399
 1078POPC   GL117257  28.286  43.868   9.107
 1078POPC   GL217258  28.610  44.033   9.000
 1078POPC   C1A17259  28.309  43.755   8.671
 1078POPC   D2A17260  28.378  44.046   8.366
 1078POPC   C3A17261  28.194  43.978   7.958
 1078POPC   C4A17262  28.544  44.104   7.757
 1078POPC   C1B17263  28.788  43.647   8.824
 1078POPC   C2B17264  28.649  43.414   8.472
 1078POPC   C3B17265  28.433  43.583   8.164
 1078POPC   C4B17266  28.461  43.594   7.731
 1079POPC   NC317267  24.659  34.672   9.835
 1079POPC   PO417268  24.428  34.311   9.402
 1079POPC   GL117269  24.540  34.515   9.034
 1079POPC   GL217270  24.795  34.681   9.193
 1079POPC   C1A17271  24.443  34.620   8.607
 1079POPC   D2A17272  24.568  34.547   8.179
 1079POPC   C3A17273  24.306  34.707   7.841
 1079POPC   C4A17274  24.285  34.599   7.394
 1079POPC   C1B17275  24.815  34.929   8.828
 1079POPC   C2B17276  24.959  34.793   8.422
 1079POPC   C3B17277  25.005  34.743   8.013
 1079POPC   C4B17278  24.733  34.953   7.772
 1080POPC   NC317279  22.045   4.527   9.695
 1080POPC   PO417280  21.846   4.110   9.187
 1080POPC   GL117281  22.189   4.236   8.944
 1080POPC   GL217282  22.295   4.502   9.172
 1080POPC   C1A17283  22.129   4.328   8.497
 1080POPC   D2A17284  21.882   4.659   8.263
 1080POPC   C3A17285  21.808   4.495   7.861
 1080POPC   C4A17286  21.910   4.061   7.885
 1080POPC   C1B17287  22.444   4.651   8.754
 1080POPC   C2B17288  22.425   4.690   8.278
 1080POPC   C3B17289  22.337   4.403   7.895
 1080POPC   C4B17290  22.486   4.381   7.426
 1081POPC   NC317291  43.707   2.180   9.690
 1081POPC   PO417292  44.103   1.617   9.895
 1081POPC   GL117293  43.866   1.721   9.442
 1081POPC   GL217294  43.918   2.052   9.248
 1081POPC   C1A17295  43.668   1.717   8.962
 1081POPC   D2A17296  43.915   1.756   8.540
 1081POPC   C3A17297  43.765   1.705   8.107
 1081POPC   C4A17298  43.559   1.939   7.752
 1081POPC   C1B17299  43.874   2.186   8.826
 1081POPC   C2B17300  43.972   2.263   8.395
 1081POPC   C3B17301  44.139   2.048   8.070
 1081POPC   C4B17302  44.067   1.881   7.677
 1082POPC   NC317303   3.408  14.696   9.438
 1082POPC   PO417304   3.519  14.097   9.642
 1082POPC   GL117305   3.644  14.275   9.212
 1082POPC   GL217306   3.316  14.352   9.064
 1082POPC   C1A17307   3.667  14.154   8.731
 1082POPC   D2A17308   3.906  14.313   8.350
 1082POPC   C3A17309   3.764  14.263   7.924
 1082POPC   C4A17310   3.614  13.923   7.686
 1082POPC   C1B17311   3.564  14.647   8.794
 1082POPC   C2B17312   3.457  14.555   8.368
 1082POPC   C3B17313   3.320  14.551   7.942
 1082POPC   C4B17314   3.455  14.728   7.508
 1083POPC   NC317315   7.935  20.573   9.609
 1083POPC   PO417316   8.584  20.547   9.642
 1083POPC   GL117317   8.333  20.679   9.264
 1083POPC   GL217318   8.594  20.646   8.998
 1083POPC   C1A17319   8.123  20.703   8.834
 1083POPC   D2A17320   8.358  20.699   8.446
 1083POPC   C3A17321   8.146  20.622   8.066
 1083POPC   C4A17322   7.799  20.775   7.870
 1083POPC   C1B17323   8.463  20.285   8.728
 1083POPC   C2B17324   8.311  20.196   8.287
 1083POPC   C3B17325   8.483  20.274   7.837
 1083POPC   C4B17326   8.457  20.294   7.338
 1084POPC   NC317327  18.845  33.088   9.627
 1084POPC   PO417328  19.205  32.588   9.476
 1084POPC   GL117329  19.295  32.891   9.157
 1084POPC   GL217330  19.105  33.168   9.206
 1084POPC   C1A17331  19.274  33.056   8.748
 1084POPC   D2A17332  19.016  32.926   8.420
 1084POPC   C3A17333  19.131  32.937   7.980
 1084POPC   C4A17334  18.809  32.812   7.668
 1084POPC   C1B17335  18.850  33.348   8.871
 1084POPC   C2B17336  18.599  33.227   8.522
 1084POPC   C3B17337  18.672  33.141   8.103
 1084POPC   C4B17338  18.848  33.368   7.763
 1085POPC   NC317339  23.149  14.911   9.583
 1085POPC   PO417340  22.581  14.791   9.187
 1085POPC   GL117341  22.778  15.171   9.035
 1085POPC   GL217342  23.083  15.295   9.223
 1085POPC   C1A17343  22.844  15.293   8.619
 1085POPC   D2A17344  22.585  15.285   8.266
 1085POPC   C3A17345  22.647  14.972   7.923
 1085POPC   C4A17346  22.670  15.371   7.760
 1085POPC   C1B17347  23.220  14.998   8.898
 1085POPC   C2B17348  23.278  15.052   8.462
 1085POPC   C3B17349  23.067  15.224   8.090
 1085POPC   C4B17350  23.118  15.027   7.683
 1086POPC   NC317351  19.453  23.135   9.475
 1086POPC   PO417352  19.912  22.656   9.531
 1086POPC   GL117353  19.832  22.870   9.160
 1086POPC   GL217354  19.525  22.719   9.145
 1086POPC   C1A17355  19.921  23.073   8.749
 1086POPC   D2A17356  19.767  22.899   8.355
 1086POPC   C3A17357  19.716  23.143   7.975
 1086POPC   C4A17358  19.906  23.237   7.610
 1086POPC   C1B17359  19.641  22.569   8.757
 1086POPC   C2B17360  19.765  22.381   8.368
 1086POPC   C3B17361  19.759  22.570   7.946
 1086POPC   C4B17362  19.545  22.765   7.595
 1087POPC   NC317363  39.563  11.842   9.479
 1087POPC   PO417364  38.972  12.334   9.563
 1087POPC   GL117365  38.986  12.304   9.155
 1087POPC   GL217366  39.124  11.979   9.205
 1087POPC   C1A17367  39.046  12.194   8.748
 1087POPC   D2A17368  39.019  11.933   8.441
 1087POPC   C3A17369  39.134  12.108   8.078
 1087POPC   C4A17370  38.995  12.230   7.694
 1087POPC   C1B17371  39.130  11.678   8.887
 1087POPC   C2B17372  39.310  11.513   8.509
 1087POPC   C3B17373  39.417  11.656   8.117
 1087POPC   C4B17374  39.220  11.763   7.725
 1088POPC   NC317375  41.767   2.639   9.472
 1088POPC   PO417376  41.313   3.192   9.491
 1088POPC   GL117377  41.378   2.845   9.220
 1088POPC   GL217378  41.657   3.005   9.126
 1088POPC   C1A17379  41.281   2.555   8.855
 1088POPC   D2A17380  41.472   2.480   8.448
 1088POPC   C3A17381  41.266   2.722   8.097
 1088POPC   C4A17382  41.313   2.584   7.673
 1088POPC   C1B17383  41.707   2.814   8.756
 1088POPC   C2B17384  41.686   2.958   8.322
 1088POPC   C3B17385  41.724   2.801   7.900
 1088POPC   C4B17386  41.953   2.914   7.561
 1089POPC   NC317387   5.543  36.202   9.333
 1089POPC   PO417388   5.965  36.623   9.688
 1089POPC   GL117389   6.030  36.310   9.268
 1089POPC   GL217390   6.036  35.912   9.261
 1089POPC   C1A17391   6.022  36.153   8.821
 1089POPC   D2A17392   6.170  36.157   8.381
 1089POPC   C3A17393   6.284  35.838   8.051
 1089POPC   C4A17394   6.076  35.871   7.636
 1089POPC   C1B17395   6.035  35.663   8.854
 1089POPC   C2B17396   5.962  35.654   8.424
 1089POPC   C3B17397   5.778  35.914   8.081
 1089POPC   C4B17398   5.559  35.910   7.671
 1090POPC   NC317399  42.588   2.504   9.372
 1090POPC   PO417400  42.083   3.008   9.414
 1090POPC   GL117401  42.154   2.920   9.024
 1090POPC   GL217402  42.475   2.905   9.054
 1090POPC   C1A17403  42.185   2.786   8.606
 1090POPC   D2A17404  42.045   2.586   8.252
 1090POPC   C3A17405  42.277   2.803   7.950
 1090POPC   C4A17406  42.466   2.849   7.561
 1090POPC   C1B17407  42.665   2.699   8.719
 1090POPC   C2B17408  42.579   2.547   8.320
 1090POPC   C3B17409  42.723   2.517   7.907
 1090POPC   C4B17410  42.921   2.623   7.519
 1091POPC   NC317411  42.185  35.072   9.560
 1091POPC   PO417412  42.307  35.768   9.453
 1091POPC   GL117413  42.427  35.450   9.174
 1091POPC   GL217414  42.593  35.151   9.232
 1091POPC   C1A17415  42.513  35.370   8.747
 1091POPC   D2A17416  42.460  35.629   8.388
 1091POPC   C3A17417  42.126  35.419   8.186
 1091POPC   C4A17418  42.066  35.448   7.811
 1091POPC   C1B17419  42.811  34.951   8.885
 1091POPC   C2B17420  42.726  34.954   8.482
 1091POPC   C3B17421  42.552  35.166   8.171
 1091POPC   C4B17422  42.482  35.154   7.751
 1092POPC   NC317423  13.839  21.645   9.476
 1092POPC   PO417424  13.174  21.469   9.531
 1092POPC   GL117425  13.372  21.523   9.148
 1092POPC   GL217426  13.091  21.622   8.953
 1092POPC   C1A17427  13.681  21.561   8.796
 1092POPC   D2A17428  13.804  21.254   8.464
 1092POPC   C3A17429  13.790  21.275   8.019
 1092POPC   C4A17430  13.876  21.580   7.698
 1092POPC   C1B17431  13.256  21.347   8.621
 1092POPC   C2B17432  13.357  21.078   8.244
 1092POPC   C3B17433  13.343  21.182   7.820
 1092POPC   C4B17434  13.616  21.209   7.468
 1093POPC   NC317435  36.616  15.501   9.394
 1093POPC   PO417436  36.904  16.070   9.544
 1093POPC   GL117437  36.750  15.971   9.147
 1093POPC   GL217438  36.394  15.979   9.106
 1093POPC   C1A17439  36.747  16.134   8.732
 1093POPC   D2A17440  36.843  15.868   8.390
 1093POPC   C3A17441  36.896  16.042   8.011
 1093POPC   C4A17442  37.012  15.747   7.718
 1093POPC   C1B17443  36.490  15.688   8.764
 1093POPC   C2B17444  36.491  15.482   8.356
 1093POPC   C3B17445  36.539  15.672   7.975
 1093POPC   C4B17446  36.339  15.741   7.621
 1094POPC   NC317447   3.817  16.028   9.332
 1094POPC   PO417448   3.173  15.765   9.345
 1094POPC   GL117449   3.442  15.845   9.035
 1094POPC   GL217450   3.717  15.586   9.067
 1094POPC   C1A17451   3.461  16.137   8.691
 1094POPC   D2A17452   3.256  16.406   8.387
 1094POPC   C3A17453   3.376  16.258   7.985
 1094POPC   C4A17454   3.313  15.900   7.800
 1094POPC   C1B17455   3.610  15.623   8.618
 1094POPC   C2B17456   3.517  15.827   8.265
 1094POPC   C3B17457   3.719  15.638   7.889
 1094POPC   C4B17458   3.715  15.636   7.472
 1095POPC   NC317459   7.541  10.761   9.641
 1095POPC   PO417460   7.375  10.263   9.294
 1095POPC   GL117461   7.401  10.577   9.147
 1095POPC   GL217462   7.751  10.593   9.096
 1095POPC   C1A17463   7.176  10.685   8.787
 1095POPC   D2A17464   7.163  10.425   8.436
 1095POPC   C3A17465   7.375  10.705   8.190
 1095POPC   C4A17466   7.211  10.798   7.802
 1095POPC   C1B17467   7.636  10.401   8.698
 1095POPC   C2B17468   7.734  10.329   8.273
 1095POPC   C3B17469   7.556  10.350   7.864
 1095POPC   C4B17470   7.557  10.566   7.507
 1096POPC   NC317471  32.528  30.915   9.319
 1096POPC   PO417472  32.191  30.221   9.406
 1096POPC   GL117473  32.296  30.483   9.096
 1096POPC   GL217474  32.611  30.344   8.997
 1096POPC   C1A17475  32.036  30.639   8.747
 1096POPC   D2A17476  31.916  30.875   8.363
 1096POPC   C3A17477  31.914  30.606   8.035
 1096POPC   C4A17478  32.155  30.855   7.782
 1096POPC   C1B17479  32.537  30.728   8.699
 1096POPC   C2B17480  32.381  30.672   8.270
 1096POPC   C3B17481  32.616  30.718   7.916
 1096POPC   C4B17482  32.539  30.673   7.491
 1097POPC   NC317483  43.127   4.587   9.709
 1097POPC   PO417484  43.508   5.067   9.595
 1097POPC   GL117485  43.463   5.276   9.184
 1097POPC   GL217486  43.121   5.420   9.139
 1097POPC   C1A17487  43.468   5.088   8.784
 1097POPC   D2A17488  43.263   4.983   8.404
 1097POPC   C3A17489  43.460   5.081   8.036
 1097POPC   C4A17490  43.415   5.066   7.640
 1097POPC   C1B17491  42.965   5.289   8.723
 1097POPC   C2B17492  42.716   5.025   8.459
 1097POPC   C3B17493  42.651   4.966   8.029
 1097POPC   C4B17494  42.918   5.165   7.710
 1098POPC   NC317495  30.285  26.061   9.484
 1098POPC   PO417496  29.763  26.215   9.647
 1098POPC   GL117497  29.761  26.125   9.223
 1098POPC   GL217498  29.700  26.439   9.079
 1098POPC   C1A17499  29.771  25.997   8.778
 1098POPC   D2A17500  30.109  26.012   8.455
 1098POPC   C3A17501  29.957  25.860   8.072
 1098POPC   C4A17502  30.002  25.906   7.655
 1098POPC   C1B17503  29.873  26.475   8.651
 1098POPC   C2B17504  29.709  26.274   8.278
 1098POPC   C3B17505  29.570  26.148   7.859
 1098POPC   C4B17506  29.623  26.379   7.473
 1099POPC   NC317507  25.658  22.892   9.284
 1099POPC   PO417508  26.281  23.013   9.504
 1099POPC   GL117509  26.122  22.923   9.108
 1099POPC   GL217510  25.977  22.553   9.078
 1099POPC   C1A17511  25.911  23.125   8.724
 1099POPC   D2A17512  25.624  23.129   8.347
 1099POPC   C3A17513  25.880  23.210   7.975
 1099POPC   C4A17514  26.265  23.419   7.895
 1099POPC   C1B17515  26.148  22.664   8.686
 1099POPC   C2B17516  26.007  22.784   8.305
 1099POPC   C3B17517  26.154  22.798   7.949
 1099POPC   C4B17518  26.074  22.626   7.564
 1100POPC   NC317519  43.853  14.685   9.431
 1100POPC   PO417520  44.252  14.172   9.530
 1100POPC   GL117521  43.982  14.263   9.152
 1100POPC   GL217522  44.117  14.575   8.997
 1100POPC   C1A17523  43.857  14.197   8.727
 1100POPC   D2A17524  43.992  14.339   8.297
 1100POPC   C3A17525  43.826  14.215   7.896
 1100POPC   C4A17526  43.503  14.313   7.602
 1100POPC   C1B17527  44.238  14.711   8.566
 1100POPC   C2B17528  44.045  14.836   8.148
 1100POPC   C3B17529  43.770  14.734   7.800
 1100POPC   C4B17530  43.998  14.483   7.471
 1101POPC   NC317531   3.926  38.867   9.726
 1101POPC   PO417532   4.254  39.321   9.311
 1101POPC   GL117533   4.437  39.049   8.992
 1101POPC   GL217534   4.713  38.882   8.883
 1101POPC   C1A17535   4.342  38.999   8.548
 1101POPC   D2A17536   4.471  39.041   8.135
 1101POPC   C3A17537   4.138  39.106   7.832
 1101POPC   C4A17538   4.161  39.362   7.462
 1101POPC   C1B17539   4.692  39.343   8.685
 1101POPC   C2B17540   4.469  39.534   8.328
 1101POPC   C3B17541   4.471  39.510   7.895
 1101POPC   C4B17542   4.640  39.175   7.662
 1102POPC   NC317543  27.491  17.166   9.448
 1102POPC   PO417544  27.742  17.803   9.441
 1102POPC   GL117545  27.644  17.804   9.043
 1102POPC   GL217546  27.429  17.525   9.068
 1102POPC   C1A17547  27.853  17.489   8.787
 1102POPC   D2A17548  27.749  17.294   8.434
 1102POPC   C3A17549  27.771  17.467   8.073
 1102POPC   C4A17550  27.850  17.303   7.700
 1102POPC   C1B17551  27.315  17.539   8.623
 1102POPC   C2B17552  27.276  17.363   8.182
 1102POPC   C3B17553  27.382  17.493   7.740
 1102POPC   C4B17554  27.476  17.324   7.307
 1103POPC   NC317555  38.487  24.856   9.315
 1103POPC   PO417556  38.184  24.246   9.547
 1103POPC   GL117557  38.444  24.334   9.213
 1103POPC   GL217558  38.183  24.518   9.054
 1103POPC   C1A17559  38.577  24.271   8.782
 1103POPC   D2A17560  38.385  24.231   8.377
 1103POPC   C3A17561  38.514  24.242   7.951
 1103POPC   C4A17562  38.842  24.512   7.805
 1103POPC   C1B17563  38.201  24.681   8.613
 1103POPC   C2B17564  38.305  24.692   8.146
 1103POPC   C3B17565  38.172  24.547   7.717
 1103POPC   C4B17566  38.107  24.539   7.240
 1104POPC   NC317567  20.242  13.474   9.544
 1104POPC   PO417568  20.933  13.649   9.496
 1104POPC   GL117569  20.823  13.719   9.120
 1104POPC   GL217570  20.496  13.828   9.211
 1104POPC   C1A17571  20.892  13.585   8.706
 1104POPC   D2A17572  21.088  13.524   8.325
 1104POPC   C3A17573  20.832  13.726   8.072
 1104POPC   C4A17574  20.719  13.532   7.740
 1104POPC   C1B17575  20.402  13.521   8.882
 1104POPC   C2B17576  20.444  13.615   8.445
 1104POPC   C3B17577  20.309  13.690   8.030
 1104POPC   C4B17578  20.352  13.862   7.637
 1105POPC   NC317579  27.174  30.860   9.815
 1105POPC   PO417580  26.571  30.711   9.472
 1105POPC   GL117581  26.633  30.646   9.071
 1105POPC   GL217582  26.381  30.395   9.086
 1105POPC   C1A17583  26.796  30.819   8.694
 1105POPC   D2A17584  26.994  30.991   8.357
 1105POPC   C3A17585  26.789  30.957   7.947
 1105POPC   C4A17586  26.927  30.799   7.529
 1105POPC   C1B17587  26.376  30.532   8.645
 1105POPC   C2B17588  26.642  30.436   8.293
 1105POPC   C3B17589  26.703  30.453   7.854
 1105POPC   C4B17590  26.469  30.570   7.476
 1106POPC   NC317591  34.216  44.302   9.466
 1106POPC   PO417592  34.423  43.628   9.520
 1106POPC   GL117593  34.419  43.777   9.128
 1106POPC   GL217594  34.751  43.758   9.032
 1106POPC   C1A17595  34.422  44.157   8.871
 1106POPC   D2A17596  34.555  44.261   8.460
 1106POPC   C3A17597  34.405  43.971   8.152
 1106POPC   C4A17598  34.368  44.079   7.720
 1106POPC   C1B17599  34.666  43.795   8.614
 1106POPC   C2B17600  34.929  43.937   8.283
 1106POPC   C3B17601  34.824  43.845   7.889
 1106POPC   C4B17602  34.513  43.576   7.743
 1107POPC   NC317603  25.505  36.958   9.707
 1107POPC   PO417604  25.083  36.511   9.405
 1107POPC   GL117605  24.974  36.581   9.001
 1107POPC   GL217606  24.953  36.943   9.042
 1107POPC   C1A17607  25.176  36.664   8.602
 1107POPC   D2A17608  25.574  36.770   8.403
 1107POPC   C3A17609  25.509  36.701   7.984
 1107POPC   C4A17610  25.252  36.938   7.700
 1107POPC   C1B17611  24.992  37.136   8.647
 1107POPC   C2B17612  25.061  37.012   8.234
 1107POPC   C3B17613  24.826  37.102   7.898
 1107POPC   C4B17614  24.816  36.992   7.435
 1108POPC   NC317615  36.413   4.658   9.333
 1108POPC   PO417616  35.880   4.194   9.392
 1108POPC   GL117617  36.078   4.363   9.111
 1108POPC   GL217618  35.900   4.702   9.219
 1108POPC   C1A17619  36.159   4.206   8.709
 1108POPC   D2A17620  36.216   3.930   8.348
 1108POPC   C3A17621  36.068   4.204   8.031
 1108POPC   C4A17622  36.240   4.553   7.803
 1108POPC   C1B17623  35.944   4.698   8.775
 1108POPC   C2B17624  35.969   4.648   8.339
 1108POPC   C3B17625  35.752   4.615   7.938
 1108POPC   C4B17626  35.791   4.523   7.487
 1109POPC   NC317627  40.243  36.868   9.267
 1109POPC   PO417628  39.804  37.219   9.690
 1109POPC   GL117629  39.765  37.086   9.251
 1109POPC   GL217630  39.712  36.728   9.137
 1109POPC   C1A17631  39.766  37.185   8.786
 1109POPC   D2A17632  39.798  37.013   8.337
 1109POPC   C3A17633  40.145  37.106   8.027
 1109POPC   C4A17634  39.889  37.201   7.710
 1109POPC   C1B17635  39.951  36.708   8.734
 1109POPC   C2B17636  40.238  36.752   8.419
 1109POPC   C3B17637  40.101  36.607   8.020
 1109POPC   C4B17638  40.083  36.752   7.609
 1110POPC   NC317639   0.133  40.915   9.561
 1110POPC   PO417640   0.507  40.299   9.500
 1110POPC   GL117641   0.558  40.569   9.146
 1110POPC   GL217642   0.390  40.842   9.149
 1110POPC   C1A17643   0.437  40.595   8.726
 1110POPC   D2A17644   0.644  40.616   8.393
 1110POPC   C3A17645   0.451  40.462   8.066
 1110POPC   C4A17646   0.533  40.565   7.678
 1110POPC   C1B17647   0.236  41.076   8.826
 1110POPC   C2B17648   0.379  41.061   8.404
 1110POPC   C3B17649   0.267  40.930   7.993
 1110POPC   C4B17650   0.464  41.077   7.623
 1111POPC   NC317651  40.867  37.864   9.707
 1111POPC   PO417652  41.448  37.611   9.593
 1111POPC   GL117653  41.597  37.543   9.162
 1111POPC   GL217654  41.622  37.857   9.018
 1111POPC   C1A17655  41.640  37.507   8.684
 1111POPC   D2A17656  41.445  37.566   8.300
 1111POPC   C3A17657  41.648  37.693   7.926
 1111POPC   C4A17658  41.549  37.487   7.562
 1111POPC   C1B17659  41.273  37.893   8.711
 1111POPC   C2B17660  41.018  37.853   8.326
 1111POPC   C3B17661  41.130  37.753   7.880
 1111POPC   C4B17662  41.123  37.680   7.434
 1112POPC   NC317663  21.068  12.130   9.540
 1112POPC   PO417664  20.392  12.213   9.528
 1112POPC   GL117665  20.413  12.068   9.120
 1112POPC   GL217666  20.772  12.055   9.128
 1112POPC   C1A17667  20.524  12.144   8.690
 1112POPC   D2A17668  20.671  11.965   8.355
 1112POPC   C3A17669  20.601  12.166   7.983
 1112POPC   C4A17670  20.269  12.396   7.891
 1112POPC   C1B17671  20.989  11.971   8.747
 1112POPC   C2B17672  21.159  11.876   8.349
 1112POPC   C3B17673  21.053  11.913   7.967
 1112POPC   C4B17674  21.034  12.255   7.709
 1113POPC   NC317675  18.654  16.957   9.453
 1113POPC   PO417676  18.134  16.506   9.470
 1113POPC   GL117677  18.103  16.524   9.085
 1113POPC   GL217678  18.150  16.887   9.135
 1113POPC   C1A17679  18.230  16.360   8.697
 1113POPC   D2A17680  18.143  16.563   8.327
 1113POPC   C3A17681  18.202  16.412   7.932
 1113POPC   C4A17682  18.006  16.656   7.640
 1113POPC   C1B17683  18.156  16.878   8.722
 1113POPC   C2B17684  18.341  17.090   8.396
 1113POPC   C3B17685  18.338  16.919   8.000
 1113POPC   C4B17686  18.475  16.817   7.580
 1114POPC   NC317687  26.254  10.950   9.899
 1114POPC   PO417688  26.152  10.404   9.485
 1114POPC   GL117689  26.187  10.540   9.092
 1114POPC   GL217690  25.840  10.503   9.066
 1114POPC   C1A17691  26.160  10.800   8.757
 1114POPC   D2A17692  26.074  10.608   8.374
 1114POPC   C3A17693  26.200  10.757   7.982
 1114POPC   C4A17694  26.137  10.424   7.705
 1114POPC   C1B17695  25.650  10.679   8.730
 1114POPC   C2B17696  25.593  10.766   8.321
 1114POPC   C3B17697  25.718  10.590   7.969
 1114POPC   C4B17698  25.674  10.582   7.547
 1115POPC   NC317699  25.956  29.253   9.763
 1115POPC   PO417700  25.880  28.596   9.659
 1115POPC   GL117701  25.851  28.920   9.310
 1115POPC   GL217702  26.052  29.179   9.199
 1115POPC   C1A17703  25.801  28.938   8.842
 1115POPC   D2A17704  25.981  28.935   8.431
 1115POPC   C3A17705  25.857  29.241   8.103
 1115POPC   C4A17706  25.961  29.068   7.701
 1115POPC   C1B17707  26.309  29.136   8.823
 1115POPC   C2B17708  26.350  29.362   8.444
 1115POPC   C3B17709  26.358  29.440   8.022
 1115POPC   C4B17710  26.447  29.130   7.686
 1116POPC   NC317711  15.743  43.147   9.606
 1116POPC   PO417712  16.363  42.879   9.722
 1116POPC   GL117713  16.312  43.058   9.240
 1116POPC   GL217714  15.955  43.160   9.109
 1116POPC   C1A17715  16.270  42.927   8.758
 1116POPC   D2A17716  15.901  42.886   8.468
 1116POPC   C3A17717  15.959  43.098   8.099
 1116POPC   C4A17718  15.833  43.128   7.695
 1116POPC   C1B17719  15.996  43.354   8.662
 1116POPC   C2B17720  16.222  43.517   8.290
 1116POPC   C3B17721  16.275  43.426   7.851
 1116POPC   C4B17722  15.912  43.613   7.674
 1117POPC   NC317723  24.679  20.212   9.384
 1117POPC   PO417724  24.503  19.589   9.609
 1117POPC   GL117725  24.409  19.811   9.220
 1117POPC   GL217726  24.720  19.799   9.061
 1117POPC   C1A17727  24.308  19.957   8.781
 1117POPC   D2A17728  24.184  19.690   8.403
 1117POPC   C3A17729  24.373  19.744   8.007
 1117POPC   C4A17730  24.350  19.970   7.590
 1117POPC   C1B17731  24.694  19.665   8.637
 1117POPC   C2B17732  24.834  19.700   8.235
 1117POPC   C3B17733  24.809  19.935   7.870
 1117POPC   C4B17734  24.745  19.618   7.575
 1118POPC   NC317735  44.149  20.311   9.417
 1118POPC   PO417736  43.587  20.249   9.822
 1118POPC   GL117737  43.730  19.884   9.423
 1118POPC   GL217738  43.969  19.955   9.128
 1118POPC   C1A17739  43.797  19.517   9.022
 1118POPC   D2A17740  43.859  19.387   8.553
 1118POPC   C3A17741  43.889  19.709   8.201
 1118POPC   C4A17742  43.871  19.645   7.769
 1118POPC   C1B17743  44.130  19.884   8.704
 1118POPC   C2B17744  44.240  20.099   8.307
 1118POPC   C3B17745  43.967  20.194   7.974
 1118POPC   C4B17746  43.551  20.042   7.905
 1119POPC   NC317747  33.249  13.423   9.590
 1119POPC   PO417748  32.719  13.715   9.411
 1119POPC   GL117749  33.129  13.764   9.228
 1119POPC   GL217750  33.264  14.068   9.143
 1119POPC   C1A17751  33.315  13.636   8.841
 1119POPC   D2A17752  33.471  13.694   8.411
 1119POPC   C3A17753  33.238  13.474   8.083
 1119POPC   C4A17754  32.892  13.445   7.789
 1119POPC   C1B17755  32.994  14.023   8.797
 1119POPC   C2B17756  32.938  13.773   8.406
 1119POPC   C3B17757  32.754  13.884   8.002
 1119POPC   C4B17758  32.599  13.773   7.542
 1120POPC   NC317759   0.128   3.083   9.360
 1120POPC   PO417760   0.652   2.676   9.500
 1120POPC   GL117761   0.414   2.701   9.126
 1120POPC   GL217762   0.555   3.004   9.056
 1120POPC   C1A17763   0.258   2.782   8.686
 1120POPC   D2A17764   0.481   2.637   8.315
 1120POPC   C3A17765   0.390   2.878   7.981
 1120POPC   C4A17766   0.024   2.929   7.748
 1120POPC   C1B17767   0.759   2.906   8.688
 1120POPC   C2B17768   0.721   3.123   8.321
 1120POPC   C3B17769   0.826   3.151   7.936
 1120POPC   C4B17770   0.703   3.170   7.519
 1121POPC   NC317771  29.212  28.638   9.414
 1121POPC   PO417772  28.687  28.130   9.471
 1121POPC   GL117773  28.939  28.263   9.104
 1121POPC   GL217774  29.305  28.225   9.142
 1121POPC   C1A17775  29.102  28.505   8.738
 1121POPC   D2A17776  29.220  28.553   8.288
 1121POPC   C3A17777  28.924  28.411   7.918
 1121POPC   C4A17778  28.943  28.158   7.511
 1121POPC   C1B17779  29.554  28.249   8.747
 1121POPC   C2B17780  29.657  28.246   8.300
 1121POPC   C3B17781  29.408  28.252   7.909
 1121POPC   C4B17782  29.443  27.950   7.568
 1122POPC   NC317783  23.704  26.592   9.558
 1122POPC   PO417784  23.972  27.220   9.387
 1122POPC   GL117785  23.766  27.000   9.031
 1122POPC   GL217786  23.680  26.657   9.060
 1122POPC   C1A17787  23.669  26.881   8.595
 1122POPC   D2A17788  23.675  27.127   8.192
 1122POPC   C3A17789  23.498  26.993   7.799
 1122POPC   C4A17790  23.308  27.032   7.354
 1122POPC   C1B17791  24.005  26.458   8.837
 1122POPC   C2B17792  24.159  26.539   8.445
 1122POPC   C3B17793  23.861  26.653   8.138
 1122POPC   C4B17794  23.714  26.508   7.764
 1123POPC   NC317795   7.492  20.774  10.469
 1123POPC   PO417796   7.574  20.871   9.691
 1123POPC   GL117797   7.683  20.809   9.233
 1123POPC   GL217798   7.573  21.123   9.139
 1123POPC   C1A17799   7.682  20.460   8.890
 1123POPC   D2A17800   7.798  20.505   8.428
 1123POPC   C3A17801   7.473  20.436   8.067
 1123POPC   C4A17802   7.049  20.569   7.888
 1123POPC   C1B17803   7.522  20.915   8.724
 1123POPC   C2B17804   7.309  20.829   8.341
 1123POPC   C3B17805   7.340  20.980   7.924
 1123POPC   C4B17806   7.198  20.914   7.494
 1124POPC   NC317807  23.307  23.241   9.413
 1124POPC   PO417808  22.799  22.975   9.723
 1124POPC   GL117809  22.791  22.809   9.279
 1124POPC   GL217810  22.887  23.077   9.029
 1124POPC   C1A17811  22.759  22.604   8.860
 1124POPC   D2A17812  23.043  22.573   8.509
 1124POPC   C3A17813  22.925  22.781   8.104
 1124POPC   C4A17814  22.706  22.654   7.711
 1124POPC   C1B17815  23.156  23.055   8.627
 1124POPC   C2B17816  23.268  23.251   8.213
 1124POPC   C3B17817  23.240  23.077   7.788
 1124POPC   C4B17818  23.095  23.271   7.399
 1125POPC   NC317819  30.372  19.283   9.902
 1125POPC   PO417820  29.973  18.876   9.549
 1125POPC   GL117821  29.852  18.805   9.138
 1125POPC   GL217822  29.899  19.174   9.109
 1125POPC   C1A17823  29.903  18.904   8.688
 1125POPC   D2A17824  29.884  19.083   8.331
 1125POPC   C3A17825  29.932  18.875   7.958
 1125POPC   C4A17826  30.090  19.173   7.659
 1125POPC   C1B17827  29.766  19.433   8.742
 1125POPC   C2B17828  29.571  19.505   8.368
 1125POPC   C3B17829  29.776  19.434   7.979
 1125POPC   C4B17830  29.736  19.606   7.587
 1126POPC   NC317831  24.369  16.357   9.513
 1126POPC   PO417832  24.328  15.712   9.252
 1126POPC   GL117833  24.494  16.088   9.103
 1126POPC   GL217834  24.256  16.352   9.029
 1126POPC   C1A17835  24.598  16.143   8.699
 1126POPC   D2A17836  24.445  15.881   8.381
 1126POPC   C3A17837  24.580  15.981   7.989
 1126POPC   C4A17838  24.374  15.713   7.785
 1126POPC   C1B17839  24.078  16.116   8.726
 1126POPC   C2B17840  23.877  16.174   8.361
 1126POPC   C3B17841  24.075  16.071   8.007
 1126POPC   C4B17842  24.269  16.254   7.661
 1127POPC   NC317843   6.860  27.622   9.398
 1127POPC   PO417844   7.437  27.441   9.716
 1127POPC   GL117845   7.371  27.679   9.331
 1127POPC   GL217846   7.536  27.410   9.171
 1127POPC   C1A17847   7.282  27.754   8.881
 1127POPC   D2A17848   7.233  27.575   8.456
 1127POPC   C3A17849   7.400  27.754   8.089
 1127POPC   C4A17850   7.294  27.651   7.692
 1127POPC   C1B17851   7.634  27.362   8.729
 1127POPC   C2B17852   7.651  27.341   8.280
 1127POPC   C3B17853   7.646  27.271   7.846
 1127POPC   C4B17854   7.853  27.177   7.449
 1128POPC   NC317855   8.646  33.956   9.728
 1128POPC   PO417856   9.286  33.918   9.462
 1128POPC   GL117857   9.024  33.809   9.171
 1128POPC   GL217858   8.716  33.716   9.277
 1128POPC   C1A17859   9.018  33.727   8.755
 1128POPC   D2A17860   9.188  33.919   8.408
 1128POPC   C3A17861   9.114  33.718   8.009
 1128POPC   C4A17862   9.162  33.628   7.566
 1128POPC   C1B17863   8.529  33.866   8.918
 1128POPC   C2B17864   8.562  33.786   8.504
 1128POPC   C3B17865   8.600  33.831   8.084
 1128POPC   C4B17866   8.673  33.631   7.687
 1129POPC   NC317867   9.095  17.054   9.650
 1129POPC   PO417868   8.857  17.652   9.540
 1129POPC   GL117869   9.057  17.477   9.174
 1129POPC   GL217870   9.314  17.210   9.201
 1129POPC   C1A17871   8.916  17.603   8.741
 1129POPC   D2A17872   8.774  17.317   8.417
 1129POPC   C3A17873   8.769  17.360   7.979
 1129POPC   C4A17874   8.907  17.589   7.661
 1129POPC   C1B17875   9.080  17.115   8.820
 1129POPC   C2B17876   9.147  16.971   8.403
 1129POPC   C3B17877   9.237  17.141   8.007
 1129POPC   C4B17878   9.200  17.182   7.578
 1130POPC   NC317879  15.409  13.402   9.516
 1130POPC   PO417880  15.239  13.983   9.676
 1130POPC   GL117881  15.307  13.894   9.219
 1130POPC   GL217882  15.170  13.583   9.096
 1130POPC   C1A17883  15.152  13.998   8.766
 1130POPC   D2A17884  14.943  13.858   8.361
 1130POPC   C3A17885  15.147  13.915   7.949
 1130POPC   C4A17886  15.399  13.742   7.562
 1130POPC   C1B17887  15.110  13.465   8.667
 1130POPC   C2B17888  15.302  13.496   8.245
 1130POPC   C3B17889  15.148  13.396   7.832
 1130POPC   C4B17890  15.344  13.216   7.465
 1131POPC   NC317891  40.304  32.076   9.656
 1131POPC   PO417892  39.663  32.465   9.494
 1131POPC   GL117893  39.906  32.282   9.121
 1131POPC   GL217894  39.869  31.924   9.114
 1131POPC   C1A17895  39.988  32.221   8.646
 1131POPC   D2A17896  39.890  32.336   8.205
 1131POPC   C3A17897  40.147  32.169   7.840
 1131POPC   C4A17898  40.167  32.192   7.369
 1131POPC   C1B17899  39.596  31.920   8.755
 1131POPC   C2B17900  39.711  31.891   8.343
 1131POPC   C3B17901  39.800  31.791   7.939
 1131POPC   C4B17902  39.585  31.877   7.595
 1132POPC   NC317903  24.562   1.110   9.483
 1132POPC   PO417904  24.311   1.704   9.268
 1132POPC   GL117905  24.513   1.343   9.031
 1132POPC   GL217906  24.385   0.950   9.030
 1132POPC   C1A17907  24.484   1.210   8.605
 1132POPC   D2A17908  24.490   1.099   8.200
 1132POPC   C3A17909  24.204   1.280   7.950
 1132POPC   C4A17910  24.141   0.993   7.636
 1132POPC   C1B17911  24.803   0.797   8.905
 1132POPC   C2B17912  24.944   0.791   8.479
 1132POPC   C3B17913  24.947   0.912   8.052
 1132POPC   C4B17914  24.965   0.803   7.625
 1133POPC   NC317915  11.551  14.230   9.533
 1133POPC   PO417916  11.499  14.913   9.598
 1133POPC   GL117917  11.501  14.655   9.204
 1133POPC   GL217918  11.284  14.352   9.112
 1133POPC   C1A17919  11.323  14.774   8.780
 1133POPC   D2A17920  11.288  14.579   8.376
 1133POPC   C3A17921  11.528  14.719   8.029
 1133POPC   C4A17922  11.392  14.778   7.624
 1133POPC   C1B17923  11.016  14.333   8.743
 1133POPC   C2B17924  10.981  14.164   8.296
 1133POPC   C3B17925  11.145  14.369   7.900
 1133POPC   C4B17926  11.312  14.294   7.486
 1134POPC   NC317927   3.072  39.351   9.532
 1134POPC   PO417928   2.485  38.960   9.644
 1134POPC   GL117929   2.692  39.150   9.238
 1134POPC   GL217930   2.659  39.507   9.187
 1134POPC   C1A17931   2.892  39.200   8.804
 1134POPC   D2A17932   2.748  39.033   8.375
 1134POPC   C3A17933   2.974  39.147   7.977
 1134POPC   C4A17934   2.966  39.445   7.594
 1134POPC   C1B17935   2.398  39.315   8.820
 1134POPC   C2B17936   2.445  39.451   8.372
 1134POPC   C3B17937   2.596  39.505   7.932
 1134POPC   C4B17938   2.476  39.670   7.516
 1135POPC   NC317939  32.064  19.245   9.618
 1135POPC   PO417940  32.497  18.874   9.360
 1135POPC   GL117941  32.128  19.002   9.151
 1135POPC   GL217942  31.953  19.316   9.064
 1135POPC   C1A17943  32.075  18.962   8.729
 1135POPC   D2A17944  32.179  19.217   8.408
 1135POPC   C3A17945  32.137  18.882   8.125
 1135POPC   C4A17946  31.887  18.792   7.833
 1135POPC   C1B17947  31.830  19.523   8.679
 1135POPC   C2B17948  31.835  19.604   8.238
 1135POPC   C3B17949  32.041  19.356   7.935
 1135POPC   C4B17950  32.268  19.116   7.682
 1136POPC   NC317951   1.653   4.230   9.361
 1136POPC   PO417952   2.246   4.534   9.495
 1136POPC   GL117953   2.119   4.300   9.131
 1136POPC   GL217954   1.843   4.473   8.964
 1136POPC   C1A17955   2.239   4.278   8.710
 1136POPC   D2A17956   1.989   4.453   8.413
 1136POPC   C3A17957   2.158   4.420   8.007
 1136POPC   C4A17958   1.917   4.542   7.672
 1136POPC   C1B17959   1.789   4.046   8.715
 1136POPC   C2B17960   1.934   3.946   8.266
 1136POPC   C3B17961   1.836   4.036   7.815
 1136POPC   C4B17962   1.909   3.954   7.374
 1137POPC   NC317963  34.635  27.878   9.532
 1137POPC   PO417964  34.292  28.539   9.582
 1137POPC   GL117965  34.528  28.435   9.152
 1137POPC   GL217966  34.758  28.138   9.121
 1137POPC   C1A17967  34.836  28.492   8.785
 1137POPC   D2A17968  34.649  28.422   8.410
 1137POPC   C3A17969  34.764  28.604   8.033
 1137POPC   C4A17970  34.614  28.499   7.659
 1137POPC   C1B17971  34.615  28.017   8.755
 1137POPC   C2B17972  34.677  27.914   8.350
 1137POPC   C3B17973  34.724  28.094   7.982
 1137POPC   C4B17974  35.088  27.964   7.818
 1138POPC   NC317975  41.089  24.317   9.414
 1138POPC   PO417976  40.438  24.719   9.432
 1138POPC   GL117977  40.666  24.431   9.133
 1138POPC   GL217978  40.935  24.701   9.119
 1138POPC   C1A17979  40.618  24.125   8.759
 1138POPC   D2A17980  40.403  24.061   8.351
 1138POPC   C3A17981  40.519  24.405   8.084
 1138POPC   C4A17982  40.624  24.428   7.659
 1138POPC   C1B17983  40.835  24.715   8.681
 1138POPC   C2B17984  40.979  24.533   8.293
 1138POPC   C3B17985  41.071  24.561   7.863
 1138POPC   C4B17986  40.910  24.854   7.566
 1139POPC   NC317987  32.261  20.025   9.466
 1139POPC   PO417988  32.496  19.432   9.730
 1139POPC   GL117989  32.364  19.510   9.284
 1139POPC   GL217990  32.523  19.316   9.057
 1139POPC   C1A17991  32.291  19.724   8.863
 1139POPC   D2A17992  32.362  20.119   8.629
 1139POPC   C3A17993  32.293  20.083   8.191
 1139POPC   C4A17994  32.146  19.851   7.847
 1139POPC   C1B17995  32.614  19.385   8.612
 1139POPC   C2B17996  32.468  19.599   8.231
 1139POPC   C3B17997  32.556  19.545   7.801
 1139POPC   C4B17998  32.688  19.449   7.402
 1140POPC   NC317999  33.147  19.948   9.349
 1140POPC   PO418000  32.906  20.590   9.653
 1140POPC   GL118001  32.962  20.551   9.232
 1140POPC   GL218002  32.750  20.836   9.199
 1140POPC   C1A18003  33.324  20.551   8.938
 1140POPC   D2A18004  33.445  20.456   8.511
 1140POPC   C3A18005  33.076  20.480   8.258
 1140POPC   C4A18006  33.079  20.356   7.828
 1140POPC   C1B18007  32.976  20.939   8.844
 1140POPC   C2B18008  32.867  20.964   8.427
 1140POPC   C3B18009  33.049  20.952   8.031
 1140POPC   C4B18010  33.035  20.834   7.628
 1141POPC   NC318011  22.670   9.407   9.346
 1141POPC   PO418012  23.185   9.888   9.578
 1141POPC   GL118013  23.062   9.709   9.186
 1141POPC   GL218014  22.781   9.879   9.132
 1141POPC   C1A18015  23.234   9.795   8.772
 1141POPC   D2A18016  23.151   9.736   8.337
 1141POPC   C3A18017  23.167  10.074   8.064
 1141POPC   C4A18018  23.219   9.955   7.630
 1141POPC   C1B18019  22.732   9.732   8.719
 1141POPC   C2B18020  22.677   9.905   8.324
 1141POPC   C3B18021  22.753   9.809   7.921
 1141POPC   C4B18022  22.465   9.739   7.604
 1142POPC   NC318023  40.954   7.461   9.552
 1142POPC   PO418024  40.396   7.100   9.437
 1142POPC   GL118025  40.617   7.360   9.123
 1142POPC   GL218026  40.980   7.399   9.081
 1142POPC   C1A18027  40.745   7.277   8.678
 1142POPC   D2A18028  40.798   7.058   8.309
 1142POPC   C3A18029  40.691   7.287   7.981
 1142POPC   C4A18030  40.585   7.607   7.729
 1142POPC   C1B18031  41.182   7.577   8.786
 1142POPC   C2B18032  41.162   7.428   8.389
 1142POPC   C3B18033  41.169   7.425   7.976
 1142POPC   C4B18034  41.083   7.643   7.606
 1143POPC   NC318035  16.143  26.704   9.898
 1143POPC   PO418036  15.545  26.764   9.573
 1143POPC   GL118037  15.789  26.859   9.170
 1143POPC   GL218038  15.722  26.558   9.001
 1143POPC   C1A18039  16.004  26.922   8.759
 1143POPC   D2A18040  16.161  26.973   8.329
 1143POPC   C3A18041  15.904  27.162   7.989
 1143POPC   C4A18042  15.985  27.019   7.577
 1143POPC   C1B18043  16.040  26.410   8.742
 1143POPC   C2B18044  16.047  26.425   8.333
 1143POPC   C3B18045  15.973  26.639   7.975
 1143POPC   C4B18046  16.111  26.529   7.603
 1144POPC   NC318047  35.978  13.856   9.505
 1144POPC   PO418048  36.186  13.191   9.613
 1144POPC   GL118049  36.215  13.449   9.199
 1144POPC   GL218050  36.035  13.734   9.013
 1144POPC   C1A18051  36.365  13.478   8.762
 1144POPC   D2A18052  36.223  13.681   8.404
 1144POPC   C3A18053  36.318  13.530   8.012
 1144POPC   C4A18054  36.036  13.707   7.742
 1144POPC   C1B18055  36.361  14.015   8.771
 1144POPC   C2B18056  36.578  14.033   8.360
 1144POPC   C3B18057  36.428  14.038   7.947
 1144POPC   C4B18058  36.416  13.932   7.477
 1145POPC   NC318059  23.751  24.138   9.409
 1145POPC   PO418060  23.659  23.480   9.652
 1145POPC   GL118061  23.549  23.690   9.261
 1145POPC   GL218062  23.882  23.716   9.136
 1145POPC   C1A18063  23.542  23.850   8.802
 1145POPC   D2A18064  23.646  23.601   8.433
 1145POPC   C3A18065  23.608  23.702   7.990
 1145POPC   C4A18066  23.216  23.592   7.805
 1145POPC   C1B18067  24.069  23.681   8.744
 1145POPC   C2B18068  24.076  23.876   8.334
 1145POPC   C3B18069  24.227  23.892   7.946
 1145POPC   C4B18070  24.044  23.637   7.645
 1146POPC   NC318071  42.456  27.700   9.545
 1146POPC   PO418072  42.068  27.171   9.723
 1146POPC   GL118073  42.179  27.472   9.224
 1146POPC   GL218074  42.537  27.445   9.093
 1146POPC   C1A18075  42.144  27.447   8.749
 1146POPC   D2A18076  42.330  27.413   8.342
 1146POPC   C3A18077  42.056  27.313   8.015
 1146POPC   C4A18078  42.167  27.294   7.582
 1146POPC   C1B18079  42.614  27.684   8.703
 1146POPC   C2B18080  42.484  27.905   8.312
 1146POPC   C3B18081  42.296  27.809   7.951
 1146POPC   C4B18082  42.555  28.017   7.673
 1147POPC   NC318083  30.834   3.900   9.491
 1147POPC   PO418084  30.355   4.511   9.471
 1147POPC   GL118085  30.491   4.248   9.177
 1147POPC   GL218086  30.834   4.293   9.154
 1147POPC   C1A18087  30.410   4.448   8.789
 1147POPC   D2A18088  30.362   4.285   8.391
 1147POPC   C3A18089  30.671   4.353   8.088
 1147POPC   C4A18090  30.527   4.514   7.697
 1147POPC   C1B18091  30.756   4.093   8.739
 1147POPC   C2B18092  31.011   3.877   8.461
 1147POPC   C3B18093  31.006   3.855   8.039
 1147POPC   C4B18094  30.880   4.094   7.694
 1148POPC   NC318095   8.705  16.141   9.526
 1148POPC   PO418096   9.348  16.096   9.322
 1148POPC   GL118097   9.022  15.913   9.095
 1148POPC   GL218098   8.868  16.210   9.025
 1148POPC   C1A18099   8.927  15.699   8.691
 1148POPC   D2A18100   8.890  15.634   8.248
 1148POPC   C3A18101   8.749  15.987   8.062
 1148POPC   C4A18102   8.810  15.899   7.671
 1148POPC   C1B18103   9.203  16.162   8.690
 1148POPC   C2B18104   9.212  16.048   8.287
 1148POPC   C3B18105   9.215  16.176   7.877
 1148POPC   C4B18106   8.881  16.395   7.664
 1149POPC   NC318107  41.958   6.092   9.729
 1149POPC   PO418108  41.701   5.613   9.328
 1149POPC   GL118109  41.545   5.958   9.120
 1149POPC   GL218110  41.807   6.174   9.208
 1149POPC   C1A18111  41.548   5.864   8.679
 1149POPC   D2A18112  41.663   5.598   8.355
 1149POPC   C3A18113  41.569   5.751   7.979
 1149POPC   C4A18114  41.685   5.769   7.582
 1149POPC   C1B18115  41.834   6.271   8.762
 1149POPC   C2B18116  41.791   6.147   8.291
 1149POPC   C3B18117  41.757   6.224   7.824
 1149POPC   C4B18118  41.564   6.224   7.392
 1150POPC   NC318119  16.237  37.339   9.899
 1150POPC   PO418120  16.016  36.915   9.425
 1150POPC   GL118121  15.951  37.011   9.044
 1150POPC   GL218122  15.855  37.329   9.056
 1150POPC   C1A18123  16.076  36.855   8.676
 1150POPC   D2A18124  16.157  36.925   8.259
 1150POPC   C3A18125  16.309  36.623   8.008
 1150POPC   C4A18126  16.289  36.711   7.604
 1150POPC   C1B18127  15.699  37.229   8.644
 1150POPC   C2B18128  15.717  37.245   8.192
 1150POPC   C3B18129  15.858  37.014   7.854
 1150POPC   C4B18130  15.838  37.156   7.435
 1151POPC   NC318131  41.705  33.189   9.532
 1151POPC   PO418132  41.278  32.695   9.534
 1151POPC   GL118133  41.374  32.901   9.172
 1151POPC   GL218134  41.703  32.983   9.073
 1151POPC   C1A18135  41.291  33.003   8.767
 1151POPC   D2A18136  41.577  32.997   8.470
 1151POPC   C3A18137  41.364  33.134   8.168
 1151POPC   C4A18138  41.456  33.081   7.756
 1151POPC   C1B18139  41.892  32.725   8.772
 1151POPC   C2B18140  42.061  32.771   8.410
 1151POPC   C3B18141  42.034  32.621   8.007
 1151POPC   C4B18142  41.868  32.784   7.655
 1152POPC   NC318143  43.413   7.123   9.322
 1152POPC   PO418144  43.179   7.760   9.393
 1152POPC   GL118145  43.073   7.490   9.099
 1152POPC   GL218146  42.762   7.632   9.031
 1152POPC   C1A18147  43.304   7.453   8.717
 1152POPC   D2A18148  43.506   7.248   8.399
 1152POPC   C3A18149  43.323   7.227   7.994
 1152POPC   C4A18150  43.260   7.374   7.597
 1152POPC   C1B18151  42.794   7.423   8.663
 1152POPC   C2B18152  43.002   7.490   8.286
 1152POPC   C3B18153  42.970   7.666   7.879
 1152POPC   C4B18154  42.796   7.538   7.464
 1153POPC   NC318155  12.310  22.908   9.212
 1153POPC   PO418156  11.866  22.644   9.658
 1153POPC   GL118157  11.861  23.109   9.329
 1153POPC   GL218158  11.574  23.106   9.160
 1153POPC   C1A18159  11.944  23.248   8.829
 1153POPC   D2A18160  12.242  22.977   8.566
 1153POPC   C3A18161  12.241  22.972   8.104
 1153POPC   C4A18162  12.286  22.644   7.788
 1153POPC   C1B18163  11.535  22.945   8.722
 1153POPC   C2B18164  11.762  23.044   8.370
 1153POPC   C3B18165  11.796  23.207   7.981
 1153POPC   C4B18166  11.784  22.827   7.772
 1154POPC   NC318167  14.711   5.062   9.629
 1154POPC   PO418168  15.299   5.431   9.552
 1154POPC   GL118169  15.172   5.196   9.182
 1154POPC   GL218170  15.037   4.899   9.253
 1154POPC   C1A18171  14.985   5.211   8.745
 1154POPC   D2A18172  14.913   5.066   8.308
 1154POPC   C3A18173  15.304   4.877   8.131
 1154POPC   C4A18174  15.670   5.022   7.907
 1154POPC   C1B18175  14.934   4.708   8.836
 1154POPC   C2B18176  15.010   4.548   8.404
 1154POPC   C3B18177  14.846   4.682   7.973
 1154POPC   C4B18178  14.853   5.100   7.746
 1155POPC   NC318179  35.365  41.113   9.474
 1155POPC   PO418180  35.079  40.438   9.432
 1155POPC   GL118181  35.355  40.704   9.156
 1155POPC   GL218182  35.323  41.066   8.988
 1155POPC   C1A18183  35.587  40.654   8.822
 1155POPC   D2A18184  35.477  40.620   8.418
 1155POPC   C3A18185  35.642  40.816   8.091
 1155POPC   C4A18186  35.440  40.901   7.722
 1155POPC   C1B18187  35.111  41.259   8.647
 1155POPC   C2B18188  35.205  41.069   8.260
 1155POPC   C3B18189  34.984  40.872   7.936
 1155POPC   C4B18190  34.980  40.923   7.497
 1156POPC   NC318191   2.437  23.327   9.392
 1156POPC   PO418192   2.804  22.838   9.672
 1156POPC   GL118193   2.805  22.853   9.202
 1156POPC   GL218194   2.484  22.904   9.119
 1156POPC   C1A18195   2.876  22.975   8.748
 1156POPC   D2A18196   3.071  22.784   8.370
 1156POPC   C3A18197   2.862  22.904   7.985
 1156POPC   C4A18198   2.999  23.118   7.642
 1156POPC   C1B18199   2.374  23.073   8.726
 1156POPC   C2B18200   2.483  22.900   8.348
 1156POPC   C3B18201   2.357  23.045   7.952
 1156POPC   C4B18202   2.496  23.054   7.492
 1157POPC   NC318203   4.460  31.139   9.438
 1157POPC   PO418204   3.854  31.413   9.249
 1157POPC   GL118205   4.221  31.559   9.027
 1157POPC   GL218206   4.540  31.613   9.155
 1157POPC   C1A18207   4.286  31.579   8.592
 1157POPC   D2A18208   4.414  31.303   8.257
 1157POPC   C3A18209   4.242  31.481   7.892
 1157POPC   C4A18210   3.882  31.722   7.837
 1157POPC   C1B18211   4.654  31.884   8.788
 1157POPC   C2B18212   4.484  32.015   8.361
 1157POPC   C3B18213   4.548  31.946   7.898
 1157POPC   C4B18214   4.655  31.863   7.443
 1158POPC   NC318215   7.798   4.729   9.439
 1158POPC   PO418216   7.409   5.334   9.431
 1158POPC   GL118217   7.407   4.939   9.191
 1158POPC   GL218218   7.348   5.195   8.934
 1158POPC   C1A18219   7.355   4.716   8.820
 1158POPC   D2A18220   7.356   4.976   8.465
 1158POPC   C3A18221   7.246   4.768   8.129
 1158POPC   C4A18222   7.297   4.889   7.715
 1158POPC   C1B18223   7.653   5.360   8.630
 1158POPC   C2B18224   7.553   5.497   8.228
 1158POPC   C3B18225   7.475   5.408   7.812
 1158POPC   C4B18226   7.376   5.311   7.385
 1159POPC   NC318227  34.119   2.023   9.528
 1159POPC   PO418228  33.609   2.437   9.719
 1159POPC   GL118229  33.807   2.280   9.234
 1159POPC   GL218230  33.779   1.935   9.129
 1159POPC   C1A18231  33.768   2.246   8.749
 1159POPC   D2A18232  33.707   1.959   8.408
 1159POPC   C3A18233  33.887   2.110   8.022
 1159POPC   C4A18234  33.771   1.954   7.618
 1159POPC   C1B18235  34.117   1.837   8.897
 1159POPC   C2B18236  34.195   1.562   8.577
 1159POPC   C3B18237  34.093   1.633   8.148
 1159POPC   C4B18238  34.235   1.802   7.756
 1160POPC   NC318239  13.299  38.173   9.342
 1160POPC   PO418240  13.834  38.521   9.562
 1160POPC   GL118241  13.624  38.709   9.169
 1160POPC   GL218242  13.250  38.762   9.126
 1160POPC   C1A18243  13.832  38.729   8.731
 1160POPC   D2A18244  13.849  38.459   8.359
 1160POPC   C3A18245  13.761  38.627   7.946
 1160POPC   C4A18246  13.753  38.363   7.583
 1160POPC   C1B18247  13.370  38.498   8.774
 1160POPC   C2B18248  13.337  38.403   8.358
 1160POPC   C3B18249  13.450  38.209   7.984
 1160POPC   C4B18250  13.270  38.245   7.580
 1161POPC   NC318251  29.689  11.536   9.807
 1161POPC   PO418252  30.080  11.142   9.472
 1161POPC   GL118253  29.958  11.288   9.066
 1161POPC   GL218254  29.688  11.439   9.196
 1161POPC   C1A18255  29.993  11.412   8.614
 1161POPC   D2A18256  29.950  11.262   8.203
 1161POPC   C3A18257  30.011  11.458   7.804
 1161POPC   C4A18258  29.926  11.481   7.307
 1161POPC   C1B18259  29.513  11.396   8.802
 1161POPC   C2B18260  29.519  11.243   8.429
 1161POPC   C3B18261  29.517  11.455   8.024
 1161POPC   C4B18262  29.573  11.289   7.619
 1162POPC   NC318263  39.055  18.943   9.465
 1162POPC   PO418264  39.657  19.085   9.693
 1162POPC   GL118265  39.442  19.245   9.270
 1162POPC   GL218266  39.085  19.436   9.240
 1162POPC   C1A18267  39.254  19.140   8.844
 1162POPC   D2A18268  39.115  19.018   8.434
 1162POPC   C3A18269  39.425  18.796   8.177
 1162POPC   C4A18270  39.481  18.876   7.740
 1162POPC   C1B18271  38.819  19.458   8.823
 1162POPC   C2B18272  38.681  19.308   8.395
 1162POPC   C3B18273  38.950  19.292   8.001
 1162POPC   C4B18274  38.843  19.476   7.577
 1163POPC   NC318275  17.672  25.707   9.571
 1163POPC   PO418276  17.590  25.025   9.441
 1163POPC   GL118277  17.399  25.166   9.072
 1163POPC   GL218278  17.503  25.460   9.156
 1163POPC   C1A18279  17.516  25.066   8.661
 1163POPC   D2A18280  17.471  25.010   8.250
 1163POPC   C3A18281  17.731  25.107   7.950
 1163POPC   C4A18282  17.446  25.034   7.630
 1163POPC   C1B18283  17.684  25.530   8.773
 1163POPC   C2B18284  17.693  25.465   8.337
 1163POPC   C3B18285  17.797  25.615   7.905
 1163POPC   C4B18286  17.663  25.477   7.473
 1164POPC   NC318287  41.798  24.180   9.255
 1164POPC   PO418288  41.420  24.676   9.472
 1164POPC   GL118289  41.447  24.796   9.087
 1164POPC   GL218290  41.390  24.429   9.009
 1164POPC   C1A18291  41.705  24.729   8.754
 1164POPC   D2A18292  41.618  24.343   8.506
 1164POPC   C3A18293  41.485  24.555   8.164
 1164POPC   C4A18294  41.704  24.853   7.935
 1164POPC   C1B18295  41.126  24.257   8.706
 1164POPC   C2B18296  41.215  24.069   8.302
 1164POPC   C3B18297  41.489  24.078   7.982
 1164POPC   C4B18298  41.537  24.384   7.674
 1165POPC   NC318299  11.080  44.156  10.029
 1165POPC   PO418300  11.330  43.739   9.762
 1165POPC   GL118301  11.366  43.665   9.245
 1165POPC   GL218302  11.444  43.319   9.140
 1165POPC   C1A18303  11.324  43.705   8.719
 1165POPC   D2A18304  11.569  43.730   8.282
 1165POPC   C3A18305  11.461  43.764   7.814
 1165POPC   C4A18306  11.759  43.726   7.437
 1165POPC   C1B18307  11.017  43.374   8.957
 1165POPC   C2B18308  10.897  43.495   8.527
 1165POPC   C3B18309  11.088  43.657   8.151
 1165POPC   C4B18310  11.070  43.442   7.738
 1166POPC   NC318311  19.268  34.067   9.450
 1166POPC   PO418312  18.802  33.535   9.546
 1166POPC   GL118313  19.082  33.668   9.211
 1166POPC   GL218314  18.869  33.916   9.144
 1166POPC   C1A18315  19.223  33.718   8.774
 1166POPC   D2A18316  19.004  33.572   8.398
 1166POPC   C3A18317  19.119  33.747   7.997
 1166POPC   C4A18318  19.390  33.485   7.750
 1166POPC   C1B18319  18.697  33.836   8.739
 1166POPC   C2B18320  18.745  34.087   8.376
 1166POPC   C3B18321  18.702  34.080   7.944
 1166POPC   C4B18322  18.807  33.860   7.572
 1167POPC   NC318323  22.907  32.895   9.656
 1167POPC   PO418324  22.439  33.228   9.791
 1167POPC   GL118325  22.550  32.885   9.306
 1167POPC   GL218326  22.912  32.774   9.172
 1167POPC   C1A18327  22.588  32.907   8.824
 1167POPC   D2A18328  22.689  33.079   8.424
 1167POPC   C3A18329  22.661  32.854   8.027
 1167POPC   C4A18330  22.878  32.732   7.650
 1167POPC   C1B18331  23.104  33.017   8.822
 1167POPC   C2B18332  23.168  33.253   8.425
 1167POPC   C3B18333  23.137  33.093   8.016
 1167POPC   C4B18334  23.438  33.108   7.720
 1168POPC   NC318335  25.359  16.486   9.568
 1168POPC   PO418336  25.688  17.035   9.554
 1168POPC   GL118337  25.353  16.869   9.206
 1168POPC   GL218338  25.452  16.545   9.071
 1168POPC   C1A18339  25.093  16.742   8.784
 1168POPC   D2A18340  24.897  16.565   8.409
 1168POPC   C3A18341  24.989  16.786   8.106
 1168POPC   C4A18342  25.072  16.646   7.727
 1168POPC   C1B18343  25.588  16.869   8.751
 1168POPC   C2B18344  25.532  16.843   8.342
 1168POPC   C3B18345  25.438  16.516   8.086
 1168POPC   C4B18346  25.567  16.568   7.683
 1169POPC   NC318347  15.187  16.614   9.476
 1169POPC   PO418348  14.628  16.224   9.378
 1169POPC   GL118349  14.952  16.371   9.069
 1169POPC   GL218350  15.011  16.731   9.021
 1169POPC   C1A18351  15.362  16.401   8.813
 1169POPC   D2A18352  15.498  16.628   8.442
 1169POPC   C3A18353  15.203  16.636   8.115
 1169POPC   C4A18354  15.198  16.458   7.733
 1169POPC   C1B18355  15.337  16.969   8.796
 1169POPC   C2B18356  15.284  17.130   8.370
 1169POPC   C3B18357  15.399  17.078   7.954
 1169POPC   C4B18358  15.345  16.926   7.537
 1170POPC   NC318359  14.289  43.673   9.535
 1170POPC   PO418360  14.282  44.308   9.292
 1170POPC   GL118361  14.577  44.002   9.077
 1170POPC   GL218362  14.521  43.614   9.094
 1170POPC   C1A18363  14.682  43.998   8.619
 1170POPC   D2A18364  14.433  43.930   8.249
 1170POPC   C3A18365  14.466  44.050   7.830
 1170POPC   C4A18366  14.154  44.041   7.494
 1170POPC   C1B18367  14.804  43.516   8.793
 1170POPC   C2B18368  14.742  43.516   8.369
 1170POPC   C3B18369  14.619  43.533   7.948
 1170POPC   C4B18370  14.288  43.580   7.709
 1171POPC   NC318371  44.527   4.117   9.627
 1171POPC   PO418372   0.097   4.357   9.511
 1171POPC   GL118373  44.863   4.134   9.137
 1171POPC   GL218374  44.491   4.202   9.118
 1171POPC   C1A18375  44.737   4.057   8.660
 1171POPC   D2A18376  44.711   3.954   8.198
 1171POPC   C3A18377  44.806   4.190   7.859
 1171POPC   C4A18378  44.605   4.089   7.452
 1171POPC   C1B18379  44.385   4.453   8.764
 1171POPC   C2B18380  44.355   4.292   8.349
 1171POPC   C3B18381  44.365   4.417   7.930
 1171POPC   C4B18382  44.172   4.460   7.543
 1172POPC   NC318383   4.354  23.071   9.626
 1172POPC   PO418384   4.185  22.393   9.578
 1172POPC   GL118385   4.380  22.649   9.231
 1172POPC   GL218386   4.383  23.003   9.139
 1172POPC   C1A18387   4.279  22.637   8.794
 1172POPC   D2A18388   4.574  22.610   8.453
 1172POPC   C3A18389   4.321  22.653   8.108
 1172POPC   C4A18390   4.309  22.709   7.676
 1172POPC   C1B18391   4.597  23.056   8.779
 1172POPC   C2B18392   4.419  23.098   8.387
 1172POPC   C3B18393   4.610  23.070   7.999
 1172POPC   C4B18394   4.520  23.157   7.587
 1173POPC   NC318395  14.628   0.166   9.483
 1173POPC   PO418396  14.520   0.736   9.197
 1173POPC   GL118397  14.624   0.594   8.849
 1173POPC   GL218398  14.473   0.780   8.616
 1173POPC   C1A18399  14.642   0.269   8.559
 1173POPC   D2A18400  14.527   0.437   8.188
 1173POPC   C3A18401  14.574   0.149   7.880
 1173POPC   C4A18402  14.367   0.207   7.513
 1173POPC   C1B18403  14.168   0.473   8.601
 1173POPC   C2B18404  14.032   0.295   8.228
 1173POPC   C3B18405  14.000   0.473   7.796
 1173POPC   C4B18406  13.663   0.361   7.495
 1174POPC   NC318407  39.040  29.792   9.579
 1174POPC   PO418408  39.627  30.184   9.578
 1174POPC   GL118409  39.344  30.206   9.218
 1174POPC   GL218410  38.960  30.224   9.285
 1174POPC   C1A18411  39.411  30.091   8.781
 1174POPC   D2A18412  39.313  29.955   8.362
 1174POPC   C3A18413  39.210  30.196   8.004
 1174POPC   C4A18414  39.122  29.936   7.657
 1174POPC   C1B18415  38.927  30.011   8.892
 1174POPC   C2B18416  38.797  30.080   8.452
 1174POPC   C3B18417  38.772  29.890   8.040
 1174POPC   C4B18418  38.748  29.597   7.711
 1175POPC   NC318419  10.392  29.507   9.272
 1175POPC   PO418420   9.761  29.389   9.596
 1175POPC   GL118421   9.666  29.375   9.183
 1175POPC   GL218422   9.979  29.311   9.076
 1175POPC   C1A18423   9.517  29.286   8.765
 1175POPC   D2A18424   9.696  29.313   8.366
 1175POPC   C3A18425   9.602  29.045   8.037
 1175POPC   C4A18426   9.484  29.323   7.719
 1175POPC   C1B18427  10.085  29.185   8.669
 1175POPC   C2B18428  10.115  29.060   8.227
 1175POPC   C3B18429  10.007  29.278   7.829
 1175POPC   C4B18430  10.109  29.227   7.370
 1176POPC   NC318431  43.858   6.171   9.689
 1176POPC   PO418432  43.668   6.781   9.522
 1176POPC   GL118433  43.983   6.649   9.282
 1176POPC   GL218434  44.041   6.960   9.123
 1176POPC   C1A18435  43.958   6.473   8.864
 1176POPC   D2A18436  43.984   6.642   8.433
 1176POPC   C3A18437  43.830   6.372   8.087
 1176POPC   C4A18438  44.122   6.261   7.770
 1176POPC   C1B18439  43.719   6.933   8.780
 1176POPC   C2B18440  43.475   6.739   8.429
 1176POPC   C3B18441  43.681   6.868   8.051
 1176POPC   C4B18442  43.935   6.733   7.706
 1177POPC   NC318443  16.163  23.295  10.173
 1177POPC   PO418444  16.157  23.024   9.672
 1177POPC   GL118445  16.042  22.950   9.210
 1177POPC   GL218446  15.796  23.186   9.064
 1177POPC   C1A18447  15.977  22.807   8.761
 1177POPC   D2A18448  16.001  22.905   8.311
 1177POPC   C3A18449  15.952  22.972   7.879
 1177POPC   C4A18450  16.293  23.088   7.633
 1177POPC   C1B18451  15.891  23.312   8.617
 1177POPC   C2B18452  15.754  23.359   8.181
 1177POPC   C3B18453  15.930  23.471   7.771
 1177POPC   C4B18454  15.872  23.244   7.375
 1178POPC   NC318455  33.387  41.993   9.477
 1178POPC   PO418456  33.103  42.665   9.517
 1178POPC   GL118457  33.118  42.374   9.168
 1178POPC   GL218458  33.441  42.357   9.118
 1178POPC   C1A18459  32.973  42.319   8.728
 1178POPC   D2A18460  32.790  42.522   8.332
 1178POPC   C3A18461  32.879  42.462   7.866
 1178POPC   C4A18462  32.778  42.491   7.401
 1178POPC   C1B18463  33.464  42.130   8.742
 1178POPC   C2B18464  33.510  42.297   8.323
 1178POPC   C3B18465  33.383  42.292   7.900
 1178POPC   C4B18466  33.138  41.937   7.784
 1179POPC   NC318467  39.550  14.211   9.680
 1179POPC   PO418468  40.090  14.642   9.569
 1179POPC   GL118469  40.093  14.380   9.204
 1179POPC   GL218470  39.747  14.368   9.213
 1179POPC   C1A18471  40.212  14.330   8.754
 1179POPC   D2A18472  40.368  14.260   8.312
 1179POPC   C3A18473  40.235  14.509   7.952
 1179POPC   C4A18474  40.105  14.315   7.619
 1179POPC   C1B18475  39.733  14.502   8.752
 1179POPC   C2B18476  39.793  14.369   8.287
 1179POPC   C3B18477  39.704  14.558   7.846
 1179POPC   C4B18478  39.562  14.799   7.450
 1180POPC   NC318479   5.331   1.127   9.445
 1180POPC   PO418480   4.747   0.943   9.380
 1180POPC   GL118481   4.962   1.309   9.177
 1180POPC   GL218482   4.790   1.551   9.065
 1180POPC   C1A18483   5.262   1.298   8.814
 1180POPC   D2A18484   5.191   0.973   8.460
 1180POPC   C3A18485   5.267   1.015   7.993
 1180POPC   C4A18486   5.164   1.135   7.567
 1180POPC   C1B18487   4.777   1.253   8.715
 1180POPC   C2B18488   4.800   1.269   8.278
 1180POPC   C3B18489   4.638   1.483   7.950
 1180POPC   C4B18490   4.713   1.392   7.536
 1181POPC   NC318491  39.794  11.098   9.533
 1181POPC   PO418492  40.073  11.747   9.565
 1181POPC   GL118493  40.168  11.394   9.268
 1181POPC   GL218494  39.867  11.414   9.149
 1181POPC   C1A18495  40.191  11.062   8.923
 1181POPC   D2A18496  39.940  10.809   8.613
 1181POPC   C3A18497  39.945  10.743   8.165
 1181POPC   C4A18498  39.915  10.980   7.777
 1181POPC   C1B18499  40.108  11.523   8.750
 1181POPC   C2B18500  39.889  11.595   8.387
 1181POPC   C3B18501  39.928  11.465   7.989
 1181POPC   C4B18502  39.713  11.678   7.709
 1182POPC   NC318503  39.189  44.948   9.449
 1182POPC   PO418504  39.374   0.586   9.424
 1182POPC   GL118505  39.072   0.557   9.096
 1182POPC   GL218506  38.985   0.185   8.986
 1182POPC   C1A18507  39.152   0.632   8.666
 1182POPC   D2A18508  39.260   0.362   8.338
 1182POPC   C3A18509  39.136   0.457   7.955
 1182POPC   C4A18510  38.903   0.774   7.775
 1182POPC   C1B18511  39.184  44.960   8.636
 1182POPC   C2B18512  39.629   0.080   8.536
 1182POPC   C3B18513  39.717   0.263   8.145
 1182POPC   C4B18514  39.495   0.110   7.768
 1183POPC   NC318515  34.277  42.500   9.447
 1183POPC   PO418516  34.567  41.936   9.520
 1183POPC   GL118517  34.626  42.185   9.157
 1183POPC   GL218518  34.281  42.151   9.051
 1183POPC   C1A18519  34.682  42.171   8.700
 1183POPC   D2A18520  34.383  42.335   8.389
 1183POPC   C3A18521  34.516  42.266   8.008
 1183POPC   C4A18522  34.300  42.120   7.680
 1183POPC   C1B18523  34.382  42.574   8.831
 1183POPC   C2B18524  34.723  42.699   8.557
 1183POPC   C3B18525  34.830  42.683   8.100
 1183POPC   C4B18526  34.579  42.700   7.724
 1184POPC   NC318527   1.126  11.934   9.621
 1184POPC   PO418528   1.366  12.387   9.319
 1184POPC   GL118529   1.307  11.999   9.119
 1184POPC   GL218530   1.055  11.740   9.161
 1184POPC   C1A18531   1.239  12.062   8.702
 1184POPC   D2A18532   1.121  12.284   8.344
 1184POPC   C3A18533   1.352  12.270   7.981
 1184POPC   C4A18534   1.231  12.343   7.642
 1184POPC   C1B18535   1.238  11.581   8.800
 1184POPC   C2B18536   1.093  11.685   8.414
 1184POPC   C3B18537   1.056  11.862   8.032
 1184POPC   C4B18538   1.308  11.849   7.690
 1185POPC   NC318539  38.952  41.319   9.480
 1185POPC   PO418540  39.586  41.552   9.527
 1185POPC   GL118541  39.341  41.493   9.175
 1185POPC   GL218542  39.125  41.787   9.076
 1185POPC   C1A18543  39.495  41.612   8.769
 1185POPC   D2A18544  39.309  41.802   8.427
 1185POPC   C3A18545  39.399  41.626   8.041
 1185POPC   C4A18546  39.302  41.436   7.685
 1185POPC   C1B18547  39.025  41.463   8.745
 1185POPC   C2B18548  38.878  41.392   8.375
 1185POPC   C3B18549  38.885  41.507   7.981
 1185POPC   C4B18550  38.901  41.143   7.741
 1186POPC   NC318551   2.248  15.823   9.594
 1186POPC   PO418552   1.587  15.653   9.630
 1186POPC   GL118553   1.828  15.832   9.297
 1186POPC   GL218554   1.734  16.166   9.178
 1186POPC   C1A18555   2.037  15.782   8.925
 1186POPC   D2A18556   2.004  15.709   8.496
 1186POPC   C3A18557   1.787  15.877   8.145
 1186POPC   C4A18558   1.978  15.812   7.752
 1186POPC   C1B18559   1.922  16.274   8.808
 1186POPC   C2B18560   2.100  16.196   8.409
 1186POPC   C3B18561   1.977  16.321   8.013
 1186POPC   C4B18562   1.658  16.199   7.735
 1187POPC   NC318563  30.265  37.947   9.403
 1187POPC   PO418564  29.851  37.503   9.570
 1187POPC   GL118565  29.846  37.655   9.127
 1187POPC   GL218566  30.043  37.930   8.947
 1187POPC   C1A18567  29.652  37.705   8.716
 1187POPC   D2A18568  29.898  37.793   8.343
 1187POPC   C3A18569  29.799  37.611   7.930
 1187POPC   C4A18570  29.824  37.427   7.499
 1187POPC   C1B18571  30.145  37.522   8.722
 1187POPC   C2B18572  30.204  37.378   8.280
 1187POPC   C3B18573  30.308  37.506   7.860
 1187POPC   C4B18574  30.145  37.894   7.651
 1188POPC   NC318575  11.624  34.143   9.589
 1188POPC   PO418576  11.057  33.786   9.645
 1188POPC   GL118577  11.269  33.907   9.242
 1188POPC   GL218578  11.405  33.580   9.119
 1188POPC   C1A18579  11.253  33.925   8.757
 1188POPC   D2A18580  11.001  33.739   8.401
 1188POPC   C3A18581  11.028  33.783   7.949
 1188POPC   C4A18582  11.161  34.041   7.591
 1188POPC   C1B18583  11.285  33.407   8.716
 1188POPC   C2B18584  11.497  33.596   8.370
 1188POPC   C3B18585  11.507  33.950   8.116
 1188POPC   C4B18586  11.504  33.737   7.755
 1189POPC   NC318587  27.767  41.085   9.506
 1189POPC   PO418588  27.560  40.453   9.680
 1189POPC   GL118589  27.560  40.707   9.253
 1189POPC   GL218590  27.266  40.933   9.217
 1189POPC   C1A18591  27.692  40.756   8.814
 1189POPC   D2A18592  27.675  40.486   8.435
 1189POPC   C3A18593  27.937  40.630   8.094
 1189POPC   C4A18594  27.824  40.870   7.726
 1189POPC   C1B18595  27.192  40.690   8.820
 1189POPC   C2B18596  27.245  40.785   8.352
 1189POPC   C3B18597  27.365  40.943   7.945
 1189POPC   C4B18598  27.359  40.747   7.552
 1190POPC   NC318599  36.647  20.054   9.566
 1190POPC   PO418600  36.843  19.413   9.558
 1190POPC   GL118601  36.902  19.705   9.235
 1190POPC   GL218602  37.248  19.788   9.261
 1190POPC   C1A18603  36.818  19.940   8.847
 1190POPC   D2A18604  36.528  19.927   8.473
 1190POPC   C3A18605  36.692  20.009   8.068
 1190POPC   C4A18606  36.695  19.871   7.639
 1190POPC   C1B18607  37.246  19.629   8.822
 1190POPC   C2B18608  37.032  19.740   8.406
 1190POPC   C3B18609  36.877  19.538   8.020
 1190POPC   C4B18610  37.158  19.618   7.659
 1191POPC   NC318611  20.816   3.772   9.563
 1191POPC   PO418612  20.424   3.189   9.709
 1191POPC   GL118613  20.466   3.498   9.294
 1191POPC   GL218614  20.220   3.740   9.162
 1191POPC   C1A18615  20.582   3.540   8.837
 1191POPC   D2A18616  20.628   3.272   8.457
 1191POPC   C3A18617  20.829   3.464   8.142
 1191POPC   C4A18618  20.847   3.448   7.699
 1191POPC   C1B18619  20.215   3.884   8.721
 1191POPC   C2B18620  20.525   3.804   8.391
 1191POPC   C3B18621  20.574   3.875   7.950
 1191POPC   C4B18622  20.297   3.659   7.646
 1192POPC   NC318623  13.185  35.817   9.831
 1192POPC   PO418624  12.846  35.343   9.467
 1192POPC   GL118625  12.971  35.250   9.070
 1192POPC   GL218626  12.619  35.184   9.018
 1192POPC   C1A18627  12.926  35.216   8.627
 1192POPC   D2A18628  12.694  35.145   8.282
 1192POPC   C3A18629  12.871  35.377   8.003
 1192POPC   C4A18630  13.187  35.519   7.748
 1192POPC   C1B18631  12.458  35.438   8.668
 1192POPC   C2B18632  12.439  35.662   8.263
 1192POPC   C3B18633  12.380  35.447   7.858
 1192POPC   C4B18634  12.676  35.557   7.547
 1193POPC   NC318635  27.827  26.645   9.390
 1193POPC   PO418636  27.431  27.084   9.367
 1193POPC   GL118637  27.631  26.897   8.997
 1193POPC   GL218638  27.685  26.536   8.921
 1193POPC   C1A18639  27.442  26.880   8.608
 1193POPC   D2A18640  27.096  26.701   8.395
 1193POPC   C3A18641  27.139  26.933   8.051
 1193POPC   C4A18642  27.453  26.816   7.770
 1193POPC   C1B18643  27.922  26.671   8.589
 1193POPC   C2B18644  27.794  26.824   8.196
 1193POPC   C3B18645  27.950  26.759   7.787
 1193POPC   C4B18646  27.976  26.965   7.355
 1194POPC   NC318647  13.417  30.970   9.539
 1194POPC   PO418648  13.800  30.385   9.529
 1194POPC   GL118649  13.509  30.538   9.282
 1194POPC   GL218650  13.727  30.807   9.168
 1194POPC   C1A18651  13.409  30.566   8.869
 1194POPC   D2A18652  13.546  30.611   8.459
 1194POPC   C3A18653  13.341  30.705   8.087
 1194POPC   C4A18654  13.472  30.684   7.672
 1194POPC   C1B18655  13.805  30.936   8.755
 1194POPC   C2B18656  13.917  30.959   8.316
 1194POPC   C3B18657  13.768  31.080   7.903
 1194POPC   C4B18658  13.774  31.043   7.432
 1195POPC   NC318659  21.607  27.991   9.375
 1195POPC   PO418660  21.214  28.503   9.578
 1195POPC   GL118661  21.057  28.503   9.181
 1195POPC   GL218662  20.884  28.787   9.213
 1195POPC   C1A18663  21.175  28.336   8.793
 1195POPC   D2A18664  21.571  28.299   8.583
 1195POPC   C3A18665  21.536  28.382   8.144
 1195POPC   C4A18666  21.417  28.165   7.768
 1195POPC   C1B18667  21.100  28.887   8.814
 1195POPC   C2B18668  21.141  28.680   8.412
 1195POPC   C3B18669  21.086  28.667   7.984
 1195POPC   C4B18670  21.439  28.665   7.710
 1196POPC   NC318671  24.449  42.185   9.556
 1196POPC   PO418672  24.590  42.868   9.315
 1196POPC   GL118673  24.585  42.445   9.153
 1196POPC   GL218674  24.276  42.272   9.093
 1196POPC   C1A18675  24.701  42.321   8.753
 1196POPC   D2A18676  24.521  42.609   8.465
 1196POPC   C3A18677  24.549  42.464   8.082
 1196POPC   C4A18678  24.728  42.075   7.975
 1196POPC   C1B18679  24.128  42.393   8.717
 1196POPC   C2B18680  24.163  42.210   8.345
 1196POPC   C3B18681  24.073  42.333   7.949
 1196POPC   C4B18682  24.318  42.218   7.684
 1197POPC   NC318683  34.147  31.562   9.424
 1197POPC   PO418684  34.810  31.819   9.402
 1197POPC   GL118685  34.553  31.521   9.136
 1197POPC   GL218686  34.247  31.279   9.052
 1197POPC   C1A18687  34.510  31.539   8.714
 1197POPC   D2A18688  34.580  31.768   8.392
 1197POPC   C3A18689  34.389  31.606   8.042
 1197POPC   C4A18690  34.567  31.482   7.686
 1197POPC   C1B18691  34.348  31.064   8.726
 1197POPC   C2B18692  34.599  31.175   8.366
 1197POPC   C3B18693  34.437  31.070   7.988
 1197POPC   C4B18694  34.349  31.038   7.585
 1198POPC   NC318695  19.258  32.132   9.599
 1198POPC   PO418696  18.609  32.030   9.436
 1198POPC   GL118697  18.937  32.216   9.097
 1198POPC   GL218698  19.306  32.218   9.119
 1198POPC   C1A18699  19.157  32.528   8.766
 1198POPC   D2A18700  19.370  32.555   8.355
 1198POPC   C3A18701  19.016  32.455   8.095
 1198POPC   C4A18702  18.947  32.081   7.789
 1198POPC   C1B18703  19.461  32.054   8.770
 1198POPC   C2B18704  19.589  32.089   8.411
 1198POPC   C3B18705  19.349  32.070   8.092
 1198POPC   C4B18706  19.484  31.968   7.678
 1199POPC   NC318707  39.531  30.638   9.479
 1199POPC   PO418708  40.246  30.648   9.545
 1199POPC   GL118709  39.973  30.517   9.243
 1199POPC   GL218710  39.919  30.827   9.145
 1199POPC   C1A18711  40.019  30.352   8.862
 1199POPC   D2A18712  39.987  30.560   8.468
 1199POPC   C3A18713  39.900  30.393   8.079
 1199POPC   C4A18714  40.092  30.529   7.728
 1199POPC   C1B18715  39.856  30.981   8.758
 1199POPC   C2B18716  39.652  30.929   8.388
 1199POPC   C3B18717  39.942  30.908   8.038
 1199POPC   C4B18718  39.806  30.903   7.592
 1200POPC   NC318719  39.501  33.602   9.584
 1200POPC   PO418720  39.167  34.111   9.424
 1200POPC   GL118721  39.192  33.973   9.016
 1200POPC   GL218722  39.145  33.672   9.112
 1200POPC   C1A18723  38.910  33.843   8.670
 1200POPC   D2A18724  38.737  33.687   8.289
 1200POPC   C3A18725  38.977  33.960   8.025
 1200POPC   C4A18726  39.419  34.004   7.933
 1200POPC   C1B18727  39.307  33.522   8.721
 1200POPC   C2B18728  39.259  33.620   8.276
 1200POPC   C3B18729  39.139  33.500   7.840
 1200POPC   C4B18730  38.953  33.443   7.385
 1201POPC   NC318731  38.852  14.633   9.523
 1201POPC   PO418732  38.283  14.191   9.673
 1201POPC   GL118733  38.451  14.399   9.293
 1201POPC   GL218734  38.773  14.279   9.138
 1201POPC   C1A18735  38.473  14.605   8.908
 1201POPC   D2A18736  38.314  14.481   8.521
 1201POPC   C3A18737  38.556  14.426   8.167
 1201POPC   C4A18738  38.370  14.218   7.817
 1201POPC   C1B18739  38.706  14.194   8.712
 1201POPC   C2B18740  38.911  14.020   8.371
 1201POPC   C3B18741  38.899  13.979   7.944
 1201POPC   C4B18742  38.827  14.288   7.630
 1202POPC   NC318743   5.728  43.358   9.409
 1202POPC   PO418744   6.080  42.746   9.419
 1202POPC   GL118745   5.809  42.912   9.088
 1202POPC   GL218746   5.827  43.197   8.942
 1202POPC   C1A18747   5.733  42.784   8.651
 1202POPC   D2A18748   5.970  42.827   8.278
 1202POPC   C3A18749   5.774  43.095   8.008
 1202POPC   C4A18750   5.526  43.018   7.614
 1202POPC   C1B18751   5.850  43.345   8.540
 1202POPC   C2B18752   6.175  43.548   8.323
 1202POPC   C3B18753   6.217  43.446   7.870
 1202POPC   C4B18754   6.013  43.198   7.513
 1203POPC   NC318755  21.818  15.696   9.492
 1203POPC   PO418756  22.473  15.669   9.544
 1203POPC   GL118757  22.329  15.996   9.223
 1203POPC   GL218758  21.977  16.163   9.249
 1203POPC   C1A18759  22.249  16.102   8.799
 1203POPC   D2A18760  22.219  15.990   8.365
 1203POPC   C3A18761  22.295  16.141   7.943
 1203POPC   C4A18762  22.588  15.868   7.728
 1203POPC   C1B18763  21.728  15.985   8.885
 1203POPC   C2B18764  21.735  15.796   8.469
 1203POPC   C3B18765  21.812  15.874   8.042
 1203POPC   C4B18766  21.740  16.069   7.660
 1204POPC   NC318767  37.244  22.817   9.287
 1204POPC   PO418768  37.890  22.703   9.394
 1204POPC   GL118769  37.725  22.962   9.120
 1204POPC   GL218770  37.620  23.305   9.173
 1204POPC   C1A18771  37.888  23.091   8.757
 1204POPC   D2A18772  37.713  22.977   8.389
 1204POPC   C3A18773  37.889  22.736   8.109
 1204POPC   C4A18774  37.862  22.861   7.683
 1204POPC   C1B18775  37.395  23.223   8.763
 1204POPC   C2B18776  37.447  23.420   8.345
 1204POPC   C3B18777  37.545  23.218   7.953
 1204POPC   C4B18778  37.393  23.106   7.529
 1205POPC   NC318779  14.893  42.943   9.573
 1205POPC   PO418780  15.346  43.273   9.803
 1205POPC   GL118781  15.323  43.203   9.308
 1205POPC   GL218782  14.973  43.319   9.238
 1205POPC   C1A18783  15.514  42.980   8.885
 1205POPC   D2A18784  15.402  42.743   8.482
 1205POPC   C3A18785  15.460  42.907   8.025
 1205POPC   C4A18786  15.348  43.104   7.584
 1205POPC   C1B18787  15.006  43.041   8.889
 1205POPC   C2B18788  15.062  43.136   8.454
 1205POPC   C3B18789  15.040  43.240   8.018
 1205POPC   C4B18790  14.932  42.891   7.781
 1206POPC   NC318791  16.222   0.656   9.352
 1206POPC   PO418792  15.788   0.277   9.660
 1206POPC   GL118793  15.842   0.357   9.197
 1206POPC   GL218794  16.149   0.267   9.024
 1206POPC   C1A18795  15.786   0.492   8.730
 1206POPC   D2A18796  16.074   0.298   8.395
 1206POPC   C3A18797  16.030   0.413   7.945
 1206POPC   C4A18798  15.908   0.687   7.612
 1206POPC   C1B18799  16.275   0.646   8.729
 1206POPC   C2B18800  16.049   0.823   8.402
 1206POPC   C3B18801  16.205   0.891   7.993
 1206POPC   C4B18802  16.442   0.646   7.717
 1207POPC   NC318803  23.973  17.187   9.404
 1207POPC   PO418804  23.509  17.726   9.473
 1207POPC   GL118805  23.491  17.608   9.055
 1207POPC   GL218806  23.786  17.443   9.011
 1207POPC   C1A18807  23.613  17.727   8.618
 1207POPC   D2A18808  23.658  17.961   8.241
 1207POPC   C3A18809  23.604  17.622   7.910
 1207POPC   C4A18810  23.360  17.245   7.784
 1207POPC   C1B18811  23.918  17.217   8.635
 1207POPC   C2B18812  23.690  17.161   8.247
 1207POPC   C3B18813  23.874  17.166   7.851
 1207POPC   C4B18814  24.083  17.118   7.416
 1208POPC   NC318815   0.723   6.477   9.419
 1208POPC   PO418816   0.124   6.834   9.433
 1208POPC   GL118817   0.366   6.685   9.096
 1208POPC   GL218818   0.738   6.725   8.970
 1208POPC   C1A18819   0.235   6.650   8.699
 1208POPC   D2A18820   0.496   6.723   8.375
 1208POPC   C3A18821   0.298   6.566   8.022
 1208POPC   C4A18822  44.993   6.503   7.725
 1208POPC   C1B18823   0.647   6.360   8.743
 1208POPC   C2B18824   0.402   6.197   8.402
 1208POPC   C3B18825   0.510   6.111   7.985
 1208POPC   C4B18826   0.556   6.366   7.612
 1209POPC   NC318827  44.521   1.599   9.695
 1209POPC   PO418828  44.886   2.093   9.493
 1209POPC   GL118829  44.765   2.025   9.087
 1209POPC   GL218830  44.575   2.289   8.943
 1209POPC   C1A18831  44.884   1.907   8.685
 1209POPC   D2A18832  44.922   1.724   8.286
 1209POPC   C3A18833  44.935   2.013   7.941
 1209POPC   C4A18834  44.806   1.907   7.498
 1209POPC   C1B18835  44.363   2.025   8.682
 1209POPC   C2B18836  44.566   2.089   8.323
 1209POPC   C3B18837  44.571   2.340   8.012
 1209POPC   C4B18838  44.445   2.218   7.671
 1210POPC   NC318839  35.604  28.498   9.450
 1210POPC   PO418840  34.979  28.181   9.566
 1210POPC   GL118841  35.261  28.179   9.192
 1210POPC   GL218842  35.271  28.516   9.057
 1210POPC   C1A18843  35.174  28.063   8.754
 1210POPC   D2A18844  35.100  28.228   8.338
 1210POPC   C3A18845  35.364  28.414   8.054
 1210POPC   C4A18846  35.136  28.455   7.688
 1210POPC   C1B18847  35.423  28.548   8.637
 1210POPC   C2B18848  35.560  28.941   8.398
 1210POPC   C3B18849  35.740  28.953   7.975
 1210POPC   C4B18850  35.580  28.702   7.630
 1211POPC   NC318851  16.562  18.044   9.610
 1211POPC   PO418852  16.727  17.393   9.663
 1211POPC   GL118853  16.679  17.381   9.247
 1211POPC   GL218854  16.524  17.689   9.191
 1211POPC   C1A18855  16.939  17.529   8.890
 1211POPC   D2A18856  17.061  17.317   8.514
 1211POPC   C3A18857  16.989  17.522   8.115
 1211POPC   C4A18858  16.987  17.436   7.653
 1211POPC   C1B18859  16.430  17.421   8.811
 1211POPC   C2B18860  16.572  17.362   8.391
 1211POPC   C3B18861  16.382  17.417   7.956
 1211POPC   C4B18862  16.215  17.630   7.575
 1212POPC   NC318863  38.541  42.399   9.591
 1212POPC   PO418864  38.786  41.775   9.455
 1212POPC   GL118865  38.579  42.064   9.138
 1212POPC   GL218866  38.488  42.449   9.111
 1212POPC   C1A18867  38.467  42.142   8.700
 1212POPC   D2A18868  38.244  42.185   8.321
 1212POPC   C3A18869  38.571  42.231   8.055
 1212POPC   C4A18870  38.654  42.516   7.745
 1212POPC   C1B18871  38.264  42.586   8.787
 1212POPC   C2B18872  38.460  42.631   8.404
 1212POPC   C3B18873  38.261  42.647   8.037
 1212POPC   C4B18874  38.106  42.746   7.634
 1213POPC   NC318875   8.765  11.633   9.581
 1213POPC   PO418876   8.887  12.247   9.497
 1213POPC   GL118877   8.899  11.948   9.198
 1213POPC   GL218878   8.583  11.767   9.104
 1213POPC   C1A18879   8.940  11.986   8.778
 1213POPC   D2A18880   9.210  12.014   8.431
 1213POPC   C3A18881   9.005  11.880   8.073
 1213POPC   C4A18882   9.086  12.062   7.678
 1213POPC   C1B18883   8.435  11.848   8.673
 1213POPC   C2B18884   8.585  12.163   8.364
 1213POPC   C3B18885   8.642  12.218   7.932
 1213POPC   C4B18886   8.632  11.848   7.710
 1214POPC   NC318887  44.361  10.998   9.448
 1214POPC   PO418888  44.991  10.984   9.416
 1214POPC   GL118889  44.969  11.379   9.160
 1214POPC   GL218890  44.606  11.514   9.103
 1214POPC   C1A18891  44.857  11.331   8.724
 1214POPC   D2A18892  44.633  11.159   8.383
 1214POPC   C3A18893  44.826  11.212   7.982
 1214POPC   C4A18894   0.078  11.048   7.648
 1214POPC   C1B18895  44.399  11.576   8.642
 1214POPC   C2B18896  44.423  11.562   8.157
 1214POPC   C3B18897  44.351  11.291   7.803
 1214POPC   C4B18898  44.270  11.333   7.347
 1215POPC   NC318899  10.910  12.740   9.512
 1215POPC   PO418900  10.466  13.254   9.634
 1215POPC   GL118901  10.541  12.962   9.226
 1215POPC   GL218902  10.917  12.957   9.064
 1215POPC   C1A18903  10.329  12.706   8.892
 1215POPC   D2A18904  10.266  12.543   8.475
 1215POPC   C3A18905  10.088  12.640   8.106
 1215POPC   C4A18906  10.342  12.742   7.766
 1215POPC   C1B18907  10.704  13.002   8.682
 1215POPC   C2B18908  10.540  12.942   8.277
 1215POPC   C3B18909  10.793  12.882   7.936
 1215POPC   C4B18910  10.777  12.878   7.502
 1216POPC   NC318911  13.099  17.451   9.654
 1216POPC   PO418912  12.646  17.843   9.436
 1216POPC   GL118913  12.828  17.549   9.191
 1216POPC   GL218914  12.535  17.558   8.984
 1216POPC   C1A18915  12.997  17.555   8.782
 1216POPC   D2A18916  12.866  17.680   8.403
 1216POPC   C3A18917  13.143  17.453   8.147
 1216POPC   C4A18918  13.215  17.458   7.723
 1216POPC   C1B18919  12.256  17.296   8.769
 1216POPC   C2B18920  12.354  17.203   8.352
 1216POPC   C3B18921  12.598  17.390   8.048
 1216POPC   C4B18922  12.740  17.277   7.651
 1217POPC   NC318923  12.412  17.413   9.455
 1217POPC   PO418924  11.864  17.793   9.709
 1217POPC   GL118925  12.036  17.699   9.264
 1217POPC   GL218926  11.831  17.471   9.045
 1217POPC   C1A18927  12.124  17.854   8.834
 1217POPC   D2A18928  12.343  17.760   8.439
 1217POPC   C3A18929  12.082  17.594   8.103
 1217POPC   C4A18930  11.791  17.523   7.763
 1217POPC   C1B18931  11.764  17.106   8.760
 1217POPC   C2B18932  11.898  16.960   8.365
 1217POPC   C3B18933  12.011  17.088   7.936
 1217POPC   C4B18934  12.181  17.241   7.523
 1218POPC   NC318935  26.196  31.042   9.919
 1218POPC   PO418936  26.192  31.631   9.553
 1218POPC   GL118937  25.994  31.511   9.185
 1218POPC   GL218938  25.804  31.206   9.257
 1218POPC   C1A18939  26.148  31.554   8.760
 1218POPC   D2A18940  26.376  31.638   8.373
 1218POPC   C3A18941  26.376  31.390   7.966
 1218POPC   C4A18942  26.339  31.493   7.473
 1218POPC   C1B18943  25.822  31.165   8.796
 1218POPC   C2B18944  25.991  31.278   8.377
 1218POPC   C3B18945  25.936  31.122   8.004
 1218POPC   C4B18946  25.836  31.061   7.603
 1219POPC   NC318947  29.249  12.070   9.447
 1219POPC   PO418948  28.688  12.045   9.453
 1219POPC   GL118949  28.968  11.878   9.070
 1219POPC   GL218950  29.386  11.846   9.028
 1219POPC   C1A18951  29.083  11.736   8.656
 1219POPC   D2A18952  28.894  11.833   8.306
 1219POPC   C3A18953  29.165  11.882   7.947
 1219POPC   C4A18954  29.267  12.058   7.534
 1219POPC   C1B18955  29.402  12.135   8.673
 1219POPC   C2B18956  29.139  12.289   8.320
 1219POPC   C3B18957  29.268  12.407   7.899
 1219POPC   C4B18958  29.688  12.324   7.693
 1220POPC   NC318959  24.803  30.646   9.423
 1220POPC   PO418960  24.244  30.767   9.624
 1220POPC   GL118961  24.397  30.804   9.178
 1220POPC   GL218962  24.690  31.040   9.113
 1220POPC   C1A18963  24.550  30.675   8.769
 1220POPC   D2A18964  24.640  30.366   8.480
 1220POPC   C3A18965  24.443  30.437   8.083
 1220POPC   C4A18966  24.535  30.452   7.648
 1220POPC   C1B18967  24.892  31.061   8.707
 1220POPC   C2B18968  24.722  31.003   8.273
 1220POPC   C3B18969  24.757  30.859   7.831
 1220POPC   C4B18970  24.959  30.885   7.402
 1221POPC   NC318971  19.164  43.616   9.470
 1221POPC   PO418972  18.987  42.895   9.546
 1221POPC   GL118973  19.211  43.151   9.230
 1221POPC   GL218974  18.920  43.336   9.117
 1221POPC   C1A18975  19.245  43.116   8.771
 1221POPC   D2A18976  19.376  43.022   8.356
 1221POPC   C3A18977  19.139  42.845   8.034
 1221POPC   C4A18978  19.419  42.851   7.712
 1221POPC   C1B18979  18.722  43.168   8.764
 1221POPC   C2B18980  18.801  42.984   8.386
 1221POPC   C3B18981  18.744  43.201   7.979
 1221POPC   C4B18982  18.896  43.591   7.769
 1222POPC   NC318983  39.030  28.064   9.660
 1222POPC   PO418984  38.784  28.613   9.383
 1222POPC   GL118985  39.090  28.436   9.136
 1222POPC   GL218986  39.291  28.144   9.202
 1222POPC   C1A18987  39.086  28.131   8.753
 1222POPC   D2A18988  39.024  28.026   8.349
 1222POPC   C3A18989  39.163  28.293   8.062
 1222POPC   C4A18990  39.048  28.136   7.682
 1222POPC   C1B18991  39.475  28.446   8.826
 1222POPC   C2B18992  39.427  28.611   8.414
 1222POPC   C3B18993  39.629  28.544   8.030
 1222POPC   C4B18994  39.514  28.355   7.660
 1223POPC   NC318995  43.814   3.890   9.915
 1223POPC   PO418996  44.140   4.345   9.479
 1223POPC   GL118997  43.988   4.442   9.115
 1223POPC   GL218998  43.672   4.278   9.142
 1223POPC   C1A18999  43.929   4.257   8.710
 1223POPC   D2A19000  43.867   4.096   8.349
 1223POPC   C3A19001  43.875   4.265   7.952
 1223POPC   C4A19002  43.600   4.050   7.666
 1223POPC   C1B19003  43.537   4.578   8.854
 1223POPC   C2B19004  43.620   4.601   8.441
 1223POPC   C3B19005  43.432   4.427   8.107
 1223POPC   C4B19006  43.523   4.559   7.706
 1224POPC   NC319007  32.706   3.182   9.720
 1224POPC   PO419008  32.215   3.605   9.548
 1224POPC   GL119009  32.221   3.571   9.160
 1224POPC   GL219010  32.187   3.928   9.118
 1224POPC   C1A19011  32.484   3.527   8.780
 1224POPC   D2A19012  32.489   3.250   8.413
 1224POPC   C3A19013  32.431   3.382   7.984
 1224POPC   C4A19014  32.697   3.454   7.610
 1224POPC   C1B19015  32.008   3.718   8.749
 1224POPC   C2B19016  31.999   3.491   8.382
 1224POPC   C3B19017  31.989   3.659   7.971
 1224POPC   C4B19018  32.230   3.721   7.614
 1225POPC   NC319019  13.105  35.724   9.285
 1225POPC   PO419020  12.596  36.135   9.470
 1225POPC   GL119021  12.743  36.038   9.092
 1225POPC   GL219022  12.661  35.699   9.069
 1225POPC   C1A19023  12.936  36.275   8.773
 1225POPC   D2A19024  13.077  36.513   8.416
 1225POPC   C3A19025  13.038  36.385   7.976
 1225POPC   C4A19026  13.077  36.493   7.539
 1225POPC   C1B19027  12.882  35.757   8.663
 1225POPC   C2B19028  13.060  35.985   8.317
 1225POPC   C3B19029  12.855  35.892   7.947
 1225POPC   C4B19030  12.837  36.040   7.532
 1226POPC   NC319031  10.882  34.205   9.657
 1226POPC   PO419032  10.413  34.742   9.508
 1226POPC   GL119033  10.289  34.563   9.069
 1226POPC   GL219034  10.421  34.215   8.890
 1226POPC   C1A19035  10.487  34.650   8.651
 1226POPC   D2A19036  10.589  34.478   8.275
 1226POPC   C3A19037  10.679  34.791   7.994
 1226POPC   C4A19038  10.314  34.717   7.798
 1226POPC   C1B19039  10.795  34.149   8.640
 1226POPC   C2B19040  11.021  34.220   8.228
 1226POPC   C3B19041  10.800  34.305   7.822
 1226POPC   C4B19042  10.742  34.180   7.358
 1227POPC   NC319043   7.627  23.040   9.373
 1227POPC   PO419044   7.145  22.539   9.279
 1227POPC   GL119045   7.359  22.760   9.012
 1227POPC   GL219046   7.217  23.062   9.077
 1227POPC   C1A19047   7.425  22.771   8.587
 1227POPC   D2A19048   7.200  22.708   8.265
 1227POPC   C3A19049   7.415  22.866   7.941
 1227POPC   C4A19050   7.686  22.816   7.571
 1227POPC   C1B19051   7.484  23.230   8.750
 1227POPC   C2B19052   7.319  23.268   8.317
 1227POPC   C3B19053   7.112  23.248   7.898
 1227POPC   C4B19054   7.200  23.016   7.497
 1228POPC   NC319055  38.094  39.551   9.304
 1228POPC   PO419056  37.479  39.487   9.326
 1228POPC   GL119057  37.731  39.358   8.995
 1228POPC   GL219058  37.693  39.030   8.892
 1228POPC   C1A19059  38.089  39.311   8.699
 1228POPC   D2A19060  38.153  39.474   8.314
 1228POPC   C3A19061  37.846  39.325   8.058
 1228POPC   C4A19062  37.810  39.491   7.621
 1228POPC   C1B19063  37.279  39.099   8.697
 1228POPC   C2B19064  37.139  39.263   8.283
 1228POPC   C3B19065  37.381  39.339   7.887
 1228POPC   C4B19066  37.662  38.994   7.695
 1229POPC   NC319067   1.675  38.089   9.564
 1229POPC   PO419068   1.127  37.652   9.456
 1229POPC   GL119069   1.289  37.709   9.082
 1229POPC   GL219070   1.426  38.016   9.120
 1229POPC   C1A19071   1.148  37.742   8.674
 1229POPC   D2A19072   1.038  37.947   8.303
 1229POPC   C3A19073   0.970  37.652   7.988
 1229POPC   C4A19074   1.214  37.486   7.664
 1229POPC   C1B19075   1.650  37.959   8.731
 1229POPC   C2B19076   1.536  37.771   8.331
 1229POPC   C3B19077   1.433  37.906   7.919
 1229POPC   C4B19078   1.516  37.838   7.464
 1230POPC   NC319079  27.080  44.716   9.333
 1230POPC   PO419080  27.664  44.626   9.611
 1230POPC   GL119081  27.615  44.777   9.213
 1230POPC   GL219082  27.805  44.516   9.089
 1230POPC   C1A19083  27.467  44.866   8.789
 1230POPC   D2A19084  27.597  44.813   8.371
 1230POPC   C3A19085  27.376  44.837   7.976
 1230POPC   C4A19086  27.406   0.147   7.663
 1230POPC   C1B19087  27.547  44.341   8.752
 1230POPC   C2B19088  27.475  44.327   8.292
 1230POPC   C3B19089  27.751  44.496   7.963
 1230POPC   C4B19090  27.732  44.710   7.559
 1231POPC   NC319091  43.482  40.772   9.592
 1231POPC   PO419092  42.766  40.797   9.531
 1231POPC   GL119093  43.078  40.824   9.212
 1231POPC   GL219094  43.255  40.509   9.189
 1231POPC   C1A19095  43.202  40.918   8.789
 1231POPC   D2A19096  43.422  41.070   8.422
 1231POPC   C3A19097  43.180  40.982   8.060
 1231POPC   C4A19098  42.913  40.813   7.751
 1231POPC   C1B19099  43.172  40.393   8.770
 1231POPC   C2B19100  43.087  40.593   8.379
 1231POPC   C3B19101  43.265  40.451   7.977
 1231POPC   C4B19102  43.371  40.161   7.654
 1232POPC   NC319103  38.564  31.986   9.181
 1232POPC   PO419104  38.903  32.524   9.427
 1232POPC   GL119105  38.643  32.475   9.075
 1232POPC   GL219106  38.937  32.508   8.909
 1232POPC   C1A19107  38.246  32.499   8.815
 1232POPC   D2A19108  38.155  32.571   8.374
 1232POPC   C3A19109  38.388  32.295   8.077
 1232POPC   C4A19110  38.517  31.914   7.858
 1232POPC   C1B19111  38.673  32.311   8.573
 1232POPC   C2B19112  38.856  32.080   8.248
 1232POPC   C3B19113  38.968  32.381   8.025
 1232POPC   C4B19114  38.729  32.580   7.788
 1233POPC   NC319115  21.195  18.356   9.523
 1233POPC   PO419116  20.494  18.607   9.549
 1233POPC   GL119117  20.486  18.317   9.219
 1233POPC   GL219118  20.804  18.148   9.216
 1233POPC   C1A19119  20.569  18.368   8.785
 1233POPC   D2A19120  20.833  18.428   8.414
 1233POPC   C3A19121  20.568  18.355   8.049
 1233POPC   C4A19122  20.373  18.567   7.702
 1233POPC   C1B19123  20.902  17.999   8.808
 1233POPC   C2B19124  20.933  17.921   8.363
 1233POPC   C3B19125  21.028  18.127   7.974
 1233POPC   C4B19126  20.794  18.232   7.574
 1234POPC   NC319127  10.377  19.517   9.824
 1234POPC   PO419128  10.784  19.912   9.427
 1234POPC   GL119129  10.526  19.781   9.072
 1234POPC   GL219130  10.605  20.056   8.900
 1234POPC   C1A19131  10.562  19.571   8.688
 1234POPC   D2A19132  10.636  19.813   8.323
 1234POPC   C3A19133  10.695  19.551   7.978
 1234POPC   C4A19134  10.320  19.387   7.774
 1234POPC   C1B19135  10.242  19.966   8.641
 1234POPC   C2B19136  10.046  19.935   8.241
 1234POPC   C3B19137  10.327  19.916   7.884
 1234POPC   C4B19138  10.746  20.059   7.889
 1235POPC   NC319139   1.979   7.652   9.436
 1235POPC   PO419140   1.756   6.981   9.373
 1235POPC   GL119141   1.779   7.353   9.088
 1235POPC   GL219142   2.147   7.560   8.970
 1235POPC   C1A19143   1.714   7.608   8.728
 1235POPC   D2A19144   2.015   7.707   8.396
 1235POPC   C3A19145   1.813   7.494   8.067
 1235POPC   C4A19146   1.847   7.330   7.668
 1235POPC   C1B19147   2.074   7.229   8.696
 1235POPC   C2B19148   2.179   7.202   8.298
 1235POPC   C3B19149   2.298   7.316   7.906
 1235POPC   C4B19150   2.263   7.042   7.553
 1236POPC   NC319151  30.476  19.293   9.275
 1236POPC   PO419152  30.943  18.778   9.485
 1236POPC   GL119153  30.828  18.950   9.123
 1236POPC   GL219154  30.495  18.785   9.134
 1236POPC   C1A19155  30.990  19.127   8.749
 1236POPC   D2A19156  30.762  19.154   8.377
 1236POPC   C3A19157  30.956  19.110   7.991
 1236POPC   C4A19158  30.727  19.280   7.652
 1236POPC   C1B19159  30.404  18.773   8.704
 1236POPC   C2B19160  30.293  18.687   8.283
 1236POPC   C3B19161  30.454  18.928   7.931
 1236POPC   C4B19162  30.504  18.875   7.458
 1237POPC   NC319163  43.713  31.671   9.377
 1237POPC   PO419164  43.799  31.019   9.424
 1237POPC   GL119165  43.782  31.266   9.078
 1237POPC   GL219166  44.111  31.429   9.159
 1237POPC   C1A19167  43.750  31.476   8.669
 1237POPC   D2A19168  43.735  31.233   8.304
 1237POPC   C3A19169  43.865  31.470   7.919
 1237POPC   C4A19170  43.774  31.643   7.498
 1237POPC   C1B19171  44.201  31.278   8.756
 1237POPC   C2B19172  44.205  31.444   8.349
 1237POPC   C3B19173  44.364  31.337   7.955
 1237POPC   C4B19174  44.149  31.292   7.527
 1238POPC   NC319175  23.968  23.133   9.819
 1238POPC   PO419176  23.710  22.590   9.576
 1238POPC   GL119177  23.734  22.964   9.313
 1238POPC   GL219178  23.978  23.223   9.263
 1238POPC   C1A19179  23.619  23.022   8.885
 1238POPC   D2A19180  23.670  23.085   8.464
 1238POPC   C3A19181  23.546  22.811   8.130
 1238POPC   C4A19182  23.716  22.807   7.733
 1238POPC   C1B19183  24.104  23.163   8.791
 1238POPC   C2B19184  24.084  23.339   8.351
 1238POPC   C3B19185  23.874  23.251   7.953
 1238POPC   C4B19186  24.026  23.134   7.497
 1239POPC   NC319187   0.798  36.402   9.517
 1239POPC   PO419188   0.639  35.887   9.458
 1239POPC   GL119189   0.620  36.175   9.089
 1239POPC   GL219190   0.420  36.473   9.149
 1239POPC   C1A19191   0.607  36.134   8.650
 1239POPC   D2A19192   0.291  36.003   8.350
 1239POPC   C3A19193   0.441  35.990   7.924
 1239POPC   C4A19194   0.465  35.798   7.502
 1239POPC   C1B19195   0.148  36.366   8.770
 1239POPC   C2B19196  44.933  36.386   8.355
 1239POPC   C3B19197   0.126  36.403   7.928
 1239POPC   C4B19198   0.391  36.320   7.544
 1240POPC   NC319199  11.190  29.506   9.626
 1240POPC   PO419200  11.526  30.140   9.558
 1240POPC   GL119201  11.380  30.028   9.180
 1240POPC   GL219202  11.191  29.742   9.184
 1240POPC   C1A19203  11.264  30.027   8.746
 1240POPC   D2A19204  10.990  30.212   8.469
 1240POPC   C3A19205  11.136  30.072   8.077
 1240POPC   C4A19206  10.988  30.145   7.667
 1240POPC   C1B19207  11.283  29.500   8.811
 1240POPC   C2B19208  11.407  29.520   8.406
 1240POPC   C3B19209  11.237  29.526   8.004
 1240POPC   C4B19210  11.508  29.576   7.677
 1241POPC   NC319211  16.860  18.818   9.613
 1241POPC   PO419212  16.707  19.328   9.727
 1241POPC   GL119213  16.700  19.164   9.273
 1241POPC   GL219214  16.390  18.999   9.191
 1241POPC   C1A19215  16.820  18.891   8.891
 1241POPC   D2A19216  17.039  18.793   8.494
 1241POPC   C3A19217  16.930  18.880   8.038
 1241POPC   C4A19218  17.089  19.092   7.652
 1241POPC   C1B19219  16.492  19.267   8.799
 1241POPC   C2B19220  16.668  19.176   8.374
 1241POPC   C3B19221  16.720  19.339   7.938
 1241POPC   C4B19222  16.587  19.147   7.537
 1242POPC   NC319223   0.839  22.310   9.330
 1242POPC   PO419224   1.532  22.559   9.395
 1242POPC   GL119225   1.332  22.257   9.132
 1242POPC   GL219226   1.341  21.893   9.155
 1242POPC   C1A19227   1.295  22.151   8.708
 1242POPC   D2A19228   1.545  21.994   8.393
 1242POPC   C3A19229   1.345  22.154   8.053
 1242POPC   C4A19230   1.480  22.148   7.671
 1242POPC   C1B19231   0.942  21.803   8.841
 1242POPC   C2B19232   0.809  21.696   8.401
 1242POPC   C3B19233   0.969  21.779   7.982
 1242POPC   C4B19234   0.965  22.142   7.707
 1243POPC   NC319235  11.564  24.002   9.821
 1243POPC   PO419236  11.974  23.575   9.561
 1243POPC   GL119237  12.011  23.609   9.165
 1243POPC   GL219238  12.274  23.783   9.178
 1243POPC   C1A19239  11.911  23.789   8.761
 1243POPC   D2A19240  11.871  23.545   8.406
 1243POPC   C3A19241  12.021  23.667   8.020
 1243POPC   C4A19242  11.843  23.902   7.695
 1243POPC   C1B19243  12.372  23.568   8.779
 1243POPC   C2B19244  12.369  23.425   8.350
 1243POPC   C3B19245  12.498  23.452   7.922
 1243POPC   C4B19246  12.269  23.649   7.556
 1244POPC   NC319247  44.170  16.758   9.566
 1244POPC   PO419248  43.618  16.924   9.225
 1244POPC   GL119249  43.981  16.765   9.079
 1244POPC   GL219250  44.043  16.424   9.190
 1244POPC   C1A19251  43.966  16.777   8.651
 1244POPC   D2A19252  43.719  16.588   8.311
 1244POPC   C3A19253  43.752  16.788   7.924
 1244POPC   C4A19254  43.493  16.712   7.580
 1244POPC   C1B19255  44.181  16.326   8.765
 1244POPC   C2B19256  44.235  16.478   8.352
 1244POPC   C3B19257  44.112  16.331   7.966
 1244POPC   C4B19258  44.213  16.655   7.729
 1245POPC   NC319259   6.782  15.776   9.624
 1245POPC   PO419260   7.289  16.194   9.450
 1245POPC   GL119261   7.178  15.807   9.220
 1245POPC   GL219262   7.452  15.679   9.039
 1245POPC   C1A19263   7.054  15.787   8.764
 1245POPC   D2A19264   7.221  16.021   8.418
 1245POPC   C3A19265   7.464  15.805   8.140
 1245POPC   C4A19266   7.441  15.845   7.718
 1245POPC   C1B19267   7.626  15.859   8.678
 1245POPC   C2B19268   7.738  16.184   8.368
 1245POPC   C3B19269   7.790  16.188   7.911
 1245POPC   C4B19270   7.852  16.050   7.465
 1246POPC   NC319271   6.496   6.192   9.430
 1246POPC   PO419272   6.734   5.501   9.509
 1246POPC   GL119273   6.610   5.735   9.191
 1246POPC   GL219274   6.766   5.511   8.962
 1246POPC   C1A19275   6.716   6.024   8.830
 1246POPC   D2A19276   6.778   5.977   8.383
 1246POPC   C3A19277   6.485   6.019   8.029
 1246POPC   C4A19278   6.775   6.030   7.697
 1246POPC   C1B19279   6.365   5.653   8.754
 1246POPC   C2B19280   6.335   5.556   8.354
 1246POPC   C3B19281   6.680   5.547   8.083
 1246POPC   C4B19282   6.547   5.579   7.680
 1247POPC   NC319283   3.151   3.401   9.558
 1247POPC   PO419284   2.485   3.563   9.510
 1247POPC   GL119285   2.711   3.600   9.138
 1247POPC   GL219286   2.995   3.811   9.203
 1247POPC   C1A19287   2.942   3.526   8.757
 1247POPC   D2A19288   2.776   3.399   8.366
 1247POPC   C3A19289   2.664   3.632   8.056
 1247POPC   C4A19290   2.514   3.420   7.725
 1247POPC   C1B19291   3.046   4.042   8.786
 1247POPC   C2B19292   3.008   3.951   8.333
 1247POPC   C3B19293   3.185   3.709   8.010
 1247POPC   C4B19294   3.039   3.323   7.881
 1248POPC   NC319295  22.227   6.095   9.427
 1248POPC   PO419296  21.677   5.701   9.635
 1248POPC   GL119297  21.894   5.764   9.178
 1248POPC   GL219298  22.236   5.716   9.098
 1248POPC   C1A19299  21.932   5.952   8.720
 1248POPC   D2A19300  21.832   6.206   8.308
 1248POPC   C3A19301  21.924   6.134   7.850
 1248POPC   C4A19302  21.954   5.773   7.508
 1248POPC   C1B19303  22.443   6.046   8.802
 1248POPC   C2B19304  22.370   6.159   8.366
 1248POPC   C3B19305  22.385   5.963   7.944
 1248POPC   C4B19306  22.381   5.559   7.702
 1249POPC   NC319307  41.502  44.269   9.441
 1249POPC   PO419308  41.806  44.878   9.327
 1249POPC   GL119309  41.707  44.554   9.081
 1249POPC   GL219310  42.024  44.443   9.082
 1249POPC   C1A19311  41.447  44.591   8.718
 1249POPC   D2A19312  41.437  44.841   8.362
 1249POPC   C3A19313  41.359  44.596   7.975
 1249POPC   C4A19314  41.333  44.795   7.578
 1249POPC   C1B19315  41.962  44.718   8.681
 1249POPC   C2B19316  41.883  44.648   8.251
 1249POPC   C3B19317  41.805  44.777   7.819
 1249POPC   C4B19318  41.799  44.702   7.377
 1250POPC   NC319319   5.655   8.981   9.378
 1250POPC   PO419320   6.272   9.073   9.262
 1250POPC   GL119321   6.033   8.793   8.984
 1250POPC   GL219322   5.719   8.963   8.870
 1250POPC   C1A19323   6.084   8.729   8.534
 1250POPC   D2A19324   5.752   8.691   8.231
 1250POPC   C3A19325   5.900   8.796   7.810
 1250POPC   C4A19326   6.233   8.557   7.598
 1250POPC   C1B19327   6.008   9.222   8.652
 1250POPC   C2B19328   6.063   9.161   8.224
 1250POPC   C3B19329   6.172   9.356   7.864
 1250POPC   C4B19330   5.823   9.347   7.561
 1251POPC   NC319331  32.049  40.454   9.356
 1251POPC   PO419332  32.288  41.177   9.395
 1251POPC   GL119333  32.284  40.958   9.000
 1251POPC   GL219334  32.637  40.992   8.899
 1251POPC   C1A19335  32.010  40.711   8.727
 1251POPC   D2A19336  31.859  40.633   8.321
 1251POPC   C3A19337  32.188  40.721   8.061
 1251POPC   C4A19338  32.166  40.773   7.641
 1251POPC   C1B19339  32.493  40.731   8.550
 1251POPC   C2B19340  32.618  40.475   8.208
 1251POPC   C3B19341  32.643  40.662   7.782
 1251POPC   C4B19342  32.711  40.800   7.353
 1252POPC   NC319343  43.190  16.810   9.375
 1252POPC   PO419344  43.744  16.689   9.705
 1252POPC   GL119345  43.511  16.449   9.191
 1252POPC   GL219346  43.096  16.407   9.087
 1252POPC   C1A19347  43.419  16.574   8.729
 1252POPC   D2A19348  43.116  16.616   8.413
 1252POPC   C3A19349  43.228  16.658   8.004
 1252POPC   C4A19350  42.997  16.440   7.687
 1252POPC   C1B19351  42.868  16.757   8.821
 1252POPC   C2B19352  42.685  16.912   8.408
 1252POPC   C3B19353  42.731  16.806   7.968
 1252POPC   C4B19354  42.914  16.948   7.560
 1253POPC   NC319355  43.931   9.249   9.407
 1253POPC   PO419356  43.823   9.937   9.656
 1253POPC   GL119357  43.881   9.758   9.236
 1253POPC   GL219358  43.535   9.692   9.216
 1253POPC   C1A19359  43.786   9.657   8.769
 1253POPC   D2A19360  43.580   9.316   8.506
 1253POPC   C3A19361  43.632   9.404   8.046
 1253POPC   C4A19362  43.806   9.726   7.756
 1253POPC   C1B19363  43.583  10.101   8.980
 1253POPC   C2B19364  43.635  10.183   8.539
 1253POPC   C3B19365  43.721  10.126   8.095
 1253POPC   C4B19366  43.567  10.161   7.660
 1254POPC   NC319367  14.297  20.791   9.726
 1254POPC   PO419368  14.158  21.298   9.502
 1254POPC   GL119369  14.255  20.890   9.202
 1254POPC   GL219370  14.276  20.505   9.268
 1254POPC   C1A19371  14.358  20.651   8.774
 1254POPC   D2A19372  14.426  20.622   8.297
 1254POPC   C3A19373  14.249  20.993   8.062
 1254POPC   C4A19374  14.086  21.111   7.649
 1254POPC   C1B19375  14.282  20.154   8.917
 1254POPC   C2B19376  14.229  20.131   8.458
 1254POPC   C3B19377  14.183  20.249   8.017
 1254POPC   C4B19378  14.323  20.133   7.581
 1255POPC   NC319379  27.942  18.215   9.503
 1255POPC   PO419380  27.260  18.443   9.441
 1255POPC   GL119381  27.512  18.335   9.102
 1255POPC   GL219382  27.827  18.536   9.117
 1255POPC   C1A19383  27.569  18.494   8.668
 1255POPC   D2A19384  27.798  18.431   8.305
 1255POPC   C3A19385  27.585  18.397   7.893
 1255POPC   C4A19386  27.611  18.412   7.409
 1255POPC   C1B19387  27.950  18.185   8.830
 1255POPC   C2B19388  27.753  17.921   8.528
 1255POPC   C3B19389  27.767  17.961   8.090
 1255POPC   C4B19390  27.677  17.942   7.664
 1256POPC   NC319391  12.567  10.173   9.588
 1256POPC   PO419392  13.038  10.702   9.450
 1256POPC   GL119393  12.783  10.494   9.133
 1256POPC   GL219394  12.467  10.258   9.101
 1256POPC   C1A19395  12.969  10.660   8.748
 1256POPC   D2A19396  13.290  10.555   8.431
 1256POPC   C3A19397  13.228  10.676   8.003
 1256POPC   C4A19398  12.950  10.881   7.732
 1256POPC   C1B19399  12.710  10.194   8.705
 1256POPC   C2B19400  12.776  10.459   8.325
 1256POPC   C3B19401  12.812  10.386   7.907
 1256POPC   C4B19402  12.456  10.225   7.703
 1257POPC   NC319403  31.138  35.712   9.514
 1257POPC   PO419404  31.805  35.567   9.634
 1257POPC   GL119405  31.693  35.617   9.172
 1257POPC   GL219406  31.344  35.670   9.068
 1257POPC   C1A19407  31.666  35.522   8.736
 1257POPC   D2A19408  31.492  35.643   8.382
 1257POPC   C3A19409  31.578  35.427   8.037
 1257POPC   C4A19410  31.608  35.460   7.609
 1257POPC   C1B19411  31.137  35.440   8.737
 1257POPC   C2B19412  31.000  35.535   8.311
 1257POPC   C3B19413  31.098  35.409   7.871
 1257POPC   C4B19414  31.183  35.185   7.463
 1258POPC   NC319415  32.089  18.563   9.402
 1258POPC   PO419416  32.322  18.021   9.757
 1258POPC   GL119417  32.409  18.209   9.232
 1258POPC   GL219418  32.681  18.450   9.126
 1258POPC   C1A19419  32.213  18.059   8.786
 1258POPC   D2A19420  31.993  17.982   8.356
 1258POPC   C3A19421  32.233  18.051   8.027
 1258POPC   C4A19422  32.136  18.359   7.703
 1258POPC   C1B19423  32.395  18.530   8.799
 1258POPC   C2B19424  32.217  18.449   8.420
 1258POPC   C3B19425  32.493  18.472   8.103
 1258POPC   C4B19426  32.500  18.690   7.759
 1259POPC   NC319427  24.483  14.365   9.779
 1259POPC   PO419428  24.924  14.658   9.343
 1259POPC   GL119429  24.528  14.484   9.159
 1259POPC   GL219430  24.208  14.298   9.182
 1259POPC   C1A19431  24.496  14.350   8.738
 1259POPC   D2A19432  24.541  14.625   8.411
 1259POPC   C3A19433  24.401  14.592   8.019
 1259POPC   C4A19434  24.673  14.802   7.735
 1259POPC   C1B19435  24.003  14.189   8.761
 1259POPC   C2B19436  24.052  14.357   8.346
 1259POPC   C3B19437  24.104  14.123   7.953
 1259POPC   C4B19438  24.128  14.132   7.500
 1260POPC   NC319439  37.088  30.237   9.288
 1260POPC   PO419440  37.652  30.000   9.518
 1260POPC   GL119441  37.618  29.870   9.108
 1260POPC   GL219442  37.390  30.072   8.929
 1260POPC   C1A19443  37.492  29.607   8.786
 1260POPC   D2A19444  37.490  29.836   8.426
 1260POPC   C3A19445  37.434  29.648   8.046
 1260POPC   C4A19446  37.494  29.815   7.647
 1260POPC   C1B19447  37.657  30.271   8.648
 1260POPC   C2B19448  37.810  30.223   8.257
 1260POPC   C3B19449  37.843  30.140   7.850
 1260POPC   C4B19450  37.849  30.095   7.418
 1261POPC   NC319451   0.835  44.538   9.204
 1261POPC   PO419452   0.173  44.452   9.488
 1261POPC   GL119453   0.346  44.764   9.171
 1261POPC   GL219454   0.375  44.453   9.013
 1261POPC   C1A19455   0.489  44.889   8.703
 1261POPC   D2A19456   0.721  44.662   8.344
 1261POPC   C3A19457   0.542  44.622   7.912
 1261POPC   C4A19458   0.218  44.878   7.731
 1261POPC   C1B19459   0.115  44.508   8.699
 1261POPC   C2B19460   0.226  44.440   8.292
 1261POPC   C3B19461   0.029  44.458   7.926
 1261POPC   C4B19462  44.994  44.303   7.495
 1262POPC   NC319463   0.743  18.208   9.288
 1262POPC   PO419464   1.422  17.978   9.505
 1262POPC   GL119465   1.249  18.154   9.188
 1262POPC   GL219466   1.067  17.865   9.135
 1262POPC   C1A19467   1.212  18.274   8.756
 1262POPC   D2A19468   1.213  18.459   8.367
 1262POPC   C3A19469   1.079  18.367   7.967
 1262POPC   C4A19470   1.363  18.374   7.610
 1262POPC   C1B19471   0.878  17.898   8.730
 1262POPC   C2B19472   1.083  17.935   8.341
 1262POPC   C3B19473   0.851  17.858   7.981
 1262POPC   C4B19474   0.981  18.015   7.614
 1263POPC   NC319475  32.390   9.410   9.422
 1263POPC   PO419476  31.971   9.961   9.448
 1263POPC   GL119477  32.092   9.861   9.050
 1263POPC   GL219478  32.441   9.892   9.074
 1263POPC   C1A19479  32.113   9.952   8.608
 1263POPC   D2A19480  32.143   9.655   8.281
 1263POPC   C3A19481  32.118   9.796   7.860
 1263POPC   C4A19482  32.068   9.604   7.430
 1263POPC   C1B19483  32.423   9.552   8.749
 1263POPC   C2B19484  32.575   9.358   8.351
 1263POPC   C3B19485  32.502   9.481   7.939
 1263POPC   C4B19486  32.534   9.736   7.574
 1264POPC   NC319487   4.252   2.145   9.617
 1264POPC   PO419488   4.593   1.559   9.594
 1264POPC   GL119489   4.424   1.862   9.229
 1264POPC   GL219490   4.396   2.246   9.144
 1264POPC   C1A19491   4.525   1.900   8.782
 1264POPC   D2A19492   4.663   1.795   8.370
 1264POPC   C3A19493   4.353   1.906   8.062
 1264POPC   C4A19494   4.378   1.830   7.649
 1264POPC   C1B19495   4.675   2.405   8.831
 1264POPC   C2B19496   4.894   2.242   8.473
 1264POPC   C3B19497   4.785   2.177   8.045
 1264POPC   C4B19498   4.528   2.306   7.737
 1265POPC   NC319499  24.407  35.587   9.520
 1265POPC   PO419500  24.812  35.011   9.571
 1265POPC   GL119501  24.550  35.147   9.219
 1265POPC   GL219502  24.655  35.436   9.075
 1265POPC   C1A19503  24.320  35.091   8.814
 1265POPC   D2A19504  24.534  35.085   8.401
 1265POPC   C3A19505  24.339  35.208   8.026
 1265POPC   C4A19506  24.599  35.467   7.764
 1265POPC   C1B19507  24.442  35.560   8.676
 1265POPC   C2B19508  24.204  35.660   8.282
 1265POPC   C3B19509  24.278  35.869   7.877
 1265POPC   C4B19510  24.399  36.069   7.466
 1266POPC   NC319511  25.376  20.267   9.347
 1266POPC   PO419512  24.847  20.705   9.447
 1266POPC   GL119513  25.143  20.679   9.142
 1266POPC   GL219514  24.988  20.400   9.021
 1266POPC   C1A19515  25.438  20.652   8.763
 1266POPC   D2A19516  25.275  20.593   8.342
 1266POPC   C3A19517  25.403  20.637   7.912
 1266POPC   C4A19518  25.398  20.647   7.451
 1266POPC   C1B19519  24.913  20.120   8.714
 1266POPC   C2B19520  25.063  20.134   8.312
 1266POPC   C3B19521  24.888  20.428   8.034
 1266POPC   C4B19522  25.057  20.337   7.670
 1267POPC   NC319523   8.973  15.024   9.520
 1267POPC   PO419524   8.943  15.604   9.869
 1267POPC   GL119525   9.078  15.511   9.397
 1267POPC   GL219526   8.747  15.416   9.229
 1267POPC   C1A19527   9.201  15.332   8.937
 1267POPC   D2A19528   9.300  15.088   8.517
 1267POPC   C3A19529   9.177  15.194   8.059
 1267POPC   C4A19530   9.274  15.043   7.614
 1267POPC   C1B19531   8.735  15.126   8.868
 1267POPC   C2B19532   8.795  15.192   8.476
 1267POPC   C3B19533   8.643  15.159   8.094
 1267POPC   C4B19534   8.809  14.905   7.775
 1268POPC   NC319535  23.471   9.444   9.448
 1268POPC   PO419536  24.023   9.878   9.552
 1268POPC   GL119537  23.823   9.740   9.188
 1268POPC   GL219538  23.537   9.886   9.173
 1268POPC   C1A19539  23.771   9.570   8.758
 1268POPC   D2A19540  24.047   9.536   8.398
 1268POPC   C3A19541  23.887   9.496   7.981
 1268POPC   C4A19542  23.472   9.482   7.745
 1268POPC   C1B19543  23.673  10.073   8.782
 1268POPC   C2B19544  23.617   9.910   8.367
 1268POPC   C3B19545  23.635   9.918   7.931
 1268POPC   C4B19546  23.758   9.848   7.512
 1269POPC   NC319547  44.169  42.686   9.489
 1269POPC   PO419548  43.626  42.205   9.438
 1269POPC   GL119549  43.941  42.250   9.107
 1269POPC   GL219550  43.933  42.591   9.045
 1269POPC   C1A19551  44.247  42.302   8.755
 1269POPC   D2A19552  44.076  42.508   8.409
 1269POPC   C3A19553  44.193  42.424   7.995
 1269POPC   C4A19554  43.865  42.476   7.666
 1269POPC   C1B19555  43.794  42.866   8.694
 1269POPC   C2B19556  43.556  42.763   8.324
 1269POPC   C3B19557  43.551  42.818   7.878
 1269POPC   C4B19558  43.489  42.734   7.420
 1270POPC   NC319559  31.082  38.027   9.223
 1270POPC   PO419560  31.589  37.777   9.670
 1270POPC   GL119561  31.538  37.767   9.223
 1270POPC   GL219562  31.834  37.953   9.148
 1270POPC   C1A19563  31.640  37.496   8.848
 1270POPC   D2A19564  31.566  37.383   8.421
 1270POPC   C3A19565  31.361  37.633   8.156
 1270POPC   C4A19566  31.673  37.567   7.827
 1270POPC   C1B19567  31.575  38.004   8.770
 1270POPC   C2B19568  31.417  38.141   8.380
 1270POPC   C3B19569  31.595  38.037   7.971
 1270POPC   C4B19570  31.265  37.796   7.623
 1271POPC   NC319571   5.648  42.550   9.404
 1271POPC   PO419572   5.078  42.336   9.548
 1271POPC   GL119573   5.171  42.351   9.152
 1271POPC   GL219574   5.447  42.159   9.104
 1271POPC   C1A19575   4.966  42.060   8.882
 1271POPC   D2A19576   5.066  41.966   8.482
 1271POPC   C3A19577   5.106  42.343   8.267
 1271POPC   C4A19578   4.942  42.336   7.863
 1271POPC   C1B19579   5.457  42.213   8.689
 1271POPC   C2B19580   5.544  41.908   8.344
 1271POPC   C3B19581   5.410  42.066   7.953
 1271POPC   C4B19582   5.477  42.516   7.929
 1272POPC   NC319583  12.308  35.760   9.521
 1272POPC   PO419584  11.853  35.259   9.383
 1272POPC   GL119585  12.093  35.193   9.078
 1272POPC   GL219586  12.212  35.497   9.100
 1272POPC   C1A19587  12.032  35.127   8.674
 1272POPC   D2A19588  12.184  35.220   8.293
 1272POPC   C3A19589  11.889  35.277   7.990
 1272POPC   C4A19590  11.942  35.152   7.578
 1272POPC   C1B19591  11.944  35.633   8.801
 1272POPC   C2B19592  11.853  35.624   8.389
 1272POPC   C3B19593  11.973  35.798   8.010
 1272POPC   C4B19594  11.970  35.663   7.614
 1273POPC   NC319595  40.262  12.168   9.449
 1273POPC   PO419596  39.601  12.230   9.260
 1273POPC   GL119597  39.935  12.213   9.006
 1273POPC   GL219598  40.053  11.890   9.078
 1273POPC   C1A19599  40.039  12.058   8.598
 1273POPC   D2A19600  40.262  11.925   8.251
 1273POPC   C3A19601  40.089  11.970   7.896
 1273POPC   C4A19602  39.999  12.386   7.780
 1273POPC   C1B19603  39.664  11.760   8.829
 1273POPC   C2B19604  39.520  11.992   8.504
 1273POPC   C3B19605  39.655  12.140   8.110
 1273POPC   C4B19606  39.545  12.163   7.674
 1274POPC   NC319607  17.512   1.166   9.616
 1274POPC   PO419608  17.152   1.685   9.459
 1274POPC   GL119609  17.517   1.507   9.172
 1274POPC   GL219610  17.574   1.114   9.096
 1274POPC   C1A19611  17.492   1.416   8.721
 1274POPC   D2A19612  17.233   1.160   8.466
 1274POPC   C3A19613  17.445   1.140   8.115
 1274POPC   C4A19614  17.456   1.311   7.710
 1274POPC   C1B19615  17.805   0.981   8.669
 1274POPC   C2B19616  17.918   0.929   8.205
 1274POPC   C3B19617  17.704   0.857   7.785
 1274POPC   C4B19618  17.246   0.867   7.712
 1275POPC   NC319619  12.415  14.423   9.638
 1275POPC   PO419620  13.053  14.667   9.559
 1275POPC   GL119621  12.895  14.447   9.183
 1275POPC   GL219622  12.585  14.484   9.086
 1275POPC   C1A19623  13.060  14.346   8.768
 1275POPC   D2A19624  13.231  14.120   8.399
 1275POPC   C3A19625  13.047  14.219   7.982
 1275POPC   C4A19626  12.727  14.044   7.676
 1275POPC   C1B19627  12.619  14.593   8.686
 1275POPC   C2B19628  12.701  14.311   8.345
 1275POPC   C3B19629  12.590  14.454   7.930
 1275POPC   C4B19630  12.419  14.875   7.857
 1276POPC   NC319631  17.249  15.599   9.186
 1276POPC   PO419632  17.572  15.951   9.662
 1276POPC   GL119633  17.674  15.883   9.165
 1276POPC   GL219634  18.002  16.022   9.103
 1276POPC   C1A19635  17.651  16.057   8.728
 1276POPC   D2A19636  17.851  16.130   8.317
 1276POPC   C3A19637  17.482  16.130   8.007
 1276POPC   C4A19638  17.474  16.109   7.571
 1276POPC   C1B19639  18.106  15.842   8.685
 1276POPC   C2B19640  18.078  15.667   8.272
 1276POPC   C3B19641  17.885  15.842   7.884
 1276POPC   C4B19642  17.761  15.714   7.448
 1277POPC   NC319643  20.410  35.893   9.490
 1277POPC   PO419644  20.953  36.147   9.565
 1277POPC   GL119645  20.681  36.241   9.197
 1277POPC   GL219646  20.325  36.307   9.111
 1277POPC   C1A19647  20.639  36.108   8.769
 1277POPC   D2A19648  20.798  36.028   8.368
 1277POPC   C3A19649  20.554  35.856   8.052
 1277POPC   C4A19650  20.475  36.033   7.656
 1277POPC   C1B19651  20.267  36.466   8.673
 1277POPC   C2B19652  20.463  36.443   8.228
 1277POPC   C3B19653  20.589  36.503   7.810
 1277POPC   C4B19654  20.364  36.537   7.429
 1278POPC   NC319655   3.901   7.215   9.540
 1278POPC   PO419656   4.148   7.900   9.502
 1278POPC   GL119657   4.335   7.539   9.309
 1278POPC   GL219658   4.046   7.477   9.135
 1278POPC   C1A19659   4.487   7.564   8.879
 1278POPC   D2A19660   4.205   7.628   8.514
 1278POPC   C3A19661   4.397   7.750   8.158
 1278POPC   C4A19662   4.383   7.466   7.846
 1278POPC   C1B19663   4.185   7.177   8.819
 1278POPC   C2B19664   4.394   7.167   8.418
 1278POPC   C3B19665   4.252   6.954   8.108
 1278POPC   C4B19666   4.096   7.023   7.728
 1279POPC   NC319667  39.620  25.834   9.677
 1279POPC   PO419668  39.105  26.200   9.599
 1279POPC   GL119669  39.410  26.165   9.306
 1279POPC   GL219670  39.300  25.864   9.213
 1279POPC   C1A19671  39.298  26.219   8.879
 1279POPC   D2A19672  39.404  26.223   8.470
 1279POPC   C3A19673  39.063  26.104   8.215
 1279POPC   C4A19674  39.024  26.142   7.777
 1279POPC   C1B19675  39.529  25.776   8.889
 1279POPC   C2B19676  39.606  25.738   8.477
 1279POPC   C3B19677  39.523  25.933   8.060
 1279POPC   C4B19678  39.386  25.792   7.659
 1280POPC   NC319679  40.960  42.105   9.496
 1280POPC   PO419680  40.735  42.748   9.586
 1280POPC   GL119681  40.798  42.642   9.128
 1280POPC   GL219682  40.651  42.324   9.159
 1280POPC   C1A19683  40.929  42.416   8.741
 1280POPC   D2A19684  41.002  42.386   8.283
 1280POPC   C3A19685  40.656  42.560   8.077
 1280POPC   C4A19686  40.242  42.535   7.914
 1280POPC   C1B19687  40.658  41.966   8.886
 1280POPC   C2B19688  40.749  41.974   8.479
 1280POPC   C3B19689  40.904  41.916   8.070
 1280POPC   C4B19690  40.862  42.192   7.779
 1281POPC   NC319691  39.259  17.970   9.360
 1281POPC   PO419692  39.429  18.700   9.336
 1281POPC   GL119693  39.436  18.398   9.084
 1281POPC   GL219694  39.074  18.379   9.110
 1281POPC   C1A19695  39.339  18.567   8.685
 1281POPC   D2A19696  39.046  18.501   8.401
 1281POPC   C3A19697  39.227  18.285   8.053
 1281POPC   C4A19698  39.308  18.400   7.629
 1281POPC   C1B19699  39.047  18.112   8.763
 1281POPC   C2B19700  38.900  18.014   8.389
 1281POPC   C3B19701  38.685  18.281   8.112
 1281POPC   C4B19702  38.821  18.265   7.716
 1282POPC   NC319703   3.426  21.544   9.616
 1282POPC   PO419704   3.271  21.022   9.319
 1282POPC   GL119705   3.496  21.334   9.084
 1282POPC   GL219706   3.542  21.713   9.160
 1282POPC   C1A19707   3.433  21.232   8.683
 1282POPC   D2A19708   3.392  20.984   8.351
 1282POPC   C3A19709   3.720  21.142   8.062
 1282POPC   C4A19710   3.804  21.280   7.629
 1282POPC   C1B19711   3.661  21.686   8.757
 1282POPC   C2B19712   3.559  21.575   8.337
 1282POPC   C3B19713   3.708  21.659   7.950
 1282POPC   C4B19714   4.023  21.776   7.665
 1283POPC   NC319715   2.285  13.651   9.463
 1283POPC   PO419716   2.871  13.337   9.646
 1283POPC   GL119717   2.826  13.545   9.215
 1283POPC   GL219718   2.537  13.488   9.065
 1283POPC   C1A19719   2.821  13.753   8.774
 1283POPC   D2A19720   2.903  13.597   8.377
 1283POPC   C3A19721   2.790  13.645   7.939
 1283POPC   C4A19722   2.883  13.877   7.574
 1283POPC   C1B19723   2.356  13.351   8.671
 1283POPC   C2B19724   2.492  13.303   8.255
 1283POPC   C3B19725   2.323  13.462   7.849
 1283POPC   C4B19726   2.366  13.263   7.449
 1284POPC   NC319727  20.510   5.972   9.503
 1284POPC   PO419728  20.992   5.489   9.630
 1284POPC   GL119729  20.801   5.555   9.243
 1284POPC   GL219730  20.921   5.882   9.205
 1284POPC   C1A19731  20.597   5.684   8.821
 1284POPC   D2A19732  20.459   5.509   8.408
 1284POPC   C3A19733  20.556   5.540   7.947
 1284POPC   C4A19734  20.565   5.770   7.549
 1284POPC   C1B19735  20.931   6.094   8.808
 1284POPC   C2B19736  20.698   6.023   8.424
 1284POPC   C3B19737  20.592   6.050   7.995
 1284POPC   C4B19738  20.846   6.253   7.774
 1285POPC   NC319739  39.612  21.139   9.471
 1285POPC   PO419740  40.115  21.591   9.575
 1285POPC   GL119741  39.997  21.382   9.213
 1285POPC   GL219742  39.706  21.548   9.190
 1285POPC   C1A19743  40.231  21.257   8.815
 1285POPC   D2A19744  40.403  21.112   8.409
 1285POPC   C3A19745  40.245  21.240   8.025
 1285POPC   C4A19746  40.112  21.489   7.702
 1285POPC   C1B19747  39.716  21.227   8.827
 1285POPC   C2B19748  39.900  21.308   8.425
 1285POPC   C3B19749  39.732  21.265   8.019
 1285POPC   C4B19750  39.613  21.530   7.692
 1286POPC   NC319751  12.504   2.551   9.567
 1286POPC   PO419752  11.983   2.937   9.482
 1286POPC   GL119753  12.051   2.922   9.050
 1286POPC   GL219754  12.342   2.722   9.114
 1286POPC   C1A19755  11.959   3.005   8.599
 1286POPC   D2A19756  12.020   2.712   8.245
 1286POPC   C3A19757  11.882   2.848   7.824
 1286POPC   C4A19758  11.852   2.934   7.367
 1286POPC   C1B19759  12.290   2.637   8.696
 1286POPC   C2B19760  12.479   2.485   8.325
 1286POPC   C3B19761  12.289   2.413   7.920
 1286POPC   C4B19762  12.182   2.562   7.509
 1287POPC   NC319763  32.521  23.373   9.708
 1287POPC   PO419764  32.207  23.838   9.733
 1287POPC   GL119765  32.284  23.896   9.265
 1287POPC   GL219766  32.437  23.588   9.228
 1287POPC   C1A19767  32.269  23.790   8.772
 1287POPC   D2A19768  32.210  23.562   8.359
 1287POPC   C3A19769  32.272  23.727   7.919
 1287POPC   C4A19770  32.028  23.634   7.540
 1287POPC   C1B19771  32.681  23.422   8.894
 1287POPC   C2B19772  32.639  23.258   8.465
 1287POPC   C3B19773  32.554  23.319   8.038
 1287POPC   C4B19774  32.907  23.465   7.820
 1288POPC   NC319775   8.093   6.131   9.925
 1288POPC   PO419776   8.300   5.788   9.421
 1288POPC   GL119777   8.071   5.836   9.081
 1288POPC   GL219778   7.916   6.154   9.053
 1288POPC   C1A19779   8.269   5.747   8.700
 1288POPC   D2A19780   8.497   5.979   8.412
 1288POPC   C3A19781   8.419   5.784   8.048
 1288POPC   C4A19782   8.088   5.623   7.729
 1288POPC   C1B19783   8.085   6.219   8.645
 1288POPC   C2B19784   8.160   6.310   8.251
 1288POPC   C3B19785   8.107   6.132   7.852
 1288POPC   C4B19786   8.060   6.062   7.407
 1289POPC   NC319787  27.444  31.789   9.595
 1289POPC   PO419788  27.433  31.117   9.516
 1289POPC   GL119789  27.629  31.184   9.123
 1289POPC   GL219790  27.851  30.940   8.976
 1289POPC   C1A19791  27.676  31.418   8.737
 1289POPC   D2A19792  27.796  31.585   8.335
 1289POPC   C3A19793  27.561  31.741   7.981
 1289POPC   C4A19794  27.786  31.981   7.662
 1289POPC   C1B19795  27.450  30.955   8.686
 1289POPC   C2B19796  27.450  31.188   8.277
 1289POPC   C3B19797  27.689  31.248   7.917
 1289POPC   C4B19798  27.681  31.492   7.533
 1290POPC   NC319799  13.788  27.317   9.390
 1290POPC   PO419800  14.450  27.453   9.503
 1290POPC   GL119801  14.421  27.613   9.065
 1290POPC   GL219802  14.154  27.869   9.143
 1290POPC   C1A19803  14.506  27.693   8.619
 1290POPC   D2A19804  14.203  27.473   8.370
 1290POPC   C3A19805  14.270  27.364   7.958
 1290POPC   C4A19806  14.400  27.475   7.537
 1290POPC   C1B19807  14.108  28.008   8.703
 1290POPC   C2B19808  14.232  27.975   8.260
 1290POPC   C3B19809  14.317  27.887   7.832
 1290POPC   C4B19810  14.445  27.977   7.395
 1291POPC   NC319811  16.204  11.520   9.602
 1291POPC   PO419812  16.597  11.037   9.434
 1291POPC   GL119813  16.708  11.372   9.139
 1291POPC   GL219814  17.084  11.493   9.153
 1291POPC   C1A19815  16.536  11.304   8.721
 1291POPC   D2A19816  16.542  10.966   8.381
 1291POPC   C3A19817  16.535  11.150   7.964
 1291POPC   C4A19818  16.460  11.598   7.928
 1291POPC   C1B19819  17.026  11.420   8.711
 1291POPC   C2B19820  16.830  11.393   8.303
 1291POPC   C3B19821  16.960  11.451   7.880
 1291POPC   C4B19822  17.107  11.399   7.484
 1292POPC   NC319823  37.835  11.011   9.999
 1292POPC   PO419824  37.623  10.499   9.542
 1292POPC   GL119825  37.679  10.452   9.146
 1292POPC   GL219826  37.549  10.120   9.147
 1292POPC   C1A19827  37.817  10.477   8.747
 1292POPC   D2A19828  37.657  10.592   8.380
 1292POPC   C3A19829  37.799  10.507   7.963
 1292POPC   C4A19830  37.642  10.703   7.618
 1292POPC   C1B19831  37.267  10.364   8.850
 1292POPC   C2B19832  37.159  10.481   8.414
 1292POPC   C3B19833  37.348  10.313   8.082
 1292POPC   C4B19834  37.269  10.021   7.777
 1293POPC   NC319835   2.372   4.024   9.480
 1293POPC   PO419836   2.984   4.325   9.420
 1293POPC   GL119837   2.638   4.420   9.169
 1293POPC   GL219838   2.593   4.098   9.034
 1293POPC   C1A19839   2.670   4.544   8.754
 1293POPC   D2A19840   2.959   4.450   8.445
 1293POPC   C3A19841   2.801   4.452   8.050
 1293POPC   C4A19842   2.836   4.076   7.838
 1293POPC   C1B19843   2.576   3.884   8.643
 1293POPC   C2B19844   2.473   4.068   8.256
 1293POPC   C3B19845   2.333   3.961   7.845
 1293POPC   C4B19846   2.294   4.245   7.497
 1294POPC   NC319847  13.858   1.614   9.619
 1294POPC   PO419848  13.814   1.003   9.853
 1294POPC   GL119849  13.845   1.170   9.357
 1294POPC   GL219850  14.168   1.140   9.171
 1294POPC   C1A19851  13.717   1.353   8.899
 1294POPC   D2A19852  13.918   1.417   8.475
 1294POPC   C3A19853  13.631   1.343   8.111
 1294POPC   C4A19854  13.537   1.258   7.668
 1294POPC   C1B19855  14.039   0.985   8.751
 1294POPC   C2B19856  13.980   0.904   8.299
 1294POPC   C3B19857  13.954   1.045   7.858
 1294POPC   C4B19858  13.793   0.864   7.479
 1295POPC   NC319859  41.297  32.226   9.486
 1295POPC   PO419860  42.061  32.190   9.442
 1295POPC   GL119861  41.731  32.116   9.192
 1295POPC   GL219862  41.657  32.470   9.198
 1295POPC   C1A19863  41.464  31.970   8.848
 1295POPC   D2A19864  41.232  31.864   8.465
 1295POPC   C3A19865  41.312  32.124   8.107
 1295POPC   C4A19866  41.432  32.160   7.667
 1295POPC   C1B19867  41.442  32.493   8.790
 1295POPC   C2B19868  41.641  32.457   8.372
 1295POPC   C3B19869  41.511  32.595   7.960
 1295POPC   C4B19870  41.358  32.649   7.526
 1296POPC   NC319871  14.335  24.877   9.344
 1296POPC   PO419872  14.073  25.508   9.441
 1296POPC   GL119873  14.166  25.270   9.097
 1296POPC   GL219874  14.409  25.490   9.008
 1296POPC   C1A19875  14.327  25.058   8.734
 1296POPC   D2A19876  14.318  25.348   8.399
 1296POPC   C3A19877  14.257  25.245   7.974
 1296POPC   C4A19878  14.555  25.372   7.671
 1296POPC   C1B19879  14.733  25.360   8.713
 1296POPC   C2B19880  14.782  25.041   8.472
 1296POPC   C3B19881  14.767  25.173   8.102
 1296POPC   C4B19882  14.857  24.983   7.769
 1297POPC   NC319883  18.242  38.144   9.364
 1297POPC   PO419884  18.528  38.721   9.495
 1297POPC   GL119885  18.353  38.793   9.105
 1297POPC   GL219886  18.036  38.666   9.177
 1297POPC   C1A19887  18.524  38.618   8.743
 1297POPC   D2A19888  18.498  38.175   8.605
 1297POPC   C3A19889  18.523  38.244   8.207
 1297POPC   C4A19890  18.618  38.463   7.826
 1297POPC   C1B19891  18.080  38.403   8.801
 1297POPC   C2B19892  17.994  38.276   8.360
 1297POPC   C3B19893  18.094  38.368   7.935
 1297POPC   C4B19894  18.179  38.626   7.592
 1298POPC   NC319895  30.012   8.942   9.395
 1298POPC   PO419896  29.424   8.538   9.370
 1298POPC   GL119897  29.580   8.858   9.109
 1298POPC   GL219898  29.853   8.696   8.932
 1298POPC   C1A19899  29.714   9.168   8.797
 1298POPC   D2A19900  29.938   8.979   8.480
 1298POPC   C3A19901  29.800   9.007   8.095
 1298POPC   C4A19902  29.940   8.757   7.776
 1298POPC   C1B19903  30.297   8.823   8.813
 1298POPC   C2B19904  30.460   8.992   8.486
 1298POPC   C3B19905  30.291   9.181   8.139
 1298POPC   C4B19906  30.401   9.005   7.768
 1299POPC   NC319907  42.261  44.852   9.400
 1299POPC   PO419908  42.667  44.371   9.311
 1299POPC   GL119909  42.520  44.431   8.964
 1299POPC   GL219910  42.403  44.753   8.925
 1299POPC   C1A19911  42.310  44.337   8.609
 1299POPC   D2A19912  42.387  44.666   8.354
 1299POPC   C3A19913  42.270  44.583   7.933
 1299POPC   C4A19914  42.249  44.894   7.598
 1299POPC   C1B19915  42.588   0.087   8.770
 1299POPC   C2B19916  42.726   0.090   8.404
 1299POPC   C3B19917  42.533   0.034   8.038
 1299POPC   C4B19918  42.706   0.086   7.703
 1300POPC   NC319919  14.593  41.249   9.336
 1300POPC   PO419920  15.127  41.778   9.537
 1300POPC   GL119921  15.147  41.642   9.141
 1300POPC   GL219922  15.151  42.008   9.077
 1300POPC   C1A19923  15.049  41.363   8.775
 1300POPC   D2A19924  15.133  41.444   8.349
 1300POPC   C3A19925  14.964  41.486   7.932
 1300POPC   C4A19926  15.335  41.536   7.681
 1300POPC   C1B19927  15.077  41.875   8.679
 1300POPC   C2B19928  15.356  41.900   8.348
 1300POPC   C3B19929  15.113  41.979   7.999
 1300POPC   C4B19930  15.003  41.889   7.563
 1301POPC   NC319931   0.731  43.198   9.714
 1301POPC   PO419932   0.238  42.873   9.399
 1301POPC   GL119933   0.364  42.890   8.990
 1301POPC   GL219934   0.685  43.015   9.077
 1301POPC   C1A19935   0.208  43.003   8.572
 1301POPC   D2A19936   0.094  42.740   8.245
 1301POPC   C3A19937   0.357  42.846   7.898
 1301POPC   C4A19938   0.215  43.012   7.487
 1301POPC   C1B19939   0.688  43.127   8.637
 1301POPC   C2B19940   0.517  43.216   8.217
 1301POPC   C3B19941   0.682  43.207   7.777
 1301POPC   C4B19942   0.942  43.258   7.439
 1302POPC   NC319943  42.169  39.497   9.632
 1302POPC   PO419944  42.516  38.991   9.351
 1302POPC   GL119945  42.230  39.107   9.058
 1302POPC   GL219946  42.106  39.452   9.126
 1302POPC   C1A19947  42.276  39.208   8.640
 1302POPC   D2A19948  42.618  39.497   8.533
 1302POPC   C3A19949  42.625  39.578   8.069
 1302POPC   C4A19950  42.632  39.382   7.619
 1302POPC   C1B19951  42.007  39.631   8.746
 1302POPC   C2B19952  42.151  39.579   8.316
 1302POPC   C3B19953  42.230  39.251   8.031
 1302POPC   C4B19954  42.145  39.553   7.716
 1303POPC   NC319955  35.730  26.791   9.361
 1303POPC   PO419956  36.409  26.567   9.454
 1303POPC   GL119957  36.181  26.699   9.101
 1303POPC   GL219958  36.022  27.016   9.023
 1303POPC   C1A19959  36.333  26.807   8.675
 1303POPC   D2A19960  36.366  26.944   8.247
 1303POPC   C3A19961  36.118  26.712   7.950
 1303POPC   C4A19962  36.063  26.295   7.845
 1303POPC   C1B19963  35.846  26.686   8.719
 1303POPC   C2B19964  35.763  26.734   8.324
 1303POPC   C3B19965  35.871  27.100   8.227
 1303POPC   C4B19966  36.119  27.232   7.894
 1304POPC   NC319967  10.752  24.374   9.579
 1304POPC   PO419968  10.350  24.937   9.392
 1304POPC   GL119969  10.676  24.682   9.183
 1304POPC   GL219970  10.618  24.315   9.108
 1304POPC   C1A19971  10.760  24.654   8.756
 1304POPC   D2A19972  10.506  24.530   8.424
 1304POPC   C3A19973  10.495  24.687   8.010
 1304POPC   C4A19974  10.095  24.757   7.862
 1304POPC   C1B19975  10.358  24.181   8.763
 1304POPC   C2B19976  10.447  24.030   8.361
 1304POPC   C3B19977  10.623  24.191   7.982
 1304POPC   C4B19978  10.721  24.103   7.532
 1305POPC   NC319979  20.348  21.524   9.517
 1305POPC   PO419980  20.916  21.304   9.470
 1305POPC   GL119981  20.862  21.284   9.056
 1305POPC   GL219982  20.527  21.369   9.066
 1305POPC   C1A19983  20.826  21.404   8.609
 1305POPC   D2A19984  20.605  21.261   8.223
 1305POPC   C3A19985  20.772  21.273   7.808
 1305POPC   C4A19986  20.937  21.375   7.346
 1305POPC   C1B19987  20.277  21.288   8.698
 1305POPC   C2B19988  20.104  21.225   8.278
 1305POPC   C3B19989  20.205  21.326   7.846
 1305POPC   C4B19990  20.027  21.107   7.508
 1306POPC   NC319991  12.115   9.287   9.484
 1306POPC   PO419992  11.866   8.634   9.532
 1306POPC   GL119993  12.038   8.905   9.167
 1306POPC   GL219994  11.809   9.210   9.066
 1306POPC   C1A19995  12.266   9.046   8.786
 1306POPC   D2A19996  12.357   8.854   8.378
 1306POPC   C3A19997  12.253   9.077   7.982
 1306POPC   C4A19998  12.027   9.411   7.820
 1306POPC   C1B19999  11.756   8.877   8.735
 1306POPC   C2B20000  11.865   8.881   8.290
 1306POPC   C3B20001  11.728   8.993   7.874
 1306POPC   C4B20002  11.932   8.995   7.476
 1307POPC   NC320003  25.659   2.310   9.489
 1307POPC   PO420004  25.175   1.910   9.579
 1307POPC   GL120005  25.191   1.940   9.159
 1307POPC   GL220006  25.335   2.255   9.101
 1307POPC   C1A20007  25.147   1.762   8.770
 1307POPC   D2A20008  25.312   1.674   8.373
 1307POPC   C3A20009  25.077   1.851   8.047
 1307POPC   C4A20010  25.200   1.784   7.610
 1307POPC   C1B20011  25.477   2.362   8.698
 1307POPC   C2B20012  25.403   2.167   8.289
 1307POPC   C3B20013  25.379   2.216   7.814
 1307POPC   C4B20014  25.517   2.186   7.336
 1308POPC   NC320015  19.553   5.803   9.206
 1308POPC   PO420016  20.063   5.855   9.578
 1308POPC   GL120017  20.013   6.034   9.198
 1308POPC   GL220018  20.033   5.698   9.000
 1308POPC   C1A20019  19.916   6.144   8.782
 1308POPC   D2A20020  20.210   5.971   8.534
 1308POPC   C3A20021  20.146   5.858   8.135
 1308POPC   C4A20022  20.058   6.114   7.772
 1308POPC   C1B20023  19.746   5.704   8.622
 1308POPC   C2B20024  19.653   5.898   8.278
 1308POPC   C3B20025  19.704   5.729   7.901
 1308POPC   C4B20026  20.087   5.590   7.695
 1309POPC   NC320027  13.701  42.092   9.231
 1309POPC   PO420028  13.456  41.534   9.590
 1309POPC   GL120029  13.611  41.573   9.177
 1309POPC   GL220030  13.954  41.590   9.115
 1309POPC   C1A20031  13.462  41.511   8.759
 1309POPC   D2A20032  13.520  41.269   8.403
 1309POPC   C3A20033  13.602  41.483   8.035
 1309POPC   C4A20034  13.345  41.652   7.702
 1309POPC   C1B20035  13.917  41.755   8.708
 1309POPC   C2B20036  13.637  41.876   8.382
 1309POPC   C3B20037  13.656  41.972   7.945
 1309POPC   C4B20038  13.961  41.730   7.715
 1310POPC   NC320039  27.565   2.945   9.770
 1310POPC   PO420040  27.771   2.505   9.400
 1310POPC   GL120041  27.445   2.815   9.250
 1310POPC   GL220042  27.626   2.804   8.994
 1310POPC   C1A20043  27.158   2.837   8.845
 1310POPC   D2A20044  27.382   2.788   8.459
 1310POPC   C3A20045  27.234   2.788   8.049
 1310POPC   C4A20046  27.393   2.613   7.668
 1310POPC   C1B20047  27.932   2.975   8.756
 1310POPC   C2B20048  27.910   2.818   8.383
 1310POPC   C3B20049  27.703   2.977   8.040
 1310POPC   C4B20050  27.808   3.026   7.624
 1311POPC   NC320051  37.527  39.029   9.369
 1311POPC   PO420052  37.647  38.306   9.435
 1311POPC   GL120053  37.878  38.271   9.069
 1311POPC   GL220054  37.973  38.601   8.976
 1311POPC   C1A20055  37.815  38.111   8.682
 1311POPC   D2A20056  37.916  38.366   8.376
 1311POPC   C3A20057  37.885  38.178   7.990
 1311POPC   C4A20058  37.913  38.460   7.625
 1311POPC   C1B20059  37.536  38.548   8.816
 1311POPC   C2B20060  37.403  38.434   8.422
 1311POPC   C3B20061  37.547  38.587   8.026
 1311POPC   C4B20062  37.385  38.535   7.624
 1312POPC   NC320063   3.843  19.497   9.422
 1312POPC   PO420064   3.839  18.847   9.426
 1312POPC   GL120065   3.506  18.880   9.047
 1312POPC   GL220066   3.292  18.585   8.979
 1312POPC   C1A20067   3.354  18.996   8.641
 1312POPC   D2A20068   3.662  19.034   8.332
 1312POPC   C3A20069   3.634  19.120   7.893
 1312POPC   C4A20070   3.352  19.426   7.761
 1312POPC   C1B20071   3.394  18.476   8.565
 1312POPC   C2B20072   3.291  18.677   8.221
 1312POPC   C3B20073   3.143  18.948   7.932
 1312POPC   C4B20074   3.267  19.004   7.508
 1313POPC   NC320075  14.874   5.597   9.435
 1313POPC   PO420076  15.106   6.197   9.500
 1313POPC   GL120077  15.284   6.009   9.128
 1313POPC   GL220078  15.294   5.685   9.124
 1313POPC   C1A20079  15.176   5.884   8.684
 1313POPC   D2A20080  15.003   5.804   8.304
 1313POPC   C3A20081  15.109   6.076   7.967
 1313POPC   C4A20082  15.172   5.782   7.668
 1313POPC   C1B20083  15.444   5.438   8.790
 1313POPC   C2B20084  15.318   5.372   8.365
 1313POPC   C3B20085  15.267   5.350   7.925
 1313POPC   C4B20086  15.610   5.477   7.658
 1314POPC   NC320087  41.619  40.492   9.561
 1314POPC   PO420088  41.160  41.002   9.507
 1314POPC   GL120089  41.446  40.836   9.211
 1314POPC   GL220090  41.243  40.533   9.165
 1314POPC   C1A20091  41.755  40.872   8.854
 1314POPC   D2A20092  41.825  41.167   8.505
 1314POPC   C3A20093  41.920  41.006   8.082
 1314POPC   C4A20094  41.681  40.840   7.739
 1314POPC   C1B20095  41.290  40.704   8.749
 1314POPC   C2B20096  41.503  40.742   8.379
 1314POPC   C3B20097  41.222  40.834   8.073
 1314POPC   C4B20098  41.149  40.671   7.723
 1315POPC   NC320099  43.201   3.100   9.889
 1315POPC   PO420100  42.886   3.486   9.459
 1315POPC   GL120101  42.899   3.626   9.061
 1315POPC   GL220102  43.230   3.475   9.074
 1315POPC   C1A20103  43.059   3.685   8.649
 1315POPC   D2A20104  43.196   3.508   8.270
 1315POPC   C3A20105  42.846   3.536   8.002
 1315POPC   C4A20106  42.856   3.723   7.606
 1315POPC   C1B20107  43.356   3.255   8.701
 1315POPC   C2B20108  43.498   3.089   8.321
 1315POPC   C3B20109  43.467   3.202   7.910
 1315POPC   C4B20110  43.301   3.531   7.756
 1316POPC   NC320111  29.053   8.738   9.198
 1316POPC   PO420112  28.683   9.179   9.571
 1316POPC   GL120113  28.841   9.211   9.114
 1316POPC   GL220114  29.217   9.198   9.018
 1316POPC   C1A20115  28.801   9.071   8.669
 1316POPC   D2A20116  28.583   9.153   8.278
 1316POPC   C3A20117  28.920   9.166   8.026
 1316POPC   C4A20118  28.936   8.784   7.840
 1316POPC   C1B20119  29.304   8.921   8.637
 1316POPC   C2B20120  29.316   8.873   8.201
 1316POPC   C3B20121  29.433   8.817   7.768
 1316POPC   C4B20122  29.583   8.929   7.387
 1317POPC   NC320123  40.264  16.404   9.390
 1317POPC   PO420124  40.722  16.962   9.539
 1317POPC   GL120125  40.700  16.924   9.117
 1317POPC   GL220126  41.002  17.118   9.096
 1317POPC   C1A20127  40.531  16.778   8.701
 1317POPC   D2A20128  40.649  16.539   8.331
 1317POPC   C3A20129  40.707  16.740   7.942
 1317POPC   C4A20130  40.975  16.831   7.595
 1317POPC   C1B20131  41.025  16.932   8.696
 1317POPC   C2B20132  40.787  17.074   8.327
 1317POPC   C3B20133  40.928  17.219   7.903
 1317POPC   C4B20134  41.008  17.297   7.418
 1318POPC   NC320135  26.372   0.189   9.299
 1318POPC   PO420136  25.968   0.687   9.449
 1318POPC   GL120137  25.779   0.452   9.075
 1318POPC   GL220138  25.929   0.123   9.041
 1318POPC   C1A20139  25.799   0.435   8.598
 1318POPC   D2A20140  25.793   0.720   8.226
 1318POPC   C3A20141  26.095   0.585   7.941
 1318POPC   C4A20142  26.082   0.269   7.661
 1318POPC   C1B20143  26.192   0.082   8.674
 1318POPC   C2B20144  26.133   0.203   8.273
 1318POPC   C3B20145  25.755   0.210   8.042
 1318POPC   C4B20146  25.674  44.969   7.628
 1319POPC   NC320147  28.771  21.219   9.589
 1319POPC   PO420148  29.438  21.385   9.545
 1319POPC   GL120149  29.115  21.400   9.227
 1319POPC   GL220150  29.004  21.058   9.176
 1319POPC   C1A20151  28.995  21.398   8.795
 1319POPC   D2A20152  29.190  21.294   8.419
 1319POPC   C3A20153  29.075  21.502   8.038
 1319POPC   C4A20154  29.339  21.696   7.739
 1319POPC   C1B20155  29.337  20.979   8.849
 1319POPC   C2B20156  29.273  20.806   8.416
 1319POPC   C3B20157  29.333  21.034   7.995
 1319POPC   C4B20158  29.187  21.178   7.588
 1320POPC   NC320159  39.130  35.142   9.468
 1320POPC   PO420160  39.621  35.604   9.564
 1320POPC   GL120161  39.445  35.419   9.180
 1320POPC   GL220162  39.111  35.559   9.130
 1320POPC   C1A20163  39.341  35.215   8.761
 1320POPC   D2A20164  39.385  35.433   8.332
 1320POPC   C3A20165  39.275  35.274   7.913
 1320POPC   C4A20166  39.288  35.443   7.488
 1320POPC   C1B20167  38.966  35.568   8.700
 1320POPC   C2B20168  38.909  35.237   8.403
 1320POPC   C3B20169  38.808  35.376   8.015
 1320POPC   C4B20170  38.852  35.165   7.605
 1321POPC   NC320171  10.344  15.392   9.521
 1321POPC   PO420172  10.756  14.893   9.495
 1321POPC   GL120173  10.689  15.237   9.187
 1321POPC   GL220174  10.351  15.092   9.090
 1321POPC   C1A20175  10.584  15.397   8.754
 1321POPC   D2A20176  10.410  15.315   8.337
 1321POPC   C3A20177  10.645  15.364   7.941
 1321POPC   C4A20178  10.422  15.401   7.527
 1321POPC   C1B20179  10.670  14.834   8.830
 1321POPC   C2B20180  10.736  14.643   8.426
 1321POPC   C3B20181  10.564  14.875   8.098
 1321POPC   C4B20182  10.407  14.950   7.730
 1322POPC   NC320183  42.461  19.686   9.420
 1322POPC   PO420184  41.975  20.192   9.455
 1322POPC   GL120185  42.160  19.959   9.103
 1322POPC   GL220186  42.252  19.594   8.979
 1322POPC   C1A20187  42.189  20.019   8.674
 1322POPC   D2A20188  42.200  19.796   8.290
 1322POPC   C3A20189  42.206  20.112   7.979
 1322POPC   C4A20190  42.006  20.131   7.562
 1322POPC   C1B20191  42.628  19.769   8.764
 1322POPC   C2B20192  42.697  19.949   8.341
 1322POPC   C3B20193  42.559  19.762   7.910
 1322POPC   C4B20194  42.119  19.636   7.739
 1323POPC   NC320195  38.098  22.299   9.317
 1323POPC   PO420196  38.667  22.006   9.291
 1323POPC   GL120197  38.494  22.252   8.999
 1323POPC   GL220198  38.758  22.301   8.800
 1323POPC   C1A20199  38.260  22.258   8.601
 1323POPC   D2A20200  38.351  22.500   8.246
 1323POPC   C3A20201  38.175  22.401   7.865
 1323POPC   C4A20202  38.031  22.008   7.715
 1323POPC   C1B20203  38.561  21.860   8.651
 1323POPC   C2B20204  38.325  21.841   8.261
 1323POPC   C3B20205  38.500  22.005   7.921
 1323POPC   C4B20206  38.686  21.814   7.576
 1324POPC   NC320207  39.483  31.616   9.319
 1324POPC   PO420208  40.213  31.636   9.392
 1324POPC   GL120209  40.191  31.478   9.016
 1324POPC   GL220210  39.855  31.402   9.030
 1324POPC   C1A20211  40.056  31.664   8.633
 1324POPC   D2A20212  40.229  31.914   8.287
 1324POPC   C3A20213  40.304  31.676   7.905
 1324POPC   C4A20214  40.194  31.252   7.698
 1324POPC   C1B20215  39.570  31.405   8.674
 1324POPC   C2B20216  39.649  31.406   8.254
 1324POPC   C3B20217  39.545  31.179   7.917
 1324POPC   C4B20218  39.702  31.387   7.591
 1325POPC   NC320219  13.020   8.669   9.388
 1325POPC   PO420220  12.507   9.046   9.490
 1325POPC   GL120221  12.564   8.782   9.162
 1325POPC   GL220222  12.858   9.026   9.053
 1325POPC   C1A20223  12.662   8.690   8.751
 1325POPC   D2A20224  12.852   8.943   8.466
 1325POPC   C3A20225  12.737   8.915   8.058
 1325POPC   C4A20226  12.724   8.963   7.637
 1325POPC   C1B20227  13.195   9.178   8.731
 1325POPC   C2B20228  13.304   9.027   8.258
 1325POPC   C3B20229  13.139   9.187   7.880
 1325POPC   C4B20230  13.188   9.096   7.435
 1326POPC   NC320231  20.848   5.031   9.583
 1326POPC   PO420232  20.209   4.867   9.624
 1326POPC   GL120233  20.468   4.740   9.216
 1326POPC   GL220234  20.661   5.048   9.115
 1326POPC   C1A20235  20.556   4.731   8.733
 1326POPC   D2A20236  20.371   4.980   8.397
 1326POPC   C3A20237  20.515   5.031   7.965
 1326POPC   C4A20238  20.830   4.911   7.659
 1326POPC   C1B20239  20.796   5.203   8.721
 1326POPC   C2B20240  20.863   5.194   8.292
 1326POPC   C3B20241  21.030   5.297   7.903
 1326POPC   C4B20242  20.912   5.383   7.471
 1327POPC   NC320243  32.256  39.645   9.311
 1327POPC   PO420244  32.520  40.356   9.356
 1327POPC   GL120245  32.439  40.048   9.059
 1327POPC   GL220246  32.099  40.067   9.014
 1327POPC   C1A20247  32.392  39.762   8.682
 1327POPC   D2A20248  32.507  39.528   8.342
 1327POPC   C3A20249  32.512  39.688   7.918
 1327POPC   C4A20250  32.307  39.537   7.555
 1327POPC   C1B20251  32.244  40.249   8.610
 1327POPC   C2B20252  32.274  40.076   8.199
 1327POPC   C3B20253  32.441  40.184   7.787
 1327POPC   C4B20254  32.349  40.396   7.386
 1328POPC   NC320255  43.547  42.690   9.420
 1328POPC   PO420256  42.828  42.623   9.434
 1328POPC   GL120257  42.984  42.648   9.016
 1328POPC   GL220258  43.280  42.430   9.051
 1328POPC   C1A20259  43.125  42.567   8.568
 1328POPC   D2A20260  43.126  42.182   8.280
 1328POPC   C3A20261  42.944  42.312   7.874
 1328POPC   C4A20262  43.065  42.716   7.762
 1328POPC   C1B20263  43.603  42.368   8.713
 1328POPC   C2B20264  43.644  42.241   8.278
 1328POPC   C3B20265  43.444  42.310   7.876
 1328POPC   C4B20266  43.444  42.225   7.423
 1329POPC   NC320267   9.952  22.190   9.567
 1329POPC   PO420268   9.335  22.136   9.662
 1329POPC   GL120269   9.543  22.034   9.231
 1329POPC   GL220270   9.923  21.947   9.098
 1329POPC   C1A20271   9.572  22.230   8.812
 1329POPC   D2A20272   9.872  22.390   8.490
 1329POPC   C3A20273  10.026  22.226   8.147
 1329POPC   C4A20274  10.005  22.420   7.771
 1329POPC   C1B20275   9.891  21.875   8.630
 1329POPC   C2B20276   9.557  22.035   8.329
 1329POPC   C3B20277   9.616  22.030   7.902
 1329POPC   C4B20278   9.633  22.177   7.517
 1330POPC   NC320279   2.195  31.777   9.430
 1330POPC   PO420280   1.556  31.496   9.431
 1330POPC   GL120281   1.886  31.493   9.157
 1330POPC   GL220282   2.064  31.177   9.100
 1330POPC   C1A20283   1.873  31.773   8.805
 1330POPC   D2A20284   1.622  31.737   8.420
 1330POPC   C3A20285   1.721  31.603   7.989
 1330POPC   C4A20286   1.618  31.588   7.531
 1330POPC   C1B20287   1.815  31.276   8.720
 1330POPC   C2B20288   2.074  31.506   8.403
 1330POPC   C3B20289   2.225  31.377   8.021
 1330POPC   C4B20290   2.100  31.499   7.638
 1331POPC   NC320291  11.059   6.172   9.625
 1331POPC   PO420292  11.051   5.547   9.376
 1331POPC   GL120293  11.353   5.785   9.119
 1331POPC   GL220294  11.417   6.158   9.129
 1331POPC   C1A20295  11.430   5.848   8.682
 1331POPC   D2A20296  11.533   6.096   8.340
 1331POPC   C3A20297  11.398   5.809   8.068
 1331POPC   C4A20298  11.321   5.615   7.712
 1331POPC   C1B20299  11.103   6.231   8.759
 1331POPC   C2B20300  11.018   6.084   8.351
 1331POPC   C3B20301  11.148   6.236   7.965
 1331POPC   C4B20302  11.468   6.139   7.683
 1332POPC   NC320303  40.554   1.338   9.480
 1332POPC   PO420304  41.062   0.960   9.449
 1332POPC   GL120305  40.915   1.232   9.098
 1332POPC   GL220306  40.565   1.121   8.996
 1332POPC   C1A20307  41.001   1.502   8.716
 1332POPC   D2A20308  41.166   1.388   8.293
 1332POPC   C3A20309  41.014   1.360   7.843
 1332POPC   C4A20310  41.110   1.572   7.431
 1332POPC   C1B20311  40.793   1.057   8.604
 1332POPC   C2B20312  40.679   1.127   8.184
 1332POPC   C3B20313  40.436   0.862   7.887
 1332POPC   C4B20314  40.550   1.080   7.547
 1333POPC   NC320315  22.385  35.064   9.394
 1333POPC   PO420316  22.426  35.742   9.460
 1333POPC   GL120317  22.209  35.489   9.163
 1333POPC   GL220318  21.883  35.634   9.128
 1333POPC   C1A20319  21.981  35.208   8.858
 1333POPC   D2A20320  21.933  35.136   8.420
 1333POPC   C3A20321  22.290  35.026   8.184
 1333POPC   C4A20322  22.246  35.150   7.795
 1333POPC   C1B20323  22.049  35.707   8.722
 1333POPC   C2B20324  22.242  35.681   8.361
 1333POPC   C3B20325  22.066  35.586   7.986
 1333POPC   C4B20326  21.928  35.501   7.568
 1334POPC   NC320327  29.571  40.261   9.250
 1334POPC   PO420328  30.109  39.893   9.589
 1334POPC   GL120329  30.028  40.020   9.189
 1334POPC   GL220330  29.905  39.766   8.995
 1334POPC   C1A20331  30.218  40.197   8.826
 1334POPC   D2A20332  30.311  40.054   8.432
 1334POPC   C3A20333  29.948  39.969   8.167
 1334POPC   C4A20334  29.948  39.919   7.729
 1334POPC   C1B20335  29.752  40.021   8.666
 1334POPC   C2B20336  29.474  39.913   8.362
 1334POPC   C3B20337  29.515  39.696   8.015
 1334POPC   C4B20338  29.464  39.844   7.634
 1335POPC   NC320339  28.848  19.765   9.631
 1335POPC   PO420340  29.452  19.678   9.521
 1335POPC   GL120341  29.291  19.865   9.188
 1335POPC   GL220342  28.932  19.896   9.139
 1335POPC   C1A20343  29.288  19.792   8.758
 1335POPC   D2A20344  29.254  20.001   8.385
 1335POPC   C3A20345  29.170  19.708   8.117
 1335POPC   C4A20346  29.285  19.498   7.782
 1335POPC   C1B20347  28.920  20.161   8.766
 1335POPC   C2B20348  28.894  20.402   8.380
 1335POPC   C3B20349  28.862  20.171   7.991
 1335POPC   C4B20350  28.873  19.825   7.725
 1336POPC   NC320351  18.367   8.688   9.585
 1336POPC   PO420352  18.064   8.091   9.709
 1336POPC   GL120353  18.229   8.255   9.291
 1336POPC   GL220354  18.201   7.940   9.128
 1336POPC   C1A20355  18.256   8.300   8.800
 1336POPC   D2A20356  18.066   8.226   8.382
 1336POPC   C3A20357  18.330   8.100   8.020
 1336POPC   C4A20358  18.396   8.371   7.608
 1336POPC   C1B20359  18.044   7.727   8.760
 1336POPC   C2B20360  18.116   7.717   8.313
 1336POPC   C3B20361  17.966   7.792   7.873
 1336POPC   C4B20362  17.978   8.093   7.527
 1337POPC   NC320363  21.449   2.175   9.613
 1337POPC   PO420364  21.078   1.595   9.554
 1337POPC   GL120365  21.188   1.928   9.247
 1337POPC   GL220366  21.565   1.871   9.176
 1337POPC   C1A20367  21.269   1.985   8.808
 1337POPC   D2A20368  21.277   1.825   8.408
 1337POPC   C3A20369  21.436   2.133   8.113
 1337POPC   C4A20370  21.235   2.182   7.713
 1337POPC   C1B20371  21.652   1.653   8.733
 1337POPC   C2B20372  21.777   1.749   8.283
 1337POPC   C3B20373  21.842   1.613   7.821
 1337POPC   C4B20374  21.718   1.694   7.379
 1338POPC   NC320375  33.191   9.998   9.537
 1338POPC   PO420376  32.838   9.462   9.507
 1338POPC   GL120377  32.979   9.676   9.161
 1338POPC   GL220378  33.274   9.449   9.142
 1338POPC   C1A20379  32.849   9.925   8.774
 1338POPC   D2A20380  32.622   9.874   8.379
 1338POPC   C3A20381  32.840   9.863   7.978
 1338POPC   C4A20382  32.888  10.074   7.581
 1338POPC   C1B20383  33.367   9.742   8.800
 1338POPC   C2B20384  33.248  10.013   8.458
 1338POPC   C3B20385  33.361   9.928   8.050
 1338POPC   C4B20386  33.280   9.719   7.702
 1339POPC   NC320387  10.671  17.844   9.257
 1339POPC   PO420388  10.355  17.309   9.546
 1339POPC   GL120389  10.447  17.399   9.163
 1339POPC   GL220390  10.199  17.686   9.133
 1339POPC   C1A20391  10.793  17.331   8.815
 1339POPC   D2A20392  11.014  17.406   8.379
 1339POPC   C3A20393  10.803  17.467   7.962
 1339POPC   C4A20394  10.391  17.391   7.787
 1339POPC   C1B20395  10.351  17.549   8.698
 1339POPC   C2B20396  10.430  17.669   8.298
 1339POPC   C3B20397  10.154  17.941   8.118
 1339POPC   C4B20398  10.144  17.833   7.705
 1340POPC   NC320399  36.151  16.096   9.539
 1340POPC   PO420400  35.564  16.006   9.788
 1340POPC   GL120401  35.760  15.913   9.276
 1340POPC   GL220402  35.857  16.205   9.050
 1340POPC   C1A20403  35.978  15.764   8.852
 1340POPC   D2A20404  35.887  15.961   8.448
 1340POPC   C3A20405  36.020  15.837   8.043
 1340POPC   C4A20406  35.859  15.650   7.682
 1340POPC   C1B20407  36.208  16.268   8.722
 1340POPC   C2B20408  36.384  16.053   8.335
 1340POPC   C3B20409  36.433  16.175   7.869
 1340POPC   C4B20410  36.369  16.187   7.397
 1341POPC   NC320411  23.619  13.866   9.736
 1341POPC   PO420412  23.988  13.365   9.402
 1341POPC   GL120413  23.733  13.494   9.011
 1341POPC   GL220414  24.011  13.655   8.799
 1341POPC   C1A20415  23.532  13.827   8.763
 1341POPC   D2A20416  23.670  14.009   8.396
 1341POPC   C3A20417  23.544  13.825   8.023
 1341POPC   C4A20418  23.367  13.720   7.622
 1341POPC   C1B20419  23.981  13.221   8.668
 1341POPC   C2B20420  24.029  13.201   8.265
 1341POPC   C3B20421  24.033  13.601   8.072
 1341POPC   C4B20422  23.924  13.692   7.671
 1342POPC   NC320423   2.707  11.010   9.452
 1342POPC   PO420424   3.168  11.604   9.440
 1342POPC   GL120425   2.990  11.319   9.156
 1342POPC   GL220426   2.646  11.338   9.067
 1342POPC   C1A20427   3.041  11.185   8.751
 1342POPC   D2A20428   3.139  11.408   8.399
 1342POPC   C3A20429   2.904  11.375   8.078
 1342POPC   C4A20430   3.066  11.147   7.758
 1342POPC   C1B20431   2.426  11.032   8.842
 1342POPC   C2B20432   2.547  11.107   8.432
 1342POPC   C3B20433   2.400  11.250   8.062
 1342POPC   C4B20434   2.572  11.188   7.679
 1343POPC   NC320435  33.599  37.942   9.317
 1343POPC   PO420436  34.024  37.512   9.711
 1343POPC   GL120437  34.044  37.582   9.215
 1343POPC   GL220438  33.770  37.671   8.924
 1343POPC   C1A20439  34.164  37.364   8.818
 1343POPC   D2A20440  33.902  37.358   8.445
 1343POPC   C3A20441  34.033  37.284   8.048
 1343POPC   C4A20442  33.924  37.556   7.748
 1343POPC   C1B20443  33.638  38.077   8.677
 1343POPC   C2B20444  33.613  38.127   8.208
 1343POPC   C3B20445  33.649  37.999   7.773
 1343POPC   C4B20446  33.451  38.159   7.377
 1344POPC   NC320447  40.781  43.876   9.642
 1344POPC   PO420448  40.033  43.985   9.765
 1344POPC   GL120449  40.379  43.889   9.325
 1344POPC   GL220450  40.754  43.948   9.155
 1344POPC   C1A20451  40.399  43.841   8.833
 1344POPC   D2A20452  40.353  44.017   8.391
 1344POPC   C3A20453  40.570  43.804   8.066
 1344POPC   C4A20454  40.792  43.927   7.695
 1344POPC   C1B20455  40.969  43.629   8.872
 1344POPC   C2B20456  40.898  43.450   8.450
 1344POPC   C3B20457  41.044  43.580   8.044
 1344POPC   C4B20458  41.181  43.579   7.648
 1345POPC   NC320459  44.849  20.355   9.563
 1345POPC   PO420460  44.314  20.772   9.580
 1345POPC   GL120461  44.621  20.747   9.246
 1345POPC   GL220462  44.572  20.396   9.142
 1345POPC   C1A20463  44.549  20.710   8.777
 1345POPC   D2A20464  44.780  20.629   8.436
 1345POPC   C3A20465  44.697  20.765   8.046
 1345POPC   C4A20466  44.914  20.630   7.713
 1345POPC   C1B20467  44.564  20.189   8.758
 1345POPC   C2B20468  44.742  20.091   8.392
 1345POPC   C3B20469  44.665  20.265   8.021
 1345POPC   C4B20470  44.799  20.151   7.621
 1346POPC   NC320471   4.641   7.887   9.556
 1346POPC   PO420472   4.962   7.314   9.670
 1346POPC   GL120473   4.931   7.287   9.176
 1346POPC   GL220474   5.216   7.079   9.002
 1346POPC   C1A20475   4.778   7.168   8.765
 1346POPC   D2A20476   4.773   7.526   8.456
 1346POPC   C3A20477   4.839   7.389   8.054
 1346POPC   C4A20478   4.820   7.445   7.597
 1346POPC   C1B20479   5.209   7.487   8.767
 1346POPC   C2B20480   5.299   7.633   8.335
 1346POPC   C3B20481   5.216   7.679   7.879
 1346POPC   C4B20482   5.309   7.460   7.498
 1347POPC   NC320483  20.391   2.849   9.358
 1347POPC   PO420484  19.706   2.653   9.352
 1347POPC   GL120485  19.891   2.856   9.040
 1347POPC   GL220486  19.642   3.115   8.944
 1347POPC   C1A20487  20.040   2.852   8.640
 1347POPC   D2A20488  20.069   2.984   8.237
 1347POPC   C3A20489  19.906   2.690   7.981
 1347POPC   C4A20490  19.976   2.513   7.607
 1347POPC   C1B20491  19.496   2.722   8.748
 1347POPC   C2B20492  19.625   2.519   8.403
 1347POPC   C3B20493  19.426   2.452   8.059
 1347POPC   C4B20494  19.476   2.552   7.694
 1348POPC   NC320495  43.190  24.168   9.973
 1348POPC   PO420496  43.185  23.648   9.453
 1348POPC   GL120497  43.099  23.436   9.054
 1348POPC   GL220498  43.444  23.424   8.948
 1348POPC   C1A20499  42.846  23.527   8.665
 1348POPC   D2A20500  42.723  23.883   8.398
 1348POPC   C3A20501  42.765  23.723   7.994
 1348POPC   C4A20502  42.843  23.612   7.574
 1348POPC   C1B20503  43.284  23.789   8.716
 1348POPC   C2B20504  43.212  23.736   8.285
 1348POPC   C3B20505  43.256  23.714   7.842
 1348POPC   C4B20506  43.266  23.901   7.437
 1349POPC   NC320507   3.521  38.077   9.421
 1349POPC   PO420508   3.400  37.366   9.494
 1349POPC   GL120509   3.396  37.536   9.093
 1349POPC   GL220510   3.674  37.715   9.105
 1349POPC   C1A20511   3.555  37.448   8.668
 1349POPC   D2A20512   3.635  37.415   8.215
 1349POPC   C3A20513   3.337  37.512   7.900
 1349POPC   C4A20514   3.470  37.742   7.523
 1349POPC   C1B20515   3.790  38.006   8.787
 1349POPC   C2B20516   3.845  37.873   8.365
 1349POPC   C3B20517   3.808  37.804   7.927
 1349POPC   C4B20518   3.801  38.119   7.641
 1350POPC   NC320519   4.037   6.326   9.492
 1350POPC   PO420520   4.346   6.920   9.486
 1350POPC   GL120521   4.337   6.680   9.099
 1350POPC   GL220522   4.144   6.364   9.000
 1350POPC   C1A20523   4.453   6.735   8.694
 1350POPC   D2A20524   4.496   6.521   8.318
 1350POPC   C3A20525   4.762   6.771   8.087
 1350POPC   C4A20526   4.619   7.019   7.768
 1350POPC   C1B20527   3.965   6.618   8.713
 1350POPC   C2B20528   3.774   6.582   8.352
 1350POPC   C3B20529   3.989   6.534   8.003
 1350POPC   C4B20530   4.372   6.524   7.814
 1351POPC   NC320531  16.317  39.115   9.500
 1351POPC   PO420532  15.744  39.410   9.562
 1351POPC   GL120533  15.691  39.467   9.134
 1351POPC   GL220534  15.997  39.246   9.082
 1351POPC   C1A20535  15.716  39.376   8.674
 1351POPC   D2A20536  16.033  39.322   8.417
 1351POPC   C3A20537  16.018  39.569   8.074
 1351POPC   C4A20538  15.847  39.460   7.703
 1351POPC   C1B20539  15.917  38.919   8.766
 1351POPC   C2B20540  16.104  38.827   8.339
 1351POPC   C3B20541  15.959  38.984   7.915
 1351POPC   C4B20542  16.007  39.037   7.447
 1352POPC   NC320543  18.081  25.001   9.493
 1352POPC   PO420544  18.423  24.517   9.705
 1352POPC   GL120545  18.361  24.449   9.218
 1352POPC   GL220546  18.393  24.789   9.155
 1352POPC   C1A20547  18.185  24.254   8.779
 1352POPC   D2A20548  18.050  24.439   8.332
 1352POPC   C3A20549  18.323  24.423   7.926
 1352POPC   C4A20550  17.980  24.476   7.689
 1352POPC   C1B20551  18.361  24.725   8.732
 1352POPC   C2B20552  18.459  24.721   8.326
 1352POPC   C3B20553  18.202  24.891   7.983
 1352POPC   C4B20554  18.419  24.911   7.635
 1353POPC   NC320555   8.401  14.477   9.518
 1353POPC   PO420556   7.921  14.169   9.718
 1353POPC   GL120557   8.056  14.134   9.257
 1353POPC   GL220558   8.401  14.145   9.149
 1353POPC   C1A20559   8.031  14.240   8.803
 1353POPC   D2A20560   8.027  14.524   8.450
 1353POPC   C3A20561   8.044  14.259   8.102
 1353POPC   C4A20562   8.024  14.030   7.735
 1353POPC   C1B20563   8.407  14.584   8.850
 1353POPC   C2B20564   8.527  14.703   8.411
 1353POPC   C3B20565   8.288  14.787   8.022
 1353POPC   C4B20566   8.108  14.549   7.680
 1354POPC   NC320567  31.093  22.048   9.238
 1354POPC   PO420568  30.609  22.441   9.513
 1354POPC   GL120569  30.597  22.195   9.122
 1354POPC   GL220570  30.270  22.175   8.917
 1354POPC   C1A20571  30.733  22.168   8.691
 1354POPC   D2A20572  30.611  21.926   8.359
 1354POPC   C3A20573  30.911  21.951   8.114
 1354POPC   C4A20574  30.815  22.236   7.776
 1354POPC   C1B20575  30.191  21.805   8.641
 1354POPC   C2B20576  30.169  21.730   8.171
 1354POPC   C3B20577  30.403  21.867   7.771
 1354POPC   C4B20578  30.265  21.852   7.338
 1355POPC   NC320579  26.387  26.307   9.808
 1355POPC   PO420580  26.880  25.955   9.501
 1355POPC   GL120581  26.634  25.892   9.110
 1355POPC   GL220582  26.763  26.181   8.934
 1355POPC   C1A20583  26.532  25.807   8.663
 1355POPC   D2A20584  26.732  25.773   8.248
 1355POPC   C3A20585  26.741  26.093   7.921
 1355POPC   C4A20586  26.551  26.049   7.531
 1355POPC   C1B20587  26.852  26.210   8.498
 1355POPC   C2B20588  27.213  25.996   8.357
 1355POPC   C3B20589  27.251  26.011   7.962
 1355POPC   C4B20590  27.151  26.424   7.826
 1356POPC   NC320591  36.482  13.018   9.294
 1356POPC   PO420592  37.057  12.905   9.548
 1356POPC   GL120593  36.958  12.976   9.121
 1356POPC   GL220594  36.799  12.689   9.045
 1356POPC   C1A20595  37.095  12.883   8.690
 1356POPC   D2A20596  36.989  12.622   8.325
 1356POPC   C3A20597  37.027  12.799   7.896
 1356POPC   C4A20598  37.074  12.800   7.449
 1356POPC   C1B20599  36.594  12.874   8.668
 1356POPC   C2B20600  36.396  12.668   8.320
 1356POPC   C3B20601  36.531  12.653   7.931
 1356POPC   C4B20602  36.566  12.956   7.653
 1357POPC   NC320603   3.112  23.150   9.487
 1357POPC   PO420604   3.779  23.053   9.605
 1357POPC   GL120605   3.614  23.043   9.221
 1357POPC   GL220606   3.899  22.803   9.177
 1357POPC   C1A20607   3.387  22.956   8.835
 1357POPC   D2A20608   3.499  23.115   8.426
 1357POPC   C3A20609   3.378  22.995   8.005
 1357POPC   C4A20610   3.524  23.144   7.599
 1357POPC   C1B20611   3.920  23.019   8.792
 1357POPC   C2B20612   3.956  22.869   8.377
 1357POPC   C3B20613   3.880  22.873   7.920
 1357POPC   C4B20614   3.676  22.645   7.566
 1358POPC   NC320615  33.986  40.053   9.454
 1358POPC   PO420616  33.344  39.869   9.537
 1358POPC   GL120617  33.597  39.885   9.154
 1358POPC   GL220618  33.670  40.246   9.125
 1358POPC   C1A20619  33.816  39.890   8.734
 1358POPC   D2A20620  34.106  39.912   8.362
 1358POPC   C3A20621  34.038  39.830   7.918
 1358POPC   C4A20622  34.199  39.837   7.486
 1358POPC   C1B20623  33.595  40.336   8.729
 1358POPC   C2B20624  33.832  40.356   8.337
 1358POPC   C3B20625  33.551  40.327   7.994
 1358POPC   C4B20626  33.427  40.119   7.585
 1359POPC   NC320627  25.506   0.801   9.364
 1359POPC   PO420628  25.014   1.330   9.400
 1359POPC   GL120629  25.346   1.405   9.100
 1359POPC   GL220630  25.261   1.058   9.009
 1359POPC   C1A20631  25.508   1.323   8.668
 1359POPC   D2A20632  25.385   1.004   8.365
 1359POPC   C3A20633  25.441   1.060   7.932
 1359POPC   C4A20634  25.577   1.447   7.720
 1359POPC   C1B20635  24.983   1.265   8.727
 1359POPC   C2B20636  24.919   1.366   8.310
 1359POPC   C3B20637  25.055   1.376   7.885
 1359POPC   C4B20638  24.840   1.318   7.521
 1360POPC   NC320639  13.423  31.796   9.344
 1360POPC   PO420640  13.858  31.156   9.517
 1360POPC   GL120641  13.687  31.350   9.153
 1360POPC   GL220642  13.328  31.339   9.125
 1360POPC   C1A20643  13.664  31.418   8.701
 1360POPC   D2A20644  13.846  31.476   8.291
 1360POPC   C3A20645  13.568  31.598   7.990
 1360POPC   C4A20646  13.592  31.490   7.569
 1360POPC   C1B20647  13.169  31.542   8.715
 1360POPC   C2B20648  13.083  31.484   8.263
 1360POPC   C3B20649  13.062  31.695   7.850
 1360POPC   C4B20650  13.234  31.858   7.445
 1361POPC   NC320651   5.241   3.332   9.705
 1361POPC   PO420652   4.551   3.212   9.640
 1361POPC   GL120653   4.901   3.413   9.310
 1361POPC   GL220654   5.257   3.626   9.256
 1361POPC   C1A20655   4.861   3.643   8.936
 1361POPC   D2A20656   4.787   3.732   8.508
 1361POPC   C3A20657   5.106   3.596   8.233
 1361POPC   C4A20658   5.077   3.653   7.811
 1361POPC   C1B20659   5.267   3.952   8.880
 1361POPC   C2B20660   5.215   4.063   8.419
 1361POPC   C3B20661   5.448   3.965   8.002
 1361POPC   C4B20662   5.465   3.822   7.557
 1362POPC   NC320663   6.739  38.042   9.584
 1362POPC   PO420664   6.455  37.432   9.550
 1362POPC   GL120665   6.612  37.677   9.237
 1362POPC   GL220666   6.850  37.489   9.106
 1362POPC   C1A20667   6.571  37.824   8.820
 1362POPC   D2A20668   6.347  37.667   8.481
 1362POPC   C3A20669   6.448  37.874   8.096
 1362POPC   C4A20670   6.670  37.949   7.663
 1362POPC   C1B20671   6.767  37.337   8.740
 1362POPC   C2B20672   6.842  37.602   8.403
 1362POPC   C3B20673   6.948  37.741   8.014
 1362POPC   C4B20674   6.938  37.450   7.648
 1363POPC   NC320675  33.274  36.237   9.433
 1363POPC   PO420676  33.185  35.687   9.210
 1363POPC   GL120677  33.291  35.950   8.944
 1363POPC   GL220678  32.981  36.130   8.945
 1363POPC   C1A20679  33.356  35.984   8.526
 1363POPC   D2A20680  33.006  36.183   8.349
 1363POPC   C3A20681  32.949  36.066   7.925
 1363POPC   C4A20682  32.870  35.954   7.495
 1363POPC   C1B20683  33.267  36.449   8.759
 1363POPC   C2B20684  33.527  36.465   8.376
 1363POPC   C3B20685  33.437  36.523   7.922
 1363POPC   C4B20686  33.255  36.278   7.565
 1364POPC   NC320687  22.765  25.525   9.296
 1364POPC   PO420688  22.122  25.353   9.487
 1364POPC   GL120689  22.088  25.101   9.143
 1364POPC   GL220690  22.471  25.013   9.162
 1364POPC   C1A20691  21.943  25.155   8.741
 1364POPC   D2A20692  22.164  25.005   8.356
 1364POPC   C3A20693  22.031  25.267   8.023
 1364POPC   C4A20694  21.755  25.301   7.736
 1364POPC   C1B20695  22.479  25.162   8.774
 1364POPC   C2B20696  22.747  25.181   8.443
 1364POPC   C3B20697  22.538  25.256   8.075
 1364POPC   C4B20698  22.336  24.914   7.835
 1365POPC   NC320699  43.097  17.851   9.439
 1365POPC   PO420700  42.953  17.203   9.374
 1365POPC   GL120701  43.016  17.494   9.064
 1365POPC   GL220702  42.717  17.702   9.145
 1365POPC   C1A20703  43.074  17.368   8.624
 1365POPC   D2A20704  43.283  17.084   8.311
 1365POPC   C3A20705  43.174  17.239   7.907
 1365POPC   C4A20706  43.321  17.680   7.879
 1365POPC   C1B20707  42.785  17.938   8.779
 1365POPC   C2B20708  42.578  17.894   8.391
 1365POPC   C3B20709  42.813  17.648   8.112
 1365POPC   C4B20710  42.733  17.584   7.705
 1366POPC   NC320711  15.296  28.242   9.578
 1366POPC   PO420712  14.598  28.263   9.703
 1366POPC   GL120713  14.823  28.361   9.313
 1366POPC   GL220714  15.012  28.051   9.166
 1366POPC   C1A20715  14.900  28.472   8.866
 1366POPC   D2A20716  15.131  28.617   8.469
 1366POPC   C3A20717  14.903  28.583   8.078
 1366POPC   C4A20718  15.049  28.500   7.688
 1366POPC   C1B20719  14.997  27.932   8.696
 1366POPC   C2B20720  15.269  27.875   8.265
 1366POPC   C3B20721  15.347  28.095   7.834
 1366POPC   C4B20722  15.185  28.088   7.381
 1367POPC   NC320723  10.794  13.570   9.474
 1367POPC   PO420724  10.015  13.402   9.409
 1367POPC   GL120725  10.301  13.506   9.071
 1367POPC   GL220726  10.656  13.403   9.034
 1367POPC   C1A20727  10.481  13.693   8.694
 1367POPC   D2A20728  10.609  13.467   8.350
 1367POPC   C3A20729  10.589  13.768   8.015
 1367POPC   C4A20730  10.481  13.703   7.568
 1367POPC   C1B20731  10.991  13.433   8.724
 1367POPC   C2B20732  11.087  13.629   8.322
 1367POPC   C3B20733  10.930  13.408   7.940
 1367POPC   C4B20734  10.488  13.274   7.849
 1368POPC   NC320735  42.123  21.303   9.644
 1368POPC   PO420736  42.617  21.677   9.524
 1368POPC   GL120737  42.418  21.466   9.215
 1368POPC   GL220738  42.578  21.130   9.266
 1368POPC   C1A20739  42.280  21.603   8.793
 1368POPC   D2A20740  42.403  21.894   8.426
 1368POPC   C3A20741  42.444  21.725   8.018
 1368POPC   C4A20742  42.124  21.723   7.743
 1368POPC   C1B20743  42.281  21.056   8.907
 1368POPC   C2B20744  42.169  21.173   8.486
 1368POPC   C3B20745  42.389  21.120   8.088
 1368POPC   C4B20746  42.279  21.246   7.683
 1369POPC   NC320747  10.826  40.700   9.378
 1369POPC   PO420748  11.337  40.979   9.664
 1369POPC   GL120749  11.412  40.931   9.182
 1369POPC   GL220750  11.172  40.728   8.995
 1369POPC   C1A20751  11.479  41.038   8.703
 1369POPC   D2A20752  11.195  41.062   8.290
 1369POPC   C3A20753  11.356  40.863   7.886
 1369POPC   C4A20754  11.764  40.675   7.849
 1369POPC   C1B20755  10.903  40.420   8.782
 1369POPC   C2B20756  10.873  40.501   8.346
 1369POPC   C3B20757  11.138  40.363   8.018
 1369POPC   C4B20758  10.952  40.331   7.643
 1370POPC   NC320759  42.475  22.614   9.440
 1370POPC   PO420760  42.554  23.254   9.419
 1370POPC   GL120761  42.265  22.991   9.188
 1370POPC   GL220762  41.939  23.030   9.343
 1370POPC   C1A20763  42.280  22.750   8.819
 1370POPC   D2A20764  42.271  22.955   8.447
 1370POPC   C3A20765  42.328  22.792   8.044
 1370POPC   C4A20766  42.381  22.795   7.587
 1370POPC   C1B20767  41.838  23.021   8.888
 1370POPC   C2B20768  41.810  23.190   8.474
 1370POPC   C3B20769  42.050  23.240   8.093
 1370POPC   C4B20770  41.920  23.326   7.684
 1371POPC   NC320771  10.207  31.029   9.856
 1371POPC   PO420772  10.697  30.645   9.543
 1371POPC   GL120773  10.614  30.552   9.164
 1371POPC   GL220774  10.929  30.676   9.077
 1371POPC   C1A20775  10.603  30.409   8.769
 1371POPC   D2A20776  10.365  30.456   8.443
 1371POPC   C3A20777  10.600  30.314   8.081
 1371POPC   C4A20778  10.571  30.477   7.696
 1371POPC   C1B20779  11.077  30.736   8.675
 1371POPC   C2B20780  10.800  30.696   8.383
 1371POPC   C3B20781  10.760  30.808   8.014
 1371POPC   C4B20782  10.841  30.909   7.615
 1372POPC   NC320783  11.139  36.490   9.416
 1372POPC   PO420784  11.245  37.187   9.380
 1372POPC   GL120785  11.312  36.880   9.132
 1372POPC   GL220786  11.613  36.687   9.162
 1372POPC   C1A20787  11.101  36.865   8.769
 1372POPC   D2A20788  11.218  36.782   8.363
 1372POPC   C3A20789  11.103  37.036   8.026
 1372POPC   C4A20790  11.091  36.653   7.799
 1372POPC   C1B20791  11.630  36.915   8.750
 1372POPC   C2B20792  11.681  36.981   8.326
 1372POPC   C3B20793  11.587  36.796   7.939
 1372POPC   C4B20794  11.388  36.989   7.566
 1373POPC   NC320795  16.519  38.170   9.597
 1373POPC   PO420796  17.044  38.577   9.745
 1373POPC   GL120797  16.794  38.664   9.347
 1373POPC   GL220798  16.617  38.435   9.173
 1373POPC   C1A20799  16.879  38.740   8.874
 1373POPC   D2A20800  16.933  38.628   8.428
 1373POPC   C3A20801  16.716  38.817   8.080
 1373POPC   C4A20802  16.419  38.807   7.736
 1373POPC   C1B20803  16.679  38.294   8.744
 1373POPC   C2B20804  16.525  38.334   8.327
 1373POPC   C3B20805  16.617  38.334   7.904
 1373POPC   C4B20806  16.609  38.252   7.488
 1374POPC   NC320807  33.443  35.411   9.489
 1374POPC   PO420808  34.066  35.225   9.171
 1374POPC   GL120809  33.759  35.229   8.924
 1374POPC   GL220810  33.625  35.535   9.025
 1374POPC   C1A20811  33.787  35.120   8.486
 1374POPC   D2A20812  33.465  34.957   8.227
 1374POPC   C3A20813  33.497  35.286   7.936
 1374POPC   C4A20814  33.700  35.594   7.631
 1374POPC   C1B20815  33.855  35.679   8.716
 1374POPC   C2B20816  34.121  35.560   8.413
 1374POPC   C3B20817  34.029  35.334   8.043
 1374POPC   C4B20818  34.272  35.382   7.703
 1375POPC   NC320819  13.155  13.398   9.466
 1375POPC   PO420820  12.639  13.848   9.408
 1375POPC   GL120821  12.857  13.654   9.109
 1375POPC   GL220822  13.209  13.800   9.106
 1375POPC   C1A20823  12.757  13.827   8.713
 1375POPC   D2A20824  12.412  13.689   8.468
 1375POPC   C3A20825  12.590  13.818   8.104
 1375POPC   C4A20826  12.814  13.553   7.813
 1375POPC   C1B20827  13.173  13.520   8.719
 1375POPC   C2B20828  13.064  13.642   8.277
 1375POPC   C3B20829  13.258  13.766   7.864
 1375POPC   C4B20830  13.291  13.427   7.561
 1376POPC   NC320831  27.820  30.866   9.518
 1376POPC   PO420832  28.428  30.650   9.538
 1376POPC   GL120833  28.438  30.695   9.095
 1376POPC   GL220834  28.505  30.377   9.107
 1376POPC   C1A20835  28.270  30.759   8.682
 1376POPC   D2A20836  28.147  30.610   8.275
 1376POPC   C3A20837  28.349  30.848   7.904
 1376POPC   C4A20838  28.132  31.205   7.659
 1376POPC   C1B20839  28.295  30.257   8.757
 1376POPC   C2B20840  28.404  30.150   8.375
 1376POPC   C3B20841  28.455  30.320   7.997
 1376POPC   C4B20842  28.196  30.374   7.667
 1377POPC   NC320843  29.372  43.556   9.545
 1377POPC   PO420844  29.188  42.947   9.611
 1377POPC   GL120845  29.241  43.113   9.239
 1377POPC   GL220846  29.015  43.323   9.169
 1377POPC   C1A20847  29.318  42.957   8.844
 1377POPC   D2A20848  29.427  43.012   8.437
 1377POPC   C3A20849  29.187  43.198   8.087
 1377POPC   C4A20850  29.259  43.141   7.628
 1377POPC   C1B20851  28.848  43.122   8.862
 1377POPC   C2B20852  28.891  42.972   8.458
 1377POPC   C3B20853  28.809  42.839   8.040
 1377POPC   C4B20854  28.760  43.160   7.747
 1378POPC   NC320855  42.204  32.602   9.296
 1378POPC   PO420856  42.608  32.137   9.610
 1378POPC   GL120857  42.530  32.237   9.189
 1378POPC   GL220858  42.316  31.958   9.074
 1378POPC   C1A20859  42.391  32.352   8.747
 1378POPC   D2A20860  42.170  32.243   8.384
 1378POPC   C3A20861  42.456  32.349   8.082
 1378POPC   C4A20862  42.501  32.572   7.727
 1378POPC   C1B20863  41.996  31.876   8.757
 1378POPC   C2B20864  41.743  31.916   8.369
 1378POPC   C3B20865  41.836  32.138   7.988
 1378POPC   C4B20866  42.162  32.196   7.679
 1379POPC   NC320867  41.964  25.834   9.556
 1379POPC   PO420868  42.457  26.250   9.699
 1379POPC   GL120869  42.345  26.058   9.304
 1379POPC   GL220870  41.992  26.117   9.133
 1379POPC   C1A20871  42.394  25.814   8.962
 1379POPC   D2A20872  42.409  25.942   8.527
 1379POPC   C3A20873  42.581  25.947   8.138
 1379POPC   C4A20874  42.447  25.820   7.734
 1379POPC   C1B20875  41.944  25.907   8.721
 1379POPC   C2B20876  41.964  26.052   8.320
 1379POPC   C3B20877  42.149  26.179   7.979
 1379POPC   C4B20878  42.023  26.108   7.557
 1380POPC   NC320879  20.770  20.869   9.434
 1380POPC   PO420880  20.464  20.241   9.505
 1380POPC   GL120881  20.361  20.496   9.122
 1380POPC   GL220882  20.447  20.860   9.044
 1380POPC   C1A20883  20.546  20.437   8.751
 1380POPC   D2A20884  20.906  20.259   8.525
 1380POPC   C3A20885  20.694  20.154   8.156
 1380POPC   C4A20886  20.711  20.143   7.737
 1380POPC   C1B20887  20.594  20.915   8.620
 1380POPC   C2B20888  20.331  20.775   8.274
 1380POPC   C3B20889  20.359  20.826   7.849
 1380POPC   C4B20890  20.761  20.695   7.934
 1381POPC   NC320891  26.396  40.517   9.472
 1381POPC   PO420892  25.739  40.717   9.377
 1381POPC   GL120893  25.977  40.710   9.048
 1381POPC   GL220894  26.262  40.902   9.136
 1381POPC   C1A20895  25.867  40.663   8.618
 1381POPC   D2A20896  25.928  40.455   8.236
 1381POPC   C3A20897  26.067  40.696   7.895
 1381POPC   C4A20898  26.114  40.535   7.476
 1381POPC   C1B20899  26.138  41.081   8.724
 1381POPC   C2B20900  25.943  41.089   8.294
 1381POPC   C3B20901  25.954  41.258   7.862
 1381POPC   C4B20902  26.186  41.101   7.502
 1382POPC   NC320903  28.969  25.337   9.538
 1382POPC   PO420904  28.352  25.314   9.440
 1382POPC   GL120905  28.442  25.172   9.056
 1382POPC   GL220906  28.742  24.994   9.061
 1382POPC   C1A20907  28.371  25.344   8.648
 1382POPC   D2A20908  28.541  25.536   8.259
 1382POPC   C3A20909  28.285  25.623   7.877
 1382POPC   C4A20910  28.184  25.338   7.529
 1382POPC   C1B20911  28.520  24.803   8.696
 1382POPC   C2B20912  28.435  24.992   8.275
 1382POPC   C3B20913  28.386  24.915   7.841
 1382POPC   C4B20914  28.725  24.790   7.590
 1383POPC   NC320915   1.918  18.951   9.633
 1383POPC   PO420916   1.926  19.540   9.428
 1383POPC   GL120917   2.021  19.098   9.138
 1383POPC   GL220918   1.830  18.746   9.178
 1383POPC   C1A20919   2.091  18.790   8.737
 1383POPC   D2A20920   2.217  18.758   8.268
 1383POPC   C3A20921   2.136  19.133   8.016
 1383POPC   C4A20922   2.384  19.454   7.796
 1383POPC   C1B20923   1.582  18.905   8.812
 1383POPC   C2B20924   1.322  18.952   8.429
 1383POPC   C3B20925   1.408  18.781   8.005
 1383POPC   C4B20926   1.845  18.697   7.867
 1384POPC   NC320927   1.496  19.711   9.401
 1384POPC   PO420928   0.979  20.175   9.558
 1384POPC   GL120929   1.219  20.101   9.157
 1384POPC   GL220930   1.281  19.767   8.958
 1384POPC   C1A20931   1.159  20.215   8.741
 1384POPC   D2A20932   1.085  19.972   8.383
 1384POPC   C3A20933   1.116  20.086   7.942
 1384POPC   C4A20934   1.227  19.687   7.726
 1384POPC   C1B20935   0.857  19.789   8.845
 1384POPC   C2B20936   0.647  19.742   8.461
 1384POPC   C3B20937   0.825  19.669   8.057
 1384POPC   C4B20938   0.732  19.635   7.640
 1385POPC   NC320939   5.175  35.771   9.655
 1385POPC   PO420940   5.169  36.442   9.514
 1385POPC   GL120941   4.980  36.177   9.208
 1385POPC   GL220942   4.866  36.535   9.101
 1385POPC   C1A20943   5.108  35.909   8.811
 1385POPC   D2A20944   5.422  35.867   8.468
 1385POPC   C3A20945   5.274  36.038   8.084
 1385POPC   C4A20946   5.019  35.912   7.774
 1385POPC   C1B20947   4.909  36.372   8.730
 1385POPC   C2B20948   5.044  36.405   8.343
 1385POPC   C3B20949   4.846  36.354   7.970
 1385POPC   C4B20950   4.791  36.626   7.637
 1386POPC   NC320951  27.444  21.447   9.522
 1386POPC   PO420952  27.999  21.039   9.546
 1386POPC   GL120953  27.724  21.220   9.160
 1386POPC   GL220954  27.360  21.213   9.092
 1386POPC   C1A20955  27.758  21.373   8.723
 1386POPC   D2A20956  28.144  21.485   8.460
 1386POPC   C3A20957  28.033  21.672   8.058
 1386POPC   C4A20958  27.632  21.712   7.831
 1386POPC   C1B20959  27.217  21.202   8.690
 1386POPC   C2B20960  27.466  21.094   8.321
 1386POPC   C3B20961  27.568  21.202   7.880
 1386POPC   C4B20962  27.287  21.436   7.559
 1387POPC   NC320963   4.044  43.188   9.463
 1387POPC   PO420964   4.510  42.728   9.498
 1387POPC   GL120965   4.393  42.974   9.125
 1387POPC   GL220966   4.324  43.354   9.082
 1387POPC   C1A20967   4.561  43.066   8.713
 1387POPC   D2A20968   4.830  42.951   8.370
 1387POPC   C3A20969   4.619  43.082   7.992
 1387POPC   C4A20970   4.293  42.835   7.838
 1387POPC   C1B20971   4.029  43.142   8.788
 1387POPC   C2B20972   4.146  43.048   8.355
 1387POPC   C3B20973   4.056  43.255   7.976
 1387POPC   C4B20974   4.024  43.155   7.546
 1388POPC   NC320975  23.137  19.933   9.534
 1388POPC   PO420976  22.686  19.526   9.370
 1388POPC   GL120977  22.978  19.590   9.057
 1388POPC   GL220978  23.011  19.950   9.027
 1388POPC   C1A20979  22.878  19.579   8.614
 1388POPC   D2A20980  22.766  19.320   8.238
 1388POPC   C3A20981  22.924  19.548   7.877
 1388POPC   C4A20982  22.639  19.842   7.776
 1388POPC   C1B20983  23.305  20.166   8.742
 1388POPC   C2B20984  23.363  20.064   8.280
 1388POPC   C3B20985  23.086  20.067   7.884
 1388POPC   C4B20986  23.119  20.129   7.399
 1389POPC   NC320987   0.931  40.538   9.509
 1389POPC   PO420988   1.452  40.781   9.277
 1389POPC   GL120989   1.105  40.718   9.064
 1389POPC   GL220990   0.899  40.955   9.219
 1389POPC   C1A20991   1.176  40.773   8.661
 1389POPC   D2A20992   1.137  40.589   8.326
 1389POPC   C3A20993   1.263  40.880   8.078
 1389POPC   C4A20994   1.459  40.862   7.748
 1389POPC   C1B20995   0.752  41.006   8.799
 1389POPC   C2B20996   0.899  41.113   8.381
 1389POPC   C3B20997   0.780  40.910   7.984
 1389POPC   C4B20998   0.967  40.834   7.555
 1390POPC   NC320999   7.246  34.871   9.485
 1390POPC   PO421000   7.813  34.492   9.346
 1390POPC   GL121001   7.534  34.271   9.069
 1390POPC   GL221002   7.203  34.410   9.115
 1390POPC   C1A21003   7.657  34.257   8.645
 1390POPC   D2A21004   7.858  34.489   8.312
 1390POPC   C3A21005   7.557  34.597   8.014
 1390POPC   C4A21006   7.298  34.478   7.680
 1390POPC   C1B21007   7.327  34.729   8.837
 1390POPC   C2B21008   7.240  34.817   8.427
 1390POPC   C3B21009   7.042  34.699   8.057
 1390POPC   C4B21010   7.070  34.912   7.625
 1391POPC   NC321011  20.105  20.555   9.548
 1391POPC   PO421012  19.567  20.938   9.509
 1391POPC   GL121013  19.898  20.801   9.166
 1391POPC   GL221014  19.836  20.462   9.102
 1391POPC   C1A21015  20.076  20.741   8.734
 1391POPC   D2A21016  19.824  20.746   8.358
 1391POPC   C3A21017  19.862  20.703   7.923
 1391POPC   C4A21018  19.600  20.665   7.545
 1391POPC   C1B21019  19.706  20.375   8.674
 1391POPC   C2B21020  19.672  20.262   8.225
 1391POPC   C3B21021  19.406  20.224   7.856
 1391POPC   C4B21022  19.334  19.896   7.539
 1392POPC   NC321023  20.818  23.876   9.596
 1392POPC   PO421024  20.318  23.515   9.499
 1392POPC   GL121025  20.570  23.591   9.172
 1392POPC   GL221026  20.927  23.563   9.203
 1392POPC   C1A21027  20.668  23.374   8.792
 1392POPC   D2A21028  20.650  23.258   8.374
 1392POPC   C3A21029  20.594  23.638   8.182
 1392POPC   C4A21030  20.509  23.761   7.759
 1392POPC   C1B21031  21.095  23.688   8.788
 1392POPC   C2B21032  21.076  23.564   8.337
 1392POPC   C3B21033  20.980  23.562   7.864
 1392POPC   C4B21034  20.759  23.452   7.439
 1393POPC   NC321035   4.413  13.211   9.506
 1393POPC   PO421036   4.486  12.541   9.506
 1393POPC   GL121037   4.313  12.836   9.169
 1393POPC   GL221038   4.009  13.010   9.170
 1393POPC   C1A21039   4.190  12.810   8.722
 1393POPC   D2A21040   4.265  12.440   8.440
 1393POPC   C3A21041   4.319  12.639   8.047
 1393POPC   C4A21042   4.106  12.720   7.681
 1393POPC   C1B21043   3.830  13.172   8.775
 1393POPC   C2B21044   3.829  13.240   8.372
 1393POPC   C3B21045   4.155  13.159   8.130
 1393POPC   C4B21046   4.123  13.206   7.741
 1394POPC   NC321047  12.048  26.466   9.644
 1394POPC   PO421048  12.282  27.068   9.580
 1394POPC   GL121049  12.145  27.103   9.161
 1394POPC   GL221050  11.909  26.838   9.206
 1394POPC   C1A21051  12.240  26.987   8.725
 1394POPC   D2A21052  12.250  26.822   8.328
 1394POPC   C3A21053  12.341  26.967   7.887
 1394POPC   C4A21054  12.043  27.022   7.500
 1394POPC   C1B21055  11.746  27.014   8.839
 1394POPC   C2B21056  11.712  26.877   8.440
 1394POPC   C3B21057  11.850  26.884   8.030
 1394POPC   C4B21058  11.631  26.800   7.676
 1395POPC   NC321059  35.248  17.266   9.714
 1395POPC   PO421060  34.733  17.756   9.679
 1395POPC   GL121061  34.674  17.461   9.278
 1395POPC   GL221062  34.943  17.213   9.190
 1395POPC   C1A21063  34.418  17.414   8.845
 1395POPC   D2A21064  34.575  17.380   8.406
 1395POPC   C3A21065  34.388  17.462   8.017
 1395POPC   C4A21066  34.482  17.372   7.653
 1395POPC   C1B21067  34.917  17.517   8.837
 1395POPC   C2B21068  35.020  17.648   8.429
 1395POPC   C3B21069  34.879  17.575   8.020
 1395POPC   C4B21070  34.997  17.351   7.664
 1396POPC   NC321071  27.949  25.219   9.229
 1396POPC   PO421072  27.416  25.559   9.325
 1396POPC   GL121073  27.504  25.381   8.963
 1396POPC   GL221074  27.524  25.046   8.883
 1396POPC   C1A21075  27.716  25.535   8.610
 1396POPC   D2A21076  28.010  25.527   8.284
 1396POPC   C3A21077  27.811  25.349   7.892
 1396POPC   C4A21078  27.394  25.172   7.800
 1396POPC   C1B21079  27.151  25.054   8.663
 1396POPC   C2B21080  27.271  24.945   8.234
 1396POPC   C3B21081  27.710  24.856   8.022
 1396POPC   C4B21082  27.916  24.897   7.600
 1397POPC   NC321083  44.785  27.691   9.599
 1397POPC   PO421084  44.651  28.372   9.586
 1397POPC   GL121085  44.728  28.315   9.158
 1397POPC   GL221086  44.896  28.607   9.066
 1397POPC   C1A21087  44.540  28.393   8.746
 1397POPC   D2A21088  44.682  28.258   8.344
 1397POPC   C3A21089  44.480  28.225   7.944
 1397POPC   C4A21090  44.606  28.229   7.496
 1397POPC   C1B21091  44.844  28.796   8.632
 1397POPC   C2B21092  44.692  28.747   8.183
 1397POPC   C3B21093  44.786  28.643   7.736
 1397POPC   C4B21094  44.848  28.680   7.252
 1398POPC   NC321095  27.815   7.111   9.672
 1398POPC   PO421096  27.698   7.774   9.795
 1398POPC   GL121097  27.586   7.540   9.350
 1398POPC   GL221098  27.610   7.203   9.228
 1398POPC   C1A21099  27.380   7.580   8.909
 1398POPC   D2A21100  27.290   7.646   8.447
 1398POPC   C3A21101  27.482   7.572   8.035
 1398POPC   C4A21102  27.559   7.458   7.587
 1398POPC   C1B21103  27.828   7.392   8.873
 1398POPC   C2B21104  27.720   7.326   8.452
 1398POPC   C3B21105  27.946   7.375   8.084
 1398POPC   C4B21106  27.953   7.162   7.705
 1399POPC   NC321107   2.172   3.217   9.469
 1399POPC   PO421108   1.859   3.825   9.440
 1399POPC   GL121109   2.089   3.680   9.125
 1399POPC   GL221110   1.873   3.380   9.098
 1399POPC   C1A21111   2.293   3.466   8.787
 1399POPC   D2A21112   2.278   3.252   8.378
 1399POPC   C3A21113   2.144   3.509   8.066
 1399POPC   C4A21114   2.037   3.553   7.646
 1399POPC   C1B21115   1.650   3.354   8.737
 1399POPC   C2B21116   1.763   3.256   8.367
 1399POPC   C3B21117   1.815   3.084   7.992
 1399POPC   C4B21118   1.694   3.178   7.600
 1400POPC   NC321119   2.204  37.245   9.641
 1400POPC   PO421120   2.097  37.989   9.727
 1400POPC   GL121121   2.110  37.885   9.234
 1400POPC   GL221122   1.818  37.709   9.166
 1400POPC   C1A21123   2.108  37.699   8.747
 1400POPC   D2A21124   1.974  37.520   8.309
 1400POPC   C3A21125   1.933  37.772   7.921
 1400POPC   C4A21126   2.349  37.901   7.768
 1400POPC   C1B21127   1.659  37.461   8.801
 1400POPC   C2B21128   1.548  37.259   8.452
 1400POPC   C3B21129   1.516  37.321   8.029
 1400POPC   C4B21130   1.713  37.401   7.616
 1401POPC   NC321131  29.529   8.072   9.499
 1401POPC   PO421132  30.079   8.316   9.941
 1401POPC   GL121133  30.065   8.226   9.437
 1401POPC   GL221134  30.060   7.866   9.315
 1401POPC   C1A21135  30.222   8.341   8.976
 1401POPC   D2A21136  30.139   8.473   8.491
 1401POPC   C3A21137  29.795   8.453   8.163
 1401POPC   C4A21138  29.953   8.247   7.778
 1401POPC   C1B21139  29.859   8.000   8.913
 1401POPC   C2B21140  29.858   8.029   8.448
 1401POPC   C3B21141  29.989   7.836   8.051
 1401POPC   C4B21142  29.981   7.736   7.629
 1402POPC   NC321143  32.345  43.925   9.398
 1402POPC   PO421144  31.862  43.456   9.415
 1402POPC   GL121145  32.179  43.519   9.088
 1402POPC   GL221146  32.231  43.842   8.926
 1402POPC   C1A21147  32.380  43.448   8.667
 1402POPC   D2A21148  32.491  43.832   8.447
 1402POPC   C3A21149  32.495  43.756   8.004
 1402POPC   C4A21150  32.216  43.697   7.693
 1402POPC   C1B21151  31.979  44.055   8.641
 1402POPC   C2B21152  32.073  44.042   8.211
 1402POPC   C3B21153  32.271  44.245   7.866
 1402POPC   C4B21154  32.461  44.235   7.471
 1403POPC   NC321155  12.842   7.656   9.365
 1403POPC   PO421156  12.785   8.271   9.381
 1403POPC   GL121157  12.512   8.265   9.008
 1403POPC   GL221158  12.523   7.946   8.997
 1403POPC   C1A21159  12.535   8.251   8.548
 1403POPC   D2A21160  12.852   8.455   8.286
 1403POPC   C3A21161  13.115   8.189   8.024
 1403POPC   C4A21162  13.170   8.242   7.572
 1403POPC   C1B21163  12.843   7.885   8.730
 1403POPC   C2B21164  12.686   7.816   8.321
 1403POPC   C3B21165  12.566   8.087   8.052
 1403POPC   C4B21166  12.379   8.121   7.691
 1404POPC   NC321167  33.158  33.676   9.663
 1404POPC   PO421168  32.521  33.611   9.533
 1404POPC   GL121169  32.826  33.755   9.240
 1404POPC   GL221170  32.882  33.528   8.977
 1404POPC   C1A21171  32.966  34.007   8.869
 1404POPC   D2A21172  33.201  33.980   8.484
 1404POPC   C3A21173  32.997  33.864   8.131
 1404POPC   C4A21174  32.965  34.077   7.786
 1404POPC   C1B21175  33.168  33.430   8.676
 1404POPC   C2B21176  33.312  33.487   8.279
 1404POPC   C3B21177  33.199  33.461   7.873
 1404POPC   C4B21178  33.295  33.755   7.588
 1405POPC   NC321179  15.847  30.693   9.560
 1405POPC   PO421180  16.305  31.056   9.532
 1405POPC   GL121181  16.024  31.088   9.184
 1405POPC   GL221182  15.670  31.095   9.278
 1405POPC   C1A21183  16.117  30.951   8.771
 1405POPC   D2A21184  16.024  30.618   8.478
 1405POPC   C3A21185  16.110  30.614   8.028
 1405POPC   C4A21186  15.983  30.250   7.761
 1405POPC   C1B21187  15.657  30.765   8.916
 1405POPC   C2B21188  15.523  30.675   8.470
 1405POPC   C3B21189  15.624  30.503   8.109
 1405POPC   C4B21190  15.497  30.486   7.705
 1406POPC   NC321191  38.369  16.245   9.443
 1406POPC   PO421192  38.378  15.615   9.544
 1406POPC   GL121193  38.183  15.806   9.180
 1406POPC   GL221194  38.485  15.926   9.051
 1406POPC   C1A21195  38.124  15.863   8.722
 1406POPC   D2A21196  38.398  15.937   8.343
 1406POPC   C3A21197  38.286  15.860   7.883
 1406POPC   C4A21198  38.309  16.057   7.454
 1406POPC   C1B21199  38.780  16.162   8.800
 1406POPC   C2B21200  38.760  16.336   8.405
 1406POPC   C3B21201  38.688  16.211   8.008
 1406POPC   C4B21202  38.735  16.437   7.648
 1407POPC   NC321203  30.846  30.175   9.562
 1407POPC   PO421204  31.118  29.502   9.482
 1407POPC   GL121205  30.919  29.794   9.146
 1407POPC   GL221206  30.685  30.105   9.094
 1407POPC   C1A21207  30.737  29.751   8.724
 1407POPC   D2A21208  30.387  29.732   8.420
 1407POPC   C3A21209  30.552  29.770   7.972
 1407POPC   C4A21210  30.803  29.486   7.753
 1407POPC   C1B21211  30.431  30.152   8.733
 1407POPC   C2B21212  30.677  30.286   8.409
 1407POPC   C3B21213  30.815  30.192   8.035
 1407POPC   C4B21214  30.737  30.268   7.639
 1408POPC   NC321215  44.852  12.404   9.509
 1408POPC   PO421216  44.781  13.059   9.567
 1408POPC   GL121217  44.444  12.940   9.236
 1408POPC   GL221218  44.610  12.683   9.141
 1408POPC   C1A21219  44.433  13.088   8.782
 1408POPC   D2A21220  44.657  12.990   8.377
 1408POPC   C3A21221  44.463  13.004   7.961
 1408POPC   C4A21222  44.503  12.770   7.536
 1408POPC   C1B21223  44.775  12.405   8.794
 1408POPC   C2B21224  44.827  12.483   8.362
 1408POPC   C3B21225  44.671  12.529   7.963
 1408POPC   C4B21226  44.965  12.503   7.628
 1409POPC   NC321227   5.027   8.543   9.442
 1409POPC   PO421228   5.148   7.811   9.380
 1409POPC   GL121229   4.969   8.107   9.168
 1409POPC   GL221230   5.271   8.246   9.075
 1409POPC   C1A21231   4.824   8.149   8.755
 1409POPC   D2A21232   4.996   8.051   8.341
 1409POPC   C3A21233   4.888   8.269   7.989
 1409POPC   C4A21234   4.741   7.898   7.797
 1409POPC   C1B21235   5.374   8.069   8.691
 1409POPC   C2B21236   5.476   8.243   8.274
 1409POPC   C3B21237   5.350   8.169   7.857
 1409POPC   C4B21238   5.129   8.025   7.481
 1410POPC   NC321239  32.917  18.742   9.480
 1410POPC   PO421240  33.039  18.117   9.753
 1410POPC   GL121241  33.084  18.179   9.274
 1410POPC   GL221242  33.309  18.470   9.192
 1410POPC   C1A21243  32.946  18.118   8.821
 1410POPC   D2A21244  32.624  18.084   8.469
 1410POPC   C3A21245  32.760  17.993   8.040
 1410POPC   C4A21246  32.622  18.202   7.670
 1410POPC   C1B21247  33.119  18.603   8.824
 1410POPC   C2B21248  32.902  18.521   8.442
 1410POPC   C3B21249  32.987  18.591   7.995
 1410POPC   C4B21250  33.116  18.248   7.722
 1411POPC   NC321251  33.728  33.495   9.458
 1411POPC   PO421252  33.397  34.075   9.664
 1411POPC   GL121253  33.506  33.902   9.216
 1411POPC   GL221254  33.895  33.843   9.122
 1411POPC   C1A21255  33.552  33.749   8.768
 1411POPC   D2A21256  33.779  33.653   8.363
 1411POPC   C3A21257  33.599  33.877   7.993
 1411POPC   C4A21258  33.848  34.210   7.781
 1411POPC   C1B21259  33.982  33.442   8.813
 1411POPC   C2B21260  34.169  33.260   8.392
 1411POPC   C3B21261  34.021  33.190   7.932
 1411POPC   C4B21262  33.685  33.417   7.758
 1412POPC   NC321263  16.656  38.780   9.919
 1412POPC   PO421264  16.740  39.318   9.542
 1412POPC   GL121265  16.719  39.151   9.137
 1412POPC   GL221266  16.440  38.907   9.067
 1412POPC   C1A21267  16.944  39.221   8.744
 1412POPC   D2A21268  17.084  39.104   8.322
 1412POPC   C3A21269  16.899  39.321   8.004
 1412POPC   C4A21270  16.807  39.155   7.647
 1412POPC   C1B21271  16.392  39.126   8.735
 1412POPC   C2B21272  16.574  39.225   8.395
 1412POPC   C3B21273  16.388  39.199   8.055
 1412POPC   C4B21274  16.329  39.337   7.670
 1413POPC   NC321275  17.839   2.718   9.381
 1413POPC   PO421276  17.114   2.684   9.465
 1413POPC   GL121277  17.219   2.709   9.046
 1413POPC   GL221278  17.508   2.516   9.060
 1413POPC   C1A21279  17.429   2.900   8.685
 1413POPC   D2A21280  17.321   3.159   8.311
 1413POPC   C3A21281  17.392   2.949   7.904
 1413POPC   C4A21282  17.286   3.005   7.461
 1413POPC   C1B21283  17.437   2.361   8.676
 1413POPC   C2B21284  17.439   2.588   8.283
 1413POPC   C3B21285  17.772   2.593   7.970
 1413POPC   C4B21286  17.592   2.513   7.581
 1414POPC   NC321287  42.827   5.635   9.540
 1414POPC   PO421288  43.446   5.980   9.554
 1414POPC   GL121289  43.282   5.918   9.150
 1414POPC   GL221290  42.980   6.109   9.115
 1414POPC   C1A21291  43.252   5.725   8.738
 1414POPC   D2A21292  43.424   5.497   8.384
 1414POPC   C3A21293  43.205   5.532   7.981
 1414POPC   C4A21294  43.241   5.557   7.529
 1414POPC   C1B21295  43.210   6.233   8.716
 1414POPC   C2B21296  43.387   6.084   8.312
 1414POPC   C3B21297  43.152   6.040   7.910
 1414POPC   C4B21298  42.977   6.266   7.595
 1415POPC   NC321299   6.126  11.206   9.505
 1415POPC   PO421300   5.443  11.188   9.380
 1415POPC   GL121301   5.812  11.167   9.082
 1415POPC   GL221302   6.068  11.436   9.071
 1415POPC   C1A21303   6.124  11.086   8.725
 1415POPC   D2A21304   6.117  10.871   8.336
 1415POPC   C3A21305   6.192  11.080   7.943
 1415POPC   C4A21306   5.852  11.233   7.686
 1415POPC   C1B21307   5.819  11.512   8.695
 1415POPC   C2B21308   6.006  11.409   8.303
 1415POPC   C3B21309   6.097  11.590   7.944
 1415POPC   C4B21310   6.068  11.697   7.522
 1416POPC   NC321311  41.905  37.564   9.565
 1416POPC   PO421312  42.583  37.500   9.731
 1416POPC   GL121313  42.410  37.650   9.299
 1416POPC   GL221314  42.107  37.498   9.112
 1416POPC   C1A21315  42.477  37.706   8.858
 1416POPC   D2A21316  42.476  37.715   8.424
 1416POPC   C3A21317  42.442  37.792   7.983
 1416POPC   C4A21318  42.522  37.675   7.568
 1416POPC   C1B21319  42.119  37.363   8.681
 1416POPC   C2B21320  42.002  37.549   8.289
 1416POPC   C3B21321  42.079  37.427   7.872
 1416POPC   C4B21322  42.026  37.577   7.442
 1417POPC   NC321323  43.923   3.928   9.393
 1417POPC   PO421324  43.719   3.300   9.609
 1417POPC   GL121325  43.738   3.477   9.196
 1417POPC   GL221326  44.081   3.386   9.145
 1417POPC   C1A21327  43.569   3.758   8.840
 1417POPC   D2A21328  43.690   3.577   8.457
 1417POPC   C3A21329  43.666   3.727   8.061
 1417POPC   C4A21330  43.893   3.527   7.750
 1417POPC   C1B21331  44.074   3.707   8.813
 1417POPC   C2B21332  44.279   3.808   8.456
 1417POPC   C3B21333  44.215   3.904   8.027
 1417POPC   C4B21334  44.106   3.965   7.605
 1418POPC   NC321335  32.197   8.559   9.471
 1418POPC   PO421336  32.356   7.865   9.519
 1418POPC   GL121337  32.149   8.125   9.205
 1418POPC   GL221338  32.409   8.319   9.037
 1418POPC   C1A21339  32.021   8.122   8.778
 1418POPC   D2A21340  32.210   8.219   8.389
 1418POPC   C3A21341  31.966   8.093   8.051
 1418POPC   C4A21342  32.024   8.174   7.613
 1418POPC   C1B21343  32.565   8.527   8.678
 1418POPC   C2B21344  32.500   8.636   8.250
 1418POPC   C3B21345  32.436   8.339   7.904
 1418POPC   C4B21346  32.473   8.304   7.446
 1419POPC   NC321347  42.446  26.705   9.651
 1419POPC   PO421348  42.036  27.016   9.229
 1419POPC   GL121349  42.201  26.812   8.959
 1419POPC   GL221350  42.268  26.548   9.201
 1419POPC   C1A21351  42.156  26.916   8.535
 1419POPC   D2A21352  42.516  26.931   8.288
 1419POPC   C3A21353  42.437  27.000   7.876
 1419POPC   C4A21354  42.392  26.830   7.450
 1419POPC   C1B21355  42.452  26.349   8.841
 1419POPC   C2B21356  42.363  26.436   8.388
 1419POPC   C3B21357  42.540  26.510   7.987
 1419POPC   C4B21358  42.479  26.332   7.609
 1420POPC   NC321359  44.880   0.752   9.455
 1420POPC   PO421360  44.472   0.162   9.559
 1420POPC   GL121361  44.548   0.111   9.144
 1420POPC   GL221362  44.786   0.378   9.094
 1420POPC   C1A21363  44.477   0.192   8.715
 1420POPC   D2A21364  44.721   0.314   8.366
 1420POPC   C3A21365  44.535   0.377   7.969
 1420POPC   C4A21366  44.363   0.043   7.718
 1420POPC   C1B21367  44.965   0.590   8.720
 1420POPC   C2B21368  44.928   0.774   8.257
 1420POPC   C3B21369  44.882   0.709   7.761
 1420POPC   C4B21370  44.970   0.664   7.290
 1421POPC   NC321371  35.334  24.879   9.714
 1421POPC   PO421372  35.300  25.545   9.605
 1421POPC   GL121373  35.386  25.391   9.162
 1421POPC   GL221374  35.359  25.023   9.193
 1421POPC   C1A21375  35.561  25.520   8.742
 1421POPC   D2A21376  35.560  25.760   8.357
 1421POPC   C3A21377  35.504  25.450   8.020
 1421POPC   C4A21378  35.163  25.318   7.772
 1421POPC   C1B21379  35.312  25.078   8.743
 1421POPC   C2B21380  35.443  25.019   8.319
 1421POPC   C3B21381  35.282  24.841   7.946
 1421POPC   C4B21382  35.212  24.850   7.494
 1422POPC   NC321383  19.983  34.588   9.543
 1422POPC   PO421384  19.322  34.529   9.523
 1422POPC   GL121385  19.608  34.444   9.208
 1422POPC   GL221386  19.707  34.777   9.142
 1422POPC   C1A21387  19.549  34.431   8.772
 1422POPC   D2A21388  19.531  34.170   8.426
 1422POPC   C3A21389  19.651  34.387   8.038
 1422POPC   C4A21390  19.629  34.295   7.592
 1422POPC   C1B21391  19.854  34.863   8.722
 1422POPC   C2B21392  19.994  34.888   8.288
 1422POPC   C3B21393  19.845  34.837   7.851
 1422POPC   C4B21394  20.048  34.879   7.441
 1423POPC   NC321395   5.687  38.639   9.475
 1423POPC   PO421396   6.321  38.270   9.529
 1423POPC   GL121397   6.075  38.402   9.211
 1423POPC   GL221398   5.790  38.150   9.229
 1423POPC   C1A21399   6.099  38.682   8.863
 1423POPC   D2A21400   5.954  38.623   8.451
 1423POPC   C3A21401   6.098  38.723   8.078
 1423POPC   C4A21402   6.011  38.564   7.708
 1423POPC   C1B21403   5.726  38.338   8.826
 1423POPC   C2B21404   5.615  38.255   8.400
 1423POPC   C3B21405   5.589  38.424   7.977
 1423POPC   C4B21406   5.500  38.321   7.547
 1424POPC   NC321407  22.358  28.043   9.493
 1424POPC   PO421408  21.775  27.578   9.514
 1424POPC   GL121409  21.973  27.703   9.073
 1424POPC   GL221410  22.334  27.805   9.043
 1424POPC   C1A21411  22.094  27.554   8.609
 1424POPC   D2A21412  22.266  27.323   8.225
 1424POPC   C3A21413  22.058  27.432   7.861
 1424POPC   C4A21414  21.731  27.767   7.831
 1424POPC   C1B21415  22.502  27.857   8.628
 1424POPC   C2B21416  22.354  27.837   8.200
 1424POPC   C3B21417  22.423  27.767   7.776
 1424POPC   C4B21418  22.617  27.899   7.371
 1425POPC   NC321419  38.903  22.396   9.407
 1425POPC   PO421420  39.282  21.927   9.668
 1425POPC   GL121421  39.409  21.993   9.228
 1425POPC   GL221422  39.109  21.994   9.039
 1425POPC   C1A21423  39.593  22.099   8.819
 1425POPC   D2A21424  39.414  22.231   8.433
 1425POPC   C3A21425  39.548  22.246   8.067
 1425POPC   C4A21426  39.413  22.072   7.700
 1425POPC   C1B21427  39.059  21.910   8.579
 1425POPC   C2B21428  39.052  21.981   8.117
 1425POPC   C3B21429  38.930  22.224   7.776
 1425POPC   C4B21430  38.661  22.540   7.818
 1426POPC   NC321431  16.440   4.474   9.532
 1426POPC   PO421432  15.744   4.536   9.574
 1426POPC   GL121433  16.043   4.494   9.189
 1426POPC   GL221434  15.809   4.280   8.978
 1426POPC   C1A21435  16.226   4.433   8.759
 1426POPC   D2A21436  15.980   4.146   8.514
 1426POPC   C3A21437  16.120   4.167   8.141
 1426POPC   C4A21438  15.979   4.224   7.720
 1426POPC   C1B21439  15.624   3.894   8.813
 1426POPC   C2B21440  15.474   3.873   8.408
 1426POPC   C3B21441  15.671   3.937   8.012
 1426POPC   C4B21442  15.530   4.048   7.600
 1427POPC   NC321443   9.741  14.768   9.569
 1427POPC   PO421444   9.885  15.390   9.611
 1427POPC   GL121445   9.818  15.183   9.211
 1427POPC   GL221446   9.525  14.950   9.135
 1427POPC   C1A21447   9.705  15.283   8.789
 1427POPC   D2A21448   9.873  15.454   8.438
 1427POPC   C3A21449   9.695  15.320   8.063
 1427POPC   C4A21450   9.979  15.243   7.737
 1427POPC   C1B21451   9.674  14.792   8.704
 1427POPC   C2B21452   9.678  14.835   8.220
 1427POPC   C3B21453   9.717  14.812   7.728
 1427POPC   C4B21454   9.545  14.724   7.289
 1428POPC   NC321455  23.443  32.470   9.323
 1428POPC   PO421456  23.776  31.968   9.362
 1428POPC   GL121457  23.828  32.140   8.997
 1428POPC   GL221458  24.158  32.321   9.099
 1428POPC   C1A21459  23.446  32.150   8.720
 1428POPC   D2A21460  23.252  32.095   8.308
 1428POPC   C3A21461  23.548  32.234   8.001
 1428POPC   C4A21462  23.607  32.607   7.727
 1428POPC   C1B21463  24.117  32.468   8.723
 1428POPC   C2B21464  23.862  32.413   8.386
 1428POPC   C3B21465  24.003  32.454   7.991
 1428POPC   C4B21466  23.986  32.156   7.675
 1429POPC   NC321467  32.214  33.993   9.567
 1429POPC   PO421468  32.426  34.595   9.682
 1429POPC   GL121469  32.460  34.612   9.215
 1429POPC   GL221470  32.335  34.912   9.057
 1429POPC   C1A21471  32.327  34.500   8.762
 1429POPC   D2A21472  32.034  34.486   8.389
 1429POPC   C3A21473  32.083  34.207   8.035
 1429POPC   C4A21474  32.087  34.341   7.608
 1429POPC   C1B21475  32.582  34.971   8.692
 1429POPC   C2B21476  32.486  34.744   8.307
 1429POPC   C3B21477  32.216  34.731   7.940
 1429POPC   C4B21478  32.436  34.728   7.545
 1430POPC   NC321479  35.174  18.573  10.139
 1430POPC   PO421480  35.584  18.275   9.604
 1430POPC   GL121481  35.423  18.206   9.205
 1430POPC   GL221482  35.716  18.413   9.109
 1430POPC   C1A21483  35.161  18.337   8.837
 1430POPC   D2A21484  34.909  18.240   8.464
 1430POPC   C3A21485  35.152  18.358   8.104
 1430POPC   C4A21486  35.088  18.452   7.683
 1430POPC   C1B21487  35.661  18.368   8.662
 1430POPC   C2B21488  35.682  18.364   8.202
 1430POPC   C3B21489  35.578  18.339   7.759
 1430POPC   C4B21490  35.476  18.594   7.397
 1431POPC   NC321491   3.913  31.830   9.913
 1431POPC   PO421492   3.962  32.333   9.412
 1431POPC   GL121493   3.734  32.255   9.021
 1431POPC   GL221494   3.357  32.295   9.066
 1431POPC   C1A21495   3.865  32.091   8.622
 1431POPC   D2A21496   3.602  32.194   8.296
 1431POPC   C3A21497   3.436  31.902   8.023
 1431POPC   C4A21498   3.658  32.172   7.745
 1431POPC   C1B21499   3.044  32.271   8.725
 1431POPC   C2B21500   3.094  32.200   8.284
 1431POPC   C3B21501   3.194  32.333   7.867
 1431POPC   C4B21502   3.262  32.166   7.436
 1432POPC   NC321503  18.626  34.695   9.592
 1432POPC   PO421504  18.165  34.302   9.614
 1432POPC   GL121505  18.272  34.631   9.231
 1432POPC   GL221506  18.586  34.851   9.128
 1432POPC   C1A21507  18.189  34.725   8.785
 1432POPC   D2A21508  17.888  34.621   8.449
 1432POPC   C3A21509  18.152  34.569   8.076
 1432POPC   C4A21510  18.075  34.724   7.667
 1432POPC   C1B21511  18.770  34.752   8.761
 1432POPC   C2B21512  18.614  34.598   8.401
 1432POPC   C3B21513  18.784  34.592   8.029
 1432POPC   C4B21514  18.564  34.634   7.699
 1433POPC   NC321515  18.391  16.110   9.476
 1433POPC   PO421516  18.003  15.549   9.315
 1433POPC   GL121517  18.425  15.686   9.036
 1433POPC   GL221518  18.496  16.040   8.990
 1433POPC   C1A21519  18.603  15.765   8.592
 1433POPC   D2A21520  18.409  16.070   8.293
 1433POPC   C3A21521  18.386  15.942   7.858
 1433POPC   C4A21522  18.110  16.083   7.495
 1433POPC   C1B21523  18.740  16.275   8.651
 1433POPC   C2B21524  18.651  16.524   8.271
 1433POPC   C3B21525  18.744  16.403   7.883
 1433POPC   C4B21526  18.565  16.289   7.515
 1434POPC   NC321527  44.338   4.837   9.417
 1434POPC   PO421528  44.905   5.227   9.467
 1434POPC   GL121529  44.747   4.999   9.115
 1434POPC   GL221530  44.773   4.651   9.193
 1434POPC   C1A21531  44.573   4.937   8.686
 1434POPC   D2A21532  44.318   5.196   8.421
 1434POPC   C3A21533  44.470   5.351   8.036
 1434POPC   C4A21534  44.841   5.214   7.827
 1434POPC   C1B21535  44.877   4.531   8.763
 1434POPC   C2B21536  44.813   4.514   8.328
 1434POPC   C3B21537  44.602   4.842   8.132
 1434POPC   C4B21538  44.379   4.913   7.756
 1435POPC   NC321539  17.556  43.415   9.647
 1435POPC   PO421540  17.282  42.873   9.565
 1435POPC   GL121541  17.459  43.121   9.221
 1435POPC   GL221542  17.342  43.456   9.176
 1435POPC   C1A21543  17.400  43.101   8.762
 1435POPC   D2A21544  17.604  42.933   8.389
 1435POPC   C3A21545  17.529  42.785   7.958
 1435POPC   C4A21546  17.647  42.992   7.538
 1435POPC   C1B21547  17.741  43.444   8.917
 1435POPC   C2B21548  17.871  43.414   8.444
 1435POPC   C3B21549  17.758  43.248   8.002
 1435POPC   C4B21550  17.311  43.234   7.829
 1436POPC   NC321551  10.307  11.127   9.485
 1436POPC   PO421552  10.832  11.589   9.578
 1436POPC   GL121553  10.594  11.475   9.210
 1436POPC   GL221554  10.236  11.497   9.150
 1436POPC   C1A21555  10.602  11.256   8.807
 1436POPC   D2A21556  10.416  11.416   8.422
 1436POPC   C3A21557  10.730  11.377   8.117
 1436POPC   C4A21558  10.794  11.244   7.705
 1436POPC   C1B21559  10.110  11.164   8.852
 1436POPC   C2B21560  10.124  10.973   8.431
 1436POPC   C3B21561  10.294  11.071   8.014
 1436POPC   C4B21562  10.335  11.480   7.768
 1437POPC   NC321563  26.759   7.071   9.872
 1437POPC   PO421564  26.705   6.548   9.486
 1437POPC   GL121565  26.802   6.559   9.064
 1437POPC   GL221566  27.114   6.387   9.060
 1437POPC   C1A21567  26.978   6.781   8.704
 1437POPC   D2A21568  27.152   6.655   8.292
 1437POPC   C3A21569  26.972   6.889   7.998
 1437POPC   C4A21570  26.691   6.757   7.708
 1437POPC   C1B21571  27.338   6.378   8.681
 1437POPC   C2B21572  27.218   6.147   8.318
 1437POPC   C3B21573  27.137   6.157   7.906
 1437POPC   C4B21574  27.163   6.523   7.691
 1438POPC   NC321575  26.780  18.528   9.534
 1438POPC   PO421576  27.033  19.231   9.467
 1438POPC   GL121577  26.828  19.099   9.101
 1438POPC   GL221578  26.830  18.751   9.100
 1438POPC   C1A21579  26.756  18.973   8.647
 1438POPC   D2A21580  26.928  19.123   8.246
 1438POPC   C3A21581  26.646  19.311   7.916
 1438POPC   C4A21582  26.405  19.010   7.688
 1438POPC   C1B21583  27.095  18.582   8.809
 1438POPC   C2B21584  27.074  18.587   8.394
 1438POPC   C3B21585  27.101  18.579   7.961
 1438POPC   C4B21586  26.914  18.906   7.716
 1439POPC   NC321587  36.669   8.378   9.611
 1439POPC   PO421588  36.940   7.801   9.549
 1439POPC   GL121589  36.801   8.086   9.211
 1439POPC   GL221590  36.974   8.406   9.219
 1439POPC   C1A21591  36.658   8.169   8.804
 1439POPC   D2A21592  36.897   8.168   8.439
 1439POPC   C3A21593  36.704   8.065   8.029
 1439POPC   C4A21594  36.893   8.220   7.648
 1439POPC   C1B21595  36.871   8.627   8.854
 1439POPC   C2B21596  36.804   8.682   8.419
 1439POPC   C3B21597  37.017   8.493   8.066
 1439POPC   C4B21598  37.372   8.605   7.798
 1440POPC   NC321599  38.390  31.574   9.725
 1440POPC   PO421600  38.575  30.973   9.732
 1440POPC   GL121601  38.489  31.199   9.291
 1440POPC   GL221602  38.199  31.385   9.148
 1440POPC   C1A21603  38.573  31.411   8.846
 1440POPC   D2A21604  38.628  31.729   8.537
 1440POPC   C3A21605  38.776  31.541   8.154
 1440POPC   C4A21606  38.496  31.370   7.857
 1440POPC   C1B21607  38.117  31.670   8.771
 1440POPC   C2B21608  38.154  31.863   8.360
 1440POPC   C3B21609  38.097  31.647   7.995
 1440POPC   C4B21610  38.036  31.492   7.589
 1441POPC   NC321611  12.167  32.664   9.420
 1441POPC   PO421612  12.053  31.985   9.458
 1441POPC   GL121613  12.153  32.219   9.084
 1441POPC   GL221614  12.495  32.186   8.949
 1441POPC   C1A21615  11.910  32.143   8.697
 1441POPC   D2A21616  11.825  31.897   8.300
 1441POPC   C3A21617  11.903  32.177   7.949
 1441POPC   C4A21618  12.050  32.410   7.614
 1441POPC   C1B21619  12.320  32.509   8.669
 1441POPC   C2B21620  12.250  32.432   8.237
 1441POPC   C3B21621  12.509  32.460   7.889
 1441POPC   C4B21622  12.514  32.490   7.483
 1442POPC   NC321623  36.872  40.253   9.685
 1442POPC   PO421624  36.511  39.731   9.389
 1442POPC   GL121625  36.679  39.908   9.024
 1442POPC   GL221626  36.995  40.076   9.163
 1442POPC   C1A21627  36.773  40.243   8.758
 1442POPC   D2A21628  37.041  40.188   8.468
 1442POPC   C3A21629  36.821  40.196   8.145
 1442POPC   C4A21630  36.908  40.213   7.762
 1442POPC   C1B21631  37.264  39.831   8.805
 1442POPC   C2B21632  37.348  39.732   8.341
 1442POPC   C3B21633  37.173  39.801   7.915
 1442POPC   C4B21634  37.253  39.602   7.471
 1443POPC   NC321635  20.240  23.056   9.440
 1443POPC   PO421636  20.863  22.679   9.560
 1443POPC   GL121637  20.619  22.736   9.163
 1443POPC   GL221638  20.311  22.557   9.196
 1443POPC   C1A21639  20.680  22.829   8.702
 1443POPC   D2A21640  20.881  22.800   8.275
 1443POPC   C3A21641  20.678  23.007   7.920
 1443POPC   C4A21642  20.316  23.322   7.904
 1443POPC   C1B21643  20.169  22.633   8.758
 1443POPC   C2B21644  20.292  22.833   8.352
 1443POPC   C3B21645  20.181  22.838   7.927
 1443POPC   C4B21646  20.240  22.540   7.626
 1444POPC   NC321647  40.860  27.833   9.598
 1444POPC   PO421648  40.485  27.413   9.284
 1444POPC   GL121649  40.847  27.620   9.063
 1444POPC   GL221650  40.987  27.958   9.135
 1444POPC   C1A21651  40.970  27.517   8.621
 1444POPC   D2A21652  41.195  27.623   8.207
 1444POPC   C3A21653  40.958  27.480   7.865
 1444POPC   C4A21654  40.569  27.192   7.876
 1444POPC   C1B21655  40.915  28.029   8.719
 1444POPC   C2B21656  40.732  27.933   8.350
 1444POPC   C3B21657  40.708  27.929   7.947
 1444POPC   C4B21658  41.075  27.984   7.810
 1445POPC   NC321659  19.419   3.058   9.420
 1445POPC   PO421660  18.905   2.672   9.462
 1445POPC   GL121661  19.126   2.657   9.131
 1445POPC   GL221662  19.123   2.986   9.018
 1445POPC   C1A21663  18.943   2.617   8.753
 1445POPC   D2A21664  19.103   2.568   8.423
 1445POPC   C3A21665  18.807   2.465   8.134
 1445POPC   C4A21666  19.016   2.726   7.844
 1445POPC   C1B21667  19.188   3.113   8.605
 1445POPC   C2B21668  19.554   3.065   8.348
 1445POPC   C3B21669  19.499   2.995   7.923
 1445POPC   C4B21670  19.405   3.000   7.470
 1446POPC   NC321671  21.571  43.528   9.381
 1446POPC   PO421672  21.759  42.873   9.311
 1446POPC   GL121673  21.404  42.872   9.038
 1446POPC   GL221674  21.167  43.139   9.061
 1446POPC   C1A21675  21.310  42.830   8.622
 1446POPC   D2A21676  21.372  43.047   8.247
 1446POPC   C3A21677  21.361  42.868   7.854
 1446POPC   C4A21678  21.475  43.011   7.458
 1446POPC   C1B21679  21.372  43.334   8.697
 1446POPC   C2B21680  21.194  43.548   8.342
 1446POPC   C3B21681  21.098  43.371   7.947
 1446POPC   C4B21682  21.171  43.406   7.490
 1447POPC   NC321683   3.847  40.686   9.619
 1447POPC   PO421684   3.212  40.662   9.490
 1447POPC   GL121685   3.241  40.874   9.090
 1447POPC   GL221686   3.590  40.867   9.171
 1447POPC   C1A21687   3.299  40.719   8.667
 1447POPC   D2A21688   3.570  40.464   8.364
 1447POPC   C3A21689   3.489  40.578   7.903
 1447POPC   C4A21690   3.514  40.566   7.413
 1447POPC   C1B21691   3.814  40.642   8.821
 1447POPC   C2B21692   4.019  40.839   8.472
 1447POPC   C3B21693   3.940  40.724   8.052
 1447POPC   C4B21694   3.820  40.889   7.631
 1448POPC   NC321695  44.203  22.768   9.424
 1448POPC   PO421696  43.518  23.021   9.446
 1448POPC   GL121697  43.675  22.913   9.048
 1448POPC   GL221698  44.035  23.026   9.012
 1448POPC   C1A21699  43.673  23.102   8.617
 1448POPC   D2A21700  43.606  23.344   8.221
 1448POPC   C3A21701  43.856  23.062   7.939
 1448POPC   C4A21702  43.856  22.645   7.731
 1448POPC   C1B21703  44.031  22.648   8.740
 1448POPC   C2B21704  44.036  22.518   8.295
 1448POPC   C3B21705  44.275  22.716   8.005
 1448POPC   C4B21706  44.352  23.112   7.776
 1449POPC   NC321707  17.209   4.795   9.552
 1449POPC   PO421708  17.666   5.184   9.582
 1449POPC   GL121709  17.559   5.194   9.115
 1449POPC   GL221710  17.250   5.013   9.082
 1449POPC   C1A21711  17.447   5.235   8.648
 1449POPC   D2A21712  17.619   5.092   8.251
 1449POPC   C3A21713  17.631   5.314   7.848
 1449POPC   C4A21714  17.624   5.015   7.515
 1449POPC   C1B21715  17.211   4.778   8.693
 1449POPC   C2B21716  17.091   4.930   8.299
 1449POPC   C3B21717  17.276   4.903   7.907
 1449POPC   C4B21718  17.217   4.709   7.533
 1450POPC   NC321719  35.348   2.678   9.476
 1450POPC   PO421720  34.890   3.241   9.269
 1450POPC   GL121721  35.236   3.123   8.996
 1450POPC   GL221722  35.505   2.929   9.077
 1450POPC   C1A21723  35.291   3.006   8.604
 1450POPC   D2A21724  35.026   2.998   8.278
 1450POPC   C3A21725  35.273   2.994   7.919
 1450POPC   C4A21726  35.393   2.614   7.723
 1450POPC   C1B21727  35.340   2.553   8.847
 1450POPC   C2B21728  35.305   2.496   8.397
 1450POPC   C3B21729  35.621   2.349   8.088
 1450POPC   C4B21730  35.838   2.350   7.683
 1451POPC   NC321731  23.434  11.101   9.598
 1451POPC   PO421732  23.853  11.617   9.722
 1451POPC   GL121733  23.516  11.520   9.328
 1451POPC   GL221734  23.697  11.232   9.183
 1451POPC   C1A21735  23.448  11.520   8.829
 1451POPC   D2A21736  23.653  11.316   8.461
 1451POPC   C3A21737  23.463  11.247   8.057
 1451POPC   C4A21738  23.432  11.227   7.623
 1451POPC   C1B21739  23.882  11.015   8.852
 1451POPC   C2B21740  24.145  11.024   8.543
 1451POPC   C3B21741  24.088  11.211   8.135
 1451POPC   C4B21742  23.947  11.174   7.718
 1452POPC   NC321743   0.474  37.347   9.490
 1452POPC   PO421744   0.907  36.849   9.512
 1452POPC   GL121745   0.640  36.954   9.167
 1452POPC   GL221746   0.809  36.947   8.873
 1452POPC   C1A21747   0.273  37.027   8.891
 1452POPC   D2A21748   0.114  36.834   8.501
 1452POPC   C3A21749   0.263  36.903   8.054
 1452POPC   C4A21750   0.357  36.814   7.606
 1452POPC   C1B21751   0.564  36.645   8.703
 1452POPC   C2B21752   0.438  36.485   8.323
 1452POPC   C3B21753   0.638  36.491   7.950
 1452POPC   C4B21754   0.915  36.670   7.666
 1453POPC   NC321755  23.276   2.188   9.327
 1453POPC   PO421756  22.678   2.258   9.642
 1453POPC   GL121757  22.762   2.226   9.193
 1453POPC   GL221758  22.889   1.869   9.174
 1453POPC   C1A21759  22.794   2.070   8.740
 1453POPC   D2A21760  23.027   2.104   8.385
 1453POPC   C3A21761  22.828   1.896   8.076
 1453POPC   C4A21762  22.972   2.000   7.669
 1453POPC   C1B21763  23.203   1.784   8.783
 1453POPC   C2B21764  23.472   1.839   8.408
 1453POPC   C3B21765  23.311   1.742   7.999
 1453POPC   C4B21766  23.359   1.653   7.560
 1454POPC   NC321767  18.640   9.394   9.520
 1454POPC   PO421768  18.104   9.068   9.501
 1454POPC   GL121769  18.455   9.012   9.195
 1454POPC   GL221770  18.560   8.656   9.105
 1454POPC   C1A21771  18.663   9.070   8.796
 1454POPC   D2A21772  18.479   9.010   8.366
 1454POPC   C3A21773  18.487   9.086   7.907
 1454POPC   C4A21774  18.596   8.838   7.545
 1454POPC   C1B21775  18.219   8.801   8.793
 1454POPC   C2B21776  18.032   8.750   8.380
 1454POPC   C3B21777  17.986   8.950   7.978
 1454POPC   C4B21778  18.099   8.789   7.585
 1455POPC   NC321779  15.428  40.605   9.330
 1455POPC   PO421780  14.851  40.833   9.364
 1455POPC   GL121781  15.110  40.898   9.026
 1455POPC   GL221782  15.334  41.153   9.139
 1455POPC   C1A21783  15.194  40.622   8.678
 1455POPC   D2A21784  15.521  40.486   8.393
 1455POPC   C3A21785  15.512  40.632   8.004
 1455POPC   C4A21786  15.099  40.636   7.874
 1455POPC   C1B21787  15.533  41.107   8.760
 1455POPC   C2B21788  15.375  40.990   8.377
 1455POPC   C3B21789  15.331  41.114   7.975
 1455POPC   C4B21790  15.066  41.087   7.632
 1456POPC   NC321791  11.632  43.389   9.703
 1456POPC   PO421792  11.395  42.769   9.545
 1456POPC   GL121793  11.546  42.804   9.134
 1456POPC   GL221794  11.186  42.874   9.057
 1456POPC   C1A21795  11.565  42.826   8.683
 1456POPC   D2A21796  11.791  42.882   8.300
 1456POPC   C3A21797  11.521  42.769   7.971
 1456POPC   C4A21798  11.189  42.931   7.765
 1456POPC   C1B21799  11.069  42.979   8.636
 1456POPC   C2B21800  11.349  43.253   8.420
 1456POPC   C3B21801  11.501  43.292   8.021
 1456POPC   C4B21802  11.524  43.294   7.564
 1457POPC   NC321803  20.959  11.159   9.261
 1457POPC   PO421804  20.411  11.247   9.641
 1457POPC   GL121805  20.445  11.285   9.211
 1457POPC   GL221806  20.645  11.577   9.243
 1457POPC   C1A21807  20.433  11.088   8.794
 1457POPC   D2A21808  20.245  10.975   8.373
 1457POPC   C3A21809  20.496  11.122   8.001
 1457POPC   C4A21810  20.407  11.371   7.627
 1457POPC   C1B21811  20.537  11.636   8.812
 1457POPC   C2B21812  20.439  11.497   8.393
 1457POPC   C3B21813  20.594  11.631   8.003
 1457POPC   C4B21814  20.710  11.781   7.592
 1458POPC   NC321815  18.421  25.762   9.497
 1458POPC   PO421816  17.847  26.138   9.523
 1458POPC   GL121817  17.870  25.885   9.116
 1458POPC   GL221818  17.803  26.224   9.015
 1458POPC   C1A21819  18.179  25.643   8.756
 1458POPC   D2A21820  18.470  25.705   8.365
 1458POPC   C3A21821  18.287  25.865   7.960
 1458POPC   C4A21822  18.376  26.268   7.738
 1458POPC   C1B21823  18.004  26.111   8.663
 1458POPC   C2B21824  17.912  25.931   8.322
 1458POPC   C3B21825  17.857  26.172   7.979
 1458POPC   C4B21826  17.923  26.032   7.623
 1459POPC   NC321827   2.577  30.183   9.547
 1459POPC   PO421828   3.053  29.668   9.547
 1459POPC   GL121829   2.932  29.954   9.209
 1459POPC   GL221830   2.568  29.926   9.093
 1459POPC   C1A21831   2.948  29.860   8.782
 1459POPC   D2A21832   2.657  29.793   8.466
 1459POPC   C3A21833   2.718  29.992   8.088
 1459POPC   C4A21834   2.654  29.920   7.701
 1459POPC   C1B21835   2.534  30.235   8.722
 1459POPC   C2B21836   2.590  30.433   8.298
 1459POPC   C3B21837   2.357  30.349   7.895
 1459POPC   C4B21838   1.962  30.267   7.661
 1460POPC   NC321839  34.028  20.134   9.562
 1460POPC   PO421840  33.428  19.824   9.709
 1460POPC   GL121841  33.637  19.856   9.252
 1460POPC   GL221842  33.933  19.984   9.094
 1460POPC   C1A21843  33.539  19.958   8.788
 1460POPC   D2A21844  33.807  19.944   8.422
 1460POPC   C3A21845  33.665  20.094   8.040
 1460POPC   C4A21846  33.875  20.080   7.648
 1460POPC   C1B21847  33.964  19.638   8.809
 1460POPC   C2B21848  34.130  19.517   8.395
 1460POPC   C3B21849  34.029  19.687   7.976
 1460POPC   C4B21850  33.945  19.600   7.531
 1461POPC   NC321851  25.236  15.861   9.559
 1461POPC   PO421852  24.899  16.474   9.559
 1461POPC   GL121853  25.113  16.202   9.218
 1461POPC   GL221854  24.919  16.362   9.037
 1461POPC   C1A21855  25.502  16.035   8.899
 1461POPC   D2A21856  25.506  16.056   8.388
 1461POPC   C3A21857  25.476  15.719   8.031
 1461POPC   C4A21858  25.647  15.677   7.591
 1461POPC   C1B21859  25.101  16.219   8.695
 1461POPC   C2B21860  24.962  16.031   8.346
 1461POPC   C3B21861  25.018  16.227   8.004
 1461POPC   C4B21862  25.288  16.103   7.723
 1462POPC   NC321863  35.214  38.946   9.438
 1462POPC   PO421864  35.854  39.055   9.723
 1462POPC   GL121865  35.576  39.231   9.248
 1462POPC   GL221866  35.775  39.345   8.957
 1462POPC   C1A21867  35.281  39.257   8.861
 1462POPC   D2A21868  34.990  39.141   8.515
 1462POPC   C3A21869  35.121  39.230   8.068
 1462POPC   C4A21870  35.469  39.452   7.903
 1462POPC   C1B21871  35.685  38.973   8.655
 1462POPC   C2B21872  35.642  38.720   8.268
 1462POPC   C3B21873  35.557  38.931   7.865
 1462POPC   C4B21874  35.768  39.191   7.573
 1463POPC   NC321875   3.751  22.567   9.625
 1463POPC   PO421876   3.344  21.997   9.649
 1463POPC   GL121877   3.537  22.213   9.273
 1463POPC   GL221878   3.439  22.553   9.211
 1463POPC   C1A21879   3.401  22.113   8.837
 1463POPC   D2A21880   3.568  22.076   8.430
 1463POPC   C3A21881   3.363  22.016   8.077
 1463POPC   C4A21882   3.562  22.101   7.712
 1463POPC   C1B21883   3.678  22.536   8.832
 1463POPC   C2B21884   3.541  22.588   8.459
 1463POPC   C3B21885   3.577  22.487   8.059
 1463POPC   C4B21886   3.231  22.544   7.792
 1464POPC   NC321887  20.748  19.880   9.580
 1464POPC   PO421888  21.351  19.796   9.625
 1464POPC   GL121889  21.156  19.763   9.235
 1464POPC   GL221890  21.489  19.854   9.073
 1464POPC   C1A21891  21.030  19.838   8.831
 1464POPC   D2A21892  21.342  19.875   8.511
 1464POPC   C3A21893  21.189  20.025   8.125
 1464POPC   C4A21894  21.192  19.935   7.716
 1464POPC   C1B21895  21.753  19.662   8.741
 1464POPC   C2B21896  21.737  19.567   8.299
 1464POPC   C3B21897  21.657  19.833   7.928
 1464POPC   C4B21898  21.731  19.757   7.500
 1465POPC   NC321899  41.181   8.575   9.371
 1465POPC   PO421900  40.922   7.941   9.566
 1465POPC   GL121901  40.979   7.927   9.158
 1465POPC   GL221902  40.847   8.267   9.123
 1465POPC   C1A21903  40.824   7.930   8.720
 1465POPC   D2A21904  40.726   7.691   8.344
 1465POPC   C3A21905  40.929   7.891   8.017
 1465POPC   C4A21906  40.787   8.055   7.622
 1465POPC   C1B21907  40.963   8.447   8.735
 1465POPC   C2B21908  41.019   8.280   8.339
 1465POPC   C3B21909  41.013   8.408   7.904
 1465POPC   C4B21910  40.952   8.475   7.400
 1466POPC   NC321911  26.318  28.622   9.534
 1466POPC   PO421912  26.895  28.311   9.684
 1466POPC   GL121913  26.903  28.214   9.266
 1466POPC   GL221914  26.661  28.470   9.153
 1466POPC   C1A21915  26.880  28.109   8.836
 1466POPC   D2A21916  26.833  28.362   8.472
 1466POPC   C3A21917  26.884  28.188   8.077
 1466POPC   C4A21918  27.014  28.320   7.707
 1466POPC   C1B21919  26.575  28.688   8.750
 1466POPC   C2B21920  26.465  28.719   8.328
 1466POPC   C3B21921  26.713  28.661   7.951
 1466POPC   C4B21922  26.507  28.641   7.575
 1467POPC   NC321923  28.710   5.704   9.603
 1467POPC   PO421924  29.391   6.026   9.507
 1467POPC   GL121925  29.284   5.860   9.157
 1467POPC   GL221926  29.073   5.595   9.252
 1467POPC   C1A21927  29.138   5.974   8.769
 1467POPC   D2A21928  29.011   5.814   8.412
 1467POPC   C3A21929  29.149   5.928   8.014
 1467POPC   C4A21930  29.271   5.659   7.647
 1467POPC   C1B21931  28.920   5.498   8.840
 1467POPC   C2B21932  28.935   5.304   8.458
 1467POPC   C3B21933  28.985   5.444   8.045
 1467POPC   C4B21934  28.796   5.324   7.683
 1468POPC   NC321935  31.579  36.875   9.644
 1468POPC   PO421936  31.970  36.343   9.699
 1468POPC   GL121937  31.705  36.510   9.292
 1468POPC   GL221938  31.515  36.838   9.159
 1468POPC   C1A21939  31.661  36.554   8.799
 1468POPC   D2A21940  31.298  36.535   8.532
 1468POPC   C3A21941  31.211  36.704   8.148
 1468POPC   C4A21942  31.368  36.663   7.759
 1468POPC   C1B21943  31.474  37.002   8.733
 1468POPC   C2B21944  31.647  36.896   8.310
 1468POPC   C3B21945  31.529  37.099   7.938
 1468POPC   C4B21946  31.195  37.323   7.781
 1469POPC   NC321947   2.799  36.221   9.384
 1469POPC   PO421948   2.167  36.192   9.319
 1469POPC   GL121949   2.473  36.167   8.988
 1469POPC   GL221950   2.521  36.495   9.012
 1469POPC   C1A21951   2.879  36.187   8.725
 1469POPC   D2A21952   2.990  36.446   8.326
 1469POPC   C3A21953   2.914  36.214   7.937
 1469POPC   C4A21954   2.698  35.850   7.739
 1469POPC   C1B21955   2.548  36.531   8.598
 1469POPC   C2B21956   2.523  36.212   8.298
 1469POPC   C3B21957   2.396  36.247   7.886
 1469POPC   C4B21958   2.611  36.483   7.618
 1470POPC   NC321959  16.549   2.528   9.880
 1470POPC   PO421960  16.303   3.013   9.420
 1470POPC   GL121961  16.728   2.990   9.199
 1470POPC   GL221962  16.694   2.727   8.951
 1470POPC   C1A21963  16.968   3.114   8.802
 1470POPC   D2A21964  16.977   2.802   8.461
 1470POPC   C3A21965  16.901   2.946   8.030
 1470POPC   C4A21966  16.857   2.744   7.650
 1470POPC   C1B21967  16.556   2.525   8.568
 1470POPC   C2B21968  16.479   2.803   8.289
 1470POPC   C3B21969  16.415   2.807   7.902
 1470POPC   C4B21970  16.348   2.417   7.682
 1471POPC   NC321971  19.666   6.226   9.595
 1471POPC   PO421972  20.088   6.756   9.438
 1471POPC   GL121973  19.979   6.608   9.071
 1471POPC   GL221974  19.696   6.435   9.132
 1471POPC   C1A21975  20.099   6.585   8.653
 1471POPC   D2A21976  19.890   6.365   8.303
 1471POPC   C3A21977  19.922   6.606   7.925
 1471POPC   C4A21978  20.030   6.623   7.500
 1471POPC   C1B21979  19.576   6.529   8.704
 1471POPC   C2B21980  19.386   6.378   8.305
 1471POPC   C3B21981  19.557   6.238   7.907
 1471POPC   C4B21982  19.514   6.539   7.585
 1472POPC   NC321983  11.605  13.454   9.425
 1472POPC   PO421984  11.144  13.972   9.478
 1472POPC   GL121985  11.201  13.663   9.138
 1472POPC   GL221986  10.931  13.860   8.976
 1472POPC   C1A21987  11.511  13.464   8.798
 1472POPC   D2A21988  11.757  13.443   8.434
 1472POPC   C3A21989  11.479  13.384   8.116
 1472POPC   C4A21990  11.365  13.409   7.686
 1472POPC   C1B21991  11.329  13.930   8.715
 1472POPC   C2B21992  11.532  13.894   8.303
 1472POPC   C3B21993  11.334  13.861   7.907
 1472POPC   C4B21994  10.958  13.906   7.711
 1473POPC   NC321995   3.608  24.933   9.282
 1473POPC   PO421996   3.861  25.386   9.685
 1473POPC   GL121997   3.711  25.457   9.206
 1473POPC   GL221998   3.435  25.273   8.964
 1473POPC   C1A21999   3.777  25.515   8.741
 1473POPC   D2A22000   3.484  25.322   8.449
 1473POPC   C3A22001   3.600  25.208   8.063
 1473POPC   C4A22002   3.629  25.444   7.716
 1473POPC   C1B22003   3.298  24.909   8.716
 1473POPC   C2B22004   3.420  24.766   8.318
 1473POPC   C3B22005   3.298  24.844   7.911
 1473POPC   C4B22006   3.480  24.910   7.513
 1474POPC   NC322007  27.988  40.365   9.469
 1474POPC   PO422008  28.270  40.913   9.646
 1474POPC   GL122009  28.307  40.722   9.209
 1474POPC   GL222010  28.675  40.610   9.091
 1474POPC   C1A22011  28.303  40.632   8.758
 1474POPC   D2A22012  28.642  40.882   8.552
 1474POPC   C3A22013  28.536  41.064   8.158
 1474POPC   C4A22014  28.323  40.881   7.799
 1474POPC   C1B22015  28.784  40.415   8.707
 1474POPC   C2B22016  28.556  40.370   8.357
 1474POPC   C3B22017  28.586  40.508   7.986
 1474POPC   C4B22018  28.598  40.465   7.539
 1475POPC   NC322019  33.718   3.706   9.646
 1475POPC   PO422020  33.896   3.151   9.337
 1475POPC   GL122021  33.652   3.387   9.113
 1475POPC   GL222022  33.839   3.710   9.125
 1475POPC   C1A22023  33.719   3.431   8.681
 1475POPC   D2A22024  33.911   3.738   8.485
 1475POPC   C3A22025  34.092   3.663   8.078
 1475POPC   C4A22026  33.937   3.493   7.716
 1475POPC   C1B22027  33.484   3.842   8.916
 1475POPC   C2B22028  33.393   3.923   8.491
 1475POPC   C3B22029  33.583   3.826   8.095
 1475POPC   C4B22030  33.451   3.635   7.721
 1476POPC   NC322031   5.297  37.806   9.638
 1476POPC   PO422032   4.660  37.888   9.498
 1476POPC   GL122033   5.010  37.690   9.230
 1476POPC   GL222034   5.243  37.960   9.155
 1476POPC   C1A22035   5.128  37.508   8.818
 1476POPC   D2A22036   4.874  37.380   8.424
 1476POPC   C3A22037   5.068  37.545   8.029
 1476POPC   C4A22038   5.466  37.471   7.803
 1476POPC   C1B22039   5.461  37.906   8.787
 1476POPC   C2B22040   5.375  37.721   8.403
 1476POPC   C3B22041   5.431  37.935   8.026
 1476POPC   C4B22042   5.203  37.917   7.659
 1477POPC   NC322043  23.473   4.701   9.505
 1477POPC   PO422044  23.908   4.241   9.391
 1477POPC   GL122045  23.601   4.291   9.062
 1477POPC   GL222046  23.418   4.601   9.017
 1477POPC   C1A22047  23.711   4.040   8.698
 1477POPC   D2A22048  24.056   4.080   8.402
 1477POPC   C3A22049  23.849   4.324   8.087
 1477POPC   C4A22050  23.697   4.099   7.739
 1477POPC   C1B22051  23.266   4.330   8.685
 1477POPC   C2B22052  23.372   4.200   8.272
 1477POPC   C3B22053  23.354   4.434   7.899
 1477POPC   C4B22054  23.223   4.836   7.777
 1478POPC   NC322055   0.745  23.639   9.444
 1478POPC   PO422056   1.395  23.919   9.316
 1478POPC   GL122057   1.357  23.620   9.020
 1478POPC   GL222058   1.009  23.532   9.029
 1478POPC   C1A22059   1.457  23.671   8.583
 1478POPC   D2A22060   1.404  23.505   8.165
 1478POPC   C3A22061   1.296  23.806   7.817
 1478POPC   C4A22062   1.147  23.659   7.375
 1478POPC   C1B22063   0.946  23.866   8.757
 1478POPC   C2B22064   1.029  23.830   8.332
 1478POPC   C3B22065   0.887  23.609   8.007
 1478POPC   C4B22066   0.762  23.803   7.654
 1479POPC   NC322067   4.190  33.517   9.568
 1479POPC   PO422068   4.787  33.927   9.591
 1479POPC   GL122069   4.398  33.931   9.275
 1479POPC   GL222070   4.204  34.284   9.256
 1479POPC   C1A22071   4.236  33.631   8.929
 1479POPC   D2A22072   4.003  33.715   8.547
 1479POPC   C3A22073   4.040  33.481   8.147
 1479POPC   C4A22074   4.150  33.650   7.738
 1479POPC   C1B22075   4.220  34.123   8.852
 1479POPC   C2B22076   4.472  33.957   8.549
 1479POPC   C3B22077   4.309  33.924   8.145
 1479POPC   C4B22078   4.323  34.138   7.752
 1480POPC   NC322079  26.997  27.193   9.491
 1480POPC   PO422080  26.536  26.691   9.579
 1480POPC   GL122081  26.599  26.803   9.162
 1480POPC   GL222082  26.439  27.101   9.078
 1480POPC   C1A22083  26.708  26.669   8.747
 1480POPC   D2A22084  26.628  26.867   8.357
 1480POPC   C3A22085  26.724  26.661   7.955
 1480POPC   C4A22086  26.747  26.509   7.503
 1480POPC   C1B22087  26.754  27.196   8.774
 1480POPC   C2B22088  26.795  27.381   8.355
 1480POPC   C3B22089  26.683  27.187   7.943
 1480POPC   C4B22090  26.949  26.974   7.570
 1481POPC   NC322091  41.283  25.859   9.522
 1481POPC   PO422092  41.766  26.281   9.604
 1481POPC   GL122093  41.445  26.218   9.202
 1481POPC   GL222094  41.225  25.936   9.045
 1481POPC   C1A22095  41.520  26.200   8.746
 1481POPC   D2A22096  41.485  26.200   8.326
 1481POPC   C3A22097  41.647  26.224   7.913
 1481POPC   C4A22098  41.266  26.162   7.689
 1481POPC   C1B22099  41.302  25.652   8.711
 1481POPC   C2B22100  41.605  25.682   8.397
 1481POPC   C3B22101  41.371  25.797   8.051
 1481POPC   C4B22102  41.245  25.582   7.742
 1482POPC   NC322103  39.618  37.624   9.459
 1482POPC   PO422104  38.914  37.672   9.633
 1482POPC   GL122105  38.994  37.869   9.162
 1482POPC   GL222106  39.312  38.034   9.257
 1482POPC   C1A22107  39.107  37.658   8.698
 1482POPC   D2A22108  39.503  37.510   8.446
 1482POPC   C3A22109  39.400  37.304   8.034
 1482POPC   C4A22110  39.058  37.448   7.707
 1482POPC   C1B22111  39.435  38.021   8.821
 1482POPC   C2B22112  39.293  37.992   8.385
 1482POPC   C3B22113  39.113  37.919   7.994
 1482POPC   C4B22114  39.237  37.933   7.587
 1483POPC   NC322115   7.175  43.388   9.533
 1483POPC   PO422116   7.612  42.961   9.519
 1483POPC   GL122117   7.555  43.004   9.102
 1483POPC   GL222118   7.253  43.144   9.106
 1483POPC   C1A22119   7.627  42.817   8.706
 1483POPC   D2A22120   7.626  43.040   8.330
 1483POPC   C3A22121   7.767  42.945   7.942
 1483POPC   C4A22122   7.615  43.203   7.618
 1483POPC   C1B22123   7.291  43.219   8.686
 1483POPC   C2B22124   7.127  43.213   8.284
 1483POPC   C3B22125   7.138  43.212   7.822
 1483POPC   C4B22126   7.159  43.299   7.371
 1484POPC   NC322127  13.208  40.180   9.388
 1484POPC   PO422128  13.831  40.199   9.455
 1484POPC   GL122129  13.638  39.931   9.147
 1484POPC   GL222130  13.367  39.709   9.227
 1484POPC   C1A22131  13.510  40.040   8.742
 1484POPC   D2A22132  13.760  39.988   8.367
 1484POPC   C3A22133  13.665  39.961   7.927
 1484POPC   C4A22134  13.913  39.698   7.685
 1484POPC   C1B22135  13.201  39.649   8.806
 1484POPC   C2B22136  13.295  39.792   8.366
 1484POPC   C3B22137  13.193  39.755   7.977
 1484POPC   C4B22138  13.214  39.977   7.596
 1485POPC   NC322139  16.415  41.661   9.567
 1485POPC   PO422140  17.043  41.362   9.416
 1485POPC   GL122141  16.729  41.592   9.153
 1485POPC   GL222142  16.333  41.555   9.090
 1485POPC   C1A22143  16.700  41.789   8.757
 1485POPC   D2A22144  16.574  41.961   8.353
 1485POPC   C3A22145  16.869  41.928   8.028
 1485POPC   C4A22146  16.839  41.823   7.612
 1485POPC   C1B22147  16.506  41.326   8.761
 1485POPC   C2B22148  16.747  41.380   8.400
 1485POPC   C3B22149  16.624  41.444   7.977
 1485POPC   C4B22150  16.774  41.325   7.576
 1486POPC   NC322151  38.114  11.078   9.362
 1486POPC   PO422152  38.563  11.551   9.464
 1486POPC   GL122153  38.467  11.375   9.096
 1486POPC   GL222154  38.544  11.015   9.044
 1486POPC   C1A22155  38.223  11.299   8.754
 1486POPC   D2A22156  38.401  11.147   8.416
 1486POPC   C3A22157  38.164  11.236   8.068
 1486POPC   C4A22158  38.274  11.322   7.647
 1486POPC   C1B22159  38.786  10.753   8.757
 1486POPC   C2B22160  38.904  10.807   8.328
 1486POPC   C3B22161  38.642  11.007   7.988
 1486POPC   C4B22162  38.600  10.950   7.507
 1487POPC   NC322163  38.754   5.661   9.535
 1487POPC   PO422164  38.376   6.181   9.619
 1487POPC   GL122165  38.429   6.011   9.207
 1487POPC   GL222166  38.576   5.710   9.053
 1487POPC   C1A22167  38.409   6.105   8.765
 1487POPC   D2A22168  38.198   6.030   8.397
 1487POPC   C3A22169  38.350   6.131   8.002
 1487POPC   C4A22170  38.208   5.988   7.627
 1487POPC   C1B22171  38.625   5.674   8.608
 1487POPC   C2B22172  38.492   5.659   8.220
 1487POPC   C3B22173  38.504   5.637   7.819
 1487POPC   C4B22174  38.767   5.907   7.587
 1488POPC   NC322175  20.567  31.149   9.275
 1488POPC   PO422176  20.840  31.776   9.404
 1488POPC   GL122177  20.846  31.546   9.072
 1488POPC   GL222178  20.489  31.619   9.045
 1488POPC   C1A22179  20.896  31.314   8.700
 1488POPC   D2A22180  20.708  31.263   8.299
 1488POPC   C3A22181  20.733  31.455   7.871
 1488POPC   C4A22182  20.741  31.396   7.390
 1488POPC   C1B22183  20.390  31.488   8.645
 1488POPC   C2B22184  20.368  31.644   8.238
 1488POPC   C3B22185  20.229  31.561   7.842
 1488POPC   C4B22186  20.177  31.461   7.407
 1489POPC   NC322187  26.896  43.530   9.510
 1489POPC   PO422188  27.016  44.255   9.403
 1489POPC   GL122189  26.838  43.936   9.163
 1489POPC   GL222190  26.555  43.704   9.163
 1489POPC   C1A22191  26.988  43.885   8.764
 1489POPC   D2A22192  27.010  43.706   8.395
 1489POPC   C3A22193  27.138  43.981   8.093
 1489POPC   C4A22194  26.872  44.060   7.752
 1489POPC   C1B22195  26.596  43.564   8.716
 1489POPC   C2B22196  26.425  43.667   8.294
 1489POPC   C3B22197  26.423  43.729   7.818
 1489POPC   C4B22198  26.522  43.592   7.389
 1490POPC   NC322199   9.111  38.643   9.480
 1490POPC   PO422200   8.879  38.017   9.443
 1490POPC   GL122201   8.902  38.325   9.066
 1490POPC   GL222202   9.132  38.641   8.982
 1490POPC   C1A22203   8.974  38.363   8.609
 1490POPC   D2A22204   9.101  38.642   8.314
 1490POPC   C3A22205   8.946  38.371   8.032
 1490POPC   C4A22206   8.789  38.344   7.650
 1490POPC   C1B22207   8.753  38.820   8.755
 1490POPC   C2B22208   8.594  38.802   8.316
 1490POPC   C3B22209   8.776  38.850   7.911
 1490POPC   C4B22210   9.133  38.705   7.700
 1491POPC   NC322211  35.496   9.942   9.497
 1491POPC   PO422212  35.222   9.249   9.618
 1491POPC   GL122213  35.413   9.483   9.279
 1491POPC   GL222214  35.152   9.669   9.212
 1491POPC   C1A22215  35.436   9.529   8.805
 1491POPC   D2A22216  35.233   9.582   8.369
 1491POPC   C3A22217  35.460   9.667   7.999
 1491POPC   C4A22218  35.625   9.599   7.578
 1491POPC   C1B22219  35.040   9.821   8.778
 1491POPC   C2B22220  34.843   9.918   8.447
 1491POPC   C3B22221  35.044  10.009   8.068
 1491POPC   C4B22222  34.991   9.699   7.782
 1492POPC   NC322223  30.579  37.178   9.383
 1492POPC   PO422224  31.142  36.845   9.516
 1492POPC   GL122225  30.999  36.800   9.081
 1492POPC   GL222226  30.717  36.629   9.161
 1492POPC   C1A22227  30.974  36.958   8.638
 1492POPC   D2A22228  31.106  37.190   8.280
 1492POPC   C3A22229  30.804  37.087   7.965
 1492POPC   C4A22230  30.878  36.711   7.762
 1492POPC   C1B22231  30.518  36.781   8.765
 1492POPC   C2B22232  30.484  36.954   8.324
 1492POPC   C3B22233  30.399  36.752   7.871
 1492POPC   C4B22234  30.316  36.644   7.420
 1493POPC   NC322235  38.245  18.557   9.500
 1493POPC   PO422236  38.735  17.980   9.359
 1493POPC   GL122237  38.555  18.200   9.041
 1493POPC   GL222238  38.595  18.535   9.127
 1493POPC   C1A22239  38.483  18.224   8.600
 1493POPC   D2A22240  38.323  17.884   8.337
 1493POPC   C3A22241  38.319  17.990   7.907
 1493POPC   C4A22242  38.215  18.117   7.523
 1493POPC   C1B22243  38.238  18.586   8.860
 1493POPC   C2B22244  38.178  18.788   8.481
 1493POPC   C3B22245  38.245  18.582   8.069
 1493POPC   C4B22246  38.425  18.559   7.682
 1494POPC   NC322247  18.425  13.001   9.457
 1494POPC   PO422248  17.791  13.240   9.323
 1494POPC   GL122249  18.050  12.949   9.048
 1494POPC   GL222250  18.385  12.812   8.984
 1494POPC   C1A22251  17.959  12.767   8.666
 1494POPC   D2A22252  18.290  12.793   8.395
 1494POPC   C3A22253  18.228  12.969   8.005
 1494POPC   C4A22254  18.102  12.726   7.660
 1494POPC   C1B22255  18.579  13.088   8.689
 1494POPC   C2B22256  18.573  13.263   8.266
 1494POPC   C3B22257  18.734  13.042   7.901
 1494POPC   C4B22258  18.591  12.769   7.620
 1495POPC   NC322259  36.348  10.978   9.409
 1495POPC   PO422260  36.094  11.631   9.415
 1495POPC   GL122261  36.037  11.370   9.090
 1495POPC   GL222262  35.693  11.389   8.992
 1495POPC   C1A22263  36.295  11.514   8.768
 1495POPC   D2A22264  36.380  11.353   8.373
 1495POPC   C3A22265  36.225  11.473   7.995
 1495POPC   C4A22266  36.418  11.420   7.643
 1495POPC   C1B22267  35.864  11.337   8.587
 1495POPC   C2B22268  35.942  11.116   8.223
 1495POPC   C3B22269  35.845  11.206   7.793
 1495POPC   C4B22270  35.783  10.940   7.446
 1496POPC   NC322271  19.638  32.556   9.327
 1496POPC   PO422272  20.091  33.023   9.388
 1496POPC   GL122273  19.784  33.057   9.088
 1496POPC   GL222274  19.580  33.377   9.160
 1496POPC   C1A22275  19.754  32.886   8.664
 1496POPC   D2A22276  19.526  33.054   8.307
 1496POPC   C3A22277  19.656  32.848   7.965
 1496POPC   C4A22278  19.644  32.854   7.535
 1496POPC   C1B22279  19.673  33.399   8.718
 1496POPC   C2B22280  19.955  33.315   8.355
 1496POPC   C3B22281  19.866  33.313   7.897
 1496POPC   C4B22282  20.077  33.159   7.514
 1497POPC   NC322283   1.769  28.474   9.528
 1497POPC   PO422284   1.408  28.009   9.348
 1497POPC   GL122285   1.244  28.421   9.269
 1497POPC   GL222286   1.542  28.545   9.082
 1497POPC   C1A22287   1.078  28.504   8.873
 1497POPC   D2A22288   1.343  28.361   8.554
 1497POPC   C3A22289   1.145  28.521   8.208
 1497POPC   C4A22290   1.030  28.273   7.880
 1497POPC   C1B22291   1.687  28.851   8.780
 1497POPC   C2B22292   1.621  28.736   8.353
 1497POPC   C3B22293   1.563  28.648   7.955
 1497POPC   C4B22294   1.242  28.742   7.746
 1498POPC   NC322295  39.017  19.942   9.492
 1498POPC   PO422296  39.620  19.786   9.333
 1498POPC   GL122297  39.327  19.892   9.088
 1498POPC   GL222298  39.339  20.216   9.123
 1498POPC   C1A22299  39.095  19.884   8.742
 1498POPC   D2A22300  39.097  19.615   8.393
 1498POPC   C3A22301  39.121  19.787   7.972
 1498POPC   C4A22302  39.390  19.580   7.681
 1498POPC   C1B22303  39.438  20.279   8.741
 1498POPC   C2B22304  39.282  20.181   8.367
 1498POPC   C3B22305  39.500  20.208   8.039
 1498POPC   C4B22306  39.394  20.092   7.671
 1499POPC   NC322307   8.288  24.677   9.617
 1499POPC   PO422308   7.890  24.199   9.491
 1499POPC   GL122309   8.081  24.458   9.179
 1499POPC   GL222310   7.845  24.619   8.999
 1499POPC   C1A22311   8.326  24.490   8.786
 1499POPC   D2A22312   8.591  24.751   8.511
 1499POPC   C3A22313   8.592  24.659   8.083
 1499POPC   C4A22314   8.351  24.366   7.872
 1499POPC   C1B22315   7.838  24.278   8.732
 1499POPC   C2B22316   8.060  24.309   8.344
 1499POPC   C3B22317   7.914  24.160   7.965
 1499POPC   C4B22318   7.802  24.321   7.592
 1500POPC   NC322319   8.003   2.413   9.960
 1500POPC   PO422320   8.179   1.922   9.496
 1500POPC   GL122321   7.988   2.199   9.184
 1500POPC   GL222322   8.294   2.240   8.995
 1500POPC   C1A22323   7.790   2.223   8.771
 1500POPC   D2A22324   8.056   2.260   8.392
 1500POPC   C3A22325   7.911   2.102   8.010
 1500POPC   C4A22326   7.903   2.241   7.601
 1500POPC   C1B22327   8.155   1.870   8.766
 1500POPC   C2B22328   8.178   1.736   8.330
 1500POPC   C3B22329   8.296   1.765   7.895
 1500POPC   C4B22330   7.969   1.726   7.624
 1501POPC   NC322331  29.381  24.393   9.541
 1501POPC   PO422332  28.954  24.862   9.528
 1501POPC   GL122333  29.050  24.596   9.165
 1501POPC   GL222334  29.392  24.519   9.047
 1501POPC   C1A22335  29.037  24.704   8.715
 1501POPC   D2A22336  29.334  24.767   8.380
 1501POPC   C3A22337  29.293  24.498   8.051
 1501POPC   C4A22338  28.984  24.393   7.784
 1501POPC   C1B22339  29.249  24.219   8.748
 1501POPC   C2B22340  29.416  24.094   8.342
 1501POPC   C3B22341  29.577  24.078   7.912
 1501POPC   C4B22342  29.941  24.211   7.681
 1502POPC   NC322343   6.719  29.507   9.540
 1502POPC   PO422344   6.316  30.108   9.498
 1502POPC   GL122345   6.600  29.921   9.217
 1502POPC   GL222346   6.388  29.656   9.166
 1502POPC   C1A22347   6.748  29.932   8.784
 1502POPC   D2A22348   7.040  29.973   8.420
 1502POPC   C3A22349   6.892  29.996   8.002
 1502POPC   C4A22350   6.476  29.924   7.847
 1502POPC   C1B22351   6.410  29.485   8.760
 1502POPC   C2B22352   6.689  29.568   8.420
 1502POPC   C3B22353   6.719  29.518   8.028
 1502POPC   C4B22354   6.456  29.414   7.694
 1503POPC   NC322355  12.463  24.155   9.473
 1503POPC   PO422356  12.841  24.704   9.512
 1503POPC   GL122357  12.768  24.485   9.153
 1503POPC   GL222358  12.676  24.838   9.035
 1503POPC   C1A22359  12.678  24.458   8.718
 1503POPC   D2A22360  12.640  24.664   8.338
 1503POPC   C3A22361  12.708  24.390   8.026
 1503POPC   C4A22362  12.916  24.305   7.657
 1503POPC   C1B22363  12.364  24.900   8.712
 1503POPC   C2B22364  12.275  25.087   8.302
 1503POPC   C3B22365  12.460  24.992   7.909
 1503POPC   C4B22366  12.522  24.637   7.632
 1504POPC   NC322367  13.255  14.244   9.477
 1504POPC   PO422368  13.831  14.621   9.501
 1504POPC   GL122369  13.650  14.412   9.170
 1504POPC   GL222370  13.389  14.626   9.117
 1504POPC   C1A22371  13.580  14.286   8.757
 1504POPC   D2A22372  13.662  14.440   8.337
 1504POPC   C3A22373  13.578  14.154   8.013
 1504POPC   C4A22374  13.683  14.171   7.646
 1504POPC   C1B22375  13.509  14.805   8.695
 1504POPC   C2B22376  13.381  14.875   8.252
 1504POPC   C3B22377  13.396  14.610   7.880
 1504POPC   C4B22378  13.652  14.693   7.534
 1505POPC   NC322379  38.748  30.717  10.095
 1505POPC   PO422380  39.045  30.688   9.512
 1505POPC   GL122381  39.149  30.652   9.084
 1505POPC   GL222382  39.422  30.829   9.033
 1505POPC   C1A22383  39.067  30.488   8.663
 1505POPC   D2A22384  39.041  30.698   8.234
 1505POPC   C3A22385  39.032  30.615   7.755
 1505POPC   C4A22386  39.099  30.334   7.355
 1505POPC   C1B22387  39.568  30.563   8.773
 1505POPC   C2B22388  39.483  30.448   8.368
 1505POPC   C3B22389  39.485  30.667   7.973
 1505POPC   C4B22390  39.518  30.472   7.594
 1506POPC   NC322391  39.917   2.421   9.376
 1506POPC   PO422392  40.420   2.775   9.659
 1506POPC   GL122393  40.430   2.898   9.172
 1506POPC   GL222394  40.294   2.589   9.057
 1506POPC   C1A22395  40.181   2.930   8.714
 1506POPC   D2A22396  39.927   2.981   8.324
 1506POPC   C3A22397  40.001   2.763   7.927
 1506POPC   C4A22398  40.346   2.627   7.652
 1506POPC   C1B22399  39.915   2.485   8.755
 1506POPC   C2B22400  39.980   2.460   8.348
 1506POPC   C3B22401  39.848   2.268   7.969
 1506POPC   C4B22402  40.039   2.224   7.607
 1507POPC   NC322403  30.779  10.192   9.343
 1507POPC   PO422404  30.875  10.821   9.409
 1507POPC   GL122405  30.557  10.724   9.108
 1507POPC   GL222406  30.371  10.382   9.117
 1507POPC   C1A22407  30.509  10.595   8.677
 1507POPC   D2A22408  30.769  10.572   8.313
 1507POPC   C3A22409  30.760  10.828   7.966
 1507POPC   C4A22410  30.515  10.816   7.571
 1507POPC   C1B22411  30.464  10.093   8.748
 1507POPC   C2B22412  30.466  10.160   8.309
 1507POPC   C3B22413  30.693  10.223   7.923
 1507POPC   C4B22414  30.554  10.320   7.528
 1508POPC   NC322415   1.448  39.684   9.461
 1508POPC   PO422416   2.031  40.010   9.539
 1508POPC   GL122417   2.001  40.067   9.152
 1508POPC   GL222418   1.753  39.817   9.076
 1508POPC   C1A22419   2.189  40.224   8.804
 1508POPC   D2A22420   1.966  40.401   8.491
 1508POPC   C3A22421   1.916  40.154   8.118
 1508POPC   C4A22422   2.042  40.151   7.679
 1508POPC   C1B22423   2.074  39.719   8.770
 1508POPC   C2B22424   1.978  39.637   8.354
 1508POPC   C3B22425   2.138  39.726   7.961
 1508POPC   C4B22426   1.971  39.664   7.593
 1509POPC   NC322427  24.650  17.887   9.492
 1509POPC   PO422428  24.435  17.246   9.574
 1509POPC   GL122429  24.596  17.450   9.228
 1509POPC   GL222430  24.306  17.398   9.020
 1509POPC   C1A22431  24.752  17.554   8.821
 1509POPC   D2A22432  24.461  17.458   8.477
 1509POPC   C3A22433  24.486  17.694   8.075
 1509POPC   C4A22434  24.605  17.557   7.648
 1509POPC   C1B22435  24.107  17.699   8.717
 1509POPC   C2B22436  24.010  17.584   8.243
 1509POPC   C3B22437  24.108  17.588   7.762
 1509POPC   C4B22438  24.182  17.637   7.313
 1510POPC   NC322439   6.999  44.351   9.335
 1510POPC   PO422440   7.631  44.694   9.592
 1510POPC   GL122441   7.450  44.607   9.154
 1510POPC   GL222442   7.265  44.911   9.041
 1510POPC   C1A22443   7.505  44.675   8.675
 1510POPC   D2A22444   7.517  44.496   8.290
 1510POPC   C3A22445   7.576  44.838   8.083
 1510POPC   C4A22446   7.650  44.945   7.700
 1510POPC   C1B22447   7.062  44.892   8.643
 1510POPC   C2B22448   7.099  44.829   8.220
 1510POPC   C3B22449   7.018  44.565   7.927
 1510POPC   C4B22450   7.384  44.475   7.761
 1511POPC   NC322451  19.662  26.549   9.661
 1511POPC   PO422452  19.838  25.942   9.575
 1511POPC   GL122453  19.845  25.927   9.176
 1511POPC   GL222454  19.886  26.245   9.085
 1511POPC   C1A22455  19.747  25.711   8.827
 1511POPC   D2A22456  19.917  25.655   8.448
 1511POPC   C3A22457  19.795  25.847   8.057
 1511POPC   C4A22458  19.824  25.841   7.583
 1511POPC   C1B22459  19.888  26.171   8.652
 1511POPC   C2B22460  19.838  26.310   8.294
 1511POPC   C3B22461  20.131  26.265   8.002
 1511POPC   C4B22462  20.203  26.183   7.611
 1512POPC   NC322463  12.642  40.458   9.410
 1512POPC   PO422464  12.610  41.110   9.446
 1512POPC   GL122465  12.627  40.869   9.085
 1512POPC   GL222466  12.952  40.935   9.077
 1512POPC   C1A22467  12.740  40.685   8.668
 1512POPC   D2A22468  12.535  40.358   8.419
 1512POPC   C3A22469  12.563  40.506   8.023
 1512POPC   C4A22470  12.768  40.881   7.884
 1512POPC   C1B22471  13.158  41.031   8.716
 1512POPC   C2B22472  13.187  40.896   8.295
 1512POPC   C3B22473  13.178  41.209   7.967
 1512POPC   C4B22474  12.989  41.213   7.577
 1513POPC   NC322475  30.001  41.137   9.473
 1513POPC   PO422476  29.946  40.467   9.456
 1513POPC   GL122477  29.764  40.727   9.132
 1513POPC   GL222478  29.583  41.034   9.164
 1513POPC   C1A22479  29.698  40.647   8.710
 1513POPC   D2A22480  29.956  40.426   8.414
 1513POPC   C3A22481  29.864  40.532   7.994
 1513POPC   C4A22482  29.857  40.383   7.564
 1513POPC   C1B22483  29.898  41.106   8.804
 1513POPC   C2B22484  30.015  40.930   8.386
 1513POPC   C3B22485  29.914  41.050   7.956
 1513POPC   C4B22486  30.177  41.214   7.633
 1514POPC   NC322487  19.445  20.450   9.453
 1514POPC   PO422488  18.884  20.233   9.321
 1514POPC   GL122489  19.187  20.423   9.012
 1514POPC   GL222490  19.421  20.159   9.020
 1514POPC   C1A22491  19.296  20.664   8.601
 1514POPC   D2A22492  19.359  20.654   8.138
 1514POPC   C3A22493  19.082  20.774   7.782
 1514POPC   C4A22494  19.124  20.897   7.339
 1514POPC   C1B22495  19.259  20.142   8.583
 1514POPC   C2B22496  18.996  20.293   8.270
 1514POPC   C3B22497  18.897  20.313   7.855
 1514POPC   C4B22498  18.824  20.056   7.516
 1515POPC   NC322499  37.042  30.359   9.858
 1515POPC   PO422500  36.996  29.811   9.454
 1515POPC   GL122501  36.662  29.974   9.190
 1515POPC   GL222502  36.532  29.705   9.053
 1515POPC   C1A22503  36.656  30.107   8.752
 1515POPC   D2A22504  37.079  30.142   8.529
 1515POPC   C3A22505  37.186  30.124   8.087
 1515POPC   C4A22506  36.902  30.074   7.753
 1515POPC   C1B22507  36.992  29.727   8.836
 1515POPC   C2B22508  37.071  29.556   8.440
 1515POPC   C3B22509  36.884  29.607   8.069
 1515POPC   C4B22510  37.066  29.573   7.692
 1516POPC   NC322511  41.720  30.213   9.511
 1516POPC   PO422512  41.942  29.498   9.465
 1516POPC   GL122513  41.698  29.718   9.115
 1516POPC   GL222514  41.345  29.847   9.151
 1516POPC   C1A22515  41.481  29.572   8.737
 1516POPC   D2A22516  41.638  29.652   8.364
 1516POPC   C3A22517  41.394  29.692   8.028
 1516POPC   C4A22518  41.743  29.891   7.819
 1516POPC   C1B22519  41.526  30.083   8.767
 1516POPC   C2B22520  41.373  30.108   8.318
 1516POPC   C3B22521  41.290  30.236   7.861
 1516POPC   C4B22522  41.111  30.288   7.431
 1517POPC   NC322523  35.936  14.585   9.400
 1517POPC   PO422524  36.312  14.143   9.647
 1517POPC   GL122525  36.145  14.201   9.174
 1517POPC   GL222526  36.139  14.517   8.947
 1517POPC   C1A22527  35.876  14.165   8.752
 1517POPC   D2A22528  36.170  14.401   8.459
 1517POPC   C3A22529  36.096  14.431   8.033
 1517POPC   C4A22530  36.310  14.418   7.642
 1517POPC   C1B22531  35.934  14.828   8.725
 1517POPC   C2B22532  35.784  14.743   8.335
 1517POPC   C3B22533  35.849  14.875   7.943
 1517POPC   C4B22534  35.985  14.800   7.555
 1518POPC   NC322535   0.579  17.135   9.375
 1518POPC   PO422536   0.647  17.821   9.506
 1518POPC   GL122537   0.631  17.603   9.153
 1518POPC   GL222538   0.305  17.687   9.069
 1518POPC   C1A22539   0.631  17.439   8.742
 1518POPC   D2A22540   0.449  17.295   8.371
 1518POPC   C3A22541   0.666  17.333   7.998
 1518POPC   C4A22542   0.444  17.222   7.631
 1518POPC   C1B22543   0.090  17.551   8.695
 1518POPC   C2B22544   0.112  17.692   8.249
 1518POPC   C3B22545   0.327  17.678   7.839
 1518POPC   C4B22546   0.155  17.590   7.406
 1519POPC   NC322547   3.402  42.837   9.520
 1519POPC   PO422548   3.631  43.442   9.487
 1519POPC   GL122549   3.578  43.153   9.155
 1519POPC   GL222550   3.194  43.085   9.120
 1519POPC   C1A22551   3.518  43.209   8.735
 1519POPC   D2A22552   3.636  43.052   8.388
 1519POPC   C3A22553   3.561  43.284   8.072
 1519POPC   C4A22554   3.549  43.155   7.682
 1519POPC   C1B22555   3.192  42.820   8.748
 1519POPC   C2B22556   3.358  42.595   8.403
 1519POPC   C3B22557   3.303  42.833   8.048
 1519POPC   C4B22558   3.062  43.101   7.768
 1520POPC   NC322559  11.916  29.782   9.506
 1520POPC   PO422560  12.234  30.362   9.743
 1520POPC   GL122561  12.193  30.347   9.256
 1520POPC   GL222562  11.883  30.205   9.211
 1520POPC   C1A22563  12.275  30.047   8.879
 1520POPC   D2A22564  12.145  29.731   8.559
 1520POPC   C3A22565  12.149  29.864   8.123
 1520POPC   C4A22566  11.988  29.773   7.712
 1520POPC   C1B22567  11.769  29.909   8.879
 1520POPC   C2B22568  11.688  29.947   8.465
 1520POPC   C3B22569  11.622  29.887   8.064
 1520POPC   C4B22570  11.507  30.101   7.697
 1521POPC   NC322571  26.690   4.998   9.697
 1521POPC   PO422572  27.344   5.193   9.691
 1521POPC   GL122573  27.023   5.106   9.306
 1521POPC   GL222574  26.645   5.158   9.222
 1521POPC   C1A22575  27.015   4.971   8.844
 1521POPC   D2A22576  27.033   5.230   8.421
 1521POPC   C3A22577  26.816   5.293   8.043
 1521POPC   C4A22578  26.906   5.006   7.674
 1521POPC   C1B22579  26.551   5.137   8.796
 1521POPC   C2B22580  26.654   4.873   8.453
 1521POPC   C3B22581  26.475   4.903   8.065
 1521POPC   C4B22582  26.441   5.188   7.719
 1522POPC   NC322583  16.242  32.621   9.424
 1522POPC   PO422584  15.877  32.137   9.718
 1522POPC   GL122585  15.809  32.069   9.264
 1522POPC   GL222586  15.790  32.423   9.252
 1522POPC   C1A22587  15.989  31.953   8.824
 1522POPC   D2A22588  16.013  32.195   8.419
 1522POPC   C3A22589  15.911  31.984   8.059
 1522POPC   C4A22590  16.012  32.107   7.645
 1522POPC   C1B22591  15.732  32.391   8.813
 1522POPC   C2B22592  15.563  32.557   8.425
 1522POPC   C3B22593  15.663  32.423   8.013
 1522POPC   C4B22594  15.738  32.529   7.601
 1523POPC   NC322595  11.100  30.360   9.522
 1523POPC   PO422596  11.419  30.935   9.659
 1523POPC   GL122597  11.384  30.733   9.299
 1523POPC   GL222598  11.325  31.015   9.107
 1523POPC   C1A22599  11.436  30.479   8.928
 1523POPC   D2A22600  11.507  30.435   8.463
 1523POPC   C3A22601  11.214  30.565   8.130
 1523POPC   C4A22602  11.237  30.590   7.688
 1523POPC   C1B22603  11.576  30.961   8.758
 1523POPC   C2B22604  11.466  30.948   8.342
 1523POPC   C3B22605  11.650  30.768   7.948
 1523POPC   C4B22606  11.671  30.990   7.569
 1524POPC   NC322607   8.423  12.097   9.466
 1524POPC   PO422608   7.890  11.928   9.785
 1524POPC   GL122609   7.959  12.000   9.258
 1524POPC   GL222610   8.241  12.212   9.017
 1524POPC   C1A22611   7.891  11.945   8.791
 1524POPC   D2A22612   8.061  12.094   8.380
 1524POPC   C3A22613   8.256  11.829   8.077
 1524POPC   C4A22614   8.137  11.835   7.630
 1524POPC   C1B22615   8.317  12.523   8.669
 1524POPC   C2B22616   8.247  12.585   8.219
 1524POPC   C3B22617   8.148  12.284   7.883
 1524POPC   C4B22618   8.304  12.244   7.427
 1525POPC   NC322619   0.387  38.261   9.592
 1525POPC   PO422620   0.783  38.726   9.445
 1525POPC   GL122621   0.428  38.601   9.170
 1525POPC   GL222622   0.584  38.297   9.104
 1525POPC   C1A22623   0.291  38.465   8.724
 1525POPC   D2A22624   0.477  38.628   8.343
 1525POPC   C3A22625   0.402  38.533   7.938
 1525POPC   C4A22626   0.505  38.811   7.623
 1525POPC   C1B22627   0.719  38.128   8.702
 1525POPC   C2B22628   0.544  38.121   8.302
 1525POPC   C3B22629   0.776  38.198   7.940
 1525POPC   C4B22630   0.796  38.396   7.539
 1526POPC   NC322631  30.949  17.662   9.739
 1526POPC   PO422632  30.328  17.458   9.953
 1526POPC   GL122633  30.551  17.545   9.416
 1526POPC   GL222634  30.937  17.555   9.240
 1526POPC   C1A22635  30.541  17.550   8.890
 1526POPC   D2A22636  30.510  17.775   8.454
 1526POPC   C3A22637  30.572  17.648   7.998
 1526POPC   C4A22638  30.541  17.552   7.539
 1526POPC   C1B22639  31.059  17.665   8.790
 1526POPC   C2B22640  31.010  17.861   8.368
 1526POPC   C3B22641  31.059  17.672   7.951
 1526POPC   C4B22642  31.038  17.691   7.432
 1527POPC   NC322643  37.765  24.297   9.383
 1527POPC   PO422644  38.000  24.982   9.283
 1527POPC   GL122645  37.777  24.794   8.901
 1527POPC   GL222646  37.397  24.746   8.768
 1527POPC   C1A22647  37.777  24.998   8.532
 1527POPC   D2A22648  37.824  24.850   8.129
 1527POPC   C3A22649  37.643  24.557   7.902
 1527POPC   C4A22650  37.718  24.743   7.516
 1527POPC   C1B22651  37.543  24.543   8.428
 1527POPC   C2B22652  37.895  24.367   8.315
 1527POPC   C3B22653  37.962  24.136   7.960
 1527POPC   C4B22654  37.821  24.236   7.551
 1528POPC   NC322655   8.657  36.190   9.486
 1528POPC   PO422656   9.259  36.470   9.410
 1528POPC   GL122657   8.965  36.208   9.080
 1528POPC   GL222658   8.612  35.958   9.058
 1528POPC   C1A22659   9.035  35.890   8.768
 1528POPC   D2A22660   9.226  35.656   8.455
 1528POPC   C3A22661   9.201  35.872   8.083
 1528POPC   C4A22662   8.816  35.908   7.859
 1528POPC   C1B22663   8.551  36.088   8.667
 1528POPC   C2B22664   8.853  36.171   8.349
 1528POPC   C3B22665   8.977  36.387   7.978
 1528POPC   C4B22666   8.787  36.328   7.577
 1529POPC   NC322667   6.324  22.599   9.556
 1529POPC   PO422668   5.741  23.000   9.551
 1529POPC   GL122669   5.772  22.772   9.174
 1529POPC   GL222670   6.159  22.766   9.095
 1529POPC   C1A22671   5.543  22.776   8.773
 1529POPC   D2A22672   5.711  22.633   8.379
 1529POPC   C3A22673   5.559  22.755   7.995
 1529POPC   C4A22674   5.841  22.758   7.660
 1529POPC   C1B22675   5.971  23.084   8.818
 1529POPC   C2B22676   5.988  23.269   8.385
 1529POPC   C3B22677   5.766  23.229   7.988
 1529POPC   C4B22678   5.544  23.509   7.709
 1530POPC   NC322679  21.080  32.185   9.332
 1530POPC   PO422680  20.637  32.487   9.673
 1530POPC   GL122681  20.607  32.447   9.207
 1530POPC   GL222682  20.674  32.113   9.038
 1530POPC   C1A22683  20.424  32.492   8.799
 1530POPC   D2A22684  20.501  32.278   8.421
 1530POPC   C3A22685  20.421  32.447   8.037
 1530POPC   C4A22686  20.614  32.570   7.657
 1530POPC   C1B22687  20.785  31.867   8.670
 1530POPC   C2B22688  20.844  31.845   8.238
 1530POPC   C3B22689  20.631  31.993   7.891
 1530POPC   C4B22690  20.475  31.856   7.498
 1531POPC   NC322691  37.637  32.209   9.476
 1531POPC   PO422692  38.189  31.824   9.401
 1531POPC   GL122693  37.954  32.104   9.057
 1531POPC   GL222694  37.669  32.376   9.023
 1531POPC   C1A22695  37.854  32.199   8.604
 1531POPC   D2A22696  37.520  32.040   8.319
 1531POPC   C3A22697  37.676  31.932   7.943
 1531POPC   C4A22698  37.978  32.033   7.659
 1531POPC   C1B22699  37.360  32.419   8.698
 1531POPC   C2B22700  37.169  32.397   8.273
 1531POPC   C3B22701  37.394  32.366   7.848
 1531POPC   C4B22702  37.519  32.103   7.433
 1532POPC   NC322703  42.891   2.165   9.715
 1532POPC   PO422704  43.406   1.759   9.637
 1532POPC   GL122705  43.217   1.961   9.244
 1532POPC   GL222706  42.867   2.107   9.195
 1532POPC   C1A22707  43.150   1.817   8.804
 1532POPC   D2A22708  43.387   1.863   8.420
 1532POPC   C3A22709  43.253   1.625   8.054
 1532POPC   C4A22710  42.880   1.692   7.834
 1532POPC   C1B22711  42.988   2.314   8.810
 1532POPC   C2B22712  43.086   2.362   8.368
 1532POPC   C3B22713  43.113   2.162   7.957
 1532POPC   C4B22714  42.942   2.111   7.532
 1533POPC   NC322715  37.383  16.124   9.549
 1533POPC   PO422716  37.777  15.608   9.496
 1533POPC   GL122717  37.583  15.892   9.133
 1533POPC   GL222718  37.246  16.126   9.077
 1533POPC   C1A22719  37.651  16.099   8.739
 1533POPC   D2A22720  37.884  16.108   8.367
 1533POPC   C3A22721  37.797  15.936   8.009
 1533POPC   C4A22722  37.860  16.126   7.652
 1533POPC   C1B22723  37.216  15.857   8.726
 1533POPC   C2B22724  37.357  15.973   8.292
 1533POPC   C3B22725  37.362  16.161   7.858
 1533POPC   C4B22726  37.471  16.411   7.492
 1534POPC   NC322727  24.284  10.582   9.673
 1534POPC   PO422728  24.763  10.239   9.501
 1534POPC   GL122729  24.424  10.379   9.175
 1534POPC   GL222730  24.253  10.766   9.198
 1534POPC   C1A22731  24.480  10.285   8.710
 1534POPC   D2A22732  24.841  10.138   8.428
 1534POPC   C3A22733  24.758  10.151   7.991
 1534POPC   C4A22734  24.678  10.551   7.853
 1534POPC   C1B22735  24.540  10.784   8.867
 1534POPC   C2B22736  24.674  10.685   8.473
 1534POPC   C3B22737  24.435  10.839   8.171
 1534POPC   C4B22738  24.088  10.709   7.913
 1535POPC   NC322739  24.693  37.223   9.408
 1535POPC   PO422740  24.691  37.845   9.341
 1535POPC   GL122741  24.434  37.612   9.067
 1535POPC   GL222742  24.227  37.321   9.196
 1535POPC   C1A22743  24.575  37.596   8.643
 1535POPC   D2A22744  24.848  37.505   8.279
 1535POPC   C3A22745  24.515  37.479   7.998
 1535POPC   C4A22746  24.370  37.726   7.695
 1535POPC   C1B22747  24.061  37.391   8.777
 1535POPC   C2B22748  24.161  37.450   8.388
 1535POPC   C3B22749  24.003  37.510   8.004
 1535POPC   C4B22750  24.099  37.270   7.684
 1536POPC   NC322751  23.391  34.236   9.474
 1536POPC   PO422752  23.865  33.774   9.361
 1536POPC   GL122753  23.773  33.774   8.982
 1536POPC   GL222754  23.513  34.009   9.033
 1536POPC   C1A22755  23.740  33.824   8.566
 1536POPC   D2A22756  23.988  33.941   8.246
 1536POPC   C3A22757  23.734  33.898   7.960
 1536POPC   C4A22758  23.382  33.635   7.817
 1536POPC   C1B22759  23.593  34.299   8.736
 1536POPC   C2B22760  23.575  34.274   8.313
 1536POPC   C3B22761  23.311  34.156   7.992
 1536POPC   C4B22762  23.478  34.101   7.568
 1537POPC   NC322763  19.167  14.795   9.428
 1537POPC   PO422764  19.167  14.167   9.688
 1537POPC   GL122765  19.024  14.327   9.276
 1537POPC   GL222766  18.770  14.604   9.189
 1537POPC   C1A22767  19.076  14.326   8.842
 1537POPC   D2A22768  19.283  14.418   8.477
 1537POPC   C3A22769  19.148  14.249   8.093
 1537POPC   C4A22770  19.406  14.338   7.750
 1537POPC   C1B22771  18.908  14.801   8.786
 1537POPC   C2B22772  18.838  14.623   8.361
 1537POPC   C3B22773  18.858  14.631   7.898
 1537POPC   C4B22774  18.639  14.795   7.532
 1538POPC   NC322775   2.318  22.675   9.594
 1538POPC   PO422776   1.962  23.258   9.425
 1538POPC   GL122777   2.008  23.102   9.078
 1538POPC   GL222778   1.980  22.758   9.169
 1538POPC   C1A22779   1.845  22.975   8.707
 1538POPC   D2A22780   1.975  22.798   8.314
 1538POPC   C3A22781   1.836  23.004   7.924
 1538POPC   C4A22782   2.029  23.258   7.594
 1538POPC   C1B22783   2.196  22.612   8.778
 1538POPC   C2B22784   2.189  22.346   8.446
 1538POPC   C3B22785   2.291  22.508   8.050
 1538POPC   C4B22786   2.169  22.684   7.665
 1539POPC   NC322787  24.991  21.150   9.531
 1539POPC   PO422788  25.376  21.627   9.447
 1539POPC   GL122789  25.398  21.476   9.082
 1539POPC   GL222790  25.379  21.142   9.193
 1539POPC   C1A22791  25.330  21.601   8.672
 1539POPC   D2A22792  25.371  21.859   8.304
 1539POPC   C3A22793  25.274  21.509   8.037
 1539POPC   C4A22794  25.532  21.451   7.682
 1539POPC   C1B22795  25.158  21.081   8.830
 1539POPC   C2B22796  25.244  21.113   8.420
 1539POPC   C3B22797  25.038  20.965   8.052
 1539POPC   C4B22798  25.152  21.087   7.654
 1540POPC   NC322799   3.801   3.193   9.314
 1540POPC   PO422800   3.485   3.721   9.592
 1540POPC   GL122801   3.469   3.575   9.190
 1540POPC   GL222802   3.727   3.740   9.107
 1540POPC   C1A22803   3.488   3.440   8.756
 1540POPC   D2A22804   3.269   3.316   8.383
 1540POPC   C3A22805   3.445   3.091   8.050
 1540POPC   C4A22806   3.540   3.404   7.747
 1540POPC   C1B22807   3.877   3.778   8.665
 1540POPC   C2B22808   3.643   3.763   8.264
 1540POPC   C3B22809   3.718   3.866   7.826
 1540POPC   C4B22810   3.704   3.736   7.362
 1541POPC   NC322811  13.623   3.798   9.438
 1541POPC   PO422812  13.653   3.135   9.434
 1541POPC   GL122813  13.672   3.400   9.085
 1541POPC   GL222814  13.351   3.533   9.029
 1541POPC   C1A22815  13.712   3.459   8.640
 1541POPC   D2A22816  13.522   3.534   8.268
 1541POPC   C3A22817  13.791   3.585   7.948
 1541POPC   C4A22818  13.624   3.361   7.599
 1541POPC   C1B22819  13.414   3.866   8.684
 1541POPC   C2B22820  13.307   4.010   8.258
 1541POPC   C3B22821  13.372   3.893   7.841
 1541POPC   C4B22822  13.303   3.946   7.412
 1542POPC   NC322823  15.437  42.203   9.486
 1542POPC   PO422824  14.759  42.499   9.566
 1542POPC   GL122825  14.966  42.517   9.176
 1542POPC   GL222826  15.325  42.507   9.075
 1542POPC   C1A22827  14.932  42.550   8.740
 1542POPC   D2A22828  15.112  42.324   8.429
 1542POPC   C3A22829  15.112  42.508   8.065
 1542POPC   C4A22830  14.934  42.375   7.694
 1542POPC   C1B22831  15.522  42.211   8.780
 1542POPC   C2B22832  15.687  42.314   8.382
 1542POPC   C3B22833  15.576  42.300   7.999
 1542POPC   C4B22834  15.464  42.086   7.660
 1543POPC   NC322835   0.809  20.636   9.590
 1543POPC   PO422836   0.134  20.777   9.550
 1543POPC   GL122837   0.378  20.596   9.260
 1543POPC   GL222838   0.074  20.505   9.103
 1543POPC   C1A22839   0.485  20.617   8.830
 1543POPC   D2A22840   0.668  20.770   8.472
 1543POPC   C3A22841   0.675  20.632   8.056
 1543POPC   C4A22842   0.398  20.755   7.756
 1543POPC   C1B22843   0.089  20.324   8.703
 1543POPC   C2B22844   0.248  20.438   8.316
 1543POPC   C3B22845   0.192  20.255   7.921
 1543POPC   C4B22846   0.260  20.325   7.467
 1544POPC   NC322847  18.849   6.489   9.387
 1544POPC   PO422848  19.381   6.585   9.617
 1544POPC   GL122849  19.244   6.652   9.123
 1544POPC   GL222850  18.925   6.820   9.003
 1544POPC   C1A22851  19.061   6.475   8.690
 1544POPC   D2A22852  18.948   6.814   8.377
 1544POPC   C3A22853  18.865   6.671   7.989
 1544POPC   C4A22854  19.066   6.319   7.845
 1544POPC   C1B22855  19.308   6.966   8.726
 1544POPC   C2B22856  19.453   6.884   8.302
 1544POPC   C3B22857  19.281   6.944   7.860
 1544POPC   C4B22858  18.903   6.971   7.565
 1545POPC   NC322859  36.246   3.057   9.436
 1545POPC   PO422860  35.852   2.453   9.457
 1545POPC   GL122861  36.049   2.560   9.057
 1545POPC   GL222862  36.011   2.908   9.016
 1545POPC   C1A22863  36.285   2.663   8.684
 1545POPC   D2A22864  36.196   2.881   8.324
 1545POPC   C3A22865  36.265   2.659   7.934
 1545POPC   C4A22866  36.532   2.736   7.602
 1545POPC   C1B22867  35.777   2.741   8.662
 1545POPC   C2B22868  35.662   2.864   8.279
 1545POPC   C3B22869  35.796   2.846   7.899
 1545POPC   C4B22870  35.601   3.060   7.535
 1546POPC   NC322871  13.751  35.068   9.487
 1546POPC   PO422872  13.507  35.726   9.509
 1546POPC   GL122873  13.508  35.406   9.180
 1546POPC   GL222874  13.835  35.333   9.037
 1546POPC   C1A22875  13.412  35.317   8.747
 1546POPC   D2A22876  13.243  35.516   8.363
 1546POPC   C3A22877  13.529  35.740   8.120
 1546POPC   C4A22878  13.704  35.411   7.871
 1546POPC   C1B22879  13.915  34.992   8.769
 1546POPC   C2B22880  14.025  34.983   8.335
 1546POPC   C3B22881  13.850  34.934   7.933
 1546POPC   C4B22882  13.709  35.035   7.528
 1547POPC   NC322883  35.230  35.297   9.549
 1547POPC   PO422884  35.785  35.085   9.123
 1547POPC   GL122885  35.379  35.331   9.061
 1547POPC   GL222886  35.035  35.203   9.073
 1547POPC   C1A22887  35.212  35.565   8.712
 1547POPC   D2A22888  35.538  35.646   8.405
 1547POPC   C3A22889  35.594  35.346   8.057
 1547POPC   C4A22890  35.469  35.515   7.680
 1547POPC   C1B22891  35.167  34.997   8.710
 1547POPC   C2B22892  35.191  35.075   8.254
 1547POPC   C3B22893  35.223  35.021   7.793
 1547POPC   C4B22894  35.082  35.283   7.448
 1548POPC   NC322895  12.614  18.960   9.532
 1548POPC   PO422896  12.039  19.076   9.661
 1548POPC   GL122897  12.020  19.008   9.212
 1548POPC   GL222898  12.351  19.094   9.105
 1548POPC   C1A22899  12.067  18.754   8.848
 1548POPC   D2A22900  12.389  18.732   8.524
 1548POPC   C3A22901  12.207  18.797   8.129
 1548POPC   C4A22902  12.069  19.029   7.729
 1548POPC   C1B22903  12.134  19.261   8.744
 1548POPC   C2B22904  12.237  19.276   8.287
 1548POPC   C3B22905  12.138  19.531   7.892
 1548POPC   C4B22906  11.981  19.548   7.447
 1549POPC   NC322907  19.961  10.087   9.861
 1549POPC   PO422908  19.622   9.640   9.574
 1549POPC   GL122909  19.828   9.849   9.253
 1549POPC   GL222910  19.896  10.206   9.328
 1549POPC   C1A22911  19.814   9.649   8.850
 1549POPC   D2A22912  20.019   9.720   8.508
 1549POPC   C3A22913  19.795   9.638   8.124
 1549POPC   C4A22914  19.958   9.523   7.718
 1549POPC   C1B22915  19.877  10.164   8.851
 1549POPC   C2B22916  19.723  10.103   8.390
 1549POPC   C3B22917  19.860  10.107   7.930
 1549POPC   C4B22918  19.824  10.188   7.476
 1550POPC   NC322919  31.056   7.371   9.448
 1550POPC   PO422920  30.470   7.666   9.661
 1550POPC   GL122921  30.577   7.510   9.246
 1550POPC   GL222922  30.862   7.710   9.129
 1550POPC   C1A22923  30.546   7.386   8.781
 1550POPC   D2A22924  30.726   7.204   8.369
 1550POPC   C3A22925  30.480   7.110   7.994
 1550POPC   C4A22926  30.425   7.500   7.774
 1550POPC   C1B22927  31.069   7.776   8.766
 1550POPC   C2B22928  31.099   7.596   8.398
 1550POPC   C3B22929  30.821   7.630   8.077
 1550POPC   C4B22930  30.904   7.298   7.783
 1551POPC   NC322931  15.642  39.850   9.564
 1551POPC   PO422932  15.831  40.381   9.339
 1551POPC   GL122933  15.859  39.967   9.109
 1551POPC   GL222934  16.158  39.736   9.154
 1551POPC   C1A22935  15.885  39.839   8.681
 1551POPC   D2A22936  15.733  40.040   8.329
 1551POPC   C3A22937  15.651  39.908   7.939
 1551POPC   C4A22938  15.676  40.277   7.667
 1551POPC   C1B22939  16.319  40.060   8.859
 1551POPC   C2B22940  16.199  40.208   8.462
 1551POPC   C3B22941  16.182  40.066   8.058
 1551POPC   C4B22942  16.077  39.919   7.663
 1552POPC   NC322943  43.716  29.479   9.545
 1552POPC   PO422944  44.157  28.956   9.450
 1552POPC   GL122945  43.851  29.098   9.168
 1552POPC   GL222946  43.636  28.820   9.063
 1552POPC   C1A22947  43.834  29.173   8.724
 1552POPC   D2A22948  43.616  29.260   8.333
 1552POPC   C3A22949  43.947  29.453   8.104
 1552POPC   C4A22950  44.029  29.452   7.664
 1552POPC   C1B22951  43.542  28.765   8.633
 1552POPC   C2B22952  43.682  28.782   8.204
 1552POPC   C3B22953  43.936  28.970   7.874
 1552POPC   C4B22954  43.903  28.926   7.429
 1553POPC   NC322955  10.743  38.164  10.088
 1553POPC   PO422956  10.620  37.808   9.472
 1553POPC   GL122957  10.576  37.705   9.086
 1553POPC   GL222958  10.288  37.496   8.988
 1553POPC   C1A22959  10.607  37.759   8.664
 1553POPC   D2A22960  10.323  37.619   8.388
 1553POPC   C3A22961  10.527  37.653   7.996
 1553POPC   C4A22962  10.825  37.439   7.777
 1553POPC   C1B22963  10.134  37.910   8.806
 1553POPC   C2B22964  10.165  38.120   8.381
 1553POPC   C3B22965  10.270  38.073   7.925
 1553POPC   C4B22966  10.120  37.815   7.563
 1554POPC   NC322967  34.261   7.591   9.785
 1554POPC   PO422968  34.681   7.164   9.476
 1554POPC   GL122969  34.716   7.436   9.158
 1554POPC   GL222970  35.042   7.572   9.191
 1554POPC   C1A22971  34.508   7.448   8.774
 1554POPC   D2A22972  34.198   7.602   8.496
 1554POPC   C3A22973  34.411   7.545   8.134
 1554POPC   C4A22974  34.419   7.373   7.744
 1554POPC   C1B22975  35.045   7.661   8.735
 1554POPC   C2B22976  34.861   7.425   8.387
 1554POPC   C3B22977  34.901   7.420   7.935
 1554POPC   C4B22978  34.966   7.663   7.554
 1555POPC   NC322979  39.291   4.700   9.529
 1555POPC   PO422980  39.034   4.065   9.605
 1555POPC   GL122981  38.922   4.070   9.181
 1555POPC   GL222982  39.047   4.422   9.123
 1555POPC   C1A22983  39.036   4.011   8.731
 1555POPC   D2A22984  39.214   4.318   8.442
 1555POPC   C3A22985  39.387   4.206   8.058
 1555POPC   C4A22986  39.162   4.060   7.677
 1555POPC   C1B22987  39.430   4.548   8.857
 1555POPC   C2B22988  39.586   4.707   8.434
 1555POPC   C3B22989  39.427   4.732   8.006
 1555POPC   C4B22990  39.051   4.535   7.847
 1556POPC   NC322991  36.325  38.777   9.461
 1556POPC   PO422992  35.937  38.138   9.577
 1556POPC   GL122993  35.826  38.302   9.164
 1556POPC   GL222994  36.126  38.452   9.138
 1556POPC   C1A22995  35.864  38.484   8.716
 1556POPC   D2A22996  36.079  38.349   8.347
 1556POPC   C3A22997  35.994  38.524   7.941
 1556POPC   C4A22998  35.882  38.692   7.521
 1556POPC   C1B22999  36.387  38.639   8.809
 1556POPC   C2B23000  36.579  38.504   8.443
 1556POPC   C3B23001  36.501  38.525   8.016
 1556POPC   C4B23002  36.376  38.407   7.595
 1557POPC   NC323003  42.050   1.637   9.299
 1557POPC   PO423004  42.468   2.096   9.552
 1557POPC   GL123005  42.310   2.119   9.143
 1557POPC   GL223006  42.112   2.431   9.129
 1557POPC   C1A23007  42.471   2.211   8.738
 1557POPC   D2A23008  42.687   2.021   8.391
 1557POPC   C3A23009  42.453   1.714   8.141
 1557POPC   C4A23010  42.406   1.831   7.698
 1557POPC   C1B23011  41.954   2.332   8.703
 1557POPC   C2B23012  42.120   2.041   8.390
 1557POPC   C3B23013  42.302   2.209   8.016
 1557POPC   C4B23014  42.041   2.429   7.719
 1558POPC   NC323015  38.668  17.611   9.610
 1558POPC   PO423016  39.325  17.495   9.430
 1558POPC   GL123017  39.007  17.495   9.130
 1558POPC   GL223018  38.989  17.120   9.219
 1558POPC   C1A23019  39.110  17.595   8.675
 1558POPC   D2A23020  39.438  17.637   8.362
 1558POPC   C3A23021  39.385  17.795   7.934
 1558POPC   C4A23022  39.478  17.585   7.547
 1558POPC   C1B23023  39.176  17.109   8.808
 1558POPC   C2B23024  39.078  17.089   8.376
 1558POPC   C3B23025  39.233  17.301   8.011
 1558POPC   C4B23026  38.919  17.364   7.714
 1559POPC   NC323027   2.444   5.679   9.393
 1559POPC   PO423028   3.048   6.000   9.568
 1559POPC   GL123029   2.841   5.895   9.172
 1559POPC   GL223030   2.948   5.566   9.108
 1559POPC   C1A23031   2.567   5.796   8.773
 1559POPC   D2A23032   2.490   5.544   8.388
 1559POPC   C3A23033   2.749   5.695   8.072
 1559POPC   C4A23034   2.639   5.862   7.697
 1559POPC   C1B23035   3.079   5.822   8.728
 1559POPC   C2B23036   2.940   6.058   8.393
 1559POPC   C3B23037   3.077   6.109   7.985
 1559POPC   C4B23038   3.160   5.780   7.711
 1560POPC   NC323039  25.133  37.910   9.239
 1560POPC   PO423040  25.446  37.316   9.414
 1560POPC   GL123041  25.277  37.392   8.998
 1560POPC   GL223042  24.931  37.496   8.996
 1560POPC   C1A23043  25.402  37.454   8.553
 1560POPC   D2A23044  25.506  37.248   8.155
 1560POPC   C3A23045  25.333  37.476   7.812
 1560POPC   C4A23046  25.362  37.923   7.757
 1560POPC   C1B23047  25.037  37.817   8.635
 1560POPC   C2B23048  25.128  37.939   8.229
 1560POPC   C3B23049  24.880  37.841   7.878
 1560POPC   C4B23050  24.863  37.509   7.610
 1561POPC   NC323051  33.905  43.619   9.523
 1561POPC   PO423052  34.067  42.924   9.468
 1561POPC   GL123053  33.836  43.237   9.176
 1561POPC   GL223054  33.610  43.565   9.068
 1561POPC   C1A23055  33.835  43.266   8.729
 1561POPC   D2A23056  33.990  43.235   8.314
 1561POPC   C3A23057  33.763  43.011   8.025
 1561POPC   C4A23058  33.781  43.208   7.631
 1561POPC   C1B23059  33.333  43.320   8.758
 1561POPC   C2B23060  33.392  43.254   8.310
 1561POPC   C3B23061  33.542  43.500   7.972
 1561POPC   C4B23062  33.391  43.515   7.537
 1562POPC   NC323063  36.167  31.622   9.848
 1562POPC   PO423064  36.471  31.502   9.253
 1562POPC   GL123065  36.166  31.328   8.997
 1562POPC   GL223066  35.848  31.242   9.125
 1562POPC   C1A23067  35.966  31.569   8.659
 1562POPC   D2A23068  36.203  31.389   8.357
 1562POPC   C3A23069  36.156  31.614   8.038
 1562POPC   C4A23070  36.306  31.481   7.678
 1562POPC   C1B23071  35.837  31.091   8.676
 1562POPC   C2B23072  35.709  31.280   8.270
 1562POPC   C3B23073  35.802  31.347   7.827
 1562POPC   C4B23074  35.572  31.540   7.486
 1563POPC   NC323075  40.331  23.476   9.359
 1563POPC   PO423076  39.810  23.927   9.546
 1563POPC   GL123077  40.051  23.839   9.150
 1563POPC   GL223078  39.914  23.536   9.030
 1563POPC   C1A23079  40.252  23.744   8.735
 1563POPC   D2A23080  39.993  23.617   8.380
 1563POPC   C3A23081  40.206  23.696   7.995
 1563POPC   C4A23082  40.222  24.101   7.789
 1563POPC   C1B23083  39.647  23.378   8.707
 1563POPC   C2B23084  39.584  23.287   8.277
 1563POPC   C3B23085  39.817  23.300   7.888
 1563POPC   C4B23086  39.941  23.588   7.558
 1564POPC   NC323087   1.086  11.201   9.587
 1564POPC   PO423088   1.556  11.677   9.528
 1564POPC   GL123089   1.425  11.337   9.215
 1564POPC   GL223090   1.052  11.235   9.098
 1564POPC   C1A23091   1.454  11.118   8.814
 1564POPC   D2A23092   1.178  11.175   8.435
 1564POPC   C3A23093   1.294  11.044   7.997
 1564POPC   C4A23094   1.386  11.111   7.495
 1564POPC   C1B23095   0.762  11.414   8.781
 1564POPC   C2B23096   0.594  11.553   8.395
 1564POPC   C3B23097   0.841  11.402   8.085
 1564POPC   C4B23098   1.058  11.410   7.727
 1565POPC   NC323099  37.866   3.097   9.390
 1565POPC   PO423100  38.537   2.818   9.557
 1565POPC   GL123101  38.410   2.687   9.189
 1565POPC   GL223102  38.288   2.994   9.139
 1565POPC   C1A23103  38.496   2.603   8.780
 1565POPC   D2A23104  38.561   2.786   8.394
 1565POPC   C3A23105  38.389   2.525   8.105
 1565POPC   C4A23106  38.586   2.516   7.717
 1565POPC   C1B23107  38.386   3.111   8.751
 1565POPC   C2B23108  38.388   3.280   8.336
 1565POPC   C3B23109  38.309   3.014   7.981
 1565POPC   C4B23110  37.974   3.066   7.684
 1566POPC   NC323111  27.569  44.192   9.478
 1566POPC   PO423112  27.349  43.596   9.636
 1566POPC   GL123113  27.612  43.682   9.238
 1566POPC   GL223114  27.360  43.884   9.104
 1566POPC   C1A23115  27.786  43.875   8.803
 1566POPC   D2A23116  27.904  43.853   8.363
 1566POPC   C3A23117  27.687  43.979   7.972
 1566POPC   C4A23118  27.741  44.173   7.531
 1566POPC   C1B23119  27.418  43.544   8.767
 1566POPC   C2B23120  27.494  43.552   8.310
 1566POPC   C3B23121  27.397  43.550   7.888
 1566POPC   C4B23122  27.328  43.888   7.628
 1567POPC   NC323123  37.378  39.930   9.456
 1567POPC   PO423124  38.048  40.018   9.362
 1567POPC   GL123125  37.741  39.917   9.086
 1567POPC   GL223126  37.631  40.266   9.179
 1567POPC   C1A23127  37.816  39.767   8.677
 1567POPC   D2A23128  37.992  39.966   8.323
 1567POPC   C3A23129  37.782  39.831   8.001
 1567POPC   C4A23130  37.575  39.959   7.658
 1567POPC   C1B23131  37.354  40.308   8.858
 1567POPC   C2B23132  37.537  40.165   8.506
 1567POPC   C3B23133  37.450  40.224   8.088
 1567POPC   C4B23134  37.346  40.447   7.724
 1568POPC   NC323135   2.409  14.724   9.392
 1568POPC   PO423136   2.472  14.079   9.562
 1568POPC   GL123137   2.617  14.263   9.145
 1568POPC   GL223138   2.823  14.574   9.102
 1568POPC   C1A23139   2.734  14.254   8.697
 1568POPC   D2A23140   3.118  14.122   8.460
 1568POPC   C3A23141   3.003  14.125   8.025
 1568POPC   C4A23142   2.723  14.325   7.733
 1568POPC   C1B23143   3.060  14.678   8.716
 1568POPC   C2B23144   2.999  14.828   8.277
 1568POPC   C3B23145   2.726  14.796   7.919
 1568POPC   C4B23146   2.927  14.701   7.479
 1569POPC   NC323147  42.476   4.858   9.412
 1569POPC   PO423148  42.213   5.483   9.621
 1569POPC   GL123149  42.201   5.187   9.130
 1569POPC   GL223150  42.530   4.996   8.934
 1569POPC   C1A23151  42.095   4.876   8.746
 1569POPC   D2A23152  42.282   4.775   8.339
 1569POPC   C3A23153  42.073   4.860   7.961
 1569POPC   C4A23154  42.137   4.709   7.556
 1569POPC   C1B23155  42.416   5.384   8.727
 1569POPC   C2B23156  42.522   5.549   8.388
 1569POPC   C3B23157  42.433   5.432   7.999
 1569POPC   C4B23158  42.372   5.197   7.672
 1570POPC   NC323159  40.969  13.982   9.376
 1570POPC   PO423160  40.467  13.489   9.394
 1570POPC   GL123161  40.634  13.727   9.061
 1570POPC   GL223162  40.992  13.680   8.967
 1570POPC   C1A23163  40.616  13.979   8.706
 1570POPC   D2A23164  40.881  13.763   8.422
 1570POPC   C3A23165  40.753  13.650   8.014
 1570POPC   C4A23166  40.863  13.807   7.599
 1570POPC   C1B23167  41.209  13.445   8.644
 1570POPC   C2B23168  41.324  13.583   8.241
 1570POPC   C3B23169  41.228  13.508   7.851
 1570POPC   C4B23170  40.911  13.206   7.791
 1571POPC   NC323171  14.782  15.803   9.342
 1571POPC   PO423172  15.406  16.174   9.446
 1571POPC   GL123173  15.232  15.918   9.147
 1571POPC   GL223174  15.352  15.575   9.202
 1571POPC   C1A23175  15.038  15.993   8.732
 1571POPC   D2A23176  14.972  16.330   8.454
 1571POPC   C3A23177  14.886  16.181   8.051
 1571POPC   C4A23178  15.176  15.973   7.855
 1571POPC   C1B23179  15.155  15.500   8.796
 1571POPC   C2B23180  15.187  15.646   8.358
 1571POPC   C3B23181  15.202  15.469   7.950
 1571POPC   C4B23182  15.078  15.616   7.540
 1572POPC   NC323183   5.017   4.318   9.695
 1572POPC   PO423184   5.059   3.762   9.711
 1572POPC   GL123185   4.904   4.002   9.294
 1572POPC   GL223186   5.072   4.340   9.190
 1572POPC   C1A23187   4.788   4.139   8.842
 1572POPC   D2A23188   4.750   4.330   8.439
 1572POPC   C3A23189   4.799   4.039   8.083
 1572POPC   C4A23190   5.070   4.216   7.786
 1572POPC   C1B23191   5.171   4.491   8.735
 1572POPC   C2B23192   5.231   4.558   8.272
 1572POPC   C3B23193   5.455   4.548   7.887
 1572POPC   C4B23194   5.491   4.333   7.492
 1573POPC   NC323195  18.335  41.893   9.755
 1573POPC   PO423196  18.559  41.965   9.169
 1573POPC   GL123197  18.273  41.546   9.060
 1573POPC   GL223198  18.258  41.178   9.164
 1573POPC   C1A23199  18.094  41.651   8.665
 1573POPC   D2A23200  18.381  41.911   8.408
 1573POPC   C3A23201  18.382  41.785   7.998
 1573POPC   C4A23202  18.398  41.735   7.582
 1573POPC   C1B23203  18.320  41.197   8.709
 1573POPC   C2B23204  18.232  41.348   8.271
 1573POPC   C3B23205  18.275  41.291   7.827
 1573POPC   C4B23206  18.424  41.098   7.445
 1574POPC   NC323207  28.528   9.569   9.383
 1574POPC   PO423208  28.160  10.031   9.538
 1574POPC   GL123209  28.352   9.983   9.130
 1574POPC   GL223210  28.155   9.692   9.036
 1574POPC   C1A23211  28.565   9.841   8.747
 1574POPC   D2A23212  28.380   9.711   8.363
 1574POPC   C3A23213  28.572   9.876   8.050
 1574POPC   C4A23214  28.628   9.640   7.719
 1574POPC   C1B23215  28.074   9.981   8.660
 1574POPC   C2B23216  28.057  10.056   8.173
 1574POPC   C3B23217  28.203   9.974   7.733
 1574POPC   C4B23218  28.130   9.602   7.452
 1575POPC   NC323219  12.048  28.994   9.571
 1575POPC   PO423220  12.321  29.588   9.377
 1575POPC   GL123221  11.997  29.415   9.083
 1575POPC   GL223222  12.072  29.049   9.045
 1575POPC   C1A23223  11.800  29.275   8.664
 1575POPC   D2A23224  11.883  28.840   8.447
 1575POPC   C3A23225  11.919  28.854   7.987
 1575POPC   C4A23226  11.982  29.276   7.831
 1575POPC   C1B23227  12.312  29.224   8.666
 1575POPC   C2B23228  12.351  29.113   8.226
 1575POPC   C3B23229  12.476  29.107   7.792
 1575POPC   C4B23230  12.552  29.038   7.349
 1576POPC   NC323231  27.466  36.204   9.422
 1576POPC   PO423232  28.088  35.950   9.439
 1576POPC   GL123233  27.833  36.016   9.046
 1576POPC   GL223234  27.753  36.365   9.044
 1576POPC   C1A23235  27.732  36.103   8.586
 1576POPC   D2A23236  27.733  36.168   8.156
 1576POPC   C3A23237  27.580  35.910   7.861
 1576POPC   C4A23238  27.557  36.090   7.470
 1576POPC   C1B23239  27.367  36.382   8.808
 1576POPC   C2B23240  27.341  36.431   8.388
 1576POPC   C3B23241  27.383  36.601   8.011
 1576POPC   C4B23242  27.319  36.586   7.575
 1577POPC   NC323243   8.518  23.726   9.410
 1577POPC   PO423244   7.924  23.399   9.440
 1577POPC   GL123245   8.097  23.573   9.068
 1577POPC   GL223246   8.134  23.931   9.117
 1577POPC   C1A23247   8.246  23.467   8.648
 1577POPC   D2A23248   8.605  23.652   8.388
 1577POPC   C3A23249   8.486  23.759   7.934
 1577POPC   C4A23250   8.201  23.923   7.613
 1577POPC   C1B23251   8.259  23.972   8.696
 1577POPC   C2B23252   8.128  23.813   8.292
 1577POPC   C3B23253   7.803  23.643   8.070
 1577POPC   C4B23254   7.719  23.785   7.661
 1578POPC   NC323255  11.500  22.633   9.305
 1578POPC   PO423256  11.187  21.995   9.315
 1578POPC   GL123257  11.174  22.317   9.080
 1578POPC   GL223258  10.843  22.423   9.119
 1578POPC   C1A23259  11.258  22.507   8.699
 1578POPC   D2A23260  11.434  22.631   8.320
 1578POPC   C3A23261  11.494  22.266   8.086
 1578POPC   C4A23262  11.513  22.210   7.629
 1578POPC   C1B23263  10.856  22.167   8.724
 1578POPC   C2B23264  11.021  22.241   8.334
 1578POPC   C3B23265  10.979  22.237   7.924
 1578POPC   C4B23266  11.027  22.116   7.518
 1579POPC   NC323267  25.916   7.553   9.634
 1579POPC   PO423268  26.543   7.258   9.504
 1579POPC   GL123269  26.242   7.349   9.167
 1579POPC   GL223270  26.034   7.668   9.145
 1579POPC   C1A23271  25.942   7.255   8.822
 1579POPC   D2A23272  25.769   7.350   8.410
 1579POPC   C3A23273  25.976   7.175   8.046
 1579POPC   C4A23274  25.837   7.255   7.624
 1579POPC   C1B23275  25.827   7.764   8.747
 1579POPC   C2B23276  25.600   7.824   8.361
 1579POPC   C3B23277  25.796   7.677   7.956
 1579POPC   C4B23278  26.108   7.734   7.616
 1580POPC   NC323279  40.222   3.215   9.531
 1580POPC   PO423280  39.943   3.853   9.543
 1580POPC   GL123281  39.862   3.636   9.149
 1580POPC   GL223282  40.063   3.312   9.064
 1580POPC   C1A23283  40.037   3.727   8.752
 1580POPC   D2A23284  40.185   3.457   8.455
 1580POPC   C3A23285  40.184   3.670   8.076
 1580POPC   C4A23286  40.395   3.942   7.803
 1580POPC   C1B23287  39.777   3.274   8.738
 1580POPC   C2B23288  39.705   3.440   8.314
 1580POPC   C3B23289  39.837   3.318   7.911
 1580POPC   C4B23290  39.679   3.409   7.474
 1581POPC   NC323291  36.604  13.275   9.825
 1581POPC   PO423292  36.838  13.749   9.484
 1581POPC   GL123293  36.615  13.793   9.157
 1581POPC   GL223294  36.735  13.436   9.084
 1581POPC   C1A23295  36.827  13.832   8.774
 1581POPC   D2A23296  36.759  13.559   8.451
 1581POPC   C3A23297  36.983  13.727   8.129
 1581POPC   C4A23298  36.753  13.691   7.797
 1581POPC   C1B23299  37.117  13.383   8.807
 1581POPC   C2B23300  37.158  13.260   8.349
 1581POPC   C3B23301  36.810  13.238   8.032
 1581POPC   C4B23302  36.947  13.281   7.591
 1582POPC   NC323303  12.135  25.654   9.319
 1582POPC   PO423304  11.761  26.069   9.652
 1582POPC   GL123305  12.108  26.202   9.226
 1582POPC   GL223306  12.263  26.490   9.132
 1582POPC   C1A23307  12.257  26.110   8.745
 1582POPC   D2A23308  12.069  25.913   8.337
 1582POPC   C3A23309  12.260  26.014   7.919
 1582POPC   C4A23310  12.121  26.114   7.459
 1582POPC   C1B23311  11.967  26.539   8.768
 1582POPC   C2B23312  11.932  26.410   8.315
 1582POPC   C3B23313  11.919  26.403   7.865
 1582POPC   C4B23314  12.235  26.566   7.614
 1583POPC   NC323315  42.737  25.205   9.507
 1583POPC   PO423316  42.081  25.333   9.572
 1583POPC   GL123317  42.336  25.320   9.131
 1583POPC   GL223318  42.616  25.105   9.014
 1583POPC   C1A23319  42.400  25.413   8.651
 1583POPC   D2A23320  42.174  25.575   8.264
 1583POPC   C3A23321  42.193  25.303   7.892
 1583POPC   C4A23322  42.222  24.826   7.859
 1583POPC   C1B23323  42.774  25.065   8.583
 1583POPC   C2B23324  42.605  25.005   8.156
 1583POPC   C3B23325  42.651  25.130   7.713
 1583POPC   C4B23326  42.847  24.989   7.307
 1584POPC   NC323327  26.982  23.912   9.571
 1584POPC   PO423328  26.415  23.904   9.746
 1584POPC   GL123329  26.654  23.857   9.199
 1584POPC   GL223330  27.041  23.813   9.075
 1584POPC   C1A23331  26.647  23.509   8.847
 1584POPC   D2A23332  26.829  23.288   8.481
 1584POPC   C3A23333  26.942  23.569   8.136
 1584POPC   C4A23334  26.713  23.711   7.769
 1584POPC   C1B23335  26.982  23.810   8.633
 1584POPC   C2B23336  26.879  24.061   8.316
 1584POPC   C3B23337  27.085  24.105   7.929
 1584POPC   C4B23338  27.212  23.756   7.677
 1585POPC   NC323339  37.518  12.938   9.598
 1585POPC   PO423340  38.129  13.072   9.288
 1585POPC   GL123341  37.637  13.119   9.095
 1585POPC   GL223342  37.410  12.770   9.123
 1585POPC   C1A23343  37.581  13.062   8.627
 1585POPC   D2A23344  37.885  12.927   8.272
 1585POPC   C3A23345  37.799  12.935   7.828
 1585POPC   C4A23346  37.954  12.719   7.398
 1585POPC   C1B23347  37.441  12.531   8.744
 1585POPC   C2B23348  37.642  12.469   8.378
 1585POPC   C3B23349  37.469  12.578   8.017
 1585POPC   C4B23350  37.512  12.554   7.590
 1586POPC   NC323351  32.471  31.712   9.424
 1586POPC   PO423352  32.105  31.126   9.298
 1586POPC   GL123353  32.382  31.352   9.059
 1586POPC   GL223354  32.140  31.584   9.049
 1586POPC   C1A23355  32.536  31.372   8.650
 1586POPC   D2A23356  32.606  31.122   8.292
 1586POPC   C3A23357  32.478  31.237   7.910
 1586POPC   C4A23358  32.084  31.355   7.742
 1586POPC   C1B23359  32.207  31.746   8.673
 1586POPC   C2B23360  32.494  31.751   8.287
 1586POPC   C3B23361  32.323  31.776   7.875
 1586POPC   C4B23362  31.959  31.885   7.646
 1587POPC   NC323363   3.915  44.843   9.522
 1587POPC   PO423364   3.255  44.785   9.515
 1587POPC   GL123365   3.372  44.560   9.157
 1587POPC   GL223366   3.717  44.687   9.066
 1587POPC   C1A23367   3.150  44.572   8.790
 1587POPC   D2A23368   3.025  44.571   8.358
 1587POPC   C3A23369   3.362  44.458   8.062
 1587POPC   C4A23370   3.327  44.766   7.729
 1587POPC   C1B23371   3.620  44.671   8.622
 1587POPC   C2B23372   3.592  44.856   8.213
 1587POPC   C3B23373   3.795  44.693   7.829
 1587POPC   C4B23374   3.676  44.905   7.383
 1588POPC   NC323375  44.331  25.141   9.439
 1588POPC   PO423376  44.919  25.444   9.428
 1588POPC   GL123377  44.539  25.540   9.190
 1588POPC   GL223378  44.554  25.216   8.991
 1588POPC   C1A23379  44.512  25.686   8.779
 1588POPC   D2A23380  44.844  25.595   8.473
 1588POPC   C3A23381  44.793  25.229   8.178
 1588POPC   C4A23382  44.811  25.349   7.774
 1588POPC   C1B23383  44.340  24.834   8.792
 1588POPC   C2B23384  44.103  24.712   8.423
 1588POPC   C3B23385  44.058  24.870   8.004
 1588POPC   C4B23386  44.378  25.105   7.822
 1589POPC   NC323387  17.733  26.835   9.852
 1589POPC   PO423388  17.245  26.715   9.483
 1589POPC   GL123389  17.396  26.735   9.057
 1589POPC   GL223390  17.345  26.459   8.859
 1589POPC   C1A23391  17.389  26.918   8.640
 1589POPC   D2A23392  17.167  27.053   8.296
 1589POPC   C3A23393  17.264  26.936   7.873
 1589POPC   C4A23394  17.369  26.739   7.511
 1589POPC   C1B23395  17.773  26.577   8.659
 1589POPC   C2B23396  18.049  26.516   8.294
 1589POPC   C3B23397  18.020  26.644   7.826
 1589POPC   C4B23398  17.995  26.943   7.455
 1590POPC   NC323399  32.153  33.317   9.591
 1590POPC   PO423400  31.788  33.847   9.495
 1590POPC   GL123401  32.131  33.665   9.181
 1590POPC   GL223402  32.391  33.407   9.088
 1590POPC   C1A23403  32.426  33.911   8.914
 1590POPC   D2A23404  32.323  34.060   8.498
 1590POPC   C3A23405  32.479  33.869   8.152
 1590POPC   C4A23406  32.324  33.847   7.741
 1590POPC   C1B23407  32.489  33.501   8.623
 1590POPC   C2B23408  32.161  33.469   8.297
 1590POPC   C3B23409  32.008  33.479   7.873
 1590POPC   C4B23410  32.097  33.517   7.421
 1591POPC   NC323411   1.544   3.463   9.486
 1591POPC   PO423412   0.864   3.719   9.457
 1591POPC   GL123413   1.035   3.607   9.049
 1591POPC   GL223414   1.405   3.675   9.056
 1591POPC   C1A23415   1.133   3.378   8.647
 1591POPC   D2A23416   1.249   3.244   8.230
 1591POPC   C3A23417   1.141   3.565   7.949
 1591POPC   C4A23418   0.998   3.663   7.546
 1591POPC   C1B23419   1.286   3.870   8.683
 1591POPC   C2B23420   1.457   3.717   8.338
 1591POPC   C3B23421   1.643   3.579   7.981
 1591POPC   C4B23422   1.528   3.649   7.580
 1592POPC   NC323423   4.832  33.287   9.971
 1592POPC   PO423424   4.277  33.069   9.666
 1592POPC   GL123425   4.524  33.172   9.318
 1592POPC   GL223426   4.652  33.499   9.278
 1592POPC   C1A23427   4.592  33.059   8.905
 1592POPC   D2A23428   4.645  32.920   8.507
 1592POPC   C3A23429   4.317  32.997   8.210
 1592POPC   C4A23430   4.256  33.150   7.808
 1592POPC   C1B23431   4.725  33.554   8.834
 1592POPC   C2B23432   4.481  33.444   8.464
 1592POPC   C3B23433   4.565  33.494   8.029
 1592POPC   C4B23434   4.756  33.279   7.681
 1593POPC   NC323435  44.934  42.498   9.446
 1593POPC   PO423436  44.308  42.249   9.445
 1593POPC   GL123437  44.622  42.216   9.155
 1593POPC   GL223438  44.546  42.563   9.093
 1593POPC   C1A23439  44.797  42.281   8.747
 1593POPC   D2A23440  44.625  42.528   8.393
 1593POPC   C3A23441  44.706  42.326   8.002
 1593POPC   C4A23442  44.423  42.006   7.808
 1593POPC   C1B23443  44.819  42.785   8.804
 1593POPC   C2B23444  44.698  43.044   8.446
 1593POPC   C3B23445  44.588  42.944   8.028
 1593POPC   C4B23446  44.876  42.769   7.784
 1594POPC   NC323447  34.222   5.251   9.965
 1594POPC   PO423448  33.880   4.855   9.485
 1594POPC   GL123449  33.805   4.997   9.031
 1594POPC   GL223450  33.448   4.894   8.897
 1594POPC   C1A23451  33.925   5.144   8.666
 1594POPC   D2A23452  33.811   5.359   8.314
 1594POPC   C3A23453  34.111   5.254   8.027
 1594POPC   C4A23454  34.048   5.039   7.672
 1594POPC   C1B23455  33.652   4.612   8.665
 1594POPC   C2B23456  33.853   4.749   8.341
 1594POPC   C3B23457  33.692   4.914   8.013
 1594POPC   C4B23458  33.618   4.767   7.622
 1595POPC   NC323459  27.169  37.157   9.371
 1595POPC   PO423460  26.741  36.664   9.598
 1595POPC   GL123461  26.664  36.925   9.252
 1595POPC   GL223462  26.347  37.123   9.293
 1595POPC   C1A23463  26.830  36.951   8.836
 1595POPC   D2A23464  26.892  36.956   8.398
 1595POPC   C3A23465  26.889  36.662   8.111
 1595POPC   C4A23466  27.085  36.963   7.835
 1595POPC   C1B23467  26.305  37.004   8.871
 1595POPC   C2B23468  26.444  36.754   8.537
 1595POPC   C3B23469  26.412  36.889   8.132
 1595POPC   C4B23470  26.601  36.861   7.743
 1596POPC   NC323471  11.955  33.258   9.695
 1596POPC   PO423472  12.475  32.924   9.660
 1596POPC   GL123473  12.282  33.146   9.269
 1596POPC   GL223474  11.906  33.125   9.185
 1596POPC   C1A23475  12.228  33.086   8.799
 1596POPC   D2A23476  11.898  33.110   8.475
 1596POPC   C3A23477  12.054  33.164   8.060
 1596POPC   C4A23478  12.243  32.866   7.790
 1596POPC   C1B23479  11.863  32.734   8.866
 1596POPC   C2B23480  11.784  32.574   8.446
 1596POPC   C3B23481  11.835  32.686   8.020
 1596POPC   C4B23482  11.736  32.794   7.572
 1597POPC   NC323483  38.230  13.500   9.471
 1597POPC   PO423484  38.804  13.809   9.322
 1597POPC   GL123485  38.556  13.743   9.030
 1597POPC   GL223486  38.277  13.927   9.162
 1597POPC   C1A23487  38.604  13.692   8.596
 1597POPC   D2A23488  38.340  13.481   8.347
 1597POPC   C3A23489  38.579  13.560   8.029
 1597POPC   C4A23490  38.426  13.344   7.707
 1597POPC   C1B23491  38.218  13.972   8.715
 1597POPC   C2B23492  38.299  13.984   8.268
 1597POPC   C3B23493  38.134  13.737   7.891
 1597POPC   C4B23494  38.101  13.707   7.397
 1598POPC   NC323495   6.365   4.412   9.454
 1598POPC   PO423496   7.043   4.556   9.400
 1598POPC   GL123497   6.771   4.263   9.155
 1598POPC   GL223498   6.962   4.001   8.990
 1598POPC   C1A23499   6.530   4.172   8.761
 1598POPC   D2A23500   6.646   4.116   8.341
 1598POPC   C3A23501   6.351   4.328   8.072
 1598POPC   C4A23502   6.390   4.238   7.635
 1598POPC   C1B23503   6.958   4.425   8.730
 1598POPC   C2B23504   6.814   4.626   8.385
 1598POPC   C3B23505   6.827   4.466   7.988
 1598POPC   C4B23506   6.852   4.605   7.615
 1599POPC   NC323507  20.055   4.454   9.387
 1599POPC   PO423508  20.413   3.984   9.706
 1599POPC   GL123509  20.548   4.144   9.272
 1599POPC   GL223510  20.308   4.252   9.037
 1599POPC   C1A23511  20.747   4.257   8.846
 1599POPC   D2A23512  20.736   4.271   8.427
 1599POPC   C3A23513  20.634   4.584   8.182
 1599POPC   C4A23514  20.757   4.436   7.795
 1599POPC   C1B23515  20.185   4.403   8.654
 1599POPC   C2B23516  20.228   4.215   8.294
 1599POPC   C3B23517  20.247   4.332   7.916
 1599POPC   C4B23518  20.388   4.170   7.572
 1600POPC   NC323519   7.572   9.188   9.531
 1600POPC   PO423520   7.703   8.516   9.456
 1600POPC   GL123521   7.455   8.730   9.112
 1600POPC   GL223522   7.404   9.102   9.073
 1600POPC   C1A23523   7.502   8.810   8.678
 1600POPC   D2A23524   7.714   8.990   8.376
 1600POPC   C3A23525   7.436   8.921   8.070
 1600POPC   C4A23526   7.510   8.770   7.690
 1600POPC   C1B23527   7.606   9.325   8.765
 1600POPC   C2B23528   7.372   9.365   8.383
 1600POPC   C3B23529   7.369   9.410   7.961
 1600POPC   C4B23530   7.744   9.212   7.776
 1601POPC   NC323531  19.919  42.015   9.413
 1601POPC   PO423532  20.060  42.606   9.746
 1601POPC   GL123533  20.032  42.579   9.289
 1601POPC   GL223534  20.203  42.332   9.128
 1601POPC   C1A23535  19.788  42.675   8.923
 1601POPC   D2A23536  19.806  42.590   8.503
 1601POPC   C3A23537  19.628  42.605   8.107
 1601POPC   C4A23538  19.951  42.636   7.777
 1601POPC   C1B23539  19.958  42.153   8.779
 1601POPC   C2B23540  19.583  42.132   8.493
 1601POPC   C3B23541  19.539  42.083   8.038
 1601POPC   C4B23542  19.667  42.249   7.629
 1602POPC   NC323543   9.302  34.360   9.650
 1602POPC   PO423544   8.743  34.757   9.482
 1602POPC   GL123545   9.019  34.502   9.260
 1602POPC   GL223546   8.792  34.233   9.324
 1602POPC   C1A23547   9.344  34.457   8.907
 1602POPC   D2A23548   9.204  34.490   8.482
 1602POPC   C3A23549   9.426  34.439   8.098
 1602POPC   C4A23550   9.169  34.542   7.756
 1602POPC   C1B23551   8.871  34.231   8.863
 1602POPC   C2B23552   8.736  34.268   8.447
 1602POPC   C3B23553   8.953  34.231   8.095
 1602POPC   C4B23554   8.852  34.120   7.730
 1603POPC   NC323555  31.757  42.322   9.564
 1603POPC   PO423556  31.170  42.533   9.379
 1603POPC   GL123557  31.446  42.494   9.091
 1603POPC   GL223558  31.680  42.218   9.082
 1603POPC   C1A23559  31.360  42.407   8.689
 1603POPC   D2A23560  31.491  42.556   8.358
 1603POPC   C3A23561  31.359  42.371   8.037
 1603POPC   C4A23562  31.552  42.347   7.667
 1603POPC   C1B23563  31.643  41.997   8.729
 1603POPC   C2B23564  31.488  41.966   8.359
 1603POPC   C3B23565  31.635  41.925   7.979
 1603POPC   C4B23566  31.977  42.138   7.836
 1604POPC   NC323567  44.068   1.252   9.606
 1604POPC   PO423568  44.359   1.837   9.340
 1604POPC   GL123569  44.130   1.540   9.053
 1604POPC   GL223570  43.851   1.261   9.138
 1604POPC   C1A23571  44.063   1.290   8.661
 1604POPC   D2A23572  43.993   1.062   8.292
 1604POPC   C3A23573  44.130   1.343   7.970
 1604POPC   C4A23574  43.824   1.445   7.675
 1604POPC   C1B23575  43.733   0.936   8.810
 1604POPC   C2B23576  43.525   0.791   8.453
 1604POPC   C3B23577  43.693   0.685   8.051
 1604POPC   C4B23578  43.935   0.923   7.763
 1605POPC   NC323579   6.981  22.880   9.528
 1605POPC   PO423580   6.371  23.133   9.497
 1605POPC   GL123581   6.538  23.159   9.074
 1605POPC   GL223582   6.744  22.866   9.068
 1605POPC   C1A23583   6.440  23.011   8.629
 1605POPC   D2A23584   6.271  22.871   8.209
 1605POPC   C3A23585   6.449  23.057   7.822
 1605POPC   C4A23586   6.387  23.139   7.367
 1605POPC   C1B23587   6.950  22.955   8.671
 1605POPC   C2B23588   6.823  23.058   8.257
 1605POPC   C3B23589   6.880  22.786   7.891
 1605POPC   C4B23590   6.741  22.741   7.497
 1606POPC   NC323591  13.795  40.663   9.477
 1606POPC   PO423592  13.090  40.614   9.451
 1606POPC   GL123593  13.415  40.715   9.123
 1606POPC   GL223594  13.603  40.433   9.056
 1606POPC   C1A23595  13.666  40.812   8.711
 1606POPC   D2A23596  13.888  40.914   8.310
 1606POPC   C3A23597  13.645  40.972   7.987
 1606POPC   C4A23598  13.320  40.752   7.807
 1606POPC   C1B23599  13.920  40.338   8.730
 1606POPC   C2B23600  14.027  40.411   8.270
 1606POPC   C3B23601  13.746  40.468   7.918
 1606POPC   C4B23602  13.537  40.354   7.517
 1607POPC   NC323603  15.031   3.359   9.442
 1607POPC   PO423604  14.974   3.984   9.507
 1607POPC   GL123605  15.241   3.883   9.176
 1607POPC   GL223606  15.479   3.654   9.285
 1607POPC   C1A23607  15.152   3.672   8.768
 1607POPC   D2A23608  14.941   3.405   8.470
 1607POPC   C3A23609  14.654   3.625   8.185
 1607POPC   C4A23610  14.781   3.536   7.787
 1607POPC   C1B23611  15.516   3.368   8.925
 1607POPC   C2B23612  15.462   3.360   8.467
 1607POPC   C3B23613  15.265   3.514   8.077
 1607POPC   C4B23614  15.440   3.542   7.675
 1608POPC   NC323615  34.229  17.573   9.503
 1608POPC   PO423616  33.570  17.375   9.502
 1608POPC   GL123617  33.832  17.316   9.168
 1608POPC   GL223618  33.894  17.659   9.154
 1608POPC   C1A23619  33.776  17.411   8.724
 1608POPC   D2A23620  33.634  17.627   8.353
 1608POPC   C3A23621  33.759  17.395   8.009
 1608POPC   C4A23622  33.452  17.223   7.791
 1608POPC   C1B23623  34.086  17.807   8.806
 1608POPC   C2B23624  34.130  17.639   8.404
 1608POPC   C3B23625  34.032  17.816   7.979
 1608POPC   C4B23626  33.797  17.893   7.629
 1609POPC   NC323627   7.816   8.060   9.400
 1609POPC   PO423628   8.481   8.261   9.590
 1609POPC   GL123629   8.334   8.145   9.225
 1609POPC   GL223630   8.104   8.372   9.155
 1609POPC   C1A23631   8.333   8.004   8.809
 1609POPC   D2A23632   8.528   7.910   8.435
 1609POPC   C3A23633   8.239   8.083   8.138
 1609POPC   C4A23634   8.339   8.207   7.712
 1609POPC   C1B23635   7.899   8.507   8.822
 1609POPC   C2B23636   7.816   8.401   8.430
 1609POPC   C3B23637   7.846   8.593   8.054
 1609POPC   C4B23638   7.889   8.429   7.670
 1610POPC   NC323639  38.819   6.356   9.669
 1610POPC   PO423640  39.360   6.730   9.510
 1610POPC   GL123641  39.164   6.510   9.238
 1610POPC   GL223642  39.098   6.788   9.045
 1610POPC   C1A23643  39.321   6.351   8.845
 1610POPC   D2A23644  39.302   6.171   8.436
 1610POPC   C3A23645  39.628   6.137   8.149
 1610POPC   C4A23646  39.582   6.377   7.774
 1610POPC   C1B23647  39.367   6.853   8.709
 1610POPC   C2B23648  39.317   6.850   8.251
 1610POPC   C3B23649  39.131   6.601   7.869
 1610POPC   C4B23650  39.115   6.736   7.434
 1611POPC   NC323651  35.918  24.250   9.423
 1611POPC   PO423652  36.430  24.710   9.493
 1611POPC   GL123653  36.175  24.620   9.133
 1611POPC   GL223654  36.264  24.261   9.011
 1611POPC   C1A23655  36.302  24.665   8.703
 1611POPC   D2A23656  36.220  24.296   8.437
 1611POPC   C3A23657  36.155  24.412   8.069
 1611POPC   C4A23658  36.115  24.591   7.723
 1611POPC   C1B23659  35.878  24.375   8.793
 1611POPC   C2B23660  35.691  24.197   8.426
 1611POPC   C3B23661  35.882  23.984   8.068
 1611POPC   C4B23662  35.934  24.113   7.628
 1612POPC   NC323663  29.101  10.276   9.453
 1612POPC   PO423664  28.743  10.831   9.531
 1612POPC   GL123665  28.986  10.693   9.147
 1612POPC   GL223666  29.344  10.605   9.140
 1612POPC   C1A23667  29.000  10.469   8.749
 1612POPC   D2A23668  29.001  10.062   8.521
 1612POPC   C3A23669  28.937  10.217   8.126
 1612POPC   C4A23670  29.005  10.605   7.912
 1612POPC   C1B23671  29.521  10.444   8.735
 1612POPC   C2B23672  29.404  10.375   8.304
 1612POPC   C3B23673  29.538  10.475   7.902
 1612POPC   C4B23674  29.697  10.223   7.549
 1613POPC   NC323675   7.310  13.328   9.499
 1613POPC   PO423676   7.838  13.682   9.361
 1613POPC   GL123677   7.517  13.542   9.069
 1613POPC   GL223678   7.146  13.505   9.063
 1613POPC   C1A23679   7.381  13.683   8.661
 1613POPC   D2A23680   7.520  13.558   8.274
 1613POPC   C3A23681   7.538  13.885   7.952
 1613POPC   C4A23682   7.270  13.702   7.675
 1613POPC   C1B23683   6.942  13.400   8.671
 1613POPC   C2B23684   6.996  13.498   8.234
 1613POPC   C3B23685   7.019  13.292   7.835
 1613POPC   C4B23686   7.012  13.364   7.387
 1614POPC   NC323687  24.166  43.766   9.477
 1614POPC   PO423688  24.659  44.230   9.513
 1614POPC   GL123689  24.637  43.911   9.187
 1614POPC   GL223690  24.302  43.957   9.031
 1614POPC   C1A23691  24.689  43.811   8.734
 1614POPC   D2A23692  24.532  43.975   8.332
 1614POPC   C3A23693  24.672  43.783   7.963
 1614POPC   C4A23694  24.726  43.918   7.564
 1614POPC   C1B23695  24.123  44.097   8.627
 1614POPC   C2B23696  24.015  43.814   8.245
 1614POPC   C3B23697  24.193  43.635   7.860
 1614POPC   C4B23698  24.158  43.807   7.436
 1615POPC   NC323699  41.496  22.581   9.639
 1615POPC   PO423700  41.492  23.211   9.591
 1615POPC   GL123701  41.447  22.878   9.228
 1615POPC   GL223702  41.725  22.590   9.173
 1615POPC   C1A23703  41.392  22.761   8.799
 1615POPC   D2A23704  41.376  22.891   8.372
 1615POPC   C3A23705  41.521  23.149   8.022
 1615POPC   C4A23706  41.420  22.850   7.669
 1615POPC   C1B23707  41.834  22.527   8.723
 1615POPC   C2B23708  41.867  22.684   8.282
 1615POPC   C3B23709  41.886  22.816   7.827
 1615POPC   C4B23710  41.857  22.858   7.374
 1616POPC   NC323711  43.871  32.553   9.817
 1616POPC   PO423712  44.053  31.986   9.434
 1616POPC   GL123713  43.805  32.066   9.067
 1616POPC   GL223714  43.479  32.103   9.196
 1616POPC   C1A23715  43.742  32.073   8.626
 1616POPC   D2A23716  43.920  31.852   8.278
 1616POPC   C3A23717  44.142  32.150   8.002
 1616POPC   C4A23718  44.145  32.571   7.851
 1616POPC   C1B23719  43.263  32.066   8.797
 1616POPC   C2B23720  43.204  32.175   8.385
 1616POPC   C3B23721  43.589  32.246   8.165
 1616POPC   C4B23722  43.691  31.988   7.844
 1617POPC   NC323723  16.465  14.246   9.903
 1617POPC   PO423724  16.986  14.444   9.717
 1617POPC   GL123725  16.975  14.480   9.238
 1617POPC   GL223726  16.685  14.621   9.176
 1617POPC   C1A23727  16.967  14.358   8.822
 1617POPC   D2A23728  16.739  14.267   8.439
 1617POPC   C3A23729  16.897  14.367   8.033
 1617POPC   C4A23730  16.769  14.065   7.728
 1617POPC   C1B23731  16.478  14.520   8.831
 1617POPC   C2B23732  16.342  14.614   8.440
 1617POPC   C3B23733  16.369  14.413   8.048
 1617POPC   C4B23734  16.555  14.507   7.665
 1618POPC   NC323735  12.807   9.395   9.469
 1618POPC   PO423736  12.876   9.934   9.823
 1618POPC   GL123737  12.868   9.886   9.268
 1618POPC   GL223738  12.601   9.769   9.015
 1618POPC   C1A23739  13.046   9.738   8.789
 1618POPC   D2A23740  13.033   9.482   8.353
 1618POPC   C3A23741  13.141   9.676   7.943
 1618POPC   C4A23742  12.905   9.941   7.681
 1618POPC   C1B23743  12.674   9.386   8.763
 1618POPC   C2B23744  12.545   9.329   8.353
 1618POPC   C3B23745  12.664   9.418   7.952
 1618POPC   C4B23746  12.832   9.459   7.564
 1619POPC   NC323747   0.229   4.818   9.496
 1619POPC   PO423748   0.696   5.329   9.471
 1619POPC   GL123749   0.386   5.215   9.188
 1619POPC   GL223750   0.560   4.932   9.098
 1619POPC   C1A23751   0.354   5.397   8.781
 1619POPC   D2A23752   0.529   5.104   8.490
 1619POPC   C3A23753   0.514   5.263   8.103
 1619POPC   C4A23754   0.343   5.135   7.689
 1619POPC   C1B23755   0.162   4.938   8.830
 1619POPC   C2B23756   0.001   5.136   8.461
 1619POPC   C3B23757   0.125   4.932   8.110
 1619POPC   C4B23758  44.980   4.671   7.793
 1620POPC   NC323759   8.925  24.531   9.293
 1620POPC   PO423760   9.448  24.889   9.383
 1620POPC   GL123761   9.348  24.595   8.999
 1620POPC   GL223762   9.194  24.225   8.985
 1620POPC   C1A23763   9.050  24.570   8.626
 1620POPC   D2A23764   9.119  24.778   8.223
 1620POPC   C3A23765   9.039  24.559   7.850
 1620POPC   C4A23766   9.206  24.194   7.683
 1620POPC   C1B23767   8.772  24.143   8.755
 1620POPC   C2B23768   8.583  24.205   8.369
 1620POPC   C3B23769   8.792  24.154   8.008
 1620POPC   C4B23770   8.671  24.107   7.590
 1621POPC   NC323771  23.776  33.336   9.434
 1621POPC   PO423772  23.322  32.889   9.466
 1621POPC   GL123773  23.555  32.959   9.102
 1621POPC   GL223774  23.911  32.915   9.157
 1621POPC   C1A23775  23.702  32.788   8.716
 1621POPC   D2A23776  24.036  32.901   8.439
 1621POPC   C3A23777  23.822  32.921   8.067
 1621POPC   C4A23778  23.942  33.006   7.640
 1621POPC   C1B23779  23.904  33.263   8.796
 1621POPC   C2B23780  23.693  33.329   8.385
 1621POPC   C3B23781  23.822  33.406   7.951
 1621POPC   C4B23782  24.200  33.463   7.713
 1622POPC   NC323783   2.011  26.230   9.562
 1622POPC   PO423784   1.576  25.763   9.508
 1622POPC   GL123785   1.897  25.845   9.140
 1622POPC   GL223786   2.227  26.071   9.123
 1622POPC   C1A23787   2.009  25.881   8.688
 1622POPC   D2A23788   1.751  25.970   8.317
 1622POPC   C3A23789   1.924  26.172   7.962
 1622POPC   C4A23790   2.337  26.041   7.854
 1622POPC   C1B23791   2.199  26.374   8.778
 1622POPC   C2B23792   2.152  26.347   8.381
 1622POPC   C3B23793   2.286  26.558   8.030
 1622POPC   C4B23794   2.118  26.533   7.637
 1623POPC   NC323795  16.691  43.186   9.584
 1623POPC   PO423796  16.602  42.635   9.229
 1623POPC   GL123797  16.923  42.957   9.123
 1623POPC   GL223798  16.827  43.330   9.114
 1623POPC   C1A23799  16.859  43.017   8.688
 1623POPC   D2A23800  16.578  43.153   8.369
 1623POPC   C3A23801  16.533  42.923   7.985
 1623POPC   C4A23802  16.272  42.906   7.634
 1623POPC   C1B23803  17.048  43.474   8.743
 1623POPC   C2B23804  17.082  43.304   8.307
 1623POPC   C3B23805  16.814  43.346   7.917
 1623POPC   C4B23806  16.653  43.194   7.494
 1624POPC   NC323807  31.294  43.543   9.959
 1624POPC   PO423808  31.848  43.895   9.744
 1624POPC   GL123809  31.782  43.904   9.197
 1624POPC   GL223810  31.698  43.601   8.970
 1624POPC   C1A23811  31.474  44.033   8.806
 1624POPC   D2A23812  31.157  43.900   8.443
 1624POPC   C3A23813  31.341  43.865   7.991
 1624POPC   C4A23814  31.729  44.091   7.854
 1624POPC   C1B23815  31.469  43.537   8.642
 1624POPC   C2B23816  31.665  43.744   8.361
 1624POPC   C3B23817  31.805  43.616   8.004
 1624POPC   C4B23818  31.699  43.630   7.592
 1625POPC   NC323819   3.213   8.910   9.355
 1625POPC   PO423820   3.897   8.815   9.512
 1625POPC   GL123821   3.737   8.760   9.124
 1625POPC   GL223822   3.672   9.092   9.137
 1625POPC   C1A23823   3.545   8.817   8.713
 1625POPC   D2A23824   3.742   8.885   8.318
 1625POPC   C3A23825   3.487   8.757   7.970
 1625POPC   C4A23826   3.323   8.990   7.610
 1625POPC   C1B23827   3.806   9.258   8.764
 1625POPC   C2B23828   3.758   9.397   8.362
 1625POPC   C3B23829   3.668   9.242   7.947
 1625POPC   C4B23830   3.749   9.256   7.521
 1626POPC   NC323831  21.658  28.757   9.525
 1626POPC   PO423832  21.283  29.343   9.610
 1626POPC   GL123833  21.273  29.190   9.215
 1626POPC   GL223834  21.370  29.511   9.113
 1626POPC   C1A23835  21.584  29.088   8.898
 1626POPC   D2A23836  21.603  28.810   8.568
 1626POPC   C3A23837  21.533  28.920   8.154
 1626POPC   C4A23838  21.679  29.107   7.776
 1626POPC   C1B23839  21.210  29.442   8.713
 1626POPC   C2B23840  21.137  29.197   8.319
 1626POPC   C3B23841  21.182  29.149   7.854
 1626POPC   C4B23842  21.266  29.468   7.564
 1627POPC   NC323843  37.148  40.919   9.449
 1627POPC   PO423844  36.580  40.602   9.506
 1627POPC   GL123845  36.859  40.588   9.152
 1627POPC   GL223846  36.709  40.901   9.092
 1627POPC   C1A23847  37.059  40.704   8.740
 1627POPC   D2A23848  37.180  40.646   8.300
 1627POPC   C3A23849  36.841  40.690   8.002
 1627POPC   C4A23850  36.896  40.681   7.580
 1627POPC   C1B23851  36.742  41.108   8.694
 1627POPC   C2B23852  37.102  41.207   8.442
 1627POPC   C3B23853  37.168  41.106   8.033
 1627POPC   C4B23854  36.897  41.215   7.699
 1628POPC   NC323855  13.456  42.182   9.695
 1628POPC   PO423856  13.891  42.544   9.335
 1628POPC   GL123857  13.666  42.555   8.947
 1628POPC   GL223858  13.686  42.235   8.762
 1628POPC   C1A23859  13.317  42.532   8.630
 1628POPC   D2A23860  13.351  42.291   8.269
 1628POPC   C3A23861  13.665  42.466   8.004
 1628POPC   C4A23862  13.404  42.520   7.662
 1628POPC   C1B23863  13.911  42.475   8.480
 1628POPC   C2B23864  14.122  42.208   8.200
 1628POPC   C3B23865  14.070  42.223   7.771
 1628POPC   C4B23866  13.742  42.213   7.442
 1629POPC   NC323867  12.112  39.675   9.469
 1629POPC   PO423868  12.038  40.291   9.479
 1629POPC   GL123869  12.015  40.037   9.109
 1629POPC   GL223870  12.366  39.941   9.092
 1629POPC   C1A23871  11.902  39.845   8.713
 1629POPC   D2A23872  11.992  40.000   8.293
 1629POPC   C3A23873  11.904  39.776   7.917
 1629POPC   C4A23874  11.764  39.887   7.499
 1629POPC   C1B23875  12.403  39.917   8.661
 1629POPC   C2B23876  12.272  39.592   8.373
 1629POPC   C3B23877  12.386  39.627   7.972
 1629POPC   C4B23878  12.326  39.869   7.633
 1630POPC   NC323879   4.690  36.677   9.550
 1630POPC   PO423880   4.262  37.222   9.635
 1630POPC   GL123881   4.298  37.179   9.176
 1630POPC   GL223882   4.449  36.851   9.123
 1630POPC   C1A23883   4.437  37.229   8.745
 1630POPC   D2A23884   4.368  36.964   8.404
 1630POPC   C3A23885   4.449  37.165   8.039
 1630POPC   C4A23886   4.448  37.036   7.612
 1630POPC   C1B23887   4.335  36.603   8.770
 1630POPC   C2B23888   4.518  36.426   8.395
 1630POPC   C3B23889   4.423  36.640   8.008
 1630POPC   C4B23890   4.268  36.535   7.647
 1631POPC   NC323891  24.483   9.867   9.487
 1631POPC   PO423892  24.809   9.240   9.474
 1631POPC   GL123893  24.550   9.479   9.156
 1631POPC   GL223894  24.592   9.865   9.007
 1631POPC   C1A23895  24.410   9.447   8.761
 1631POPC   D2A23896  24.506   9.768   8.471
 1631POPC   C3A23897  24.371   9.736   8.045
 1631POPC   C4A23898  24.294   9.525   7.653
 1631POPC   C1B23899  24.170   9.907   8.851
 1631POPC   C2B23900  24.084  10.058   8.441
 1631POPC   C3B23901  24.206  10.222   8.035
 1631POPC   C4B23902  24.271  10.037   7.620
 1632POPC   NC323903  24.660  31.317   9.548
 1632POPC   PO423904  24.096  31.578   9.641
 1632POPC   GL123905  24.239  31.283   9.267
 1632POPC   GL223906  24.414  31.504   9.110
 1632POPC   C1A23907  24.336  31.149   8.767
 1632POPC   D2A23908  24.280  31.437   8.377
 1632POPC   C3A23909  24.429  31.298   7.954
 1632POPC   C4A23910  24.610  31.287   7.515
 1632POPC   C1B23911  24.661  31.538   8.751
 1632POPC   C2B23912  24.783  31.512   8.359
 1632POPC   C3B23913  24.626  31.741   8.092
 1632POPC   C4B23914  24.711  31.739   7.710
 1633POPC   NC323915  44.709  44.303   9.511
 1633POPC   PO423916  44.607  43.631   9.565
 1633POPC   GL123917  44.612  43.875   9.199
 1633POPC   GL223918  44.325  44.075   9.238
 1633POPC   C1A23919  44.743  43.834   8.776
 1633POPC   D2A23920  44.565  44.024   8.407
 1633POPC   C3A23921  44.785  44.029   8.038
 1633POPC   C4A23922  44.882  43.786   7.686
 1633POPC   C1B23923  44.342  44.277   8.822
 1633POPC   C2B23924  44.192  44.376   8.418
 1633POPC   C3B23925  44.191  44.121   8.016
 1633POPC   C4B23926  44.439  44.032   7.656
 1634POPC   NC323927   9.405  36.012   9.378
 1634POPC   PO423928   9.984  36.420   9.492
 1634POPC   GL123929   9.776  36.291   9.129
 1634POPC   GL223930   9.951  35.981   8.973
 1634POPC   C1A23931   9.711  36.397   8.694
 1634POPC   D2A23932   9.566  36.110   8.362
 1634POPC   C3A23933   9.491  36.300   7.959
 1634POPC   C4A23934   9.803  36.514   7.715
 1634POPC   C1B23935   9.701  35.710   8.672
 1634POPC   C2B23936   9.700  35.650   8.213
 1634POPC   C3B23937   9.698  35.883   7.819
 1634POPC   C4B23938   9.300  35.912   7.589
 1635POPC   NC323939  10.618   8.505   9.508
 1635POPC   PO423940  10.090   8.058   9.551
 1635POPC   GL123941  10.291   8.174   9.133
 1635POPC   GL223942  10.650   8.216   9.092
 1635POPC   C1A23943  10.404   8.108   8.672
 1635POPC   D2A23944  10.160   8.010   8.312
 1635POPC   C3A23945  10.302   8.065   7.891
 1635POPC   C4A23946  10.348   8.156   7.448
 1635POPC   C1B23947  10.689   8.536   8.796
 1635POPC   C2B23948  10.747   8.439   8.378
 1635POPC   C3B23949  10.819   8.586   7.979
 1635POPC   C4B23950  10.840   8.274   7.690
 1636POPC   NC323951   3.025   0.176   9.582
 1636POPC   PO423952   2.592   0.656   9.477
 1636POPC   GL123953   2.878   0.514   9.213
 1636POPC   GL223954   2.651   0.243   9.110
 1636POPC   C1A23955   2.945   0.684   8.818
 1636POPC   D2A23956   2.644   0.579   8.505
 1636POPC   C3A23957   2.727   0.686   8.083
 1636POPC   C4A23958   2.885   0.467   7.781
 1636POPC   C1B23959   3.042   0.112   8.912
 1636POPC   C2B23960   3.227   0.029   8.512
 1636POPC   C3B23961   3.121   0.090   8.067
 1636POPC   C4B23962   2.860  44.965   7.680
 1637POPC   NC323963  41.389  35.675   9.507
 1637POPC   PO423964  41.732  35.142   9.739
 1637POPC   GL123965  41.706  35.154   9.258
 1637POPC   GL223966  41.498  35.418   9.070
 1637POPC   C1A23967  41.685  34.960   8.831
 1637POPC   D2A23968  41.901  35.014   8.434
 1637POPC   C3A23969  41.650  35.043   8.056
 1637POPC   C4A23970  41.587  35.315   7.731
 1637POPC   C1B23971  41.624  35.536   8.650
 1637POPC   C2B23972  41.634  35.568   8.187
 1637POPC   C3B23973  41.703  35.822   7.827
 1637POPC   C4B23974  41.446  35.754   7.487
 1638POPC   NC323975  34.601  33.194   9.446
 1638POPC   PO423976  34.182  32.653   9.499
 1638POPC   GL123977  34.423  32.815   9.159
 1638POPC   GL223978  34.817  32.818   9.155
 1638POPC   C1A23979  34.438  33.005   8.771
 1638POPC   D2A23980  34.545  32.779   8.429
 1638POPC   C3A23981  34.433  32.934   8.046
 1638POPC   C4A23982  34.485  33.239   7.711
 1638POPC   C1B23983  34.935  33.135   8.822
 1638POPC   C2B23984  35.002  32.996   8.420
 1638POPC   C3B23985  34.884  33.127   8.027
 1638POPC   C4B23986  34.984  33.202   7.630
 1639POPC   NC323987  14.955  24.855   9.412
 1639POPC   PO423988  15.199  24.256   9.506
 1639POPC   GL123989  15.034  24.425   9.142
 1639POPC   GL223990  15.283  24.677   9.042
 1639POPC   C1A23991  14.889  24.604   8.733
 1639POPC   D2A23992  15.164  24.679   8.398
 1639POPC   C3A23993  15.219  24.461   8.017
 1639POPC   C4A23994  15.157  24.596   7.610
 1639POPC   C1B23995  15.367  24.342   8.746
 1639POPC   C2B23996  15.402  24.116   8.357
 1639POPC   C3B23997  15.541  24.034   7.940
 1639POPC   C4B23998  15.551  24.271   7.568
 1640POPC   NC323999  24.230  34.769   9.364
 1640POPC   PO424000  23.517  34.692   9.549
 1640POPC   GL124001  23.710  34.542   9.162
 1640POPC   GL224002  23.967  34.263   9.140
 1640POPC   C1A24003  23.930  34.698   8.766
 1640POPC   D2A24004  24.041  34.952   8.397
 1640POPC   C3A24005  23.858  34.842   8.018
 1640POPC   C4A24006  23.558  34.561   7.844
 1640POPC   C1B24007  24.097  34.222   8.685
 1640POPC   C2B24008  24.070  34.436   8.254
 1640POPC   C3B24009  24.000  34.311   7.780
 1640POPC   C4B24010  23.872  34.308   7.312
 1641POPC   NC324011  10.179  37.607   9.478
 1641POPC   PO424012   9.591  37.893   9.526
 1641POPC   GL124013   9.724  37.614   9.211
 1641POPC   GL224014   9.455  37.720   9.039
 1641POPC   C1A24015   9.818  37.511   8.761
 1641POPC   D2A24016   9.807  37.743   8.384
 1641POPC   C3A24017   9.999  37.596   8.004
 1641POPC   C4A24018   9.813  37.408   7.669
 1641POPC   C1B24019   9.296  37.395   8.796
 1641POPC   C2B24020   9.249  37.492   8.362
 1641POPC   C3B24021   9.467  37.598   8.000
 1641POPC   C4B24022   9.475  37.778   7.583
 1642POPC   NC324023   3.931  41.487   9.432
 1642POPC   PO424024   3.434  41.794   9.442
 1642POPC   GL124025   3.653  41.753   9.079
 1642POPC   GL224026   3.586  41.382   9.069
 1642POPC   C1A24027   3.572  41.672   8.638
 1642POPC   D2A24028   3.521  41.511   8.224
 1642POPC   C3A24029   3.659  41.796   7.902
 1642POPC   C4A24030   3.606  41.708   7.482
 1642POPC   C1B24031   3.629  41.133   8.702
 1642POPC   C2B24032   3.555  40.990   8.294
 1642POPC   C3B24033   3.446  41.108   7.899
 1642POPC   C4B24034   3.448  41.213   7.453
 1643POPC   NC324035  44.748  39.552   9.451
 1643POPC   PO424036  44.677  40.218   9.635
 1643POPC   GL124037  44.789  40.055   9.186
 1643POPC   GL224038  44.539  40.202   9.012
 1643POPC   C1A24039  44.835  39.857   8.778
 1643POPC   D2A24040  44.923  39.685   8.366
 1643POPC   C3A24041  44.818  39.964   8.020
 1643POPC   C4A24042  44.934  40.106   7.608
 1643POPC   C1B24043  44.331  39.921   8.767
 1643POPC   C2B24044  44.425  39.819   8.387
 1643POPC   C3B24045  44.323  40.028   8.034
 1643POPC   C4B24046  44.480  40.301   7.749
 1644POPC   NC324047  37.896  14.455   9.758
 1644POPC   PO424048  37.289  14.270   9.472
 1644POPC   GL124049  37.585  14.504   9.188
 1644POPC   GL224050  37.940  14.713   9.152
 1644POPC   C1A24051  37.525  14.538   8.749
 1644POPC   D2A24052  37.631  14.672   8.348
 1644POPC   C3A24053  37.450  14.437   8.009
 1644POPC   C4A24054  37.379  14.262   7.614
 1644POPC   C1B24055  37.990  14.363   8.912
 1644POPC   C2B24056  37.877  14.249   8.473
 1644POPC   C3B24057  37.954  14.354   8.066
 1644POPC   C4B24058  37.861  14.102   7.701
 1645POPC   NC324059  36.674  41.744   9.755
 1645POPC   PO424060  36.124  41.520   9.509
 1645POPC   GL124061  36.294  41.440   9.130
 1645POPC   GL224062  36.383  41.775   9.150
 1645POPC   C1A24063  36.206  41.319   8.711
 1645POPC   D2A24064  36.025  41.544   8.361
 1645POPC   C3A24065  36.155  41.411   7.950
 1645POPC   C4A24066  36.072  41.359   7.517
 1645POPC   C1B24067  36.169  41.838   8.784
 1645POPC   C2B24068  36.052  42.071   8.433
 1645POPC   C3B24069  35.966  41.957   8.030
 1645POPC   C4B24070  36.107  41.893   7.618
 1646POPC   NC324071   1.068  13.697   9.549
 1646POPC   PO424072   1.270  13.123   9.340
 1646POPC   GL124073   1.318  13.508   9.138
 1646POPC   GL224074   1.503  13.453   8.850
 1646POPC   C1A24075   1.099  13.818   8.882
 1646POPC   D2A24076   0.941  13.843   8.475
 1646POPC   C3A24077   1.166  13.604   8.171
 1646POPC   C4A24078   1.018  13.759   7.802
 1646POPC   C1B24079   1.088  13.291   8.707
 1646POPC   C2B24080   0.846  13.211   8.324
 1646POPC   C3B24081   0.983  13.198   7.888
 1646POPC   C4B24082   1.079  13.377   7.496
 1647POPC   NC324083  39.991   1.528   9.415
 1647POPC   PO424084  40.292   0.968   9.411
 1647POPC   GL124085  40.027   1.029   9.063
 1647POPC   GL224086  39.821   1.325   8.961
 1647POPC   C1A24087  40.128   0.967   8.663
 1647POPC   D2A24088  39.952   1.133   8.307
 1647POPC   C3A24089  39.942   0.907   7.937
 1647POPC   C4A24090  40.048   0.936   7.503
 1647POPC   C1B24091  40.194   1.479   8.775
 1647POPC   C2B24092  40.328   1.484   8.346
 1647POPC   C3B24093  40.263   1.327   7.932
 1647POPC   C4B24094  39.868   1.362   7.762
 1648POPC   NC324095  25.174  36.019   9.613
 1648POPC   PO424096  25.771  36.371   9.450
 1648POPC   GL124097  25.414  36.144   9.165
 1648POPC   GL224098  25.012  36.061   9.150
 1648POPC   C1A24099  25.241  36.182   8.743
 1648POPC   D2A24100  25.259  35.991   8.355
 1648POPC   C3A24101  25.221  36.239   8.003
 1648POPC   C4A24102  25.377  36.029   7.663
 1648POPC   C1B24103  24.937  35.764   8.800
 1648POPC   C2B24104  24.776  35.783   8.373
 1648POPC   C3B24105  24.960  35.758   7.992
 1648POPC   C4B24106  25.090  35.613   7.601
 1649POPC   NC324107   5.503   0.165   9.413
 1649POPC   PO424108   6.182   0.265   9.533
 1649POPC   GL124109   6.019   0.207   9.119
 1649POPC   GL224110   5.784   0.465   9.084
 1649POPC   C1A24111   6.059   0.328   8.660
 1649POPC   D2A24112   6.279   0.366   8.253
 1649POPC   C3A24113   6.015   0.463   7.954
 1649POPC   C4A24114   5.967   0.531   7.487
 1649POPC   C1B24115   5.602   0.142   8.770
 1649POPC   C2B24116   5.653  45.000   8.340
 1649POPC   C3B24117   5.432   0.046   7.924
 1649POPC   C4B24118   5.458   0.269   7.465
 1650POPC   NC324119  25.929  17.238   9.898
 1650POPC   PO424120  25.977  17.711   9.419
 1650POPC   GL124121  26.172  17.822   9.049
 1650POPC   GL224122  26.379  17.523   8.992
 1650POPC   C1A24123  25.871  17.695   8.706
 1650POPC   D2A24124  25.704  17.336   8.516
 1650POPC   C3A24125  25.708  17.404   8.105
 1650POPC   C4A24126  25.753  17.286   7.682
 1650POPC   C1B24127  26.338  17.556   8.618
 1650POPC   C2B24128  26.190  17.536   8.242
 1650POPC   C3B24129  26.158  17.589   7.820
 1650POPC   C4B24130  25.793  17.825   7.795
 1651POPC   NC324131  33.975  37.124   9.476
 1651POPC   PO424132  33.543  36.621   9.386
 1651POPC   GL124133  33.811  36.801   9.075
 1651POPC   GL224134  33.765  37.149   9.032
 1651POPC   C1A24135  33.913  36.881   8.632
 1651POPC   D2A24136  33.811  36.870   8.222
 1651POPC   C3A24137  34.138  36.774   7.934
 1651POPC   C4A24138  33.913  36.508   7.673
 1651POPC   C1B24139  33.510  37.220   8.729
 1651POPC   C2B24140  33.399  37.175   8.333
 1651POPC   C3B24141  33.524  37.276   7.943
 1651POPC   C4B24142  33.743  36.991   7.726
 1652POPC   NC324143   4.843  23.833   9.654
 1652POPC   PO424144   5.485  23.597   9.474
 1652POPC   GL124145   5.139  23.789   9.232
 1652POPC   GL224146   4.880  23.489   9.260
 1652POPC   C1A24147   5.106  24.054   8.843
 1652POPC   D2A24148   5.037  23.878   8.438
 1652POPC   C3A24149   5.075  24.078   8.049
 1652POPC   C4A24150   5.425  24.098   7.791
 1652POPC   C1B24151   4.702  23.696   8.892
 1652POPC   C2B24152   4.669  23.526   8.470
 1652POPC   C3B24153   4.891  23.535   8.071
 1652POPC   C4B24154   5.068  23.703   7.694
 1653POPC   NC324155  34.754  18.861   9.417
 1653POPC   PO424156  34.209  19.232   9.510
 1653POPC   GL124157  34.443  19.126   9.120
 1653POPC   GL224158  34.808  19.206   9.024
 1653POPC   C1A24159  34.415  18.892   8.739
 1653POPC   D2A24160  34.225  18.968   8.354
 1653POPC   C3A24161  34.318  18.801   7.963
 1653POPC   C4A24162  34.202  19.077   7.646
 1653POPC   C1B24163  34.924  18.833   8.765
 1653POPC   C2B24164  34.761  18.767   8.344
 1653POPC   C3B24165  34.857  18.874   7.901
 1653POPC   C4B24166  34.677  19.014   7.498
 1654POPC   NC324167   0.747   9.684   9.374
 1654POPC   PO424168   1.412  10.094   9.509
 1654POPC   GL124169   1.206   9.909   9.174
 1654POPC   GL224170   1.130  10.232   9.057
 1654POPC   C1A24171   1.315   9.752   8.748
 1654POPC   D2A24172   1.165   9.629   8.320
 1654POPC   C3A24173   1.298   9.704   7.891
 1654POPC   C4A24174   1.151   9.556   7.508
 1654POPC   C1B24175   1.057  10.178   8.617
 1654POPC   C2B24176   1.411  10.129   8.338
 1654POPC   C3B24177   1.501  10.168   7.902
 1654POPC   C4B24178   1.122  10.157   7.684
 1655POPC   NC324179  28.324  10.428   9.404
 1655POPC   PO424180  28.307  11.139   9.365
 1655POPC   GL124181  28.151  10.816   9.132
 1655POPC   GL224182  28.487  10.742   9.060
 1655POPC   C1A24183  28.149  10.483   8.768
 1655POPC   D2A24184  28.476  10.267   8.447
 1655POPC   C3A24185  28.420  10.370   7.993
 1655POPC   C4A24186  28.012  10.477   7.785
 1655POPC   C1B24187  28.532  11.005   8.726
 1655POPC   C2B24188  28.674  10.893   8.322
 1655POPC   C3B24189  28.524  10.849   7.903
 1655POPC   C4B24190  28.285  10.851   7.536
 1656POPC   NC324191  33.123   4.499   9.775
 1656POPC   PO424192  32.556   4.232   9.464
 1656POPC   GL124193  32.863   4.492   9.195
 1656POPC   GL224194  33.250   4.525   9.261
 1656POPC   C1A24195  32.824   4.483   8.726
 1656POPC   D2A24196  32.855   4.129   8.399
 1656POPC   C3A24197  32.943   4.265   7.983
 1656POPC   C4A24198  32.714   4.603   7.800
 1656POPC   C1B24199  33.287   4.312   8.855
 1656POPC   C2B24200  33.258   4.441   8.399
 1656POPC   C3B24201  33.221   4.693   8.017
 1656POPC   C4B24202  33.162   4.570   7.579
 1657POPC   NC324203  18.108  41.948   9.271
 1657POPC   PO424204  18.535  42.389   9.652
 1657POPC   GL124205  18.481  42.523   9.180
 1657POPC   GL224206  18.272  42.306   8.923
 1657POPC   C1A24207  18.393  42.754   8.753
 1657POPC   D2A24208  18.069  42.653   8.416
 1657POPC   C3A24209  18.194  42.336   8.145
 1657POPC   C4A24210  18.230  42.211   7.744
 1657POPC   C1B24211  17.973  42.154   8.590
 1657POPC   C2B24212  17.908  41.905   8.198
 1657POPC   C3B24213  17.909  41.826   7.726
 1657POPC   C4B24214  18.101  42.005   7.274
 1658POPC   NC324215  26.440   1.997   9.509
 1658POPC   PO424216  26.959   1.673   9.679
 1658POPC   GL124217  26.972   1.973   9.326
 1658POPC   GL224218  27.294   1.932   9.132
 1658POPC   C1A24219  26.793   2.068   8.903
 1658POPC   D2A24220  26.700   1.765   8.540
 1658POPC   C3A24221  26.685   1.980   8.131
 1658POPC   C4A24222  26.690   2.075   7.723
 1658POPC   C1B24223  27.180   1.796   8.693
 1658POPC   C2B24224  27.127   1.796   8.229
 1658POPC   C3B24225  27.108   1.772   7.788
 1658POPC   C4B24226  27.145   2.140   7.533
 1659POPC   NC324227   1.076   8.803   9.707
 1659POPC   PO424228   1.058   9.401   9.554
 1659POPC   GL124229   1.204   9.023   9.252
 1659POPC   GL224230   1.584   8.952   9.215
 1659POPC   C1A24231   1.144   8.899   8.793
 1659POPC   D2A24232   1.309   8.653   8.417
 1659POPC   C3A24233   1.244   8.831   7.984
 1659POPC   C4A24234   0.945   9.108   7.711
 1659POPC   C1B24235   1.510   9.258   8.892
 1659POPC   C2B24236   1.429   9.183   8.471
 1659POPC   C3B24237   1.500   9.274   8.071
 1659POPC   C4B24238   1.460   9.181   7.669
 1660POPC   NC324239  38.607   8.263   9.699
 1660POPC   PO424240  38.157   7.899   9.355
 1660POPC   GL124241  38.388   7.927   9.001
 1660POPC   GL224242  38.664   8.114   9.184
 1660POPC   C1A24243  38.178   8.053   8.634
 1660POPC   D2A24244  37.925   7.962   8.290
 1660POPC   C3A24245  38.242   8.079   8.021
 1660POPC   C4A24246  38.238   8.306   7.651
 1660POPC   C1B24247  38.737   8.270   8.773
 1660POPC   C2B24248  38.579   8.360   8.359
 1660POPC   C3B24249  38.697   8.319   7.929
 1660POPC   C4B24250  38.663   8.050   7.569
 1661POPC   NC324251   3.095  16.300   9.359
 1661POPC   PO424252   2.695  15.867   9.599
 1661POPC   GL124253   2.690  16.065   9.173
 1661POPC   GL224254   2.331  16.112   9.152
 1661POPC   C1A24255   2.938  16.077   8.743
 1661POPC   D2A24256   2.745  16.237   8.335
 1661POPC   C3A24257   2.853  16.093   7.919
 1661POPC   C4A24258   2.853  15.720   7.642
 1661POPC   C1B24259   2.465  15.922   8.737
 1661POPC   C2B24260   2.529  15.734   8.359
 1661POPC   C3B24261   2.369  15.952   8.036
 1661POPC   C4B24262   2.437  16.021   7.605
 1662POPC   NC324263  18.085   5.245   9.378
 1662POPC   PO424264  18.635   4.798   9.443
 1662POPC   GL124265  18.351   4.902   9.090
 1662POPC   GL224266  17.963   4.845   9.091
 1662POPC   C1A24267  18.469   4.933   8.665
 1662POPC   D2A24268  18.484   4.699   8.294
 1662POPC   C3A24269  18.529   4.984   7.952
 1662POPC   C4A24270  18.421   5.052   7.517
 1662POPC   C1B24271  17.971   5.116   8.704
 1662POPC   C2B24272  18.133   5.065   8.274
 1662POPC   C3B24273  18.030   5.022   7.843
 1662POPC   C4B24274  18.006   5.320   7.449
 1663POPC   NC324275   7.944  42.715   9.289
 1663POPC   PO424276   8.226  43.329   9.427
 1663POPC   GL124277   8.056  43.166   9.087
 1663POPC   GL224278   8.345  42.932   9.050
 1663POPC   C1A24279   7.800  43.330   8.764
 1663POPC   D2A24280   7.982  43.609   8.486
 1663POPC   C3A24281   7.959  43.428   8.070
 1663POPC   C4A24282   8.131  43.236   7.711
 1663POPC   C1B24283   8.252  43.088   8.616
 1663POPC   C2B24284   8.229  42.990   8.172
 1663POPC   C3B24285   8.508  42.894   7.823
 1663POPC   C4B24286   8.621  42.557   7.561
 1664POPC   NC324287   7.628  38.014   9.188
 1664POPC   PO424288   7.113  37.750   9.528
 1664POPC   GL124289   7.345  37.564   9.177
 1664POPC   GL224290   7.642  37.365   9.096
 1664POPC   C1A24291   7.271  37.455   8.753
 1664POPC   D2A24292   7.350  37.688   8.385
 1664POPC   C3A24293   7.340  37.447   8.015
 1664POPC   C4A24294   7.438  37.579   7.600
 1664POPC   C1B24295   7.782  37.598   8.704
 1664POPC   C2B24296   8.031  37.933   8.485
 1664POPC   C3B24297   8.086  38.036   8.050
 1664POPC   C4B24298   7.830  37.875   7.703
 1665POPC   NC324299  19.456   3.836   9.351
 1665POPC   PO424300  18.955   4.269   9.628
 1665POPC   GL124301  19.052   4.140   9.241
 1665POPC   GL224302  19.362   4.337   9.210
 1665POPC   C1A24303  19.021   4.173   8.800
 1665POPC   D2A24304  18.920   4.505   8.484
 1665POPC   C3A24305  18.791   4.346   8.080
 1665POPC   C4A24306  19.003   4.405   7.695
 1665POPC   C1B24307  19.345   4.591   8.811
 1665POPC   C2B24308  19.371   4.754   8.372
 1665POPC   C3B24309  19.351   4.422   8.053
 1665POPC   C4B24310  19.510   4.288   7.634
 1666POPC   NC324311  14.800   1.860   9.387
 1666POPC   PO424312  14.134   1.657   9.253
 1666POPC   GL124313  14.395   1.948   9.014
 1666POPC   GL224314  14.445   1.747   8.752
 1666POPC   C1A24315  14.370   2.232   8.633
 1666POPC   D2A24316  14.593   2.071   8.239
 1666POPC   C3A24317  14.445   1.675   7.991
 1666POPC   C4A24318  14.215   1.672   7.623
 1666POPC   C1B24319  14.829   2.011   8.726
 1666POPC   C2B24320  15.008   2.297   8.461
 1666POPC   C3B24321  15.025   2.285   8.036
 1666POPC   C4B24322  14.690   2.229   7.740
 1667POPC   NC324323  17.003  37.343   9.884
 1667POPC   PO424324  16.456  37.698   9.646
 1667POPC   GL124325  16.640  37.622   9.235
 1667POPC   GL224326  16.580  37.934   9.099
 1667POPC   C1A24327  16.813  37.505   8.810
 1667POPC   D2A24328  16.663  37.459   8.370
 1667POPC   C3A24329  16.713  37.840   8.089
 1667POPC   C4A24330  16.878  37.861   7.650
 1667POPC   C1B24331  16.270  38.009   8.770
 1667POPC   C2B24332  16.307  37.859   8.402
 1667POPC   C3B24333  16.229  37.966   8.005
 1667POPC   C4B24334  16.390  37.751   7.675
 1668POPC   NC324335  35.627  44.340   9.490
 1668POPC   PO424336  35.357  44.826   9.806
 1668POPC   GL124337  35.309  44.688   9.261
 1668POPC   GL224338  35.574  44.614   9.049
 1668POPC   C1A24339  35.164  44.769   8.816
 1668POPC   D2A24340  35.082  44.453   8.479
 1668POPC   C3A24341  35.014  44.631   8.093
 1668POPC   C4A24342  35.129  44.754   7.709
 1668POPC   C1B24343  35.673  44.607   8.585
 1668POPC   C2B24344  35.526  44.666   8.140
 1668POPC   C3B24345  35.619  44.622   7.679
 1668POPC   C4B24346  35.752  44.587   7.233
 1669POPC   NC324347  20.982  41.825   9.563
 1669POPC   PO424348  20.332  41.805   9.414
 1669POPC   GL124349  20.509  41.918   9.023
 1669POPC   GL224350  20.883  41.972   8.950
 1669POPC   C1A24351  20.500  41.904   8.584
 1669POPC   D2A24352  20.591  41.725   8.192
 1669POPC   C3A24353  20.302  41.716   7.866
 1669POPC   C4A24354  20.395  41.569   7.449
 1669POPC   C1B24355  21.012  41.787   8.528
 1669POPC   C2B24356  20.989  41.419   8.247
 1669POPC   C3B24357  20.752  41.396   7.820
 1669POPC   C4B24358  20.945  41.545   7.407
 1670POPC   NC324359   3.843  37.193   9.421
 1670POPC   PO424360   3.483  36.626   9.440
 1670POPC   GL124361   3.609  36.844   9.104
 1670POPC   GL224362   3.956  36.729   9.151
 1670POPC   C1A24363   3.499  36.908   8.676
 1670POPC   D2A24364   3.461  36.686   8.303
 1670POPC   C3A24365   3.489  36.967   7.979
 1670POPC   C4A24366   3.539  36.846   7.599
 1670POPC   C1B24367   3.984  37.014   8.773
 1670POPC   C2B24368   3.872  36.991   8.318
 1670POPC   C3B24369   3.995  36.994   7.859
 1670POPC   C4B24370   4.023  36.892   7.388
 1671POPC   NC324371  38.953  20.810   9.673
 1671POPC   PO424372  39.346  20.272   9.617
 1671POPC   GL124373  39.343  20.672   9.342
 1671POPC   GL224374  38.998  20.609   9.200
 1671POPC   C1A24375  39.406  20.780   8.897
 1671POPC   D2A24376  39.553  20.683   8.471
 1671POPC   C3A24377  39.315  20.681   8.106
 1671POPC   C4A24378  39.460  20.622   7.705
 1671POPC   C1B24379  38.950  20.393   8.784
 1671POPC   C2B24380  38.857  20.488   8.324
 1671POPC   C3B24381  38.994  20.313   7.916
 1671POPC   C4B24382  39.067  20.383   7.418
 1672POPC   NC324383  17.976  22.663   9.437
 1672POPC   PO424384  18.264  23.203   9.440
 1672POPC   GL124385  18.560  23.151   9.069
 1672POPC   GL224386  18.627  22.800   9.171
 1672POPC   C1A24387  18.462  23.233   8.598
 1672POPC   D2A24388  18.042  23.233   8.444
 1672POPC   C3A24389  17.977  23.106   8.017
 1672POPC   C4A24390  18.139  22.977   7.608
 1672POPC   C1B24391  18.601  22.750   8.717
 1672POPC   C2B24392  18.337  22.815   8.363
 1672POPC   C3B24393  18.301  22.670   7.976
 1672POPC   C4B24394  18.199  22.356   7.707
 1673POPC   NC324395  38.409  40.182   9.612
 1673POPC   PO424396  38.524  39.559   9.459
 1673POPC   GL124397  38.464  39.793   9.064
 1673POPC   GL224398  38.417  40.164   9.044
 1673POPC   C1A24399  38.371  39.799   8.638
 1673POPC   D2A24400  38.556  39.866   8.223
 1673POPC   C3A24401  38.322  39.887   7.832
 1673POPC   C4A24402  38.484  40.007   7.415
 1673POPC   C1B24403  38.254  40.310   8.637
 1673POPC   C2B24404  38.321  40.328   8.187
 1673POPC   C3B24405  38.010  40.292   7.865
 1673POPC   C4B24406  38.120  40.373   7.451
 1674POPC   NC324407  38.037  34.625   9.483
 1674POPC   PO424408  37.391  34.711   9.483
 1674POPC   GL124409  37.579  34.462   9.168
 1674POPC   GL224410  37.787  34.161   9.255
 1674POPC   C1A24411  37.649  34.653   8.784
 1674POPC   D2A24412  37.585  34.795   8.372
 1674POPC   C3A24413  37.595  34.492   8.088
 1674POPC   C4A24414  37.550  34.596   7.678
 1674POPC   C1B24415  38.042  34.329   8.901
 1674POPC   C2B24416  38.017  34.498   8.472
 1674POPC   C3B24417  38.051  34.268   8.106
 1674POPC   C4B24418  38.145  34.337   7.682
 1675POPC   NC324419  25.317  22.088   9.413
 1675POPC   PO424420  25.700  22.559   9.607
 1675POPC   GL124421  25.419  22.491   9.125
 1675POPC   GL224422  25.036  22.391   9.085
 1675POPC   C1A24423  25.327  22.291   8.680
 1675POPC   D2A24424  25.000  22.260   8.347
 1675POPC   C3A24425  25.239  22.274   7.950
 1675POPC   C4A24426  25.629  22.073   7.829
 1675POPC   C1B24427  24.991  21.959   8.812
 1675POPC   C2B24428  24.881  21.755   8.398
 1675POPC   C3B24429  24.904  21.880   7.995
 1675POPC   C4B24430  25.185  21.848   7.669
 1676POPC   NC324431  42.281  37.191   9.483
 1676POPC   PO424432  42.421  36.560   9.430
 1676POPC   GL124433  42.186  36.815   9.131
 1676POPC   GL224434  42.382  37.065   8.997
 1676POPC   C1A24435  42.064  36.808   8.683
 1676POPC   D2A24436  42.107  36.643   8.251
 1676POPC   C3A24437  42.174  36.901   7.909
 1676POPC   C4A24438  42.214  36.730   7.493
 1676POPC   C1B24439  42.609  37.227   8.658
 1676POPC   C2B24440  42.421  37.226   8.263
 1676POPC   C3B24441  42.567  37.269   7.882
 1676POPC   C4B24442  42.362  37.207   7.502
 1677POPC   NC324443  10.390  11.887   9.542
 1677POPC   PO424444  10.480  12.522   9.506
 1677POPC   GL124445  10.557  12.267   9.139
 1677POPC   GL224446  10.369  11.966   9.046
 1677POPC   C1A24447  10.595  12.241   8.694
 1677POPC   D2A24448  10.291  12.040   8.403
 1677POPC   C3A24449  10.427  12.267   8.032
 1677POPC   C4A24450  10.724  12.396   7.732
 1677POPC   C1B24451  10.695  11.760   8.789
 1677POPC   C2B24452  10.753  11.862   8.358
 1677POPC   C3B24453  10.673  11.846   7.911
 1677POPC   C4B24454  10.493  11.903   7.515
 1678POPC   NC324455  25.145  11.025   9.421
 1678POPC   PO424456  25.505  11.581   9.394
 1678POPC   GL124457  25.276  11.383   9.057
 1678POPC   GL224458  25.368  11.023   8.975
 1678POPC   C1A24459  25.295  11.377   8.604
 1678POPC   D2A24460  25.394  11.217   8.210
 1678POPC   C3A24461  25.401  11.464   7.810
 1678POPC   C4A24462  25.508  11.573   7.358
 1678POPC   C1B24463  25.162  10.880   8.598
 1678POPC   C2B24464  24.924  11.046   8.248
 1678POPC   C3B24465  24.966  10.981   7.839
 1678POPC   C4B24466  25.390  10.935   7.784
 1679POPC   NC324467  37.129   5.335   9.505
 1679POPC   PO424468  37.208   4.726   9.570
 1679POPC   GL124469  36.928   4.878   9.237
 1679POPC   GL224470  36.750   5.160   9.231
 1679POPC   C1A24471  36.913   4.837   8.783
 1679POPC   D2A24472  36.878   4.711   8.331
 1679POPC   C3A24473  36.862   4.985   7.977
 1679POPC   C4A24474  36.550   4.948   7.677
 1679POPC   C1B24475  36.652   5.270   8.846
 1679POPC   C2B24476  36.728   5.239   8.428
 1679POPC   C3B24477  36.779   5.484   8.058
 1679POPC   C4B24478  36.789   5.396   7.603
 1680POPC   NC324479  34.657   6.189   9.395
 1680POPC   PO424480  34.316   5.583   9.627
 1680POPC   GL124481  34.355   5.702   9.188
 1680POPC   GL224482  34.251   6.033   9.112
 1680POPC   C1A24483  34.551   5.807   8.768
 1680POPC   D2A24484  34.888   5.701   8.452
 1680POPC   C3A24485  34.878   5.997   8.095
 1680POPC   C4A24486  34.630   6.066   7.730
 1680POPC   C1B24487  34.129   6.140   8.704
 1680POPC   C2B24488  34.336   5.986   8.294
 1680POPC   C3B24489  34.425   5.676   7.937
 1680POPC   C4B24490  34.465   5.664   7.441
 1681POPC   NC324491  19.645   6.881   9.396
 1681POPC   PO424492  19.487   7.555   9.402
 1681POPC   GL124493  19.799   7.489   9.116
 1681POPC   GL224494  19.976   7.195   9.182
 1681POPC   C1A24495  19.844   7.513   8.720
 1681POPC   D2A24496  19.664   7.362   8.394
 1681POPC   C3A24497  19.831   7.599   8.076
 1681POPC   C4A24498  19.977   7.525   7.659
 1681POPC   C1B24499  19.846   7.011   8.764
 1681POPC   C2B24500  19.962   6.937   8.320
 1681POPC   C3B24501  19.769   7.110   7.971
 1681POPC   C4B24502  19.717   7.005   7.590
 1682POPC   NC324503  42.127   5.787   9.293
 1682POPC   PO424504  42.646   5.285   9.323
 1682POPC   GL124505  42.598   5.730   9.078
 1682POPC   GL224506  42.356   6.060   8.951
 1682POPC   C1A24507  42.757   5.920   8.698
 1682POPC   D2A24508  42.929   5.850   8.331
 1682POPC   C3A24509  42.632   5.910   8.011
 1682POPC   C4A24510  42.764   5.651   7.693
 1682POPC   C1B24511  42.098   5.815   8.632
 1682POPC   C2B24512  42.115   5.782   8.188
 1682POPC   C3B24513  42.136   5.870   7.774
 1682POPC   C4B24514  42.040   6.055   7.333
 1683POPC   NC324515  36.807   0.791   9.732
 1683POPC   PO424516  37.155   1.368   9.531
 1683POPC   GL124517  36.835   1.212   9.228
 1683POPC   GL224518  36.903   1.533   9.050
 1683POPC   C1A24519  36.785   1.100   8.771
 1683POPC   D2A24520  36.997   0.986   8.391
 1683POPC   C3A24521  36.765   1.121   8.083
 1683POPC   C4A24522  36.709   1.268   7.710
 1683POPC   C1B24523  37.155   1.440   8.678
 1683POPC   C2B24524  37.092   1.492   8.239
 1683POPC   C3B24525  37.160   1.524   7.814
 1683POPC   C4B24526  37.133   1.351   7.417
 1684POPC   NC324527   8.703   5.147   9.515
 1684POPC   PO424528   9.333   5.017   9.475
 1684POPC   GL124529   9.041   4.958   9.153
 1684POPC   GL224530   8.711   4.751   9.193
 1684POPC   C1A24531   9.229   5.062   8.719
 1684POPC   D2A24532   9.264   5.338   8.342
 1684POPC   C3A24533   9.232   5.133   7.934
 1684POPC   C4A24534   9.049   5.283   7.541
 1684POPC   C1B24535   8.735   4.884   8.760
 1684POPC   C2B24536   8.873   5.033   8.364
 1684POPC   C3B24537   8.720   5.100   7.984
 1684POPC   C4B24538   8.727   4.861   7.617
 1685POPC   NC324539  43.056  44.519   9.506
 1685POPC   PO424540  43.456   0.002   9.755
 1685POPC   GL124541  43.213  44.919   9.256
 1685POPC   GL224542  42.850  44.861   9.171
 1685POPC   C1A24543  43.404  44.830   8.794
 1685POPC   D2A24544  43.332  44.564   8.448
 1685POPC   C3A24545  43.429  44.746   8.061
 1685POPC   C4A24546  43.263  44.646   7.702
 1685POPC   C1B24547  42.920  44.714   8.789
 1685POPC   C2B24548  42.828  44.452   8.508
 1685POPC   C3B24549  42.897  44.657   8.124
 1685POPC   C4B24550  42.730  44.584   7.750
 1686POPC   NC324551  11.570  35.593   9.508
 1686POPC   PO424552  11.125  35.017   9.392
 1686POPC   GL124553  11.358  35.287   9.153
 1686POPC   GL224554  11.111  35.533   9.233
 1686POPC   C1A24555  11.542  35.254   8.748
 1686POPC   D2A24556  11.406  34.982   8.396
 1686POPC   C3A24557  11.343  35.172   8.024
 1686POPC   C4A24558  11.482  35.364   7.661
 1686POPC   C1B24559  11.223  35.683   8.818
 1686POPC   C2B24560  11.325  35.574   8.393
 1686POPC   C3B24561  11.142  35.648   8.007
 1686POPC   C4B24562  10.976  35.400   7.681
 1687POPC   NC324563  32.633   3.779   9.378
 1687POPC   PO424564  33.124   3.322   9.576
 1687POPC   GL124565  33.125   3.633   9.240
 1687POPC   GL224566  32.876   3.422   9.091
 1687POPC   C1A24567  32.974   3.851   8.820
 1687POPC   D2A24568  32.866   3.605   8.436
 1687POPC   C3A24569  32.787   3.772   8.012
 1687POPC   C4A24570  32.981   3.887   7.600
 1687POPC   C1B24571  33.226   3.407   8.794
 1687POPC   C2B24572  33.319   3.390   8.349
 1687POPC   C3B24573  33.092   3.306   7.955
 1687POPC   C4B24574  33.190   3.272   7.504
 1688POPC   NC324575   6.274  24.354   9.477
 1688POPC   PO424576   5.730  24.742   9.466
 1688POPC   GL124577   5.929  24.513   9.149
 1688POPC   GL224578   6.194  24.719   9.089
 1688POPC   C1A24579   5.912  24.347   8.753
 1688POPC   D2A24580   5.686  24.519   8.429
 1688POPC   C3A24581   5.803  24.333   8.076
 1688POPC   C4A24582   5.890  24.449   7.663
 1688POPC   C1B24583   5.952  24.857   8.759
 1688POPC   C2B24584   5.894  25.009   8.362
 1688POPC   C3B24585   5.995  24.874   7.940
 1688POPC   C4B24586   6.074  24.913   7.486
 1689POPC   NC324587  35.439  42.867   9.587
 1689POPC   PO424588  34.734  42.682   9.429
 1689POPC   GL124589  35.162  42.846   9.152
 1689POPC   GL224590  35.578  42.869   9.113
 1689POPC   C1A24591  35.297  43.107   8.772
 1689POPC   D2A24592  35.073  43.034   8.393
 1689POPC   C3A24593  35.240  43.132   8.035
 1689POPC   C4A24594  35.108  42.942   7.711
 1689POPC   C1B24595  35.547  42.639   8.720
 1689POPC   C2B24596  35.521  42.793   8.287
 1689POPC   C3B24597  35.591  42.752   7.831
 1689POPC   C4B24598  35.437  42.706   7.375
 1690POPC   NC324599  39.645  14.817   9.532
 1690POPC   PO424600  40.239  15.167   9.517
 1690POPC   GL124601  40.028  15.186   9.103
 1690POPC   GL224602  39.913  14.856   9.095
 1690POPC   C1A24603  39.819  15.345   8.675
 1690POPC   D2A24604  39.670  15.419   8.217
 1690POPC   C3A24605  40.025  15.458   7.888
 1690POPC   C4A24606  39.988  15.392   7.395
 1690POPC   C1B24607  40.141  14.895   8.711
 1690POPC   C2B24608  40.119  14.765   8.361
 1690POPC   C3B24609  39.902  14.972   8.046
 1690POPC   C4B24610  40.047  14.947   7.633
 1691POPC   NC324611  21.572  30.758   9.705
 1691POPC   PO424612  22.376  30.742   9.640
 1691POPC   GL124613  22.248  30.727   9.210
 1691POPC   GL224614  22.505  30.439   9.215
 1691POPC   C1A24615  21.999  30.731   8.778
 1691POPC   D2A24616  22.014  30.831   8.289
 1691POPC   C3A24617  21.974  30.954   7.868
 1691POPC   C4A24618  21.835  30.692   7.561
 1691POPC   C1B24619  22.387  30.318   8.829
 1691POPC   C2B24620  22.309  30.459   8.456
 1691POPC   C3B24621  22.407  30.363   8.055
 1691POPC   C4B24622  22.317  30.541   7.677
 1692POPC   NC324623  23.290  23.769   9.746
 1692POPC   PO424624  22.908  23.486   9.333
 1692POPC   GL124625  23.074  23.748   9.060
 1692POPC   GL224626  23.229  23.473   8.900
 1692POPC   C1A24627  23.066  23.967   8.683
 1692POPC   D2A24628  23.181  23.822   8.283
 1692POPC   C3A24629  22.851  23.902   7.994
 1692POPC   C4A24630  22.736  23.642   7.625
 1692POPC   C1B24631  22.866  23.480   8.588
 1692POPC   C2B24632  22.789  23.398   8.129
 1692POPC   C3B24633  22.729  23.161   7.749
 1692POPC   C4B24634  22.590  23.259   7.309
 1693POPC   NC324635  16.420  15.112   9.534
 1693POPC   PO424636  15.761  15.363   9.498
 1693POPC   GL124637  15.754  15.264   9.120
 1693POPC   GL224638  16.095  15.194   9.126
 1693POPC   C1A24639  15.673  15.377   8.727
 1693POPC   D2A24640  15.924  15.294   8.392
 1693POPC   C3A24641  15.703  15.329   8.042
 1693POPC   C4A24642  15.658  14.932   7.804
 1693POPC   C1B24643  16.257  15.369   8.776
 1693POPC   C2B24644  16.448  15.183   8.412
 1693POPC   C3B24645  16.283  15.352   8.025
 1693POPC   C4B24646  16.044  15.243   7.693
 1694POPC   NC324647  39.280  23.305   9.298
 1694POPC   PO424648  39.421  22.642   9.459
 1694POPC   GL124649  39.228  22.841   9.112
 1694POPC   GL224650  39.580  22.953   9.027
 1694POPC   C1A24651  39.207  23.075   8.679
 1694POPC   D2A24652  39.084  23.225   8.268
 1694POPC   C3A24653  39.348  23.098   7.880
 1694POPC   C4A24654  39.619  22.937   7.539
 1694POPC   C1B24655  39.438  22.634   8.718
 1694POPC   C2B24656  39.277  22.718   8.264
 1694POPC   C3B24657  39.252  22.611   7.806
 1694POPC   C4B24658  39.325  22.533   7.361
 1695POPC   NC324659  42.125  42.891   9.735
 1695POPC   PO424660  42.400  43.435   9.545
 1695POPC   GL124661  42.366  43.175   9.171
 1695POPC   GL224662  42.375  42.810   9.228
 1695POPC   C1A24663  42.303  43.229   8.735
 1695POPC   D2A24664  42.275  43.478   8.354
 1695POPC   C3A24665  42.370  43.164   8.073
 1695POPC   C4A24666  42.272  43.046   7.667
 1695POPC   C1B24667  42.473  42.740   8.777
 1695POPC   C2B24668  42.290  42.726   8.343
 1695POPC   C3B24669  42.453  42.639   7.907
 1695POPC   C4B24670  42.625  42.723   7.495
 1696POPC   NC324671  38.507   4.945   9.488
 1696POPC   PO424672  38.321   5.503   9.449
 1696POPC   GL124673  38.285   5.242   9.098
 1696POPC   GL224674  38.059   4.932   9.177
 1696POPC   C1A24675  38.660   5.206   8.826
 1696POPC   D2A24676  38.798   5.256   8.384
 1696POPC   C3A24677  38.431   5.181   8.107
 1696POPC   C4A24678  38.493   5.140   7.699
 1696POPC   C1B24679  38.381   4.769   8.882
 1696POPC   C2B24680  38.526   4.836   8.478
 1696POPC   C3B24681  38.572   4.692   8.042
 1696POPC   C4B24682  38.292   4.678   7.740
 1697POPC   NC324683  21.122  33.181   9.414
 1697POPC   PO424684  21.760  32.961   9.603
 1697POPC   GL124685  21.525  33.009   9.123
 1697POPC   GL224686  21.226  33.277   8.947
 1697POPC   C1A24687  21.657  33.219   8.720
 1697POPC   D2A24688  21.497  33.128   8.293
 1697POPC   C3A24689  21.619  33.145   7.854
 1697POPC   C4A24690  21.456  32.857   7.493
 1697POPC   C1B24691  21.251  32.894   8.712
 1697POPC   C2B24692  21.300  32.626   8.386
 1697POPC   C3B24693  21.279  32.725   7.972
 1697POPC   C4B24694  21.121  33.113   7.784
 1698POPC   NC324695  20.863  15.789   9.557
 1698POPC   PO424696  21.465  16.148   9.558
 1698POPC   GL124697  21.258  16.285   9.199
 1698POPC   GL224698  21.163  15.936   9.168
 1698POPC   C1A24699  21.276  16.211   8.749
 1698POPC   D2A24700  21.261  15.967   8.392
 1698POPC   C3A24701  21.357  16.122   7.979
 1698POPC   C4A24702  21.261  16.127   7.524
 1698POPC   C1B24703  21.249  15.683   8.816
 1698POPC   C2B24704  21.341  15.444   8.438
 1698POPC   C3B24705  21.346  15.619   8.029
 1698POPC   C4B24706  21.005  15.747   7.736
 1699POPC   NC324707  19.694  24.738   9.423
 1699POPC   PO424708  20.295  24.376   9.313
 1699POPC   GL124709  19.973  24.297   9.028
 1699POPC   GL224710  19.855  24.626   8.956
 1699POPC   C1A24711  20.005  24.291   8.580
 1699POPC   D2A24712  19.874  24.595   8.291
 1699POPC   C3A24713  19.909  24.427   7.883
 1699POPC   C4A24714  19.818  24.719   7.572
 1699POPC   C1B24715  19.457  24.541   8.779
 1699POPC   C2B24716  19.446  24.346   8.398
 1699POPC   C3B24717  19.388  24.557   8.018
 1699POPC   C4B24718  19.451  24.351   7.642
 1700POPC   NC324719  23.364  31.690   9.354
 1700POPC   PO424720  22.699  31.482   9.500
 1700POPC   GL124721  22.854  31.679   9.172
 1700POPC   GL224722  23.041  31.359   9.124
 1700POPC   C1A24723  23.025  31.778   8.764
 1700POPC   D2A24724  23.125  31.599   8.369
 1700POPC   C3A24725  22.971  31.764   8.004
 1700POPC   C4A24726  23.154  31.746   7.606
 1700POPC   C1B24727  22.858  31.260   8.746
 1700POPC   C2B24728  22.925  31.139   8.326
 1700POPC   C3B24729  22.834  31.270   7.910
 1700POPC   C4B24730  22.846  31.353   7.468
 1701POPC   NC324731  37.599  42.425   9.457
 1701POPC   PO424732  38.063  41.991   9.506
 1701POPC   GL124733  38.004  42.253   9.150
 1701POPC   GL224734  37.964  42.639   9.195
 1701POPC   C1A24735  37.959  42.084   8.748
 1701POPC   D2A24736  37.730  42.199   8.397
 1701POPC   C3A24737  37.857  42.309   7.996
 1701POPC   C4A24738  38.194  42.228   7.739
 1701POPC   C1B24739  37.751  42.558   8.790
 1701POPC   C2B24740  37.914  42.682   8.411
 1701POPC   C3B24741  37.786  42.831   8.026
 1701POPC   C4B24742  37.561  42.640   7.744
 1702POPC   NC324743  36.411  19.457   9.719
 1702POPC   PO424744  36.815  18.972   9.294
 1702POPC   GL124745  37.039  19.226   9.062
 1702POPC   GL224746  37.364  19.004   9.052
 1702POPC   C1A24747  36.846  19.353   8.694
 1702POPC   D2A24748  36.744  19.031   8.421
 1702POPC   C3A24749  36.984  19.014   8.061
 1702POPC   C4A24750  36.842  19.145   7.656
 1702POPC   C1B24751  37.201  18.949   8.661
 1702POPC   C2B24752  37.250  19.283   8.406
 1702POPC   C3B24753  37.357  19.373   8.043
 1702POPC   C4B24754  37.358  19.129   7.718
 1703POPC   NC324755   5.885  28.769   9.306
 1703POPC   PO424756   6.247  29.272   9.579
 1703POPC   GL124757   6.187  29.190   9.180
 1703POPC   GL224758   5.909  29.407   9.138
 1703POPC   C1A24759   6.055  29.095   8.770
 1703POPC   D2A24760   6.132  28.846   8.466
 1703POPC   C3A24761   5.905  29.088   8.156
 1703POPC   C4A24762   6.021  29.141   7.740
 1703POPC   C1B24763   5.896  29.580   8.704
 1703POPC   C2B24764   5.719  29.703   8.286
 1703POPC   C3B24765   5.674  29.476   7.870
 1703POPC   C4B24766   5.776  29.440   7.385
 1704POPC   NC324767   7.186  32.741   9.370
 1704POPC   PO424768   7.598  33.172   9.552
 1704POPC   GL124769   7.418  33.209   9.148
 1704POPC   GL224770   7.454  32.866   8.968
 1704POPC   C1A24771   7.280  33.284   8.734
 1704POPC   D2A24772   7.421  33.003   8.448
 1704POPC   C3A24773   7.461  33.220   8.096
 1704POPC   C4A24774   7.273  33.202   7.734
 1704POPC   C1B24775   7.794  32.675   8.714
 1704POPC   C2B24776   7.710  32.630   8.279
 1704POPC   C3B24777   7.493  32.734   7.892
 1704POPC   C4B24778   7.663  32.682   7.456
 1705POPC   NC324779  17.599  18.157   9.479
 1705POPC   PO424780  16.920  18.367   9.547
 1705POPC   GL124781  17.223  18.326   9.153
 1705POPC   GL224782  17.364  17.990   9.047
 1705POPC   C1A24783  17.422  18.417   8.711
 1705POPC   D2A24784  17.691  18.422   8.282
 1705POPC   C3A24785  17.500  18.594   7.876
 1705POPC   C4A24786  17.350  18.699   7.428
 1705POPC   C1B24787  17.757  18.002   8.795
 1705POPC   C2B24788  17.706  17.913   8.362
 1705POPC   C3B24789  17.825  17.917   7.965
 1705POPC   C4B24790  17.581  18.076   7.660
 1706POPC   NC324791  11.610  18.978   9.536
 1706POPC   PO424792  11.115  19.457   9.624
 1706POPC   GL124793  11.186  19.201   9.161
 1706POPC   GL224794  10.957  19.334   8.901
 1706POPC   C1A24795  11.539  18.908   8.862
 1706POPC   D2A24796  11.817  18.974   8.458
 1706POPC   C3A24797  11.687  18.944   8.029
 1706POPC   C4A24798  11.625  19.263   7.718
 1706POPC   C1B24799  11.227  19.187   8.590
 1706POPC   C2B24800  11.308  18.835   8.330
 1706POPC   C3B24801  11.216  18.790   7.873
 1706POPC   C4B24802  11.049  18.841   7.447
 1707POPC   NC324803  21.705  20.107   9.495
 1707POPC   PO424804  21.231  20.726   9.455
 1707POPC   GL124805  21.597  20.815   9.204
 1707POPC   GL224806  21.647  20.462   9.153
 1707POPC   C1A24807  21.624  20.792   8.757
 1707POPC   D2A24808  21.418  20.928   8.407
 1707POPC   C3A24809  21.256  20.804   8.050
 1707POPC   C4A24810  21.494  20.871   7.717
 1707POPC   C1B24811  21.331  20.321   8.847
 1707POPC   C2B24812  21.407  20.395   8.406
 1707POPC   C3B24813  21.525  20.368   7.955
 1707POPC   C4B24814  21.139  20.439   7.703
 1708POPC   NC324815   4.211  25.586   9.474
 1708POPC   PO424816   4.135  24.940   9.316
 1708POPC   GL124817   4.169  25.288   9.039
 1708POPC   GL224818   4.486  25.285   9.108
 1708POPC   C1A24819   4.266  25.498   8.622
 1708POPC   D2A24820   3.945  25.587   8.263
 1708POPC   C3A24821   4.085  25.310   7.992
 1708POPC   C4A24822   4.378  25.427   7.740
 1708POPC   C1B24823   4.531  25.024   8.751
 1708POPC   C2B24824   4.394  25.041   8.322
 1708POPC   C3B24825   4.625  25.021   7.921
 1708POPC   C4B24826   4.876  24.920   7.523
 1709POPC   NC324827   5.803   4.906   9.506
 1709POPC   PO424828   5.917   4.271   9.508
 1709POPC   GL124829   6.015   4.407   9.088
 1709POPC   GL224830   6.162   4.100   9.071
 1709POPC   C1A24831   6.024   4.360   8.622
 1709POPC   D2A24832   5.712   4.288   8.298
 1709POPC   C3A24833   5.876   4.268   7.878
 1709POPC   C4A24834   5.985   4.514   7.471
 1709POPC   C1B24835   6.106   3.838   8.728
 1709POPC   C2B24836   6.135   3.922   8.284
 1709POPC   C3B24837   6.155   3.843   7.833
 1709POPC   C4B24838   5.904   4.027   7.449
 1710POPC   NC324839  17.494  37.010   9.499
 1710POPC   PO424840  17.341  36.448   9.750
 1710POPC   GL124841  17.471  36.567   9.252
 1710POPC   GL224842  17.186  36.765   9.153
 1710POPC   C1A24843  17.575  36.882   8.855
 1710POPC   D2A24844  17.596  37.012   8.413
 1710POPC   C3A24845  17.533  36.781   8.016
 1710POPC   C4A24846  17.586  37.088   7.701
 1710POPC   C1B24847  17.060  37.020   8.796
 1710POPC   C2B24848  17.073  37.124   8.362
 1710POPC   C3B24849  17.133  37.117   7.926
 1710POPC   C4B24850  17.137  37.359   7.550
 1711POPC   NC324851  34.224  15.041   9.490
 1711POPC   PO424852  34.918  15.217   9.525
 1711POPC   GL124853  34.770  15.253   9.122
 1711POPC   GL224854  34.428  15.306   9.091
 1711POPC   C1A24855  34.682  15.083   8.703
 1711POPC   D2A24856  34.465  15.235   8.313
 1711POPC   C3A24857  34.595  15.158   7.881
 1711POPC   C4A24858  34.755  15.302   7.477
 1711POPC   C1B24859  34.164  15.161   8.735
 1711POPC   C2B24860  34.038  14.926   8.381
 1711POPC   C3B24861  34.036  15.001   7.953
 1711POPC   C4B24862  34.273  14.821   7.648
 1712POPC   NC324863  26.730  22.892   9.514
 1712POPC   PO424864  26.938  23.457   9.437
 1712POPC   GL124865  26.888  23.127   9.091
 1712POPC   GL224866  27.066  22.771   9.133
 1712POPC   C1A24867  26.529  23.006   8.803
 1712POPC   D2A24868  26.332  23.170   8.398
 1712POPC   C3A24869  26.597  23.067   8.033
 1712POPC   C4A24870  26.557  22.803   7.670
 1712POPC   C1B24871  26.998  22.803   8.684
 1712POPC   C2B24872  27.052  22.854   8.247
 1712POPC   C3B24873  27.083  23.117   7.897
 1712POPC   C4B24874  27.204  23.265   7.518
 1713POPC   NC324875  19.978  14.903   9.297
 1713POPC   PO424876  19.465  15.115   9.581
 1713POPC   GL124877  19.595  15.220   9.158
 1713POPC   GL224878  19.486  15.540   9.102
 1713POPC   C1A24879  19.806  15.188   8.739
 1713POPC   D2A24880  20.063  15.223   8.374
 1713POPC   C3A24881  19.854  15.022   8.073
 1713POPC   C4A24882  19.806  15.126   7.650
 1713POPC   C1B24883  19.584  15.650   8.713
 1713POPC   C2B24884  19.644  15.500   8.335
 1713POPC   C3B24885  19.460  15.337   8.004
 1713POPC   C4B24886  19.194  15.580   7.804
 1714POPC   NC324887  20.480  32.066   9.549
 1714POPC   PO424888  19.720  32.099   9.477
 1714POPC   GL124889  19.847  32.134   9.093
 1714POPC   GL224890  20.176  32.079   9.138
 1714POPC   C1A24891  19.915  32.364   8.708
 1714POPC   D2A24892  19.965  32.552   8.297
 1714POPC   C3A24893  19.738  32.350   7.974
 1714POPC   C4A24894  19.366  32.467   7.751
 1714POPC   C1B24895  20.261  31.974   8.720
 1714POPC   C2B24896  20.077  32.050   8.293
 1714POPC   C3B24897  20.123  32.063   7.837
 1714POPC   C4B24898  19.952  31.926   7.443
 1715POPC   NC324899  38.904   9.783   9.659
 1715POPC   PO424900  38.253   9.802   9.546
 1715POPC   GL124901  38.503   9.650   9.199
 1715POPC   GL224902  38.457   9.991   9.105
 1715POPC   C1A24903  38.454   9.647   8.736
 1715POPC   D2A24904  38.503   9.912   8.380
 1715POPC   C3A24905  38.344   9.714   8.024
 1715POPC   C4A24906  38.585   9.540   7.690
 1715POPC   C1B24907  38.172  10.099   8.749
 1715POPC   C2B24908  38.038  10.207   8.327
 1715POPC   C3B24909  38.270  10.232   7.942
 1715POPC   C4B24910  38.326   9.966   7.573
 1716POPC   NC324911  35.384  26.096   9.741
 1716POPC   PO424912  34.777  26.418   9.462
 1716POPC   GL124913  35.098  26.125   9.197
 1716POPC   GL224914  35.465  26.072   9.250
 1716POPC   C1A24915  35.254  25.940   8.769
 1716POPC   D2A24916  35.142  26.090   8.335
 1716POPC   C3A24917  35.302  25.960   7.912
 1716POPC   C4A24918  35.501  25.715   7.589
 1716POPC   C1B24919  35.598  26.299   8.931
 1716POPC   C2B24920  35.644  26.245   8.534
 1716POPC   C3B24921  35.646  26.262   8.135
 1716POPC   C4B24922  35.584  26.479   7.781
 1717POPC   NC324923  10.094  34.301   9.510
 1717POPC   PO424924   9.603  34.753   9.628
 1717POPC   GL124925   9.760  34.591   9.248
 1717POPC   GL224926   9.640  34.244   9.259
 1717POPC   C1A24927   9.855  34.705   8.825
 1717POPC   D2A24928   9.659  34.745   8.452
 1717POPC   C3A24929   9.877  34.707   8.079
 1717POPC   C4A24930   9.604  34.786   7.721
 1717POPC   C1B24931   9.922  34.221   8.904
 1717POPC   C2B24932  10.105  34.350   8.501
 1717POPC   C3B24933  10.128  34.237   8.072
 1717POPC   C4B24934   9.812  34.301   7.769
 1718POPC   NC324935  17.817  23.375   9.392
 1718POPC   PO424936  17.559  22.819   9.413
 1718POPC   GL124937  17.482  23.114   9.066
 1718POPC   GL224938  17.775  23.249   8.900
 1718POPC   C1A24939  17.327  23.291   8.656
 1718POPC   D2A24940  17.544  23.255   8.287
 1718POPC   C3A24941  17.464  23.072   7.908
 1718POPC   C4A24942  17.679  23.179   7.533
 1718POPC   C1B24943  17.689  22.893   8.633
 1718POPC   C2B24944  17.843  22.693   8.265
 1718POPC   C3B24945  17.794  22.653   7.810
 1718POPC   C4B24946  17.696  22.288   7.527
 1719POPC   NC324947  37.511   1.025   9.535
 1719POPC   PO424948  37.902   1.484   9.356
 1719POPC   GL124949  37.699   1.198   9.091
 1719POPC   GL224950  37.332   1.186   9.093
 1719POPC   C1A24951  37.869   1.123   8.712
 1719POPC   D2A24952  37.919   1.463   8.390
 1719POPC   C3A24953  37.857   1.254   8.003
 1719POPC   C4A24954  37.607   1.317   7.630
 1719POPC   C1B24955  37.368   0.950   8.751
 1719POPC   C2B24956  37.488   1.148   8.374
 1719POPC   C3B24957  37.343   1.075   7.995
 1719POPC   C4B24958  37.078   0.923   7.702
 1720POPC   NC324959  39.874  22.599   9.507
 1720POPC   PO424960  39.768  23.241   9.411
 1720POPC   GL124961  40.096  23.044   9.146
 1720POPC   GL224962  40.118  22.663   9.086
 1720POPC   C1A24963  40.188  23.215   8.745
 1720POPC   D2A24964  40.039  23.107   8.362
 1720POPC   C3A24965  40.272  23.113   8.013
 1720POPC   C4A24966  40.116  22.927   7.671
 1720POPC   C1B24967  39.941  22.744   8.720
 1720POPC   C2B24968  39.784  22.644   8.355
 1720POPC   C3B24969  39.742  22.757   7.988
 1720POPC   C4B24970  39.737  22.463   7.649
 1721POPC   NC324971  34.824   5.346   9.511
 1721POPC   PO424972  35.350   4.980   9.709
 1721POPC   GL124973  35.258   5.292   9.275
 1721POPC   GL224974  35.476   5.152   9.045
 1721POPC   C1A24975  35.060   5.343   8.823
 1721POPC   D2A24976  35.262   5.271   8.407
 1721POPC   C3A24977  35.186   4.948   8.105
 1721POPC   C4A24978  35.027   5.105   7.726
 1721POPC   C1B24979  35.697   5.131   8.652
 1721POPC   C2B24980  35.776   5.417   8.341
 1721POPC   C3B24981  35.578   5.343   7.970
 1721POPC   C4B24982  35.537   5.055   7.677
 1722POPC   NC324983   9.064  12.658   9.401
 1722POPC   PO424984   8.729  13.231   9.416
 1722POPC   GL124985   9.018  13.088   9.082
 1722POPC   GL224986   9.391  13.031   9.182
 1722POPC   C1A24987   8.983  12.784   8.760
 1722POPC   D2A24988   8.753  12.660   8.404
 1722POPC   C3A24989   9.035  12.511   8.092
 1722POPC   C4A24990   8.961  12.562   7.671
 1722POPC   C1B24991   9.426  13.068   8.737
 1722POPC   C2B24992   9.206  12.990   8.323
 1722POPC   C3B24993   9.129  13.002   7.854
 1722POPC   C4B24994   9.169  12.890   7.335
 1723POPC   NC324995  12.342  37.306   9.638
 1723POPC   PO424996  11.882  36.779   9.666
 1723POPC   GL124997  11.997  37.008   9.326
 1723POPC   GL224998  11.731  37.196   9.262
 1723POPC   C1A24999  12.115  36.855   8.910
 1723POPC   D2A25000  12.040  36.648   8.515
 1723POPC   C3A25001  12.122  36.838   8.116
 1723POPC   C4A25002  12.193  36.687   7.710
 1723POPC   C1B25003  11.944  37.333   8.913
 1723POPC   C2B25004  12.084  37.245   8.512
 1723POPC   C3B25005  11.970  37.333   8.084
 1723POPC   C4B25006  11.852  37.173   7.693
 1724POPC   NC325007  37.876  28.022   9.508
 1724POPC   PO425008  37.487  27.494   9.612
 1724POPC   GL125009  37.717  27.566   9.224
 1724POPC   GL225010  37.600  27.899   9.085
 1724POPC   C1A25011  37.749  27.517   8.773
 1724POPC   D2A25012  37.708  27.819   8.428
 1724POPC   C3A25013  37.645  27.562   8.061
 1724POPC   C4A25014  37.470  27.516   7.661
 1724POPC   C1B25015  38.037  27.922   8.874
 1724POPC   C2B25016  38.197  27.923   8.460
 1724POPC   C3B25017  38.149  27.728   8.063
 1724POPC   C4B25018  37.902  27.812   7.694
 1725POPC   NC325019  12.608  16.475   9.527
 1725POPC   PO425020  12.853  17.096   9.516
 1725POPC   GL125021  12.638  17.039   9.151
 1725POPC   GL225022  12.827  16.717   9.121
 1725POPC   C1A25023  12.741  17.099   8.722
 1725POPC   D2A25024  12.827  16.798   8.390
 1725POPC   C3A25025  12.955  16.981   8.035
 1725POPC   C4A25026  13.176  16.942   7.689
 1725POPC   C1B25027  13.119  16.733   8.802
 1725POPC   C2B25028  13.344  16.589   8.485
 1725POPC   C3B25029  13.251  16.524   8.075
 1725POPC   C4B25030  13.277  16.451   7.653
 1726POPC   NC325031  39.283  41.920   9.556
 1726POPC   PO425032  38.967  42.599   9.698
 1726POPC   GL125033  39.004  42.345   9.311
 1726POPC   GL225034  39.355  42.307   9.216
 1726POPC   C1A25035  38.934  42.357   8.854
 1726POPC   D2A25036  38.910  42.151   8.441
 1726POPC   C3A25037  39.014  42.442   8.105
 1726POPC   C4A25038  39.256  42.537   7.793
 1726POPC   C1B25039  39.405  42.135   8.818
 1726POPC   C2B25040  39.393  42.334   8.427
 1726POPC   C3B25041  39.399  42.121   8.023
 1726POPC   C4B25042  39.564  42.183   7.571
 1727POPC   NC325043  16.020  25.450   9.491
 1727POPC   PO425044  15.455  25.051   9.411
 1727POPC   GL125045  15.715  25.333   9.099
 1727POPC   GL225046  16.106  25.522   9.008
 1727POPC   C1A25047  15.884  25.125   8.761
 1727POPC   D2A25048  16.091  24.977   8.350
 1727POPC   C3A25049  15.837  25.016   8.001
 1727POPC   C4A25050  15.612  24.730   7.783
 1727POPC   C1B25051  16.262  25.402   8.589
 1727POPC   C2B25052  15.855  25.445   8.357
 1727POPC   C3B25053  15.760  25.524   7.951
 1727POPC   C4B25054  16.123  25.398   7.761
 1728POPC   NC325055  35.422  34.409   9.481
 1728POPC   PO425056  35.641  35.045   9.623
 1728POPC   GL125057  35.381  34.844   9.246
 1728POPC   GL225058  35.072  34.692   9.219
 1728POPC   C1A25059  35.486  34.587   8.850
 1728POPC   D2A25060  35.370  34.617   8.432
 1728POPC   C3A25061  35.586  34.763   8.066
 1728POPC   C4A25062  35.559  34.603   7.646
 1728POPC   C1B25063  34.997  34.425   8.850
 1728POPC   C2B25064  34.935  34.387   8.402
 1728POPC   C3B25065  35.205  34.376   8.021
 1728POPC   C4B25066  35.157  34.088   7.704
 1729POPC   NC325067  23.265  37.044   9.399
 1729POPC   PO425068  22.624  37.223   9.513
 1729POPC   GL125069  22.837  37.189   9.158
 1729POPC   GL225070  22.845  36.825   9.198
 1729POPC   C1A25071  23.049  37.112   8.779
 1729POPC   D2A25072  22.855  36.979   8.419
 1729POPC   C3A25073  23.067  37.065   8.044
 1729POPC   C4A25074  22.681  37.076   7.810
 1729POPC   C1B25075  22.820  36.617   8.810
 1729POPC   C2B25076  22.766  36.401   8.423
 1729POPC   C3B25077  22.713  36.378   7.970
 1729POPC   C4B25078  22.973  36.653   7.743
 1730POPC   NC325079  34.960  25.283   9.422
 1730POPC   PO425080  34.360  25.519   9.325
 1730POPC   GL125081  34.562  25.279   8.980
 1730POPC   GL225082  34.860  25.079   8.974
 1730POPC   C1A25083  34.551  25.314   8.536
 1730POPC   D2A25084  34.699  25.657   8.267
 1730POPC   C3A25085  34.668  25.473   7.876
 1730POPC   C4A25086  34.341  25.158   7.783
 1730POPC   C1B25087  35.005  25.483   8.790
 1730POPC   C2B25088  35.144  25.450   8.387
 1730POPC   C3B25089  34.913  25.121   8.172
 1730POPC   C4B25090  34.786  24.906   7.767
 1731POPC   NC325091  17.788  44.318   9.540
 1731POPC   PO425092  17.177  44.645   9.585
 1731POPC   GL125093  17.236  44.769   9.194
 1731POPC   GL225094  17.579  44.719   9.185
 1731POPC   C1A25095  17.165  44.615   8.779
 1731POPC   D2A25096  17.276  44.815   8.375
 1731POPC   C3A25097  17.283  44.583   8.000
 1731POPC   C4A25098  17.365  44.704   7.540
 1731POPC   C1B25099  17.647  44.810   8.743
 1731POPC   C2B25100  17.760  44.595   8.302
 1731POPC   C3B25101  17.746  44.506   7.841
 1731POPC   C4B25102  17.849  44.408   7.398
 1732POPC   NC325103  27.408   4.730   9.576
 1732POPC   PO425104  27.684   4.139   9.450
 1732POPC   GL125105  27.605   4.457   9.184
 1732POPC   GL225106  27.240   4.472   9.162
 1732POPC   C1A25107  27.609   4.547   8.743
 1732POPC   D2A25108  27.760   4.235   8.423
 1732POPC   C3A25109  27.537   4.219   8.021
 1732POPC   C4A25110  27.567   4.449   7.661
 1732POPC   C1B25111  27.243   4.188   8.808
 1732POPC   C2B25112  27.245   4.384   8.406
 1732POPC   C3B25113  27.329   4.699   8.081
 1732POPC   C4B25114  27.061   4.527   7.780
 1733POPC   NC325115  27.088   5.571   9.581
 1733POPC   PO425116  27.658   5.799   9.588
 1733POPC   GL125117  27.557   5.977   9.199
 1733POPC   GL225118  27.333   5.687   9.151
 1733POPC   C1A25119  27.684   5.963   8.755
 1733POPC   D2A25120  27.740   6.184   8.360
 1733POPC   C3A25121  27.619   5.961   8.020
 1733POPC   C4A25122  27.822   5.756   7.673
 1733POPC   C1B25123  27.183   5.924   8.841
 1733POPC   C2B25124  27.322   5.693   8.494
 1733POPC   C3B25125  27.180   5.662   8.108
 1733POPC   C4B25126  27.314   5.711   7.702
 1734POPC   NC325127  17.424  37.986   9.284
 1734POPC   PO425128  17.456  37.429   9.730
 1734POPC   GL125129  17.654  37.462   9.294
 1734POPC   GL225130  17.878  37.751   9.226
 1734POPC   C1A25131  17.446  37.388   8.885
 1734POPC   D2A25132  17.467  37.501   8.455
 1734POPC   C3A25133  17.188  37.629   8.111
 1734POPC   C4A25134  17.368  37.809   7.730
 1734POPC   C1B25135  17.803  37.977   8.783
 1734POPC   C2B25136  17.539  38.023   8.449
 1734POPC   C3B25137  17.690  37.820   8.119
 1734POPC   C4B25138  17.893  37.923   7.778
 1735POPC   NC325139  24.703  32.970   9.352
 1735POPC   PO425140  24.204  33.350   9.562
 1735POPC   GL125141  24.310  33.230   9.106
 1735POPC   GL225142  24.387  32.844   8.965
 1735POPC   C1A25143  24.418  33.235   8.657
 1735POPC   D2A25144  24.530  32.987   8.335
 1735POPC   C3A25145  24.319  33.011   7.983
 1735POPC   C4A25146  24.456  33.048   7.573
 1735POPC   C1B25147  24.774  32.724   8.693
 1735POPC   C2B25148  24.905  32.652   8.262
 1735POPC   C3B25149  24.643  32.618   7.869
 1735POPC   C4B25150  24.726  32.622   7.420
 1736POPC   NC325151  38.717   9.168   9.439
 1736POPC   PO425152  38.396   8.637   9.519
 1736POPC   GL125153  38.470   8.812   9.134
 1736POPC   GL225154  38.775   8.652   9.136
 1736POPC   C1A25155  38.335   9.142   8.815
 1736POPC   D2A25156  38.208   9.345   8.394
 1736POPC   C3A25157  38.357   9.185   7.970
 1736POPC   C4A25158  38.381   9.105   7.494
 1736POPC   C1B25159  38.740   8.806   8.695
 1736POPC   C2B25160  38.390   8.844   8.398
 1736POPC   C3B25161  38.359   8.674   7.990
 1736POPC   C4B25162  38.589   8.660   7.565
 1737POPC   NC325163  23.814  40.513   9.301
 1737POPC   PO425164  24.088  40.069   9.608
 1737POPC   GL125165  23.917  39.855   9.247
 1737POPC   GL225166  23.662  40.041   9.167
 1737POPC   C1A25167  24.036  39.876   8.821
 1737POPC   D2A25168  24.026  40.120   8.454
 1737POPC   C3A25169  24.049  39.932   8.068
 1737POPC   C4A25170  23.942  40.033   7.661
 1737POPC   C1B25171  23.571  40.089   8.721
 1737POPC   C2B25172  23.561  40.039   8.265
 1737POPC   C3B25173  23.443  39.791   7.921
 1737POPC   C4B25174  23.097  39.842   7.642
 1738POPC   NC325175  39.115  38.738   9.855
 1738POPC   PO425176  39.195  39.296   9.479
 1738POPC   GL125177  39.300  39.318   9.062
 1738POPC   GL225178  39.542  39.563   8.988
 1738POPC   C1A25179  39.173  39.014   8.767
 1738POPC   D2A25180  39.339  38.860   8.383
 1738POPC   C3A25181  39.207  38.931   7.966
 1738POPC   C4A25182  39.087  38.897   7.536
 1738POPC   C1B25183  39.519  39.344   8.601
 1738POPC   C2B25184  39.152  39.338   8.365
 1738POPC   C3B25185  39.047  39.623   8.068
 1738POPC   C4B25186  39.186  39.409   7.723
 1739POPC   NC325187  41.386  14.952   9.415
 1739POPC   PO425188  41.852  15.425   9.481
 1739POPC   GL125189  41.654  15.280   9.121
 1739POPC   GL225190  41.799  14.973   9.098
 1739POPC   C1A25191  41.750  15.314   8.685
 1739POPC   D2A25192  41.365  15.241   8.424
 1739POPC   C3A25193  41.443  15.293   8.000
 1739POPC   C4A25194  41.839  15.198   7.856
 1739POPC   C1B25195  41.644  14.833   8.721
 1739POPC   C2B25196  41.802  14.921   8.322
 1739POPC   C3B25197  41.634  14.748   7.976
 1739POPC   C4B25198  41.411  14.907   7.658
 1740POPC   NC325199   1.008   5.653   9.669
 1740POPC   PO425200   1.394   6.059   9.429
 1740POPC   GL125201   1.343   5.788   9.146
 1740POPC   GL225202   0.990   5.776   9.131
 1740POPC   C1A25203   1.515   5.765   8.741
 1740POPC   D2A25204   1.269   5.707   8.373
 1740POPC   C3A25205   1.477   5.526   8.069
 1740POPC   C4A25206   1.283   5.500   7.751
 1740POPC   C1B25207   1.088   6.045   8.747
 1740POPC   C2B25208   1.353   6.200   8.393
 1740POPC   C3B25209   1.368   6.080   7.980
 1740POPC   C4B25210   0.992   6.203   7.811
 1741POPC   NC325211   9.927  38.176   9.650
 1741POPC   PO425212   9.597  38.704   9.560
 1741POPC   GL125213   9.573  38.439   9.180
 1741POPC   GL225214   9.783  38.133   9.124
 1741POPC   C1A25215   9.596  38.614   8.749
 1741POPC   D2A25216   9.773  38.470   8.353
 1741POPC   C3A25217   9.551  38.672   8.026
 1741POPC   C4A25218   9.789  38.977   7.812
 1741POPC   C1B25219   9.600  38.097   8.710
 1741POPC   C2B25220   9.432  38.075   8.273
 1741POPC   C3B25221   9.744  38.049   7.955
 1741POPC   C4B25222   9.918  38.412   7.796
 1742POPC   NC325223  43.633  13.220   9.376
 1742POPC   PO425224  43.505  12.555   9.460
 1742POPC   GL125225  43.816  12.757   9.203
 1742POPC   GL225226  44.093  12.566   9.158
 1742POPC   C1A25227  43.910  12.963   8.814
 1742POPC   D2A25228  43.655  13.045   8.455
 1742POPC   C3A25229  43.675  12.848   8.066
 1742POPC   C4A25230  43.561  12.975   7.642
 1742POPC   C1B25231  44.293  12.611   8.763
 1742POPC   C2B25232  44.149  12.794   8.373
 1742POPC   C3B25233  44.126  12.599   7.966
 1742POPC   C4B25234  44.038  12.857   7.677
 1743POPC   NC325235  28.825  39.823   9.403
 1743POPC   PO425236  29.578  39.815   9.377
 1743POPC   GL125237  29.239  39.826   9.051
 1743POPC   GL225238  29.001  40.118   9.031
 1743POPC   C1A25239  29.044  39.845   8.628
 1743POPC   D2A25240  29.018  40.150   8.292
 1743POPC   C3A25241  29.052  39.918   7.949
 1743POPC   C4A25242  28.853  39.963   7.590
 1743POPC   C1B25243  29.292  40.275   8.700
 1743POPC   C2B25244  29.463  40.421   8.321
 1743POPC   C3B25245  29.431  40.264   7.935
 1743POPC   C4B25246  29.041  40.404   7.800
 1744POPC   NC325247   6.260  27.889   9.595
 1744POPC   PO425248   5.574  27.680   9.613
 1744POPC   GL125249   5.874  27.668   9.291
 1744POPC   GL225250   5.653  27.874   9.136
 1744POPC   C1A25251   5.887  27.526   8.856
 1744POPC   D2A25252   5.745  27.569   8.430
 1744POPC   C3A25253   6.064  27.741   8.152
 1744POPC   C4A25254   6.224  27.879   7.763
 1744POPC   C1B25255   5.742  28.010   8.727
 1744POPC   C2B25256   5.689  28.113   8.310
 1744POPC   C3B25257   5.841  28.235   7.914
 1744POPC   C4B25258   5.668  28.025   7.616
 1745POPC   NC325259  24.735  26.370   9.459
 1745POPC   PO425260  24.399  25.731   9.447
 1745POPC   GL125261  24.398  25.860   9.053
 1745POPC   GL225262  24.405  26.233   9.075
 1745POPC   C1A25263  24.478  25.959   8.638
 1745POPC   D2A25264  24.495  26.178   8.275
 1745POPC   C3A25265  24.471  25.889   7.962
 1745POPC   C4A25266  24.265  25.848   7.589
 1745POPC   C1B25267  24.799  26.309   8.817
 1745POPC   C2B25268  24.983  26.207   8.427
 1745POPC   C3B25269  24.909  26.303   8.012
 1745POPC   C4B25270  24.534  26.351   7.750
 1746POPC   NC325271   4.787   0.521   9.634
 1746POPC   PO425272   5.456   0.667   9.442
 1746POPC   GL125273   5.145   0.518   9.187
 1746POPC   GL225274   5.082   0.829   8.994
 1746POPC   C1A25275   5.092   0.230   8.821
 1746POPC   D2A25276   5.223   0.268   8.400
 1746POPC   C3A25277   5.039   0.545   8.118
 1746POPC   C4A25278   5.010   0.386   7.714
 1746POPC   C1B25279   5.439   0.642   8.760
 1746POPC   C2B25280   5.657   0.540   8.368
 1746POPC   C3B25281   5.519   0.550   7.932
 1746POPC   C4B25282   5.518   0.785   7.564
 1747POPC   NC325283   1.711  22.118   9.503
 1747POPC   PO425284   2.391  22.261   9.796
 1747POPC   GL125285   2.184  22.029   9.349
 1747POPC   GL225286   2.004  22.249   9.105
 1747POPC   C1A25287   2.264  21.871   8.885
 1747POPC   D2A25288   2.035  21.825   8.461
 1747POPC   C3A25289   2.054  22.031   8.048
 1747POPC   C4A25290   1.878  21.856   7.690
 1747POPC   C1B25291   1.726  22.428   8.768
 1747POPC   C2B25292   1.568  22.509   8.348
 1747POPC   C3B25293   1.761  22.488   7.919
 1747POPC   C4B25294   1.750  22.511   7.427
 1748POPC   NC325295  23.592   1.339   9.401
 1748POPC   PO425296  24.157   1.394   9.842
 1748POPC   GL125297  24.085   1.233   9.343
 1748POPC   GL225298  23.852   0.956   9.182
 1748POPC   C1A25299  24.021   1.277   8.848
 1748POPC   D2A25300  24.040   1.472   8.433
 1748POPC   C3A25301  23.719   1.442   8.102
 1748POPC   C4A25302  23.757   1.325   7.667
 1748POPC   C1B25303  23.531   0.839   8.850
 1748POPC   C2B25304  23.393   0.806   8.397
 1748POPC   C3B25305  23.628   0.933   8.032
 1748POPC   C4B25306  23.680   0.801   7.606
 1749POPC   NC325307  18.096   3.542   9.554
 1749POPC   PO425308  18.753   3.566   9.498
 1749POPC   GL125309  18.392   3.475   9.138
 1749POPC   GL225310  18.070   3.669   9.076
 1749POPC   C1A25311  18.208   3.345   8.707
 1749POPC   D2A25312  18.337   3.234   8.277
 1749POPC   C3A25313  18.326   3.493   7.859
 1749POPC   C4A25314  17.992   3.421   7.486
 1749POPC   C1B25315  18.093   3.881   8.704
 1749POPC   C2B25316  18.152   3.722   8.312
 1749POPC   C3B25317  17.890   3.673   7.979
 1749POPC   C4B25318  17.984   3.880   7.655
 1750POPC   NC325319  12.324   8.309   9.472
 1750POPC   PO425320  11.841   7.883   9.487
 1750POPC   GL125321  12.011   8.082   9.138
 1750POPC   GL225322  11.991   8.399   9.109
 1750POPC   C1A25323  12.097   8.031   8.719
 1750POPC   D2A25324  11.796   8.014   8.390
 1750POPC   C3A25325  11.997   8.041   8.008
 1750POPC   C4A25326  11.881   8.119   7.614
 1750POPC   C1B25327  12.148   8.543   8.751
 1750POPC   C2B25328  12.109   8.417   8.334
 1750POPC   C3B25329  12.233   8.557   7.935
 1750POPC   C4B25330  12.342   8.644   7.502
 1751POPC   NC325331  36.727   1.646   9.523
 1751POPC   PO425332  37.158   2.222   9.527
 1751POPC   GL125333  36.996   2.081   9.146
 1751POPC   GL225334  36.649   2.001   9.154
 1751POPC   C1A25335  37.149   1.959   8.757
 1751POPC   D2A25336  37.039   2.088   8.325
 1751POPC   C3A25337  36.800   1.885   8.009
 1751POPC   C4A25338  37.114   2.036   7.740
 1751POPC   C1B25339  36.651   2.062   8.698
 1751POPC   C2B25340  36.605   2.400   8.374
 1751POPC   C3B25341  36.726   2.407   7.957
 1751POPC   C4B25342  36.628   2.179   7.587
 1752POPC   NC325343  31.414  43.559   9.396
 1752POPC   PO425344  31.311  43.075   9.866
 1752POPC   GL125345  31.468  42.967   9.415
 1752POPC   GL225346  31.162  43.026   9.247
 1752POPC   C1A25347  31.593  43.043   8.943
 1752POPC   D2A25348  31.441  43.045   8.502
 1752POPC   C3A25349  31.647  43.134   8.120
 1752POPC   C4A25350  31.571  43.007   7.690
 1752POPC   C1B25351  31.126  42.829   8.830
 1752POPC   C2B25352  31.004  42.731   8.438
 1752POPC   C3B25353  31.188  42.879   8.066
 1752POPC   C4B25354  31.167  42.679   7.680
 1753POPC   NC325355   1.721  12.119   9.416
 1753POPC   PO425356   2.379  12.205   9.316
 1753POPC   GL125357   2.138  12.035   8.958
 1753POPC   GL225358   1.774  12.151   8.916
 1753POPC   C1A25359   1.995  11.901   8.540
 1753POPC   D2A25360   1.628  12.045   8.338
 1753POPC   C3A25361   1.763  11.947   7.925
 1753POPC   C4A25362   2.101  11.642   7.792
 1753POPC   C1B25363   1.972  12.410   8.570
 1753POPC   C2B25364   2.258  12.259   8.233
 1753POPC   C3B25365   2.254  12.137   7.788
 1753POPC   C4B25366   2.187  12.285   7.344
 1754POPC   NC325367   5.553  25.304   9.557
 1754POPC   PO425368   4.856  25.297   9.744
 1754POPC   GL125369   4.977  25.223   9.277
 1754POPC   GL225370   5.250  25.398   9.158
 1754POPC   C1A25371   5.039  25.103   8.812
 1754POPC   D2A25372   4.901  24.950   8.383
 1754POPC   C3A25373   5.114  25.098   7.984
 1754POPC   C4A25374   4.903  25.398   7.711
 1754POPC   C1B25375   5.280  25.583   8.763
 1754POPC   C2B25376   5.180  25.403   8.407
 1754POPC   C3B25377   5.215  25.604   8.065
 1754POPC   C4B25378   5.400  25.602   7.677
 1755POPC   NC325379  25.890  11.822   9.572
 1755POPC   PO425380  26.206  12.502   9.441
 1755POPC   GL125381  25.996  12.226   9.119
 1755POPC   GL225382  26.201  11.942   9.181
 1755POPC   C1A25383  25.875  12.132   8.638
 1755POPC   D2A25384  25.835  12.131   8.168
 1755POPC   C3A25385  26.160  12.166   7.816
 1755POPC   C4A25386  26.104  12.289   7.383
 1755POPC   C1B25387  25.980  11.700   8.916
 1755POPC   C2B25388  26.017  11.639   8.493
 1755POPC   C3B25389  26.066  11.675   8.059
 1755POPC   C4B25390  26.294  11.686   7.680
 1756POPC   NC325391  43.351  25.070   9.622
 1756POPC   PO425392  42.999  25.394   9.180
 1756POPC   GL125393  43.217  25.326   8.910
 1756POPC   GL225394  43.510  25.234   9.132
 1756POPC   C1A25395  43.078  25.540   8.551
 1756POPC   D2A25396  42.755  25.491   8.275
 1756POPC   C3A25397  43.041  25.256   8.066
 1756POPC   C4A25398  43.152  25.163   7.681
 1756POPC   C1B25399  43.662  25.472   8.758
 1756POPC   C2B25400  43.537  25.578   8.343
 1756POPC   C3B25401  43.598  25.668   7.933
 1756POPC   C4B25402  43.568  25.402   7.586
 1757POPC   NC325403  36.080  31.767   9.259
 1757POPC   PO425404  36.487  32.190   9.596
 1757POPC   GL125405  36.250  32.262   9.204
 1757POPC   GL225406  35.870  32.273   9.208
 1757POPC   C1A25407  36.136  32.385   8.775
 1757POPC   D2A25408  36.312  32.438   8.376
 1757POPC   C3A25409  36.328  32.071   8.151
 1757POPC   C4A25410  36.232  32.014   7.734
 1757POPC   C1B25411  35.714  32.037   8.818
 1757POPC   C2B25412  35.859  32.151   8.406
 1757POPC   C3B25413  35.696  32.286   8.036
 1757POPC   C4B25414  35.690  31.987   7.724
 1758POPC   NC325415  32.291  21.637   9.533
 1758POPC   PO425416  32.773  21.211   9.543
 1758POPC   GL125417  32.411  21.228   9.248
 1758POPC   GL225418  32.203  20.954   9.204
 1758POPC   C1A25419  32.231  21.429   8.896
 1758POPC   D2A25420  32.141  21.577   8.491
 1758POPC   C3A25421  32.322  21.502   8.130
 1758POPC   C4A25422  32.213  21.351   7.763
 1758POPC   C1B25423  32.445  20.966   8.810
 1758POPC   C2B25424  32.299  21.070   8.410
 1758POPC   C3B25425  32.503  20.999   8.030
 1758POPC   C4B25426  32.397  20.887   7.603
 1759POPC   NC325427  33.674  21.854   9.623
 1759POPC   PO425428  33.956  21.223   9.627
 1759POPC   GL125429  33.795  21.370   9.218
 1759POPC   GL225430  33.826  21.710   9.164
 1759POPC   C1A25431  33.971  21.388   8.773
 1759POPC   D2A25432  34.070  21.251   8.341
 1759POPC   C3A25433  33.857  21.445   8.000
 1759POPC   C4A25434  33.949  21.389   7.601
 1759POPC   C1B25435  33.559  21.692   8.801
 1759POPC   C2B25436  33.588  21.480   8.430
 1759POPC   C3B25437  33.346  21.366   8.100
 1759POPC   C4B25438  33.460  21.163   7.699
 1760POPC   NC325439  10.460  32.765   9.525
 1760POPC   PO425440  10.815  33.266   9.473
 1760POPC   GL125441  10.486  33.179   9.174
 1760POPC   GL225442  10.420  32.836   9.017
 1760POPC   C1A25443  10.313  33.307   8.824
 1760POPC   D2A25444  10.111  33.323   8.448
 1760POPC   C3A25445  10.358  33.152   8.101
 1760POPC   C4A25446  10.696  33.360   7.882
 1760POPC   C1B25447  10.441  32.880   8.557
 1760POPC   C2B25448  10.799  32.820   8.275
 1760POPC   C3B25449  10.825  32.855   7.853
 1760POPC   C4B25450  10.415  32.909   7.624
 1761POPC   NC325451  12.364   7.454   9.712
 1761POPC   PO425452  12.958   7.208   9.449
 1761POPC   GL125453  12.917   7.242   9.008
 1761POPC   GL225454  12.612   7.390   9.034
 1761POPC   C1A25455  12.969   7.411   8.580
 1761POPC   D2A25456  13.170   7.760   8.346
 1761POPC   C3A25457  13.401   7.601   8.074
 1761POPC   C4A25458  13.290   7.312   7.786
 1761POPC   C1B25459  12.480   7.530   8.697
 1761POPC   C2B25460  12.519   7.335   8.312
 1761POPC   C3B25461  12.848   7.404   8.039
 1761POPC   C4B25462  12.819   7.335   7.585
 1762POPC   NC325463  14.531  14.858   9.548
 1762POPC   PO425464  14.057  15.311   9.578
 1762POPC   GL125465  14.321  15.243   9.245
 1762POPC   GL225466  14.357  14.958   9.099
 1762POPC   C1A25467  14.231  15.346   8.812
 1762POPC   D2A25468  14.426  15.279   8.437
 1762POPC   C3A25469  14.237  15.187   8.089
 1762POPC   C4A25470  14.337  15.385   7.760
 1762POPC   C1B25471  14.486  14.701   8.783
 1762POPC   C2B25472  14.602  14.799   8.406
 1762POPC   C3B25473  14.466  14.689   8.046
 1762POPC   C4B25474  14.271  14.864   7.693
 1763POPC   NC325475  26.417   9.141   9.564
 1763POPC   PO425476  26.094   8.598   9.566
 1763POPC   GL125477  25.961   8.898   9.232
 1763POPC   GL225478  26.256   9.011   9.089
 1763POPC   C1A25479  25.847   8.791   8.784
 1763POPC   D2A25480  25.860   8.970   8.344
 1763POPC   C3A25481  25.975   8.703   7.989
 1763POPC   C4A25482  26.046   8.606   7.551
 1763POPC   C1B25483  26.123   9.227   8.738
 1763POPC   C2B25484  26.258   9.337   8.348
 1763POPC   C3B25485  26.207   9.397   7.908
 1763POPC   C4B25486  25.917   9.117   7.659
 1764POPC   NC325487   1.335   8.145   9.636
 1764POPC   PO425488   2.064   8.184   9.526
 1764POPC   GL125489   2.103   8.056   9.133
 1764POPC   GL225490   2.442   8.061   9.032
 1764POPC   C1A25491   1.893   8.078   8.754
 1764POPC   D2A25492   1.987   8.260   8.352
 1764POPC   C3A25493   1.868   8.053   7.979
 1764POPC   C4A25494   2.085   7.784   7.723
 1764POPC   C1B25495   2.220   8.458   8.824
 1764POPC   C2B25496   2.304   8.649   8.398
 1764POPC   C3B25497   2.357   8.498   7.975
 1764POPC   C4B25498   2.122   8.405   7.622
 1765POPC   NC325499  23.953   6.236   9.593
 1765POPC   PO425500  23.458   5.841   9.429
 1765POPC   GL125501  23.849   5.897   9.184
 1765POPC   GL225502  24.028   6.203   9.110
 1765POPC   C1A25503  23.959   5.798   8.757
 1765POPC   D2A25504  23.729   5.664   8.375
 1765POPC   C3A25505  23.654   5.944   8.013
 1765POPC   C4A25506  23.711   5.754   7.635
 1765POPC   C1B25507  23.927   6.317   8.743
 1765POPC   C2B25508  23.961   6.142   8.358
 1765POPC   C3B25509  24.017   6.331   7.958
 1765POPC   C4B25510  24.225   6.155   7.578
 1766POPC   NC325511   1.753  30.247   9.408
 1766POPC   PO425512   2.257  29.856   9.504
 1766POPC   GL125513   2.039  29.885   9.145
 1766POPC   GL225514   2.137  30.214   9.051
 1766POPC   C1A25515   2.184  29.810   8.735
 1766POPC   D2A25516   2.205  29.583   8.368
 1766POPC   C3A25517   2.186  29.848   8.009
 1766POPC   C4A25518   1.796  29.819   7.826
 1766POPC   C1B25519   1.799  30.180   8.718
 1766POPC   C2B25520   1.657  30.203   8.264
 1766POPC   C3B25521   1.451  30.183   7.851
 1766POPC   C4B25522   1.543  30.232   7.382
 1767POPC   NC325523  31.022  41.799   9.464
 1767POPC   PO425524  30.337  41.495   9.437
 1767POPC   GL125525  30.640  41.623   9.145
 1767POPC   GL225526  30.366  41.755   8.975
 1767POPC   C1A25527  30.732  41.444   8.734
 1767POPC   D2A25528  30.449  41.244   8.407
 1767POPC   C3A25529  30.616  41.258   8.003
 1767POPC   C4A25530  30.784  41.604   7.818
 1767POPC   C1B25531  30.598  41.945   8.697
 1767POPC   C2B25532  30.670  41.763   8.312
 1767POPC   C3B25533  30.583  42.033   8.013
 1767POPC   C4B25534  30.475  41.965   7.642
 1768POPC   NC325535   2.460  40.162   9.442
 1768POPC   PO425536   3.011  39.812   9.503
 1768POPC   GL125537   2.892  40.007   9.147
 1768POPC   GL225538   2.899  40.377   9.199
 1768POPC   C1A25539   2.906  39.758   8.765
 1768POPC   D2A25540   2.896  39.662   8.339
 1768POPC   C3A25541   2.544  39.938   8.214
 1768POPC   C4A25542   2.511  40.084   7.815
 1768POPC   C1B25543   2.692  40.357   8.822
 1768POPC   C2B25544   2.516  40.456   8.462
 1768POPC   C3B25545   2.714  40.659   8.130
 1768POPC   C4B25546   2.809  40.482   7.748
 1769POPC   NC325547  39.595  23.538   9.708
 1769POPC   PO425548  39.097  23.841   9.550
 1769POPC   GL125549  39.173  23.752   9.117
 1769POPC   GL225550  39.498  23.779   9.183
 1769POPC   C1A25551  39.128  23.580   8.688
 1769POPC   D2A25552  38.978  23.726   8.279
 1769POPC   C3A25553  39.207  23.598   7.935
 1769POPC   C4A25554  39.006  23.404   7.638
 1769POPC   C1B25555  39.566  23.912   8.771
 1769POPC   C2B25556  39.493  23.779   8.360
 1769POPC   C3B25557  39.680  23.786   7.966
 1769POPC   C4B25558  39.498  23.931   7.582
 1770POPC   NC325559   1.723   1.866   9.784
 1770POPC   PO425560   1.870   1.341   9.384
 1770POPC   GL125561   2.053   1.316   9.054
 1770POPC   GL225562   2.109   1.679   9.048
 1770POPC   C1A25563   1.899   1.050   8.696
 1770POPC   D2A25564   1.951   0.865   8.272
 1770POPC   C3A25565   1.858   1.090   7.841
 1770POPC   C4A25566   1.823   1.430   7.462
 1770POPC   C1B25567   1.850   1.566   8.676
 1770POPC   C2B25568   1.797   1.396   8.271
 1770POPC   C3B25569   1.984   1.590   7.913
 1770POPC   C4B25570   2.267   1.619   7.584
 1771POPC   NC325571  35.895  29.173   9.404
 1771POPC   PO425572  36.561  28.911   9.435
 1771POPC   GL125573  36.264  28.934   9.155
 1771POPC   GL225574  36.306  29.242   9.034
 1771POPC   C1A25575  35.954  28.931   8.784
 1771POPC   D2A25576  36.001  29.227   8.412
 1771POPC   C3A25577  36.156  29.287   7.961
 1771POPC   C4A25578  36.222  29.397   7.492
 1771POPC   C1B25579  36.464  28.912   8.713
 1771POPC   C2B25580  36.253  28.737   8.429
 1771POPC   C3B25581  36.232  28.783   8.057
 1771POPC   C4B25582  36.335  28.912   7.658
 1772POPC   NC325583   6.193  28.859   9.803
 1772POPC   PO425584   6.886  28.962   9.811
 1772POPC   GL125585   6.673  29.005   9.350
 1772POPC   GL225586   6.750  29.306   9.082
 1772POPC   C1A25587   6.516  28.894   8.907
 1772POPC   D2A25588   6.676  29.062   8.505
 1772POPC   C3A25589   6.434  29.084   8.100
 1772POPC   C4A25590   6.455  28.874   7.680
 1772POPC   C1B25591   7.070  29.499   8.750
 1772POPC   C2B25592   7.252  29.540   8.285
 1772POPC   C3B25593   7.190  29.489   7.829
 1772POPC   C4B25594   6.874  29.125   7.761
 1773POPC   NC325595  37.519  24.880   9.325
 1773POPC   PO425596  37.613  25.550   9.339
 1773POPC   GL125597  37.734  25.327   8.979
 1773POPC   GL225598  37.469  25.209   8.944
 1773POPC   C1A25599  37.829  25.512   8.611
 1773POPC   D2A25600  37.655  25.721   8.275
 1773POPC   C3A25601  37.552  25.456   7.939
 1773POPC   C4A25602  37.758  25.264   7.586
 1773POPC   C1B25603  37.175  25.165   8.644
 1773POPC   C2B25604  37.360  25.164   8.288
 1773POPC   C3B25605  37.377  24.983   7.903
 1773POPC   C4B25606  37.260  25.171   7.570
 1774POPC   NC325607  10.364  20.160   9.378
 1774POPC   PO425608  10.452  20.818   9.655
 1774POPC   GL125609  10.213  20.888   9.248
 1774POPC   GL225610  10.241  20.562   9.103
 1774POPC   C1A25611  10.418  20.957   8.818
 1774POPC   D2A25612  10.777  20.808   8.567
 1774POPC   C3A25613  10.705  20.776   8.118
 1774POPC   C4A25614  10.408  20.964   7.836
 1774POPC   C1B25615  10.353  20.465   8.699
 1774POPC   C2B25616  10.250  20.564   8.296
 1774POPC   C3B25617  10.357  20.448   7.872
 1774POPC   C4B25618  10.141  20.517   7.494
 1775POPC   NC325619  31.710   1.650   9.489
 1775POPC   PO425620  31.190   1.958   9.229
 1775POPC   GL125621  31.637   2.044   9.139
 1775POPC   GL225622  31.661   2.418   9.150
 1775POPC   C1A25623  31.737   1.763   8.794
 1775POPC   D2A25624  31.387   1.676   8.492
 1775POPC   C3A25625  31.363   1.845   8.065
 1775POPC   C4A25626  31.166   1.663   7.703
 1775POPC   C1B25627  31.445   2.375   8.738
 1775POPC   C2B25628  31.222   2.237   8.391
 1775POPC   C3B25629  31.382   2.387   8.009
 1775POPC   C4B25630  31.782   2.335   7.820
 1776POPC   NC325631  32.460  20.888   9.642
 1776POPC   PO425632  31.948  20.385   9.451
 1776POPC   GL125633  32.383  20.461   9.208
 1776POPC   GL225634  32.177  20.519   8.919
 1776POPC   C1A25635  32.670  20.502   8.805
 1776POPC   D2A25636  32.520  20.597   8.371
 1776POPC   C3A25637  32.440  20.480   7.918
 1776POPC   C4A25638  32.002  20.345   7.781
 1776POPC   C1B25639  31.938  20.894   8.773
 1776POPC   C2B25640  31.785  20.917   8.354
 1776POPC   C3B25641  32.026  20.813   7.975
 1776POPC   C4B25642  31.919  20.773   7.492
 1777POPC   NC325643  29.437   2.692   9.497
 1777POPC   PO425644  28.687   2.685   9.447
 1777POPC   GL125645  29.035   2.841   9.182
 1777POPC   GL225646  29.248   2.573   9.050
 1777POPC   C1A25647  29.100   3.011   8.759
 1777POPC   D2A25648  28.851   3.030   8.378
 1777POPC   C3A25649  29.070   2.990   7.972
 1777POPC   C4A25650  29.172   2.625   7.713
 1777POPC   C1B25651  29.396   2.583   8.633
 1777POPC   C2B25652  29.393   2.391   8.232
 1777POPC   C3B25653  29.616   2.396   7.839
 1777POPC   C4B25654  29.464   2.376   7.356
 1778POPC   NC325655  31.307   6.170   9.545
 1778POPC   PO425656  31.208   5.511   9.538
 1778POPC   GL125657  31.474   5.597   9.166
 1778POPC   GL225658  31.538   5.946   9.146
 1778POPC   C1A25659  31.550   5.578   8.742
 1778POPC   D2A25660  31.511   5.814   8.372
 1778POPC   C3A25661  31.551   5.600   8.004
 1778POPC   C4A25662  31.471   5.722   7.609
 1778POPC   C1B25663  31.644   6.120   8.756
 1778POPC   C2B25664  31.801   6.237   8.346
 1778POPC   C3B25665  31.596   6.118   7.963
 1778POPC   C4B25666  31.505   6.264   7.561
 1779POPC   NC325667  17.390   6.844   9.538
 1779POPC   PO425668  17.638   6.183   9.601
 1779POPC   GL125669  17.541   6.416   9.213
 1779POPC   GL225670  17.814   6.693   9.241
 1779POPC   C1A25671  17.354   6.358   8.763
 1779POPC   D2A25672  17.502   6.322   8.309
 1779POPC   C3A25673  17.389   6.607   7.965
 1779POPC   C4A25674  17.610   6.763   7.568
 1779POPC   C1B25675  17.556   6.823   8.881
 1779POPC   C2B25676  17.298   6.800   8.487
 1779POPC   C3B25677  17.318   7.089   8.168
 1779POPC   C4B25678  17.269   7.100   7.741
 1780POPC   NC325679  41.853  23.514   9.610
 1780POPC   PO425680  41.390  23.953   9.331
 1780POPC   GL125681  41.668  23.692   9.164
 1780POPC   GL225682  41.586  23.375   9.133
 1780POPC   C1A25683  41.805  23.630   8.761
 1780POPC   D2A25684  41.531  23.639   8.412
 1780POPC   C3A25685  41.769  23.663   8.060
 1780POPC   C4A25686  41.894  23.947   7.692
 1780POPC   C1B25687  41.347  23.272   8.753
 1780POPC   C2B25688  41.106  23.338   8.358
 1780POPC   C3B25689  41.200  23.623   8.014
 1780POPC   C4B25690  41.489  23.643   7.650
 1781POPC   NC325691  28.276  11.905   9.603
 1781POPC   PO425692  27.693  12.132   9.511
 1781POPC   GL125693  27.972  12.083   9.124
 1781POPC   GL225694  28.332  12.157   9.107
 1781POPC   C1A25695  28.142  11.867   8.746
 1781POPC   D2A25696  28.357  11.841   8.352
 1781POPC   C3A25697  28.224  11.978   7.956
 1781POPC   C4A25698  27.946  12.313   7.840
 1781POPC   C1B25699  28.616  12.105   8.714
 1781POPC   C2B25700  28.619  12.261   8.249
 1781POPC   C3B25701  28.754  12.159   7.803
 1781POPC   C4B25702  28.845  12.272   7.343
 1782POPC   NC325703   1.851  11.248   9.558
 1782POPC   PO425704   2.526  11.434   9.546
 1782POPC   GL125705   2.207  11.556   9.206
 1782POPC   GL225706   2.001  11.250   9.082
 1782POPC   C1A25707   2.249  11.513   8.741
 1782POPC   D2A25708   2.039  11.190   8.504
 1782POPC   C3A25709   1.881  11.233   8.086
 1782POPC   C4A25710   2.074  11.143   7.676
 1782POPC   C1B25711   1.756  11.572   8.880
 1782POPC   C2B25712   1.614  11.521   8.463
 1782POPC   C3B25713   1.449  11.529   8.072
 1782POPC   C4B25714   1.641  11.474   7.689
 1783POPC   NC325715  39.275   2.900   9.459
 1783POPC   PO425716  39.962   2.876   9.333
 1783POPC   GL125717  39.605   2.768   9.057
 1783POPC   GL225718  39.235   2.634   9.047
 1783POPC   C1A25719  39.535   2.800   8.627
 1783POPC   D2A25720  39.501   2.524   8.254
 1783POPC   C3A25721  39.458   2.631   7.873
 1783POPC   C4A25722  39.576   2.962   7.652
 1783POPC   C1B25723  38.977   2.891   8.805
 1783POPC   C2B25724  39.060   2.715   8.428
 1783POPC   C3B25725  38.951   2.728   8.023
 1783POPC   C4B25726  39.070   2.850   7.616
 1784POPC   NC325727  44.061  24.371   9.526
 1784POPC   PO425728  43.419  24.599   9.522
 1784POPC   GL125729  43.671  24.447   9.156
 1784POPC   GL225730  44.044  24.464   9.036
 1784POPC   C1A25731  43.653  24.461   8.711
 1784POPC   D2A25732  43.601  24.656   8.338
 1784POPC   C3A25733  43.748  24.456   8.006
 1784POPC   C4A25734  43.483  24.285   7.694
 1784POPC   C1B25735  44.205  24.270   8.681
 1784POPC   C2B25736  44.274  24.280   8.222
 1784POPC   C3B25737  44.119  24.111   7.858
 1784POPC   C4B25738  43.946  24.377   7.526
 1785POPC   NC325739  44.832  19.640   9.371
 1785POPC   PO425740  44.639  19.023   9.593
 1785POPC   GL125741  44.578  19.096   9.185
 1785POPC   GL225742  44.889  19.161   9.153
 1785POPC   C1A25743  44.607  18.934   8.776
 1785POPC   D2A25744  44.566  19.129   8.402
 1785POPC   C3A25745  44.545  18.965   8.000
 1785POPC   C4A25746  44.461  18.781   7.607
 1785POPC   C1B25747   0.009  19.272   8.765
 1785POPC   C2B25748   0.055  19.055   8.432
 1785POPC   C3B25749   0.101  19.121   8.035
 1785POPC   C4B25750  44.848  19.313   7.774
 1786POPC   NC325751  39.451  16.986   9.409
 1786POPC   PO425752  38.928  16.560   9.573
 1786POPC   GL125753  39.035  16.431   9.143
 1786POPC   GL225754  39.394  16.425   8.999
 1786POPC   C1A25755  39.024  16.629   8.736
 1786POPC   D2A25756  39.318  16.538   8.395
 1786POPC   C3A25757  39.093  16.530   8.034
 1786POPC   C4A25758  38.977  16.883   7.854
 1786POPC   C1B25759  39.589  16.804   8.745
 1786POPC   C2B25760  39.588  17.059   8.353
 1786POPC   C3B25761  39.523  16.850   7.950
 1786POPC   C4B25762  39.542  16.390   7.833
 1787POPC   NC325763  13.101  19.400   9.418
 1787POPC   PO425764  12.997  18.719   9.409
 1787POPC   GL125765  12.822  18.824   9.036
 1787POPC   GL225766  12.867  19.149   9.037
 1787POPC   C1A25767  13.067  18.920   8.616
 1787POPC   D2A25768  12.968  18.713   8.240
 1787POPC   C3A25769  12.887  18.969   7.894
 1787POPC   C4A25770  12.518  19.163   7.862
 1787POPC   C1B25771  12.633  19.170   8.662
 1787POPC   C2B25772  12.743  19.394   8.291
 1787POPC   C3B25773  12.687  19.629   7.926
 1787POPC   C4B25774  12.862  19.367   7.552
 1788POPC   NC325775   2.910  20.819   9.521
 1788POPC   PO425776   2.295  20.745   9.557
 1788POPC   GL125777   2.527  20.675   9.181
 1788POPC   GL225778   2.585  20.998   9.130
 1788POPC   C1A25779   2.865  20.637   8.860
 1788POPC   D2A25780   3.057  20.594   8.457
 1788POPC   C3A25781   2.838  20.371   8.139
 1788POPC   C4A25782   3.052  20.356   7.758
 1788POPC   C1B25783   2.409  20.868   8.700
 1788POPC   C2B25784   2.452  20.704   8.248
 1788POPC   C3B25785   2.635  20.784   7.817
 1788POPC   C4B25786   2.557  20.892   7.363
 1789POPC   NC325787  20.140  23.936   9.380
 1789POPC   PO425788  19.675  23.478   9.268
 1789POPC   GL125789  19.819  23.797   8.990
 1789POPC   GL225790  20.187  23.828   8.895
 1789POPC   C1A25791  19.722  23.869   8.577
 1789POPC   D2A25792  19.736  23.632   8.197
 1789POPC   C3A25793  19.512  23.852   7.876
 1789POPC   C4A25794  19.374  23.568   7.580
 1789POPC   C1B25795  20.193  23.659   8.501
 1789POPC   C2B25796  20.155  23.920   8.132
 1789POPC   C3B25797  20.000  23.789   7.732
 1789POPC   C4B25798  20.111  24.000   7.352
 1790POPC   NC325799  40.495  11.520   9.642
 1790POPC   PO425800  40.934  11.094   9.527
 1790POPC   GL125801  40.699  11.341   9.201
 1790POPC   GL225802  40.561  11.733   9.170
 1790POPC   C1A25803  40.752  11.378   8.776
 1790POPC   D2A25804  40.999  11.451   8.403
 1790POPC   C3A25805  40.843  11.153   8.134
 1790POPC   C4A25806  40.762  11.100   7.684
 1790POPC   C1B25807  40.517  11.836   8.706
 1790POPC   C2B25808  40.484  11.503   8.347
 1790POPC   C3B25809  40.451  11.456   7.889
 1790POPC   C4B25810  40.644  11.572   7.463
 1791POPC   NC325811  40.422  37.097   9.734
 1791POPC   PO425812  40.932  36.754   9.580
 1791POPC   GL125813  40.748  37.011   9.274
 1791POPC   GL225814  40.694  36.696   9.100
 1791POPC   C1A25815  40.695  37.191   8.844
 1791POPC   D2A25816  40.522  37.221   8.411
 1791POPC   C3A25817  40.630  36.889   8.100
 1791POPC   C4A25818  40.578  36.974   7.670
 1791POPC   C1B25819  41.052  36.833   8.879
 1791POPC   C2B25820  41.042  36.751   8.465
 1791POPC   C3B25821  41.158  36.845   8.072
 1791POPC   C4B25822  40.981  36.656   7.701
 1792POPC   NC325823  38.055  20.895   9.946
 1792POPC   PO425824  38.515  20.560   9.518
 1792POPC   GL125825  38.475  20.472   9.079
 1792POPC   GL225826  38.118  20.453   9.011
 1792POPC   C1A25827  38.563  20.694   8.705
 1792POPC   D2A25828  38.620  20.998   8.410
 1792POPC   C3A25829  38.616  20.819   8.001
 1792POPC   C4A25830  38.949  20.773   7.727
 1792POPC   C1B25831  38.077  20.781   8.714
 1792POPC   C2B25832  38.189  20.796   8.299
 1792POPC   C3B25833  38.045  20.752   7.907
 1792POPC   C4B25834  38.091  20.479   7.574
 1793POPC   NC325835  37.105   2.612   9.272
 1793POPC   PO425836  37.604   2.897   9.716
 1793POPC   GL125837  37.613   2.675   9.256
 1793POPC   GL225838  37.931   2.515   9.235
 1793POPC   C1A25839  37.475   2.773   8.783
 1793POPC   D2A25840  37.573   2.714   8.416
 1793POPC   C3A25841  37.459   2.981   8.092
 1793POPC   C4A25842  37.522   2.838   7.690
 1793POPC   C1B25843  37.977   2.752   8.829
 1793POPC   C2B25844  38.057   2.864   8.412
 1793POPC   C3B25845  37.893   2.681   8.038
 1793POPC   C4B25846  38.061   2.565   7.699
 1794POPC   NC325847  12.762  11.920   9.432
 1794POPC   PO425848  13.330  12.299   9.328
 1794POPC   GL125849  13.024  12.124   9.050
 1794POPC   GL225850  12.965  11.753   9.005
 1794POPC   C1A25851  12.722  12.215   8.746
 1794POPC   D2A25852  12.546  12.146   8.332
 1794POPC   C3A25853  12.766  12.262   7.966
 1794POPC   C4A25854  12.893  12.206   7.522
 1794POPC   C1B25855  12.642  11.716   8.652
 1794POPC   C2B25856  12.663  11.635   8.209
 1794POPC   C3B25857  12.880  11.767   7.807
 1794POPC   C4B25858  12.629  11.798   7.386
 1795POPC   NC325859  15.904  32.608   9.872
 1795POPC   PO425860  15.917  32.972   9.303
 1795POPC   GL125861  15.912  32.915   8.917
 1795POPC   GL225862  16.141  32.680   8.949
 1795POPC   C1A25863  15.985  32.837   8.495
 1795POPC   D2A25864  16.142  33.009   8.149
 1795POPC   C3A25865  15.843  32.993   7.848
 1795POPC   C4A25866  15.757  33.032   7.427
 1795POPC   C1B25867  16.456  32.769   8.701
 1795POPC   C2B25868  16.397  32.585   8.290
 1795POPC   C3B25869  16.147  32.561   7.924
 1795POPC   C4B25870  16.206  32.796   7.560
 1796POPC   NC325871   5.184  25.815   9.444
 1796POPC   PO425872   4.741  26.263   9.510
 1796POPC   GL125873   4.783  25.994   9.196
 1796POPC   GL225874   4.717  25.669   9.329
 1796POPC   C1A25875   5.057  26.064   8.833
 1796POPC   D2A25876   5.148  26.382   8.523
 1796POPC   C3A25877   5.073  26.198   8.128
 1796POPC   C4A25878   5.285  26.326   7.754
 1796POPC   C1B25879   4.787  25.592   8.862
 1796POPC   C2B25880   4.850  25.797   8.444
 1796POPC   C3B25881   4.734  25.797   8.020
 1796POPC   C4B25882   4.998  25.907   7.716
 1797POPC   NC325883  38.070  25.495   9.303
 1797POPC   PO425884  38.711  25.280   9.425
 1797POPC   GL125885  38.521  25.390   9.079
 1797POPC   GL225886  38.264  25.188   8.917
 1797POPC   C1A25887  38.715  25.378   8.715
 1797POPC   D2A25888  38.809  25.232   8.336
 1797POPC   C3A25889  38.511  25.354   8.049
 1797POPC   C4A25890  38.713  25.259   7.703
 1797POPC   C1B25891  38.250  25.241   8.487
 1797POPC   C2B25892  38.011  25.302   8.110
 1797POPC   C3B25893  38.164  25.047   7.772
 1797POPC   C4B25894  38.148  25.043   7.298
 1798POPC   NC325895  22.220  25.840   9.498
 1798POPC   PO425896  21.835  26.350   9.394
 1798POPC   GL125897  22.075  26.155   9.085
 1798POPC   GL225898  22.398  26.194   8.991
 1798POPC   C1A25899  22.118  25.751   8.851
 1798POPC   D2A25900  22.203  25.503   8.470
 1798POPC   C3A25901  22.245  25.740   8.107
 1798POPC   C4A25902  21.948  26.009   7.908
 1798POPC   C1B25903  22.206  26.372   8.595
 1798POPC   C2B25904  22.307  26.279   8.158
 1798POPC   C3B25905  22.441  26.084   7.764
 1798POPC   C4B25906  22.531  25.868   7.356
 1799POPC   NC325907   9.108  14.003   9.569
 1799POPC   PO425908   9.280  14.692   9.554
 1799POPC   GL125909   9.120  14.633   9.144
 1799POPC   GL225910   8.807  14.489   9.182
 1799POPC   C1A25911   8.982  14.704   8.709
 1799POPC   D2A25912   9.001  14.756   8.255
 1799POPC   C3A25913   9.007  14.362   8.087
 1799POPC   C4A25914   8.997  14.282   7.674
 1799POPC   C1B25915   8.748  14.213   8.809
 1799POPC   C2B25916   8.452  14.200   8.458
 1799POPC   C3B25917   8.523  14.335   8.005
 1799POPC   C4B25918   8.531  14.077   7.657
 1800POPC   NC325919  29.350  38.343   9.483
 1800POPC   PO425920  28.733  38.668   9.638
 1800POPC   GL125921  28.888  38.554   9.232
 1800POPC   GL225922  28.640  38.366   9.142
 1800POPC   C1A25923  29.189  38.467   8.889
 1800POPC   D2A25924  29.487  38.750   8.666
 1800POPC   C3A25925  29.561  38.671   8.228
 1800POPC   C4A25926  29.397  38.507   7.854
 1800POPC   C1B25927  28.751  38.251   8.763
 1800POPC   C2B25928  28.962  38.473   8.433
 1800POPC   C3B25929  28.910  38.578   8.018
 1800POPC   C4B25930  28.976  38.227   7.746
 1801POPC   NC325931  15.611   5.030   9.600
 1801POPC   PO425932  16.078   5.486   9.628
 1801POPC   GL125933  16.051   5.240   9.211
 1801POPC   GL225934  15.696   5.152   9.121
 1801POPC   C1A25935  15.969   5.377   8.761
 1801POPC   D2A25936  15.816   5.190   8.390
 1801POPC   C3A25937  16.107   5.222   8.051
 1801POPC   C4A25938  16.079   5.273   7.642
 1801POPC   C1B25939  15.928   4.865   8.841
 1801POPC   C2B25940  15.902   4.666   8.439
 1801POPC   C3B25941  16.072   4.678   8.052
 1801POPC   C4B25942  16.338   4.844   7.755
 1802POPC   NC325943  21.326  10.628   9.550
 1802POPC   PO425944  21.809  10.336   9.393
 1802POPC   GL125945  21.589  10.657   9.116
 1802POPC   GL225946  21.180  10.663   9.073
 1802POPC   C1A25947  21.506  10.827   8.716
 1802POPC   D2A25948  21.285  10.891   8.328
 1802POPC   C3A25949  21.485  10.692   7.984
 1802POPC   C4A25950  21.435  10.292   7.792
 1802POPC   C1B25951  21.362  10.285   8.849
 1802POPC   C2B25952  21.308  10.210   8.415
 1802POPC   C3B25953  21.062  10.425   8.114
 1802POPC   C4B25954  20.956  10.431   7.667
 1803POPC   NC325955  11.656  40.596   9.495
 1803POPC   PO425956  11.813  41.243   9.270
 1803POPC   GL125957  12.075  40.919   9.102
 1803POPC   GL225958  11.914  40.581   9.053
 1803POPC   C1A25959  12.250  40.820   8.700
 1803POPC   D2A25960  12.439  40.915   8.301
 1803POPC   C3A25961  12.230  40.865   7.894
 1803POPC   C4A25962  12.174  40.803   7.456
 1803POPC   C1B25963  12.048  40.350   8.685
 1803POPC   C2B25964  12.068  40.513   8.263
 1803POPC   C3B25965  12.125  40.290   7.881
 1803POPC   C4B25966  11.963  40.342   7.491
 1804POPC   NC325967  24.956  38.948   9.437
 1804POPC   PO425968  25.220  38.286   9.499
 1804POPC   GL125969  25.268  38.610   9.207
 1804POPC   GL225970  25.618  38.723   9.208
 1804POPC   C1A25971  25.029  38.517   8.830
 1804POPC   D2A25972  24.810  38.470   8.442
 1804POPC   C3A25973  24.957  38.375   8.028
 1804POPC   C4A25974  25.125  38.529   7.655
 1804POPC   C1B25975  25.562  38.459   8.818
 1804POPC   C2B25976  25.338  38.404   8.400
 1804POPC   C3B25977  25.512  38.380   7.957
 1804POPC   C4B25978  25.647  38.249   7.501
 1805POPC   NC325979  41.150  37.182   9.550
 1805POPC   PO425980  41.827  37.117   9.454
 1805POPC   GL125981  41.483  37.029   9.159
 1805POPC   GL225982  41.338  36.705   9.272
 1805POPC   C1A25983  41.490  37.028   8.699
 1805POPC   D2A25984  41.778  37.091   8.357
 1805POPC   C3A25985  41.617  37.186   7.960
 1805POPC   C4A25986  41.847  37.090   7.560
 1805POPC   C1B25987  41.525  36.550   8.888
 1805POPC   C2B25988  41.531  36.598   8.430
 1805POPC   C3B25989  41.659  36.696   8.027
 1805POPC   C4B25990  41.474  36.769   7.678
 1806POPC   NC325991  14.424  26.996   9.597
 1806POPC   PO425992  13.948  26.926   9.201
 1806POPC   GL125993  14.390  26.796   9.109
 1806POPC   GL225994  14.571  27.102   9.130
 1806POPC   C1A25995  14.594  26.528   8.793
 1806POPC   D2A25996  14.554  26.292   8.416
 1806POPC   C3A25997  14.186  26.481   8.224
 1806POPC   C4A25998  14.178  26.549   7.787
 1806POPC   C1B25999  14.417  27.180   8.744
 1806POPC   C2B26000  14.603  27.134   8.361
 1806POPC   C3B26001  14.476  26.890   8.040
 1806POPC   C4B26002  14.402  26.976   7.618
 1807POPC   NC326003   0.934   1.920   9.562
 1807POPC   PO426004   1.549   2.235   9.520
 1807POPC   GL126005   1.218   2.175   9.200
 1807POPC   GL226006   1.425   2.428   9.064
 1807POPC   C1A26007   0.955   1.999   8.810
 1807POPC   D2A26008   0.847   1.738   8.395
 1807POPC   C3A26009   1.110   1.821   7.995
 1807POPC   C4A26010   1.093   2.004   7.567
 1807POPC   C1B26011   1.467   2.107   8.759
 1807POPC   C2B26012   1.289   2.076   8.388
 1807POPC   C3B26013   1.238   2.328   8.014
 1807POPC   C4B26014   1.395   2.394   7.600
 1808POPC   NC326015  35.117  24.296   9.381
 1808POPC   PO426016  35.697  24.698   9.489
 1808POPC   GL126017  35.508  24.538   9.110
 1808POPC   GL226018  35.450  24.211   8.981
 1808POPC   C1A26019  35.422  24.596   8.656
 1808POPC   D2A26020  35.276  24.444   8.262
 1808POPC   C3A26021  35.645  24.444   7.964
 1808POPC   C4A26022  35.648  24.539   7.510
 1808POPC   C1B26023  35.082  24.222   8.704
 1808POPC   C2B26024  35.030  23.971   8.368
 1808POPC   C3B26025  35.216  24.006   7.985
 1808POPC   C4B26026  35.209  24.384   7.737
 1809POPC   NC326027  41.361   7.888   9.727
 1809POPC   PO426028  41.578   8.469   9.598
 1809POPC   GL126029  41.470   8.152   9.279
 1809POPC   GL226030  41.809   8.019   9.276
 1809POPC   C1A26031  41.328   8.107   8.838
 1809POPC   D2A26032  41.375   7.902   8.440
 1809POPC   C3A26033  41.465   8.123   8.063
 1809POPC   C4A26034  41.310   8.104   7.642
 1809POPC   C1B26035  41.820   8.251   8.907
 1809POPC   C2B26036  41.814   8.245   8.463
 1809POPC   C3B26037  41.897   8.482   8.099
 1809POPC   C4B26038  41.683   8.464   7.722
 1810POPC   NC326039  28.169   9.150   9.677
 1810POPC   PO426040  28.596   8.745   9.279
 1810POPC   GL126041  28.429   8.920   8.988
 1810POPC   GL226042  28.320   9.188   9.147
 1810POPC   C1A26043  28.335   8.831   8.603
 1810POPC   D2A26044  28.124   8.656   8.322
 1810POPC   C3A26045  28.286   8.812   7.989
 1810POPC   C4A26046  28.498   8.630   7.657
 1810POPC   C1B26047  28.375   9.352   8.722
 1810POPC   C2B26048  28.088   9.289   8.348
 1810POPC   C3B26049  28.219   9.390   7.939
 1810POPC   C4B26050  28.539   9.146   7.690
 1811POPC   NC326051  10.203  27.685   9.804
 1811POPC   PO426052  10.754  27.424   9.468
 1811POPC   GL126053  10.577  27.645   9.132
 1811POPC   GL226054  10.235  27.676   9.137
 1811POPC   C1A26055  10.626  27.805   8.737
 1811POPC   D2A26056  10.792  28.107   8.462
 1811POPC   C3A26057  10.562  27.946   8.125
 1811POPC   C4A26058  10.526  27.899   7.694
 1811POPC   C1B26059  10.348  27.363   8.780
 1811POPC   C2B26060  10.250  27.327   8.329
 1811POPC   C3B26061  10.362  27.471   7.908
 1811POPC   C4B26062  10.160  27.594   7.516
 1812POPC   NC326063  13.944  44.442   9.574
 1812POPC   PO426064  13.426  44.805   9.521
 1812POPC   GL126065  13.585  44.539   9.165
 1812POPC   GL226066  13.919  44.626   9.087
 1812POPC   C1A26067  13.580  44.565   8.689
 1812POPC   D2A26068  13.863  44.707   8.340
 1812POPC   C3A26069  13.628  44.771   7.965
 1812POPC   C4A26070  13.497  44.642   7.575
 1812POPC   C1B26071  14.047  44.400   8.729
 1812POPC   C2B26072  14.348  44.394   8.487
 1812POPC   C3B26073  14.158  44.346   8.109
 1812POPC   C4B26074  13.977  44.468   7.728
 1813POPC   NC326075  36.187  12.753   9.761
 1813POPC   PO426076  35.719  12.558   9.392
 1813POPC   GL126077  35.998  12.835   9.154
 1813POPC   GL226078  36.281  12.668   9.012
 1813POPC   C1A26079  36.106  13.036   8.740
 1813POPC   D2A26080  36.310  13.167   8.362
 1813POPC   C3A26081  36.159  13.013   7.983
 1813POPC   C4A26082  35.928  13.199   7.689
 1813POPC   C1B26083  36.074  12.531   8.681
 1813POPC   C2B26084  35.990  12.294   8.355
 1813POPC   C3B26085  36.045  12.483   7.969
 1813POPC   C4B26086  36.147  12.664   7.569
 1814POPC   NC326087   9.762  19.421   9.487
 1814POPC   PO426088   9.685  18.759   9.380
 1814POPC   GL126089   9.786  19.082   9.096
 1814POPC   GL226090  10.040  18.892   9.026
 1814POPC   C1A26091   9.578  19.178   8.692
 1814POPC   D2A26092   9.370  18.836   8.414
 1814POPC   C3A26093   9.429  18.895   7.960
 1814POPC   C4A26094   9.399  19.193   7.617
 1814POPC   C1B26095   9.867  18.777   8.649
 1814POPC   C2B26096   9.851  18.910   8.240
 1814POPC   C3B26097   9.870  19.142   7.851
 1814POPC   C4B26098   9.886  19.341   7.451
 1815POPC   NC326099  28.219  28.164   9.472
 1815POPC   PO426100  28.136  28.853   9.303
 1815POPC   GL126101  28.433  28.477   9.121
 1815POPC   GL226102  28.440  28.100   9.015
 1815POPC   C1A26103  28.565  28.490   8.695
 1815POPC   D2A26104  28.365  28.699   8.338
 1815POPC   C3A26105  28.388  28.462   7.966
 1815POPC   C4A26106  28.054  28.489   7.650
 1815POPC   C1B26107  28.083  28.221   8.769
 1815POPC   C2B26108  28.061  28.221   8.329
 1815POPC   C3B26109  28.067  28.076   7.922
 1815POPC   C4B26110  28.472  28.032   7.697
 1816POPC   NC326111  11.100  15.103   9.721
 1816POPC   PO426112  11.599  15.430   9.450
 1816POPC   GL126113  11.453  15.184   9.132
 1816POPC   GL226114  11.158  15.030   9.204
 1816POPC   C1A26115  11.542  15.293   8.712
 1816POPC   D2A26116  11.420  15.164   8.317
 1816POPC   C3A26117  11.149  15.419   8.056
 1816POPC   C4A26118  11.359  15.315   7.701
 1816POPC   C1B26119  11.050  15.214   8.802
 1816POPC   C2B26120  10.906  15.130   8.410
 1816POPC   C3B26121  11.058  14.905   8.052
 1816POPC   C4B26122  10.908  14.970   7.675
 1817POPC   NC326123  35.431   0.106   9.457
 1817POPC   PO426124  35.732   0.700   9.499
 1817POPC   GL126125  35.699   0.399   9.143
 1817POPC   GL226126  35.407   0.514   9.014
 1817POPC   C1A26127  35.600   0.100   8.777
 1817POPC   D2A26128  35.312   0.057   8.394
 1817POPC   C3A26129  35.419   0.138   7.930
 1817POPC   C4A26130  35.553   0.526   7.717
 1817POPC   C1B26131  35.097   0.539   8.698
 1817POPC   C2B26132  34.985   0.749   8.309
 1817POPC   C3B26133  35.071   0.540   7.927
 1817POPC   C4B26134  35.121   0.693   7.501
 1818POPC   NC326135  14.513  25.751   9.446
 1818POPC   PO426136  14.006  26.225   9.498
 1818POPC   GL126137  14.278  26.283   9.148
 1818POPC   GL226138  14.583  26.082   9.064
 1818POPC   C1A26139  14.139  26.293   8.734
 1818POPC   D2A26140  14.091  25.984   8.436
 1818POPC   C3A26141  14.286  26.015   8.050
 1818POPC   C4A26142  14.207  25.730   7.743
 1818POPC   C1B26143  14.533  25.839   8.674
 1818POPC   C2B26144  14.721  25.671   8.286
 1818POPC   C3B26145  14.723  25.824   7.872
 1818POPC   C4B26146  14.658  26.278   7.777
 1819POPC   NC326147  24.582   8.144   9.353
 1819POPC   PO426148  23.889   8.149   9.342
 1819POPC   GL126149  24.129   8.139   8.989
 1819POPC   GL226150  24.287   8.391   9.019
 1819POPC   C1A26151  24.487   8.075   8.692
 1819POPC   D2A26152  24.507   7.807   8.355
 1819POPC   C3A26153  24.613   8.036   8.010
 1819POPC   C4A26154  24.892   7.898   7.680
 1819POPC   C1B26155  24.196   8.551   8.635
 1819POPC   C2B26156  24.084   8.535   8.213
 1819POPC   C3B26157  24.159   8.592   7.756
 1819POPC   C4B26158  24.162   8.449   7.322
 1820POPC   NC326159   9.338   9.655   9.497
 1820POPC   PO426160   9.939   9.850   9.679
 1820POPC   GL126161   9.781   9.786   9.237
 1820POPC   GL226162   9.781   9.430   9.139
 1820POPC   C1A26163   9.623   9.780   8.782
 1820POPC   D2A26164   9.795   9.576   8.392
 1820POPC   C3A26165   9.894   9.754   7.996
 1820POPC   C4A26166  10.092  10.061   7.751
 1820POPC   C1B26167  10.098   9.582   8.791
 1820POPC   C2B26168  10.256   9.328   8.454
 1820POPC   C3B26169  10.090   9.250   8.047
 1820POPC   C4B26170   9.948   9.353   7.649
 1821POPC   NC326171  39.975  37.582   9.898
 1821POPC   PO426172  40.316  37.335   9.350
 1821POPC   GL126173  39.995  37.517   9.109
 1821POPC   GL226174  39.879  37.853   9.106
 1821POPC   C1A26175  40.058  37.609   8.685
 1821POPC   D2A26176  40.001  37.508   8.283
 1821POPC   C3A26177  40.127  37.818   8.012
 1821POPC   C4A26178  40.020  37.675   7.635
 1821POPC   C1B26179  39.930  38.106   8.768
 1821POPC   C2B26180  39.804  37.965   8.395
 1821POPC   C3B26181  39.623  37.854   8.016
 1821POPC   C4B26182  39.773  38.157   7.750
 1822POPC   NC326183  31.563  16.993   9.598
 1822POPC   PO426184  31.915  16.591   9.359
 1822POPC   GL126185  31.727  16.951   9.109
 1822POPC   GL226186  31.347  17.014   9.139
 1822POPC   C1A26187  31.607  16.928   8.668
 1822POPC   D2A26188  31.573  16.616   8.373
 1822POPC   C3A26189  31.494  16.785   7.976
 1822POPC   C4A26190  31.480  16.618   7.531
 1822POPC   C1B26191  31.091  17.123   8.773
 1822POPC   C2B26192  31.138  16.933   8.370
 1822POPC   C3B26193  31.017  16.962   7.959
 1822POPC   C4B26194  30.959  17.260   7.663
 1823POPC   NC326195   6.869  14.212   9.346
 1823POPC   PO426196   6.311  14.487   9.521
 1823POPC   GL126197   6.509  14.508   9.144
 1823POPC   GL226198   6.412  14.148   9.119
 1823POPC   C1A26199   6.655  14.641   8.726
 1823POPC   D2A26200   6.658  14.441   8.352
 1823POPC   C3A26201   6.588  14.636   7.977
 1823POPC   C4A26202   6.731  14.375   7.663
 1823POPC   C1B26203   6.325  14.263   8.741
 1823POPC   C2B26204   6.203  14.236   8.372
 1823POPC   C3B26205   6.374  14.156   8.008
 1823POPC   C4B26206   6.352  14.021   7.617
 1824POPC   NC326207  20.741  37.373   9.595
 1824POPC   PO426208  20.661  36.698   9.466
 1824POPC   GL126209  20.595  36.728   9.023
 1824POPC   GL226210  20.278  36.851   9.065
 1824POPC   C1A26211  20.761  36.656   8.585
 1824POPC   D2A26212  20.969  36.621   8.159
 1824POPC   C3A26213  20.916  36.894   7.793
 1824POPC   C4A26214  20.767  36.812   7.413
 1824POPC   C1B26215  20.354  36.966   8.624
 1824POPC   C2B26216  20.120  36.818   8.265
 1824POPC   C3B26217  20.238  36.859   7.867
 1824POPC   C4B26218  20.445  37.117   7.629
 1825POPC   NC326219  33.225  31.946   9.472
 1825POPC   PO426220  32.798  31.378   9.399
 1825POPC   GL126221  33.010  31.455   9.061
 1825POPC   GL226222  33.079  31.116   9.062
 1825POPC   C1A26223  33.000  31.625   8.653
 1825POPC   D2A26224  33.020  31.799   8.264
 1825POPC   C3A26225  32.913  31.558   7.939
 1825POPC   C4A26226  33.085  31.717   7.551
 1825POPC   C1B26227  32.949  31.091   8.688
 1825POPC   C2B26228  33.098  31.223   8.310
 1825POPC   C3B26229  33.002  31.049   7.903
 1825POPC   C4B26230  32.867  31.051   7.464
 1826POPC   NC326231  17.275   0.094   9.631
 1826POPC   PO426232  17.383   0.730   9.481
 1826POPC   GL126233  17.461   0.590   9.115
 1826POPC   GL226234  17.468   0.231   9.110
 1826POPC   C1A26235  17.373   0.719   8.739
 1826POPC   D2A26236  17.339   0.407   8.454
 1826POPC   C3A26237  17.551   0.520   8.131
 1826POPC   C4A26238  17.439   0.377   7.758
 1826POPC   C1B26239  17.730   0.338   8.746
 1826POPC   C2B26240  17.761   0.102   8.348
 1826POPC   C3B26241  17.785   0.023   7.928
 1826POPC   C4B26242  17.862  44.907   7.519
 1827POPC   NC326243  25.242  41.826   9.478
 1827POPC   PO426244  25.470  41.302   9.557
 1827POPC   GL126245  25.508  41.494   9.156
 1827POPC   GL226246  25.158  41.464   9.124
 1827POPC   C1A26247  25.419  41.764   8.792
 1827POPC   D2A26248  25.243  41.565   8.439
 1827POPC   C3A26249  25.255  41.703   8.036
 1827POPC   C4A26250  25.452  41.341   7.833
 1827POPC   C1B26251  25.050  41.180   8.812
 1827POPC   C2B26252  24.938  41.130   8.412
 1827POPC   C3B26253  24.999  41.272   8.025
 1827POPC   C4B26254  24.810  41.613   7.753
 1828POPC   NC326255  23.891  37.077   9.509
 1828POPC   PO426256  23.402  36.596   9.470
 1828POPC   GL126257  23.639  36.626   9.131
 1828POPC   GL226258  23.972  36.653   9.263
 1828POPC   C1A26259  23.489  36.779   8.738
 1828POPC   D2A26260  23.242  36.640   8.395
 1828POPC   C3A26261  23.418  36.677   7.970
 1828POPC   C4A26262  23.409  36.886   7.563
 1828POPC   C1B26263  23.996  36.887   8.858
 1828POPC   C2B26264  23.847  37.040   8.450
 1828POPC   C3B26265  23.732  37.076   8.020
 1828POPC   C4B26266  23.904  36.800   7.719
 1829POPC   NC326267   3.127  38.622   9.557
 1829POPC   PO426268   3.826  38.440   9.510
 1829POPC   GL126269   3.529  38.579   9.213
 1829POPC   GL226270   3.265  38.338   9.072
 1829POPC   C1A26271   3.614  38.550   8.784
 1829POPC   D2A26272   3.513  38.277   8.450
 1829POPC   C3A26273   3.737  38.344   8.095
 1829POPC   C4A26274   3.580  38.583   7.758
 1829POPC   C1B26275   3.274  37.969   8.798
 1829POPC   C2B26276   3.315  37.796   8.364
 1829POPC   C3B26277   3.341  38.027   7.970
 1829POPC   C4B26278   3.284  38.222   7.567
 1830POPC   NC326279  44.970  43.338   9.492
 1830POPC   PO426280  44.599  42.838   9.522
 1830POPC   GL126281  44.655  43.082   9.161
 1830POPC   GL226282  44.506  43.377   9.158
 1830POPC   C1A26283  44.904  43.324   8.836
 1830POPC   D2A26284  44.945  43.506   8.411
 1830POPC   C3A26285   0.019  43.237   8.067
 1830POPC   C4A26286  44.822  43.266   7.681
 1830POPC   C1B26287  44.394  43.325   8.759
 1830POPC   C2B26288  44.437  43.518   8.394
 1830POPC   C3B26289  44.527  43.563   7.986
 1830POPC   C4B26290  44.282  43.284   7.751
 1831POPC   NC326291  15.438  44.292   9.407
 1831POPC   PO426292  15.026  44.897   9.394
 1831POPC   GL126293  15.162  44.592   9.083
 1831POPC   GL226294  15.535  44.685   9.107
 1831POPC   C1A26295  15.061  44.370   8.682
 1831POPC   D2A26296  15.304  44.191   8.329
 1831POPC   C3A26297  15.159  44.358   7.915
 1831POPC   C4A26298  14.943  44.770   7.828
 1831POPC   C1B26299  15.544  44.551   8.679
 1831POPC   C2B26300  15.347  44.689   8.294
 1831POPC   C3B26301  15.360  44.998   8.003
 1831POPC   C4B26302  15.326   0.021   7.583
 1832POPC   NC326303   2.299   0.260   9.519
 1832POPC   PO426304   1.827   0.675   9.417
 1832POPC   GL126305   2.080   0.516   9.105
 1832POPC   GL226306   1.920   0.217   9.102
 1832POPC   C1A26307   2.121   0.506   8.642
 1832POPC   D2A26308   2.270   0.351   8.224
 1832POPC   C3A26309   2.248   0.688   7.907
 1832POPC   C4A26310   2.103   0.753   7.507
 1832POPC   C1B26311   1.738   0.118   8.702
 1832POPC   C2B26312   1.774   0.186   8.250
 1832POPC   C3B26313   1.921   0.295   7.809
 1832POPC   C4B26314   1.857   0.289   7.331
 1833POPC   NC326315  34.822  15.682   9.470
 1833POPC   PO426316  34.144  15.576   9.508
 1833POPC   GL126317  34.416  15.809   9.135
 1833POPC   GL226318  34.762  15.971   9.078
 1833POPC   C1A26319  34.537  15.754   8.671
 1833POPC   D2A26320  34.601  16.065   8.313
 1833POPC   C3A26321  34.620  15.859   7.937
 1833POPC   C4A26322  34.547  15.766   7.515
 1833POPC   C1B26323  34.992  16.016   8.698
 1833POPC   C2B26324  35.031  15.804   8.309
 1833POPC   C3B26325  35.060  16.109   8.002
 1833POPC   C4B26326  34.838  16.215   7.632
 1834POPC   NC326327  34.966  20.340   9.578
 1834POPC   PO426328  34.492  20.823   9.616
 1834POPC   GL126329  34.766  20.726   9.256
 1834POPC   GL226330  34.663  20.389   9.181
 1834POPC   C1A26331  34.691  20.741   8.801
 1834POPC   D2A26332  34.552  21.018   8.462
 1834POPC   C3A26333  34.696  20.872   8.078
 1834POPC   C4A26334  34.434  20.747   7.743
 1834POPC   C1B26335  34.826  20.162   8.839
 1834POPC   C2B26336  34.703  20.357   8.438
 1834POPC   C3B26337  34.578  20.328   8.006
 1834POPC   C4B26338  34.870  20.078   7.790
 1835POPC   NC326339  14.033  24.157   9.482
 1835POPC   PO426340  14.613  24.518   9.427
 1835POPC   GL126341  14.507  24.473   9.042
 1835POPC   GL226342  14.161  24.434   9.072
 1835POPC   C1A26343  14.439  24.270   8.663
 1835POPC   D2A26344  14.385  24.371   8.273
 1835POPC   C3A26345  14.707  24.632   8.120
 1835POPC   C4A26346  14.758  24.353   7.786
 1835POPC   C1B26347  14.029  24.634   8.680
 1835POPC   C2B26348  14.189  24.833   8.299
 1835POPC   C3B26349  14.263  24.720   7.882
 1835POPC   C4B26350  14.315  24.955   7.541
 1836POPC   NC326351  25.980  10.839   9.414
 1836POPC   PO426352  26.100  11.386   9.834
 1836POPC   GL126353  25.955  11.349   9.349
 1836POPC   GL226354  26.241  11.301   9.210
 1836POPC   C1A26355  25.832  11.211   8.861
 1836POPC   D2A26356  26.007  11.125   8.403
 1836POPC   C3A26357  25.835  11.119   7.992
 1836POPC   C4A26358  25.893  11.371   7.656
 1836POPC   C1B26359  26.343  11.307   8.769
 1836POPC   C2B26360  26.473  11.420   8.347
 1836POPC   C3B26361  26.344  11.247   7.962
 1836POPC   C4B26362  26.356  11.204   7.524
 1837POPC   NC326363  21.540  17.372   9.499
 1837POPC   PO426364  21.074  17.884   9.557
 1837POPC   GL126365  21.057  17.665   9.148
 1837POPC   GL226366  21.268  17.379   9.088
 1837POPC   C1A26367  21.248  17.656   8.683
 1837POPC   D2A26368  21.456  17.460   8.349
 1837POPC   C3A26369  21.257  17.626   7.989
 1837POPC   C4A26370  21.136  17.366   7.638
 1837POPC   C1B26371  21.632  17.247   8.815
 1837POPC   C2B26372  21.949  17.387   8.511
 1837POPC   C3B26373  21.923  17.579   8.089
 1837POPC   C4B26374  21.678  17.473   7.745
 1838POPC   NC326375   0.005   1.621   9.342
 1838POPC   PO426376  44.545   1.157   9.589
 1838POPC   GL126377  44.637   1.273   9.174
 1838POPC   GL226378  44.382   1.104   9.011
 1838POPC   C1A26379  44.812   1.092   8.749
 1838POPC   D2A26380  44.526   1.104   8.381
 1838POPC   C3A26381  44.706   1.260   8.001
 1838POPC   C4A26382   0.023   1.523   7.818
 1838POPC   C1B26383  44.526   1.508   8.738
 1838POPC   C2B26384  44.387   1.619   8.330
 1838POPC   C3B26385  44.509   1.730   7.911
 1838POPC   C4B26386  44.406   1.498   7.546
 1839POPC   NC326387  32.005   0.116   9.522
 1839POPC   PO426388  32.224  44.385   9.496
 1839POPC   GL126389  32.356  44.642   9.145
 1839POPC   GL226390  32.236  44.955   9.113
 1839POPC   C1A26391  32.550  44.698   8.755
 1839POPC   D2A26392  32.618  44.386   8.434
 1839POPC   C3A26393  32.560  44.650   8.123
 1839POPC   C4A26394  32.331  44.795   7.787
 1839POPC   C1B26395  32.021  44.755   8.771
 1839POPC   C2B26396  32.090  44.532   8.382
 1839POPC   C3B26397  31.884  44.575   7.987
 1839POPC   C4B26398  31.817  44.940   7.722
 1840POPC   NC326399  12.007  10.905   9.976
 1840POPC   PO426400  12.048  10.413   9.530
 1840POPC   GL126401  12.024  10.537   9.134
 1840POPC   GL226402  12.296  10.757   9.151
 1840POPC   C1A26403  11.740  10.419   8.827
 1840POPC   D2A26404  11.728  10.520   8.421
 1840POPC   C3A26405  11.763  10.327   8.070
 1840POPC   C4A26406  11.962  10.381   7.714
 1840POPC   C1B26407  12.458  10.646   8.769
 1840POPC   C2B26408  12.222  10.351   8.562
 1840POPC   C3B26409  12.273  10.366   8.139
 1840POPC   C4B26410  12.428  10.712   7.847
 1841POPC   NC326411  37.898  36.926   9.427
 1841POPC   PO426412  37.264  36.762   9.460
 1841POPC   GL126413  37.495  36.701   9.106
 1841POPC   GL226414  37.594  37.032   9.040
 1841POPC   C1A26415  37.551  36.661   8.671
 1841POPC   D2A26416  37.447  36.873   8.295
 1841POPC   C3A26417  37.708  36.752   7.948
 1841POPC   C4A26418  37.736  36.734   7.507
 1841POPC   C1B26419  37.334  37.170   8.721
 1841POPC   C2B26420  37.371  37.405   8.363
 1841POPC   C3B26421  37.377  37.277   7.988
 1841POPC   C4B26422  37.560  37.167   7.673
 1842POPC   NC326423  15.802  14.321   9.484
 1842POPC   PO426424  16.439  14.639   9.623
 1842POPC   GL126425  16.163  14.672   9.227
 1842POPC   GL226426  15.813  14.769   9.233
 1842POPC   C1A26427  15.981  14.409   8.864
 1842POPC   D2A26428  16.132  14.132   8.544
 1842POPC   C3A26429  15.910  14.232   8.184
 1842POPC   C4A26430  15.966  14.266   7.749
 1842POPC   C1B26431  15.771  14.873   8.796
 1842POPC   C2B26432  15.831  14.720   8.387
 1842POPC   C3B26433  16.099  14.873   8.071
 1842POPC   C4B26434  16.109  14.747   7.662
 1843POPC   NC326435  30.468   6.539   9.431
 1843POPC   PO426436  31.083   6.913   9.423
 1843POPC   GL126437  30.840   6.706   9.136
 1843POPC   GL226438  30.599   6.986   9.129
 1843POPC   C1A26439  30.618   6.567   8.754
 1843POPC   D2A26440  30.525   6.698   8.326
 1843POPC   C3A26441  30.580   6.431   7.955
 1843POPC   C4A26442  30.544   6.369   7.481
 1843POPC   C1B26443  30.933   7.075   8.816
 1843POPC   C2B26444  31.050   6.820   8.495
 1843POPC   C3B26445  30.940   6.839   8.064
 1843POPC   C4B26446  30.739   6.825   7.646
 1844POPC   NC326447  43.548  10.407   9.551
 1844POPC   PO426448  43.932  10.875   9.327
 1844POPC   GL126449  43.786  10.561   9.128
 1844POPC   GL226450  43.975  10.272   9.287
 1844POPC   C1A26451  43.716  10.638   8.719
 1844POPC   D2A26452  43.850  10.688   8.305
 1844POPC   C3A26453  43.603  10.615   7.950
 1844POPC   C4A26454  43.706  10.639   7.519
 1844POPC   C1B26455  44.054  10.247   8.846
 1844POPC   C2B26456  44.122  10.259   8.424
 1844POPC   C3B26457  44.153  10.407   8.003
 1844POPC   C4B26458  44.092  10.161   7.649
 1845POPC   NC326459  32.113   4.047   9.613
 1845POPC   PO426460  31.998   4.688   9.599
 1845POPC   GL126461  32.092   4.426   9.221
 1845POPC   GL226462  32.380   4.460   9.020
 1845POPC   C1A26463  31.981   4.262   8.763
 1845POPC   D2A26464  31.896   4.014   8.363
 1845POPC   C3A26465  31.831   4.223   7.987
 1845POPC   C4A26466  32.134   4.468   7.779
 1845POPC   C1B26467  32.493   4.076   8.765
 1845POPC   C2B26468  32.395   3.840   8.392
 1845POPC   C3B26469  32.326   4.046   8.035
 1845POPC   C4B26470  32.535   4.142   7.685
 1846POPC   NC326471  42.135  36.202   9.505
 1846POPC   PO426472  42.891  36.257   9.576
 1846POPC   GL126473  42.529  36.142   9.175
 1846POPC   GL226474  42.263  36.318   9.000
 1846POPC   C1A26475  42.595  35.978   8.779
 1846POPC   D2A26476  42.468  36.221   8.426
 1846POPC   C3A26477  42.679  36.135   8.034
 1846POPC   C4A26478  42.426  36.306   7.702
 1846POPC   C1B26479  42.091  35.918   8.853
 1846POPC   C2B26480  41.994  35.837   8.432
 1846POPC   C3B26481  42.185  35.933   8.035
 1846POPC   C4B26482  42.153  35.889   7.590
 1847POPC   NC326483  39.802  17.628   9.520
 1847POPC   PO426484  39.855  16.992   9.624
 1847POPC   GL126485  39.841  17.199   9.181
 1847POPC   GL226486  40.070  17.424   9.039
 1847POPC   C1A26487  39.655  17.364   8.768
 1847POPC   D2A26488  39.924  17.470   8.380
 1847POPC   C3A26489  39.834  17.320   7.944
 1847POPC   C4A26490  40.181  17.387   7.642
 1847POPC   C1B26491  40.090  17.786   8.759
 1847POPC   C2B26492  40.169  17.971   8.325
 1847POPC   C3B26493  40.060  17.793   7.907
 1847POPC   C4B26494  39.934  17.743   7.385
 1848POPC   NC326495  39.133  13.499   9.433
 1848POPC   PO426496  39.153  14.216   9.463
 1848POPC   GL126497  39.325  13.879   9.168
 1848POPC   GL226498  39.056  13.869   8.894
 1848POPC   C1A26499  39.468  13.605   8.802
 1848POPC   D2A26500  39.226  13.532   8.387
 1848POPC   C3A26501  39.299  13.619   7.937
 1848POPC   C4A26502  39.569  13.765   7.626
 1848POPC   C1B26503  38.957  13.411   8.811
 1848POPC   C2B26504  38.813  13.218   8.438
 1848POPC   C3B26505  38.954  13.229   8.044
 1848POPC   C4B26506  38.914  13.452   7.636
 1849POPC   NC326507  30.598   5.663   9.385
 1849POPC   PO426508  30.882   6.318   9.476
 1849POPC   GL126509  30.831   6.099   9.144
 1849POPC   GL226510  31.029   5.838   9.189
 1849POPC   C1A26511  30.642   6.015   8.769
 1849POPC   D2A26512  30.445   6.174   8.419
 1849POPC   C3A26513  30.509   5.845   8.138
 1849POPC   C4A26514  30.613   5.940   7.757
 1849POPC   C1B26515  31.162   5.919   8.772
 1849POPC   C2B26516  30.982   5.815   8.375
 1849POPC   C3B26517  31.070   5.782   7.954
 1849POPC   C4B26518  30.985   5.669   7.536
 1850POPC   NC326519  30.592  20.050   9.486
 1850POPC   PO426520  30.908  19.500   9.339
 1850POPC   GL126521  30.693  19.745   9.083
 1850POPC   GL226522  30.875  20.064   9.058
 1850POPC   C1A26523  30.654  19.660   8.660
 1850POPC   D2A26524  30.886  19.753   8.324
 1850POPC   C3A26525  30.712  19.704   7.953
 1850POPC   C4A26526  30.969  19.741   7.632
 1850POPC   C1B26527  30.534  20.148   8.793
 1850POPC   C2B26528  30.384  20.061   8.399
 1850POPC   C3B26529  30.549  20.191   8.013
 1850POPC   C4B26530  30.601  20.129   7.618
 1851POPC   NC326531  18.814   0.560   9.548
 1851POPC   PO426532  19.340   0.140   9.664
 1851POPC   GL126533  19.220   0.324   9.260
 1851POPC   GL226534  18.888   0.239   9.156
 1851POPC   C1A26535  19.157   0.486   8.811
 1851POPC   D2A26536  18.996   0.757   8.445
 1851POPC   C3A26537  19.020   0.549   8.004
 1851POPC   C4A26538  19.263   0.281   7.711
 1851POPC   C1B26539  18.695   0.119   8.760
 1851POPC   C2B26540  18.748  44.904   8.360
 1851POPC   C3B26541  18.769   0.077   7.960
 1851POPC   C4B26542  18.774   0.232   7.568
 1852POPC   NC326543  21.674   3.726   9.389
 1852POPC   PO426544  21.150   3.487   9.758
 1852POPC   GL126545  21.082   3.459   9.196
 1852POPC   GL226546  21.424   3.410   9.079
 1852POPC   C1A26547  21.069   3.404   8.709
 1852POPC   D2A26548  21.372   3.438   8.372
 1852POPC   C3A26549  21.296   3.508   7.951
 1852POPC   C4A26550  21.309   3.258   7.605
 1852POPC   C1B26551  21.444   3.767   8.759
 1852POPC   C2B26552  21.634   3.896   8.376
 1852POPC   C3B26553  21.779   3.600   8.085
 1852POPC   C4B26554  21.689   3.653   7.643
 1853POPC   NC326555  42.563  43.983   9.541
 1853POPC   PO426556  41.924  44.097   9.523
 1853POPC   GL126557  42.244  43.984   9.149
 1853POPC   GL226558  42.479  43.693   9.109
 1853POPC   C1A26559  42.189  43.845   8.720
 1853POPC   D2A26560  42.006  43.938   8.322
 1853POPC   C3A26561  42.189  43.883   7.935
 1853POPC   C4A26562  42.515  44.121   7.711
 1853POPC   C1B26563  42.721  43.511   8.748
 1853POPC   C2B26564  42.776  43.411   8.307
 1853POPC   C3B26565  42.621  43.616   7.930
 1853POPC   C4B26566  42.626  43.698   7.470
 1854POPC   NC326567  20.971  44.327   9.405
 1854POPC   PO426568  21.219  43.681   9.668
 1854POPC   GL126569  21.078  43.619   9.226
 1854POPC   GL226570  20.838  43.906   9.149
 1854POPC   C1A26571  20.942  43.570   8.797
 1854POPC   D2A26572  20.661  43.626   8.465
 1854POPC   C3A26573  20.815  43.799   8.087
 1854POPC   C4A26574  20.606  43.939   7.744
 1854POPC   C1B26575  20.513  43.989   8.821
 1854POPC   C2B26576  20.447  44.200   8.407
 1854POPC   C3B26577  20.228  44.213   8.000
 1854POPC   C4B26578  20.152  44.108   7.554
 1855POPC   NC326579  40.837  29.651   9.551
 1855POPC   PO426580  41.215  30.182   9.517
 1855POPC   GL126581  40.934  30.214   9.184
 1855POPC   GL226582  40.747  29.885   9.118
 1855POPC   C1A26583  41.023  30.134   8.778
 1855POPC   D2A26584  40.798  30.036   8.457
 1855POPC   C3A26585  40.937  29.929   8.090
 1855POPC   C4A26586  40.765  30.124   7.746
 1855POPC   C1B26587  40.444  29.784   8.806
 1855POPC   C2B26588  40.500  29.622   8.412
 1855POPC   C3B26589  40.467  29.759   8.007
 1855POPC   C4B26590  40.421  29.601   7.612
 1856POPC   NC326591  35.865  17.951   9.325
 1856POPC   PO426592  36.180  18.559   9.461
 1856POPC   GL126593  36.299  18.244   9.143
 1856POPC   GL226594  36.050  18.113   8.889
 1856POPC   C1A26595  36.527  18.103   8.770
 1856POPC   D2A26596  36.354  18.263   8.418
 1856POPC   C3A26597  36.469  18.192   7.996
 1856POPC   C4A26598  36.249  18.410   7.680
 1856POPC   C1B26599  35.888  17.933   8.515
 1856POPC   C2B26600  36.022  17.982   8.146
 1856POPC   C3B26601  35.950  17.991   7.774
 1856POPC   C4B26602  35.647  17.814   7.538
 1857POPC   NC326603  33.694  41.046   9.575
 1857POPC   PO426604  34.085  40.510   9.363
 1857POPC   GL126605  33.842  40.773   9.125
 1857POPC   GL226606  33.514  40.717   9.239
 1857POPC   C1A26607  33.917  40.747   8.687
 1857POPC   D2A26608  33.954  40.953   8.305
 1857POPC   C3A26609  33.987  40.732   7.910
 1857POPC   C4A26610  34.153  41.047   7.643
 1857POPC   C1B26611  33.387  40.780   8.826
 1857POPC   C2B26612  33.476  40.705   8.400
 1857POPC   C3B26613  33.503  40.848   8.009
 1857POPC   C4B26614  33.555  40.638   7.611
 1858POPC   NC326615  25.286   3.301   9.174
 1858POPC   PO426616  25.398   2.696   9.440
 1858POPC   GL126617  25.136   2.738   9.080
 1858POPC   GL226618  24.840   2.481   9.088
 1858POPC   C1A26619  25.345   2.865   8.677
 1858POPC   D2A26620  25.672   2.730   8.374
 1858POPC   C3A26621  25.515   2.795   7.939
 1858POPC   C4A26622  25.336   2.638   7.533
 1858POPC   C1B26623  24.992   2.450   8.672
 1858POPC   C2B26624  25.162   2.591   8.284
 1858POPC   C3B26625  24.957   2.526   7.895
 1858POPC   C4B26626  24.820   2.139   7.712
 1859POPC   NC326627   2.351  29.449   9.333
 1859POPC   PO426628   1.856  28.940   9.494
 1859POPC   GL126629   1.949  29.150   9.142
 1859POPC   GL226630   2.259  28.998   9.119
 1859POPC   C1A26631   1.866  29.379   8.762
 1859POPC   D2A26632   1.910  29.162   8.370
 1859POPC   C3A26633   2.043  29.302   7.965
 1859POPC   C4A26634   1.891  28.971   7.724
 1859POPC   C1B26635   2.283  29.079   8.719
 1859POPC   C2B26636   2.442  29.118   8.344
 1859POPC   C3B26637   2.380  28.889   8.030
 1859POPC   C4B26638   2.381  29.012   7.628
 1860POPC   NC326639   9.484   3.921   9.427
 1860POPC   PO426640  10.034   4.413   9.519
 1860POPC   GL126641   9.752   4.420   9.211
 1860POPC   GL226642   9.983   4.633   9.046
 1860POPC   C1A26643   9.590   4.381   8.790
 1860POPC   D2A26644   9.705   4.415   8.350
 1860POPC   C3A26645   9.546   4.141   8.022
 1860POPC   C4A26646   9.475   4.075   7.596
 1860POPC   C1B26647  10.110   4.291   8.776
 1860POPC   C2B26648  10.112   4.086   8.359
 1860POPC   C3B26649  10.023   4.190   7.908
 1860POPC   C4B26650  10.050   4.244   7.448
 1861POPC   NC326651  41.996  31.736   9.451
 1861POPC   PO426652  42.485  31.287   9.615
 1861POPC   GL126653  42.647  31.316   9.122
 1861POPC   GL226654  42.715  31.164   8.811
 1861POPC   C1A26655  42.488  31.597   8.745
 1861POPC   D2A26656  42.549  31.542   8.327
 1861POPC   C3A26657  42.338  31.823   8.058
 1861POPC   C4A26658  42.318  31.663   7.653
 1861POPC   C1B26659  42.251  31.183   8.599
 1861POPC   C2B26660  42.033  31.470   8.354
 1861POPC   C3B26661  42.197  31.302   7.996
 1861POPC   C4B26662  42.053  31.228   7.599
 1862POPC   NC326663   4.294  26.375   9.471
 1862POPC   PO426664   3.905  25.923   9.390
 1862POPC   GL126665   3.995  25.864   9.018
 1862POPC   GL226666   4.318  25.792   9.026
 1862POPC   C1A26667   3.992  25.967   8.604
 1862POPC   D2A26668   4.339  25.930   8.334
 1862POPC   C3A26669   4.254  25.944   7.935
 1862POPC   C4A26670   3.980  25.780   7.723
 1862POPC   C1B26671   4.540  26.037   8.777
 1862POPC   C2B26672   4.633  26.359   8.518
 1862POPC   C3B26673   4.567  26.329   8.114
 1862POPC   C4B26674   4.612  26.224   7.715
 1863POPC   NC326675  36.364  26.040   9.548
 1863POPC   PO426676  35.769  26.382   9.581
 1863POPC   GL126677  36.012  26.232   9.224
 1863POPC   GL226678  36.096  25.875   9.127
 1863POPC   C1A26679  36.147  26.284   8.797
 1863POPC   D2A26680  36.153  26.383   8.372
 1863POPC   C3A26681  36.192  25.972   8.197
 1863POPC   C4A26682  35.855  25.821   7.946
 1863POPC   C1B26683  36.397  25.764   8.788
 1863POPC   C2B26684  36.453  25.551   8.376
 1863POPC   C3B26685  36.550  25.629   7.942
 1863POPC   C4B26686  36.468  26.023   7.740
 1864POPC   NC326687  36.571  20.945   9.478
 1864POPC   PO426688  37.051  20.389   9.485
 1864POPC   GL126689  37.054  20.521   9.071
 1864POPC   GL226690  36.896  20.840   9.107
 1864POPC   C1A26691  36.906  20.438   8.617
 1864POPC   D2A26692  36.549  20.458   8.283
 1864POPC   C3A26693  36.671  20.464   7.836
 1864POPC   C4A26694  37.052  20.228   7.742
 1864POPC   C1B26695  37.109  20.902   8.738
 1864POPC   C2B26696  37.276  20.715   8.339
 1864POPC   C3B26697  37.086  20.726   7.942
 1864POPC   C4B26698  36.777  20.976   7.690
 1865POPC   NC326699  44.014  39.223   9.563
 1865POPC   PO426700  44.391  39.834   9.384
 1865POPC   GL126701  44.083  39.545   9.146
 1865POPC   GL226702  44.061  39.162   9.054
 1865POPC   C1A26703  43.657  39.422   8.951
 1865POPC   D2A26704  43.596  39.265   8.524
 1865POPC   C3A26705  43.587  39.276   8.098
 1865POPC   C4A26706  43.814  39.380   7.712
 1865POPC   C1B26707  43.906  38.901   8.731
 1865POPC   C2B26708  43.783  38.797   8.326
 1865POPC   C3B26709  43.944  38.944   7.948
 1865POPC   C4B26710  43.802  38.922   7.528
 1866POPC   NC326711  11.568  32.447   9.779
 1866POPC   PO426712  11.288  31.926   9.641
 1866POPC   GL126713  11.292  32.189   9.246
 1866POPC   GL226714  10.936  32.206   9.120
 1866POPC   C1A26715  11.416  32.342   8.789
 1866POPC   D2A26716  11.394  32.188   8.330
 1866POPC   C3A26717  11.425  32.399   7.913
 1866POPC   C4A26718  11.563  32.334   7.481
 1866POPC   C1B26719  10.920  32.198   8.669
 1866POPC   C2B26720  10.786  31.964   8.295
 1866POPC   C3B26721  11.044  31.943   7.951
 1866POPC   C4B26722  11.097  32.182   7.581
 1867POPC   NC326723  27.747  43.335   9.627
 1867POPC   PO426724  27.639  42.641   9.690
 1867POPC   GL126725  27.506  42.965   9.360
 1867POPC   GL226726  27.785  43.090   9.194
 1867POPC   C1A26727  27.378  42.994   8.901
 1867POPC   D2A26728  27.561  43.097   8.508
 1867POPC   C3A26729  27.380  43.056   8.092
 1867POPC   C4A26730  27.623  43.135   7.692
 1867POPC   C1B26731  27.916  42.912   8.830
 1867POPC   C2B26732  27.915  42.709   8.452
 1867POPC   C3B26733  27.897  42.947   8.090
 1867POPC   C4B26734  27.943  42.729   7.709
 1868POPC   NC326735  29.350  41.551   9.694
 1868POPC   PO426736  28.876  41.179   9.548
 1868POPC   GL126737  28.888  41.477   9.197
 1868POPC   GL226738  29.234  41.436   9.201
 1868POPC   C1A26739  29.035  41.718   8.823
 1868POPC   D2A26740  29.257  41.611   8.418
 1868POPC   C3A26741  29.066  41.770   8.051
 1868POPC   C4A26742  28.800  41.794   7.686
 1868POPC   C1B26743  29.472  41.393   8.824
 1868POPC   C2B26744  29.530  41.156   8.426
 1868POPC   C3B26745  29.441  41.311   7.998
 1868POPC   C4B26746  29.275  41.581   7.643
 1869POPC   NC326747  35.432   6.135   9.426
 1869POPC   PO426748  34.888   5.788   9.345
 1869POPC   GL126749  35.254   5.768   9.057
 1869POPC   GL226750  35.601   5.727   9.133
 1869POPC   C1A26751  35.447   5.673   8.656
 1869POPC   D2A26752  35.439   5.787   8.232
 1869POPC   C3A26753  35.137   5.565   8.003
 1869POPC   C4A26754  34.890   5.613   7.693
 1869POPC   C1B26755  35.609   6.135   8.819
 1869POPC   C2B26756  35.525   6.307   8.391
 1869POPC   C3B26757  35.411   6.213   7.945
 1869POPC   C4B26758  35.492   5.819   7.704
 1870POPC   NC326759   7.256  36.597   9.379
 1870POPC   PO426760   7.585  36.056   9.459
 1870POPC   GL126761   7.251  36.101   9.177
 1870POPC   GL226762   7.073  35.784   9.196
 1870POPC   C1A26763   7.314  36.294   8.762
 1870POPC   D2A26764   7.583  36.206   8.379
 1870POPC   C3A26765   7.458  36.296   7.949
 1870POPC   C4A26766   7.326  36.555   7.564
 1870POPC   C1B26767   7.339  35.787   8.783
 1870POPC   C2B26768   7.216  35.823   8.398
 1870POPC   C3B26769   7.420  35.762   8.050
 1870POPC   C4B26770   7.808  35.869   7.904
 1871POPC   NC326771  38.036  38.568   9.477
 1871POPC   PO426772  38.712  38.651   9.652
 1871POPC   GL126773  38.480  38.689   9.240
 1871POPC   GL226774  38.402  38.337   9.190
 1871POPC   C1A26775  38.435  38.636   8.773
 1871POPC   D2A26776  38.495  38.418   8.385
 1871POPC   C3A26777  38.253  38.546   8.028
 1871POPC   C4A26778  38.191  38.856   7.720
 1871POPC   C1B26779  38.305  38.142   8.795
 1871POPC   C2B26780  38.248  37.977   8.368
 1871POPC   C3B26781  38.388  38.074   7.955
 1871POPC   C4B26782  38.440  38.366   7.579
 1872POPC   NC326783  33.646   6.858   9.675
 1872POPC   PO426784  34.078   6.387   9.468
 1872POPC   GL126785  33.847   6.696   9.205
 1872POPC   GL226786  33.485   6.601   9.211
 1872POPC   C1A26787  33.640   6.923   8.835
 1872POPC   D2A26788  33.541   6.823   8.364
 1872POPC   C3A26789  33.903   6.794   8.053
 1872POPC   C4A26790  33.921   6.895   7.587
 1872POPC   C1B26791  33.644   6.417   8.815
 1872POPC   C2B26792  33.789   6.384   8.410
 1872POPC   C3B26793  33.604   6.352   8.031
 1872POPC   C4B26794  33.830   6.422   7.686
 1873POPC   NC326795  35.432  37.421   9.776
 1873POPC   PO426796  35.362  36.746   9.603
 1873POPC   GL126797  35.515  36.946   9.185
 1873POPC   GL226798  35.247  37.111   9.005
 1873POPC   C1A26799  35.618  36.977   8.714
 1873POPC   D2A26800  35.400  37.196   8.422
 1873POPC   C3A26801  35.455  36.966   8.099
 1873POPC   C4A26802  35.461  36.838   7.718
 1873POPC   C1B26803  35.077  36.936   8.689
 1873POPC   C2B26804  34.937  36.925   8.279
 1873POPC   C3B26805  34.988  36.972   7.845
 1873POPC   C4B26806  35.030  36.660   7.527
 1874POPC   NC326807  41.807  31.074   9.388
 1874POPC   PO426808  41.507  31.722   9.507
 1874POPC   GL126809  41.610  31.507   9.147
 1874POPC   GL226810  41.358  31.228   9.124
 1874POPC   C1A26811  41.634  31.498   8.702
 1874POPC   D2A26812  41.383  31.376   8.362
 1874POPC   C3A26813  41.442  31.626   7.997
 1874POPC   C4A26814  41.826  31.668   7.770
 1874POPC   C1B26815  41.505  31.004   8.754
 1874POPC   C2B26816  41.751  31.035   8.377
 1874POPC   C3B26817  41.692  31.175   7.983
 1874POPC   C4B26818  41.542  31.247   7.598
 1875POPC   NC326819  38.786  33.679   9.467
 1875POPC   PO426820  38.216  34.150   9.540
 1875POPC   GL126821  38.262  33.890   9.128
 1875POPC   GL226822  38.569  33.688   9.013
 1875POPC   C1A26823  38.315  33.951   8.662
 1875POPC   D2A26824  38.628  34.169   8.389
 1875POPC   C3A26825  38.499  34.095   7.971
 1875POPC   C4A26826  38.152  33.821   7.787
 1875POPC   C1B26827  38.841  33.366   8.828
 1875POPC   C2B26828  38.868  33.201   8.413
 1875POPC   C3B26829  38.701  33.249   8.010
 1875POPC   C4B26830  38.646  33.641   7.766
 1876POPC   NC326831  31.970  35.955   9.419
 1876POPC   PO426832  32.606  36.276   9.426
 1876POPC   GL126833  32.486  36.229   9.057
 1876POPC   GL226834  32.363  35.928   9.109
 1876POPC   C1A26835  32.537  36.089   8.639
 1876POPC   D2A26836  32.439  36.397   8.313
 1876POPC   C3A26837  32.172  36.316   7.956
 1876POPC   C4A26838  32.489  36.184   7.723
 1876POPC   C1B26839  32.107  35.787   8.778
 1876POPC   C2B26840  32.094  35.968   8.377
 1876POPC   C3B26841  32.221  35.807   7.991
 1876POPC   C4B26842  31.951  35.856   7.664
 1877POPC   NC326843   4.883  13.789   9.601
 1877POPC   PO426844   4.846  13.190   9.695
 1877POPC   GL126845   4.932  13.383   9.234
 1877POPC   GL226846   4.976  13.718   9.103
 1877POPC   C1A26847   5.044  13.350   8.755
 1877POPC   D2A26848   5.286  13.468   8.365
 1877POPC   C3A26849   5.023  13.454   7.995
 1877POPC   C4A26850   5.272  13.160   7.825
 1877POPC   C1B26851   5.291  13.798   8.761
 1877POPC   C2B26852   5.345  13.987   8.378
 1877POPC   C3B26853   5.379  13.833   7.969
 1877POPC   C4B26854   5.132  13.983   7.638
 1878POPC   NC326855  18.901  10.897   9.705
 1878POPC   PO426856  19.477  10.523   9.491
 1878POPC   GL126857  19.197  10.556   9.177
 1878POPC   GL226858  18.857  10.547   9.315
 1878POPC   C1A26859  18.988  10.438   8.795
 1878POPC   D2A26860  18.777  10.363   8.389
 1878POPC   C3A26861  18.979  10.354   7.949
 1878POPC   C4A26862  18.933  10.167   7.491
 1878POPC   C1B26863  18.777  10.868   9.008
 1878POPC   C2B26864  18.772  10.894   8.568
 1878POPC   C3B26865  18.709  10.805   8.159
 1878POPC   C4B26866  18.710  10.913   7.762
 1879POPC   NC326867  39.526   6.296   9.560
 1879POPC   PO426868  40.058   6.722   9.698
 1879POPC   GL126869  39.954   6.767   9.270
 1879POPC   GL226870  40.244   6.765   9.076
 1879POPC   C1A26871  39.798   6.531   8.923
 1879POPC   D2A26872  39.690   6.538   8.471
 1879POPC   C3A26873  39.984   6.519   8.128
 1879POPC   C4A26874  39.930   6.768   7.811
 1879POPC   C1B26875  40.367   6.928   8.722
 1879POPC   C2B26876  40.429   6.655   8.393
 1879POPC   C3B26877  40.384   6.859   8.054
 1879POPC   C4B26878  40.204   7.192   7.879
 1880POPC   NC326879  43.582   7.956   9.505
 1880POPC   PO426880  44.022   8.421   9.445
 1880POPC   GL126881  43.831   8.235   9.110
 1880POPC   GL226882  44.000   7.936   9.136
 1880POPC   C1A26883  43.736   8.319   8.687
 1880POPC   D2A26884  43.486   8.199   8.338
 1880POPC   C3A26885  43.787   8.121   8.029
 1880POPC   C4A26886  44.050   8.445   7.845
 1880POPC   C1B26887  44.106   7.896   8.694
 1880POPC   C2B26888  44.247   7.687   8.327
 1880POPC   C3B26889  44.318   7.928   7.964
 1880POPC   C4B26890  44.062   7.992   7.619
 1881POPC   NC326891  13.026  41.301   9.498
 1881POPC   PO426892  12.497  41.789   9.464
 1881POPC   GL126893  12.749  41.767   9.085
 1881POPC   GL226894  12.726  41.415   9.069
 1881POPC   C1A26895  12.944  41.620   8.661
 1881POPC   D2A26896  13.161  41.666   8.252
 1881POPC   C3A26897  12.871  41.629   7.891
 1881POPC   C4A26898  12.903  41.681   7.442
 1881POPC   C1B26899  12.634  41.205   8.697
 1881POPC   C2B26900  12.781  41.285   8.281
 1881POPC   C3B26901  12.489  41.305   7.928
 1881POPC   C4B26902  12.472  41.206   7.496
 1882POPC   NC326903  21.688  43.813   9.801
 1882POPC   PO426904  21.337  44.060   9.292
 1882POPC   GL126905  21.299  43.947   8.912
 1882POPC   GL226906  21.548  43.744   8.936
 1882POPC   C1A26907  21.282  44.078   8.526
 1882POPC   D2A26908  21.666  44.218   8.339
 1882POPC   C3A26909  21.684  43.925   8.017
 1882POPC   C4A26910  21.269  43.826   7.785
 1882POPC   C1B26911  21.684  43.740   8.546
 1882POPC   C2B26912  21.676  43.445   8.240
 1882POPC   C3B26913  21.584  43.404   7.816
 1882POPC   C4B26914  21.719  43.754   7.538
 1883POPC   NC326915  29.744  37.067   9.488
 1883POPC   PO426916  30.312  36.735   9.421
 1883POPC   GL126917  30.109  36.972   9.108
 1883POPC   GL226918  29.766  36.819   9.026
 1883POPC   C1A26919  30.080  37.012   8.669
 1883POPC   D2A26920  29.811  36.830   8.415
 1883POPC   C3A26921  29.987  36.961   8.035
 1883POPC   C4A26922  29.826  36.750   7.615
 1883POPC   C1B26923  29.623  37.198   8.784
 1883POPC   C2B26924  29.700  37.316   8.339
 1883POPC   C3B26925  29.553  37.130   7.903
 1883POPC   C4B26926  29.442  37.056   7.448
 1884POPC   NC326927   2.609  25.510   9.442
 1884POPC   PO426928   3.266  25.243   9.423
 1884POPC   GL126929   2.984  25.434   9.106
 1884POPC   GL226930   2.695  25.231   9.031
 1884POPC   C1A26931   3.020  25.355   8.656
 1884POPC   D2A26932   2.717  25.292   8.350
 1884POPC   C3A26933   2.733  25.485   7.927
 1884POPC   C4A26934   2.365  25.534   7.666
 1884POPC   C1B26935   2.778  24.915   8.742
 1884POPC   C2B26936   2.913  24.782   8.340
 1884POPC   C3B26937   2.812  24.976   7.947
 1884POPC   C4B26938   2.939  24.846   7.562
 1885POPC   NC326939   9.938  35.129   9.579
 1885POPC   PO426940   9.774  35.726   9.381
 1885POPC   GL126941   9.776  35.403   9.162
 1885POPC   GL226942  10.108  35.393   9.169
 1885POPC   C1A26943   9.716  35.194   8.814
 1885POPC   D2A26944   9.888  35.218   8.442
 1885POPC   C3A26945   9.669  35.167   8.071
 1885POPC   C4A26946   9.571  35.406   7.729
 1885POPC   C1B26947  10.162  35.529   8.759
 1885POPC   C2B26948  10.214  35.642   8.305
 1885POPC   C3B26949  10.076  35.550   7.861
 1885POPC   C4B26950  10.170  35.447   7.375
 1886POPC   NC326951  21.688  29.553   9.534
 1886POPC   PO426952  21.602  30.289   9.546
 1886POPC   GL126953  21.489  30.094   9.151
 1886POPC   GL226954  21.744  29.851   9.111
 1886POPC   C1A26955  21.426  29.954   8.710
 1886POPC   D2A26956  21.713  29.861   8.365
 1886POPC   C3A26957  21.541  30.043   8.020
 1886POPC   C4A26958  21.289  29.961   7.703
 1886POPC   C1B26959  21.744  29.562   8.791
 1886POPC   C2B26960  21.615  29.357   8.426
 1886POPC   C3B26961  21.504  29.513   8.031
 1886POPC   C4B26962  21.758  29.697   7.705
 1887POPC   NC326963  29.726  23.461   9.427
 1887POPC   PO426964  29.948  22.801   9.515
 1887POPC   GL126965  29.920  23.049   9.159
 1887POPC   GL226966  30.238  22.997   9.062
 1887POPC   C1A26967  29.741  23.114   8.748
 1887POPC   D2A26968  29.610  22.967   8.320
 1887POPC   C3A26969  29.754  23.190   7.976
 1887POPC   C4A26970  29.812  23.087   7.569
 1887POPC   C1B26971  30.218  23.253   8.707
 1887POPC   C2B26972  30.156  23.202   8.290
 1887POPC   C3B26973  30.281  23.090   7.861
 1887POPC   C4B26974  30.192  22.729   7.554
 1888POPC   NC326975   8.712  43.321   9.493
 1888POPC   PO426976   9.006  42.729   9.604
 1888POPC   GL126977   9.022  42.782   9.142
 1888POPC   GL226978   8.943  43.115   9.083
 1888POPC   C1A26979   8.714  42.866   8.721
 1888POPC   D2A26980   8.715  43.041   8.301
 1888POPC   C3A26981   8.985  43.004   7.931
 1888POPC   C4A26982   8.978  42.925   7.529
 1888POPC   C1B26983   9.201  42.973   8.709
 1888POPC   C2B26984   9.236  43.139   8.340
 1888POPC   C3B26985   9.080  43.475   8.063
 1888POPC   C4B26986   9.353  43.493   7.726
 1889POPC   NC326987  14.867  30.322   9.305
 1889POPC   PO426988  15.395  30.650   9.617
 1889POPC   GL126989  15.221  30.859   9.192
 1889POPC   GL226990  14.917  30.756   9.001
 1889POPC   C1A26991  15.250  31.005   8.725
 1889POPC   D2A26992  15.051  30.846   8.335
 1889POPC   C3A26993  15.149  30.905   7.864
 1889POPC   C4A26994  14.936  30.841   7.422
 1889POPC   C1B26995  15.230  30.453   8.812
 1889POPC   C2B26996  15.270  30.207   8.426
 1889POPC   C3B26997  15.120  30.411   8.070
 1889POPC   C4B26998  14.974  30.405   7.666
 1890POPC   NC326999  13.095  18.400   9.733
 1890POPC   PO427000  13.866  18.346   9.580
 1890POPC   GL127001  13.767  18.252   9.109
 1890POPC   GL227002  13.618  18.486   8.895
 1890POPC   C1A27003  13.772  18.034   8.725
 1890POPC   D2A27004  13.743  18.217   8.309
 1890POPC   C3A27005  13.919  18.094   7.907
 1890POPC   C4A27006  13.701  18.134   7.493
 1890POPC   C1B27007  13.335  18.461   8.537
 1890POPC   C2B27008  13.317  18.386   8.077
 1890POPC   C3B27009  13.634  18.512   7.802
 1890POPC   C4B27010  13.799  18.620   7.390
 1891POPC   NC327011  11.905   6.433   9.571
 1891POPC   PO427012  12.197   7.086   9.507
 1891POPC   GL127013  12.067   6.746   9.183
 1891POPC   GL227014  11.849   6.493   9.071
 1891POPC   C1A27015  12.212   6.586   8.748
 1891POPC   D2A27016  12.162   6.215   8.473
 1891POPC   C3A27017  12.314   6.353   8.080
 1891POPC   C4A27018  12.228   6.620   7.704
 1891POPC   C1B27019  11.793   6.928   8.800
 1891POPC   C2B27020  11.708   7.029   8.329
 1891POPC   C3B27021  11.808   6.902   7.881
 1891POPC   C4B27022  11.969   6.990   7.454
 1892POPC   NC327023   7.141   2.131   9.582
 1892POPC   PO427024   6.496   1.857   9.490
 1892POPC   GL127025   6.646   2.131   9.202
 1892POPC   GL227026   6.315   2.165   9.077
 1892POPC   C1A27027   6.806   2.159   8.800
 1892POPC   D2A27028   6.664   2.090   8.359
 1892POPC   C3A27029   6.876   1.978   8.008
 1892POPC   C4A27030   6.760   2.208   7.674
 1892POPC   C1B27031   6.406   1.857   8.765
 1892POPC   C2B27032   6.573   1.605   8.408
 1892POPC   C3B27033   6.449   1.674   8.024
 1892POPC   C4B27034   6.518   1.756   7.659
 1893POPC   NC327035   6.485  13.472   9.672
 1893POPC   PO427036   7.050  13.814   9.490
 1893POPC   GL127037   6.712  13.733   9.181
 1893POPC   GL227038   6.368  13.623   9.195
 1893POPC   C1A27039   6.640  13.846   8.740
 1893POPC   D2A27040   6.382  13.765   8.361
 1893POPC   C3A27041   6.580  13.673   7.948
 1893POPC   C4A27042   6.512  13.475   7.523
 1893POPC   C1B27043   6.404  13.388   8.797
 1893POPC   C2B27044   6.533  13.279   8.358
 1893POPC   C3B27045   6.540  13.164   7.936
 1893POPC   C4B27046   6.259  12.991   7.633
 1894POPC   NC327047  27.897  27.615   9.601
 1894POPC   PO427048  27.245  27.539   9.694
 1894POPC   GL127049  27.549  27.573   9.228
 1894POPC   GL227050  27.877  27.321   9.190
 1894POPC   C1A27051  27.561  27.791   8.770
 1894POPC   D2A27052  27.596  28.003   8.329
 1894POPC   C3A27053  27.702  27.740   7.970
 1894POPC   C4A27054  27.510  27.630   7.585
 1894POPC   C1B27055  27.798  27.295   8.744
 1894POPC   C2B27056  27.495  27.401   8.419
 1894POPC   C3B27057  27.549  27.259   8.009
 1894POPC   C4B27058  27.885  27.282   7.732
 1895POPC   NC327059  21.898  22.439   9.450
 1895POPC   PO427060  22.349  22.082   9.735
 1895POPC   GL127061  22.168  22.032   9.246
 1895POPC   GL227062  22.080  22.312   9.000
 1895POPC   C1A27063  21.961  21.856   8.854
 1895POPC   D2A27064  22.143  22.088   8.529
 1895POPC   C3A27065  22.337  21.915   8.190
 1895POPC   C4A27066  22.055  22.006   7.872
 1895POPC   C1B27067  22.257  22.568   8.689
 1895POPC   C2B27068  22.267  22.631   8.275
 1895POPC   C3B27069  22.000  22.609   7.908
 1895POPC   C4B27070  22.207  22.396   7.568
 1896POPC   NC327071  19.298  16.311   9.388
 1896POPC   PO427072  18.728  15.782   9.468
 1896POPC   GL127073  19.028  15.832   9.175
 1896POPC   GL227074  18.975  16.136   9.068
 1896POPC   C1A27075  19.086  15.679   8.792
 1896POPC   D2A27076  19.115  15.564   8.372
 1896POPC   C3A27077  18.854  15.834   8.127
 1896POPC   C4A27078  18.875  15.941   7.699
 1896POPC   C1B27079  19.267  16.167   8.748
 1896POPC   C2B27080  19.372  15.991   8.369
 1896POPC   C3B27081  19.261  16.117   7.993
 1896POPC   C4B27082  19.205  16.326   7.645
 1897POPC   NC327083  34.362   0.291   9.480
 1897POPC   PO427084  35.057   0.349   9.352
 1897POPC   GL127085  34.730   0.611   9.115
 1897POPC   GL227086  34.346   0.676   9.127
 1897POPC   C1A27087  34.655   0.818   8.721
 1897POPC   D2A27088  34.380   0.710   8.401
 1897POPC   C3A27089  34.554   0.524   8.048
 1897POPC   C4A27090  34.665   0.519   7.621
 1897POPC   C1B27091  34.289   0.359   8.830
 1897POPC   C2B27092  34.316   0.188   8.449
 1897POPC   C3B27093  34.120   0.227   8.076
 1897POPC   C4B27094  34.306   0.200   7.715
 1898POPC   NC327095   5.940  23.414   9.543
 1898POPC   PO427096   6.311  23.953   9.707
 1898POPC   GL127097   5.903  23.908   9.365
 1898POPC   GL227098   6.008  23.623   9.107
 1898POPC   C1A27099   5.655  23.930   8.916
 1898POPC   D2A27100   5.531  24.033   8.471
 1898POPC   C3A27101   5.755  23.795   8.137
 1898POPC   C4A27102   5.908  23.947   7.754
 1898POPC   C1B27103   6.250  23.518   8.764
 1898POPC   C2B27104   6.245  23.862   8.488
 1898POPC   C3B27105   6.296  23.862   8.062
 1898POPC   C4B27106   6.170  23.503   7.816
 1899POPC   NC327107   7.884  36.435   9.450
 1899POPC   PO427108   8.273  35.917   9.497
 1899POPC   GL127109   8.075  36.048   9.152
 1899POPC   GL227110   8.275  36.345   9.111
 1899POPC   C1A27111   7.858  35.999   8.770
 1899POPC   D2A27112   8.078  36.021   8.355
 1899POPC   C3A27113   7.976  36.324   8.039
 1899POPC   C4A27114   8.091  36.153   7.607
 1899POPC   C1B27115   8.123  36.452   8.720
 1899POPC   C2B27116   8.362  36.444   8.362
 1899POPC   C3B27117   8.473  36.283   7.986
 1899POPC   C4B27118   8.359  36.568   7.669
 1900POPC   NC327119  13.206   5.944   9.401
 1900POPC   PO427120  13.903   5.749   9.473
 1900POPC   GL127121  13.655   5.769   9.098
 1900POPC   GL227122  13.300   5.666   8.995
 1900POPC   C1A27123  13.729   5.610   8.701
 1900POPC   D2A27124  13.676   5.452   8.302
 1900POPC   C3A27125  13.566   5.799   8.070
 1900POPC   C4A27126  13.741   5.955   7.727
 1900POPC   C1B27127  13.382   6.029   8.729
 1900POPC   C2B27128  13.262   6.112   8.314
 1900POPC   C3B27129  13.083   5.937   7.934
 1900POPC   C4B27130  13.219   5.538   7.776
 1901POPC   NC327131  26.198  13.961   9.396
 1901POPC   PO427132  26.556  13.438   9.452
 1901POPC   GL127133  26.148  13.527   9.156
 1901POPC   GL227134  25.822  13.455   8.999
 1901POPC   C1A27135  26.095  13.839   8.774
 1901POPC   D2A27136  26.167  13.865   8.322
 1901POPC   C3A27137  25.834  13.685   8.088
 1901POPC   C4A27138  25.828  13.761   7.663
 1901POPC   C1B27139  26.160  13.349   8.667
 1901POPC   C2B27140  26.320  13.393   8.258
 1901POPC   C3B27141  26.271  13.480   7.872
 1901POPC   C4B27142  25.969  13.264   7.687
 1902POPC   NC327143  16.889   0.807   9.412
 1902POPC   PO427144  16.510   0.242   9.479
 1902POPC   GL127145  16.636   0.382   9.095
 1902POPC   GL227146  16.978   0.384   9.133
 1902POPC   C1A27147  16.539   0.235   8.661
 1902POPC   D2A27148  16.515   0.528   8.286
 1902POPC   C3A27149  16.510   0.229   7.993
 1902POPC   C4A27150  16.692   0.152   7.601
 1902POPC   C1B27151  16.893   0.587   8.698
 1902POPC   C2B27152  16.994   0.731   8.272
 1902POPC   C3B27153  16.923   0.525   7.865
 1902POPC   C4B27154  17.088   0.476   7.413
 1903POPC   NC327155  23.037  24.735   9.689
 1903POPC   PO427156  23.246  24.119   9.446
 1903POPC   GL127157  23.038  24.365   9.089
 1903POPC   GL227158  22.892  24.706   9.106
 1903POPC   C1A27159  22.757  24.377   8.731
 1903POPC   D2A27160  22.567  24.652   8.419
 1903POPC   C3A27161  22.540  24.406   8.041
 1903POPC   C4A27162  22.575  24.523   7.638
 1903POPC   C1B27163  23.077  24.774   8.671
 1903POPC   C2B27164  23.215  24.501   8.333
 1903POPC   C3B27165  23.032  24.449   7.932
 1903POPC   C4B27166  23.087  24.601   7.527
 1904POPC   NC327167  42.935   9.291   9.333
 1904POPC   PO427168  43.268   8.725   9.147
 1904POPC   GL127169  43.189   8.883   8.807
 1904POPC   GL227170  42.878   8.983   8.915
 1904POPC   C1A27171  43.201   8.949   8.386
 1904POPC   D2A27172  42.802   9.040   8.263
 1904POPC   C3A27173  42.804   8.919   7.887
 1904POPC   C4A27174  43.215   8.704   7.797
 1904POPC   C1B27175  43.020   9.354   8.645
 1904POPC   C2B27176  43.076   9.448   8.197
 1904POPC   C3B27177  43.138   9.279   7.776
 1904POPC   C4B27178  43.204   9.275   7.279
 1905POPC   NC327179  43.503  43.013  10.159
 1905POPC   PO427180  43.853  43.067   9.564
 1905POPC   GL127181  43.769  43.097   9.167
 1905POPC   GL227182  44.119  43.057   9.103
 1905POPC   C1A27183  43.672  43.382   8.850
 1905POPC   D2A27184  43.933  43.394   8.532
 1905POPC   C3A27185  43.738  43.222   8.171
 1905POPC   C4A27186  43.762  43.293   7.726
 1905POPC   C1B27187  44.301  42.835   8.745
 1905POPC   C2B27188  44.192  43.000   8.336
 1905POPC   C3B27189  44.047  42.890   7.921
 1905POPC   C4B27190  44.001  42.905   7.444
 1906POPC   NC327191  15.286  43.675   9.616
 1906POPC   PO427192  15.005  44.142   9.433
 1906POPC   GL127193  15.173  44.025   9.055
 1906POPC   GL227194  15.285  43.699   9.116
 1906POPC   C1A27195  15.166  43.838   8.658
 1906POPC   D2A27196  15.215  43.672   8.299
 1906POPC   C3A27197  14.929  43.923   8.111
 1906POPC   C4A27198  14.960  43.875   7.728
 1906POPC   C1B27199  15.500  43.481   8.793
 1906POPC   C2B27200  15.551  43.274   8.396
 1906POPC   C3B27201  15.528  43.427   7.970
 1906POPC   C4B27202  15.410  43.649   7.578
 1907POPC   NC327203  27.990  29.315   9.434
 1907POPC   PO427204  27.343  28.965   9.522
 1907POPC   GL127205  27.472  29.215   9.170
 1907POPC   GL227206  27.193  29.420   9.092
 1907POPC   C1A27207  27.711  29.134   8.786
 1907POPC   D2A27208  27.843  29.361   8.413
 1907POPC   C3A27209  27.865  29.127   8.041
 1907POPC   C4A27210  27.819  29.327   7.647
 1907POPC   C1B27211  27.240  29.288   8.671
 1907POPC   C2B27212  27.411  29.076   8.332
 1907POPC   C3B27213  27.384  29.227   7.946
 1907POPC   C4B27214  27.328  29.550   7.712
 1908POPC   NC327215   8.560  30.822   9.396
 1908POPC   PO427216   7.895  30.489   9.547
 1908POPC   GL127217   8.174  30.556   9.170
 1908POPC   GL227218   8.089  30.832   8.965
 1908POPC   C1A27219   8.320  30.455   8.730
 1908POPC   D2A27220   8.169  30.785   8.388
 1908POPC   C3A27221   8.078  30.630   7.965
 1908POPC   C4A27222   8.016  30.766   7.533
 1908POPC   C1B27223   8.478  30.927   8.769
 1908POPC   C2B27224   8.700  30.749   8.453
 1908POPC   C3B27225   8.592  30.880   8.072
 1908POPC   C4B27226   8.522  30.691   7.683
 1909POPC   NC327227  25.854  43.551   9.414
 1909POPC   PO427228  26.274  44.066   9.703
 1909POPC   GL127229  26.135  43.961   9.307
 1909POPC   GL227230  26.225  44.223   9.202
 1909POPC   C1A27231  26.157  43.792   8.861
 1909POPC   D2A27232  25.847  43.740   8.528
 1909POPC   C3A27233  25.958  43.733   8.087
 1909POPC   C4A27234  25.679  43.898   7.784
 1909POPC   C1B27235  25.913  44.227   8.889
 1909POPC   C2B27236  26.096  44.197   8.478
 1909POPC   C3B27237  25.954  44.268   8.071
 1909POPC   C4B27238  26.077  44.295   7.645
 1910POPC   NC327239  16.213  40.689   9.450
 1910POPC   PO427240  15.611  40.985   9.517
 1910POPC   GL127241  15.822  40.892   9.145
 1910POPC   GL227242  16.124  41.065   9.111
 1910POPC   C1A27243  15.798  40.669   8.763
 1910POPC   D2A27244  15.875  40.866   8.373
 1910POPC   C3A27245  16.018  40.565   8.089
 1910POPC   C4A27246  15.975  40.703   7.683
 1910POPC   C1B27247  16.231  40.914   8.742
 1910POPC   C2B27248  16.406  40.995   8.361
 1910POPC   C3B27249  16.196  41.058   7.999
 1910POPC   C4B27250  16.286  41.194   7.589
 1911POPC   NC327251  40.279  17.068   9.471
 1911POPC   PO427252  39.717  16.579   9.348
 1911POPC   GL127253  39.941  16.533   9.015
 1911POPC   GL227254  40.166  16.796   9.065
 1911POPC   C1A27255  40.081  16.523   8.618
 1911POPC   D2A27256  39.958  16.717   8.265
 1911POPC   C3A27257  40.221  16.522   8.005
 1911POPC   C4A27258  40.046  16.342   7.690
 1911POPC   C1B27259  40.050  17.029   8.715
 1911POPC   C2B27260  40.277  17.098   8.366
 1911POPC   C3B27261  40.301  17.033   7.976
 1911POPC   C4B27262  40.107  16.879   7.636
 1912POPC   NC327263  29.125  38.914   9.697
 1912POPC   PO427264  28.703  39.343   9.488
 1912POPC   GL127265  29.001  39.205   9.181
 1912POPC   GL227266  29.227  38.925   9.158
 1912POPC   C1A27267  29.166  39.338   8.777
 1912POPC   D2A27268  29.225  39.465   8.373
 1912POPC   C3A27269  28.989  39.416   8.078
 1912POPC   C4A27270  29.130  39.480   7.696
 1912POPC   C1B27271  28.951  38.888   8.772
 1912POPC   C2B27272  29.130  38.962   8.352
 1912POPC   C3B27273  29.200  38.986   7.914
 1912POPC   C4B27274  28.807  39.073   7.724
 1913POPC   NC327275  37.520   1.720   9.453
 1913POPC   PO427276  38.134   2.014   9.585
 1913POPC   GL127277  37.867   1.992   9.190
 1913POPC   GL227278  37.530   2.163   9.152
 1913POPC   C1A27279  37.797   1.831   8.758
 1913POPC   D2A27280  37.487   1.758   8.427
 1913POPC   C3A27281  37.606   1.725   7.999
 1913POPC   C4A27282  37.957   1.663   7.714
 1913POPC   C1B27283  37.559   2.280   8.707
 1913POPC   C2B27284  37.531   2.236   8.242
 1913POPC   C3B27285  37.650   2.235   7.812
 1913POPC   C4B27286  37.429   2.341   7.453
 1914POPC   NC327287  21.272   7.394   9.525
 1914POPC   PO427288  21.725   7.805   9.408
 1914POPC   GL127289  21.494   7.535   9.065
 1914POPC   GL227290  21.157   7.357   9.040
 1914POPC   C1A27291  21.419   7.512   8.610
 1914POPC   D2A27292  21.177   7.699   8.260
 1914POPC   C3A27293  21.458   7.757   7.909
 1914POPC   C4A27294  21.684   7.387   7.848
 1914POPC   C1B27295  21.068   7.137   8.652
 1914POPC   C2B27296  21.101   7.050   8.218
 1914POPC   C3B27297  21.165   7.317   7.858
 1914POPC   C4B27298  20.946   7.571   7.525
 1915POPC   NC327299  35.677  11.428   9.504
 1915POPC   PO427300  35.007  11.116   9.519
 1915POPC   GL127301  35.245  11.248   9.208
 1915POPC   GL227302  35.433  10.955   9.165
 1915POPC   C1A27303  35.156  11.433   8.824
 1915POPC   D2A27304  35.391  11.454   8.445
 1915POPC   C3A27305  35.229  11.367   8.058
 1915POPC   C4A27306  35.073  11.257   7.670
 1915POPC   C1B27307  35.428  11.030   8.715
 1915POPC   C2B27308  35.462  10.954   8.280
 1915POPC   C3B27309  35.428  10.908   7.825
 1915POPC   C4B27310  35.281  10.858   7.387
 1916POPC   NC327311   9.058  44.276   9.637
 1916POPC   PO427312   9.091  43.622   9.544
 1916POPC   GL127313   9.024  43.828   9.136
 1916POPC   GL227314   8.782  43.603   9.071
 1916POPC   C1A27315   8.826  43.946   8.694
 1916POPC   D2A27316   8.737  44.326   8.421
 1916POPC   C3A27317   8.877  44.301   7.966
 1916POPC   C4A27318   9.063  43.930   7.744
 1916POPC   C1B27319   8.431  43.586   8.791
 1916POPC   C2B27320   8.449  43.484   8.346
 1916POPC   C3B27321   8.569  43.379   7.943
 1916POPC   C4B27322   8.854  43.408   7.591
 1917POPC   NC327323  39.737  21.885   9.613
 1917POPC   PO427324  40.261  22.329   9.509
 1917POPC   GL127325  40.343  22.145   9.124
 1917POPC   GL227326  40.098  21.897   9.147
 1917POPC   C1A27327  40.295  22.266   8.699
 1917POPC   D2A27328  39.973  22.170   8.416
 1917POPC   C3A27329  40.049  22.329   8.017
 1917POPC   C4A27330  40.237  22.377   7.638
 1917POPC   C1B27331  39.925  21.708   8.764
 1917POPC   C2B27332  39.664  21.763   8.393
 1917POPC   C3B27333  39.872  21.841   8.002
 1917POPC   C4B27334  39.902  21.951   7.558
 1918POPC   NC327335  22.893  10.260   9.490
 1918POPC   PO427336  23.028  10.875   9.624
 1918POPC   GL127337  23.138  10.633   9.188
 1918POPC   GL227338  23.173  10.238   9.081
 1918POPC   C1A27339  22.962  10.709   8.746
 1918POPC   D2A27340  22.669  10.892   8.387
 1918POPC   C3A27341  22.606  10.673   7.957
 1918POPC   C4A27342  22.820  10.303   7.743
 1918POPC   C1B27343  22.889  10.206   8.733
 1918POPC   C2B27344  22.830  10.398   8.332
 1918POPC   C3B27345  23.116  10.609   8.046
 1918POPC   C4B27346  23.314  10.436   7.709
 1919POPC   NC327347  12.256  41.379   9.334
 1919POPC   PO427348  11.726  41.847   9.344
 1919POPC   GL127349  11.987  41.702   9.060
 1919POPC   GL227350  11.735  41.592   8.853
 1919POPC   C1A27351  12.345  41.658   8.764
 1919POPC   D2A27352  12.321  41.501   8.369
 1919POPC   C3A27353  12.306  41.790   8.057
 1919POPC   C4A27354  12.180  41.628   7.670
 1919POPC   C1B27355  11.989  41.273   8.676
 1919POPC   C2B27356  11.947  41.050   8.332
 1919POPC   C3B27357  11.951  41.290   7.995
 1919POPC   C4B27358  11.847  41.148   7.618
 1920POPC   NC327359  33.473  18.217   9.620
 1920POPC   PO427360  34.047  18.014   9.631
 1920POPC   GL127361  33.849  18.190   9.242
 1920POPC   GL227362  33.555  18.021   9.137
 1920POPC   C1A27363  33.963  18.302   8.812
 1920POPC   D2A27364  33.894  18.095   8.415
 1920POPC   C3A27365  34.112  18.299   8.066
 1920POPC   C4A27366  34.112  18.347   7.663
 1920POPC   C1B27367  33.454  18.216   8.755
 1920POPC   C2B27368  33.397  18.386   8.369
 1920POPC   C3B27369  33.583  18.208   8.023
 1920POPC   C4B27370  33.595  18.348   7.646
 1921POPC   NC327371  13.060  33.995   9.652
 1921POPC   PO427372  13.172  33.333   9.547
 1921POPC   GL127373  13.041  33.699   9.222
 1921POPC   GL227374  12.690  33.736   9.199
 1921POPC   C1A27375  12.901  33.859   8.745
 1921POPC   D2A27376  13.067  33.872   8.280
 1921POPC   C3A27377  12.854  33.852   7.867
 1921POPC   C4A27378  13.037  33.937   7.452
 1921POPC   C1B27379  12.573  33.460   8.833
 1921POPC   C2B27380  12.391  33.403   8.413
 1921POPC   C3B27381  12.476  33.461   7.947
 1921POPC   C4B27382  12.676  33.502   7.514
 1922POPC   NC327383   1.879  10.245   9.545
 1922POPC   PO427384   2.409  10.651   9.545
 1922POPC   GL127385   2.296  10.340   9.228
 1922POPC   GL227386   1.999  10.508   9.138
 1922POPC   C1A27387   2.334  10.513   8.770
 1922POPC   D2A27388   2.064  10.542   8.425
 1922POPC   C3A27389   2.143  10.771   8.059
 1922POPC   C4A27390   2.067  10.600   7.649
 1922POPC   C1B27391   1.885  10.812   8.836
 1922POPC   C2B27392   1.660  10.855   8.439
 1922POPC   C3B27393   1.640  10.617   8.105
 1922POPC   C4B27394   1.689  10.856   7.779
 1923POPC   NC327395  23.687  20.340   9.372
 1923POPC   PO427396  23.628  20.977   9.490
 1923POPC   GL127397  23.645  20.800   9.116
 1923POPC   GL227398  24.008  20.754   9.139
 1923POPC   C1A27399  23.713  20.872   8.708
 1923POPC   D2A27400  24.023  20.786   8.397
 1923POPC   C3A27401  23.796  20.899   8.089
 1923POPC   C4A27402  23.693  20.767   7.665
 1923POPC   C1B27403  23.999  20.457   8.792
 1923POPC   C2B27404  23.660  20.440   8.476
 1923POPC   C3B27405  23.661  20.407   8.036
 1923POPC   C4B27406  23.541  20.150   7.715
 1924POPC   NC327407  34.048  27.248   9.481
 1924POPC   PO427408  34.763  27.423   9.503
 1924POPC   GL127409  34.910  27.595   9.119
 1924POPC   GL227410  35.023  27.239   9.043
 1924POPC   C1A27411  34.869  27.573   8.691
 1924POPC   D2A27412  34.664  27.391   8.367
 1924POPC   C3A27413  34.690  27.559   7.966
 1924POPC   C4A27414  34.381  27.611   7.680
 1924POPC   C1B27415  34.592  27.153   8.847
 1924POPC   C2B27416  34.472  26.927   8.436
 1924POPC   C3B27417  34.407  27.089   7.994
 1924POPC   C4B27418  34.386  27.129   7.530
 1925POPC   NC327419  25.125  44.193   9.467
 1925POPC   PO427420  25.370  43.542   9.369
 1925POPC   GL127421  25.176  43.832   9.072
 1925POPC   GL227422  25.381  44.171   9.023
 1925POPC   C1A27423  25.166  43.637   8.653
 1925POPC   D2A27424  24.977  43.510   8.269
 1925POPC   C3A27425  25.180  43.698   7.893
 1925POPC   C4A27426  25.245  43.826   7.446
 1925POPC   C1B27427  25.088  44.150   8.666
 1925POPC   C2B27428  25.040  44.075   8.223
 1925POPC   C3B27429  25.121  44.193   7.768
 1925POPC   C4B27430  25.235  44.336   7.329
 1926POPC   NC327431  40.383  25.920   9.364
 1926POPC   PO427432  39.860  26.250   9.695
 1926POPC   GL127433  39.951  26.250   9.247
 1926POPC   GL227434  39.894  25.955   9.178
 1926POPC   C1A27435  39.852  26.305   8.787
 1926POPC   D2A27436  39.906  26.133   8.359
 1926POPC   C3A27437  39.961  26.304   7.941
 1926POPC   C4A27438  40.020  26.178   7.498
 1926POPC   C1B27439  40.027  25.774   8.773
 1926POPC   C2B27440  40.079  25.655   8.330
 1926POPC   C3B27441  39.992  25.790   7.891
 1926POPC   C4B27442  39.884  25.690   7.440
 1927POPC   NC327443   8.254  13.184   9.435
 1927POPC   PO427444   7.999  12.554   9.316
 1927POPC   GL127445   8.178  12.830   9.063
 1927POPC   GL227446   8.548  12.800   9.154
 1927POPC   C1A27447   8.011  12.978   8.676
 1927POPC   D2A27448   7.874  13.175   8.298
 1927POPC   C3A27449   8.087  13.130   7.914
 1927POPC   C4A27450   7.909  13.122   7.441
 1927POPC   C1B27451   8.537  13.068   8.781
 1927POPC   C2B27452   8.422  13.115   8.351
 1927POPC   C3B27453   8.612  12.939   7.987
 1927POPC   C4B27454   8.445  12.649   7.725
 1928POPC   NC327455  26.439  39.845   9.821
 1928POPC   PO427456  26.745  40.232   9.362
 1928POPC   GL127457  27.023  40.172   9.027
 1928POPC   GL227458  27.082  39.851   9.139
 1928POPC   C1A27459  26.894  40.302   8.626
 1928POPC   D2A27460  26.482  40.209   8.411
 1928POPC   C3A27461  26.397  40.333   8.006
 1928POPC   C4A27462  26.597  40.261   7.627
 1928POPC   C1B27463  26.856  39.753   8.754
 1928POPC   C2B27464  26.860  39.874   8.360
 1928POPC   C3B27465  26.915  40.109   8.020
 1928POPC   C4B27466  26.924  39.846   7.688
 1929POPC   NC327467  35.963   0.277   9.583
 1929POPC   PO427468  36.675   0.370   9.552
 1929POPC   GL127469  36.305   0.310   9.224
 1929POPC   GL227470  36.122   0.682   9.173
 1929POPC   C1A27471  36.090   0.282   8.836
 1929POPC   D2A27472  36.063   0.515   8.459
 1929POPC   C3A27473  35.839   0.405   8.119
 1929POPC   C4A27474  36.092   0.422   7.757
 1929POPC   C1B27475  36.243   0.877   8.759
 1929POPC   C2B27476  36.514   0.787   8.403
 1929POPC   C3B27477  36.378   0.807   7.962
 1929POPC   C4B27478  36.350   0.860   7.506
 1930POPC   NC327479  14.004   5.361   9.245
 1930POPC   PO427480  14.272   4.998   9.752
 1930POPC   GL127481  14.381   4.960   9.265
 1930POPC   GL227482  14.653   5.214   9.123
 1930POPC   C1A27483  14.387   4.959   8.792
 1930POPC   D2A27484  14.504   4.761   8.416
 1930POPC   C3A27485  14.446   5.025   8.038
 1930POPC   C4A27486  14.370   4.909   7.588
 1930POPC   C1B27487  14.532   5.475   8.746
 1930POPC   C2B27488  14.187   5.485   8.443
 1930POPC   C3B27489  14.186   5.565   8.001
 1930POPC   C4B27490  14.428   5.399   7.652
 1931POPC   NC327491  24.029  27.705   9.372
 1931POPC   PO427492  24.759  27.597   9.490
 1931POPC   GL127493  24.494  27.649   9.162
 1931POPC   GL227494  24.545  27.295   9.011
 1931POPC   C1A27495  24.458  27.778   8.755
 1931POPC   D2A27496  24.665  27.519   8.460
 1931POPC   C3A27497  24.542  27.610   8.032
 1931POPC   C4A27498  24.497  27.833   7.651
 1931POPC   C1B27499  24.167  27.392   8.802
 1931POPC   C2B27500  24.152  27.543   8.381
 1931POPC   C3B27501  24.099  27.350   7.980
 1931POPC   C4B27502  24.302  27.353   7.599
 1932POPC   NC327503  23.184   5.580   9.696
 1932POPC   PO427504  22.531   5.626   9.502
 1932POPC   GL127505  22.731   5.592   9.142
 1932POPC   GL227506  23.007   5.725   9.233
 1932POPC   C1A27507  22.592   5.561   8.750
 1932POPC   D2A27508  22.702   5.779   8.414
 1932POPC   C3A27509  22.733   5.610   8.060
 1932POPC   C4A27510  22.810   5.840   7.675
 1932POPC   C1B27511  22.991   5.908   8.824
 1932POPC   C2B27512  23.231   5.821   8.469
 1932POPC   C3B27513  23.150   5.903   8.047
 1932POPC   C4B27514  23.277   6.040   7.631
 1933POPC   NC327515  13.925  34.181   9.529
 1933POPC   PO427516  14.601  34.316   9.648
 1933POPC   GL127517  14.502  34.645   9.290
 1933POPC   GL227518  14.155  34.842   9.258
 1933POPC   C1A27519  14.676  34.631   8.859
 1933POPC   D2A27520  14.703  34.365   8.473
 1933POPC   C3A27521  14.571  34.548   8.077
 1933POPC   C4A27522  14.691  34.537   7.630
 1933POPC   C1B27523  14.156  34.538   8.926
 1933POPC   C2B27524  14.194  34.517   8.491
 1933POPC   C3B27525  14.034  34.471   8.074
 1933POPC   C4B27526  14.212  34.667   7.700
 1934POPC   NC327527  36.490  36.178   9.559
 1934POPC   PO427528  35.969  36.482   9.984
 1934POPC   GL127529  35.979  36.284   9.504
 1934POPC   GL227530  35.798  36.537   9.320
 1934POPC   C1A27531  36.000  36.133   9.024
 1934POPC   D2A27532  36.277  36.323   8.650
 1934POPC   C3A27533  36.263  36.269   8.175
 1934POPC   C4A27534  36.397  35.893   7.905
 1934POPC   C1B27535  35.889  36.597   8.895
 1934POPC   C2B27536  35.764  36.351   8.523
 1934POPC   C3B27537  35.729  36.458   8.087
 1934POPC   C4B27538  35.954  36.240   7.767
 1935POPC   NC327539  30.089  28.560   9.551
 1935POPC   PO427540  30.180  29.282   9.444
 1935POPC   GL127541  30.050  29.178   9.083
 1935POPC   GL227542  30.098  28.829   9.119
 1935POPC   C1A27543  30.040  29.152   8.669
 1935POPC   D2A27544  29.997  29.075   8.280
 1935POPC   C3A27545  29.967  29.187   7.936
 1935POPC   C4A27546  29.653  29.197   7.754
 1935POPC   C1B27547  30.370  28.735   8.807
 1935POPC   C2B27548  30.445  28.911   8.442
 1935POPC   C3B27549  30.309  28.752   8.050
 1935POPC   C4B27550  30.121  28.773   7.679
 1936POPC   NC327551   1.804  13.112   9.327
 1936POPC   PO427552   1.842  13.765   9.574
 1936POPC   GL127553   1.780  13.776   9.135
 1936POPC   GL227554   2.014  13.521   9.037
 1936POPC   C1A27555   1.812  13.799   8.666
 1936POPC   D2A27556   1.915  13.418   8.432
 1936POPC   C3A27557   1.839  13.466   8.005
 1936POPC   C4A27558   1.955  13.833   7.771
 1936POPC   C1B27559   2.296  13.844   8.803
 1936POPC   C2B27560   2.437  13.813   8.362
 1936POPC   C3B27561   2.414  13.974   7.919
 1936POPC   C4B27562   2.390  13.803   7.466
 1937POPC   NC327563  10.613  10.176   9.431
 1937POPC   PO427564  10.205  10.684   9.550
 1937POPC   GL127565  10.413  10.641   9.157
 1937POPC   GL227566  10.773  10.552   9.149
 1937POPC   C1A27567  10.397  10.344   8.824
 1937POPC   D2A27568  10.427  10.178   8.429
 1937POPC   C3A27569  10.415  10.498   8.133
 1937POPC   C4A27570  10.516  10.305   7.770
 1937POPC   C1B27571  10.764  10.738   8.758
 1937POPC   C2B27572  10.621  10.912   8.405
 1937POPC   C3B27573  10.807  10.877   8.045
 1937POPC   C4B27574  10.642  10.764   7.709
 1938POPC   NC327575   8.045  33.222   9.570
 1938POPC   PO427576   8.574  32.776   9.458
 1938POPC   GL127577   8.308  33.043   9.153
 1938POPC   GL227578   7.933  32.957   9.143
 1938POPC   C1A27579   8.239  32.986   8.715
 1938POPC   D2A27580   8.198  32.719   8.340
 1938POPC   C3A27581   8.415  32.926   7.990
 1938POPC   C4A27582   8.302  33.363   7.922
 1938POPC   C1B27583   7.778  33.186   8.768
 1938POPC   C2B27584   7.924  33.202   8.353
 1938POPC   C3B27585   7.917  33.007   7.970
 1938POPC   C4B27586   7.997  32.595   7.864
 1939POPC   NC327587  18.714  37.608   9.859
 1939POPC   PO427588  19.366  37.526   9.625
 1939POPC   GL127589  19.147  37.595   9.194
 1939POPC   GL227590  18.850  37.361   9.118
 1939POPC   C1A27591  19.186  37.489   8.740
 1939POPC   D2A27592  19.459  37.497   8.424
 1939POPC   C3A27593  19.271  37.574   8.064
 1939POPC   C4A27594  19.464  37.488   7.696
 1939POPC   C1B27595  18.788  37.772   8.868
 1939POPC   C2B27596  18.960  37.960   8.479
 1939POPC   C3B27597  18.884  37.924   8.030
 1939POPC   C4B27598  18.906  37.671   7.665
 1940POPC   NC327599  23.609  10.117   9.630
 1940POPC   PO427600  23.872  10.784   9.601
 1940POPC   GL127601  23.737  10.698   9.208
 1940POPC   GL227602  23.651  10.386   9.201
 1940POPC   C1A27603  23.998  10.492   8.845
 1940POPC   D2A27604  24.051  10.556   8.415
 1940POPC   C3A27605  23.732  10.845   8.267
 1940POPC   C4A27606  23.595  10.813   7.838
 1940POPC   C1B27607  23.470  10.540   8.806
 1940POPC   C2B27608  23.354  10.377   8.443
 1940POPC   C3B27609  23.648  10.376   8.112
 1940POPC   C4B27610  23.824  10.324   7.699
 1941POPC   NC327611   0.967  38.067   9.335
 1941POPC   PO427612   0.379  37.812   9.494
 1941POPC   GL127613   0.660  37.700   9.173
 1941POPC   GL227614   0.411  37.828   8.971
 1941POPC   C1A27615   0.727  37.459   8.813
 1941POPC   D2A27616   0.651  37.634   8.427
 1941POPC   C3A27617   0.553  37.333   8.145
 1941POPC   C4A27618   0.480  37.285   7.728
 1941POPC   C1B27619   0.021  38.006   8.836
 1941POPC   C2B27620  44.890  38.046   8.414
 1941POPC   C3B27621   0.118  38.062   8.017
 1941POPC   C4B27622   0.493  37.789   7.888
 1942POPC   NC327623  17.042  34.751   9.482
 1942POPC   PO427624  16.500  34.403   9.387
 1942POPC   GL127625  16.820  34.548   9.081
 1942POPC   GL227626  16.729  34.912   9.108
 1942POPC   C1A27627  16.953  34.344   8.709
 1942POPC   D2A27628  16.722  34.409   8.363
 1942POPC   C3A27629  16.899  34.462   7.982
 1942POPC   C4A27630  16.495  34.352   7.804
 1942POPC   C1B27631  16.543  34.965   8.699
 1942POPC   C2B27632  16.728  34.918   8.278
 1942POPC   C3B27633  16.572  34.867   7.864
 1942POPC   C4B27634  16.643  34.960   7.451
 1943POPC   NC327635   1.389  41.967   9.418
 1943POPC   PO427636   0.775  42.180   9.508
 1943POPC   GL127637   1.056  42.246   9.158
 1943POPC   GL227638   1.051  42.587   9.118
 1943POPC   C1A27639   1.113  42.143   8.713
 1943POPC   D2A27640   1.008  42.340   8.307
 1943POPC   C3A27641   1.244  42.224   7.926
 1943POPC   C4A27642   1.441  42.052   7.552
 1943POPC   C1B27643   1.271  42.637   8.723
 1943POPC   C2B27644   1.501  42.399   8.419
 1943POPC   C3B27645   1.641  42.520   8.003
 1943POPC   C4B27646   1.585  42.545   7.552
 1944POPC   NC327647  14.915  34.668   9.594
 1944POPC   PO427648  15.058  34.140   9.289
 1944POPC   GL127649  15.175  34.506   9.072
 1944POPC   GL227650  15.258  34.806   9.233
 1944POPC   C1A27651  15.155  34.579   8.641
 1944POPC   D2A27652  15.339  34.562   8.259
 1944POPC   C3A27653  15.093  34.475   7.934
 1944POPC   C4A27654  15.191  34.416   7.509
 1944POPC   C1B27655  15.049  35.020   8.889
 1944POPC   C2B27656  15.199  35.081   8.479
 1944POPC   C3B27657  15.103  34.977   8.064
 1944POPC   C4B27658  15.048  34.905   7.639
 1945POPC   NC327659  40.640  10.743   9.487
 1945POPC   PO427660  40.827  10.091   9.510
 1945POPC   GL127661  40.945  10.417   9.173
 1945POPC   GL227662  41.046  10.765   9.150
 1945POPC   C1A27663  41.057  10.480   8.721
 1945POPC   D2A27664  40.839  10.701   8.385
 1945POPC   C3A27665  40.901  10.646   7.952
 1945POPC   C4A27666  40.710  10.355   7.690
 1945POPC   C1B27667  40.683  10.849   8.851
 1945POPC   C2B27668  40.455  11.023   8.491
 1945POPC   C3B27669  40.392  10.949   8.057
 1945POPC   C4B27670  40.390  10.771   7.666
 1946POPC   NC327671  14.616  27.876   9.444
 1946POPC   PO427672  15.318  27.737   9.533
 1946POPC   GL127673  15.217  27.569   9.160
 1946POPC   GL227674  14.909  27.476   9.273
 1946POPC   C1A27675  15.364  27.528   8.735
 1946POPC   D2A27676  15.582  27.371   8.374
 1946POPC   C3A27677  15.318  27.327   8.022
 1946POPC   C4A27678  15.132  27.647   7.780
 1946POPC   C1B27679  14.871  27.408   8.838
 1946POPC   C2B27680  14.956  27.500   8.416
 1946POPC   C3B27681  14.698  27.606   8.099
 1946POPC   C4B27682  14.767  27.297   7.829
 1947POPC   NC327683  22.048   8.908   9.552
 1947POPC   PO427684  22.721   9.118   9.720
 1947POPC   GL127685  22.468   8.911   9.287
 1947POPC   GL227686  22.371   9.100   9.086
 1947POPC   C1A27687  22.021   8.858   8.877
 1947POPC   D2A27688  21.796   8.937   8.422
 1947POPC   C3A27689  21.926   9.065   7.982
 1947POPC   C4A27690  22.276   8.919   7.750
 1947POPC   C1B27691  22.439   9.042   8.656
 1947POPC   C2B27692  22.372   9.091   8.238
 1947POPC   C3B27693  22.496   9.344   7.909
 1947POPC   C4B27694  22.549   9.244   7.475
 1948POPC   NC327695  11.588  23.008   9.735
 1948POPC   PO427696  11.041  22.803   9.427
 1948POPC   GL127697  11.081  22.881   9.003
 1948POPC   GL227698  11.092  23.203   9.033
 1948POPC   C1A27699  11.072  22.965   8.526
 1948POPC   D2A27700  10.951  22.727   8.126
 1948POPC   C3A27701  11.286  22.651   7.827
 1948POPC   C4A27702  11.405  22.664   7.414
 1948POPC   C1B27703  11.445  23.424   8.795
 1948POPC   C2B27704  11.389  23.409   8.364
 1948POPC   C3B27705  11.305  23.112   8.052
 1948POPC   C4B27706  11.371  23.121   7.602
 1949POPC   NC327707  43.464  22.488   9.437
 1949POPC   PO427708  43.250  21.838   9.592
 1949POPC   GL127709  43.018  21.828   9.175
 1949POPC   GL227710  42.980  22.187   9.094
 1949POPC   C1A27711  42.795  21.850   8.769
 1949POPC   D2A27712  42.860  22.153   8.406
 1949POPC   C3A27713  42.964  21.926   8.036
 1949POPC   C4A27714  43.349  21.940   7.780
 1949POPC   C1B27715  43.039  22.495   8.784
 1949POPC   C2B27716  43.231  22.614   8.421
 1949POPC   C3B27717  43.131  22.476   8.020
 1949POPC   C4B27718  43.400  22.435   7.672
 1950POPC   NC327719  24.596   6.301   9.419
 1950POPC   PO427720  24.921   6.896   9.452
 1950POPC   GL127721  24.647   6.800   9.086
 1950POPC   GL227722  24.440   6.512   8.996
 1950POPC   C1A27723  24.702   6.814   8.628
 1950POPC   D2A27724  25.009   6.890   8.286
 1950POPC   C3A27725  24.753   6.872   7.929
 1950POPC   C4A27726  24.480   6.529   7.833
 1950POPC   C1B27727  24.199   6.754   8.732
 1950POPC   C2B27728  24.260   6.976   8.339
 1950POPC   C3B27729  24.146   6.900   7.915
 1950POPC   C4B27730  24.072   6.648   7.537
 1951POPC   NC327731   8.114   8.635   9.626
 1951POPC   PO427732   8.355   9.221   9.655
 1951POPC   GL127733   8.170   9.041   9.286
 1951POPC   GL227734   8.393   8.774   9.212
 1951POPC   C1A27735   8.043   9.012   8.846
 1951POPC   D2A27736   8.173   8.798   8.472
 1951POPC   C3A27737   8.126   9.041   8.069
 1951POPC   C4A27738   8.233   9.233   7.647
 1951POPC   C1B27739   8.491   8.517   8.872
 1951POPC   C2B27740   8.520   8.410   8.451
 1951POPC   C3B27741   8.375   8.569   8.067
 1951POPC   C4B27742   8.275   8.738   7.695
 1952POPC   NC327743  34.969  36.065   9.443
 1952POPC   PO427744  34.348  36.043   9.521
 1952POPC   GL127745  34.561  35.981   9.151
 1952POPC   GL227746  34.524  36.338   9.108
 1952POPC   C1A27747  34.793  36.037   8.736
 1952POPC   D2A27748  34.857  35.781   8.338
 1952POPC   C3A27749  34.795  36.063   8.003
 1952POPC   C4A27750  34.760  36.256   7.615
 1952POPC   C1B27751  34.199  36.512   8.819
 1952POPC   C2B27752  34.176  36.481   8.348
 1952POPC   C3B27753  34.300  36.285   7.914
 1952POPC   C4B27754  34.305  36.329   7.415
 1953POPC   NC327755  41.161  33.997   9.482
 1953POPC   PO427756  41.745  33.643   9.562
 1953POPC   GL127757  41.514  33.707   9.202
 1953POPC   GL227758  41.334  33.407   9.170
 1953POPC   C1A27759  41.405  33.941   8.827
 1953POPC   D2A27760  41.497  34.184   8.451
 1953POPC   C3A27761  41.434  34.050   8.034
 1953POPC   C4A27762  41.139  33.960   7.704
 1953POPC   C1B27763  41.518  33.443   8.772
 1953POPC   C2B27764  41.546  33.650   8.393
 1953POPC   C3B27765  41.574  33.549   7.994
 1953POPC   C4B27766  41.397  33.532   7.568
 1954POPC   NC327767   4.853  31.851   9.572
 1954POPC   PO427768   5.260  32.338   9.450
 1954POPC   GL127769   5.276  32.318   9.056
 1954POPC   GL227770   5.369  31.964   9.091
 1954POPC   C1A27771   5.081  32.155   8.686
 1954POPC   D2A27772   5.181  31.983   8.293
 1954POPC   C3A27773   5.013  32.278   7.981
 1954POPC   C4A27774   5.001  32.272   7.537
 1954POPC   C1B27775   5.588  32.151   8.708
 1954POPC   C2B27776   5.532  32.376   8.348
 1954POPC   C3B27777   5.521  32.179   7.940
 1954POPC   C4B27778   5.528  31.849   7.716
 1955POPC   NC327779   9.045  32.572   9.541
 1955POPC   PO427780   8.621  31.906   9.563
 1955POPC   GL127781   8.809  32.038   9.226
 1955POPC   GL227782   8.583  31.819   9.071
 1955POPC   C1A27783   8.810  32.365   8.929
 1955POPC   D2A27784   9.066  32.462   8.593
 1955POPC   C3A27785   8.978  32.287   8.216
 1955POPC   C4A27786   9.086  32.412   7.821
 1955POPC   C1B27787   8.844  31.896   8.732
 1955POPC   C2B27788   8.934  31.732   8.383
 1955POPC   C3B27789   9.039  31.830   8.001
 1955POPC   C4B27790   8.749  32.037   7.769
 1956POPC   NC327791   7.802  10.163   9.414
 1956POPC   PO427792   7.443   9.621   9.563
 1956POPC   GL127793   7.416   9.779   9.123
 1956POPC   GL227794   7.668   9.943   8.959
 1956POPC   C1A27795   7.200   9.993   8.761
 1956POPC   D2A27796   7.114   9.835   8.412
 1956POPC   C3A27797   7.225  10.003   8.041
 1956POPC   C4A27798   7.478   9.839   7.710
 1956POPC   C1B27799   7.641   9.787   8.521
 1956POPC   C2B27800   7.846   9.534   8.177
 1956POPC   C3B27801   7.968   9.669   7.726
 1956POPC   C4B27802   7.931   9.483   7.289
 1957POPC   NC327803  34.093  41.770   9.467
 1957POPC   PO427804  33.509  41.544   9.649
 1957POPC   GL127805  33.685  41.520   9.258
 1957POPC   GL227806  33.491  41.240   9.172
 1957POPC   C1A27807  33.869  41.714   8.854
 1957POPC   D2A27808  33.908  41.498   8.464
 1957POPC   C3A27809  34.050  41.648   8.096
 1957POPC   C4A27810  34.021  41.537   7.696
 1957POPC   C1B27811  33.704  41.196   8.827
 1957POPC   C2B27812  33.503  41.200   8.441
 1957POPC   C3B27813  33.670  41.319   8.027
 1957POPC   C4B27814  33.656  41.162   7.603
 1958POPC   NC327815  26.573  10.466   9.673
 1958POPC   PO427816  27.017  11.035   9.650
 1958POPC   GL127817  26.844  10.639   9.270
 1958POPC   GL227818  26.642  10.353   9.193
 1958POPC   C1A27819  27.073  10.426   8.923
 1958POPC   D2A27820  27.172  10.251   8.533
 1958POPC   C3A27821  27.153  10.390   8.100
 1958POPC   C4A27822  27.124  10.156   7.701
 1958POPC   C1B27823  26.600  10.553   8.799
 1958POPC   C2B27824  26.569  10.748   8.410
 1958POPC   C3B27825  26.620  10.493   8.074
 1958POPC   C4B27826  26.621  10.271   7.738
 1959POPC   NC327827   2.123  20.372   9.363
 1959POPC   PO427828   1.688  20.876   9.487
 1959POPC   GL127829   1.782  20.623   9.102
 1959POPC   GL227830   2.059  20.865   9.096
 1959POPC   C1A27831   1.990  20.435   8.717
 1959POPC   D2A27832   2.022  20.325   8.268
 1959POPC   C3A27833   1.668  20.509   8.011
 1959POPC   C4A27834   1.827  20.366   7.638
 1959POPC   C1B27835   1.867  20.938   8.702
 1959POPC   C2B27836   1.952  20.829   8.289
 1959POPC   C3B27837   2.098  20.749   7.843
 1959POPC   C4B27838   2.067  20.967   7.402
 1960POPC   NC327839   2.482  12.673   9.397
 1960POPC   PO427840   1.863  12.718   9.583
 1960POPC   GL127841   2.027  12.655   9.152
 1960POPC   GL227842   1.705  12.647   9.053
 1960POPC   C1A27843   2.053  12.900   8.744
 1960POPC   D2A27844   1.904  12.915   8.349
 1960POPC   C3A27845   2.133  13.025   8.022
 1960POPC   C4A27846   1.950  13.086   7.653
 1960POPC   C1B27847   1.479  12.490   8.686
 1960POPC   C2B27848   1.523  12.612   8.295
 1960POPC   C3B27849   1.827  12.474   8.038
 1960POPC   C4B27850   2.086  12.613   7.737
 1961POPC   NC327851  34.646  19.395   9.543
 1961POPC   PO427852  34.497  20.072   9.586
 1961POPC   GL127853  34.435  19.928   9.182
 1961POPC   GL227854  34.296  19.628   9.207
 1961POPC   C1A27855  34.343  20.003   8.754
 1961POPC   D2A27856  34.650  19.841   8.462
 1961POPC   C3A27857  34.499  19.825   8.102
 1961POPC   C4A27858  34.371  19.939   7.690
 1961POPC   C1B27859  34.480  19.520   8.815
 1961POPC   C2B27860  34.623  19.291   8.467
 1961POPC   C3B27861  34.548  19.283   8.024
 1961POPC   C4B27862  34.726  19.574   7.734
 1962POPC   NC327863  37.165  43.309   9.534
 1962POPC   PO427864  36.561  42.940   9.700
 1962POPC   GL127865  36.741  43.112   9.280
 1962POPC   GL227866  37.063  42.950   9.168
 1962POPC   C1A27867  36.854  43.278   8.840
 1962POPC   D2A27868  36.913  43.131   8.379
 1962POPC   C3A27869  36.903  43.358   7.966
 1962POPC   C4A27870  36.841  43.094   7.581
 1962POPC   C1B27871  37.115  42.827   8.749
 1962POPC   C2B27872  36.962  42.622   8.374
 1962POPC   C3B27873  36.774  42.622   7.969
 1962POPC   C4B27874  36.899  42.478   7.565
 1963POPC   NC327875   8.004  41.979   9.503
 1963POPC   PO427876   8.298  41.414   9.551
 1963POPC   GL127877   8.211  41.541   9.124
 1963POPC   GL227878   7.908  41.717   9.099
 1963POPC   C1A27879   8.371  41.419   8.717
 1963POPC   D2A27880   8.630  41.654   8.444
 1963POPC   C3A27881   8.651  41.455   8.079
 1963POPC   C4A27882   8.344  41.205   7.852
 1963POPC   C1B27883   7.668  41.870   8.767
 1963POPC   C2B27884   7.520  41.834   8.351
 1963POPC   C3B27885   7.797  41.900   8.009
 1963POPC   C4B27886   8.117  41.659   7.852
 1964POPC   NC327887  18.271  24.900   9.981
 1964POPC   PO427888  18.063  25.459   9.584
 1964POPC   GL127889  18.031  25.398   9.180
 1964POPC   GL227890  18.391  25.320   9.196
 1964POPC   C1A27891  18.037  25.122   8.837
 1964POPC   D2A27892  17.984  25.017   8.421
 1964POPC   C3A27893  18.153  25.359   8.166
 1964POPC   C4A27894  18.209  25.374   7.750
 1964POPC   C1B27895  18.632  25.155   8.889
 1964POPC   C2B27896  18.489  25.185   8.503
 1964POPC   C3B27897  18.633  25.155   8.089
 1964POPC   C4B27898  18.658  25.529   7.884
 1965POPC   NC327899   7.233  38.838   9.602
 1965POPC   PO427900   7.747  39.302   9.445
 1965POPC   GL127901   7.531  39.304   9.119
 1965POPC   GL227902   7.240  39.206   9.247
 1965POPC   C1A27903   7.507  39.394   8.705
 1965POPC   D2A27904   7.643  39.045   8.528
 1965POPC   C3A27905   7.628  39.101   8.110
 1965POPC   C4A27906   7.799  39.171   7.707
 1965POPC   C1B27907   7.183  39.027   8.856
 1965POPC   C2B27908   7.140  39.072   8.442
 1965POPC   C3B27909   7.151  39.374   8.141
 1965POPC   C4B27910   7.253  39.177   7.770
 1966POPC   NC327911  28.255  30.012   9.560
 1966POPC   PO427912  28.859  30.146   9.437
 1966POPC   GL127913  28.603  29.896   9.135
 1966POPC   GL227914  28.205  29.853   9.103
 1966POPC   C1A27915  28.545  29.791   8.747
 1966POPC   D2A27916  28.267  29.624   8.519
 1966POPC   C3A27917  28.295  29.721   8.099
 1966POPC   C4A27918  28.585  29.891   7.785
 1966POPC   C1B27919  27.879  30.035   8.901
 1966POPC   C2B27920  27.911  29.982   8.463
 1966POPC   C3B27921  27.981  30.114   8.036
 1966POPC   C4B27922  28.107  29.862   7.634
 1967POPC   NC327923  14.033  33.205   9.715
 1967POPC   PO427924  14.601  32.885   9.903
 1967POPC   GL127925  14.518  32.947   9.427
 1967POPC   GL227926  14.155  32.908   9.284
 1967POPC   C1A27927  14.566  33.054   8.965
 1967POPC   D2A27928  14.642  33.191   8.508
 1967POPC   C3A27929  14.371  33.087   8.154
 1967POPC   C4A27930  14.506  32.982   7.755
 1967POPC   C1B27931  14.089  32.910   8.819
 1967POPC   C2B27932  14.097  32.680   8.395
 1967POPC   C3B27933  14.209  32.611   7.956
 1967POPC   C4B27934  14.144  32.673   7.502
 1968POPC   NC327935   3.730  20.987   9.361
 1968POPC   PO427936   3.299  20.718   9.773
 1968POPC   GL127937   3.413  20.547   9.258
 1968POPC   GL227938   3.499  20.801   8.945
 1968POPC   C1A27939   3.350  20.355   8.814
 1968POPC   D2A27940   3.675  20.358   8.463
 1968POPC   C3A27941   3.589  20.576   8.082
 1968POPC   C4A27942   3.334  20.864   7.855
 1968POPC   C1B27943   3.795  20.835   8.615
 1968POPC   C2B27944   4.038  20.783   8.247
 1968POPC   C3B27945   3.975  20.771   7.782
 1968POPC   C4B27946   3.667  20.803   7.459
 1969POPC   NC327947  15.461  34.060   9.509
 1969POPC   PO427948  15.040  33.496   9.542
 1969POPC   GL127949  15.326  33.695   9.170
 1969POPC   GL227950  15.443  34.052   8.987
 1969POPC   C1A27951  15.436  33.593   8.751
 1969POPC   D2A27952  15.503  33.802   8.358
 1969POPC   C3A27953  15.311  33.570   8.037
 1969POPC   C4A27954  15.490  33.368   7.706
 1969POPC   C1B27955  15.141  34.056   8.644
 1969POPC   C2B27956  15.047  34.042   8.214
 1969POPC   C3B27957  15.115  33.982   7.784
 1969POPC   C4B27958  14.844  34.053   7.421
 1970POPC   NC327959  30.801  28.326   9.529
 1970POPC   PO427960  30.140  28.066   9.585
 1970POPC   GL127961  30.399  28.327   9.201
 1970POPC   GL227962  30.763  28.548   9.087
 1970POPC   C1A27963  30.559  28.227   8.774
 1970POPC   D2A27964  30.597  28.446   8.394
 1970POPC   C3A27965  30.643  28.326   7.975
 1970POPC   C4A27966  30.573  28.564   7.627
 1970POPC   C1B27967  31.039  28.441   8.703
 1970POPC   C2B27968  31.098  28.362   8.230
 1970POPC   C3B27969  31.091  28.488   7.763
 1970POPC   C4B27970  30.967  28.617   7.296
 1971POPC   NC327971  28.436  37.946   9.402
 1971POPC   PO427972  28.343  37.266   9.609
 1971POPC   GL127973  28.470  37.373   9.209
 1971POPC   GL227974  28.143  37.533   9.137
 1971POPC   C1A27975  28.622  37.554   8.822
 1971POPC   D2A27976  28.560  37.866   8.497
 1971POPC   C3A27977  28.490  37.755   8.075
 1971POPC   C4A27978  28.617  37.855   7.637
 1971POPC   C1B27979  28.106  37.718   8.706
 1971POPC   C2B27980  28.065  37.970   8.299
 1971POPC   C3B27981  28.032  37.855   7.853
 1971POPC   C4B27982  28.263  37.481   7.710
 1972POPC   NC327983  26.593  39.803   9.302
 1972POPC   PO427984  26.087  40.158   9.546
 1972POPC   GL127985  26.208  40.236   9.091
 1972POPC   GL227986  26.507  40.133   8.923
 1972POPC   C1A27987  26.037  40.179   8.666
 1972POPC   D2A27988  26.077  39.916   8.277
 1972POPC   C3A27989  25.758  39.917   7.973
 1972POPC   C4A27990  25.743  40.341   7.769
 1972POPC   C1B27991  26.355  39.764   8.693
 1972POPC   C2B27992  26.468  39.556   8.312
 1972POPC   C3B27993  26.485  39.823   7.955
 1972POPC   C4B27994  26.160  40.001   7.684
 1973POPC   NC327995  10.192  42.807   9.664
 1973POPC   PO427996  10.682  42.375   9.771
 1973POPC   GL127997  10.710  42.304   9.312
 1973POPC   GL227998  10.339  42.281   9.230
 1973POPC   C1A27999  10.719  42.124   8.871
 1973POPC   D2A28000  10.377  41.915   8.616
 1973POPC   C3A28001  10.385  41.945   8.162
 1973POPC   C4A28002  10.724  42.087   7.900
 1973POPC   C1B28003  10.273  42.392   8.801
 1973POPC   C2B28004  10.439  42.399   8.368
 1973POPC   C3B28005  10.331  42.434   7.918
 1973POPC   C4B28006  10.074  42.323   7.574
 1974POPC   NC328007   4.616   3.689   9.613
 1974POPC   PO428008   3.994   3.563   9.516
 1974POPC   GL128009   4.348   3.430   9.226
 1974POPC   GL228010   4.112   3.445   8.999
 1974POPC   C1A28011   4.516   3.317   8.771
 1974POPC   D2A28012   4.294   3.522   8.428
 1974POPC   C3A28013   4.519   3.482   8.038
 1974POPC   C4A28014   4.597   3.731   7.669
 1974POPC   C1B28015   3.970   3.193   8.703
 1974POPC   C2B28016   3.792   3.272   8.360
 1974POPC   C3B28017   3.972   3.435   8.032
 1974POPC   C4B28018   4.072   3.463   7.640
 1975POPC   NC328019  15.851   4.092   9.437
 1975POPC   PO428020  15.865   3.545   9.624
 1975POPC   GL128021  15.945   3.469   9.188
 1975POPC   GL228022  16.043   3.769   9.078
 1975POPC   C1A28023  15.982   3.365   8.737
 1975POPC   D2A28024  15.918   3.641   8.389
 1975POPC   C3A28025  15.798   3.446   8.031
 1975POPC   C4A28026  16.028   3.248   7.739
 1975POPC   C1B28027  16.285   3.778   8.719
 1975POPC   C2B28028  16.419   3.733   8.272
 1975POPC   C3B28029  16.198   3.749   7.858
 1975POPC   C4B28030  16.313   3.961   7.450
 1976POPC   NC328031  44.166  41.152   9.653
 1976POPC   PO428032  43.943  40.551   9.586
 1976POPC   GL128033  43.754  40.615   9.184
 1976POPC   GL228034  43.589  40.970   9.138
 1976POPC   C1A28035  43.645  40.657   8.754
 1976POPC   D2A28036  43.576  40.415   8.437
 1976POPC   C3A28037  43.787  40.621   8.145
 1976POPC   C4A28038  43.597  40.797   7.815
 1976POPC   C1B28039  44.020  40.971   8.967
 1976POPC   C2B28040  44.092  40.930   8.539
 1976POPC   C3B28041  43.895  41.113   8.187
 1976POPC   C4B28042  44.021  41.044   7.759
 1977POPC   NC328043  28.698  40.727   9.578
 1977POPC   PO428044  29.172  40.226   9.483
 1977POPC   GL128045  29.205  40.596   9.121
 1977POPC   GL228046  29.064  40.942   9.140
 1977POPC   C1A28047  29.178  40.758   8.668
 1977POPC   D2A28048  29.004  40.668   8.265
 1977POPC   C3A28049  29.309  40.816   8.004
 1977POPC   C4A28050  29.467  40.688   7.637
 1977POPC   C1B28051  29.004  41.211   8.770
 1977POPC   C2B28052  29.019  41.185   8.324
 1977POPC   C3B28053  28.936  41.284   7.910
 1977POPC   C4B28054  28.852  40.896   7.775
 1978POPC   NC328055  34.027  13.451   9.448
 1978POPC   PO428056  33.816  14.069   9.595
 1978POPC   GL128057  33.701  13.766   9.219
 1978POPC   GL228058  34.029  13.852   9.100
 1978POPC   C1A28059  33.805  13.536   8.777
 1978POPC   D2A28060  33.766  13.258   8.406
 1978POPC   C3A28061  33.736  13.427   8.001
 1978POPC   C4A28062  33.987  13.337   7.662
 1978POPC   C1B28063  34.125  13.959   8.677
 1978POPC   C2B28064  34.040  13.765   8.258
 1978POPC   C3B28065  34.009  13.833   7.787
 1978POPC   C4B28066  33.985  13.977   7.340
 1979POPC   NC328067  39.593  34.227   9.246
 1979POPC   PO428068  39.489  34.839   9.520
 1979POPC   GL128069  39.338  34.799   9.113
 1979POPC   GL228070  39.136  34.530   9.150
 1979POPC   C1A28071  39.360  34.670   8.671
 1979POPC   D2A28072  39.356  34.924   8.309
 1979POPC   C3A28073  39.546  34.848   7.916
 1979POPC   C4A28074  39.230  34.803   7.632
 1979POPC   C1B28075  38.955  34.352   8.788
 1979POPC   C2B28076  39.175  34.228   8.422
 1979POPC   C3B28077  39.221  34.457   8.050
 1979POPC   C4B28078  38.919  34.388   7.738
 1980POPC   NC328079   8.198  22.332   9.542
 1980POPC   PO428080   8.057  21.720   9.475
 1980POPC   GL128081   8.098  22.008   9.133
 1980POPC   GL228082   8.196  22.353   9.004
 1980POPC   C1A28083   7.918  21.965   8.745
 1980POPC   D2A28084   8.095  22.117   8.427
 1980POPC   C3A28085   7.905  22.086   8.090
 1980POPC   C4A28086   7.946  22.096   7.671
 1980POPC   C1B28087   8.299  22.556   8.590
 1980POPC   C2B28088   8.199  22.527   8.118
 1980POPC   C3B28089   8.361  22.426   7.699
 1980POPC   C4B28090   8.484  22.689   7.340
 1981POPC   NC328091  18.070  19.033   9.586
 1981POPC   PO428092  17.889  18.537   9.371
 1981POPC   GL128093  18.212  18.767   9.093
 1981POPC   GL228094  18.321  19.114   9.139
 1981POPC   C1A28095  18.238  18.977   8.650
 1981POPC   D2A28096  18.419  18.958   8.226
 1981POPC   C3A28097  18.094  18.856   7.888
 1981POPC   C4A28098  17.828  18.997   7.517
 1981POPC   C1B28099  18.522  19.368   8.799
 1981POPC   C2B28100  18.491  19.492   8.348
 1981POPC   C3B28101  18.552  19.350   7.918
 1981POPC   C4B28102  18.576  18.961   7.716
 1982POPC   NC328103  12.019  11.650   9.711
 1982POPC   PO428104  12.359  12.199   9.470
 1982POPC   GL128105  12.113  11.999   9.151
 1982POPC   GL228106  11.741  11.937   9.227
 1982POPC   C1A28107  12.230  12.062   8.718
 1982POPC   D2A28108  12.147  11.824   8.332
 1982POPC   C3A28109  12.375  11.923   7.913
 1982POPC   C4A28110  12.334  12.162   7.547
 1982POPC   C1B28111  11.726  12.047   8.775
 1982POPC   C2B28112  11.896  12.299   8.408
 1982POPC   C3B28113  11.921  12.140   7.986
 1982POPC   C4B28114  11.842  12.143   7.563
 1983POPC   NC328115   3.679  11.724   9.443
 1983POPC   PO428116   3.835  12.349   9.465
 1983POPC   GL128117   3.690  12.126   9.100
 1983POPC   GL228118   3.348  11.992   9.104
 1983POPC   C1A28119   3.691  12.084   8.660
 1983POPC   D2A28120   3.974  12.025   8.287
 1983POPC   C3A28121   3.881  12.327   7.956
 1983POPC   C4A28122   3.461  12.322   7.743
 1983POPC   C1B28123   3.154  12.026   8.658
 1983POPC   C2B28124   2.983  11.875   8.264
 1983POPC   C3B28125   3.223  11.868   7.894
 1983POPC   C4B28126   3.149  12.006   7.458
 1984POPC   NC328127  24.621  36.371   9.326
 1984POPC   PO428128  24.340  36.933   9.552
 1984POPC   GL128129  24.449  36.826   9.129
 1984POPC   GL228130  24.335  36.506   8.938
 1984POPC   C1A28131  24.486  37.118   8.805
 1984POPC   D2A28132  24.546  37.132   8.394
 1984POPC   C3A28133  24.248  37.017   8.118
 1984POPC   C4A28134  24.409  36.854   7.778
 1984POPC   C1B28135  24.633  36.674   8.636
 1984POPC   C2B28136  24.661  36.688   8.189
 1984POPC   C3B28137  24.863  36.600   7.810
 1984POPC   C4B28138  24.607  36.527   7.439
 1985POPC   NC328139  38.954  15.441   9.547
 1985POPC   PO428140  39.527  15.163   9.256
 1985POPC   GL128141  39.204  15.374   9.084
 1985POPC   GL228142  38.988  15.079   9.194
 1985POPC   C1A28143  39.269  15.449   8.625
 1985POPC   D2A28144  39.084  15.374   8.218
 1985POPC   C3A28145  39.316  15.102   7.976
 1985POPC   C4A28146  39.615  15.248   7.706
 1985POPC   C1B28147  38.840  15.151   8.765
 1985POPC   C2B28148  38.916  14.914   8.397
 1985POPC   C3B28149  38.783  14.936   8.003
 1985POPC   C4B28150  38.879  15.251   7.730
 1986POPC   NC328151  27.406   2.255   9.535
 1986POPC   PO428152  27.574   1.541   9.469
 1986POPC   GL128153  27.795   1.789   9.140
 1986POPC   GL228154  27.895   2.127   9.118
 1986POPC   C1A28155  27.661   1.924   8.727
 1986POPC   D2A28156  27.611   1.826   8.326
 1986POPC   C3A28157  27.532   2.030   7.915
 1986POPC   C4A28158  27.729   1.873   7.520
 1986POPC   C1B28159  27.788   2.409   8.736
 1986POPC   C2B28160  27.562   2.329   8.370
 1986POPC   C3B28161  27.705   2.482   8.034
 1986POPC   C4B28162  27.858   2.357   7.664
 1987POPC   NC328163  34.982  44.635   9.646
 1987POPC   PO428164  34.292  44.745   9.575
 1987POPC   GL128165  34.519  44.680   9.206
 1987POPC   GL228166  34.819  44.904   9.206
 1987POPC   C1A28167  34.670  44.624   8.790
 1987POPC   D2A28168  34.590  44.772   8.359
 1987POPC   C3A28169  34.535  44.477   8.005
 1987POPC   C4A28170  34.832  44.330   7.676
 1987POPC   C1B28171  34.753   0.133   8.795
 1987POPC   C2B28172  34.833   0.239   8.361
 1987POPC   C3B28173  34.785   0.080   7.941
 1987POPC   C4B28174  34.612  44.804   7.633
 1988POPC   NC328175  33.119  41.346   9.771
 1988POPC   PO428176  32.858  41.900   9.482
 1988POPC   GL128177  33.112  41.590   9.260
 1988POPC   GL228178  32.817  41.445   9.120
 1988POPC   C1A28179  33.373  41.617   8.863
 1988POPC   D2A28180  33.442  41.724   8.422
 1988POPC   C3A28181  33.198  41.476   8.134
 1988POPC   C4A28182  33.261  41.450   7.707
 1988POPC   C1B28183  32.902  41.775   8.784
 1988POPC   C2B28184  32.829  41.795   8.310
 1988POPC   C3B28185  32.762  41.582   7.873
 1988POPC   C4B28186  32.801  41.277   7.531
 1989POPC   NC328187  27.565  38.758   9.490
 1989POPC   PO428188  27.961  38.114   9.607
 1989POPC   GL128189  27.646  38.197   9.223
 1989POPC   GL228190  27.691  38.537   9.061
 1989POPC   C1A28191  27.669  38.157   8.742
 1989POPC   D2A28192  27.635  38.486   8.407
 1989POPC   C3A28193  27.395  38.512   7.993
 1989POPC   C4A28194  27.467  38.280   7.613
 1989POPC   C1B28195  27.917  38.777   8.756
 1989POPC   C2B28196  28.105  38.705   8.390
 1989POPC   C3B28197  28.026  38.447   8.064
 1989POPC   C4B28198  27.875  38.596   7.700
 1990POPC   NC328199   5.212  11.587   9.376
 1990POPC   PO428200   4.865  11.011   9.552
 1990POPC   GL128201   4.992  11.069   9.125
 1990POPC   GL228202   5.235  10.868   9.048
 1990POPC   C1A28203   4.882  11.133   8.678
 1990POPC   D2A28204   5.065  11.215   8.276
 1990POPC   C3A28205   4.810  11.008   7.950
 1990POPC   C4A28206   4.803  11.159   7.518
 1990POPC   C1B28207   5.390  11.213   8.756
 1990POPC   C2B28208   5.611  11.122   8.395
 1990POPC   C3B28209   5.528  11.321   8.048
 1990POPC   C4B28210   5.257  11.171   7.769
 1991POPC   NC328211  20.724  43.654   9.586
 1991POPC   PO428212  20.417  43.088   9.588
 1991POPC   GL128213  20.630  43.068   9.222
 1991POPC   GL228214  20.513  42.754   9.142
 1991POPC   C1A28215  20.524  43.256   8.824
 1991POPC   D2A28216  20.262  43.281   8.461
 1991POPC   C3A28217  20.520  43.294   8.093
 1991POPC   C4A28218  20.667  43.436   7.704
 1991POPC   C1B28219  20.817  42.845   8.795
 1991POPC   C2B28220  20.890  43.107   8.433
 1991POPC   C3B28221  20.880  42.929   8.009
 1991POPC   C4B28222  20.876  42.982   7.573
 1992POPC   NC328223  22.675  13.483   9.404
 1992POPC   PO428224  23.219  13.783   9.540
 1992POPC   GL128225  23.048  13.822   9.130
 1992POPC   GL228226  22.698  13.791   8.994
 1992POPC   C1A28227  23.099  13.572   8.783
 1992POPC   D2A28228  23.155  13.714   8.390
 1992POPC   C3A28229  23.123  13.431   8.088
 1992POPC   C4A28230  22.892  13.636   7.798
 1992POPC   C1B28231  22.598  13.461   8.694
 1992POPC   C2B28232  22.631  13.535   8.250
 1992POPC   C3B28233  22.389  13.577   7.847
 1992POPC   C4B28234  22.623  13.317   7.509
 1993POPC   NC328235  14.734  33.879   9.485
 1993POPC   PO428236  14.051  33.647   9.560
 1993POPC   GL128237  14.189  33.679   9.172
 1993POPC   GL228238  13.996  33.389   9.091
 1993POPC   C1A28239  14.384  33.947   8.842
 1993POPC   D2A28240  14.644  33.853   8.494
 1993POPC   C3A28241  14.503  33.968   8.077
 1993POPC   C4A28242  14.672  33.706   7.742
 1993POPC   C1B28243  14.236  33.409   8.735
 1993POPC   C2B28244  14.224  33.583   8.344
 1993POPC   C3B28245  14.101  33.516   7.936
 1993POPC   C4B28246  14.327  33.403   7.544
 1994POPC   NC328247  12.805  15.677   9.386
 1994POPC   PO428248  13.061  16.365   9.502
 1994POPC   GL128249  12.850  16.169   9.162
 1994POPC   GL228250  13.137  15.947   9.117
 1994POPC   C1A28251  12.660  15.925   8.789
 1994POPC   D2A28252  12.787  15.722   8.385
 1994POPC   C3A28253  12.650  15.752   7.952
 1994POPC   C4A28254  13.044  15.659   7.711
 1994POPC   C1B28255  13.112  16.170   8.720
 1994POPC   C2B28256  13.203  16.050   8.332
 1994POPC   C3B28257  13.012  16.110   7.946
 1994POPC   C4B28258  12.786  16.503   7.811
 1995POPC   NC328259  39.851  43.561   9.826
 1995POPC   PO428260  39.727  43.960   9.309
 1995POPC   GL128261  39.946  43.777   9.081
 1995POPC   GL228262  40.094  43.473   9.282
 1995POPC   C1A28263  39.925  43.894   8.666
 1995POPC   D2A28264  39.831  44.105   8.296
 1995POPC   C3A28265  39.878  43.902   7.914
 1995POPC   C4A28266  39.909  44.040   7.483
 1995POPC   C1B28267  40.110  43.382   8.850
 1995POPC   C2B28268  40.232  43.513   8.457
 1995POPC   C3B28269  40.221  43.424   8.051
 1995POPC   C4B28270  40.251  43.639   7.670
 1996POPC   NC328271   8.676  28.418   9.426
 1996POPC   PO428272   8.043  28.153   9.360
 1996POPC   GL128273   8.203  28.449   9.081
 1996POPC   GL228274   7.885  28.465   8.954
 1996POPC   C1A28275   8.275  28.606   8.666
 1996POPC   D2A28276   8.276  28.364   8.286
 1996POPC   C3A28277   8.135  28.575   7.939
 1996POPC   C4A28278   8.497  28.536   7.740
 1996POPC   C1B28279   7.844  28.336   8.553
 1996POPC   C2B28280   7.592  28.199   8.228
 1996POPC   C3B28281   7.748  28.167   7.876
 1996POPC   C4B28282   8.163  28.090   7.813
 1997POPC   NC328283  16.676   1.705   9.507
 1997POPC   PO428284  16.436   1.050   9.467
 1997POPC   GL128285  16.689   1.245   9.169
 1997POPC   GL228286  17.071   1.235   9.211
 1997POPC   C1A28287  16.701   1.043   8.754
 1997POPC   D2A28288  16.506   1.051   8.360
 1997POPC   C3A28289  16.722   1.004   7.935
 1997POPC   C4A28290  16.789   0.909   7.462
 1997POPC   C1B28291  16.996   1.440   8.820
 1997POPC   C2B28292  16.785   1.471   8.406
 1997POPC   C3B28293  17.003   1.411   7.993
 1997POPC   C4B28294  16.993   1.360   7.523
 1998POPC   NC328295  41.155   5.896   9.500
 1998POPC   PO428296  40.551   6.155   9.416
 1998POPC   GL128297  40.734   5.862   9.111
 1998POPC   GL228298  41.065   5.686   9.045
 1998POPC   C1A28299  40.659   5.704   8.695
 1998POPC   D2A28300  40.860   5.634   8.293
 1998POPC   C3A28301  40.639   5.802   7.924
 1998POPC   C4A28302  40.717   6.103   7.569
 1998POPC   C1B28303  41.072   6.036   8.743
 1998POPC   C2B28304  41.206   6.047   8.312
 1998POPC   C3B28305  41.111   5.970   7.921
 1998POPC   C4B28306  41.071   5.532   7.803
 1999POPC   NC328307  36.315  28.269   9.475
 1999POPC   PO428308  35.982  28.756   9.553
 1999POPC   GL128309  35.993  28.517   9.118
 1999POPC   GL228310  36.172  28.219   9.012
 1999POPC   C1A28311  35.909  28.433   8.671
 1999POPC   D2A28312  35.816  28.518   8.273
 1999POPC   C3A28313  35.984  28.236   8.015
 1999POPC   C4A28314  36.033  28.503   7.706
 1999POPC   C1B28315  36.447  28.267   8.687
 1999POPC   C2B28316  36.455  27.984   8.351
 1999POPC   C3B28317  36.469  28.066   7.940
 1999POPC   C4B28318  36.534  28.448   7.796
 2000POPC   NC328319  44.812  41.614   9.412
 2000POPC   PO428320  44.238  41.587   9.755
 2000POPC   GL128321  44.303  41.527   9.304
 2000POPC   GL228322  44.264  41.831   9.140
 2000POPC   C1A28323  44.268  41.405   8.844
 2000POPC   D2A28324  44.201  41.500   8.384
 2000POPC   C3A28325  44.391  41.326   7.993
 2000POPC   C4A28326  44.445  41.204   7.541
 2000POPC   C1B28327  44.515  41.856   8.790
 2000POPC   C2B28328  44.585  41.989   8.380
 2000POPC   C3B28329  44.787  41.763   8.065
 2000POPC   C4B28330  44.707  41.595   7.676
 2001POPC   NC328331  17.945  39.914   9.928
 2001POPC   PO428332  18.020  40.114   9.307
 2001POPC   GL128333  18.061  40.105   8.948
 2001POPC   GL228334  18.303  39.839   8.962
 2001POPC   C1A28335  18.038  40.034   8.541
 2001POPC   D2A28336  18.323  39.770   8.322
 2001POPC   C3A28337  18.382  39.916   7.918
 2001POPC   C4A28338  18.253  40.268   7.736
 2001POPC   C1B28339  18.066  39.562   8.731
 2001POPC   C2B28340  17.877  39.484   8.338
 2001POPC   C3B28341  18.092  39.507   7.933
 2001POPC   C4B28342  18.018  39.830   7.578
 2002POPC   NC328343  10.413  26.082   9.569
 2002POPC   PO428344  11.052  25.953   9.426
 2002POPC   GL128345  10.670  26.033   9.111
 2002POPC   GL228346  10.267  26.021   9.097
 2002POPC   C1A28347  10.524  26.250   8.735
 2002POPC   D2A28348  10.631  26.037   8.392
 2002POPC   C3A28349  10.440  26.088   8.049
 2002POPC   C4A28350  10.561  26.039   7.632
 2002POPC   C1B28351  10.322  25.775   8.725
 2002POPC   C2B28352  10.370  25.595   8.323
 2002POPC   C3B28353  10.242  25.661   7.884
 2002POPC   C4B28354  10.544  25.547   7.575
 2003POPC   NC328355  22.164  42.859   9.529
 2003POPC   PO428356  21.996  43.482   9.774
 2003POPC   GL128357  22.072  43.346   9.310
 2003POPC   GL228358  21.806  43.296   9.010
 2003POPC   C1A28359  22.288  43.156   8.939
 2003POPC   D2A28360  22.442  43.072   8.500
 2003POPC   C3A28361  22.432  43.125   8.048
 2003POPC   C4A28362  22.373  42.778   7.754
 2003POPC   C1B28363  21.795  43.059   8.623
 2003POPC   C2B28364  21.958  43.033   8.211
 2003POPC   C3B28365  21.884  42.968   7.781
 2003POPC   C4B28366  22.006  42.798   7.374
 2004POPC   NC328367  31.435   0.934   9.598
 2004POPC   PO428368  31.316   1.602   9.725
 2004POPC   GL128369  31.344   1.339   9.294
 2004POPC   GL228370  31.568   1.017   9.121
 2004POPC   C1A28371  31.260   1.308   8.858
 2004POPC   D2A28372  31.270   1.160   8.444
 2004POPC   C3A28373  31.636   1.297   8.236
 2004POPC   C4A28374  31.652   1.468   7.843
 2004POPC   C1B28375  31.685   0.995   8.688
 2004POPC   C2B28376  31.678   0.763   8.280
 2004POPC   C3B28377  31.686   0.940   7.841
 2004POPC   C4B28378  31.613   0.818   7.382
 2005POPC   NC328379   9.635  15.773   9.496
 2005POPC   PO428380  10.292  15.741   9.238
 2005POPC   GL128381   9.963  15.999   9.156
 2005POPC   GL228382   9.808  15.711   9.028
 2005POPC   C1A28383   9.756  16.166   8.803
 2005POPC   D2A28384   9.685  16.193   8.401
 2005POPC   C3A28385   9.728  15.864   8.148
 2005POPC   C4A28386   9.714  15.970   7.740
 2005POPC   C1B28387   9.470  15.739   8.750
 2005POPC   C2B28388   9.365  15.573   8.381
 2005POPC   C3B28389   9.291  15.675   7.935
 2005POPC   C4B28390   9.516  15.509   7.633
 2006POPC   NC328391  26.159  33.827   9.360
 2006POPC   PO428392  25.564  33.720   9.455
 2006POPC   GL128393  25.766  33.686   9.057
 2006POPC   GL228394  25.597  33.995   8.967
 2006POPC   C1A28395  25.939  33.670   8.633
 2006POPC   D2A28396  25.801  33.738   8.241
 2006POPC   C3A28397  25.928  33.475   7.918
 2006POPC   C4A28398  26.240  33.654   7.634
 2006POPC   C1B28399  25.966  34.158   8.707
 2006POPC   C2B28400  26.198  34.046   8.320
 2006POPC   C3B28401  26.043  34.036   7.906
 2006POPC   C4B28402  25.606  34.107   7.918
 2007POPC   NC328403  41.007  30.599   9.527
 2007POPC   PO428404  41.695  30.674   9.582
 2007POPC   GL128405  41.439  30.717   9.247
 2007POPC   GL228406  41.765  30.667   9.061
 2007POPC   C1A28407  41.315  30.545   8.872
 2007POPC   D2A28408  41.570  30.549   8.479
 2007POPC   C3A28409  41.407  30.713   8.082
 2007POPC   C4A28410  41.378  30.741   7.631
 2007POPC   C1B28411  41.998  30.722   8.682
 2007POPC   C2B28412  42.172  30.769   8.257
 2007POPC   C3B28413  42.003  30.793   7.843
 2007POPC   C4B28414  41.809  30.835   7.405
 2008POPC   NC328415   5.657  44.207   9.401
 2008POPC   PO428416   5.046  44.160   9.794
 2008POPC   GL128417   5.182  44.000   9.401
 2008POPC   GL228418   4.852  43.959   9.294
 2008POPC   C1A28419   5.261  43.793   8.986
 2008POPC   D2A28420   4.966  43.769   8.623
 2008POPC   C3A28421   5.076  43.894   8.201
 2008POPC   C4A28422   5.101  43.836   7.781
 2008POPC   C1B28423   4.959  44.206   8.923
 2008POPC   C2B28424   4.934  44.283   8.490
 2008POPC   C3B28425   4.910  44.396   8.061
 2008POPC   C4B28426   4.868  44.286   7.659
 2009POPC   NC328427  23.242  18.988   9.509
 2009POPC   PO428428  22.542  18.896   9.620
 2009POPC   GL128429  22.852  19.085   9.201
 2009POPC   GL228430  23.220  19.098   9.008
 2009POPC   C1A28431  22.786  19.080   8.740
 2009POPC   D2A28432  22.490  18.913   8.422
 2009POPC   C3A28433  22.748  18.817   8.061
 2009POPC   C4A28434  22.848  19.072   7.728
 2009POPC   C1B28435  23.482  18.862   8.653
 2009POPC   C2B28436  23.560  18.868   8.175
 2009POPC   C3B28437  23.358  18.928   7.752
 2009POPC   C4B28438  23.074  18.727   7.414
 2010POPC   NC328439  32.657  44.605   9.544
 2010POPC   PO428440  33.252  44.860   9.770
 2010POPC   GL128441  33.092  44.791   9.304
 2010POPC   GL228442  32.787  44.971   9.154
 2010POPC   C1A28443  32.992  44.503   8.941
 2010POPC   D2A28444  33.118  44.303   8.540
 2010POPC   C3A28445  33.061  44.427   8.079
 2010POPC   C4A28446  32.806  44.547   7.705
 2010POPC   C1B28447  33.072  44.985   8.757
 2010POPC   C2B28448  33.039  44.933   8.272
 2010POPC   C3B28449  33.196  44.854   7.833
 2010POPC   C4B28450  33.332   0.105   7.493
 2011POPC   NC328451  13.613  15.112   9.549
 2011POPC   PO428452  13.128  15.423   9.172
 2011POPC   GL128453  13.467  15.160   9.058
 2011POPC   GL228454  13.812  14.959   9.112
 2011POPC   C1A28455  13.723  15.329   8.762
 2011POPC   D2A28456  13.830  15.240   8.370
 2011POPC   C3A28457  13.534  15.322   8.036
 2011POPC   C4A28458  13.355  15.096   7.719
 2011POPC   C1B28459  14.016  14.892   8.733
 2011POPC   C2B28460  14.046  14.781   8.333
 2011POPC   C3B28461  13.819  14.901   7.976
 2011POPC   C4B28462  13.870  15.187   7.661
 2012POPC   NC328463  22.908  20.943   9.543
 2012POPC   PO428464  22.899  20.298   9.402
 2012POPC   GL128465  22.934  20.642   9.140
 2012POPC   GL228466  22.583  20.790   9.143
 2012POPC   C1A28467  23.196  20.764   8.793
 2012POPC   D2A28468  23.184  20.550   8.398
 2012POPC   C3A28469  23.288  20.768   8.038
 2012POPC   C4A28470  23.230  20.533   7.686
 2012POPC   C1B28471  22.677  20.699   8.717
 2012POPC   C2B28472  22.856  20.924   8.396
 2012POPC   C3B28473  22.791  20.661   8.059
 2012POPC   C4B28474  22.815  20.791   7.708
 2013POPC   NC328475  38.344  44.985   9.536
 2013POPC   PO428476  38.122  44.375   9.368
 2013POPC   GL128477  38.486  44.597   9.141
 2013POPC   GL228478  38.590  44.321   8.920
 2013POPC   C1A28479  38.679  44.797   8.751
 2013POPC   D2A28480  38.674  44.960   8.316
 2013POPC   C3A28481  38.560  44.657   7.991
 2013POPC   C4A28482  38.558  44.729   7.558
 2013POPC   C1B28483  38.184  44.527   8.716
 2013POPC   C2B28484  37.862  44.379   8.400
 2013POPC   C3B28485  37.876  44.240   7.974
 2013POPC   C4B28486  38.228  44.337   7.698
 2014POPC   NC328487   2.269   6.907   9.406
 2014POPC   PO428488   1.975   6.328   9.691
 2014POPC   GL128489   2.014   6.513   9.223
 2014POPC   GL228490   2.320   6.491   9.079
 2014POPC   C1A28491   1.940   6.739   8.793
 2014POPC   D2A28492   1.749   6.940   8.398
 2014POPC   C3A28493   1.839   6.956   7.999
 2014POPC   C4A28494   1.869   6.738   7.642
 2014POPC   C1B28495   2.445   6.671   8.737
 2014POPC   C2B28496   2.253   6.698   8.372
 2014POPC   C3B28497   2.293   6.737   7.973
 2014POPC   C4B28498   2.329   6.529   7.621
 2015POPC   NC328499   6.029  29.737   9.513
 2015POPC   PO428500   5.404  29.802   9.487
 2015POPC   GL128501   5.678  29.870   9.100
 2015POPC   GL228502   5.934  30.132   9.151
 2015POPC   C1A28503   5.760  30.063   8.680
 2015POPC   D2A28504   5.951  30.256   8.358
 2015POPC   C3A28505   5.879  30.116   7.971
 2015POPC   C4A28506   6.129  30.273   7.631
 2015POPC   C1B28507   6.233  29.991   8.827
 2015POPC   C2B28508   6.254  29.840   8.407
 2015POPC   C3B28509   6.164  29.566   8.074
 2015POPC   C4B28510   6.051  29.747   7.660
 2016POPC   NC328511  33.682  10.688   9.606
 2016POPC   PO428512  33.650  10.044   9.479
 2016POPC   GL128513  33.792  10.407   9.213
 2016POPC   GL228514  34.128  10.528   9.351
 2016POPC   C1A28515  33.699  10.590   8.830
 2016POPC   D2A28516  33.491  10.559   8.423
 2016POPC   C3A28517  33.749  10.803   8.134
 2016POPC   C4A28518  33.754  10.710   7.680
 2016POPC   C1B28519  34.212  10.451   8.916
 2016POPC   C2B28520  34.079  10.490   8.488
 2016POPC   C3B28521  34.216  10.364   8.103
 2016POPC   C4B28522  34.113  10.339   7.677
 2017POPC   NC328523   2.714  27.163   9.531
 2017POPC   PO428524   3.049  27.793   9.603
 2017POPC   GL128525   2.947  27.882   9.168
 2017POPC   GL228526   2.642  27.686   9.216
 2017POPC   C1A28527   2.912  27.730   8.735
 2017POPC   D2A28528   2.855  27.384   8.391
 2017POPC   C3A28529   2.964  27.469   7.935
 2017POPC   C4A28530   2.856  27.740   7.542
 2017POPC   C1B28531   2.452  27.504   8.831
 2017POPC   C2B28532   2.361  27.249   8.497
 2017POPC   C3B28533   2.425  27.431   8.078
 2017POPC   C4B28534   2.544  27.373   7.670
 2018POPC   NC328535  36.054  34.912   9.447
 2018POPC   PO428536  36.474  34.497   9.546
 2018POPC   GL128537  36.234  34.487   9.170
 2018POPC   GL228538  35.857  34.487   9.190
 2018POPC   C1A28539  36.132  34.625   8.774
 2018POPC   D2A28540  35.864  34.527   8.460
 2018POPC   C3A28541  36.088  34.585   8.116
 2018POPC   C4A28542  36.020  34.899   7.805
 2018POPC   C1B28543  35.904  34.173   8.832
 2018POPC   C2B28544  35.801  34.020   8.400
 2018POPC   C3B28545  35.711  34.258   8.024
 2018POPC   C4B28546  36.010  34.369   7.670
 2019POPC   NC328547  43.083  33.999   9.396
 2019POPC   PO428548  43.317  33.388   9.274
 2019POPC   GL128549  43.136  33.703   8.990
 2019POPC   GL228550  42.809  33.713   9.088
 2019POPC   C1A28551  43.192  34.060   8.683
 2019POPC   D2A28552  43.279  33.830   8.287
 2019POPC   C3A28553  43.181  33.970   7.862
 2019POPC   C4A28554  43.141  33.717   7.520
 2019POPC   C1B28555  42.759  33.824   8.661
 2019POPC   C2B28556  42.802  34.004   8.248
 2019POPC   C3B28557  42.681  33.830   7.833
 2019POPC   C4B28558  42.669  33.409   7.621
 2020POPC   NC328559  20.604   1.804   9.459
 2020POPC   PO428560  20.685   2.513   9.500
 2020POPC   GL128561  20.748   2.202   9.136
 2020POPC   GL228562  20.464   1.972   9.001
 2020POPC   C1A28563  20.835   2.187   8.690
 2020POPC   D2A28564  20.632   2.232   8.321
 2020POPC   C3A28565  20.794   2.064   7.965
 2020POPC   C4A28566  20.454   2.059   7.702
 2020POPC   C1B28567  20.819   1.699   8.845
 2020POPC   C2B28568  20.770   1.712   8.411
 2020POPC   C3B28569  20.413   1.755   8.122
 2020POPC   C4B28570  20.518   1.560   7.733
 2021POPC   NC328571  40.833   2.982   9.573
 2021POPC   PO428572  40.806   2.340   9.362
 2021POPC   GL128573  40.890   2.704   9.126
 2021POPC   GL228574  40.940   3.091   9.108
 2021POPC   C1A28575  40.732   2.781   8.742
 2021POPC   D2A28576  40.467   2.593   8.437
 2021POPC   C3A28577  40.622   2.729   8.063
 2021POPC   C4A28578  40.850   2.795   7.702
 2021POPC   C1B28579  41.206   3.053   8.781
 2021POPC   C2B28580  41.049   3.182   8.422
 2021POPC   C3B28581  40.964   3.155   8.018
 2021POPC   C4B28582  41.298   3.097   7.698
 2022POPC   NC328583   8.747  26.167   9.566
 2022POPC   PO428584   9.361  26.030   9.431
 2022POPC   GL128585   9.025  26.005   9.186
 2022POPC   GL228586   9.129  25.740   9.067
 2022POPC   C1A28587   8.798  26.073   8.809
 2022POPC   D2A28588   8.654  26.331   8.434
 2022POPC   C3A28589   8.812  26.262   7.992
 2022POPC   C4A28590   8.860  25.847   7.769
 2022POPC   C1B28591   9.302  26.064   8.766
 2022POPC   C2B28592   9.106  26.015   8.367
 2022POPC   C3B28593   9.291  26.052   7.965
 2022POPC   C4B28594   9.591  26.270   7.716
 2023POPC   NC328595   0.794  16.723   9.818
 2023POPC   PO428596   0.353  16.718   9.441
 2023POPC   GL128597   0.514  16.731   9.075
 2023POPC   GL228598   0.816  16.691   9.237
 2023POPC   C1A28599   0.587  16.920   8.700
 2023POPC   D2A28600   0.810  16.880   8.317
 2023POPC   C3A28601   0.532  16.845   7.981
 2023POPC   C4A28602   0.169  16.766   7.785
 2023POPC   C1B28603   0.924  16.541   8.827
 2023POPC   C2B28604   1.018  16.378   8.442
 2023POPC   C3B28605   0.932  16.450   8.046
 2023POPC   C4B28606   0.730  16.488   7.692
 2024POPC   NC328607  37.281  20.822   9.472
 2024POPC   PO428608  37.870  20.448   9.471
 2024POPC   GL128609  37.602  20.529   9.130
 2024POPC   GL228610  37.680  20.821   9.095
 2024POPC   C1A28611  37.719  20.389   8.711
 2024POPC   D2A28612  37.769  20.524   8.319
 2024POPC   C3A28613  37.805  20.282   7.969
 2024POPC   C4A28614  37.494  20.478   7.731
 2024POPC   C1B28615  37.600  20.904   8.688
 2024POPC   C2B28616  37.743  21.042   8.297
 2024POPC   C3B28617  37.565  20.977   7.881
 2024POPC   C4B28618  37.269  20.970   7.543
 2025POPC   NC328619  41.982   8.618   9.443
 2025POPC   PO428620  42.320   8.021   9.497
 2025POPC   GL128621  42.324   8.221   9.134
 2025POPC   GL228622  42.272   7.899   8.990
 2025POPC   C1A28623  42.280   8.356   8.718
 2025POPC   D2A28624  42.375   8.275   8.307
 2025POPC   C3A28625  42.083   7.999   8.068
 2025POPC   C4A28626  42.176   8.264   7.728
 2025POPC   C1B28627  42.601   7.942   8.677
 2025POPC   C2B28628  42.567   7.787   8.280
 2025POPC   C3B28629  42.570   7.980   7.923
 2025POPC   C4B28630  42.755   8.026   7.559
 2026POPC   NC328631  16.322   3.481   9.520
 2026POPC   PO428632  17.069   3.623   9.374
 2026POPC   GL128633  16.673   3.643   9.126
 2026POPC   GL228634  16.431   3.378   9.042
 2026POPC   C1A28635  16.746   3.584   8.692
 2026POPC   D2A28636  16.812   3.321   8.354
 2026POPC   C3A28637  16.970   3.511   7.998
 2026POPC   C4A28638  16.690   3.744   7.727
 2026POPC   C1B28639  16.444   3.147   8.677
 2026POPC   C2B28640  16.240   3.243   8.269
 2026POPC   C3B28641  16.505   3.307   7.916
 2026POPC   C4B28642  16.831   3.261   7.576
 2027POPC   NC328643   0.640  16.260   9.436
 2027POPC   PO428644   0.126  15.828   9.323
 2027POPC   GL128645   0.479  15.918   9.085
 2027POPC   GL228646   0.386  16.252   9.010
 2027POPC   C1A28647   0.774  16.034   8.772
 2027POPC   D2A28648   0.891  15.896   8.367
 2027POPC   C3A28649   0.518  15.862   8.114
 2027POPC   C4A28650   0.469  16.053   7.706
 2027POPC   C1B28651   0.446  16.429   8.605
 2027POPC   C2B28652   0.377  16.373   8.163
 2027POPC   C3B28653   0.048  16.284   7.863
 2027POPC   C4B28654   0.163  16.372   7.424
 2028POPC   NC328655   7.126  42.141   9.335
 2028POPC   PO428656   7.736  42.353   9.506
 2028POPC   GL128657   7.486  42.495   9.185
 2028POPC   GL228658   7.208  42.672   9.321
 2028POPC   C1A28659   7.451  42.336   8.783
 2028POPC   D2A28660   7.730  42.323   8.454
 2028POPC   C3A28661   7.479  42.299   8.114
 2028POPC   C4A28662   7.483  42.360   7.680
 2028POPC   C1B28663   7.119  42.716   8.866
 2028POPC   C2B28664   7.212  42.653   8.413
 2028POPC   C3B28665   7.301  42.762   7.987
 2028POPC   C4B28666   7.306  42.807   7.540
 2029POPC   NC328667  12.346  38.861   9.931
 2029POPC   PO428668  11.899  39.269   9.548
 2029POPC   GL128669  12.193  39.244   9.195
 2029POPC   GL228670  12.513  39.439   9.247
 2029POPC   C1A28671  12.011  39.350   8.802
 2029POPC   D2A28672  11.777  39.139   8.513
 2029POPC   C3A28673  11.896  39.292   8.120
 2029POPC   C4A28674  11.984  39.108   7.723
 2029POPC   C1B28675  12.502  39.424   8.804
 2029POPC   C2B28676  12.327  39.095   8.483
 2029POPC   C3B28677  12.388  39.129   8.055
 2029POPC   C4B28678  12.476  39.255   7.633
 2030POPC   NC328679  14.370  23.292   9.112
 2030POPC   PO428680  14.320  23.779   9.539
 2030POPC   GL128681  14.141  23.786   9.138
 2030POPC   GL228682  14.437  23.958   9.054
 2030POPC   C1A28683  14.054  23.742   8.690
 2030POPC   D2A28684  14.263  23.535   8.341
 2030POPC   C3A28685  14.488  23.807   8.053
 2030POPC   C4A28686  14.273  23.684   7.704
 2030POPC   C1B28687  14.585  23.745   8.664
 2030POPC   C2B28688  14.794  23.492   8.336
 2030POPC   C3B28689  14.891  23.473   7.887
 2030POPC   C4B28690  14.718  23.590   7.496
 2031POPC   NC328691  14.655  37.142   9.564
 2031POPC   PO428692  14.168  36.593   9.466
 2031POPC   GL128693  14.328  36.872   9.121
 2031POPC   GL228694  14.699  36.928   9.092
 2031POPC   C1A28695  14.424  36.988   8.693
 2031POPC   D2A28696  14.200  37.070   8.361
 2031POPC   C3A28697  14.286  36.851   7.998
 2031POPC   C4A28698  14.421  37.084   7.644
 2031POPC   C1B28699  14.823  36.654   8.726
 2031POPC   C2B28700  14.731  36.728   8.294
 2031POPC   C3B28701  14.791  36.800   7.866
 2031POPC   C4B28702  14.955  37.180   7.702
 2032POPC   NC328703  11.828   4.113   9.456
 2032POPC   PO428704  12.484   4.463   9.530
 2032POPC   GL128705  12.207   4.401   9.211
 2032POPC   GL228706  12.166   4.090   9.067
 2032POPC   C1A28707  12.113   4.521   8.792
 2032POPC   D2A28708  12.135   4.698   8.404
 2032POPC   C3A28709  11.972   4.415   8.104
 2032POPC   C4A28710  12.139   4.447   7.728
 2032POPC   C1B28711  12.019   4.050   8.656
 2032POPC   C2B28712  12.345   4.215   8.405
 2032POPC   C3B28713  12.439   4.095   8.012
 2032POPC   C4B28714  12.081   3.905   7.810
 2033POPC   NC328715  30.067   7.414   9.584
 2033POPC   PO428716  30.078   6.965   9.095
 2033POPC   GL128717  30.102   7.405   9.048
 2033POPC   GL228718  29.803   7.485   8.985
 2033POPC   C1A28719  30.103   7.614   8.622
 2033POPC   D2A28720  30.291   7.493   8.265
 2033POPC   C3A28721  29.991   7.308   7.962
 2033POPC   C4A28722  29.731   7.047   7.699
 2033POPC   C1B28723  29.564   7.660   8.684
 2033POPC   C2B28724  29.664   7.558   8.300
 2033POPC   C3B28725  29.542   7.578   7.901
 2033POPC   C4B28726  29.271   7.263   7.750
 2034POPC   NC328727  30.083  17.643   9.596
 2034POPC   PO428728  29.672  17.210   9.294
 2034POPC   GL128729  29.821  17.557   9.005
 2034POPC   GL228730  30.104  17.713   9.104
 2034POPC   C1A28731  29.999  17.569   8.567
 2034POPC   D2A28732  30.276  17.350   8.274
 2034POPC   C3A28733  30.147  17.366   7.853
 2034POPC   C4A28734  29.735  17.546   7.832
 2034POPC   C1B28735  30.203  17.975   8.806
 2034POPC   C2B28736  30.088  18.066   8.409
 2034POPC   C3B28737  30.102  17.830   8.078
 2034POPC   C4B28738  30.272  17.970   7.730
 2035POPC   NC328739  43.494  18.330   9.504
 2035POPC   PO428740  42.755  18.165   9.398
 2035POPC   GL128741  42.898  18.374   9.050
 2035POPC   GL228742  43.240  18.256   9.061
 2035POPC   C1A28743  42.955  18.455   8.642
 2035POPC   D2A28744  43.014  18.154   8.343
 2035POPC   C3A28745  42.838  18.136   7.958
 2035POPC   C4A28746  43.025  18.005   7.615
 2035POPC   C1B28747  43.491  18.465   8.728
 2035POPC   C2B28748  43.340  18.555   8.299
 2035POPC   C3B28749  43.152  18.551   7.874
 2035POPC   C4B28750  43.487  18.698   7.595
 2036POPC   NC328751  17.713  16.312   9.421
 2036POPC   PO428752  17.484  16.951   9.439
 2036POPC   GL128753  17.620  16.709   9.097
 2036POPC   GL228754  17.365  16.478   8.950
 2036POPC   C1A28755  17.761  16.574   8.693
 2036POPC   D2A28756  17.489  16.460   8.409
 2036POPC   C3A28757  17.694  16.586   8.064
 2036POPC   C4A28758  17.519  16.591   7.696
 2036POPC   C1B28759  17.209  16.774   8.717
 2036POPC   C2B28760  17.332  16.933   8.359
 2036POPC   C3B28761  17.202  16.810   8.026
 2036POPC   C4B28762  17.150  16.952   7.630
 2037POPC   NC328763  40.525  21.877   9.567
 2037POPC   PO428764  41.118  22.300   9.760
 2037POPC   GL128765  40.814  22.175   9.302
 2037POPC   GL228766  40.833  21.872   9.141
 2037POPC   C1A28767  40.809  22.250   8.825
 2037POPC   D2A28768  40.755  22.463   8.457
 2037POPC   C3A28769  40.509  22.225   8.187
 2037POPC   C4A28770  40.711  22.201   7.804
 2037POPC   C1B28771  40.985  21.782   8.740
 2037POPC   C2B28772  40.911  21.950   8.317
 2037POPC   C3B28773  40.977  21.784   7.889
 2037POPC   C4B28774  40.887  21.836   7.397
 2038POPC   NC328775   0.544  23.028   9.767
 2038POPC   PO428776   0.495  22.424   9.604
 2038POPC   GL128777   0.416  22.695   9.195
 2038POPC   GL228778   0.479  23.057   9.069
 2038POPC   C1A28779   0.444  22.699   8.713
 2038POPC   D2A28780   0.553  22.820   8.268
 2038POPC   C3A28781   0.298  22.904   7.892
 2038POPC   C4A28782   0.446  22.854   7.453
 2038POPC   C1B28783   0.798  23.059   8.699
 2038POPC   C2B28784   0.945  23.185   8.283
 2038POPC   C3B28785   0.766  23.124   7.845
 2038POPC   C4B28786   0.751  23.342   7.422
 2039POPC   NC328787   9.389  27.270   9.686
 2039POPC   PO428788  10.083  27.231   9.799
 2039POPC   GL128789   9.901  27.353   9.371
 2039POPC   GL228790   9.613  27.581   9.310
 2039POPC   C1A28791   9.852  27.306   8.902
 2039POPC   D2A28792   9.695  27.194   8.459
 2039POPC   C3A28793   9.825  27.409   8.048
 2039POPC   C4A28794   9.677  27.444   7.603
 2039POPC   C1B28795   9.485  27.668   8.855
 2039POPC   C2B28796   9.559  27.724   8.405
 2039POPC   C3B28797   9.385  27.662   7.998
 2039POPC   C4B28798   9.319  27.794   7.592
 2040POPC   NC328799  40.548  34.458   9.429
 2040POPC   PO428800  41.157  34.451   9.559
 2040POPC   GL128801  40.983  34.630   9.181
 2040POPC   GL228802  40.753  34.908   9.261
 2040POPC   C1A28803  40.828  34.478   8.761
 2040POPC   D2A28804  41.052  34.433   8.346
 2040POPC   C3A28805  40.884  34.370   7.901
 2040POPC   C4A28806  40.830  34.568   7.466
 2040POPC   C1B28807  40.656  34.980   8.841
 2040POPC   C2B28808  40.623  34.837   8.430
 2040POPC   C3B28809  40.784  34.843   8.048
 2040POPC   C4B28810  40.592  35.033   7.732
 2041POPC   NC328811  25.017  42.800   9.500
 2041POPC   PO428812  24.919  42.135   9.506
 2041POPC   GL128813  25.181  42.292   9.169
 2041POPC   GL228814  25.054  42.594   9.052
 2041POPC   C1A28815  25.252  42.265   8.713
 2041POPC   D2A28816  25.068  42.059   8.372
 2041POPC   C3A28817  25.211  42.224   7.967
 2041POPC   C4A28818  25.517  42.233   7.660
 2041POPC   C1B28819  24.974  42.764   8.704
 2041POPC   C2B28820  25.024  42.576   8.328
 2041POPC   C3B28821  24.971  42.697   7.923
 2041POPC   C4B28822  24.988  42.582   7.489
 2042POPC   NC328823  38.008   4.087   9.364
 2042POPC   PO428824  37.409   3.807   9.551
 2042POPC   GL128825  37.506   4.126   9.278
 2042POPC   GL228826  37.666   4.479   9.246
 2042POPC   C1A28827  37.514   4.123   8.868
 2042POPC   D2A28828  37.694   4.264   8.504
 2042POPC   C3A28829  37.695   4.052   8.143
 2042POPC   C4A28830  37.499   4.288   7.824
 2042POPC   C1B28831  37.949   4.509   8.866
 2042POPC   C2B28832  38.108   4.558   8.436
 2042POPC   C3B28833  37.913   4.531   8.059
 2042POPC   C4B28834  37.994   4.276   7.733
 2043POPC   NC328835   4.937  42.774   9.638
 2043POPC   PO428836   5.320  43.304   9.608
 2043POPC   GL128837   5.313  43.053   9.183
 2043POPC   GL228838   4.984  42.844   9.119
 2043POPC   C1A28839   5.361  43.176   8.714
 2043POPC   D2A28840   5.157  43.377   8.322
 2043POPC   C3A28841   5.179  43.323   7.847
 2043POPC   C4A28842   5.042  43.073   7.449
 2043POPC   C1B28843   5.210  42.681   8.734
 2043POPC   C2B28844   5.333  42.839   8.302
 2043POPC   C3B28845   5.069  42.830   7.911
 2043POPC   C4B28846   4.716  42.713   7.599
 2044POPC   NC328847  18.009  11.098   9.467
 2044POPC   PO428848  18.103  11.742   9.491
 2044POPC   GL128849  18.448  11.549   9.231
 2044POPC   GL228850  18.439  11.189   9.206
 2044POPC   C1A28851  18.412  11.490   8.780
 2044POPC   D2A28852  18.281  11.538   8.353
 2044POPC   C3A28853  18.501  11.318   8.029
 2044POPC   C4A28854  18.392  11.278   7.612
 2044POPC   C1B28855  18.308  10.990   8.812
 2044POPC   C2B28856  18.264  11.044   8.368
 2044POPC   C3B28857  18.249  10.862   7.939
 2044POPC   C4B28858  18.311  10.818   7.466
 2045POPC   NC328859  33.974  38.763   9.463
 2045POPC   PO428860  33.546  38.302   9.675
 2045POPC   GL128861  33.613  38.471   9.231
 2045POPC   GL228862  33.911  38.283   9.106
 2045POPC   C1A28863  33.752  38.618   8.804
 2045POPC   D2A28864  33.971  38.424   8.459
 2045POPC   C3A28865  33.825  38.598   8.089
 2045POPC   C4A28866  33.666  38.488   7.720
 2045POPC   C1B28867  34.128  38.018   8.790
 2045POPC   C2B28868  34.047  37.867   8.395
 2045POPC   C3B28869  34.098  38.125   8.038
 2045POPC   C4B28870  34.169  38.003   7.657
 2046POPC   NC328871  34.959  16.240  10.001
 2046POPC   PO428872  35.233  15.895   9.436
 2046POPC   GL128873  35.282  16.007   9.112
 2046POPC   GL228874  35.152  16.344   9.142
 2046POPC   C1A28875  35.471  15.793   8.793
 2046POPC   D2A28876  35.461  15.542   8.426
 2046POPC   C3A28877  35.485  15.747   8.049
 2046POPC   C4A28878  35.475  15.976   7.702
 2046POPC   C1B28879  35.439  16.335   8.788
 2046POPC   C2B28880  35.419  16.119   8.409
 2046POPC   C3B28881  35.529  16.303   8.062
 2046POPC   C4B28882  35.308  16.443   7.694
 2047POPC   NC328883   4.382  34.147   9.729
 2047POPC   PO428884   4.189  34.728   9.570
 2047POPC   GL128885   4.328  34.782   9.160
 2047POPC   GL228886   4.156  35.094   9.142
 2047POPC   C1A28887   4.551  34.518   8.873
 2047POPC   D2A28888   4.588  34.450   8.424
 2047POPC   C3A28889   4.433  34.561   8.032
 2047POPC   C4A28890   4.504  34.793   7.660
 2047POPC   C1B28891   4.068  35.101   8.704
 2047POPC   C2B28892   4.101  34.840   8.325
 2047POPC   C3B28893   4.067  34.905   7.906
 2047POPC   C4B28894   3.983  35.021   7.498
 2048POPC   NC328895  34.415  40.833   9.336
 2048POPC   PO428896  34.947  41.223   9.318
 2048POPC   GL128897  34.757  41.085   9.010
 2048POPC   GL228898  34.849  40.746   9.081
 2048POPC   C1A28899  34.520  40.921   8.700
 2048POPC   D2A28900  34.703  40.925   8.361
 2048POPC   C3A28901  34.453  40.892   8.054
 2048POPC   C4A28902  34.546  40.739   7.684
 2048POPC   C1B28903  35.059  40.751   8.701
 2048POPC   C2B28904  34.989  40.523   8.346
 2048POPC   C3B28905  34.747  40.425   8.037
 2048POPC   C4B28906  34.905  40.269   7.682
 2049POPC   NC328907  39.759  35.893   9.233
 2049POPC   PO428908  40.157  36.418   9.341
 2049POPC   GL128909  40.008  36.259   8.981
 2049POPC   GL228910  40.180  35.956   8.950
 2049POPC   C1A28911  39.632  36.316   8.738
 2049POPC   D2A28912  39.699  36.470   8.350
 2049POPC   C3A28913  39.823  36.168   8.073
 2049POPC   C4A28914  39.878  36.269   7.665
 2049POPC   C1B28915  39.953  35.879   8.581
 2049POPC   C2B28916  39.881  35.678   8.185
 2049POPC   C3B28917  40.073  35.789   7.773
 2049POPC   C4B28918  40.126  35.940   7.328
 2050POPC   NC328919  15.358  37.707   9.595
 2050POPC   PO428920  14.671  37.974   9.534
 2050POPC   GL128921  15.005  37.932   9.255
 2050POPC   GL228922  15.033  37.618   9.200
 2050POPC   C1A28923  15.133  37.973   8.809
 2050POPC   D2A28924  14.940  37.953   8.410
 2050POPC   C3A28925  15.199  37.982   8.061
 2050POPC   C4A28926  15.322  37.796   7.694
 2050POPC   C1B28927  15.381  37.543   8.917
 2050POPC   C2B28928  15.380  37.612   8.463
 2050POPC   C3B28929  15.242  37.458   8.064
 2050POPC   C4B28930  15.443  37.304   7.705
 2051POPC   NC328931  29.270  44.423   9.508
 2051POPC   PO428932  28.928  43.707   9.468
 2051POPC   GL128933  29.199  43.805   9.138
 2051POPC   GL228934  29.468  43.553   9.055
 2051POPC   C1A28935  29.277  43.952   8.751
 2051POPC   D2A28936  29.423  44.200   8.419
 2051POPC   C3A28937  29.379  43.970   8.038
 2051POPC   C4A28938  29.051  44.108   7.744
 2051POPC   C1B28939  29.234  43.435   8.685
 2051POPC   C2B28940  29.071  43.660   8.340
 2051POPC   C3B28941  28.954  43.628   7.905
 2051POPC   C4B28942  29.300  43.664   7.622
 2052POPC   NC328943  34.187  30.567   9.503
 2052POPC   PO428944  33.611  30.859   9.663
 2052POPC   GL128945  33.863  30.932   9.275
 2052POPC   GL228946  33.905  30.625   9.084
 2052POPC   C1A28947  33.844  31.068   8.847
 2052POPC   D2A28948  33.899  30.772   8.521
 2052POPC   C3A28949  33.934  30.878   8.089
 2052POPC   C4A28950  33.962  30.699   7.680
 2052POPC   C1B28951  33.579  30.422   8.845
 2052POPC   C2B28952  33.576  30.298   8.433
 2052POPC   C3B28953  33.731  30.377   8.029
 2052POPC   C4B28954  33.501  30.376   7.661
 2053POPC   NC328955  44.553  13.403   9.378
 2053POPC   PO428956  44.964  13.916   9.307
 2053POPC   GL128957  44.716  13.803   8.999
 2053POPC   GL228958  44.440  14.022   9.073
 2053POPC   C1A28959  44.698  13.521   8.625
 2053POPC   D2A28960  44.449  13.550   8.253
 2053POPC   C3A28961  44.549  13.815   7.934
 2053POPC   C4A28962  44.779  13.496   7.742
 2053POPC   C1B28963  44.270  13.779   8.744
 2053POPC   C2B28964  44.028  13.837   8.402
 2053POPC   C3B28965  43.932  13.730   8.033
 2053POPC   C4B28966  44.127  13.857   7.647
 2054POPC   NC328967  40.837  18.710   9.595
 2054POPC   PO428968  40.903  18.065   9.443
 2054POPC   GL128969  40.896  18.349   9.115
 2054POPC   GL228970  40.588  18.368   8.971
 2054POPC   C1A28971  41.016  18.213   8.692
 2054POPC   D2A28972  41.052  18.448   8.333
 2054POPC   C3A28973  40.842  18.419   7.977
 2054POPC   C4A28974  40.981  18.179   7.668
 2054POPC   C1B28975  40.575  17.978   8.741
 2054POPC   C2B28976  40.718  17.983   8.310
 2054POPC   C3B28977  40.533  18.022   7.923
 2054POPC   C4B28978  40.361  17.963   7.535
 2055POPC   NC328979   1.783   5.757   9.440
 2055POPC   PO428980   2.382   6.138   9.419
 2055POPC   GL128981   2.119   6.003   9.093
 2055POPC   GL228982   1.762   6.102   9.086
 2055POPC   C1A28983   2.013   5.988   8.654
 2055POPC   D2A28984   1.758   5.918   8.288
 2055POPC   C3A28985   1.959   5.687   7.994
 2055POPC   C4A28986   2.208   5.353   7.957
 2055POPC   C1B28987   1.609   6.355   8.797
 2055POPC   C2B28988   1.812   6.428   8.392
 2055POPC   C3B28989   1.856   6.331   7.957
 2055POPC   C4B28990   2.176   6.081   7.779
 2056POPC   NC328991  42.733   7.797   9.502
 2056POPC   PO428992  42.308   7.225   9.440
 2056POPC   GL128993  42.318   7.381   9.045
 2056POPC   GL228994  41.983   7.368   9.001
 2056POPC   C1A28995  42.298   7.520   8.617
 2056POPC   D2A28996  42.500   7.279   8.266
 2056POPC   C3A28997  42.486   7.482   7.869
 2056POPC   C4A28998  42.244   7.780   7.592
 2056POPC   C1B28999  42.056   7.091   8.622
 2056POPC   C2B29000  41.995   7.149   8.206
 2056POPC   C3B29001  41.990   7.413   7.839
 2056POPC   C4B29002  41.854   7.475   7.389
 2057POPC   NC329003  26.936   3.038   9.425
 2057POPC   PO429004  26.878   3.630   9.146
 2057POPC   GL129005  26.831   3.219   8.968
 2057POPC   GL229006  26.526   3.043   9.105
 2057POPC   C1A29007  26.910   3.197   8.550
 2057POPC   D2A29008  26.915   3.583   8.328
 2057POPC   C3A29009  26.981   3.514   7.930
 2057POPC   C4A29010  27.135   3.696   7.592
 2057POPC   C1B29011  26.374   3.295   8.727
 2057POPC   C2B29012  26.423   3.431   8.287
 2057POPC   C3B29013  26.484   3.652   7.879
 2057POPC   C4B29014  26.660   3.436   7.528
 2058POPC   NC329015  38.156   7.439   9.358
 2058POPC   PO429016  38.640   7.041   9.183
 2058POPC   GL129017  38.532   7.389   9.006
 2058POPC   GL229018  38.682   7.593   9.259
 2058POPC   C1A29019  38.511   7.359   8.575
 2058POPC   D2A29020  38.522   7.037   8.253
 2058POPC   C3A29021  38.469   7.339   7.931
 2058POPC   C4A29022  38.351   7.680   7.697
 2058POPC   C1B29023  38.840   7.742   8.841
 2058POPC   C2B29024  38.629   7.853   8.465
 2058POPC   C3B29025  38.689   7.813   8.050
 2058POPC   C4B29026  38.887   7.609   7.744
 2059POPC   NC329027  44.995  25.898   9.384
 2059POPC   PO429028  44.379  26.277   9.546
 2059POPC   GL129029  44.506  26.102   9.181
 2059POPC   GL229030  44.789  26.326   9.144
 2059POPC   C1A29031  44.360  26.186   8.765
 2059POPC   D2A29032  44.462  26.005   8.378
 2059POPC   C3A29033  44.589  26.131   7.977
 2059POPC   C4A29034  44.486  25.726   7.835
 2059POPC   C1B29035  44.863  26.092   8.763
 2059POPC   C2B29036  44.975  26.087   8.341
 2059POPC   C3B29037  44.976  25.794   8.004
 2059POPC   C4B29038   0.110  26.021   7.693
 2060POPC   NC329039  28.745  37.037   9.522
 2060POPC   PO429040  29.324  37.228   9.421
 2060POPC   GL129041  29.229  36.983   9.088
 2060POPC   GL229042  28.897  37.079   9.044
 2060POPC   C1A29043  29.232  36.884   8.651
 2060POPC   D2A29044  29.233  37.150   8.299
 2060POPC   C3A29045  29.046  37.056   7.905
 2060POPC   C4A29046  29.217  36.717   7.764
 2060POPC   C1B29047  28.730  37.055   8.652
 2060POPC   C2B29048  28.830  36.827   8.315
 2060POPC   C3B29049  28.853  36.491   8.039
 2060POPC   C4B29050  28.671  36.542   7.652
 2061POPC   NC329051   0.099  23.059   9.425
 2061POPC   PO429052  44.397  23.189   9.417
 2061POPC   GL129053  44.600  22.908   9.112
 2061POPC   GL229054  44.951  22.887   8.969
 2061POPC   C1A29055  44.501  22.898   8.676
 2061POPC   D2A29056  44.544  23.076   8.266
 2061POPC   C3A29057  44.775  22.830   7.954
 2061POPC   C4A29058  44.569  22.685   7.600
 2061POPC   C1B29059   0.017  22.905   8.500
 2061POPC   C2B29060   0.010  23.233   8.181
 2061POPC   C3B29061  44.825  23.302   7.799
 2061POPC   C4B29062  44.921  23.023   7.458
 2062POPC   NC329063  27.602  19.642   9.537
 2062POPC   PO429064  27.777  20.278   9.484
 2062POPC   GL129065  27.706  19.972   9.151
 2062POPC   GL229066  27.332  19.964   9.227
 2062POPC   C1A29067  27.867  19.739   8.773
 2062POPC   D2A29068  27.721  19.701   8.332
 2062POPC   C3A29069  27.996  19.705   7.958
 2062POPC   C4A29070  27.923  19.733   7.498
 2062POPC   C1B29071  27.349  19.780   8.822
 2062POPC   C2B29072  27.233  19.927   8.438
 2062POPC   C3B29073  27.331  20.104   8.073
 2062POPC   C4B29074  27.556  19.911   7.779
 2063POPC   NC329075  17.878  39.662   9.375
 2063POPC   PO429076  17.384  40.026   9.691
 2063POPC   GL129077  17.514  40.000   9.240
 2063POPC   GL229078  17.210  40.038   9.100
 2063POPC   C1A29079  17.619  39.845   8.809
 2063POPC   D2A29080  17.549  39.919   8.383
 2063POPC   C3A29081  17.856  39.947   8.066
 2063POPC   C4A29082  17.577  40.034   7.740
 2063POPC   C1B29083  17.096  39.688   8.865
 2063POPC   C2B29084  16.912  39.631   8.424
 2063POPC   C3B29085  17.044  39.809   8.018
 2063POPC   C4B29086  17.194  39.622   7.646
 2064POPC   NC329087  34.970  21.154   9.527
 2064POPC   PO429088  35.576  21.545   9.461
 2064POPC   GL129089  35.295  21.410   9.126
 2064POPC   GL229090  35.202  21.052   9.092
 2064POPC   C1A29091  35.353  21.567   8.692
 2064POPC   D2A29092  35.649  21.492   8.324
 2064POPC   C3A29093  35.428  21.425   7.937
 2064POPC   C4A29094  35.227  21.772   7.700
 2064POPC   C1B29095  35.470  21.064   8.737
 2064POPC   C2B29096  35.474  21.001   8.285
 2064POPC   C3B29097  35.195  20.968   7.949
 2064POPC   C4B29098  35.243  20.944   7.517
 2065POPC   NC329099  31.198  19.876   9.423
 2065POPC   PO429100  31.665  19.426   9.462
 2065POPC   GL129101  31.447  19.540   9.107
 2065POPC   GL229102  31.588  19.842   9.063
 2065POPC   C1A29103  31.212  19.606   8.736
 2065POPC   D2A29104  31.250  19.383   8.346
 2065POPC   C3A29105  31.357  19.635   7.991
 2065POPC   C4A29106  31.701  19.638   7.685
 2065POPC   C1B29107  31.863  20.019   8.759
 2065POPC   C2B29108  31.835  20.224   8.366
 2065POPC   C3B29109  31.675  20.046   8.006
 2065POPC   C4B29110  31.528  20.108   7.610
 2066POPC   NC329111  38.723  42.982   9.798
 2066POPC   PO429112  39.321  43.118   9.431
 2066POPC   GL129113  39.131  42.957   9.091
 2066POPC   GL229114  38.804  42.833   9.261
 2066POPC   C1A29115  39.310  43.055   8.660
 2066POPC   D2A29116  39.476  42.819   8.276
 2066POPC   C3A29117  39.489  42.981   7.849
 2066POPC   C4A29118  39.287  43.363   7.679
 2066POPC   C1B29119  38.717  42.841   8.822
 2066POPC   C2B29120  38.942  42.795   8.448
 2066POPC   C3B29121  39.009  42.970   8.020
 2066POPC   C4B29122  39.051  42.927   7.564
 2067POPC   NC329123  33.348  23.055   9.538
 2067POPC   PO429124  34.026  22.933   9.537
 2067POPC   GL129125  33.841  23.011   9.149
 2067POPC   GL229126  33.487  23.003   9.044
 2067POPC   C1A29127  33.951  23.189   8.732
 2067POPC   D2A29128  33.681  23.148   8.361
 2067POPC   C3A29129  33.854  23.193   7.958
 2067POPC   C4A29130  34.190  23.098   7.694
 2067POPC   C1B29131  33.704  22.773   8.727
 2067POPC   C2B29132  33.794  22.471   8.491
 2067POPC   C3B29133  33.775  22.457   8.055
 2067POPC   C4B29134  33.775  22.745   7.719
 2068POPC   NC329135  17.397  14.499   9.508
 2068POPC   PO429136  18.000  14.239   9.479
 2068POPC   GL129137  17.730  14.304   9.143
 2068POPC   GL229138  17.735  14.675   9.129
 2068POPC   C1A29139  17.488  14.413   8.775
 2068POPC   D2A29140  17.262  14.340   8.409
 2068POPC   C3A29141  17.500  14.196   8.108
 2068POPC   C4A29142  17.412  14.086   7.731
 2068POPC   C1B29143  17.884  14.807   8.709
 2068POPC   C2B29144  17.694  14.630   8.328
 2068POPC   C3B29145  17.485  14.692   7.919
 2068POPC   C4B29146  17.716  14.854   7.563
 2069POPC   NC329147  40.272   4.189   9.524
 2069POPC   PO429148  39.754   4.660   9.462
 2069POPC   GL129149  39.927   4.403   9.143
 2069POPC   GL229150  40.246   4.533   9.141
 2069POPC   C1A29151  39.815   4.211   8.723
 2069POPC   D2A29152  39.820   3.951   8.335
 2069POPC   C3A29153  39.920   4.147   7.946
 2069POPC   C4A29154  39.655   4.376   7.654
 2069POPC   C1B29155  40.335   4.280   8.782
 2069POPC   C2B29156  40.407   4.080   8.380
 2069POPC   C3B29157  40.636   4.302   8.048
 2069POPC   C4B29158  40.328   4.441   7.754
 2070POPC   NC329159  10.915  38.197   9.498
 2070POPC   PO429160  10.337  38.079   9.814
 2070POPC   GL129161  10.299  38.155   9.297
 2070POPC   GL229162  10.119  38.484   9.272
 2070POPC   C1A29163  10.551  38.229   8.878
 2070POPC   D2A29164  10.915  38.170   8.542
 2070POPC   C3A29165  10.823  38.258   8.076
 2070POPC   C4A29166  10.766  38.007   7.692
 2070POPC   C1B29167  10.074  38.431   8.826
 2070POPC   C2B29168  10.288  38.613   8.478
 2070POPC   C3B29169  10.201  38.725   8.078
 2070POPC   C4B29170  10.421  38.546   7.757
 2071POPC   NC329171  36.123  27.625   9.685
 2071POPC   PO429172  35.873  28.111   9.420
 2071POPC   GL129173  36.054  27.739   9.147
 2071POPC   GL229174  36.242  27.447   9.179
 2071POPC   C1A29175  35.899  27.471   8.767
 2071POPC   D2A29176  35.689  27.578   8.380
 2071POPC   C3A29177  35.682  27.458   7.944
 2071POPC   C4A29178  35.986  27.720   7.737
 2071POPC   C1B29179  36.382  27.614   8.764
 2071POPC   C2B29180  36.240  27.500   8.351
 2071POPC   C3B29181  36.478  27.562   7.993
 2071POPC   C4B29182  36.532  27.325   7.637
 2072POPC   NC329183  22.298  19.301   9.499
 2072POPC   PO429184  22.171  18.679   9.241
 2072POPC   GL129185  22.097  19.082   9.082
 2072POPC   GL229186  22.398  19.227   9.020
 2072POPC   C1A29187  21.911  19.162   8.694
 2072POPC   D2A29188  21.952  18.817   8.383
 2072POPC   C3A29189  21.900  18.926   7.957
 2072POPC   C4A29190  21.803  19.334   7.794
 2072POPC   C1B29191  22.371  19.387   8.631
 2072POPC   C2B29192  22.169  19.284   8.248
 2072POPC   C3B29193  22.359  19.175   7.889
 2072POPC   C4B29194  22.460  19.404   7.526
 2073POPC   NC329195  23.560   7.854   9.487
 2073POPC   PO429196  24.014   7.282   9.618
 2073POPC   GL129197  23.908   7.380   9.162
 2073POPC   GL229198  23.753   7.728   9.052
 2073POPC   C1A29199  23.924   7.171   8.790
 2073POPC   D2A29200  23.702   7.120   8.420
 2073POPC   C3A29201  23.809   7.258   8.029
 2073POPC   C4A29202  23.928   7.403   7.596
 2073POPC   C1B29203  23.677   7.589   8.655
 2073POPC   C2B29204  23.678   7.713   8.255
 2073POPC   C3B29205  23.551   7.659   7.852
 2073POPC   C4B29206  23.299   7.385   7.623
 2074POPC   NC329207  42.757  10.214   9.674
 2074POPC   PO429208  43.174  10.694   9.579
 2074POPC   GL129209  43.238  10.573   9.173
 2074POPC   GL229210  42.910  10.668   9.117
 2074POPC   C1A29211  43.217  10.408   8.767
 2074POPC   D2A29212  43.325  10.561   8.390
 2074POPC   C3A29213  43.220  10.300   8.067
 2074POPC   C4A29214  43.176  10.489   7.669
 2074POPC   C1B29215  42.793  10.783   8.731
 2074POPC   C2B29216  42.965  10.943   8.395
 2074POPC   C3B29217  43.093  10.848   8.034
 2074POPC   C4B29218  42.862  10.959   7.690
 2075POPC   NC329219  16.113  44.982   9.500
 2075POPC   PO429220  15.920  44.298   9.504
 2075POPC   GL129221  16.007  44.458   9.111
 2075POPC   GL229222  16.312  44.642   9.151
 2075POPC   C1A29223  16.040  44.369   8.675
 2075POPC   D2A29224  15.818  44.273   8.297
 2075POPC   C3A29225  15.977  44.478   7.927
 2075POPC   C4A29226  15.850  44.940   7.872
 2075POPC   C1B29227  16.214  44.845   8.729
 2075POPC   C2B29228  16.227  44.824   8.247
 2075POPC   C3B29229  16.340  44.812   7.783
 2075POPC   C4B29230  16.454  44.568   7.444
 2076POPC   NC329231  34.520  10.159   9.503
 2076POPC   PO429232  34.570  10.707   9.597
 2076POPC   GL129233  34.649  10.646   9.203
 2076POPC   GL229234  34.430  10.885   9.088
 2076POPC   C1A29235  34.777  10.400   8.871
 2076POPC   D2A29236  34.580  10.342   8.472
 2076POPC   C3A29237  34.767  10.435   8.129
 2076POPC   C4A29238  34.609  10.388   7.754
 2076POPC   C1B29239  34.503  10.787   8.673
 2076POPC   C2B29240  34.486  10.839   8.250
 2076POPC   C3B29241  34.234  10.820   7.881
 2076POPC   C4B29242  34.382  10.774   7.469
 2077POPC   NC329243  43.011  21.426   9.518
 2077POPC   PO429244  43.528  21.576   9.126
 2077POPC   GL129245  43.210  21.430   8.935
 2077POPC   GL229246  43.078  21.151   9.090
 2077POPC   C1A29247  43.120  21.522   8.523
 2077POPC   D2A29248  43.390  21.305   8.281
 2077POPC   C3A29249  43.301  21.304   7.892
 2077POPC   C4A29250  43.267  20.914   7.725
 2077POPC   C1B29251  42.728  21.337   8.835
 2077POPC   C2B29252  42.617  21.437   8.433
 2077POPC   C3B29253  42.836  21.393   8.062
 2077POPC   C4B29254  42.784  21.196   7.664
 2078POPC   NC329255  16.273  37.310   9.400
 2078POPC   PO429256  15.827  37.749   9.693
 2078POPC   GL129257  15.786  37.816   9.217
 2078POPC   GL229258  16.120  37.741   9.187
 2078POPC   C1A29259  15.831  37.730   8.720
 2078POPC   D2A29260  15.837  37.737   8.235
 2078POPC   C3A29261  15.840  37.642   7.756
 2078POPC   C4A29262  15.611  37.612   7.315
 2078POPC   C1B29263  16.295  37.517   8.817
 2078POPC   C2B29264  16.154  37.376   8.472
 2078POPC   C3B29265  16.228  37.424   8.052
 2078POPC   C4B29266  16.294  37.225   7.670
 2079POPC   NC329267   4.215  12.187   9.661
 2079POPC   PO429268   4.580  11.693   9.347
 2079POPC   GL129269   4.169  11.954   9.205
 2079POPC   GL229270   4.205  12.347   9.087
 2079POPC   C1A29271   4.182  11.977   8.758
 2079POPC   D2A29272   4.509  11.934   8.453
 2079POPC   C3A29273   4.398  11.883   8.030
 2079POPC   C4A29274   4.046  11.867   7.766
 2079POPC   C1B29275   4.606  12.551   8.811
 2079POPC   C2B29276   4.765  12.556   8.367
 2079POPC   C3B29277   4.696  12.310   7.993
 2079POPC   C4B29278   4.364  12.270   7.659
 2080POPC   NC329279  36.316   2.428   9.460
 2080POPC   PO429280  36.258   1.810   9.508
 2080POPC   GL129281  36.141   2.011   9.136
 2080POPC   GL229282  35.930   1.731   9.073
 2080POPC   C1A29283  36.151   2.165   8.725
 2080POPC   D2A29284  36.074   2.376   8.320
 2080POPC   C3A29285  36.269   2.146   7.958
 2080POPC   C4A29286  36.286   1.789   7.660
 2080POPC   C1B29287  35.970   1.659   8.661
 2080POPC   C2B29288  35.979   1.877   8.289
 2080POPC   C3B29289  35.819   1.874   7.882
 2080POPC   C4B29290  35.781   1.513   7.620
 2081POPC   NC329291  25.554  28.458   9.309
 2081POPC   PO429292  24.890  28.588   9.515
 2081POPC   GL129293  25.040  28.553   9.120
 2081POPC   GL229294  25.141  28.256   9.047
 2081POPC   C1A29295  25.264  28.602   8.704
 2081POPC   D2A29296  25.148  28.302   8.385
 2081POPC   C3A29297  25.219  28.451   8.008
 2081POPC   C4A29298  25.443  28.383   7.679
 2081POPC   C1B29299  25.428  28.076   8.759
 2081POPC   C2B29300  25.324  27.828   8.400
 2081POPC   C3B29301  25.421  27.975   8.017
 2081POPC   C4B29302  25.553  27.901   7.625
 2082POPC   NC329303  41.610   4.339   9.768
 2082POPC   PO429304  42.032   4.690   9.392
 2082POPC   GL129305  41.683   4.551   9.177
 2082POPC   GL229306  41.652   4.238   9.040
 2082POPC   C1A29307  41.550   4.655   8.746
 2082POPC   D2A29308  41.789   4.667   8.375
 2082POPC   C3A29309  41.579   4.645   8.007
 2082POPC   C4A29310  41.679   4.436   7.612
 2082POPC   C1B29311  41.314   4.189   8.740
 2082POPC   C2B29312  41.361   4.314   8.329
 2082POPC   C3B29313  41.538   4.104   7.971
 2082POPC   C4B29314  41.380   3.991   7.536
 2083POPC   NC329315  10.069  41.014   9.356
 2083POPC   PO429316  10.049  41.701   9.390
 2083POPC   GL129317   9.822  41.472   9.078
 2083POPC   GL229318   9.532  41.256   9.149
 2083POPC   C1A29319   9.899  41.555   8.660
 2083POPC   D2A29320   9.918  41.913   8.393
 2083POPC   C3A29321   9.871  41.742   8.004
 2083POPC   C4A29322   9.505  41.623   7.811
 2083POPC   C1B29323   9.571  41.147   8.709
 2083POPC   C2B29324   9.616  41.310   8.271
 2083POPC   C3B29325   9.701  41.173   7.843
 2083POPC   C4B29326   9.349  41.177   7.535
 2084POPC   NC329327  18.831  35.661   9.623
 2084POPC   PO429328  19.386  35.278   9.425
 2084POPC   GL129329  19.151  35.252   9.070
 2084POPC   GL229330  18.916  35.527   9.122
 2084POPC   C1A29331  19.224  35.471   8.700
 2084POPC   D2A29332  18.970  35.691   8.430
 2084POPC   C3A29333  19.034  35.401   8.111
 2084POPC   C4A29334  19.426  35.246   7.945
 2084POPC   C1B29335  18.614  35.740   8.827
 2084POPC   C2B29336  18.481  35.848   8.386
 2084POPC   C3B29337  18.677  35.738   7.975
 2084POPC   C4B29338  18.756  35.522   7.570
 2085POPC   NC329339   7.674  15.925   9.412
 2085POPC   PO429340   8.319  15.892   9.418
 2085POPC   GL129341   8.066  15.887   9.072
 2085POPC   GL229342   7.949  15.596   9.043
 2085POPC   C1A29343   8.132  15.981   8.652
 2085POPC   D2A29344   8.295  16.167   8.264
 2085POPC   C3A29345   8.281  16.079   7.822
 2085POPC   C4A29346   8.438  16.162   7.421
 2085POPC   C1B29347   7.965  15.491   8.624
 2085POPC   C2B29348   7.950  15.736   8.242
 2085POPC   C3B29349   7.926  15.685   7.828
 2085POPC   C4B29350   8.199  15.693   7.471
 2086POPC   NC329351  27.018  13.363   9.464
 2086POPC   PO429352  26.664  14.017   9.368
 2086POPC   GL129353  26.570  13.776   9.017
 2086POPC   GL229354  26.805  13.488   9.006
 2086POPC   C1A29355  26.588  13.668   8.585
 2086POPC   D2A29356  26.791  13.586   8.187
 2086POPC   C3A29357  26.640  13.864   7.934
 2086POPC   C4A29358  26.289  13.965   7.733
 2086POPC   C1B29359  27.065  13.455   8.618
 2086POPC   C2B29360  27.200  13.295   8.203
 2086POPC   C3B29361  27.130  13.394   7.767
 2086POPC   C4B29362  27.124  13.258   7.319
 2087POPC   NC329363  30.045   4.889   9.370
 2087POPC   PO429364  29.783   5.384   9.722
 2087POPC   GL129365  29.828   5.370   9.231
 2087POPC   GL229366  30.044   5.583   9.063
 2087POPC   C1A29367  29.829   5.213   8.765
 2087POPC   D2A29368  29.807   5.152   8.324
 2087POPC   C3A29369  30.234   5.244   8.138
 2087POPC   C4A29370  30.313   5.043   7.746
 2087POPC   C1B29371  29.624   5.657   8.852
 2087POPC   C2B29372  29.411   5.503   8.499
 2087POPC   C3B29373  29.534   5.529   8.067
 2087POPC   C4B29374  29.845   5.287   7.816
 2088POPC   NC329375  41.502  28.226   9.800
 2088POPC   PO429376  41.884  28.000   9.320
 2088POPC   GL129377  41.892  28.231   8.972
 2088POPC   GL229378  41.908  28.503   9.141
 2088POPC   C1A29379  41.659  28.191   8.584
 2088POPC   D2A29380  41.461  28.058   8.216
 2088POPC   C3A29381  41.555  28.216   7.804
 2088POPC   C4A29382  41.285  28.249   7.455
 2088POPC   C1B29383  41.733  28.667   8.732
 2088POPC   C2B29384  41.655  28.613   8.275
 2088POPC   C3B29385  41.812  28.673   7.844
 2088POPC   C4B29386  41.612  28.646   7.417
 2089POPC   NC329387  39.317   1.901   9.484
 2089POPC   PO429388  39.479   2.488   9.483
 2089POPC   GL129389  39.512   2.213   9.106
 2089POPC   GL229390  39.138   2.084   9.047
 2089POPC   C1A29391  39.382   2.311   8.683
 2089POPC   D2A29392  39.136   2.174   8.293
 2089POPC   C3A29393  39.410   1.999   7.956
 2089POPC   C4A29394  39.421   1.593   7.775
 2089POPC   C1B29395  39.272   1.805   8.685
 2089POPC   C2B29396  39.138   1.626   8.263
 2089POPC   C3B29397  38.965   1.784   7.862
 2089POPC   C4B29398  39.041   2.274   7.775
 2090POPC   NC329399  36.506  19.329   9.233
 2090POPC   PO429400  35.861  19.225   9.458
 2090POPC   GL129401  36.039  19.008   9.107
 2090POPC   GL229402  36.368  18.837   9.069
 2090POPC   C1A29403  36.122  19.136   8.677
 2090POPC   D2A29404  36.410  19.419   8.438
 2090POPC   C3A29405  36.445  19.224   8.045
 2090POPC   C4A29406  36.020  19.238   7.889
 2090POPC   C1B29407  36.137  18.609   8.757
 2090POPC   C2B29408  36.083  18.708   8.310
 2090POPC   C3B29409  35.907  18.726   7.889
 2090POPC   C4B29410  35.943  18.726   7.424
 2091POPC   NC329411  36.456  32.803   9.797
 2091POPC   PO429412  35.935  33.014   9.471
 2091POPC   GL129413  36.054  33.106   9.042
 2091POPC   GL229414  36.217  32.772   9.094
 2091POPC   C1A29415  35.994  33.218   8.572
 2091POPC   D2A29416  35.716  33.496   8.318
 2091POPC   C3A29417  35.815  33.371   7.955
 2091POPC   C4A29418  36.084  33.091   7.823
 2091POPC   C1B29419  36.360  32.864   8.682
 2091POPC   C2B29420  36.359  32.994   8.262
 2091POPC   C3B29421  36.481  32.801   7.923
 2091POPC   C4B29422  36.166  32.496   7.865
 2092POPC   NC329423   5.759  12.236   9.485
 2092POPC   PO429424   6.127  11.649   9.638
 2092POPC   GL129425   6.058  11.899   9.245
 2092POPC   GL229426   5.705  11.802   9.132
 2092POPC   C1A29427   6.025  12.034   8.787
 2092POPC   D2A29428   5.935  11.921   8.325
 2092POPC   C3A29429   6.122  12.095   7.899
 2092POPC   C4A29430   6.071  12.237   7.445
 2092POPC   C1B29431   5.439  11.857   8.732
 2092POPC   C2B29432   5.420  11.759   8.285
 2092POPC   C3B29433   5.635  11.823   7.875
 2092POPC   C4B29434   5.641  12.221   7.688
 2093POPC   NC329435   5.384  13.756   9.400
 2093POPC   PO429436   6.038  13.595   9.656
 2093POPC   GL129437   5.862  13.632   9.235
 2093POPC   GL229438   5.929  13.957   9.187
 2093POPC   C1A29439   5.844  13.394   8.838
 2093POPC   D2A29440   6.013  13.407   8.453
 2093POPC   C3A29441   5.760  13.445   8.108
 2093POPC   C4A29442   6.105  13.460   7.825
 2093POPC   C1B29443   6.038  13.850   8.749
 2093POPC   C2B29444   5.850  13.899   8.306
 2093POPC   C3B29445   5.892  13.937   7.839
 2093POPC   C4B29446   5.604  14.001   7.464
 2094POPC   NC329447  41.939  20.649   9.370
 2094POPC   PO429448  41.322  20.681   9.355
 2094POPC   GL129449  41.515  20.373   9.083
 2094POPC   GL229450  41.858  20.362   8.964
 2094POPC   C1A29451  41.299  20.365   8.697
 2094POPC   D2A29452  41.083  20.490   8.327
 2094POPC   C3A29453  41.415  20.678   8.119
 2094POPC   C4A29454  41.569  20.915   7.777
 2094POPC   C1B29455  41.873  20.757   8.699
 2094POPC   C2B29456  41.934  20.752   8.256
 2094POPC   C3B29457  41.839  20.466   7.926
 2094POPC   C4B29458  41.745  20.553   7.472
 2095POPC   NC329459  27.625  24.328   9.524
 2095POPC   PO429460  27.617  24.944   9.355
 2095POPC   GL129461  27.357  24.658   9.194
 2095POPC   GL229462  27.624  24.520   9.038
 2095POPC   C1A29463  27.169  24.550   8.811
 2095POPC   D2A29464  27.208  24.422   8.432
 2095POPC   C3A29465  26.933  24.574   8.141
 2095POPC   C4A29466  27.172  24.631   7.784
 2095POPC   C1B29467  27.888  24.329   8.743
 2095POPC   C2B29468  27.840  24.173   8.339
 2095POPC   C3B29469  27.552  24.384   8.061
 2095POPC   C4B29470  27.654  24.456   7.643
 2096POPC   NC329471  36.210   3.845   9.383
 2096POPC   PO429472  35.794   3.209   9.416
 2096POPC   GL129473  36.091   3.407   9.084
 2096POPC   GL229474  36.207   3.709   8.892
 2096POPC   C1A29475  36.313   3.224   8.714
 2096POPC   D2A29476  36.472   3.348   8.288
 2096POPC   C3A29477  36.230   3.197   7.928
 2096POPC   C4A29478  36.038   3.319   7.554
 2096POPC   C1B29479  35.805   3.786   8.651
 2096POPC   C2B29480  35.712   3.812   8.193
 2096POPC   C3B29481  36.022   3.727   7.866
 2096POPC   C4B29482  36.483   3.737   7.913
 2097POPC   NC329483   3.757  23.520   9.475
 2097POPC   PO429484   3.859  24.182   9.409
 2097POPC   GL129485   3.552  23.923   9.141
 2097POPC   GL229486   3.571  23.548   8.988
 2097POPC   C1A29487   3.438  23.961   8.711
 2097POPC   D2A29488   3.652  24.087   8.333
 2097POPC   C3A29489   3.515  23.890   7.968
 2097POPC   C4A29490   3.692  23.624   7.705
 2097POPC   C1B29491   3.182  23.433   8.715
 2097POPC   C2B29492   3.021  23.290   8.312
 2097POPC   C3B29493   3.182  23.499   7.922
 2097POPC   C4B29494   3.232  23.542   7.460
 2098POPC   NC329495  19.068   8.509   9.448
 2098POPC   PO429496  18.658   7.953   9.405
 2098POPC   GL129497  18.973   8.111   9.110
 2098POPC   GL229498  19.349   8.034   9.168
 2098POPC   C1A29499  18.988   7.964   8.690
 2098POPC   D2A29500  18.906   7.933   8.231
 2098POPC   C3A29501  18.784   8.280   7.943
 2098POPC   C4A29502  18.867   8.244   7.485
 2098POPC   C1B29503  19.378   8.322   8.796
 2098POPC   C2B29504  19.248   8.290   8.350
 2098POPC   C3B29505  19.259   8.229   7.861
 2098POPC   C4B29506  19.370   8.351   7.454
 2099POPC   NC329507  41.381  11.059   9.590
 2099POPC   PO429508  41.751  11.670   9.524
 2099POPC   GL129509  41.637  11.320   9.220
 2099POPC   GL229510  41.264  11.239   9.115
 2099POPC   C1A29511  41.673  11.169   8.796
 2099POPC   D2A29512  41.525  11.337   8.408
 2099POPC   C3A29513  41.691  11.127   8.047
 2099POPC   C4A29514  41.892  11.232   7.644
 2099POPC   C1B29515  41.157  11.028   8.700
 2099POPC   C2B29516  41.283  10.905   8.267
 2099POPC   C3B29517  41.242  11.052   7.831
 2099POPC   C4B29518  41.200  10.955   7.394
 2100POPC   NC329519  34.768   9.429   9.526
 2100POPC   PO429520  34.985  10.116   9.507
 2100POPC   GL129521  34.732   9.939   9.125
 2100POPC   GL229522  34.681   9.564   9.041
 2100POPC   C1A29523  34.442  10.002   8.810
 2100POPC   D2A29524  34.234   9.936   8.427
 2100POPC   C3A29525  34.509   9.942   8.067
 2100POPC   C4A29526  34.442   9.901   7.648
 2100POPC   C1B29527  34.524   9.537   8.625
 2100POPC   C2B29528  34.713   9.466   8.231
 2100POPC   C3B29529  34.741   9.266   7.846
 2100POPC   C4B29530  34.725   9.443   7.416
 2101POPC   NC329531  33.638  16.909   9.521
 2101POPC   PO429532  34.262  17.090   9.392
 2101POPC   GL129533  33.967  16.801   9.161
 2101POPC   GL229534  34.036  16.437   9.078
 2101POPC   C1A29535  33.720  16.903   8.792
 2101POPC   D2A29536  33.552  17.084   8.389
 2101POPC   C3A29537  33.658  16.821   8.039
 2101POPC   C4A29538  33.636  16.614   7.635
 2101POPC   C1B29539  34.295  16.756   8.794
 2101POPC   C2B29540  34.155  17.092   8.510
 2101POPC   C3B29541  34.141  17.037   8.065
 2101POPC   C4B29542  33.934  17.028   7.660
 2102POPC   NC329543   6.023   1.819   9.478
 2102POPC   PO429544   5.984   2.451   9.369
 2102POPC   GL129545   5.803   2.122   9.070
 2102POPC   GL229546   5.942   1.763   8.993
 2102POPC   C1A29547   5.929   2.145   8.636
 2102POPC   D2A29548   6.165   1.959   8.319
 2102POPC   C3A29549   6.201   2.110   7.883
 2102POPC   C4A29550   6.153   2.072   7.442
 2102POPC   C1B29551   5.596   1.753   8.759
 2102POPC   C2B29552   5.706   1.736   8.370
 2102POPC   C3B29553   5.723   1.982   8.022
 2102POPC   C4B29554   5.483   1.817   7.699
 2103POPC   NC329555  15.426  12.694   9.761
 2103POPC   PO429556  15.012  13.205   9.432
 2103POPC   GL129557  15.103  13.059   9.077
 2103POPC   GL229558  15.417  12.947   9.209
 2103POPC   C1A29559  14.887  12.990   8.710
 2103POPC   D2A29560  15.050  13.056   8.332
 2103POPC   C3A29561  14.820  13.055   8.005
 2103POPC   C4A29562  14.939  12.928   7.617
 2103POPC   C1B29563  15.482  12.863   8.774
 2103POPC   C2B29564  15.523  12.891   8.337
 2103POPC   C3B29565  15.365  12.931   7.929
 2103POPC   C4B29566  15.633  12.825   7.615
 2104POPC   NC329567  10.354  16.119   9.496
 2104POPC   PO429568  10.779  15.574   9.622
 2104POPC   GL129569  10.801  15.894   9.236
 2104POPC   GL229570  10.679  16.240   9.138
 2104POPC   C1A29571  10.763  15.910   8.766
 2104POPC   D2A29572  10.831  15.673   8.393
 2104POPC   C3A29573  10.552  15.846   8.116
 2104POPC   C4A29574  10.680  15.846   7.714
 2104POPC   C1B29575  10.312  16.214   8.827
 2104POPC   C2B29576  10.162  16.010   8.470
 2104POPC   C3B29577  10.146  16.172   8.059
 2104POPC   C4B29578  10.197  16.068   7.638
 2105POPC   NC329579  17.978  33.217   9.611
 2105POPC   PO429580  17.372  33.052   9.484
 2105POPC   GL129581  17.424  33.186   9.086
 2105POPC   GL229582  17.356  32.869   8.964
 2105POPC   C1A29583  17.282  33.443   8.741
 2105POPC   D2A29584  17.337  33.607   8.299
 2105POPC   C3A29585  17.296  33.293   7.992
 2105POPC   C4A29586  17.046  33.190   7.623
 2105POPC   C1B29587  17.665  32.980   8.685
 2105POPC   C2B29588  17.601  32.901   8.265
 2105POPC   C3B29589  17.743  33.057   7.922
 2105POPC   C4B29590  17.920  32.948   7.566
 2106POPC   NC329591  41.794  42.035   9.445
 2106POPC   PO429592  41.211  42.502   9.371
 2106POPC   GL129593  41.411  42.210   9.107
 2106POPC   GL229594  41.143  42.003   9.039
 2106POPC   C1A29595  41.622  42.353   8.752
 2106POPC   D2A29596  41.360  42.660   8.571
 2106POPC   C3A29597  41.352  42.747   8.142
 2106POPC   C4A29598  41.475  42.633   7.751
 2106POPC   C1B29599  41.247  42.046   8.603
 2106POPC   C2B29600  41.492  42.227   8.251
 2106POPC   C3B29601  41.363  42.120   7.837
 2106POPC   C4B29602  41.337  42.288   7.405
 2107POPC   NC329603   7.693  30.928   9.487
 2107POPC   PO429604   6.973  30.810   9.460
 2107POPC   GL129605   7.264  30.784   9.105
 2107POPC   GL229606   7.587  30.947   9.014
 2107POPC   C1A29607   7.383  30.635   8.679
 2107POPC   D2A29608   7.669  30.639   8.314
 2107POPC   C3A29609   7.411  30.490   7.988
 2107POPC   C4A29610   7.629  30.445   7.624
 2107POPC   C1B29611   7.731  31.007   8.648
 2107POPC   C2B29612   7.792  31.165   8.254
 2107POPC   C3B29613   7.657  30.933   7.885
 2107POPC   C4B29614   7.575  31.025   7.457
 2108POPC   NC329615  23.853   2.967   9.531
 2108POPC   PO429616  23.229   2.707   9.297
 2108POPC   GL129617  23.543   2.956   9.106
 2108POPC   GL229618  23.851   2.759   9.074
 2108POPC   C1A29619  23.753   3.108   8.727
 2108POPC   D2A29620  23.768   2.790   8.448
 2108POPC   C3A29621  23.821   2.825   8.033
 2108POPC   C4A29622  23.574   2.712   7.729
 2108POPC   C1B29623  23.988   2.444   8.748
 2108POPC   C2B29624  24.103   2.421   8.288
 2108POPC   C3B29625  23.960   2.352   7.825
 2108POPC   C4B29626  23.977   2.272   7.332
 2109POPC   NC329627   8.688  33.243   9.454
 2109POPC   PO429628   9.301  33.039   9.575
 2109POPC   GL129629   9.065  32.989   9.221
 2109POPC   GL229630   9.049  33.309   9.083
 2109POPC   C1A29631   8.869  32.875   8.846
 2109POPC   D2A29632   8.673  32.774   8.470
 2109POPC   C3A29633   8.914  32.799   8.105
 2109POPC   C4A29634   8.810  32.812   7.659
 2109POPC   C1B29635   8.641  33.351   8.825
 2109POPC   C2B29636   8.487  33.284   8.398
 2109POPC   C3B29637   8.772  33.321   8.092
 2109POPC   C4B29638   9.069  33.218   7.823
 2110POPC   NC329639  12.983  25.872   9.423
 2110POPC   PO429640  12.525  26.368   9.562
 2110POPC   GL129641  12.733  26.271   9.184
 2110POPC   GL229642  12.559  25.960   9.134
 2110POPC   C1A29643  12.843  26.248   8.751
 2110POPC   D2A29644  12.680  26.108   8.339
 2110POPC   C3A29645  12.963  26.290   7.977
 2110POPC   C4A29646  13.103  26.339   7.527
 2110POPC   C1B29647  12.669  25.770   8.740
 2110POPC   C2B29648  12.929  25.659   8.358
 2110POPC   C3B29649  12.779  25.820   7.941
 2110POPC   C4B29650  12.988  25.831   7.571
 2111POPC   NC329651  35.494  37.986   9.474
 2111POPC   PO429652  35.017  37.501   9.589
 2111POPC   GL129653  35.343  37.538   9.255
 2111POPC   GL229654  35.297  37.840   9.043
 2111POPC   C1A29655  35.567  37.477   8.840
 2111POPC   D2A29656  35.446  37.700   8.461
 2111POPC   C3A29657  35.537  37.531   8.065
 2111POPC   C4A29658  35.334  37.330   7.748
 2111POPC   C1B29659  35.617  38.041   8.788
 2111POPC   C2B29660  35.590  38.195   8.363
 2111POPC   C3B29661  35.683  38.002   7.954
 2111POPC   C4B29662  35.689  37.709   7.587
 2112POPC   NC329663  41.327  18.292   9.404
 2112POPC   PO429664  41.843  17.911   9.399
 2112POPC   GL129665  41.663  18.085   9.068
 2112POPC   GL229666  41.800  18.402   9.154
 2112POPC   C1A29667  41.521  18.331   8.723
 2112POPC   D2A29668  41.493  18.165   8.316
 2112POPC   C3A29669  41.411  18.414   7.948
 2112POPC   C4A29670  41.527  18.173   7.607
 2112POPC   C1B29671  42.000  18.563   8.786
 2112POPC   C2B29672  41.842  18.571   8.383
 2112POPC   C3B29673  42.081  18.708   8.055
 2112POPC   C4B29674  41.870  18.600   7.668
 2113POPC   NC329675   0.340   3.982   9.397
 2113POPC   PO429676   0.669   4.593   9.485
 2113POPC   GL129677   0.560   4.394   9.136
 2113POPC   GL229678   0.258   4.508   9.079
 2113POPC   C1A29679   0.578   4.604   8.724
 2113POPC   D2A29680   0.304   4.606   8.435
 2113POPC   C3A29681   0.427   4.524   8.007
 2113POPC   C4A29682   0.482   4.582   7.561
 2113POPC   C1B29683   0.249   4.198   8.776
 2113POPC   C2B29684   0.171   4.108   8.370
 2113POPC   C3B29685   0.514   4.050   8.138
 2113POPC   C4B29686   0.567   4.075   7.694
 2114POPC   NC329687  43.730  16.240   9.583
 2114POPC   PO429688  44.183  15.810   9.521
 2114POPC   GL129689  44.135  15.906   9.121
 2114POPC   GL229690  43.795  15.960   9.160
 2114POPC   C1A29691  44.097  15.814   8.698
 2114POPC   D2A29692  44.041  15.594   8.317
 2114POPC   C3A29693  44.121  15.798   7.921
 2114POPC   C4A29694  44.242  16.020   7.534
 2114POPC   C1B29695  43.710  16.159   8.773
 2114POPC   C2B29696  43.829  16.078   8.339
 2114POPC   C3B29697  43.623  15.789   8.043
 2114POPC   C4B29698  43.712  15.818   7.606
 2115POPC   NC329699   1.610   9.612   9.463
 2115POPC   PO429700   2.306   9.831   9.489
 2115POPC   GL129701   1.995   9.851   9.170
 2115POPC   GL229702   1.694  10.074   9.097
 2115POPC   C1A29703   1.829   9.664   8.789
 2115POPC   D2A29704   1.858   9.452   8.394
 2115POPC   C3A29705   1.810   9.693   7.992
 2115POPC   C4A29706   2.191   9.701   7.779
 2115POPC   C1B29707   1.943  10.168   8.766
 2115POPC   C2B29708   1.909  10.024   8.375
 2115POPC   C3B29709   2.011  10.224   8.016
 2115POPC   C4B29710   1.926  10.111   7.623
 2116POPC   NC329711  23.521  22.176   9.693
 2116POPC   PO429712  23.933  21.878   9.148
 2116POPC   GL129713  23.868  22.187   8.827
 2116POPC   GL229714  23.719  22.519   9.006
 2116POPC   C1A29715  23.884  21.883   8.477
 2116POPC   D2A29716  23.517  21.607   8.459
 2116POPC   C3A29717  23.342  21.797   8.109
 2116POPC   C4A29718  23.565  22.070   7.834
 2116POPC   C1B29719  23.622  22.580   8.583
 2116POPC   C2B29720  23.799  22.348   8.246
 2116POPC   C3B29721  23.975  22.384   7.842
 2116POPC   C4B29722  23.693  22.377   7.453
 2117POPC   NC329723   5.394  14.653   9.364
 2117POPC   PO429724   5.102  14.156   9.737
 2117POPC   GL129725   4.850  14.195   9.276
 2117POPC   GL229726   4.903  14.578   9.208
 2117POPC   C1A29727   4.893  14.132   8.811
 2117POPC   D2A29728   4.787  14.268   8.402
 2117POPC   C3A29729   5.074  14.316   8.073
 2117POPC   C4A29730   4.848  14.374   7.706
 2117POPC   C1B29731   4.808  14.630   8.783
 2117POPC   C2B29732   5.149  14.653   8.473
 2117POPC   C3B29733   5.353  14.761   8.080
 2117POPC   C4B29734   5.220  14.712   7.710
 2118POPC   NC329735  26.455  26.326   9.305
 2118POPC   PO429736  26.050  25.753   9.440
 2118POPC   GL129737  25.901  25.907   9.041
 2118POPC   GL229738  26.150  26.123   8.978
 2118POPC   C1A29739  25.989  25.822   8.602
 2118POPC   D2A29740  25.899  25.957   8.213
 2118POPC   C3A29741  26.215  25.944   7.915
 2118POPC   C4A29742  26.067  26.043   7.487
 2118POPC   C1B29743  26.357  26.290   8.628
 2118POPC   C2B29744  26.410  26.360   8.216
 2118POPC   C3B29745  26.307  26.425   7.786
 2118POPC   C4B29746  26.249  26.517   7.351
 2119POPC   NC329747  39.883  19.442   9.496
 2119POPC   PO429748  40.235  20.010   9.491
 2119POPC   GL129749  40.091  19.898   9.109
 2119POPC   GL229750  39.815  20.033   8.955
 2119POPC   C1A29751  40.127  19.762   8.691
 2119POPC   D2A29752  40.044  19.838   8.294
 2119POPC   C3A29753  40.173  19.546   8.004
 2119POPC   C4A29754  40.276  19.716   7.584
 2119POPC   C1B29755  39.602  19.801   8.621
 2119POPC   C2B29756  39.571  19.716   8.186
 2119POPC   C3B29757  39.815  19.853   7.838
 2119POPC   C4B29758  39.794  19.897   7.409
 2120POPC   NC329759   7.026  37.277   9.514
 2120POPC   PO429760   7.637  36.857   9.423
 2120POPC   GL129761   7.521  36.869   9.033
 2120POPC   GL229762   7.224  37.053   9.108
 2120POPC   C1A29763   7.609  36.689   8.647
 2120POPC   D2A29764   7.356  36.698   8.309
 2120POPC   C3A29765   7.558  36.844   7.989
 2120POPC   C4A29766   7.452  37.076   7.667
 2120POPC   C1B29767   7.111  36.921   8.723
 2120POPC   C2B29768   7.094  37.153   8.364
 2120POPC   C3B29769   7.025  37.050   7.968
 2120POPC   C4B29770   6.975  36.928   7.556
 2121POPC   NC329771  29.997  44.020   9.646
 2121POPC   PO429772  29.378  43.995   9.661
 2121POPC   GL129773  29.682  43.987   9.244
 2121POPC   GL229774  30.072  44.097   9.148
 2121POPC   C1A29775  29.794  43.863   8.792
 2121POPC   D2A29776  29.867  43.963   8.344
 2121POPC   C3A29777  29.999  43.683   7.994
 2121POPC   C4A29778  29.937  43.829   7.593
 2121POPC   C1B29779  30.316  44.018   8.723
 2121POPC   C2B29780  30.368  43.924   8.252
 2121POPC   C3B29781  30.167  44.179   7.873
 2121POPC   C4B29782  30.045  44.259   7.372
 2122POPC   NC329783  38.508  27.256   9.389
 2122POPC   PO429784  38.360  27.901   9.496
 2122POPC   GL129785  38.471  27.718   9.091
 2122POPC   GL229786  38.293  27.432   8.943
 2122POPC   C1A29787  38.646  27.826   8.693
 2122POPC   D2A29788  38.533  27.563   8.366
 2122POPC   C3A29789  38.681  27.778   8.018
 2122POPC   C4A29790  38.524  27.604   7.664
 2122POPC   C1B29791  38.740  27.341   8.773
 2122POPC   C2B29792  38.813  27.076   8.394
 2122POPC   C3B29793  38.679  27.243   7.991
 2122POPC   C4B29794  38.801  27.150   7.573
 2123POPC   NC329795  10.929  27.873   9.398
 2123POPC   PO429796  11.510  27.585   9.560
 2123POPC   GL129797  11.425  27.688   9.163
 2123POPC   GL229798  11.119  27.536   9.099
 2123POPC   C1A29799  11.512  27.466   8.765
 2123POPC   D2A29800  11.687  27.387   8.343
 2123POPC   C3A29801  11.425  27.576   8.032
 2123POPC   C4A29802  11.422  27.649   7.599
 2123POPC   C1B29803  11.125  27.791   8.733
 2123POPC   C2B29804  11.005  27.680   8.314
 2123POPC   C3B29805  10.977  27.755   7.865
 2123POPC   C4B29806  10.873  27.465   7.555
 2124POPC   NC329807  28.642  41.891   9.386
 2124POPC   PO429808  28.624  42.592   9.522
 2124POPC   GL129809  28.407  42.334   9.182
 2124POPC   GL229810  28.258  42.615   9.070
 2124POPC   C1A29811  28.313  42.263   8.704
 2124POPC   D2A29812  28.406  42.059   8.283
 2124POPC   C3A29813  28.480  42.163   7.835
 2124POPC   C4A29814  28.238  42.320   7.482
 2124POPC   C1B29815  28.609  42.674   8.806
 2124POPC   C2B29816  28.641  42.507   8.392
 2124POPC   C3B29817  28.319  42.578   8.068
 2124POPC   C4B29818  28.452  42.732   7.677
 2125POPC   NC329819   8.022  37.237   9.437
 2125POPC   PO429820   8.396  36.639   9.508
 2125POPC   GL129821   8.396  36.899   9.128
 2125POPC   GL229822   8.047  36.830   9.085
 2125POPC   C1A29823   8.359  36.919   8.647
 2125POPC   D2A29824   8.006  36.811   8.320
 2125POPC   C3A29825   8.098  36.945   7.894
 2125POPC   C4A29826   8.472  37.085   7.648
 2125POPC   C1B29827   7.888  37.096   8.755
 2125POPC   C2B29828   7.638  37.199   8.373
 2125POPC   C3B29829   7.823  37.372   7.956
 2125POPC   C4B29830   7.869  37.310   7.506
 2126POPC   NC329831  16.713  15.862   9.605
 2126POPC   PO429832  17.240  16.118   9.250
 2126POPC   GL129833  16.889  15.987   9.010
 2126POPC   GL229834  16.587  16.107   9.153
 2126POPC   C1A29835  16.858  15.979   8.548
 2126POPC   D2A29836  17.024  15.750   8.167
 2126POPC   C3A29837  17.020  15.972   7.774
 2126POPC   C4A29838  17.050  16.413   7.756
 2126POPC   C1B29839  16.397  15.864   8.816
 2126POPC   C2B29840  16.480  15.695   8.365
 2126POPC   C3B29841  16.565  15.763   7.903
 2126POPC   C4B29842  16.445  15.530   7.557
 2127POPC   NC329843  34.323   3.000   9.462
 2127POPC   PO429844  34.969   2.882   9.646
 2127POPC   GL129845  34.941   2.733   9.169
 2127POPC   GL229846  34.578   2.679   9.128
 2127POPC   C1A29847  34.868   2.658   8.703
 2127POPC   D2A29848  34.507   2.540   8.448
 2127POPC   C3A29849  34.422   2.724   8.033
 2127POPC   C4A29850  34.751   2.957   7.829
 2127POPC   C1B29851  34.416   2.912   8.807
 2127POPC   C2B29852  34.207   3.006   8.443
 2127POPC   C3B29853  34.096   3.151   8.075
 2127POPC   C4B29854  34.140   3.024   7.676
 2128POPC   NC329855  13.093  21.904   9.380
 2128POPC   PO429856  12.760  21.478   9.852
 2128POPC   GL129857  12.700  21.532   9.354
 2128POPC   GL229858  12.578  21.229   9.209
 2128POPC   C1A29859  12.595  21.625   8.883
 2128POPC   D2A29860  12.838  21.640   8.495
 2128POPC   C3A29861  12.690  21.542   8.062
 2128POPC   C4A29862  12.942  21.461   7.674
 2128POPC   C1B29863  12.666  21.138   8.748
 2128POPC   C2B29864  12.869  21.143   8.347
 2128POPC   C3B29865  12.834  21.036   7.918
 2128POPC   C4B29866  12.401  21.146   7.842
 2129POPC   NC329867  29.149   9.280   9.526
 2129POPC   PO429868  28.838   9.903   9.380
 2129POPC   GL129869  29.081   9.675   9.158
 2129POPC   GL229870  29.414   9.740   9.289
 2129POPC   C1A29871  28.998   9.552   8.742
 2129POPC   D2A29872  28.864   9.571   8.332
 2129POPC   C3A29873  29.074   9.710   7.955
 2129POPC   C4A29874  29.276  10.050   7.776
 2129POPC   C1B29875  29.507   9.672   8.844
 2129POPC   C2B29876  29.371   9.672   8.408
 2129POPC   C3B29877  29.413   9.362   8.109
 2129POPC   C4B29878  29.484   9.353   7.673
 2130POPC   NC329879  22.715  26.440   9.293
 2130POPC   PO429880  23.170  26.865   9.575
 2130POPC   GL129881  23.080  26.800   9.185
 2130POPC   GL229882  23.239  26.461   9.227
 2130POPC   C1A29883  22.863  26.893   8.766
 2130POPC   D2A29884  22.699  27.054   8.380
 2130POPC   C3A29885  22.965  26.979   8.008
 2130POPC   C4A29886  22.856  26.899   7.574
 2130POPC   C1B29887  23.254  26.574   8.783
 2130POPC   C2B29888  23.223  26.723   8.394
 2130POPC   C3B29889  23.209  26.543   8.013
 2130POPC   C4B29890  23.267  26.598   7.582
 2131POPC   NC329891  34.837  31.326   9.521
 2131POPC   PO429892  35.628  31.567   9.502
 2131POPC   GL129893  35.430  31.560   9.114
 2131POPC   GL229894  35.094  31.507   9.120
 2131POPC   C1A29895  35.450  31.452   8.692
 2131POPC   D2A29896  35.492  31.770   8.367
 2131POPC   C3A29897  35.389  31.615   7.960
 2131POPC   C4A29898  35.149  31.300   7.704
 2131POPC   C1B29899  35.008  31.700   8.727
 2131POPC   C2B29900  35.027  31.504   8.340
 2131POPC   C3B29901  34.893  31.697   7.993
 2131POPC   C4B29902  34.999  31.775   7.605
 2132POPC   NC329903   6.194  25.059   9.502
 2132POPC   PO429904   5.871  25.612   9.712
 2132POPC   GL129905   5.884  25.311   9.200
 2132POPC   GL229906   6.180  25.235   9.020
 2132POPC   C1A29907   5.687  25.286   8.776
 2132POPC   D2A29908   5.684  25.490   8.359
 2132POPC   C3A29909   5.602  25.253   8.021
 2132POPC   C4A29910   5.774  25.270   7.649
 2132POPC   C1B29911   6.172  25.430   8.627
 2132POPC   C2B29912   6.195  25.547   8.202
 2132POPC   C3B29913   6.257  25.367   7.789
 2132POPC   C4B29914   6.254  25.386   7.327
 2133POPC   NC329915  43.425  35.875   9.430
 2133POPC   PO429916  42.998  35.389   9.414
 2133POPC   GL129917  42.905  35.600   9.013
 2133POPC   GL229918  43.252  35.659   8.980
 2133POPC   C1A29919  42.947  35.564   8.552
 2133POPC   D2A29920  43.119  35.212   8.335
 2133POPC   C3A29921  42.963  34.974   7.958
 2133POPC   C4A29922  43.297  35.007   7.672
 2133POPC   C1B29923  43.468  35.712   8.588
 2133POPC   C2B29924  43.365  35.628   8.161
 2133POPC   C3B29925  42.992  35.500   7.918
 2133POPC   C4B29926  42.562  35.646   7.846
 2134POPC   NC329927  18.533   4.354   9.459
 2134POPC   PO429928  18.002   4.005   9.477
 2134POPC   GL129929  18.203   4.183   9.098
 2134POPC   GL229930  18.544   3.978   9.097
 2134POPC   C1A29931  18.115   4.508   8.734
 2134POPC   D2A29932  17.919   4.610   8.319
 2134POPC   C3A29933  18.154   4.523   7.929
 2134POPC   C4A29934  18.520   4.559   7.690
 2134POPC   C1B29935  18.520   4.211   8.697
 2134POPC   C2B29936  18.275   4.219   8.318
 2134POPC   C3B29937  18.388   4.048   7.903
 2134POPC   C4B29938  18.687   4.050   7.550
 2135POPC   NC329939  33.536  14.382   9.794
 2135POPC   PO429940  34.070  14.607   9.349
 2135POPC   GL129941  34.020  14.375   9.014
 2135POPC   GL229942  33.723  14.261   9.110
 2135POPC   C1A29943  33.798  14.587   8.708
 2135POPC   D2A29944  33.569  14.704   8.358
 2135POPC   C3A29945  33.752  14.527   8.021
 2135POPC   C4A29946  33.793  14.639   7.614
 2135POPC   C1B29947  33.641  14.033   8.780
 2135POPC   C2B29948  33.753  14.167   8.397
 2135POPC   C3B29949  33.613  14.002   8.036
 2135POPC   C4B29950  33.604  14.164   7.660
 2136POPC   NC329951  23.134  38.570   9.464
 2136POPC   PO429952  22.934  39.176   9.548
 2136POPC   GL129953  22.845  39.108   9.115
 2136POPC   GL229954  22.498  39.204   9.060
 2136POPC   C1A29955  22.885  39.207   8.659
 2136POPC   D2A29956  22.714  39.251   8.226
 2136POPC   C3A29957  23.011  39.462   7.950
 2136POPC   C4A29958  23.366  39.347   7.663
 2136POPC   C1B29959  22.558  38.838   8.769
 2136POPC   C2B29960  22.790  38.764   8.375
 2136POPC   C3B29961  22.599  38.699   7.970
 2136POPC   C4B29962  22.747  38.676   7.559
 2137POPC   NC329963   6.507   0.570   9.643
 2137POPC   PO429964   6.929   0.157   9.347
 2137POPC   GL129965   6.630   0.463   9.118
 2137POPC   GL229966   6.298   0.657   9.084
 2137POPC   C1A29967   6.552   0.401   8.684
 2137POPC   D2A29968   6.757   0.189   8.341
 2137POPC   C3A29969   6.704   0.343   7.928
 2137POPC   C4A29970   6.364   0.218   7.633
 2137POPC   C1B29971   6.451   0.898   8.669
 2137POPC   C2B29972   6.581   0.789   8.204
 2137POPC   C3B29973   6.381   0.745   7.761
 2137POPC   C4B29974   6.398   0.863   7.282
 2138POPC   NC329975   8.599   9.574   9.448
 2138POPC   PO429976   9.131  10.067   9.463
 2138POPC   GL129977   8.970   9.804   9.136
 2138POPC   GL229978   8.625   9.902   9.043
 2138POPC   C1A29979   9.087   9.811   8.696
 2138POPC   D2A29980   9.145  10.049   8.302
 2138POPC   C3A29981   9.371   9.833   7.957
 2138POPC   C4A29982   9.251   9.524   7.636
 2138POPC   C1B29983   8.662   9.522   8.759
 2138POPC   C2B29984   8.795   9.392   8.330
 2138POPC   C3B29985   8.887   9.710   8.000
 2138POPC   C4B29986   8.866   9.838   7.520
 2139POPC   NC329987   5.358   7.290   9.457
 2139POPC   PO429988   5.973   7.571   9.454
 2139POPC   GL129989   5.907   7.571   9.076
 2139POPC   GL229990   6.216   7.463   8.995
 2139POPC   C1A29991   5.727   7.440   8.725
 2139POPC   D2A29992   5.866   7.354   8.308
 2139POPC   C3A29993   5.623   7.364   7.935
 2139POPC   C4A29994   5.789   7.372   7.547
 2139POPC   C1B29995   6.308   7.413   8.590
 2139POPC   C2B29996   6.365   7.401   8.192
 2139POPC   C3B29997   6.154   7.715   8.039
 2139POPC   C4B29998   6.182   7.643   7.673
 2140POPC   NC329999   0.625  41.767   9.386
 2140POPC   PO430000   0.549  41.111   9.554
 2140POPC   GL130001   0.542  41.330   9.152
 2140POPC   GL230002   0.245  41.560   9.092
 2140POPC   C1A30003   0.621  41.498   8.742
 2140POPC   D2A30004   0.634  41.760   8.388
 2140POPC   C3A30005   0.666  41.461   8.055
 2140POPC   C4A30006   0.703  41.546   7.651
 2140POPC   C1B30007   0.245  41.912   8.754
 2140POPC   C2B30008   0.103  42.065   8.355
 2140POPC   C3B30009   0.293  41.848   8.006
 2140POPC   C4B30010   0.207  41.517   7.740
 2141POPC   NC330011  35.570  36.367   9.771
 2141POPC   PO430012  35.342  35.788   9.519
 2141POPC   GL130013  35.499  36.113   9.259
 2141POPC   GL230014  35.288  36.411   9.240
 2141POPC   C1A30015  35.500  36.028   8.813
 2141POPC   D2A30016  35.248  36.100   8.437
 2141POPC   C3A30017  35.368  35.952   8.024
 2141POPC   C4A30018  35.128  35.893   7.652
 2141POPC   C1B30019  35.379  36.540   8.849
 2141POPC   C2B30020  35.324  36.599   8.416
 2141POPC   C3B30021  35.160  36.485   8.026
 2141POPC   C4B30022  35.398  36.343   7.696
 2142POPC   NC330023  31.578  20.713   9.476
 2142POPC   PO430024  30.971  20.325   9.493
 2142POPC   GL130025  31.399  20.304   9.238
 2142POPC   GL230026  31.276  20.540   9.086
 2142POPC   C1A30027  31.655  20.469   8.800
 2142POPC   D2A30028  31.388  20.488   8.401
 2142POPC   C3A30029  31.498  20.549   7.954
 2142POPC   C4A30030  31.211  20.839   7.736
 2142POPC   C1B30031  31.276  20.140   8.779
 2142POPC   C2B30032  31.351  19.968   8.385
 2142POPC   C3B30033  31.141  20.089   7.975
 2142POPC   C4B30034  31.064  20.305   7.567
 2143POPC   NC330035  14.706  44.476   9.362
 2143POPC   PO430036  14.321  44.873   9.661
 2143POPC   GL130037  14.387  44.832   9.174
 2143POPC   GL230038  14.387   0.168   9.018
 2143POPC   C1A30039  14.679  44.775   8.791
 2143POPC   D2A30040  14.845  44.766   8.374
 2143POPC   C3A30041  14.695  44.424   8.121
 2143POPC   C4A30042  14.462  44.587   7.786
 2143POPC   C1B30043  14.215  44.932   8.662
 2143POPC   C2B30044  14.344  44.857   8.238
 2143POPC   C3B30045  14.100  44.942   7.864
 2143POPC   C4B30046  13.957  44.902   7.433
 2144POPC   NC330047   7.823  21.344   9.561
 2144POPC   PO430048   8.496  21.217   9.601
 2144POPC   GL130049   8.380  21.351   9.194
 2144POPC   GL230050   8.112  21.137   9.129
 2144POPC   C1A30051   8.249  21.610   8.836
 2144POPC   D2A30052   8.041  21.598   8.390
 2144POPC   C3A30053   8.264  21.734   8.040
 2144POPC   C4A30054   8.398  21.509   7.718
 2144POPC   C1B30055   8.347  21.147   8.684
 2144POPC   C2B30056   8.369  21.194   8.203
 2144POPC   C3B30057   8.277  21.025   7.803
 2144POPC   C4B30058   8.011  21.182   7.493
 2145POPC   NC330059   6.586   9.338   9.448
 2145POPC   PO430060   7.154   8.988   9.494
 2145POPC   GL130061   6.784   8.933   9.195
 2145POPC   GL230062   6.694   9.234   8.963
 2145POPC   C1A30063   6.566   8.781   8.775
 2145POPC   D2A30064   6.513   9.030   8.409
 2145POPC   C3A30065   6.416   8.868   7.985
 2145POPC   C4A30066   6.672   8.789   7.628
 2145POPC   C1B30067   7.026   9.000   8.762
 2145POPC   C2B30068   7.018   8.881   8.384
 2145POPC   C3B30069   6.899   9.087   8.020
 2145POPC   C4B30070   7.103   9.073   7.650
 2146POPC   NC330071  40.867  27.162   9.322
 2146POPC   PO430072  40.485  26.908   9.812
 2146POPC   GL130073  40.752  26.683   9.375
 2146POPC   GL230074  41.094  26.696   9.160
 2146POPC   C1A30075  40.684  26.691   8.859
 2146POPC   D2A30076  40.707  26.434   8.444
 2146POPC   C3A30077  40.747  26.626   8.045
 2146POPC   C4A30078  40.649  26.753   7.621
 2146POPC   C1B30079  41.105  26.986   8.752
 2146POPC   C2B30080  41.144  27.107   8.315
 2146POPC   C3B30081  41.065  26.998   7.899
 2146POPC   C4B30082  41.221  27.143   7.541
 2147POPC   NC330083   4.762  26.720   9.506
 2147POPC   PO430084   5.232  27.141   9.572
 2147POPC   GL130085   5.303  27.017   9.162
 2147POPC   GL230086   4.982  26.891   9.089
 2147POPC   C1A30087   5.330  27.027   8.714
 2147POPC   D2A30088   5.595  27.086   8.348
 2147POPC   C3A30089   5.347  27.185   7.985
 2147POPC   C4A30090   5.307  26.840   7.718
 2147POPC   C1B30091   4.847  26.812   8.674
 2147POPC   C2B30092   4.937  26.942   8.263
 2147POPC   C3B30093   4.905  26.649   7.950
 2147POPC   C4B30094   4.909  26.590   7.518
 2148POPC   NC330095  18.574  31.570   9.524
 2148POPC   PO430096  19.236  31.661   9.795
 2148POPC   GL130097  19.144  31.732   9.307
 2148POPC   GL230098  19.475  31.742   9.164
 2148POPC   C1A30099  19.057  31.742   8.819
 2148POPC   D2A30100  19.323  31.651   8.398
 2148POPC   C3A30101  19.174  31.630   7.938
 2148POPC   C4A30102  18.729  31.581   7.772
 2148POPC   C1B30103  19.454  31.410   8.841
 2148POPC   C2B30104  19.557  31.180   8.462
 2148POPC   C3B30105  19.499  31.249   8.032
 2148POPC   C4B30106  19.303  31.264   7.596
 2149POPC   NC330107  15.011  30.419   9.784
 2149POPC   PO430108  14.875  29.837   9.368
 2149POPC   GL130109  15.085  29.923   9.013
 2149POPC   GL230110  15.442  29.805   9.021
 2149POPC   C1A30111  15.102  29.741   8.632
 2149POPC   D2A30112  15.179  29.708   8.217
 2149POPC   C3A30113  15.081  29.942   7.897
 2149POPC   C4A30114  14.876  29.875   7.543
 2149POPC   C1B30115  15.566  29.505   8.658
 2149POPC   C2B30116  15.563  29.413   8.197
 2149POPC   C3B30117  15.457  29.561   7.791
 2149POPC   C4B30118  15.745  29.833   7.516
 2150POPC   NC330119  44.627  36.838   9.642
 2150POPC   PO430120   0.024  37.318   9.512
 2150POPC   GL130121  44.838  37.015   9.197
 2150POPC   GL230122  44.509  37.136   9.075
 2150POPC   C1A30123  44.743  36.694   8.852
 2150POPC   D2A30124  44.552  36.800   8.434
 2150POPC   C3A30125  44.744  36.740   8.020
 2150POPC   C4A30126  44.495  36.798   7.639
 2150POPC   C1B30127  44.789  37.169   8.705
 2150POPC   C2B30128  44.868  37.203   8.265
 2150POPC   C3B30129  44.655  37.215   7.893
 2150POPC   C4B30130  44.917  37.080   7.551
 2151POPC   NC330131  41.881  43.631   9.564
 2151POPC   PO430132  41.233  43.906   9.505
 2151POPC   GL130133  41.533  43.766   9.213
 2151POPC   GL230134  41.746  44.005   9.068
 2151POPC   C1A30135  41.517  43.670   8.789
 2151POPC   D2A30136  41.408  43.645   8.393
 2151POPC   C3A30137  41.607  43.766   8.046
 2151POPC   C4A30138  41.363  44.036   7.809
 2151POPC   C1B30139  41.783  44.207   8.689
 2151POPC   C2B30140  41.584  44.236   8.284
 2151POPC   C3B30141  41.819  44.259   7.884
 2151POPC   C4B30142  41.712  44.200   7.450
 2152POPC   NC330143   4.539  11.233   9.305
 2152POPC   PO430144   4.089  11.634   9.647
 2152POPC   GL130145   4.032  11.449   9.183
 2152POPC   GL230146   4.298  11.518   8.980
 2152POPC   C1A30147   3.920  11.539   8.678
 2152POPC   D2A30148   4.057  11.284   8.304
 2152POPC   C3A30149   4.157  11.351   7.868
 2152POPC   C4A30150   4.188  11.078   7.491
 2152POPC   C1B30151   4.458  11.428   8.630
 2152POPC   C2B30152   4.584  11.401   8.243
 2152POPC   C3B30153   4.663  11.491   7.851
 2152POPC   C4B30154   4.458  11.543   7.458
 2153POPC   NC330155  13.036  32.718   9.322
 2153POPC   PO430156  13.676  32.956   9.530
 2153POPC   GL130157  13.651  33.024   9.113
 2153POPC   GL230158  13.337  33.092   9.130
 2153POPC   C1A30159  13.647  33.214   8.716
 2153POPC   D2A30160  13.922  33.170   8.394
 2153POPC   C3A30161  13.820  32.945   8.051
 2153POPC   C4A30162  13.946  33.095   7.672
 2153POPC   C1B30163  13.228  32.885   8.746
 2153POPC   C2B30164  13.266  32.671   8.390
 2153POPC   C3B30165  13.281  32.937   8.067
 2153POPC   C4B30166  13.452  32.886   7.684
 2154POPC   NC330167  42.290  33.418   9.579
 2154POPC   PO430168  42.592  33.979   9.446
 2154POPC   GL130169  42.314  33.828   9.133
 2154POPC   GL230170  41.992  33.936   9.204
 2154POPC   C1A30171  42.344  33.560   8.759
 2154POPC   D2A30172  42.392  33.694   8.327
 2154POPC   C3A30173  42.276  33.514   7.950
 2154POPC   C4A30174  42.240  33.672   7.511
 2154POPC   C1B30175  41.898  33.781   8.785
 2154POPC   C2B30176  41.938  33.954   8.407
 2154POPC   C3B30177  41.949  33.902   8.023
 2154POPC   C4B30178  41.785  33.838   7.656
 2155POPC   NC330179  19.140  18.729   9.477
 2155POPC   PO430180  18.504  18.902   9.596
 2155POPC   GL130181  18.736  18.811   9.162
 2155POPC   GL230182  19.114  18.887   9.018
 2155POPC   C1A30183  18.736  18.875   8.691
 2155POPC   D2A30184  18.809  18.625   8.293
 2155POPC   C3A30185  18.998  18.914   7.976
 2155POPC   C4A30186  19.038  19.071   7.526
 2155POPC   C1B30187  19.447  19.175   8.845
 2155POPC   C2B30188  19.670  19.371   8.487
 2155POPC   C3B30189  19.505  19.369   8.086
 2155POPC   C4B30190  19.465  19.037   7.789
 2156POPC   NC330191  16.413   2.565   9.330
 2156POPC   PO430192  16.709   2.138   9.686
 2156POPC   GL130193  16.723   2.101   9.212
 2156POPC   GL230194  16.480   2.236   8.976
 2156POPC   C1A30195  16.688   1.831   8.815
 2156POPC   D2A30196  16.543   1.986   8.421
 2156POPC   C3A30197  16.806   1.885   8.074
 2156POPC   C4A30198  16.680   1.711   7.690
 2156POPC   C1B30199  16.938   2.313   8.826
 2156POPC   C2B30200  17.010   2.271   8.399
 2156POPC   C3B30201  16.765   2.409   8.045
 2156POPC   C4B30202  16.846   2.207   7.632
 2157POPC   NC330203  12.649  30.392   9.480
 2157POPC   PO430204  13.060  29.834   9.543
 2157POPC   GL130205  12.852  30.006   9.200
 2157POPC   GL230206  13.160  30.164   9.131
 2157POPC   C1A30207  12.804  30.136   8.768
 2157POPC   D2A30208  12.550  30.097   8.416
 2157POPC   C3A30209  12.748  30.020   8.032
 2157POPC   C4A30210  12.510  29.785   7.774
 2157POPC   C1B30211  13.130  29.742   8.860
 2157POPC   C2B30212  13.034  29.785   8.402
 2157POPC   C3B30213  13.222  29.816   7.973
 2157POPC   C4B30214  13.247  30.248   7.839
 2158POPC   NC330215  39.796  15.495   9.438
 2158POPC   PO430216  40.328  15.941   9.463
 2158POPC   GL130217  40.054  16.016   9.111
 2158POPC   GL230218  39.757  15.795   9.004
 2158POPC   C1A30219  40.201  15.950   8.705
 2158POPC   D2A30220  40.013  15.758   8.362
 2158POPC   C3A30221  40.189  15.942   8.005
 2158POPC   C4A30222  40.543  16.122   7.860
 2158POPC   C1B30223  39.733  16.161   8.705
 2158POPC   C2B30224  39.791  16.220   8.250
 2158POPC   C3B30225  39.694  15.901   7.905
 2158POPC   C4B30226  39.956  15.859   7.557
 2159POPC   NC330227  33.009  15.439   9.528
 2159POPC   PO430228  33.211  14.858   9.488
 2159POPC   GL130229  33.197  15.140   9.119
 2159POPC   GL230230  32.897  14.987   9.009
 2159POPC   C1A30231  33.068  15.391   8.725
 2159POPC   D2A30232  32.704  15.381   8.383
 2159POPC   C3A30233  32.824  15.473   7.939
 2159POPC   C4A30234  33.272  15.481   7.861
 2159POPC   C1B30235  33.169  14.896   8.647
 2159POPC   C2B30236  33.070  14.638   8.293
 2159POPC   C3B30237  33.077  14.693   7.872
 2159POPC   C4B30238  33.031  15.064   7.681
 2160POPC   NC330239  22.666  11.142   9.753
 2160POPC   PO430240  23.063  11.568   9.567
 2160POPC   GL130241  22.897  11.321   9.246
 2160POPC   GL230242  23.172  11.159   9.168
 2160POPC   C1A30243  22.929  11.379   8.764
 2160POPC   D2A30244  23.155  11.504   8.384
 2160POPC   C3A30245  22.980  11.642   7.981
 2160POPC   C4A30246  23.030  11.572   7.543
 2160POPC   C1B30247  23.364  11.029   8.808
 2160POPC   C2B30248  23.218  10.972   8.397
 2160POPC   C3B30249  22.969  11.113   8.027
 2160POPC   C4B30250  23.014  10.930   7.617
 2161POPC   NC330251  43.833  37.427   9.490
 2161POPC   PO430252  44.168  36.824   9.614
 2161POPC   GL130253  44.018  36.903   9.211
 2161POPC   GL230254  43.671  36.919   9.117
 2161POPC   C1A30255  44.085  36.817   8.780
 2161POPC   D2A30256  44.032  37.074   8.423
 2161POPC   C3A30257  44.206  36.958   8.047
 2161POPC   C4A30258  44.066  37.138   7.686
 2161POPC   C1B30259  43.577  37.042   8.686
 2161POPC   C2B30260  43.503  36.869   8.254
 2161POPC   C3B30261  43.701  36.787   7.845
 2161POPC   C4B30262  43.686  36.963   7.422
 2162POPC   NC330263  25.825   5.484   9.819
 2162POPC   PO430264  26.226   4.962   9.656
 2162POPC   GL130265  25.991   4.959   9.225
 2162POPC   GL230266  25.658   4.824   9.251
 2162POPC   C1A30267  26.048   5.202   8.816
 2162POPC   D2A30268  26.175   5.061   8.443
 2162POPC   C3A30269  26.049   5.263   8.094
 2162POPC   C4A30270  25.951   5.259   7.690
 2162POPC   C1B30271  25.710   4.840   8.792
 2162POPC   C2B30272  25.654   5.019   8.317
 2162POPC   C3B30273  25.508   5.097   7.861
 2162POPC   C4B30274  25.629   5.097   7.347
 2163POPC   NC330275  15.305  25.564   9.414
 2163POPC   PO430276  14.657  25.216   9.383
 2163POPC   GL130277  14.991  25.289   9.127
 2163POPC   GL230278  14.899  25.653   9.077
 2163POPC   C1A30279  15.216  25.087   8.772
 2163POPC   D2A30280  15.517  25.038   8.424
 2163POPC   C3A30281  15.299  25.023   8.033
 2163POPC   C4A30282  15.462  25.225   7.642
 2163POPC   C1B30283  15.200  25.607   8.769
 2163POPC   C2B30284  15.160  25.408   8.381
 2163POPC   C3B30285  15.174  25.507   7.983
 2163POPC   C4B30286  15.021  25.499   7.600
 2164POPC   NC330287  19.539  44.919   9.297
 2164POPC   PO430288  19.865  44.450   9.602
 2164POPC   GL130289  19.993  44.658   9.160
 2164POPC   GL230290  19.973  44.973   8.939
 2164POPC   C1A30291  20.216  44.571   8.773
 2164POPC   D2A30292  20.024  44.520   8.363
 2164POPC   C3A30293  20.099  44.732   7.980
 2164POPC   C4A30294  19.878  44.506   7.651
 2164POPC   C1B30295  19.673  44.714   8.674
 2164POPC   C2B30296  19.551  44.752   8.200
 2164POPC   C3B30297  19.597  44.908   7.763
 2164POPC   C4B30298  19.623   0.060   7.303
 2165POPC   NC330299  31.993  38.189   9.603
 2165POPC   PO430300  32.047  38.858   9.694
 2165POPC   GL130301  32.184  38.635   9.305
 2165POPC   GL230302  32.247  38.280   9.167
 2165POPC   C1A30303  32.309  38.698   8.885
 2165POPC   D2A30304  32.328  38.578   8.460
 2165POPC   C3A30305  32.043  38.754   8.147
 2165POPC   C4A30306  32.226  38.699   7.733
 2165POPC   C1B30307  32.047  38.231   8.767
 2165POPC   C2B30308  31.893  38.305   8.364
 2165POPC   C3B30309  32.097  38.223   7.997
 2165POPC   C4B30310  31.923  38.268   7.625
 2166POPC   NC330311  24.768   1.737   9.399
 2166POPC   PO430312  24.467   2.344   9.537
 2166POPC   GL130313  24.363   2.199   9.098
 2166POPC   GL230314  24.654   2.011   8.979
 2166POPC   C1A30315  24.486   2.409   8.684
 2166POPC   D2A30316  24.690   2.273   8.283
 2166POPC   C3A30317  24.399   2.093   8.009
 2166POPC   C4A30318  24.241   1.935   7.615
 2166POPC   C1B30319  24.640   1.702   8.651
 2166POPC   C2B30320  24.482   1.634   8.242
 2166POPC   C3B30321  24.618   1.653   7.828
 2166POPC   C4B30322  24.679   1.777   7.388
 2167POPC   NC330323  31.997  35.911   9.894
 2167POPC   PO430324  31.461  36.047   9.417
 2167POPC   GL130325  31.455  36.158   9.007
 2167POPC   GL230326  31.793  36.101   8.990
 2167POPC   C1A30327  31.573  36.109   8.553
 2167POPC   D2A30328  31.260  36.069   8.240
 2167POPC   C3A30329  31.417  35.901   7.877
 2167POPC   C4A30330  31.180  36.190   7.678
 2167POPC   C1B30331  32.099  36.329   8.757
 2167POPC   C2B30332  31.945  36.489   8.381
 2167POPC   C3B30333  31.644  36.380   8.091
 2167POPC   C4B30334  31.708  36.318   7.654
 2168POPC   NC330335  40.351  21.104   9.494
 2168POPC   PO430336  40.885  21.547   9.518
 2168POPC   GL130337  40.740  21.329   9.200
 2168POPC   GL230338  40.470  21.527   9.175
 2168POPC   C1A30339  40.758  21.261   8.772
 2168POPC   D2A30340  40.742  21.491   8.399
 2168POPC   C3A30341  40.745  21.321   8.018
 2168POPC   C4A30342  40.822  21.362   7.596
 2168POPC   C1B30343  40.456  21.746   8.781
 2168POPC   C2B30344  40.267  21.715   8.360
 2168POPC   C3B30345  40.457  21.759   7.957
 2168POPC   C4B30346  40.400  21.903   7.527
 2169POPC   NC330347  29.714  18.450   9.514
 2169POPC   PO430348  30.309  18.032   9.460
 2169POPC   GL130349  30.065  18.290   9.180
 2169POPC   GL230350  29.743  18.115   9.089
 2169POPC   C1A30351  30.000  18.428   8.757
 2169POPC   D2A30352  29.802  18.497   8.345
 2169POPC   C3A30353  30.011  18.353   7.984
 2169POPC   C4A30354  30.346  18.470   7.719
 2169POPC   C1B30355  29.644  17.952   8.652
 2169POPC   C2B30356  29.629  17.979   8.171
 2169POPC   C3B30357  29.718  18.044   7.703
 2169POPC   C4B30358  29.638  17.956   7.229
 2170POPC   NC330359  13.011  36.544   9.490
 2170POPC   PO430360  12.738  37.079   9.769
 2170POPC   GL130361  12.828  37.041   9.305
 2170POPC   GL230362  12.506  36.949   9.270
 2170POPC   C1A30363  12.970  36.893   8.871
 2170POPC   D2A30364  13.014  37.039   8.440
 2170POPC   C3A30365  12.843  36.853   8.081
 2170POPC   C4A30366  12.884  37.153   7.792
 2170POPC   C1B30367  12.513  37.177   8.887
 2170POPC   C2B30368  12.509  36.968   8.502
 2170POPC   C3B30369  12.477  37.202   8.150
 2170POPC   C4B30370  12.364  37.166   7.767
 2171POPC   NC330371  22.631  31.960   9.606
 2171POPC   PO430372  23.254  32.107   9.544
 2171POPC   GL130373  23.071  32.166   9.130
 2171POPC   GL230374  22.754  32.293   9.230
 2171POPC   C1A30375  22.991  32.472   8.771
 2171POPC   D2A30376  22.670  32.540   8.447
 2171POPC   C3A30377  22.877  32.407   8.082
 2171POPC   C4A30378  23.096  32.222   7.773
 2171POPC   C1B30379  22.626  32.134   8.837
 2171POPC   C2B30380  22.733  32.028   8.417
 2171POPC   C3B30381  22.534  32.032   8.018
 2171POPC   C4B30382  22.613  32.286   7.646
 2172POPC   NC330383  44.417  29.801   9.394
 2172POPC   PO430384   0.079  29.797   9.680
 2172POPC   GL130385  44.984  29.985   9.183
 2172POPC   GL230386  44.651  30.163   9.139
 2172POPC   C1A30387  44.907  29.918   8.732
 2172POPC   D2A30388   0.073  29.725   8.364
 2172POPC   C3A30389  44.852  29.683   8.017
 2172POPC   C4A30390  44.776  29.940   7.716
 2172POPC   C1B30391  44.398  30.054   8.762
 2172POPC   C2B30392  44.553  29.939   8.349
 2172POPC   C3B30393  44.355  29.789   7.976
 2172POPC   C4B30394  44.311  30.088   7.660
 2173POPC   NC330395  10.770  34.591   9.245
 2173POPC   PO430396  11.281  34.474   9.622
 2173POPC   GL130397  11.287  34.452   9.172
 2173POPC   GL230398  11.613  34.346   9.066
 2173POPC   C1A30399  11.247  34.444   8.691
 2173POPC   D2A30400  11.477  34.469   8.275
 2173POPC   C3A30401  11.193  34.646   7.962
 2173POPC   C4A30402  11.136  34.929   7.626
 2173POPC   C1B30403  11.682  34.720   8.744
 2173POPC   C2B30404  11.879  34.800   8.311
 2173POPC   C3B30405  11.705  34.805   7.893
 2173POPC   C4B30406  11.569  34.452   7.667
 2174POPC   NC330407  28.505  14.986   9.936
 2174POPC   PO430408  28.351  14.537   9.567
 2174POPC   GL130409  28.347  14.394   9.097
 2174POPC   GL230410  28.545  14.095   9.058
 2174POPC   C1A30411  28.289  14.455   8.622
 2174POPC   D2A30412  28.329  14.766   8.273
 2174POPC   C3A30413  28.170  14.629   7.901
 2174POPC   C4A30414  28.419  14.480   7.560
 2174POPC   C1B30415  28.229  13.963   8.753
 2174POPC   C2B30416  28.198  14.000   8.298
 2174POPC   C3B30417  28.442  13.778   7.973
 2174POPC   C4B30418  28.473  13.871   7.525
 2175POPC   NC330419   7.822  43.603   9.433
 2175POPC   PO430420   7.856  44.150   9.862
 2175POPC   GL130421   7.739  44.150   9.363
 2175POPC   GL230422   8.057  44.094   9.239
 2175POPC   C1A30423   7.719  43.917   8.873
 2175POPC   D2A30424   7.670  44.018   8.412
 2175POPC   C3A30425   8.023  43.942   8.084
 2175POPC   C4A30426   8.046  43.746   7.648
 2175POPC   C1B30427   8.296  44.155   8.840
 2175POPC   C2B30428   8.351  43.988   8.466
 2175POPC   C3B30429   8.583  43.919   8.113
 2175POPC   C4B30430   8.573  43.817   7.706
 2176POPC   NC330431  35.778  39.525   9.584
 2176POPC   PO430432  35.950  38.916   9.247
 2176POPC   GL130433  36.231  39.243   9.157
 2176POPC   GL230434  36.520  39.393   9.020
 2176POPC   C1A30435  36.215  39.156   8.699
 2176POPC   D2A30436  36.153  38.851   8.386
 2176POPC   C3A30437  36.067  39.029   7.996
 2176POPC   C4A30438  36.319  38.904   7.678
 2176POPC   C1B30439  36.420  39.620   8.651
 2176POPC   C2B30440  36.300  39.517   8.216
 2176POPC   C3B30441  36.371  39.402   7.765
 2176POPC   C4B30442  36.521  39.372   7.346
 2177POPC   NC330443  24.149   5.410   9.499
 2177POPC   PO430444  24.787   5.154   9.489
 2177POPC   GL130445  24.457   5.067   9.237
 2177POPC   GL230446  24.525   5.396   9.119
 2177POPC   C1A30447  24.280   5.051   8.831
 2177POPC   D2A30448  24.203   4.744   8.540
 2177POPC   C3A30449  24.120   4.855   8.155
 2177POPC   C4A30450  24.258   4.882   7.754
 2177POPC   C1B30451  24.784   5.210   8.799
 2177POPC   C2B30452  24.818   5.279   8.356
 2177POPC   C3B30453  24.529   5.273   7.998
 2177POPC   C4B30454  24.611   5.187   7.556
 2178POPC   NC330455  13.457  42.730   9.411
 2178POPC   PO430456  13.125  43.274   9.529
 2178POPC   GL130457  13.424  43.237   9.192
 2178POPC   GL230458  13.489  43.614   9.188
 2178POPC   C1A30459  13.519  43.016   8.760
 2178POPC   D2A30460  13.480  42.872   8.288
 2178POPC   C3A30461  13.681  42.956   7.878
 2178POPC   C4A30462  13.560  42.957   7.440
 2178POPC   C1B30463  13.616  43.534   8.782
 2178POPC   C2B30464  13.762  43.346   8.429
 2178POPC   C3B30465  13.607  43.428   8.047
 2178POPC   C4B30466  13.377  43.360   7.673
 2179POPC   NC330467  13.137  23.418   9.419
 2179POPC   PO430468  13.671  23.866   9.442
 2179POPC   GL130469  13.542  23.588   9.140
 2179POPC   GL230470  13.254  23.812   9.097
 2179POPC   C1A30471  13.675  23.387   8.763
 2179POPC   D2A30472  13.733  23.297   8.322
 2179POPC   C3A30473  13.792  23.667   8.170
 2179POPC   C4A30474  13.820  23.858   7.817
 2179POPC   C1B30475  13.426  23.867   8.690
 2179POPC   C2B30476  13.359  23.935   8.261
 2179POPC   C3B30477  13.308  23.884   7.828
 2179POPC   C4B30478  13.517  24.191   7.617
 2180POPC   NC330479  18.964  42.439   9.431
 2180POPC   PO430480  19.523  42.206   9.285
 2180POPC   GL130481  19.288  42.603   9.052
 2180POPC   GL230482  18.923  42.779   9.046
 2180POPC   C1A30483  19.285  42.593   8.593
 2180POPC   D2A30484  19.119  42.337   8.251
 2180POPC   C3A30485  19.201  42.391   7.816
 2180POPC   C4A30486  18.995  42.614   7.511
 2180POPC   C1B30487  18.813  42.471   8.757
 2180POPC   C2B30488  18.624  42.497   8.360
 2180POPC   C3B30489  18.687  42.409   7.924
 2180POPC   C4B30490  18.836  41.980   7.769
 2181POPC   NC330491  16.828  12.334   9.452
 2181POPC   PO430492  16.447  11.889   9.718
 2181POPC   GL130493  16.508  11.938   9.262
 2181POPC   GL230494  16.516  12.275   9.059
 2181POPC   C1A30495  16.737  11.820   8.881
 2181POPC   D2A30496  17.017  11.904   8.534
 2181POPC   C3A30497  16.883  11.898   8.108
 2181POPC   C4A30498  16.762  11.890   7.652
 2181POPC   C1B30499  16.883  12.339   8.762
 2181POPC   C2B30500  16.997  12.397   8.298
 2181POPC   C3B30501  17.029  12.309   7.830
 2181POPC   C4B30502  16.890  12.305   7.363
 2182POPC   NC330503  30.903  22.149   9.760
 2182POPC   PO430504  31.523  22.044   9.427
 2182POPC   GL130505  31.519  22.098   9.003
 2182POPC   GL230506  31.805  22.302   8.931
 2182POPC   C1A30507  31.272  21.907   8.609
 2182POPC   D2A30508  31.463  21.974   8.190
 2182POPC   C3A30509  31.290  22.041   7.791
 2182POPC   C4A30510  31.205  22.274   7.423
 2182POPC   C1B30511  31.496  22.362   8.582
 2182POPC   C2B30512  31.504  22.500   8.179
 2182POPC   C3B30513  31.593  22.450   7.753
 2182POPC   C4B30514  31.755  22.806   7.526
 2183POPC   NC330515   7.859  27.745   9.477
 2183POPC   PO430516   8.356  27.277   9.401
 2183POPC   GL130517   8.040  27.474   9.068
 2183POPC   GL230518   7.809  27.819   8.986
 2183POPC   C1A30519   8.110  27.571   8.631
 2183POPC   D2A30520   8.403  27.770   8.343
 2183POPC   C3A30521   8.384  27.646   7.923
 2183POPC   C4A30522   8.278  27.460   7.543
 2183POPC   C1B30523   7.680  27.834   8.552
 2183POPC   C2B30524   7.912  27.765   8.158
 2183POPC   C3B30525   7.855  27.702   7.704
 2183POPC   C4B30526   8.054  27.855   7.313
 2184POPC   NC330527  17.140  17.261   9.510
 2184POPC   PO430528  17.619  17.676   9.366
 2184POPC   GL130529  17.446  17.447   9.071
 2184POPC   GL230530  17.262  17.151   9.024
 2184POPC   C1A30531  17.471  17.570   8.671
 2184POPC   D2A30532  17.511  17.399   8.273
 2184POPC   C3A30533  17.443  17.584   7.896
 2184POPC   C4A30534  17.683  17.567   7.577
 2184POPC   C1B30535  17.646  17.084   8.744
 2184POPC   C2B30536  17.836  17.005   8.323
 2184POPC   C3B30537  17.637  17.073   7.887
 2184POPC   C4B30538  17.635  16.996   7.422
 2185POPC   NC330539  24.796  29.076   9.516
 2185POPC   PO430540  24.123  29.140   9.417
 2185POPC   GL130541  24.447  28.996   9.145
 2185POPC   GL230542  24.564  29.327   9.119
 2185POPC   C1A30543  24.614  28.947   8.739
 2185POPC   D2A30544  24.340  28.993   8.407
 2185POPC   C3A30545  24.480  29.038   7.981
 2185POPC   C4A30546  24.325  29.211   7.597
 2185POPC   C1B30547  24.381  29.407   8.726
 2185POPC   C2B30548  24.569  29.435   8.311
 2185POPC   C3B30549  24.754  29.477   7.890
 2185POPC   C4B30550  24.596  29.621   7.477
 2186POPC   NC330551  32.217  32.430   9.482
 2186POPC   PO430552  31.943  31.821   9.454
 2186POPC   GL130553  32.194  32.079   9.121
 2186POPC   GL230554  32.503  32.308   9.098
 2186POPC   C1A30555  32.051  32.239   8.745
 2186POPC   D2A30556  32.062  32.062   8.327
 2186POPC   C3A30557  32.010  32.270   7.992
 2186POPC   C4A30558  32.272  32.319   7.664
 2186POPC   C1B30559  32.387  32.637   8.805
 2186POPC   C2B30560  32.242  32.557   8.385
 2186POPC   C3B30561  32.470  32.617   8.027
 2186POPC   C4B30562  32.794  32.519   7.739
 2187POPC   NC330563  27.209  42.580   9.511
 2187POPC   PO430564  26.524  42.477   9.539
 2187POPC   GL130565  26.793  42.602   9.205
 2187POPC   GL230566  26.699  42.272   9.090
 2187POPC   C1A30567  27.031  42.581   8.832
 2187POPC   D2A30568  26.974  42.291   8.476
 2187POPC   C3A30569  27.082  42.466   8.074
 2187POPC   C4A30570  26.983  42.430   7.672
 2187POPC   C1B30571  26.507  42.500   8.754
 2187POPC   C2B30572  26.492  42.476   8.330
 2187POPC   C3B30573  26.647  42.212   8.056
 2187POPC   C4B30574  26.588  42.096   7.675
 2188POPC   NC330575  32.891  34.640   9.631
 2188POPC   PO430576  32.663  35.155   9.328
 2188POPC   GL130577  32.906  34.834   9.127
 2188POPC   GL230578  32.974  34.473   9.160
 2188POPC   C1A30579  33.157  34.856   8.750
 2188POPC   D2A30580  32.970  34.910   8.355
 2188POPC   C3A30581  32.998  34.615   8.028
 2188POPC   C4A30582  32.956  34.564   7.599
 2188POPC   C1B30583  32.830  34.485   8.730
 2188POPC   C2B30584  32.769  34.287   8.354
 2188POPC   C3B30585  32.564  34.352   7.961
 2188POPC   C4B30586  32.565  34.240   7.552
 2189POPC   NC330587   6.265   5.407   9.477
 2189POPC   PO430588   5.604   5.327   9.580
 2189POPC   GL130589   5.818   5.269   9.157
 2189POPC   GL230590   5.958   5.577   9.060
 2189POPC   C1A30591   5.898   4.895   8.850
 2189POPC   D2A30592   5.681   4.789   8.452
 2189POPC   C3A30593   5.925   4.731   8.066
 2189POPC   C4A30594   5.772   4.911   7.684
 2189POPC   C1B30595   5.952   5.345   8.640
 2189POPC   C2B30596   5.916   5.213   8.195
 2189POPC   C3B30597   5.687   5.394   7.829
 2189POPC   C4B30598   5.634   5.321   7.373
 2190POPC   NC330599   3.807  42.217   9.449
 2190POPC   PO430600   3.172  42.433   9.583
 2190POPC   GL130601   3.366  42.259   9.203
 2190POPC   GL230602   3.491  42.572   9.098
 2190POPC   C1A30603   3.605  42.200   8.777
 2190POPC   D2A30604   3.534  42.098   8.331
 2190POPC   C3A30605   3.603  42.318   7.931
 2190POPC   C4A30606   3.317  42.124   7.592
 2190POPC   C1B30607   3.719  42.716   8.770
 2190POPC   C2B30608   3.865  42.592   8.364
 2190POPC   C3B30609   3.810  42.793   7.966
 2190POPC   C4B30610   3.790  42.695   7.524
 2191POPC   NC330611  27.675  41.784   9.351
 2191POPC   PO430612  28.059  41.183   9.172
 2191POPC   GL130613  27.861  41.506   8.974
 2191POPC   GL230614  27.584  41.292   9.007
 2191POPC   C1A30615  27.667  41.567   8.570
 2191POPC   D2A30616  27.657  41.222   8.260
 2191POPC   C3A30617  27.744  41.387   7.857
 2191POPC   C4A30618  27.590  41.809   7.747
 2191POPC   C1B30619  27.304  41.184   8.685
 2191POPC   C2B30620  27.168  41.414   8.308
 2191POPC   C3B30621  27.199  41.451   7.850
 2191POPC   C4B30622  27.412  41.242   7.502
 2192POPC   NC330623  26.121  20.798   9.751
 2192POPC   PO430624  25.837  20.257   9.467
 2192POPC   GL130625  26.059  20.513   9.129
 2192POPC   GL230626  26.188  20.848   9.228
 2192POPC   C1A30627  26.077  20.493   8.663
 2192POPC   D2A30628  25.797  20.630   8.306
 2192POPC   C3A30629  25.912  20.559   7.866
 2192POPC   C4A30630  26.202  20.486   7.539
 2192POPC   C1B30631  26.208  20.981   8.802
 2192POPC   C2B30632  26.391  20.822   8.384
 2192POPC   C3B30633  26.422  20.736   7.932
 2192POPC   C4B30634  26.199  20.985   7.609
 2193POPC   NC330635  33.693  15.556   9.671
 2193POPC   PO430636  33.806  14.939   9.697
 2193POPC   GL130637  33.689  15.136   9.270
 2193POPC   GL230638  33.919  15.315   9.144
 2193POPC   C1A30639  33.641  15.079   8.764
 2193POPC   D2A30640  33.631  15.224   8.281
 2193POPC   C3A30641  33.508  14.980   7.886
 2193POPC   C4A30642  33.449  14.944   7.392
 2193POPC   C1B30643  34.037  15.637   8.822
 2193POPC   C2B30644  34.096  15.583   8.365
 2193POPC   C3B30645  34.230  15.536   7.919
 2193POPC   C4B30646  34.237  15.332   7.498
 2194POPC   NC330647  31.090   2.399   9.252
 2194POPC   PO430648  31.669   2.767   9.568
 2194POPC   GL130649  31.581   2.950   9.192
 2194POPC   GL230650  31.241   2.994   9.241
 2194POPC   C1A30651  31.744   2.801   8.799
 2194POPC   D2A30652  31.781   2.575   8.404
 2194POPC   C3A30653  31.692   2.795   8.082
 2194POPC   C4A30654  31.581   2.812   7.698
 2194POPC   C1B30655  31.248   2.968   8.791
 2194POPC   C2B30656  31.260   2.757   8.406
 2194POPC   C3B30657  31.167   2.876   8.000
 2194POPC   C4B30658  31.077   2.623   7.635
 2195POPC   NC330659   0.111  28.367   9.511
 2195POPC   PO430660   0.794  28.288   9.523
 2195POPC   GL130661   0.539  28.222   9.140
 2195POPC   GL230662   0.205  28.121   9.066
 2195POPC   C1A30663   0.575  28.230   8.690
 2195POPC   D2A30664   0.680  28.588   8.436
 2195POPC   C3A30665   0.634  28.612   7.976
 2195POPC   C4A30666   0.626  28.309   7.596
 2195POPC   C1B30667   0.075  28.337   8.700
 2195POPC   C2B30668   0.170  28.461   8.316
 2195POPC   C3B30669   0.181  28.329   7.894
 2195POPC   C4B30670   0.157  28.353   7.447
 2196POPC   NC330671  36.922  31.630   9.193
 2196POPC   PO430672  36.572  31.356   9.750
 2196POPC   GL130673  36.882  31.155   9.326
 2196POPC   GL230674  36.695  31.148   8.996
 2196POPC   C1A30675  37.173  31.149   8.856
 2196POPC   D2A30676  37.262  31.477   8.490
 2196POPC   C3A30677  37.145  31.454   8.037
 2196POPC   C4A30678  36.845  31.254   7.784
 2196POPC   C1B30679  36.729  31.388   8.587
 2196POPC   C2B30680  36.655  31.576   8.155
 2196POPC   C3B30681  36.695  31.807   7.749
 2196POPC   C4B30682  36.529  31.808   7.329
 2197POPC   NC330683  25.095   4.035   9.549
 2197POPC   PO430684  25.659   3.562   9.310
 2197POPC   GL130685  25.487   3.695   8.932
 2197POPC   GL230686  25.255   3.912   9.084
 2197POPC   C1A30687  25.411   3.567   8.522
 2197POPC   D2A30688  25.476   3.216   8.264
 2197POPC   C3A30689  25.527   3.351   7.846
 2197POPC   C4A30690  25.588   3.476   7.428
 2197POPC   C1B30691  24.990   3.778   8.737
 2197POPC   C2B30692  25.039   3.868   8.314
 2197POPC   C3B30693  25.080   3.532   8.057
 2197POPC   C4B30694  25.058   3.474   7.637
 2198POPC   NC330695   9.187   3.036   9.471
 2198POPC   PO430696   8.543   2.793   9.516
 2198POPC   GL130697   8.691   2.614   9.127
 2198POPC   GL230698   9.054   2.729   9.066
 2198POPC   C1A30699   8.671   2.792   8.708
 2198POPC   D2A30700   8.775   3.137   8.438
 2198POPC   C3A30701   8.882   2.909   8.059
 2198POPC   C4A30702   8.582   2.737   7.788
 2198POPC   C1B30703   9.242   2.995   8.724
 2198POPC   C2B30704   9.278   3.156   8.295
 2198POPC   C3B30705   9.381   2.909   7.892
 2198POPC   C4B30706   9.244   2.536   7.623
 2199POPC   NC330707  10.148  13.638   9.785
 2199POPC   PO430708   9.495  13.719   9.491
 2199POPC   GL130709   9.598  13.517   9.112
 2199POPC   GL230710   9.629  13.848   8.926
 2199POPC   C1A30711   9.795  13.433   8.709
 2199POPC   D2A30712   9.690  13.610   8.339
 2199POPC   C3A30713   9.603  13.299   8.070
 2199POPC   C4A30714   9.709  13.391   7.638
 2199POPC   C1B30715  10.014  13.911   8.654
 2199POPC   C2B30716  10.180  13.783   8.298
 2199POPC   C3B30717  10.080  13.625   7.903
 2199POPC   C4B30718   9.881  13.854   7.583
 2200POPC   NC330719  33.511   0.545   9.661
 2200POPC   PO430720  34.155   0.704   9.596
 2200POPC   GL130721  33.848   0.599   9.283
 2200POPC   GL230722  33.912   0.283   9.214
 2200POPC   C1A30723  33.868   0.663   8.853
 2200POPC   D2A30724  33.915   0.505   8.472
 2200POPC   C3A30725  33.732   0.574   8.118
 2200POPC   C4A30726  33.990   0.633   7.749
 2200POPC   C1B30727  33.802   0.142   8.805
 2200POPC   C2B30728  33.562   0.126   8.424
 2200POPC   C3B30729  33.635   0.044   7.995
 2200POPC   C4B30730  33.814   0.182   7.626
 2201POPC   NC330731  36.012  36.848   9.662
 2201POPC   PO430732  36.505  37.316   9.622
 2201POPC   GL130733  36.463  37.056   9.181
 2201POPC   GL230734  36.069  37.002   9.149
 2201POPC   C1A30735  36.381  36.820   8.781
 2201POPC   D2A30736  36.052  36.751   8.439
 2201POPC   C3A30737  36.164  36.787   8.031
 2201POPC   C4A30738  36.363  37.165   7.986
 2201POPC   C1B30739  36.067  37.210   8.717
 2201POPC   C2B30740  35.907  37.235   8.285
 2201POPC   C3B30741  35.849  37.157   7.827
 2201POPC   C4B30742  35.699  37.205   7.393
 2202POPC   NC330743  18.849  26.512   9.508
 2202POPC   PO430744  19.367  26.877   9.551
 2202POPC   GL130745  19.258  26.968   9.138
 2202POPC   GL230746  19.173  26.622   9.115
 2202POPC   C1A30747  19.133  26.948   8.697
 2202POPC   D2A30748  18.890  26.751   8.366
 2202POPC   C3A30749  18.878  26.980   7.948
 2202POPC   C4A30750  18.769  27.149   7.528
 2202POPC   C1B30751  19.010  26.398   8.768
 2202POPC   C2B30752  18.988  26.234   8.359
 2202POPC   C3B30753  18.961  26.460   7.955
 2202POPC   C4B30754  18.978  26.655   7.555
 2203POPC   NC330755  12.404   4.924   9.560
 2203POPC   PO430756  11.957   5.332   9.272
 2203POPC   GL130757  11.910   4.924   9.137
 2203POPC   GL230758  12.240   4.894   9.081
 2203POPC   C1A30759  11.762   4.896   8.721
 2203POPC   D2A30760  11.890   5.136   8.362
 2203POPC   C3A30761  11.792   4.901   8.029
 2203POPC   C4A30762  11.550   4.974   7.687
 2203POPC   C1B30763  12.286   5.133   8.716
 2203POPC   C2B30764  12.394   5.286   8.318
 2203POPC   C3B30765  12.284   5.057   7.974
 2203POPC   C4B30766  12.055   5.019   7.617
 2204POPC   NC330767   3.619   2.348   9.576
 2204POPC   PO430768   3.357   2.990   9.431
 2204POPC   GL130769   3.373   2.821   9.046
 2204POPC   GL230770   3.429   2.469   9.114
 2204POPC   C1A30771   3.523   2.923   8.651
 2204POPC   D2A30772   3.873   2.736   8.464
 2204POPC   C3A30773   3.861   2.795   8.070
 2204POPC   C4A30774   3.872   3.005   7.737
 2204POPC   C1B30775   3.561   2.409   8.717
 2204POPC   C2B30776   3.364   2.529   8.335
 2204POPC   C3B30777   3.431   2.587   7.916
 2204POPC   C4B30778   3.502   2.430   7.544
 2205POPC   NC330779  33.164   2.932   9.337
 2205POPC   PO430780  33.307   2.345   9.271
 2205POPC   GL130781  32.978   2.564   9.029
 2205POPC   GL230782  32.808   2.930   8.985
 2205POPC   C1A30783  32.777   2.558   8.667
 2205POPC   D2A30784  32.624   2.727   8.283
 2205POPC   C3A30785  32.800   2.552   7.889
 2205POPC   C4A30786  32.687   2.495   7.450
 2205POPC   C1B30787  32.934   3.054   8.587
 2205POPC   C2B30788  33.190   2.858   8.311
 2205POPC   C3B30789  33.268   2.786   7.906
 2205POPC   C4B30790  33.117   2.772   7.491
 2206POPC   NC330791  39.308  32.750   9.344
 2206POPC   PO430792  39.108  33.348   9.533
 2206POPC   GL130793  39.212  33.186   9.129
 2206POPC   GL230794  39.515  33.251   9.163
 2206POPC   C1A30795  39.132  32.945   8.763
 2206POPC   D2A30796  39.074  32.667   8.441
 2206POPC   C3A30797  39.059  32.878   8.060
 2206POPC   C4A30798  39.006  33.009   7.666
 2206POPC   C1B30799  39.608  33.107   8.758
 2206POPC   C2B30800  39.380  33.140   8.361
 2206POPC   C3B30801  39.487  33.115   7.934
 2206POPC   C4B30802  39.450  33.273   7.504
 2207POPC   NC330803  25.711  40.258   9.274
 2207POPC   PO430804  25.477  39.627   9.291
 2207POPC   GL130805  25.228  39.955   9.121
 2207POPC   GL230806  24.910  39.810   9.067
 2207POPC   C1A30807  25.334  40.155   8.728
 2207POPC   D2A30808  25.556  40.136   8.375
 2207POPC   C3A30809  25.317  40.233   8.000
 2207POPC   C4A30810  25.413  39.993   7.609
 2207POPC   C1B30811  25.056  39.718   8.690
 2207POPC   C2B30812  25.066  39.917   8.323
 2207POPC   C3B30813  25.223  39.712   7.994
 2207POPC   C4B30814  25.066  39.594   7.618
 2208POPC   NC330815  30.608  18.410   9.475
 2208POPC   PO430816  31.128  18.093   9.727
 2208POPC   GL130817  30.965  18.084   9.271
 2208POPC   GL230818  30.933  18.437   9.104
 2208POPC   C1A30819  30.717  18.043   8.871
 2208POPC   D2A30820  30.529  18.293   8.542
 2208POPC   C3A30821  30.576  18.175   8.103
 2208POPC   C4A30822  30.779  18.052   7.703
 2208POPC   C1B30823  30.898  18.623   8.696
 2208POPC   C2B30824  30.809  18.627   8.250
 2208POPC   C3B30825  30.825  18.605   7.817
 2208POPC   C4B30826  31.012  18.868   7.510
 2209POPC   NC330827  10.752  19.452   9.353
 2209POPC   PO430828  10.181  19.136   9.610
 2209POPC   GL130829  10.256  19.328   9.175
 2209POPC   GL230830  10.514  19.092   9.067
 2209POPC   C1A30831  10.181  19.224   8.696
 2209POPC   D2A30832  10.334  18.838   8.435
 2209POPC   C3A30833  10.303  18.881   7.976
 2209POPC   C4A30834  10.207  18.936   7.524
 2209POPC   C1B30835  10.750  18.923   8.716
 2209POPC   C2B30836  10.820  19.067   8.292
 2209POPC   C3B30837  10.764  19.073   7.854
 2209POPC   C4B30838  10.640  19.184   7.438
 2210POPC   NC330839   5.624   7.886   9.375
 2210POPC   PO430840   5.606   8.499   9.364
 2210POPC   GL130841   5.847   8.247   9.061
 2210POPC   GL230842   6.178   8.021   9.130
 2210POPC   C1A30843   5.829   8.316   8.641
 2210POPC   D2A30844   6.059   8.232   8.268
 2210POPC   C3A30845   5.875   8.277   7.853
 2210POPC   C4A30846   5.936   8.195   7.383
 2210POPC   C1B30847   6.083   7.876   8.708
 2210POPC   C2B30848   5.771   7.845   8.439
 2210POPC   C3B30849   5.677   7.842   8.056
 2210POPC   C4B30850   5.673   7.844   7.643
 2211POPC   NC330851   4.848   6.911   9.493
 2211POPC   PO430852   5.373   6.303   9.405
 2211POPC   GL130853   5.179   6.529   9.042
 2211POPC   GL230854   4.853   6.692   9.039
 2211POPC   C1A30855   5.195   6.641   8.636
 2211POPC   D2A30856   5.447   6.493   8.312
 2211POPC   C3A30857   5.257   6.649   7.945
 2211POPC   C4A30858   5.138   7.055   7.775
 2211POPC   C1B30859   4.778   6.341   8.745
 2211POPC   C2B30860   4.932   6.223   8.328
 2211POPC   C3B30861   4.812   6.281   7.904
 2211POPC   C4B30862   4.861   6.599   7.601
 2212POPC   NC330863  43.068  12.616   9.624
 2212POPC   PO430864  42.800  13.145   9.436
 2212POPC   GL130865  42.981  13.017   9.082
 2212POPC   GL230866  43.127  12.730   9.142
 2212POPC   C1A30867  43.011  12.975   8.657
 2212POPC   D2A30868  43.176  13.126   8.291
 2212POPC   C3A30869  42.947  13.152   7.916
 2212POPC   C4A30870  43.102  13.096   7.492
 2212POPC   C1B30871  43.424  12.756   8.822
 2212POPC   C2B30872  43.324  12.633   8.387
 2212POPC   C3B30873  43.205  12.710   7.910
 2212POPC   C4B30874  43.257  12.616   7.449
 2213POPC   NC330875  42.291  18.038   9.491
 2213POPC   PO430876  42.160  18.662   9.416
 2213POPC   GL130877  42.343  18.365   9.096
 2213POPC   GL230878  42.179  18.063   9.012
 2213POPC   C1A30879  42.461  18.315   8.675
 2213POPC   D2A30880  42.576  18.471   8.263
 2213POPC   C3A30881  42.409  18.370   7.849
 2213POPC   C4A30882  42.529  18.033   7.529
 2213POPC   C1B30883  41.984  18.078   8.660
 2213POPC   C2B30884  42.144  18.187   8.300
 2213POPC   C3B30885  41.913  18.227   7.989
 2213POPC   C4B30886  42.042  18.131   7.592
 2214POPC   NC330887  37.159   9.365   9.655
 2214POPC   PO430888  36.841   8.796   9.526
 2214POPC   GL130889  36.810   9.078   9.154
 2214POPC   GL230890  37.096   9.345   9.121
 2214POPC   C1A30891  36.877   9.122   8.694
 2214POPC   D2A30892  36.800   9.228   8.268
 2214POPC   C3A30893  36.767   8.948   7.983
 2214POPC   C4A30894  36.801   8.713   7.660
 2214POPC   C1B30895  37.283   9.458   8.692
 2214POPC   C2B30896  37.256   9.462   8.199
 2214POPC   C3B30897  37.081   9.329   7.769
 2214POPC   C4B30898  36.968   9.405   7.308
 2215POPC   NC330899  36.806  25.508   9.510
 2215POPC   PO430900  37.105  24.924   9.541
 2215POPC   GL130901  36.994  25.172   9.146
 2215POPC   GL230902  37.122  25.543   9.101
 2215POPC   C1A30903  36.713  25.317   8.793
 2215POPC   D2A30904  36.628  25.080   8.396
 2215POPC   C3A30905  36.884  25.100   8.024
 2215POPC   C4A30906  36.750  25.239   7.624
 2215POPC   C1B30907  37.305  25.630   8.679
 2215POPC   C2B30908  37.018  25.565   8.298
 2215POPC   C3B30909  37.068  25.564   7.836
 2215POPC   C4B30910  37.059  25.553   7.322
 2216POPC   NC330911   0.431  15.515   9.430
 2216POPC   PO430912   0.300  14.850   9.437
 2216POPC   GL130913   0.438  15.125   9.068
 2216POPC   GL230914   0.258  15.457   8.960
 2216POPC   C1A30915   0.390  15.104   8.609
 2216POPC   D2A30916   0.240  15.319   8.248
 2216POPC   C3A30917   0.438  15.089   7.944
 2216POPC   C4A30918   0.414  14.926   7.537
 2216POPC   C1B30919   0.513  15.609   8.623
 2216POPC   C2B30920   0.761  15.413   8.290
 2216POPC   C3B30921   0.769  15.495   7.843
 2216POPC   C4B30922   0.415  15.541   7.667
 2217POPC   NC330923  18.277   7.698   9.561
 2217POPC   PO430924  17.779   7.148   9.532
 2217POPC   GL130925  18.017   7.273   9.158
 2217POPC   GL230926  18.316   7.443   9.118
 2217POPC   C1A30927  18.084   7.202   8.727
 2217POPC   D2A30928  17.828   7.280   8.388
 2217POPC   C3A30929  18.116   7.278   8.070
 2217POPC   C4A30930  18.183   7.391   7.644
 2217POPC   C1B30931  18.560   7.652   8.817
 2217POPC   C2B30932  18.610   7.567   8.396
 2217POPC   C3B30933  18.521   7.561   7.985
 2217POPC   C4B30934  18.532   7.084   7.871
 2218POPC   NC330935  25.247  35.117   9.403
 2218POPC   PO430936  25.333  34.560   9.748
 2218POPC   GL130937  25.324  34.591   9.275
 2218POPC   GL230938  25.135  34.295   9.148
 2218POPC   C1A30939  25.519  34.491   8.862
 2218POPC   D2A30940  25.508  34.249   8.493
 2218POPC   C3A30941  25.448  34.532   8.167
 2218POPC   C4A30942  25.517  34.578   7.730
 2218POPC   C1B30943  25.006  34.434   8.763
 2218POPC   C2B30944  25.005  34.250   8.340
 2218POPC   C3B30945  25.081  34.272   7.892
 2218POPC   C4B30946  24.708  34.432   7.669
 2219POPC   NC330947  13.560  16.088   9.573
 2219POPC   PO430948  13.276  15.434   9.676
 2219POPC   GL130949  13.559  15.649   9.254
 2219POPC   GL230950  13.691  15.974   9.123
 2219POPC   C1A30951  13.439  15.767   8.753
 2219POPC   D2A30952  13.601  15.688   8.378
 2219POPC   C3A30953  13.468  15.823   7.963
 2219POPC   C4A30954  13.398  15.989   7.555
 2219POPC   C1B30955  13.948  15.808   8.801
 2219POPC   C2B30956  14.122  15.687   8.419
 2219POPC   C3B30957  13.960  15.623   8.006
 2219POPC   C4B30958  13.900  15.901   7.680
 2220POPC   NC330959   2.121  36.613   9.525
 2220POPC   PO430960   1.814  37.252   9.385
 2220POPC   GL130961   2.047  37.199   9.067
 2220POPC   GL230962   2.188  36.894   9.117
 2220POPC   C1A30963   2.059  37.147   8.641
 2220POPC   D2A30964   2.284  37.082   8.275
 2220POPC   C3A30965   1.967  37.071   7.983
 2220POPC   C4A30966   1.895  36.945   7.543
 2220POPC   C1B30967   2.079  36.648   8.748
 2220POPC   C2B30968   2.154  36.571   8.286
 2220POPC   C3B30969   2.000  36.565   7.873
 2220POPC   C4B30970   2.136  36.510   7.437
 2221POPC   NC330971  18.547  42.863   9.654
 2221POPC   PO430972  17.942  43.182   9.548
 2221POPC   GL130973  18.049  42.992   9.175
 2221POPC   GL230974  18.423  43.045   9.172
 2221POPC   C1A30975  17.968  43.020   8.748
 2221POPC   D2A30976  18.307  43.147   8.425
 2221POPC   C3A30977  18.378  42.860   8.086
 2221POPC   C4A30978  18.031  42.731   7.828
 2221POPC   C1B30979  18.278  43.400   8.900
 2221POPC   C2B30980  18.429  43.650   8.574
 2221POPC   C3B30981  18.429  43.581   8.150
 2221POPC   C4B30982  18.240  43.302   7.861
 2222POPC   NC330983   6.860   3.275   9.480
 2222POPC   PO430984   6.519   3.956   9.463
 2222POPC   GL130985   6.528   3.738   9.076
 2222POPC   GL230986   6.724   3.434   9.041
 2222POPC   C1A30987   6.604   3.678   8.635
 2222POPC   D2A30988   6.740   3.392   8.339
 2222POPC   C3A30989   6.623   3.681   8.013
 2222POPC   C4A30990   6.698   3.769   7.574
 2222POPC   C1B30991   6.493   3.170   8.778
 2222POPC   C2B30992   6.420   2.940   8.421
 2222POPC   C3B30993   6.661   2.921   8.073
 2222POPC   C4B30994   6.814   3.233   7.842
 2223POPC   NC330995   0.586  12.098   9.618
 2223POPC   PO430996  44.969  11.955   9.655
 2223POPC   GL130997   0.235  11.938   9.254
 2223POPC   GL230998   0.605  11.984   9.142
 2223POPC   C1A30999   0.239  12.152   8.852
 2223POPC   D2A31000   0.167  12.107   8.440
 2223POPC   C3A31001   0.265  12.350   8.079
 2223POPC   C4A31002   0.352  12.168   7.657
 2223POPC   C1B31003   0.729  11.933   8.722
 2223POPC   C2B31004   0.661  12.080   8.293
 2223POPC   C3B31005   0.788  12.276   7.887
 2223POPC   C4B31006   0.880  12.054   7.450
 2224POPC   NC331007  18.190   6.951   9.518
 2224POPC   PO431008  18.417   6.354   9.454
 2224POPC   GL131009  18.460   6.552   9.061
 2224POPC   GL231010  18.406   6.925   9.051
 2224POPC   C1A31011  18.548   6.657   8.639
 2224POPC   D2A31012  18.297   6.833   8.307
 2224POPC   C3A31013  18.373   6.558   7.968
 2224POPC   C4A31014  18.517   6.627   7.563
 2224POPC   C1B31015  18.060   6.692   8.787
 2224POPC   C2B31016  17.792   6.761   8.430
 2224POPC   C3B31017  17.782   6.915   8.034
 2224POPC   C4B31018  18.081   6.889   7.701
 2225POPC   NC331019   5.765   2.862   9.515
 2225POPC   PO431020   6.448   3.033   9.411
 2225POPC   GL131021   6.162   2.884   9.067
 2225POPC   GL231022   5.819   3.000   9.050
 2225POPC   C1A31023   6.014   2.740   8.656
 2225POPC   D2A31024   5.752   2.543   8.332
 2225POPC   C3A31025   5.894   2.613   7.920
 2225POPC   C4A31026   6.071   2.962   7.729
 2225POPC   C1B31027   5.610   3.043   8.668
 2225POPC   C2B31028   5.830   3.083   8.280
 2225POPC   C3B31029   5.613   3.098   7.909
 2225POPC   C4B31030   5.409   2.769   7.772
 2226POPC   NC331031  44.969  30.989   9.372
 2226POPC   PO431032  44.447  30.528   9.456
 2226POPC   GL131033  44.651  30.691   9.112
 2226POPC   GL231034   0.006  30.534   9.117
 2226POPC   C1A31035  44.552  30.871   8.713
 2226POPC   D2A31036  44.765  30.892   8.322
 2226POPC   C3A31037  44.525  30.837   7.982
 2226POPC   C4A31038  44.521  30.952   7.581
 2226POPC   C1B31039  44.752  30.414   8.712
 2226POPC   C2B31040  44.476  30.455   8.364
 2226POPC   C3B31041  44.605  30.333   7.986
 2226POPC   C4B31042  44.724  30.454   7.571
 2227POPC   NC331043  25.314   9.315   9.557
 2227POPC   PO431044  25.542   9.877   9.713
 2227POPC   GL131045  25.373   9.763   9.298
 2227POPC   GL231046  25.010   9.714   9.299
 2227POPC   C1A31047  25.474   9.678   8.863
 2227POPC   D2A31048  25.326   9.877   8.488
 2227POPC   C3A31049  25.322   9.676   8.087
 2227POPC   C4A31050  25.273   9.860   7.700
 2227POPC   C1B31051  24.969   9.590   8.851
 2227POPC   C2B31052  24.948   9.512   8.417
 2227POPC   C3B31053  24.939   9.344   8.019
 2227POPC   C4B31054  24.796   9.673   7.761
 2228POPC   NC331055  22.153  13.302   9.699
 2228POPC   PO431056  22.368  13.829   9.357
 2228POPC   GL131057  22.256  13.460   9.117
 2228POPC   GL231058  22.186  13.724   8.879
 2228POPC   C1A31059  22.112  13.252   8.727
 2228POPC   D2A31060  22.135  13.453   8.322
 2228POPC   C3A31061  21.975  13.270   7.937
 2228POPC   C4A31062  22.115  13.275   7.494
 2228POPC   C1B31063  22.401  13.928   8.555
 2228POPC   C2B31064  22.107  13.967   8.244
 2228POPC   C3B31065  21.845  13.758   7.995
 2228POPC   C4B31066  21.942  13.828   7.570
 2229POPC   NC331067  11.470   5.306   9.341
 2229POPC   PO431068  10.801   4.948   9.532
 2229POPC   GL131069  10.899   5.069   9.094
 2229POPC   GL231070  11.142   5.321   8.936
 2229POPC   C1A31071  11.127   4.859   8.736
 2229POPC   D2A31072  11.387   4.834   8.349
 2229POPC   C3A31073  11.146   4.892   7.973
 2229POPC   C4A31074  11.092   5.164   7.592
 2229POPC   C1B31075  11.446   5.311   8.593
 2229POPC   C2B31076  11.456   5.303   8.132
 2229POPC   C3B31077  11.767   5.414   7.828
 2229POPC   C4B31078  11.644   5.375   7.386
 2230POPC   NC331079   5.381  41.884   9.531
 2230POPC   PO431080   5.014  41.363   9.673
 2230POPC   GL131081   5.174  41.488   9.286
 2230POPC   GL231082   4.852  41.636   9.222
 2230POPC   C1A31083   5.230  41.615   8.864
 2230POPC   D2A31084   5.229  41.328   8.511
 2230POPC   C3A31085   5.263  41.554   8.119
 2230POPC   C4A31086   4.957  41.835   7.963
 2230POPC   C1B31087   4.754  41.449   8.816
 2230POPC   C2B31088   4.791  41.571   8.388
 2230POPC   C3B31089   4.818  41.339   8.061
 2230POPC   C4B31090   5.036  41.280   7.724
 2231POPC   NC331091   3.131  15.352   9.597
 2231POPC   PO431092   3.730  14.985   9.631
 2231POPC   GL131093   3.772  15.084   9.220
 2231POPC   GL231094   3.415  15.164   9.200
 2231POPC   C1A31095   3.721  15.149   8.789
 2231POPC   D2A31096   3.423  15.066   8.470
 2231POPC   C3A31097   3.599  14.962   8.076
 2231POPC   C4A31098   3.710  15.152   7.705
 2231POPC   C1B31099   3.244  15.367   8.847
 2231POPC   C2B31100   3.114  15.510   8.443
 2231POPC   C3B31101   3.329  15.399   8.079
 2231POPC   C4B31102   3.268  15.444   7.634
 2232POPC   NC331103  39.847  18.688   9.529
 2232POPC   PO431104  40.361  19.134   9.490
 2232POPC   GL131105  40.038  19.019   9.189
 2232POPC   GL231106  40.087  18.679   9.085
 2232POPC   C1A31107  39.810  19.045   8.782
 2232POPC   D2A31108  39.886  19.349   8.425
 2232POPC   C3A31109  39.732  19.260   8.001
 2232POPC   C4A31110  39.869  19.399   7.603
 2232POPC   C1B31111  40.278  18.805   8.734
 2232POPC   C2B31112  40.162  18.888   8.336
 2232POPC   C3B31113  39.926  18.781   7.996
 2232POPC   C4B31114  40.069  18.925   7.653
 2233POPC   NC331115  26.539   2.703   9.757
 2233POPC   PO431116  27.144   2.654   9.618
 2233POPC   GL131117  26.850   2.558   9.280
 2233POPC   GL231118  27.114   2.430   9.143
 2233POPC   C1A31119  26.682   2.624   8.835
 2233POPC   D2A31120  26.841   2.706   8.391
 2233POPC   C3A31121  26.781   3.043   8.057
 2233POPC   C4A31122  27.029   3.065   7.656
 2233POPC   C1B31123  27.279   2.324   8.795
 2233POPC   C2B31124  27.050   2.243   8.450
 2233POPC   C3B31125  27.089   2.297   8.017
 2233POPC   C4B31126  26.845   2.580   7.737
 2234POPC   NC331127  21.764  11.575   9.760
 2234POPC   PO431128  21.922  12.237   9.475
 2234POPC   GL131129  22.083  11.955   9.192
 2234POPC   GL231130  22.410  12.100   9.232
 2234POPC   C1A31131  22.022  11.855   8.758
 2234POPC   D2A31132  22.231  11.990   8.376
 2234POPC   C3A31133  22.017  11.939   7.969
 2234POPC   C4A31134  22.217  11.926   7.542
 2234POPC   C1B31135  22.286  12.308   8.826
 2234POPC   C2B31136  22.477  12.446   8.402
 2234POPC   C3B31137  22.359  12.341   7.946
 2234POPC   C4B31138  22.339  12.398   7.493
 2235POPC   NC331139  21.299  19.351   9.513
 2235POPC   PO431140  21.552  18.758   9.640
 2235POPC   GL131141  21.592  18.978   9.181
 2235POPC   GL231142  21.668  19.355   9.150
 2235POPC   C1A31143  21.460  18.904   8.704
 2235POPC   D2A31144  21.194  18.823   8.307
 2235POPC   C3A31145  21.390  19.013   7.947
 2235POPC   C4A31146  21.573  18.901   7.551
 2235POPC   C1B31147  21.323  19.397   8.859
 2235POPC   C2B31148  21.236  19.329   8.444
 2235POPC   C3B31149  21.271  19.518   8.071
 2235POPC   C4B31150  21.325  19.454   7.666
 2236POPC   NC331151  36.431   9.338   9.494
 2236POPC   PO431152  35.939   9.858   9.356
 2236POPC   GL131153  36.129   9.545   9.111
 2236POPC   GL231154  35.890   9.312   9.256
 2236POPC   C1A31155  36.182   9.631   8.651
 2236POPC   D2A31156  35.987   9.896   8.350
 2236POPC   C3A31157  35.974   9.748   7.957
 2236POPC   C4A31158  36.334   9.804   7.721
 2236POPC   C1B31159  35.858   9.276   8.789
 2236POPC   C2B31160  35.743   9.415   8.377
 2236POPC   C3B31161  35.782   9.274   7.960
 2236POPC   C4B31162  36.081   9.352   7.620
 2237POPC   NC331163  42.442  32.564   9.790
 2237POPC   PO431164  42.109  33.026   9.410
 2237POPC   GL131165  42.250  33.182   9.114
 2237POPC   GL231166  41.970  33.427   9.129
 2237POPC   C1A31167  42.399  32.955   8.767
 2237POPC   D2A31168  42.533  33.159   8.428
 2237POPC   C3A31169  42.461  32.883   8.143
 2237POPC   C4A31170  42.312  33.031   7.779
 2237POPC   C1B31171  41.966  33.235   8.720
 2237POPC   C2B31172  41.981  33.369   8.361
 2237POPC   C3B31173  41.886  33.127   8.055
 2237POPC   C4B31174  41.890  33.313   7.686
 2238POPC   NC331175  44.390  10.055   9.781
 2238POPC   PO431176  44.934   9.719   9.562
 2238POPC   GL131177  44.625   9.669   9.242
 2238POPC   GL231178  44.481  10.051   9.239
 2238POPC   C1A31179  44.560   9.374   8.858
 2238POPC   D2A31180  44.626   9.287   8.397
 2238POPC   C3A31181  44.681   9.661   8.103
 2238POPC   C4A31182  44.848   9.748   7.670
 2238POPC   C1B31183  44.280   9.804   8.901
 2238POPC   C2B31184  44.253   9.688   8.474
 2238POPC   C3B31185  44.192   9.867   8.081
 2238POPC   C4B31186  44.338   9.709   7.708
 2239POPC   NC331187  14.292  38.001   9.282
 2239POPC   PO431188  14.244  37.287   9.409
 2239POPC   GL131189  14.498  37.404   9.055
 2239POPC   GL231190  14.610  37.753   8.958
 2239POPC   C1A31191  14.245  37.505   8.680
 2239POPC   D2A31192  13.961  37.523   8.325
 2239POPC   C3A31193  14.176  37.418   7.975
 2239POPC   C4A31194  14.062  37.438   7.591
 2239POPC   C1B31195  14.411  38.016   8.627
 2239POPC   C2B31196  14.178  38.026   8.212
 2239POPC   C3B31197  14.372  37.870   7.818
 2239POPC   C4B31198  14.818  37.719   7.795
 2240POPC   NC331199  38.436   2.359   9.604
 2240POPC   PO431200  38.843   1.806   9.466
 2240POPC   GL131201  38.632   1.996   9.144
 2240POPC   GL231202  38.347   2.169   9.149
 2240POPC   C1A31203  38.614   2.093   8.715
 2240POPC   D2A31204  38.445   1.889   8.367
 2240POPC   C3A31205  38.606   2.080   7.997
 2240POPC   C4A31206  38.672   2.059   7.493
 2240POPC   C1B31207  38.099   2.260   8.821
 2240POPC   C2B31208  38.005   2.339   8.424
 2240POPC   C3B31209  38.029   2.046   8.097
 2240POPC   C4B31210  38.210   2.094   7.710
 2241POPC   NC331211  44.928   9.265   9.488
 2241POPC   PO431212  44.313   8.996   9.395
 2241POPC   GL131213  44.702   8.924   9.173
 2241POPC   GL231214  44.642   8.623   9.022
 2241POPC   C1A31215  44.915   9.001   8.787
 2241POPC   D2A31216   0.077   8.992   8.393
 2241POPC   C3A31217  44.856   8.978   8.023
 2241POPC   C4A31218  44.685   9.267   7.766
 2241POPC   C1B31219  44.428   8.856   8.701
 2241POPC   C2B31220  44.411   8.819   8.267
 2241POPC   C3B31221  44.373   8.845   7.834
 2241POPC   C4B31222  44.376   8.984   7.433
 2242POPC   NC331223  38.270  35.443   9.647
 2242POPC   PO431224  38.749  34.988   9.663
 2242POPC   GL131225  38.651  35.348   9.305
 2242POPC   GL231226  38.337  35.545   9.170
 2242POPC   C1A31227  38.601  35.262   8.857
 2242POPC   D2A31228  38.456  35.008   8.538
 2242POPC   C3A31229  38.414  35.090   8.115
 2242POPC   C4A31230  38.387  35.317   7.746
 2242POPC   C1B31231  38.372  35.705   8.772
 2242POPC   C2B31232  38.484  35.541   8.412
 2242POPC   C3B31233  38.172  35.538   8.142
 2242POPC   C4B31234  38.067  35.753   7.787
 2243POPC   NC331235  21.175  16.375   9.838
 2243POPC   PO431236  21.352  16.930   9.493
 2243POPC   GL131237  21.239  16.833   9.089
 2243POPC   GL231238  20.920  17.026   9.026
 2243POPC   C1A31239  21.497  16.674   8.744
 2243POPC   D2A31240  21.668  16.348   8.444
 2243POPC   C3A31241  21.680  16.544   8.035
 2243POPC   C4A31242  21.509  16.551   7.625
 2243POPC   C1B31243  21.164  17.116   8.661
 2243POPC   C2B31244  21.357  16.954   8.311
 2243POPC   C3B31245  21.304  16.943   7.878
 2243POPC   C4B31246  21.007  16.885   7.520
 2244POPC   NC331247  39.264  36.907   9.571
 2244POPC   PO431248  39.244  37.454   9.264
 2244POPC   GL131249  39.301  37.060   9.045
 2244POPC   GL231250  39.120  36.764   9.112
 2244POPC   C1A31251  39.430  36.805   8.682
 2244POPC   D2A31252  39.323  36.797   8.248
 2244POPC   C3A31253  39.603  36.811   7.867
 2244POPC   C4A31254  39.471  37.075   7.458
 2244POPC   C1B31255  38.857  36.947   8.796
 2244POPC   C2B31256  38.814  36.880   8.359
 2244POPC   C3B31257  38.979  36.991   7.941
 2244POPC   C4B31258  39.148  36.731   7.654
 2245POPC   NC331259  27.156   8.543   9.239
 2245POPC   PO431260  26.928   9.139   9.524
 2245POPC   GL131261  26.759   9.056   9.167
 2245POPC   GL231262  27.058   9.040   9.022
 2245POPC   C1A31263  26.641   9.122   8.743
 2245POPC   D2A31264  26.762   9.033   8.346
 2245POPC   C3A31265  26.428   8.917   8.115
 2245POPC   C4A31266  26.392   8.971   7.684
 2245POPC   C1B31267  27.097   8.779   8.649
 2245POPC   C2B31268  27.348   8.532   8.383
 2245POPC   C3B31269  27.260   8.624   7.983
 2245POPC   C4B31270  26.867   8.822   7.861
 2246POPC   NC331271  26.641  19.505   9.496
 2246POPC   PO431272  26.833  20.194   9.401
 2246POPC   GL131273  26.683  19.881   9.123
 2246POPC   GL231274  26.940  19.625   9.111
 2246POPC   C1A31275  26.759  19.857   8.685
 2246POPC   D2A31276  26.851  19.635   8.303
 2246POPC   C3A31277  26.867  19.896   7.965
 2246POPC   C4A31278  26.474  19.844   7.825
 2246POPC   C1B31279  27.004  19.409   8.736
 2246POPC   C2B31280  27.318  19.409   8.431
 2246POPC   C3B31281  27.281  19.556   8.034
 2246POPC   C4B31282  27.039  19.492   7.653
 2247POPC   NC331283   7.142   5.736   9.485
 2247POPC   PO431284   7.781   5.959   9.633
 2247POPC   GL131285   7.529   5.906   9.229
 2247POPC   GL231286   7.600   5.631   9.054
 2247POPC   C1A31287   7.264   5.941   8.812
 2247POPC   D2A31288   7.373   6.034   8.348
 2247POPC   C3A31289   7.145   5.789   8.020
 2247POPC   C4A31290   7.182   5.757   7.575
 2247POPC   C1B31291   7.747   5.853   8.678
 2247POPC   C2B31292   7.893   5.878   8.251
 2247POPC   C3B31293   7.645   5.884   7.853
 2247POPC   C4B31294   7.669   5.739   7.402
 2248POPC   NC331295  16.311  42.415   9.535
 2248POPC   PO431296  15.629  42.641   9.466
 2248POPC   GL131297  15.869  42.326   9.224
 2248POPC   GL231298  16.075  42.613   9.139
 2248POPC   C1A31299  16.004  41.992   8.896
 2248POPC   D2A31300  15.891  41.858   8.489
 2248POPC   C3A31301  16.093  42.035   8.135
 2248POPC   C4A31302  15.983  42.131   7.725
 2248POPC   C1B31303  15.983  42.482   8.757
 2248POPC   C2B31304  16.203  42.467   8.386
 2248POPC   C3B31305  16.168  42.546   7.982
 2248POPC   C4B31306  15.849  42.632   7.716
 2249POPC   NC331307  17.182   3.155   9.427
 2249POPC   PO431308  17.688   3.451   9.750
 2249POPC   GL131309  17.626   3.460   9.279
 2249POPC   GL231310  17.572   3.111   9.121
 2249POPC   C1A31311  17.539   3.777   8.935
 2249POPC   D2A31312  17.267   3.631   8.586
 2249POPC   C3A31313  17.426   3.655   8.167
 2249POPC   C4A31314  17.511   3.423   7.747
 2249POPC   C1B31315  17.694   3.338   8.757
 2249POPC   C2B31316  17.814   3.323   8.342
 2249POPC   C3B31317  17.920   3.134   7.955
 2249POPC   C4B31318  17.781   2.979   7.566
 2250POPC   NC331319  40.175   4.843   9.530
 2250POPC   PO431320  39.908   5.406   9.571
 2250POPC   GL131321  39.878   5.110   9.183
 2250POPC   GL231322  40.199   5.056   9.065
 2250POPC   C1A31323  39.890   5.219   8.712
 2250POPC   D2A31324  40.089   5.047   8.332
 2250POPC   C3A31325  39.783   5.176   8.044
 2250POPC   C4A31326  39.782   5.368   7.669
 2250POPC   C1B31327  40.021   4.719   8.739
 2250POPC   C2B31328  40.043   4.484   8.335
 2250POPC   C3B31329  39.944   4.695   7.949
 2250POPC   C4B31330  40.151   5.024   7.705
 2251POPC   NC331331  19.434  25.704   9.443
 2251POPC   PO431332  18.843  26.047   9.522
 2251POPC   GL131333  19.089  26.023   9.183
 2251POPC   GL231334  19.411  26.209   9.305
 2251POPC   C1A31335  19.001  25.864   8.731
 2251POPC   D2A31336  19.001  25.693   8.279
 2251POPC   C3A31337  18.832  25.979   7.943
 2251POPC   C4A31338  19.046  26.118   7.574
 2251POPC   C1B31339  19.438  26.112   8.857
 2251POPC   C2B31340  19.441  25.952   8.441
 2251POPC   C3B31341  19.350  26.086   8.017
 2251POPC   C4B31342  19.673  26.287   7.767
 2252POPC   NC331343  18.467  36.799   9.326
 2252POPC   PO431344  17.923  36.853   9.460
 2252POPC   GL131345  18.090  37.072   9.076
 2252POPC   GL231346  18.465  37.048   8.908
 2252POPC   C1A31347  18.055  36.987   8.645
 2252POPC   D2A31348  18.303  37.068   8.319
 2252POPC   C3A31349  17.988  37.015   8.029
 2252POPC   C4A31350  17.968  36.739   7.682
 2252POPC   C1B31351  18.594  36.712   8.597
 2252POPC   C2B31352  18.723  36.804   8.166
 2252POPC   C3B31353  18.447  37.036   7.828
 2252POPC   C4B31354  18.535  37.343   7.481
 2253POPC   NC331355  19.683  27.162   9.404
 2253POPC   PO431356  20.115  26.689   9.601
 2253POPC   GL131357  20.068  26.723   9.186
 2253POPC   GL231358  19.702  26.714   9.151
 2253POPC   C1A31359  20.023  26.642   8.755
 2253POPC   D2A31360  19.809  26.844   8.418
 2253POPC   C3A31361  19.912  26.728   8.005
 2253POPC   C4A31362  20.203  26.925   7.732
 2253POPC   C1B31363  19.511  26.596   8.742
 2253POPC   C2B31364  19.380  26.555   8.289
 2253POPC   C3B31365  19.411  26.711   7.839
 2253POPC   C4B31366  19.766  26.728   7.504
 2254POPC   NC331367   9.783   4.869   9.509
 2254POPC   PO431368   9.956   5.450   9.349
 2254POPC   GL131369   9.667   5.207   9.077
 2254POPC   GL231370   9.538   4.859   9.053
 2254POPC   C1A31371   9.663   5.369   8.660
 2254POPC   D2A31372   9.753   5.403   8.210
 2254POPC   C3A31373   9.812   5.063   7.911
 2254POPC   C4A31374  10.086   5.279   7.681
 2254POPC   C1B31375   9.727   4.863   8.667
 2254POPC   C2B31376   9.534   4.915   8.303
 2254POPC   C3B31377   9.450   4.656   7.958
 2254POPC   C4B31378   9.671   4.547   7.610
 2255POPC   NC331379  13.725  19.678   9.608
 2255POPC   PO431380  13.128  19.822   9.603
 2255POPC   GL131381  13.269  19.855   9.162
 2255POPC   GL231382  13.585  19.718   9.101
 2255POPC   C1A31383  13.321  19.937   8.689
 2255POPC   D2A31384  13.606  19.822   8.322
 2255POPC   C3A31385  13.564  19.748   7.884
 2255POPC   C4A31386  13.508  19.790   7.414
 2255POPC   C1B31387  13.883  19.798   8.750
 2255POPC   C2B31388  14.084  19.636   8.349
 2255POPC   C3B31389  14.067  19.769   7.896
 2255POPC   C4B31390  13.821  20.112   7.659
 2256POPC   NC331391  44.601  17.580   9.651
 2256POPC   PO431392   0.135  17.279   9.388
 2256POPC   GL131393  44.801  17.618   9.181
 2256POPC   GL231394  44.411  17.514   9.157
 2256POPC   C1A31395  44.557  17.893   8.858
 2256POPC   D2A31396  44.353  17.771   8.472
 2256POPC   C3A31397  44.594  17.525   8.177
 2256POPC   C4A31398  44.821  17.629   7.810
 2256POPC   C1B31399  44.272  17.233   8.751
 2256POPC   C2B31400  44.311  17.060   8.284
 2256POPC   C3B31401  44.165  17.148   7.815
 2256POPC   C4B31402  44.429  17.009   7.406
 2257POPC   NC331403  35.876  41.963   9.510
 2257POPC   PO431404  35.228  41.665   9.608
 2257POPC   GL131405  35.309  41.557   9.198
 2257POPC   GL231406  35.652  41.544   9.275
 2257POPC   C1A31407  35.223  41.760   8.816
 2257POPC   D2A31408  35.050  41.884   8.423
 2257POPC   C3A31409  35.265  41.724   8.051
 2257POPC   C4A31410  35.195  41.347   7.796
 2257POPC   C1B31411  35.717  41.589   8.836
 2257POPC   C2B31412  35.511  41.516   8.451
 2257POPC   C3B31413  35.637  41.328   8.076
 2257POPC   C4B31414  35.694  41.605   7.759
 2258POPC   NC331415  10.634  39.316   9.434
 2258POPC   PO431416   9.963  39.574   9.445
 2258POPC   GL131417  10.189  39.266   9.149
 2258POPC   GL231418  10.372  38.931   9.164
 2258POPC   C1A31419  10.454  39.274   8.757
 2258POPC   D2A31420  10.421  39.592   8.433
 2258POPC   C3A31421  10.603  39.568   8.042
 2258POPC   C4A31422  10.555  39.428   7.641
 2258POPC   C1B31423  10.660  38.797   8.804
 2258POPC   C2B31424  10.723  38.970   8.378
 2258POPC   C3B31425  10.629  38.988   7.942
 2258POPC   C4B31426  10.820  39.011   7.544
 2259POPC   NC331427  25.038  32.345   9.408
 2259POPC   PO431428  25.548  31.909   9.562
 2259POPC   GL131429  25.429  32.073   9.159
 2259POPC   GL231430  25.117  31.953   9.008
 2259POPC   C1A31431  25.548  32.334   8.808
 2259POPC   D2A31432  25.564  32.192   8.387
 2259POPC   C3A31433  25.340  32.411   8.068
 2259POPC   C4A31434  25.559  32.637   7.753
 2259POPC   C1B31435  25.067  32.222   8.617
 2259POPC   C2B31436  24.887  32.161   8.194
 2259POPC   C3B31437  24.965  32.193   7.781
 2259POPC   C4B31438  25.070  31.923   7.416
 2260POPC   NC331439  16.009  35.915   9.777
 2260POPC   PO431440  15.448  36.162   9.631
 2260POPC   GL131441  15.748  36.095   9.262
 2260POPC   GL231442  16.083  35.937   9.264
 2260POPC   C1A31443  15.934  36.298   8.853
 2260POPC   D2A31444  16.053  36.423   8.405
 2260POPC   C3A31445  16.044  36.185   8.021
 2260POPC   C4A31446  15.720  36.038   7.728
 2260POPC   C1B31447  16.249  35.851   8.852
 2260POPC   C2B31448  16.221  35.913   8.422
 2260POPC   C3B31449  16.377  35.816   8.004
 2260POPC   C4B31450  16.181  35.826   7.627
 2261POPC   NC331451  31.603  10.262   9.410
 2261POPC   PO431452  31.669  10.914   9.480
 2261POPC   GL131453  31.606  10.882   9.053
 2261POPC   GL231454  31.651  10.580   9.037
 2261POPC   C1A31455  31.600  10.790   8.575
 2261POPC   D2A31456  31.264  10.567   8.408
 2261POPC   C3A31457  31.270  10.604   7.980
 2261POPC   C4A31458  31.708  10.652   7.882
 2261POPC   C1B31459  31.753  10.318   8.737
 2261POPC   C2B31460  31.983  10.437   8.407
 2261POPC   C3B31461  32.012  10.259   8.046
 2261POPC   C4B31462  31.785  10.167   7.720
 2262POPC   NC331463   1.888  35.385   9.922
 2262POPC   PO431464   1.772  35.284   9.457
 2262POPC   GL131465   2.012  35.456   9.080
 2262POPC   GL231466   2.313  35.321   8.996
 2262POPC   C1A31467   2.045  35.559   8.609
 2262POPC   D2A31468   1.789  35.577   8.188
 2262POPC   C3A31469   1.736  35.226   7.882
 2262POPC   C4A31470   1.641  35.193   7.419
 2262POPC   C1B31471   2.167  35.060   8.682
 2262POPC   C2B31472   2.081  35.151   8.288
 2262POPC   C3B31473   2.275  35.129   7.916
 2262POPC   C4B31474   2.063  34.909   7.615
 2263POPC   NC331475  37.051  44.024   9.637
 2263POPC   PO431476  36.732  43.432   9.689
 2263POPC   GL131477  36.929  43.660   9.265
 2263POPC   GL231478  36.896  44.050   9.147
 2263POPC   C1A31479  37.127  43.712   8.857
 2263POPC   D2A31480  36.949  43.629   8.450
 2263POPC   C3A31481  36.960  43.977   8.143
 2263POPC   C4A31482  37.004  43.859   7.700
 2263POPC   C1B31483  36.870  44.148   8.685
 2263POPC   C2B31484  36.614  44.332   8.365
 2263POPC   C3B31485  36.483  44.244   7.973
 2263POPC   C4B31486  36.553  44.045   7.552
 2264POPC   NC331487  12.555  27.411   9.432
 2264POPC   PO431488  12.875  27.892   9.768
 2264POPC   GL131489  12.812  27.827   9.273
 2264POPC   GL231490  12.869  27.528   9.060
 2264POPC   C1A31491  12.877  27.919   8.780
 2264POPC   D2A31492  12.822  27.628   8.452
 2264POPC   C3A31493  12.998  27.776   8.071
 2264POPC   C4A31494  12.745  27.739   7.722
 2264POPC   C1B31495  12.670  27.243   8.789
 2264POPC   C2B31496  12.704  27.104   8.381
 2264POPC   C3B31497  12.691  27.316   8.011
 2264POPC   C4B31498  12.854  27.166   7.622
 2265POPC   NC331499  14.117  31.691   9.446
 2265POPC   PO431500  14.754  31.598   9.576
 2265POPC   GL131501  14.539  31.456   9.181
 2265POPC   GL231502  14.395  31.130   9.331
 2265POPC   C1A31503  14.692  31.634   8.731
 2265POPC   D2A31504  14.859  31.776   8.292
 2265POPC   C3A31505  14.551  31.649   7.960
 2265POPC   C4A31506  14.088  31.653   7.800
 2265POPC   C1B31507  14.291  31.051   8.906
 2265POPC   C2B31508  14.280  31.299   8.526
 2265POPC   C3B31509  14.268  31.240   8.082
 2265POPC   C4B31510  14.232  31.082   7.695
 2266POPC   NC331511  32.094   6.506   9.676
 2266POPC   PO431512  32.067   7.077   9.350
 2266POPC   GL131513  32.286   6.850   9.037
 2266POPC   GL231514  32.321   6.529   9.185
 2266POPC   C1A31515  32.062   6.882   8.626
 2266POPC   D2A31516  31.810   6.935   8.293
 2266POPC   C3A31517  32.140   6.789   8.068
 2266POPC   C4A31518  32.259   6.680   7.662
 2266POPC   C1B31519  32.280   6.431   8.747
 2266POPC   C2B31520  32.316   6.278   8.342
 2266POPC   C3B31521  32.143   6.282   7.935
 2266POPC   C4B31522  32.370   6.173   7.547
 2267POPC   NC331523  35.992  21.758   9.417
 2267POPC   PO431524  36.645  21.775   9.626
 2267POPC   GL131525  36.495  21.664   9.195
 2267POPC   GL231526  36.420  21.274   9.119
 2267POPC   C1A31527  36.241  21.643   8.807
 2267POPC   D2A31528  36.349  21.429   8.431
 2267POPC   C3A31529  36.217  21.561   8.040
 2267POPC   C4A31530  35.903  21.491   7.753
 2267POPC   C1B31531  36.459  20.877   8.837
 2267POPC   C2B31532  36.395  20.922   8.423
 2267POPC   C3B31533  36.401  20.883   8.007
 2267POPC   C4B31534  36.255  21.126   7.676
 2268POPC   NC331535  35.083   8.835   9.781
 2268POPC   PO431536  35.516   8.639   9.187
 2268POPC   GL131537  35.387   9.038   9.026
 2268POPC   GL231538  35.048   9.155   9.132
 2268POPC   C1A31539  35.434   9.043   8.616
 2268POPC   D2A31540  35.392   8.657   8.420
 2268POPC   C3A31541  35.386   8.744   7.985
 2268POPC   C4A31542  35.283   8.721   7.555
 2268POPC   C1B31543  34.974   9.278   8.687
 2268POPC   C2B31544  35.100   9.116   8.241
 2268POPC   C3B31545  35.261   9.220   7.832
 2268POPC   C4B31546  35.308   9.210   7.402
 2269POPC   NC331547  21.178  22.986   9.696
 2269POPC   PO431548  21.818  22.973   9.527
 2269POPC   GL131549  21.595  23.088   9.136
 2269POPC   GL231550  21.247  23.159   9.208
 2269POPC   C1A31551  21.512  22.797   8.784
 2269POPC   D2A31552  21.291  22.557   8.466
 2269POPC   C3A31553  21.470  22.715   8.111
 2269POPC   C4A31554  21.572  22.946   7.769
 2269POPC   C1B31555  21.159  23.178   8.768
 2269POPC   C2B31556  21.401  23.165   8.400
 2269POPC   C3B31557  21.183  23.136   8.034
 2269POPC   C4B31558  21.098  23.137   7.600
 2270POPC   NC331559  28.467  41.220   9.362
 2270POPC   PO431560  28.175  41.865   9.355
 2270POPC   GL131561  28.359  41.607   9.065
 2270POPC   GL231562  28.536  41.843   8.887
 2270POPC   C1A31563  28.535  41.372   8.715
 2270POPC   D2A31564  28.733  41.615   8.417
 2270POPC   C3A31565  28.508  41.611   8.057
 2270POPC   C4A31566  28.468  41.367   7.707
 2270POPC   C1B31567  28.181  41.724   8.598
 2270POPC   C2B31568  27.997  41.722   8.171
 2270POPC   C3B31569  28.105  41.792   7.721
 2270POPC   C4B31570  27.964  41.947   7.289
 2271POPC   NC331571  11.457  21.641   9.419
 2271POPC   PO431572  10.856  21.292   9.582
 2271POPC   GL131573  11.048  21.457   9.177
 2271POPC   GL231574  10.836  21.733   9.020
 2271POPC   C1A31575  11.347  21.263   8.826
 2271POPC   D2A31576  11.633  21.468   8.520
 2271POPC   C3A31577  11.507  21.419   8.086
 2271POPC   C4A31578  11.388  21.161   7.750
 2271POPC   C1B31579  11.162  21.731   8.715
 2271POPC   C2B31580  11.303  21.827   8.321
 2271POPC   C3B31581  11.294  21.840   7.894
 2271POPC   C4B31582  11.123  21.587   7.645
 2272POPC   NC331583  18.438  40.104   9.520
 2272POPC   PO431584  19.009  40.260   9.348
 2272POPC   GL131585  18.786  40.017   9.058
 2272POPC   GL231586  18.544  40.280   9.056
 2272POPC   C1A31587  18.934  39.816   8.640
 2272POPC   D2A31588  19.251  39.874   8.261
 2272POPC   C3A31589  19.128  39.918   7.812
 2272POPC   C4A31590  19.069  39.597   7.478
 2272POPC   C1B31591  18.544  40.146   8.626
 2272POPC   C2B31592  18.760  40.041   8.215
 2272POPC   C3B31593  18.733  40.313   7.869
 2272POPC   C4B31594  18.917  40.728   7.826
 2273POPC   NC331595   1.088  10.464   9.520
 2273POPC   PO431596   1.506  10.943   9.550
 2273POPC   GL131597   1.496  10.596   9.227
 2273POPC   GL231598   1.182  10.738   9.083
 2273POPC   C1A31599   1.497  10.465   8.775
 2273POPC   D2A31600   1.192  10.660   8.487
 2273POPC   C3A31601   1.138  10.500   8.077
 2273POPC   C4A31602   1.267  10.633   7.643
 2273POPC   C1B31603   0.834  10.871   8.811
 2273POPC   C2B31604   0.667  11.038   8.438
 2273POPC   C3B31605   0.822  10.906   8.085
 2273POPC   C4B31606   0.782  10.670   7.752
 2274POPC   NC331607  43.701   4.665   9.494
 2274POPC   PO431608  44.121   5.245   9.497
 2274POPC   GL131609  43.942   5.049   9.157
 2274POPC   GL231610  44.265   5.204   8.999
 2274POPC   C1A31611  43.987   4.819   8.768
 2274POPC   D2A31612  44.134   4.728   8.361
 2274POPC   C3A31613  43.884   4.774   8.011
 2274POPC   C4A31614  43.888   4.901   7.594
 2274POPC   C1B31615  43.925   5.335   8.726
 2274POPC   C2B31616  43.809   5.138   8.389
 2274POPC   C3B31617  43.957   5.287   8.010
 2274POPC   C4B31618  43.693   5.462   7.740
 2275POPC   NC331619  22.520  23.221   9.433
 2275POPC   PO431620  22.330  22.564   9.357
 2275POPC   GL131621  22.312  22.889   9.084
 2275POPC   GL231622  22.116  23.189   9.125
 2275POPC   C1A31623  22.478  23.061   8.718
 2275POPC   D2A31624  22.333  23.263   8.366
 2275POPC   C3A31625  22.284  23.050   7.985
 2275POPC   C4A31626  22.303  22.925   7.565
 2275POPC   C1B31627  21.945  23.092   8.745
 2275POPC   C2B31628  21.877  22.967   8.346
 2275POPC   C3B31629  21.822  23.285   8.066
 2275POPC   C4B31630  21.949  23.294   7.667
 2276POPC   NC331631  23.933  22.256   9.374
 2276POPC   PO431632  24.651  22.277   9.450
 2276POPC   GL131633  24.616  22.051   9.107
 2276POPC   GL231634  24.324  22.237   9.046
 2276POPC   C1A31635  24.493  21.917   8.705
 2276POPC   D2A31636  24.501  22.080   8.286
 2276POPC   C3A31637  24.393  21.829   7.929
 2276POPC   C4A31638  23.996  21.808   7.723
 2276POPC   C1B31639  24.624  22.413   8.755
 2276POPC   C2B31640  24.552  22.583   8.366
 2276POPC   C3B31641  24.550  22.475   7.940
 2276POPC   C4B31642  24.901  22.581   7.703
 2277POPC   NC331643  26.217  18.198   9.455
 2277POPC   PO431644  25.719  18.631   9.555
 2277POPC   GL131645  25.850  18.363   9.173
 2277POPC   GL231646  26.188  18.399   8.970
 2277POPC   C1A31647  25.807  18.188   8.778
 2277POPC   D2A31648  25.916  18.394   8.365
 2277POPC   C3A31649  25.765  18.306   7.936
 2277POPC   C4A31650  25.663  18.475   7.527
 2277POPC   C1B31651  26.265  18.071   8.600
 2277POPC   C2B31652  26.214  18.032   8.135
 2277POPC   C3B31653  26.275  18.165   7.713
 2277POPC   C4B31654  26.436  18.226   7.267
 2278POPC   NC331655  29.662   7.089   9.278
 2278POPC   PO431656  30.106   6.735   9.681
 2278POPC   GL131657  29.986   6.497   9.264
 2278POPC   GL231658  29.681   6.553   9.090
 2278POPC   C1A31659  30.061   6.442   8.756
 2278POPC   D2A31660  30.045   6.832   8.472
 2278POPC   C3A31661  30.077   6.765   8.015
 2278POPC   C4A31662  30.097   6.365   7.780
 2278POPC   C1B31663  29.586   6.639   8.650
 2278POPC   C2B31664  29.699   6.476   8.258
 2278POPC   C3B31665  29.624   6.555   7.830
 2278POPC   C4B31666  29.692   6.648   7.393
 2279POPC   NC331667  38.864  38.140   9.590
 2279POPC   PO431668  39.472  38.498   9.709
 2279POPC   GL131669  39.271  38.558   9.266
 2279POPC   GL231670  38.933  38.423   9.178
 2279POPC   C1A31671  39.323  38.515   8.781
 2279POPC   D2A31672  39.568  38.418   8.364
 2279POPC   C3A31673  39.336  38.382   7.925
 2279POPC   C4A31674  39.424  38.370   7.424
 2279POPC   C1B31675  38.899  38.215   8.777
 2279POPC   C2B31676  39.012  38.399   8.370
 2279POPC   C3B31677  38.815  38.366   7.988
 2279POPC   C4B31678  38.689  38.743   7.804
 2280POPC   NC331679  36.645  29.359   9.438
 2280POPC   PO431680  37.269  29.076   9.498
 2280POPC   GL131681  37.089  29.266   9.168
 2280POPC   GL231682  36.863  29.000   9.056
 2280POPC   C1A31683  37.217  29.190   8.766
 2280POPC   D2A31684  37.012  29.033   8.422
 2280POPC   C3A31685  37.176  29.174   8.020
 2280POPC   C4A31686  37.124  29.062   7.582
 2280POPC   C1B31687  36.727  29.323   8.771
 2280POPC   C2B31688  36.518  29.347   8.404
 2280POPC   C3B31689  36.633  29.104   8.079
 2280POPC   C4B31690  36.680  29.260   7.710
 2281POPC   NC331691   7.678  24.620   9.495
 2281POPC   PO431692   7.181  24.094   9.513
 2281POPC   GL131693   7.446  24.256   9.178
 2281POPC   GL231694   7.353  24.604   9.075
 2281POPC   C1A31695   7.331  24.147   8.763
 2281POPC   D2A31696   7.129  24.268   8.351
 2281POPC   C3A31697   7.251  24.633   8.125
 2281POPC   C4A31698   7.493  24.781   7.778
 2281POPC   C1B31699   7.430  24.610   8.612
 2281POPC   C2B31700   7.738  24.707   8.294
 2281POPC   C3B31701   7.985  24.717   7.910
 2281POPC   C4B31702   7.930  24.782   7.461
 2282POPC   NC331703   5.258  44.600   9.807
 2282POPC   PO431704   4.945   0.095   9.453
 2282POPC   GL131705   5.022  44.759   9.152
 2282POPC   GL231706   5.255  44.494   9.219
 2282POPC   C1A31707   4.914  44.727   8.727
 2282POPC   D2A31708   5.158  44.764   8.342
 2282POPC   C3A31709   4.921  44.940   8.010
 2282POPC   C4A31710   4.671  44.779   7.674
 2282POPC   C1B31711   5.372  44.478   8.741
 2282POPC   C2B31712   5.388  44.311   8.273
 2282POPC   C3B31713   5.367  44.499   7.850
 2282POPC   C4B31714   5.310  44.388   7.415
 2283POPC   NC331715  40.229  24.259   9.429
 2283POPC   PO431716  39.676  24.654   9.485
 2283POPC   GL131717  39.849  24.568   9.123
 2283POPC   GL231718  39.756  24.244   9.135
 2283POPC   C1A31719  39.909  24.806   8.741
 2283POPC   D2A31720  39.764  24.668   8.338
 2283POPC   C3A31721  40.060  24.663   7.992
 2283POPC   C4A31722  40.188  24.719   7.570
 2283POPC   C1B31723  40.005  24.209   8.757
 2283POPC   C2B31724  39.895  24.128   8.329
 2283POPC   C3B31725  39.698  24.291   7.972
 2283POPC   C4B31726  39.823  24.346   7.583
 2284POPC   NC331727  25.621  24.460   9.373
 2284POPC   PO431728  26.223  24.104   9.285
 2284POPC   GL131729  26.026  24.386   9.096
 2284POPC   GL231730  25.757  24.104   9.055
 2284POPC   C1A31731  25.892  24.674   8.790
 2284POPC   D2A31732  25.810  24.557   8.368
 2284POPC   C3A31733  25.988  24.786   8.071
 2284POPC   C4A31734  25.812  24.762   7.692
 2284POPC   C1B31735  25.908  24.144   8.663
 2284POPC   C2B31736  26.021  24.082   8.256
 2284POPC   C3B31737  25.897  24.276   7.909
 2284POPC   C4B31738  26.215  24.426   7.663
 2285POPC   NC331739  44.223  30.904   9.291
 2285POPC   PO431740  43.536  30.609   9.539
 2285POPC   GL131741  43.824  30.585   9.125
 2285POPC   GL231742  44.104  30.313   9.151
 2285POPC   C1A31743  43.834  30.890   8.725
 2285POPC   D2A31744  44.176  30.935   8.376
 2285POPC   C3A31745  44.026  30.956   7.965
 2285POPC   C4A31746  43.754  30.986   7.635
 2285POPC   C1B31747  44.173  30.514   8.762
 2285POPC   C2B31748  43.923  30.503   8.385
 2285POPC   C3B31749  44.067  30.414   8.005
 2285POPC   C4B31750  44.190  30.586   7.647
 2286POPC   NC331751  32.872  11.724   9.475
 2286POPC   PO431752  33.435  12.035   9.560
 2286POPC   GL131753  33.262  11.891   9.165
 2286POPC   GL231754  33.249  12.239   9.032
 2286POPC   C1A31755  32.961  11.807   8.794
 2286POPC   D2A31756  32.844  12.007   8.365
 2286POPC   C3A31757  32.749  11.781   7.982
 2286POPC   C4A31758  32.807  11.940   7.586
 2286POPC   C1B31759  33.419  12.037   8.694
 2286POPC   C2B31760  33.545  11.947   8.292
 2286POPC   C3B31761  33.232  11.971   7.991
 2286POPC   C4B31762  33.335  12.235   7.721
 2287POPC   NC331763  24.194  19.929   9.690
 2287POPC   PO431764  23.589  19.916   9.550
 2287POPC   GL131765  23.530  19.886   9.132
 2287POPC   GL231766  23.904  19.926   9.119
 2287POPC   C1A31767  23.414  19.659   8.748
 2287POPC   D2A31768  23.660  19.634   8.356
 2287POPC   C3A31769  23.469  19.683   7.933
 2287POPC   C4A31770  23.374  19.706   7.491
 2287POPC   C1B31771  23.807  19.996   8.691
 2287POPC   C2B31772  24.034  20.159   8.331
 2287POPC   C3B31773  23.938  19.970   7.958
 2287POPC   C4B31774  23.871  19.809   7.547
 2288POPC   NC331775   3.016  19.748   9.386
 2288POPC   PO431776   2.560  20.196   9.348
 2288POPC   GL131777   2.531  20.101   8.942
 2288POPC   GL231778   2.503  19.752   9.004
 2288POPC   C1A31779   2.843  20.055   8.581
 2288POPC   D2A31780   3.021  19.720   8.296
 2288POPC   C3A31781   3.090  19.843   7.842
 2288POPC   C4A31782   2.982  19.973   7.398
 2288POPC   C1B31783   2.611  19.588   8.632
 2288POPC   C2B31784   2.505  19.691   8.239
 2288POPC   C3B31785   2.612  19.920   7.928
 2288POPC   C4B31786   2.499  20.294   7.764
 2289POPC   NC331787  11.618  24.803   9.225
 2289POPC   PO431788  11.331  24.262   9.504
 2289POPC   GL131789  11.173  24.420   9.078
 2289POPC   GL231790  11.496  24.336   8.983
 2289POPC   C1A31791  11.124  24.346   8.588
 2289POPC   D2A31792  10.961  24.580   8.225
 2289POPC   C3A31793  11.208  24.599   7.861
 2289POPC   C4A31794  11.485  24.260   7.813
 2289POPC   C1B31795  11.516  24.644   8.635
 2289POPC   C2B31796  11.556  24.502   8.250
 2289POPC   C3B31797  11.731  24.729   7.935
 2289POPC   C4B31798  11.610  24.751   7.510
 2290POPC   NC331799  22.081  10.688   9.341
 2290POPC   PO431800  22.465  10.058   9.494
 2290POPC   GL131801  22.447  10.335   9.134
 2290POPC   GL231802  22.088  10.332   8.982
 2290POPC   C1A31803  22.473  10.534   8.721
 2290POPC   D2A31804  22.282  10.456   8.325
 2290POPC   C3A31805  22.070  10.717   7.993
 2290POPC   C4A31806  22.079  10.649   7.538
 2290POPC   C1B31807  21.830  10.355   8.618
 2290POPC   C2B31808  21.786  10.299   8.179
 2290POPC   C3B31809  21.918  10.159   7.770
 2290POPC   C4B31810  21.789  10.271   7.354
 2291POPC   NC331811   0.148  17.946   9.489
 2291POPC   PO431812   0.519  18.592   9.440
 2291POPC   GL131813   0.416  18.540   9.064
 2291POPC   GL231814   0.257  18.230   9.097
 2291POPC   C1A31815   0.475  18.360   8.668
 2291POPC   D2A31816   0.730  18.302   8.349
 2291POPC   C3A31817   0.549  18.287   7.958
 2291POPC   C4A31818   0.704  18.424   7.583
 2291POPC   C1B31819   0.029  18.088   8.745
 2291POPC   C2B31820   0.065  18.223   8.310
 2291POPC   C3B31821   0.073  18.109   7.874
 2291POPC   C4B31822   0.323  18.080   7.483
 2292POPC   NC331823  24.314  21.881   9.452
 2292POPC   PO431824  24.571  21.278   9.630
 2292POPC   GL131825  24.582  21.364   9.217
 2292POPC   GL231826  24.889  21.582   9.214
 2292POPC   C1A31827  24.342  21.441   8.824
 2292POPC   D2A31828  24.345  21.566   8.386
 2292POPC   C3A31829  24.297  21.248   8.119
 2292POPC   C4A31830  24.324  21.371   7.703
 2292POPC   C1B31831  24.839  21.456   8.792
 2292POPC   C2B31832  24.755  21.254   8.394
 2292POPC   C3B31833  24.767  21.388   7.968
 2292POPC   C4B31834  24.807  21.523   7.551
 2293POPC   NC331835  23.351  11.975   9.497
 2293POPC   PO431836  23.946  11.688   9.182
 2293POPC   GL131837  23.815  12.139   9.149
 2293POPC   GL231838  23.455  12.187   9.044
 2293POPC   C1A31839  23.939  12.419   8.803
 2293POPC   D2A31840  23.754  12.440   8.401
 2293POPC   C3A31841  23.983  12.303   8.052
 2293POPC   C4A31842  23.825  12.027   7.734
 2293POPC   C1B31843  23.679  11.996   8.685
 2293POPC   C2B31844  23.828  11.909   8.331
 2293POPC   C3B31845  23.793  11.621   8.037
 2293POPC   C4B31846  23.467  11.682   7.791
 2294POPC   NC331847   3.928   4.030   9.585
 2294POPC   PO431848   4.568   4.212   9.631
 2294POPC   GL131849   4.412   4.196   9.218
 2294POPC   GL231850   4.207   3.926   9.185
 2294POPC   C1A31851   4.335   4.375   8.801
 2294POPC   D2A31852   4.260   4.591   8.396
 2294POPC   C3A31853   4.424   4.398   8.019
 2294POPC   C4A31854   4.568   4.232   7.627
 2294POPC   C1B31855   4.379   3.845   8.811
 2294POPC   C2B31856   4.352   4.022   8.394
 2294POPC   C3B31857   4.220   3.902   7.980
 2294POPC   C4B31858   4.139   3.947   7.525
 2295POPC   NC331859   3.546  12.715   9.466
 2295POPC   PO431860   3.305  13.330   9.227
 2295POPC   GL131861   3.500  12.999   9.080
 2295POPC   GL231862   3.269  12.752   9.013
 2295POPC   C1A31863   3.683  12.693   8.725
 2295POPC   D2A31864   3.882  12.738   8.293
 2295POPC   C3A31865   3.713  12.946   7.899
 2295POPC   C4A31866   3.583  12.759   7.512
 2295POPC   C1B31867   3.313  13.050   8.641
 2295POPC   C2B31868   3.406  12.930   8.284
 2295POPC   C3B31869   3.210  12.757   7.917
 2295POPC   C4B31870   3.170  13.046   7.593
 2296POPC   NC331871  29.841  21.595   9.520
 2296POPC   PO431872  30.291  21.053   9.579
 2296POPC   GL131873  30.017  21.161   9.251
 2296POPC   GL231874  30.160  20.846   9.135
 2296POPC   C1A31875  29.750  21.317   8.900
 2296POPC   D2A31876  29.906  21.392   8.484
 2296POPC   C3A31877  29.634  21.434   8.133
 2296POPC   C4A31878  29.763  21.390   7.730
 2296POPC   C1B31879  30.238  21.133   8.801
 2296POPC   C2B31880  30.241  20.999   8.403
 2296POPC   C3B31881  30.166  21.218   8.051
 2296POPC   C4B31882  30.254  21.116   7.649
 2297POPC   NC331883  32.721  14.174   9.491
 2297POPC   PO431884  32.249  14.583   9.496
 2297POPC   GL131885  32.467  14.541   9.086
 2297POPC   GL231886  32.568  14.204   9.021
 2297POPC   C1A31887  32.349  14.458   8.604
 2297POPC   D2A31888  32.124  14.428   8.169
 2297POPC   C3A31889  32.257  14.560   7.731
 2297POPC   C4A31890  32.565  14.863   7.595
 2297POPC   C1B31891  32.496  13.928   8.689
 2297POPC   C2B31892  32.333  13.953   8.277
 2297POPC   C3B31893  32.309  14.069   7.854
 2297POPC   C4B31894  32.197  14.098   7.446
 2298POPC   NC331895  16.675  25.754   9.638
 2298POPC   PO431896  16.436  26.411   9.672
 2298POPC   GL131897  16.584  26.219   9.284
 2298POPC   GL231898  16.597  25.878   9.170
 2298POPC   C1A31899  16.535  26.229   8.817
 2298POPC   D2A31900  16.504  26.151   8.358
 2298POPC   C3A31901  16.525  26.291   7.906
 2298POPC   C4A31902  16.488  26.227   7.438
 2298POPC   C1B31903  16.613  25.722   8.778
 2298POPC   C2B31904  16.738  25.667   8.368
 2298POPC   C3B31905  16.883  25.695   7.955
 2298POPC   C4B31906  16.934  26.014   7.649
 2299POPC   NC331907  41.514  29.317   9.354
 2299POPC   PO431908  41.809  28.715   9.644
 2299POPC   GL131909  41.859  28.983   9.245
 2299POPC   GL231910  41.498  28.869   9.124
 2299POPC   C1A31911  41.810  29.179   8.793
 2299POPC   D2A31912  42.026  29.315   8.388
 2299POPC   C3A31913  41.781  29.333   7.971
 2299POPC   C4A31914  41.618  29.110   7.596
 2299POPC   C1B31915  41.306  29.054   8.728
 2299POPC   C2B31916  41.345  29.225   8.289
 2299POPC   C3B31917  41.209  29.213   7.841
 2299POPC   C4B31918  41.162  29.228   7.345
 2300POPC   NC331919  30.547  11.157   9.460
 2300POPC   PO431920  31.028  11.507   9.239
 2300POPC   GL131921  30.703  11.312   9.011
 2300POPC   GL231922  30.874  11.426   8.746
 2300POPC   C1A31923  30.345  11.090   8.779
 2300POPC   D2A31924  30.230  10.874   8.367
 2300POPC   C3A31925  30.314  11.075   7.930
 2300POPC   C4A31926  30.385  11.314   7.502
 2300POPC   C1B31927  30.814  10.994   8.646
 2300POPC   C2B31928  30.608  11.213   8.324
 2300POPC   C3B31929  30.667  11.438   7.948
 2300POPC   C4B31930  30.856  11.197   7.614
 2301POPC   NC331931   3.548  25.724   9.615
 2301POPC   PO431932   3.433  26.400   9.762
 2301POPC   GL131933   3.419  26.180   9.312
 2301POPC   GL231934   3.309  25.832   9.203
 2301POPC   C1A31935   3.558  26.188   8.857
 2301POPC   D2A31936   3.639  26.343   8.433
 2301POPC   C3A31937   3.779  26.087   8.090
 2301POPC   C4A31938   3.652  26.212   7.659
 2301POPC   C1B31939   3.309  25.744   8.798
 2301POPC   C2B31940   3.484  25.840   8.431
 2301POPC   C3B31941   3.338  25.683   8.061
 2301POPC   C4B31942   3.248  25.840   7.674
 2302POPC   NC331943   3.101  37.687   9.623
 2302POPC   PO431944   2.699  37.224   9.606
 2302POPC   GL131945   2.910  37.425   9.195
 2302POPC   GL231946   2.929  37.814   9.152
 2302POPC   C1A31947   2.979  37.561   8.715
 2302POPC   D2A31948   2.679  37.418   8.402
 2302POPC   C3A31949   2.600  37.385   7.948
 2302POPC   C4A31950   2.222  37.407   7.718
 2302POPC   C1B31951   2.581  37.872   8.852
 2302POPC   C2B31952   2.541  37.911   8.393
 2302POPC   C3B31953   2.846  37.831   8.055
 2302POPC   C4B31954   2.826  38.078   7.695
 2303POPC   NC331955   9.715   8.355   9.535
 2303POPC   PO431956   9.646   7.701   9.421
 2303POPC   GL131957   9.751   8.064   9.123
 2303POPC   GL231958   9.556   8.430   9.069
 2303POPC   C1A31959   9.910   8.224   8.765
 2303POPC   D2A31960   9.703   8.229   8.392
 2303POPC   C3A31961   9.843   8.368   8.052
 2303POPC   C4A31962   9.859   8.259   7.653
 2303POPC   C1B31963   9.532   8.625   8.660
 2303POPC   C2B31964   9.339   8.583   8.250
 2303POPC   C3B31965   9.424   8.605   7.800
 2303POPC   C4B31966   9.565   8.568   7.349
 2304POPC   NC331967  21.927   7.406   9.312
 2304POPC   PO431968  22.522   7.440   9.543
 2304POPC   GL131969  22.431   7.528   9.152
 2304POPC   GL231970  22.694   7.295   9.024
 2304POPC   C1A31971  22.264   7.472   8.752
 2304POPC   D2A31972  21.922   7.403   8.469
 2304POPC   C3A31973  21.976   7.687   8.175
 2304POPC   C4A31974  22.078   7.711   7.788
 2304POPC   C1B31975  22.590   7.000   8.742
 2304POPC   C2B31976  22.341   7.093   8.401
 2304POPC   C3B31977  22.253   7.017   7.998
 2304POPC   C4B31978  22.342   6.997   7.590
 2305POPC   NC331979  15.542   5.860   9.554
 2305POPC   PO431980  16.153   6.092   9.683
 2305POPC   GL131981  16.133   5.854   9.270
 2305POPC   GL231982  15.819   5.681   9.180
 2305POPC   C1A31983  16.177   5.837   8.801
 2305POPC   D2A31984  16.135   5.996   8.376
 2305POPC   C3A31985  16.023   5.733   8.017
 2305POPC   C4A31986  16.156   5.804   7.596
 2305POPC   C1B31987  15.679   5.892   8.823
 2305POPC   C2B31988  15.703   5.713   8.437
 2305POPC   C3B31989  15.513   5.776   8.065
 2305POPC   C4B31990  15.657   5.991   7.688
 2306POPC   NC331991  28.233  39.303   9.531
 2306POPC   PO431992  27.674  39.485   9.454
 2306POPC   GL131993  27.647  39.134   9.117
 2306POPC   GL231994  27.325  38.890   9.075
 2306POPC   C1A31995  27.753  39.304   8.716
 2306POPC   D2A31996  27.717  39.582   8.351
 2306POPC   C3A31997  27.482  39.436   8.063
 2306POPC   C4A31998  27.657  39.439   7.661
 2306POPC   C1B31999  27.449  38.910   8.636
 2306POPC   C2B32000  27.582  38.955   8.202
 2306POPC   C3B32001  27.533  38.961   7.742
 2306POPC   C4B32002  27.857  39.064   7.375
 2307POPC   NC332003  36.617   0.696   9.230
 2307POPC   PO432004  37.241   0.635   9.551
 2307POPC   GL132005  37.118   0.689   9.146
 2307POPC   GL232006  37.015   0.335   9.168
 2307POPC   C1A32007  36.966   0.594   8.720
 2307POPC   D2A32008  36.846   0.334   8.397
 2307POPC   C3A32009  36.874   0.578   8.031
 2307POPC   C4A32010  36.703   0.517   7.627
 2307POPC   C1B32011  37.015   0.048   8.836
 2307POPC   C2B32012  37.170  44.900   8.443
 2307POPC   C3B32013  37.063   0.020   8.024
 2307POPC   C4B32014  37.115   0.186   7.614
 2308POPC   NC332015  42.416  30.784   9.508
 2308POPC   PO432016  42.129  31.352   9.220
 2308POPC   GL132017  42.289  30.943   9.039
 2308POPC   GL232018  42.286  30.588   9.065
 2308POPC   C1A32019  42.506  30.747   8.651
 2308POPC   D2A32020  42.652  31.012   8.302
 2308POPC   C3A32021  42.523  30.895   7.897
 2308POPC   C4A32022  42.552  31.185   7.587
 2308POPC   C1B32023  42.318  30.284   8.745
 2308POPC   C2B32024  42.380  30.287   8.312
 2308POPC   C3B32025  42.175  30.215   7.915
 2308POPC   C4B32026  42.252  30.468   7.541
 2309POPC   NC332027  44.379   7.358   9.429
 2309POPC   PO432028  44.970   7.716   9.403
 2309POPC   GL132029  44.727   7.538   9.042
 2309POPC   GL232030  44.356   7.578   8.984
 2309POPC   C1A32031  44.686   7.538   8.587
 2309POPC   D2A32032  44.886   7.380   8.232
 2309POPC   C3A32033  44.768   7.510   7.832
 2309POPC   C4A32034  44.654   7.322   7.456
 2309POPC   C1B32035  44.396   7.151   8.796
 2309POPC   C2B32036  44.497   6.966   8.405
 2309POPC   C3B32037  44.433   7.141   8.008
 2309POPC   C4B32038  44.271   7.473   7.767
 2310POPC   NC332039  11.358  37.463   9.723
 2310POPC   PO432040  11.996  37.748   9.729
 2310POPC   GL132041  12.045  37.688   9.284
 2310POPC   GL232042  11.845  37.999   9.271
 2310POPC   C1A32043  12.280  37.700   8.837
 2310POPC   D2A32044  12.386  37.652   8.370
 2310POPC   C3A32045  12.179  37.770   7.979
 2310POPC   C4A32046  12.229  37.586   7.534
 2310POPC   C1B32047  11.773  37.828   8.858
 2310POPC   C2B32048  11.804  37.682   8.458
 2310POPC   C3B32049  11.697  37.891   8.085
 2310POPC   C4B32050  11.752  37.706   7.693
 2311POPC   NC332051   2.783  42.681   9.612
 2311POPC   PO432052   2.540  42.174   9.467
 2311POPC   GL132053   2.787  42.279   9.152
 2311POPC   GL232054   2.980  42.597   9.151
 2311POPC   C1A32055   2.616  42.136   8.761
 2311POPC   D2A32056   2.460  42.334   8.387
 2311POPC   C3A32057   2.623  42.246   8.011
 2311POPC   C4A32058   2.755  42.364   7.604
 2311POPC   C1B32059   3.104  42.324   8.776
 2311POPC   C2B32060   2.995  42.187   8.386
 2311POPC   C3B32061   3.111  42.355   7.991
 2311POPC   C4B32062   3.198  42.633   7.603
 2312POPC   NC332063  30.396  22.988   9.562
 2312POPC   PO432064  30.919  23.392   9.526
 2312POPC   GL132065  30.735  23.086   9.191
 2312POPC   GL232066  30.674  22.723   9.093
 2312POPC   C1A32067  30.705  23.095   8.734
 2312POPC   D2A32068  30.721  23.241   8.302
 2312POPC   C3A32069  30.813  23.073   7.898
 2312POPC   C4A32070  30.796  23.211   7.471
 2312POPC   C1B32071  30.966  22.627   8.717
 2312POPC   C2B32072  31.011  22.438   8.277
 2312POPC   C3B32073  31.128  22.633   7.842
 2312POPC   C4B32074  31.208  22.796   7.391
 2313POPC   NC332075   8.427  37.915   9.425
 2313POPC   PO432076   7.759  37.671   9.474
 2313POPC   GL132077   8.088  37.650   9.138
 2313POPC   GL232078   8.184  37.937   8.963
 2313POPC   C1A32079   8.278  37.458   8.762
 2313POPC   D2A32080   8.148  37.311   8.371
 2313POPC   C3A32081   8.334  37.391   8.011
 2313POPC   C4A32082   8.251  37.609   7.674
 2313POPC   C1B32083   8.538  37.911   8.715
 2313POPC   C2B32084   8.486  37.746   8.318
 2313POPC   C3B32085   8.566  37.946   7.906
 2313POPC   C4B32086   8.310  38.102   7.555
 2314POPC   NC332087  11.880  15.792   9.463
 2314POPC   PO432088  12.155  16.381   9.543
 2314POPC   GL132089  12.196  16.123   9.185
 2314POPC   GL232090  11.862  16.198   9.112
 2314POPC   C1A32091  12.175  16.124   8.716
 2314POPC   D2A32092  12.271  15.805   8.380
 2314POPC   C3A32093  12.087  15.865   7.966
 2314POPC   C4A32094  12.236  15.698   7.606
 2314POPC   C1B32095  11.629  16.130   8.743
 2314POPC   C2B32096  11.792  16.034   8.345
 2314POPC   C3B32097  11.587  16.173   7.941
 2314POPC   C4B32098  11.883  16.240   7.610
 2315POPC   NC332099  20.858   9.624   9.739
 2315POPC   PO432100  20.283   9.937   9.567
 2315POPC   GL132101  20.543   9.671   9.280
 2315POPC   GL232102  20.292   9.715   9.015
 2315POPC   C1A32103  20.768   9.630   8.868
 2315POPC   D2A32104  20.537   9.636   8.467
 2315POPC   C3A32105  20.748   9.595   8.075
 2315POPC   C4A32106  20.645   9.598   7.649
 2315POPC   C1B32107  20.359  10.072   8.716
 2315POPC   C2B32108  20.245  10.099   8.287
 2315POPC   C3B32109  20.274   9.791   8.009
 2315POPC   C4B32110  20.247   9.912   7.582
 2316POPC   NC332111   7.567  11.751   9.503
 2316POPC   PO432112   6.980  12.122   9.418
 2316POPC   GL132113   7.357  12.085   9.146
 2316POPC   GL232114   7.457  11.783   9.006
 2316POPC   C1A32115   7.429  12.184   8.705
 2316POPC   D2A32116   7.196  12.442   8.434
 2316POPC   C3A32117   7.263  12.283   8.039
 2316POPC   C4A32118   7.388  12.524   7.702
 2316POPC   C1B32119   7.437  11.645   8.579
 2316POPC   C2B32120   7.533  11.639   8.153
 2316POPC   C3B32121   7.744  11.941   7.951
 2316POPC   C4B32122   7.444  11.961   7.666
 2317POPC   NC332123  43.511  38.201   9.355
 2317POPC   PO432124  43.984  38.657   9.425
 2317POPC   GL132125  44.067  38.543   9.050
 2317POPC   GL232126  43.933  38.223   9.055
 2317POPC   C1A32127  44.154  38.424   8.650
 2317POPC   D2A32128  43.945  38.291   8.325
 2317POPC   C3A32129  44.121  38.483   8.031
 2317POPC   C4A32130  43.847  38.458   7.759
 2317POPC   C1B32131  43.639  38.449   8.754
 2317POPC   C2B32132  43.418  38.440   8.363
 2317POPC   C3B32133  43.404  38.299   7.936
 2317POPC   C4B32134  43.451  38.414   7.475
 2318POPC   NC332135  35.037  42.058   9.464
 2318POPC   PO432136  35.692  42.421   9.545
 2318POPC   GL132137  35.425  42.380   9.215
 2318POPC   GL232138  35.476  42.037   9.200
 2318POPC   C1A32139  35.187  42.277   8.835
 2318POPC   D2A32140  35.149  42.432   8.424
 2318POPC   C3A32141  35.048  42.212   8.044
 2318POPC   C4A32142  35.172  42.461   7.750
 2318POPC   C1B32143  35.720  42.132   8.853
 2318POPC   C2B32144  35.539  42.075   8.468
 2318POPC   C3B32145  35.571  42.302   8.109
 2318POPC   C4B32146  35.504  42.083   7.749
 2319POPC   NC332147   7.794  34.035   9.443
 2319POPC   PO432148   8.376  33.532   9.618
 2319POPC   GL132149   8.187  33.629   9.213
 2319POPC   GL232150   7.891  33.484   9.156
 2319POPC   C1A32151   8.030  33.956   8.853
 2319POPC   D2A32152   8.236  34.212   8.542
 2319POPC   C3A32153   8.171  34.141   8.092
 2319POPC   C4A32154   8.196  33.835   7.767
 2319POPC   C1B32155   8.161  33.498   8.736
 2319POPC   C2B32156   8.084  33.691   8.331
 2319POPC   C3B32157   7.836  33.555   7.976
 2319POPC   C4B32158   7.920  33.328   7.579
 2320POPC   NC332159  20.777  14.932   9.565
 2320POPC   PO432160  20.432  15.605   9.582
 2320POPC   GL132161  20.674  15.383   9.287
 2320POPC   GL232162  20.435  15.147   9.242
 2320POPC   C1A32163  20.838  15.368   8.855
 2320POPC   D2A32164  20.841  15.672   8.509
 2320POPC   C3A32165  20.870  15.467   8.130
 2320POPC   C4A32166  20.680  15.225   7.798
 2320POPC   C1B32167  20.347  15.203   8.811
 2320POPC   C2B32168  20.569  15.175   8.417
 2320POPC   C3B32169  20.593  14.834   8.103
 2320POPC   C4B32170  20.267  14.894   7.787
 2321POPC   NC332171  14.025  38.962   9.354
 2321POPC   PO432172  13.446  39.278   9.514
 2321POPC   GL132173  13.556  39.230   9.093
 2321POPC   GL232174  13.841  39.447   9.087
 2321POPC   C1A32175  13.426  39.030   8.706
 2321POPC   D2A32176  13.546  38.953   8.275
 2321POPC   C3A32177  13.328  39.173   7.912
 2321POPC   C4A32178  13.439  39.505   7.614
 2321POPC   C1B32179  13.661  39.500   8.618
 2321POPC   C2B32180  13.671  39.489   8.133
 2321POPC   C3B32181  13.825  39.175   7.777
 2321POPC   C4B32182  13.728  38.856   7.449
 2322POPC   NC332183  28.327  35.563   9.522
 2322POPC   PO432184  28.163  34.959   9.556
 2322POPC   GL132185  28.273  35.220   9.170
 2322POPC   GL232186  28.593  35.395   9.115
 2322POPC   C1A32187  28.158  35.497   8.811
 2322POPC   D2A32188  28.177  35.320   8.381
 2322POPC   C3A32189  27.961  35.442   7.991
 2322POPC   C4A32190  28.113  35.238   7.597
 2322POPC   C1B32191  28.624  35.348   8.657
 2322POPC   C2B32192  28.593  35.559   8.251
 2322POPC   C3B32193  28.456  35.525   7.868
 2322POPC   C4B32194  28.604  35.326   7.515
 2323POPC   NC332195  41.284   9.984   9.397
 2323POPC   PO432196  41.718   9.473   9.648
 2323POPC   GL132197  41.580   9.576   9.216
 2323POPC   GL232198  41.279   9.583   9.071
 2323POPC   C1A32199  41.704   9.567   8.801
 2323POPC   D2A32200  41.750   9.757   8.439
 2323POPC   C3A32201  41.634   9.531   8.071
 2323POPC   C4A32202  41.416   9.748   7.755
 2323POPC   C1B32203  41.293   9.883   8.727
 2323POPC   C2B32204  41.258   9.886   8.289
 2323POPC   C3B32205  41.077  10.102   7.965
 2323POPC   C4B32206  41.033  10.004   7.535
 2324POPC   NC332207  13.622  33.421   9.443
 2324POPC   PO432208  13.468  34.041   9.443
 2324POPC   GL132209  13.698  33.840   9.148
 2324POPC   GL232210  13.492  33.597   9.008
 2324POPC   C1A32211  13.906  33.808   8.750
 2324POPC   D2A32212  14.013  34.043   8.373
 2324POPC   C3A32213  13.780  33.959   7.981
 2324POPC   C4A32214  13.456  34.110   7.718
 2324POPC   C1B32215  13.416  33.775   8.647
 2324POPC   C2B32216  13.671  33.607   8.332
 2324POPC   C3B32217  13.571  33.388   7.969
 2324POPC   C4B32218  13.308  33.628   7.735
 2325POPC   NC332219  43.635  23.473   9.414
 2325POPC   PO432220  44.145  23.912   9.550
 2325POPC   GL132221  43.924  23.818   9.182
 2325POPC   GL232222  43.548  23.919   9.142
 2325POPC   C1A32223  43.965  23.505   8.809
 2325POPC   D2A32224  44.102  23.330   8.387
 2325POPC   C3A32225  44.011  23.585   8.006
 2325POPC   C4A32226  44.089  23.495   7.583
 2325POPC   C1B32227  43.766  23.973   8.749
 2325POPC   C2B32228  43.820  24.100   8.370
 2325POPC   C3B32229  43.641  23.952   8.048
 2325POPC   C4B32230  43.731  23.860   7.637
 2326POPC   NC332231   3.113  36.984   9.503
 2326POPC   PO432232   2.578  36.617   9.501
 2326POPC   GL132233   2.707  36.922   9.189
 2326POPC   GL232234   2.995  36.713   9.069
 2326POPC   C1A32235   2.551  37.020   8.768
 2326POPC   D2A32236   2.781  36.919   8.386
 2326POPC   C3A32237   2.594  36.714   8.065
 2326POPC   C4A32238   2.380  36.917   7.721
 2326POPC   C1B32239   3.057  37.081   8.806
 2326POPC   C2B32240   3.178  37.217   8.344
 2326POPC   C3B32241   2.995  37.046   7.910
 2326POPC   C4B32242   3.029  36.759   7.510
 2327POPC   NC332243   2.255  16.820   9.518
 2327POPC   PO432244   2.940  16.829   9.476
 2327POPC   GL132245   2.761  16.643   9.128
 2327POPC   GL232246   2.634  16.972   9.078
 2327POPC   C1A32247   2.872  16.585   8.696
 2327POPC   D2A32248   2.916  16.783   8.286
 2327POPC   C3A32249   2.994  16.597   7.872
 2327POPC   C4A32250   3.070  16.745   7.411
 2327POPC   C1B32251   2.457  16.953   8.683
 2327POPC   C2B32252   2.533  17.114   8.258
 2327POPC   C3B32253   2.629  16.958   7.879
 2327POPC   C4B32254   2.271  16.888   7.707
 2328POPC   NC332255   0.726  14.637   9.532
 2328POPC   PO432256   0.119  14.363   9.646
 2328POPC   GL132257   0.439  14.343   9.233
 2328POPC   GL232258   0.531  14.613   9.059
 2328POPC   C1A32259   0.669  14.148   8.859
 2328POPC   D2A32260   0.490  14.104   8.462
 2328POPC   C3A32261   0.607  14.102   8.036
 2328POPC   C4A32262   0.312  14.303   7.729
 2328POPC   C1B32263   0.552  14.608   8.657
 2328POPC   C2B32264   0.412  14.587   8.246
 2328POPC   C3B32265   0.668  14.611   7.895
 2328POPC   C4B32266   0.670  14.501   7.425
 2329POPC   NC332267   2.415   9.486   9.175
 2329POPC   PO432268   3.050   9.414   9.434
 2329POPC   GL132269   2.935   9.714   9.117
 2329POPC   GL232270   2.727   9.986   9.199
 2329POPC   C1A32271   3.101   9.780   8.715
 2329POPC   D2A32272   2.837   9.850   8.363
 2329POPC   C3A32273   2.945   9.813   7.913
 2329POPC   C4A32274   2.888   9.732   7.477
 2329POPC   C1B32275   2.456  10.027   8.843
 2329POPC   C2B32276   2.401  10.129   8.433
 2329POPC   C3B32277   2.496  10.041   8.031
 2329POPC   C4B32278   2.448  10.275   7.712
 2330POPC   NC332279  19.830   7.862   9.461
 2330POPC   PO432280  19.498   8.387   9.528
 2330POPC   GL132281  19.792   8.343   9.164
 2330POPC   GL232282  20.066   8.087   9.086
 2330POPC   C1A32283  19.960   8.448   8.774
 2330POPC   D2A32284  19.744   8.500   8.445
 2330POPC   C3A32285  19.995   8.432   8.127
 2330POPC   C4A32286  19.782   8.471   7.754
 2330POPC   C1B32287  19.747   7.979   8.822
 2330POPC   C2B32288  19.866   7.987   8.433
 2330POPC   C3B32289  19.655   8.085   8.111
 2330POPC   C4B32290  19.659   7.960   7.694
 2331POPC   NC332291  10.046  31.985   9.611
 2331POPC   PO432292   9.455  32.314   9.564
 2331POPC   GL132293   9.601  32.456   9.154
 2331POPC   GL232294   9.275  32.539   9.084
 2331POPC   C1A32295   9.722  32.387   8.713
 2331POPC   D2A32296   9.993  32.550   8.388
 2331POPC   C3A32297   9.958  32.332   8.057
 2331POPC   C4A32298  10.088  32.471   7.639
 2331POPC   C1B32299   9.288  32.115   8.903
 2331POPC   C2B32300   9.338  32.029   8.462
 2331POPC   C3B32301   9.467  32.112   8.037
 2331POPC   C4B32302   9.586  32.408   7.735
 2332POPC   NC332303  30.477   8.100   9.814
 2332POPC   PO432304  31.128   8.278   9.661
 2332POPC   GL132305  30.863   8.231   9.269
 2332POPC   GL232306  30.543   8.068   9.307
 2332POPC   C1A32307  30.785   8.218   8.800
 2332POPC   D2A32308  30.978   8.109   8.370
 2332POPC   C3A32309  30.835   8.211   7.946
 2332POPC   C4A32310  30.809   8.635   7.735
 2332POPC   C1B32311  30.412   7.868   8.934
 2332POPC   C2B32312  30.587   7.820   8.529
 2332POPC   C3B32313  30.437   8.019   8.186
 2332POPC   C4B32314  30.408   8.021   7.737
 2333POPC   NC332315   3.740  28.455   9.563
 2333POPC   PO432316   3.980  27.790   9.443
 2333POPC   GL132317   3.655  28.064   9.199
 2333POPC   GL232318   3.656  28.427   9.083
 2333POPC   C1A32319   3.329  28.107   8.871
 2333POPC   D2A32320   3.291  28.472   8.562
 2333POPC   C3A32321   3.469  28.330   8.162
 2333POPC   C4A32322   3.434  28.344   7.712
 2333POPC   C1B32323   3.772  28.337   8.698
 2333POPC   C2B32324   3.800  28.641   8.388
 2333POPC   C3B32325   3.855  28.655   7.967
 2333POPC   C4B32326   3.943  28.362   7.677
 2334POPC   NC332327  20.007   4.521   9.875
 2334POPC   PO432328  19.900   3.999   9.447
 2334POPC   GL132329  19.817   4.102   9.056
 2334POPC   GL232330  19.802   4.470   8.970
 2334POPC   C1A32331  19.712   4.108   8.652
 2334POPC   D2A32332  19.747   4.391   8.368
 2334POPC   C3A32333  19.772   4.117   8.055
 2334POPC   C4A32334  19.916   3.968   7.705
 2334POPC   C1B32335  19.803   4.813   8.674
 2334POPC   C2B32336  19.881   4.862   8.227
 2334POPC   C3B32337  19.826   4.610   7.857
 2334POPC   C4B32338  19.974   4.421   7.452
 2335POPC   NC332339  41.819  14.030   9.207
 2335POPC   PO432340  41.777  14.638   9.466
 2335POPC   GL132341  41.566  14.505   9.110
 2335POPC   GL232342  41.293  14.308   9.141
 2335POPC   C1A32343  41.564  14.337   8.686
 2335POPC   D2A32344  41.434  14.049   8.386
 2335POPC   C3A32345  41.553  14.230   7.998
 2335POPC   C4A32346  41.784  14.348   7.672
 2335POPC   C1B32347  41.081  14.181   8.751
 2335POPC   C2B32348  40.967  14.248   8.321
 2335POPC   C3B32349  41.104  14.023   7.976
 2335POPC   C4B32350  41.253  14.171   7.557
 2336POPC   NC332351   5.734  10.115   9.581
 2336POPC   PO432352   5.532   9.495   9.349
 2336POPC   GL132353   5.727   9.806   9.082
 2336POPC   GL232354   5.628  10.139   9.094
 2336POPC   C1A32355   5.938   9.756   8.675
 2336POPC   D2A32356   5.752   9.548   8.331
 2336POPC   C3A32357   5.807   9.706   7.922
 2336POPC   C4A32358   5.756   9.853   7.489
 2336POPC   C1B32359   5.796  10.251   8.721
 2336POPC   C2B32360   5.699  10.069   8.325
 2336POPC   C3B32361   5.815  10.214   7.962
 2336POPC   C4B32362   5.881  10.341   7.587
 2337POPC   NC332363  35.769  35.467   9.382
 2337POPC   PO432364  36.341  35.734   9.434
 2337POPC   GL132365  36.227  35.420   9.099
 2337POPC   GL232366  36.319  35.072   9.057
 2337POPC   C1A32367  36.096  35.497   8.660
 2337POPC   D2A32368  35.995  35.887   8.390
 2337POPC   C3A32369  35.870  35.776   7.955
 2337POPC   C4A32370  35.998  35.412   7.709
 2337POPC   C1B32371  36.416  35.029   8.629
 2337POPC   C2B32372  36.403  34.975   8.180
 2337POPC   C3B32373  36.473  35.149   7.767
 2337POPC   C4B32374  36.454  34.943   7.359
 2338POPC   NC332375   4.932   6.385   9.459
 2338POPC   PO432376   5.003   5.732   9.701
 2338POPC   GL132377   5.017   5.752   9.268
 2338POPC   GL232378   4.978   6.039   9.103
 2338POPC   C1A32379   5.069   5.611   8.829
 2338POPC   D2A32380   4.987   5.680   8.395
 2338POPC   C3A32381   5.287   5.603   8.045
 2338POPC   C4A32382   5.345   5.708   7.601
 2338POPC   C1B32383   5.254   6.108   8.744
 2338POPC   C2B32384   5.395   6.004   8.331
 2338POPC   C3B32385   5.311   6.127   7.900
 2338POPC   C4B32386   5.332   6.396   7.512
 2339POPC   NC332387  36.950  44.988   9.667
 2339POPC   PO432388  36.757  44.374   9.527
 2339POPC   GL132389  36.958  44.656   9.256
 2339POPC   GL232390  36.674  44.902   9.222
 2339POPC   C1A32391  37.169  44.549   8.870
 2339POPC   D2A32392  37.308  44.391   8.463
 2339POPC   C3A32393  37.029  44.493   8.117
 2339POPC   C4A32394  36.896  44.386   7.704
 2339POPC   C1B32395  36.654  44.648   8.823
 2339POPC   C2B32396  36.662  44.829   8.398
 2339POPC   C3B32397  36.599  44.747   7.955
 2339POPC   C4B32398  36.606  44.993   7.593
 2340POPC   NC332399  40.911  17.393   9.539
 2340POPC   PO432400  40.287  17.566   9.461
 2340POPC   GL132401  40.565  17.414   9.177
 2340POPC   GL232402  40.821  17.660   9.099
 2340POPC   C1A32403  40.505  17.278   8.789
 2340POPC   D2A32404  40.461  17.561   8.465
 2340POPC   C3A32405  40.506  17.501   8.045
 2340POPC   C4A32406  40.728  17.625   7.678
 2340POPC   C1B32407  40.959  17.461   8.714
 2340POPC   C2B32408  40.985  17.549   8.297
 2340POPC   C3B32409  41.117  17.840   7.997
 2340POPC   C4B32410  41.221  17.754   7.536
 2341POPC   NC332411  36.784  17.577   9.454
 2341POPC   PO432412  37.497  17.474   9.487
 2341POPC   GL132413  37.196  17.663   9.125
 2341POPC   GL232414  37.035  17.359   9.061
 2341POPC   C1A32415  36.861  17.702   8.763
 2341POPC   D2A32416  36.829  17.430   8.410
 2341POPC   C3A32417  36.899  17.633   8.025
 2341POPC   C4A32418  36.859  17.789   7.622
 2341POPC   C1B32419  36.939  17.065   8.761
 2341POPC   C2B32420  36.973  16.891   8.394
 2341POPC   C3B32421  36.999  17.112   8.042
 2341POPC   C4B32422  36.727  17.265   7.721
 2342POPC   NC332423  23.763   0.670   9.578
 2342POPC   PO432424  23.409   0.120   9.592
 2342POPC   GL132425  23.397   0.443   9.265
 2342POPC   GL232426  23.748   0.433   9.112
 2342POPC   C1A32427  23.306   0.370   8.849
 2342POPC   D2A32428  23.649   0.380   8.566
 2342POPC   C3A32429  23.631   0.403   8.122
 2342POPC   C4A32430  23.524   0.215   7.716
 2342POPC   C1B32431  24.017   0.656   8.810
 2342POPC   C2B32432  23.994   0.926   8.451
 2342POPC   C3B32433  24.104   0.754   8.073
 2342POPC   C4B32434  23.999   0.440   7.763
 2343POPC   NC332435  28.017  37.098   9.898
 2343POPC   PO432436  28.423  36.718   9.472
 2343POPC   GL132437  28.439  36.861   9.073
 2343POPC   GL232438  28.168  36.665   9.005
 2343POPC   C1A32439  28.257  37.189   8.780
 2343POPC   D2A32440  28.354  37.378   8.390
 2343POPC   C3A32441  28.568  37.211   8.021
 2343POPC   C4A32442  28.561  37.043   7.597
 2343POPC   C1B32443  28.303  36.729   8.604
 2343POPC   C2B32444  28.319  36.835   8.219
 2343POPC   C3B32445  28.117  36.960   7.843
 2343POPC   C4B32446  28.176  36.704   7.467
 2344POPC   NC332447  38.046  15.425   9.816
 2344POPC   PO432448  37.699  14.882   9.561
 2344POPC   GL132449  37.524  15.027   9.133
 2344POPC   GL232450  37.547  15.370   9.114
 2344POPC   C1A32451  37.686  15.044   8.708
 2344POPC   D2A32452  37.919  15.098   8.305
 2344POPC   C3A32453  37.649  14.983   7.954
 2344POPC   C4A32454  37.470  14.770   7.606
 2344POPC   C1B32455  37.686  15.575   8.719
 2344POPC   C2B32456  37.628  15.518   8.263
 2344POPC   C3B32457  37.887  15.439   7.876
 2344POPC   C4B32458  37.988  15.634   7.480
 2345POPC   NC332459  43.410   0.454   9.497
 2345POPC   PO432460  42.814   0.676   9.827
 2345POPC   GL132461  42.962   0.671   9.366
 2345POPC   GL232462  42.982   0.367   9.252
 2345POPC   C1A32463  43.013   0.757   8.878
 2345POPC   D2A32464  42.993   0.999   8.496
 2345POPC   C3A32465  43.143   0.850   8.123
 2345POPC   C4A32466  43.263   0.620   7.803
 2345POPC   C1B32467  43.069   0.241   8.841
 2345POPC   C2B32468  43.112   0.429   8.432
 2345POPC   C3B32469  43.094   0.176   8.042
 2345POPC   C4B32470  43.182   0.170   7.604
 2346POPC   NC332471  35.849  19.917   9.778
 2346POPC   PO432472  36.336  19.755   9.352
 2346POPC   GL132473  35.986  19.635   9.161
 2346POPC   GL232474  35.767  19.918   9.220
 2346POPC   C1A32475  35.906  19.622   8.726
 2346POPC   D2A32476  35.942  19.567   8.287
 2346POPC   C3A32477  36.262  19.712   8.009
 2346POPC   C4A32478  36.036  19.742   7.625
 2346POPC   C1B32479  35.863  20.133   8.833
 2346POPC   C2B32480  36.012  20.061   8.425
 2346POPC   C3B32481  35.966  20.133   8.008
 2346POPC   C4B32482  36.288  20.170   7.697
 2347POPC   NC332483   7.481  31.882   9.702
 2347POPC   PO432484   7.095  32.289   9.285
 2347POPC   GL132485   7.462  32.340   9.030
 2347POPC   GL232486   7.660  32.018   9.056
 2347POPC   C1A32487   7.321  32.494   8.616
 2347POPC   D2A32488   7.014  32.327   8.307
 2347POPC   C3A32489   7.097  32.399   7.869
 2347POPC   C4A32490   7.323  32.260   7.501
 2347POPC   C1B32491   7.482  31.988   8.640
 2347POPC   C2B32492   7.547  32.163   8.291
 2347POPC   C3B32493   7.635  32.237   7.909
 2347POPC   C4B32494   7.631  31.902   7.687
 2348POPC   NC332495  25.844   2.840   9.525
 2348POPC   PO432496  26.365   2.440   9.426
 2348POPC   GL132497  26.143   2.694   9.146
 2348POPC   GL232498  25.766   2.621   9.073
 2348POPC   C1A32499  26.135   2.836   8.727
 2348POPC   D2A32500  26.195   2.612   8.336
 2348POPC   C3A32501  26.101   2.796   7.939
 2348POPC   C4A32502  26.385   3.051   7.699
 2348POPC   C1B32503  25.977   2.353   8.806
 2348POPC   C2B32504  25.880   2.222   8.426
 2348POPC   C3B32505  25.818   2.361   8.039
 2348POPC   C4B32506  25.800   2.493   7.644
 2349POPC   NC332507   7.119  10.950   9.396
 2349POPC   PO432508   6.530  11.321   9.341
 2349POPC   GL132509   6.851  11.340   9.097
 2349POPC   GL232510   6.992  11.653   9.200
 2349POPC   C1A32511   6.706  11.339   8.695
 2349POPC   D2A32512   6.494  11.204   8.369
 2349POPC   C3A32513   6.666  11.321   8.009
 2349POPC   C4A32514   6.477  11.411   7.651
 2349POPC   C1B32515   6.963  11.779   8.768
 2349POPC   C2B32516   6.973  11.592   8.350
 2349POPC   C3B32517   7.058  11.769   7.954
 2349POPC   C4B32518   6.890  11.672   7.553
 2350POPC   NC332519  27.256  30.047   9.564
 2350POPC   PO432520  27.861  29.770   9.525
 2350POPC   GL132521  27.555  29.762   9.200
 2350POPC   GL232522  27.398  30.067   9.081
 2350POPC   C1A32523  27.581  29.646   8.765
 2350POPC   D2A32524  27.388  29.651   8.341
 2350POPC   C3A32525  27.701  29.690   8.023
 2350POPC   C4A32526  27.614  29.951   7.654
 2350POPC   C1B32527  27.446  30.130   8.649
 2350POPC   C2B32528  27.503  30.167   8.253
 2350POPC   C3B32529  27.543  30.357   7.914
 2350POPC   C4B32530  27.276  30.384   7.616
 2351POPC   NC332531   9.614  28.220   9.472
 2351POPC   PO432532   9.251  28.583   9.896
 2351POPC   GL132533   9.569  28.718   9.390
 2351POPC   GL232534   9.498  28.474   9.043
 2351POPC   C1A32535   9.763  28.873   8.957
 2351POPC   D2A32536   9.631  28.815   8.509
 2351POPC   C3A32537   9.870  28.601   8.151
 2351POPC   C4A32538  10.052  28.785   7.783
 2351POPC   C1B32539   9.384  28.169   8.685
 2351POPC   C2B32540   9.245  28.138   8.225
 2351POPC   C3B32541   9.566  28.133   7.887
 2351POPC   C4B32542   9.967  27.904   7.859
 2352POPC   NC332543  38.141  20.815   9.374
 2352POPC   PO432544  38.221  21.306   9.849
 2352POPC   GL132545  38.390  21.270   9.381
 2352POPC   GL232546  38.762  21.257   9.324
 2352POPC   C1A32547  38.434  21.176   8.898
 2352POPC   D2A32548  38.344  21.398   8.506
 2352POPC   C3A32549  38.312  21.245   8.070
 2352POPC   C4A32550  38.288  21.556   7.757
 2352POPC   C1B32551  38.854  21.506   8.924
 2352POPC   C2B32552  38.873  21.444   8.485
 2352POPC   C3B32553  38.742  21.546   8.066
 2352POPC   C4B32554  38.739  21.278   7.707
 2353POPC   NC332555  36.337  41.076   9.495
 2353POPC   PO432556  35.715  40.797   9.513
 2353POPC   GL132557  35.952  40.817   9.150
 2353POPC   GL232558  35.842  41.128   9.055
 2353POPC   C1A32559  36.284  40.660   8.855
 2353POPC   D2A32560  36.521  40.589   8.455
 2353POPC   C3A32561  36.286  40.573   8.059
 2353POPC   C4A32562  36.450  40.423   7.684
 2353POPC   C1B32563  35.744  41.085   8.604
 2353POPC   C2B32564  36.069  41.005   8.310
 2353POPC   C3B32565  36.480  41.043   8.142
 2353POPC   C4B32566  36.461  40.947   7.709
 2354POPC   NC332567  19.254  18.648   9.978
 2354POPC   PO432568  18.836  18.292   9.580
 2354POPC   GL132569  18.979  18.354   9.183
 2354POPC   GL232570  19.072  18.026   9.171
 2354POPC   C1A32571  19.025  18.444   8.746
 2354POPC   D2A32572  19.188  18.235   8.381
 2354POPC   C3A32573  19.253  18.465   7.985
 2354POPC   C4A32574  19.451  18.268   7.621
 2354POPC   C1B32575  18.692  18.075   8.889
 2354POPC   C2B32576  18.691  18.105   8.449
 2354POPC   C3B32577  18.820  18.168   8.035
 2354POPC   C4B32578  18.653  17.975   7.702
 2355POPC   NC332579  15.424  15.058   9.465
 2355POPC   PO432580  14.761  15.362   9.505
 2355POPC   GL132581  15.019  15.168   9.197
 2355POPC   GL232582  14.870  14.851   9.159
 2355POPC   C1A32583  15.260  14.993   8.805
 2355POPC   D2A32584  15.437  15.053   8.372
 2355POPC   C3A32585  15.196  14.965   7.963
 2355POPC   C4A32586  15.285  15.151   7.526
 2355POPC   C1B32587  14.752  15.133   8.796
 2355POPC   C2B32588  14.939  15.196   8.405
 2355POPC   C3B32589  14.737  15.152   8.031
 2355POPC   C4B32590  14.801  15.220   7.635
 2356POPC   NC332591  25.416  40.860   9.668
 2356POPC   PO432592  24.735  40.830   9.623
 2356POPC   GL132593  25.042  40.823   9.242
 2356POPC   GL232594  25.361  40.991   9.175
 2356POPC   C1A32595  25.222  40.635   8.851
 2356POPC   D2A32596  25.388  40.612   8.432
 2356POPC   C3A32597  25.121  40.755   8.114
 2356POPC   C4A32598  25.131  40.896   7.704
 2356POPC   C1B32599  25.550  41.052   8.773
 2356POPC   C2B32600  25.446  41.114   8.329
 2356POPC   C3B32601  25.593  40.854   7.986
 2356POPC   C4B32602  25.719  40.861   7.572
 2357POPC   NC332603  20.779   8.680   9.419
 2357POPC   PO432604  20.271   8.163   9.527
 2357POPC   GL132605  20.541   8.284   9.157
 2357POPC   GL232606  20.608   7.993   8.994
 2357POPC   C1A32607  20.713   8.432   8.743
 2357POPC   D2A32608  20.489   8.433   8.324
 2357POPC   C3A32609  20.721   8.314   7.935
 2357POPC   C4A32610  21.003   7.984   7.805
 2357POPC   C1B32611  20.297   7.832   8.703
 2357POPC   C2B32612  20.313   7.811   8.252
 2357POPC   C3B32613  20.108   7.994   7.910
 2357POPC   C4B32614  20.279   8.306   7.669
 2358POPC   NC332615  38.355   1.629   9.443
 2358POPC   PO432616  38.658   1.042   9.587
 2358POPC   GL132617  38.631   1.125   9.150
 2358POPC   GL232618  38.705   1.472   9.105
 2358POPC   C1A32619  38.384   1.252   8.761
 2358POPC   D2A32620  38.231   1.072   8.350
 2358POPC   C3A32621  38.500   0.995   8.013
 2358POPC   C4A32622  38.251   1.129   7.666
 2358POPC   C1B32623  38.797   1.594   8.698
 2358POPC   C2B32624  38.658   1.390   8.335
 2358POPC   C3B32625  38.335   1.488   8.055
 2358POPC   C4B32626  38.481   1.637   7.704
 2359POPC   NC332627  29.689  10.922   9.368
 2359POPC   PO432628  29.573  10.280   9.440
 2359POPC   GL132629  29.858  10.460   9.123
 2359POPC   GL232630  30.053  10.776   9.065
 2359POPC   C1A32631  30.039  10.398   8.712
 2359POPC   D2A32632  30.008  10.392   8.277
 2359POPC   C3A32633  30.292  10.555   7.980
 2359POPC   C4A32634  30.093  10.548   7.597
 2359POPC   C1B32635  29.837  10.910   8.700
 2359POPC   C2B32636  29.717  10.803   8.284
 2359POPC   C3B32637  29.835  10.901   7.853
 2359POPC   C4B32638  29.627  10.735   7.476
 2360POPC   NC332639  23.157  42.952   9.454
 2360POPC   PO432640  22.561  43.002   9.729
 2360POPC   GL132641  22.658  43.293   9.306
 2360POPC   GL232642  23.019  43.414   9.240
 2360POPC   C1A32643  22.732  43.370   8.818
 2360POPC   D2A32644  22.944  43.139   8.430
 2360POPC   C3A32645  22.917  43.278   7.999
 2360POPC   C4A32646  22.832  43.126   7.570
 2360POPC   C1B32647  23.224  43.271   8.839
 2360POPC   C2B32648  23.448  43.122   8.491
 2360POPC   C3B32649  23.378  43.062   8.078
 2360POPC   C4B32650  23.347  43.276   7.741
 2361POPC   NC332651   6.617  32.303   9.470
 2361POPC   PO432652   6.949  31.693   9.529
 2361POPC   GL132653   6.699  31.905   9.139
 2361POPC   GL232654   6.392  32.123   9.067
 2361POPC   C1A32655   6.731  32.066   8.688
 2361POPC   D2A32656   6.493  32.020   8.295
 2361POPC   C3A32657   6.782  31.985   7.948
 2361POPC   C4A32658   6.802  32.139   7.529
 2361POPC   C1B32659   6.526  32.502   8.809
 2361POPC   C2B32660   6.631  32.689   8.393
 2361POPC   C3B32661   6.590  32.480   8.020
 2361POPC   C4B32662   6.341  32.302   7.734
 2362POPC   NC332663  26.388  42.871   9.331
 2362POPC   PO432664  27.003  43.082   9.428
 2362POPC   GL132665  26.731  43.210   9.105
 2362POPC   GL232666  26.996  43.441   9.019
 2362POPC   C1A32667  26.590  43.023   8.707
 2362POPC   D2A32668  26.872  42.804   8.400
 2362POPC   C3A32669  26.714  42.832   7.976
 2362POPC   C4A32670  26.607  43.209   7.709
 2362POPC   C1B32671  27.031  43.246   8.612
 2362POPC   C2B32672  26.766  43.282   8.239
 2362POPC   C3B32673  26.890  43.562   7.916
 2362POPC   C4B32674  27.001  43.538   7.498
 2363POPC   NC332675  40.825  32.760   9.587
 2363POPC   PO432676  40.358  33.197   9.535
 2363POPC   GL132677  40.515  32.989   9.182
 2363POPC   GL232678  40.867  32.922   9.113
 2363POPC   C1A32679  40.516  32.923   8.734
 2363POPC   D2A32680  40.822  33.027   8.403
 2363POPC   C3A32681  40.636  33.252   8.090
 2363POPC   C4A32682  40.492  33.057   7.732
 2363POPC   C1B32683  40.942  32.654   8.744
 2363POPC   C2B32684  41.167  32.668   8.333
 2363POPC   C3B32685  41.045  32.845   7.911
 2363POPC   C4B32686  40.860  32.778   7.485
 2364POPC   NC332687  16.747  44.824   9.529
 2364POPC   PO432688  16.521  44.257   9.529
 2364POPC   GL132689  16.800  44.475   9.164
 2364POPC   GL232690  16.764  44.880   9.039
 2364POPC   C1A32691  16.632  44.517   8.738
 2364POPC   D2A32692  16.732  44.683   8.310
 2364POPC   C3A32693  16.539  44.386   7.999
 2364POPC   C4A32694  16.769  44.183   7.642
 2364POPC   C1B32695  17.024   0.092   8.733
 2364POPC   C2B32696  16.919   0.198   8.303
 2364POPC   C3B32697  17.067   0.036   7.924
 2364POPC   C4B32698  16.867  44.687   7.727
 2365POPC   NC332699  29.909   9.936   9.416
 2365POPC   PO432700  29.620   9.281   9.425
 2365POPC   GL132701  29.919   9.503   9.135
 2365POPC   GL232702  30.287   9.447   9.182
 2365POPC   C1A32703  30.014   9.828   8.785
 2365POPC   D2A32704  29.722  10.024   8.505
 2365POPC   C3A32705  29.755  10.016   8.047
 2365POPC   C4A32706  30.173  10.079   7.837
 2365POPC   C1B32707  30.202   9.359   8.732
 2365POPC   C2B32708  29.862   9.488   8.425
 2365POPC   C3B32709  29.890   9.529   7.996
 2365POPC   C4B32710  29.971   9.254   7.690
 2366POPC   NC332711   5.159   5.308   9.712
 2366POPC   PO432712   4.934   4.739   9.537
 2366POPC   GL132713   4.931   5.151   9.272
 2366POPC   GL232714   5.266   5.312   9.203
 2366POPC   C1A32715   4.838   5.158   8.836
 2366POPC   D2A32716   5.022   5.000   8.462
 2366POPC   C3A32717   4.918   5.252   8.103
 2366POPC   C4A32718   4.674   5.174   7.746
 2366POPC   C1B32719   5.428   5.181   8.817
 2366POPC   C2B32720   5.453   5.265   8.397
 2366POPC   C3B32721   5.395   5.037   8.042
 2366POPC   C4B32722   5.211   5.216   7.671
 2367POPC   NC332723  41.878  10.089   9.830
 2367POPC   PO432724  41.629  10.677   9.534
 2367POPC   GL132725  41.556  10.753   9.120
 2367POPC   GL232726  41.454  10.391   9.096
 2367POPC   C1A32727  41.533  10.670   8.675
 2367POPC   D2A32728  41.413  10.392   8.349
 2367POPC   C3A32729  41.677  10.607   8.082
 2367POPC   C4A32730  41.641  10.780   7.673
 2367POPC   C1B32731  41.711  10.186   8.776
 2367POPC   C2B32732  41.915  10.228   8.403
 2367POPC   C3B32733  41.717  10.082   8.039
 2367POPC   C4B32734  41.479  10.282   7.731
 2368POPC   NC332735  40.251  31.107   9.414
 2368POPC   PO432736  40.975  31.061   9.452
 2368POPC   GL132737  40.932  30.859   9.093
 2368POPC   GL232738  40.611  30.709   9.179
 2368POPC   C1A32739  40.849  30.680   8.715
 2368POPC   D2A32740  41.066  30.493   8.427
 2368POPC   C3A32741  40.869  30.453   8.115
 2368POPC   C4A32742  40.909  30.660   7.775
 2368POPC   C1B32743  40.345  30.759   8.806
 2368POPC   C2B32744  40.467  30.689   8.350
 2368POPC   C3B32745  40.457  30.840   7.902
 2368POPC   C4B32746  40.606  31.003   7.481
 2369POPC   NC332747  16.900  14.859   9.564
 2369POPC   PO432748  16.742  15.413   9.687
 2369POPC   GL132749  16.634  15.475   9.212
 2369POPC   GL232750  16.613  15.116   9.055
 2369POPC   C1A32751  16.760  15.501   8.758
 2369POPC   D2A32752  16.990  15.293   8.436
 2369POPC   C3A32753  16.796  15.317   8.038
 2369POPC   C4A32754  16.953  15.470   7.667
 2369POPC   C1B32755  16.893  14.873   8.755
 2369POPC   C2B32756  16.989  14.787   8.325
 2369POPC   C3B32757  16.639  14.839   8.052
 2369POPC   C4B32758  16.524  15.045   7.666
 2370POPC   NC332759  32.364  10.221   9.484
 2370POPC   PO432760  32.484  10.870   9.494
 2370POPC   GL132761  32.135  10.686   9.235
 2370POPC   GL232762  32.144  10.363   9.059
 2370POPC   C1A32763  32.064  10.771   8.789
 2370POPC   D2A32764  32.052  10.968   8.372
 2370POPC   C3A32765  32.212  10.741   8.023
 2370POPC   C4A32766  32.122  10.565   7.614
 2370POPC   C1B32767  32.446  10.319   8.712
 2370POPC   C2B32768  32.477  10.346   8.251
 2370POPC   C3B32769  32.464  10.215   7.820
 2370POPC   C4B32770  32.212  10.089   7.445
 2371POPC   NC332771  43.863  12.256   9.514
 2371POPC   PO432772  44.229  11.803   9.277
 2371POPC   GL132773  43.954  12.084   9.038
 2371POPC   GL232774  43.640  12.291   9.051
 2371POPC   C1A32775  43.792  11.954   8.655
 2371POPC   D2A32776  44.063  11.883   8.319
 2371POPC   C3A32777  43.830  11.943   7.952
 2371POPC   C4A32778  43.380  11.827   8.012
 2371POPC   C1B32779  43.820  12.468   8.712
 2371POPC   C2B32780  43.831  12.368   8.330
 2371POPC   C3B32781  43.565  12.344   8.052
 2371POPC   C4B32782  43.668  12.466   7.704
 2372POPC   NC332783  22.203  32.861   9.659
 2372POPC   PO432784  22.467  33.373   9.283
 2372POPC   GL132785  22.161  33.192   9.049
 2372POPC   GL232786  22.042  32.904   9.180
 2372POPC   C1A32787  22.126  33.049   8.672
 2372POPC   D2A32788  22.241  32.836   8.343
 2372POPC   C3A32789  22.198  33.027   7.956
 2372POPC   C4A32790  22.462  33.037   7.573
 2372POPC   C1B32791  21.811  32.656   8.920
 2372POPC   C2B32792  21.750  32.738   8.535
 2372POPC   C3B32793  21.779  32.716   8.116
 2372POPC   C4B32794  21.887  32.733   7.712
 2373POPC   NC332795   2.764  10.345   9.550
 2373POPC   PO432796   3.119  10.841   9.330
 2373POPC   GL132797   2.992  10.498   9.127
 2373POPC   GL232798   2.689  10.631   9.102
 2373POPC   C1A32799   2.932  10.243   8.789
 2373POPC   D2A32800   3.189  10.207   8.425
 2373POPC   C3A32801   2.965  10.314   8.070
 2373POPC   C4A32802   3.064  10.275   7.663
 2373POPC   C1B32803   2.808  10.721   8.680
 2373POPC   C2B32804   2.590  10.596   8.306
 2373POPC   C3B32805   2.627  10.724   7.886
 2373POPC   C4B32806   2.485  10.717   7.433
 2374POPC   NC332807  44.556  21.192   9.657
 2374POPC   PO432808  44.964  21.718   9.842
 2374POPC   GL132809  44.631  21.582   9.347
 2374POPC   GL232810  44.706  21.273   9.181
 2374POPC   C1A32811  44.590  21.618   8.829
 2374POPC   D2A32812  44.917  21.495   8.431
 2374POPC   C3A32813  44.760  21.523   7.999
 2374POPC   C4A32814  44.583  21.820   7.724
 2374POPC   C1B32815  44.747  21.152   8.755
 2374POPC   C2B32816  44.503  21.135   8.363
 2374POPC   C3B32817  44.380  21.129   7.918
 2374POPC   C4B32818  44.500  20.868   7.553
 2375POPC   NC332819  34.760  28.591   9.573
 2375POPC   PO432820  34.570  29.283   9.529
 2375POPC   GL132821  34.557  29.254   9.142
 2375POPC   GL232822  34.747  29.512   9.024
 2375POPC   C1A32823  34.650  28.954   8.875
 2375POPC   D2A32824  34.543  28.915   8.464
 2375POPC   C3A32825  34.768  29.106   8.148
 2375POPC   C4A32826  34.769  29.025   7.725
 2375POPC   C1B32827  34.707  29.391   8.619
 2375POPC   C2B32828  34.412  29.412   8.312
 2375POPC   C3B32829  34.493  29.468   7.897
 2375POPC   C4B32830  34.378  29.341   7.486
 2376POPC   NC332831  21.125  35.720   9.522
 2376POPC   PO432832  21.006  35.037   9.626
 2376POPC   GL132833  21.108  35.271   9.221
 2376POPC   GL232834  21.368  35.522   9.129
 2376POPC   C1A32835  21.172  35.241   8.749
 2376POPC   D2A32836  21.443  35.267   8.389
 2376POPC   C3A32837  21.205  35.330   8.039
 2376POPC   C4A32838  21.099  35.380   7.633
 2376POPC   C1B32839  21.550  35.640   8.741
 2376POPC   C2B32840  21.721  35.787   8.331
 2376POPC   C3B32841  21.564  35.674   7.925
 2376POPC   C4B32842  21.469  35.779   7.511
 2377POPC   NC332843   5.132  30.171   9.598
 2377POPC   PO432844   4.710  29.719   9.271
 2377POPC   GL132845   5.121  29.762   9.033
 2377POPC   GL232846   5.213  30.079   9.099
 2377POPC   C1A32847   5.241  29.750   8.588
 2377POPC   D2A32848   4.947  29.986   8.286
 2377POPC   C3A32849   4.762  29.815   7.877
 2377POPC   C4A32850   4.729  29.824   7.380
 2377POPC   C1B32851   5.309  30.239   8.717
 2377POPC   C2B32852   5.434  30.137   8.280
 2377POPC   C3B32853   5.310  30.339   7.897
 2377POPC   C4B32854   5.083  30.119   7.568
 2378POPC   NC332855  22.681  18.627   9.266
 2378POPC   PO432856  22.394  18.160   9.676
 2378POPC   GL132857  22.755  18.035   9.336
 2378POPC   GL232858  23.152  18.079   9.187
 2378POPC   C1A32859  22.749  18.067   8.884
 2378POPC   D2A32860  22.697  17.919   8.466
 2378POPC   C3A32861  22.809  18.102   8.048
 2378POPC   C4A32862  22.524  18.228   7.724
 2378POPC   C1B32863  23.212  18.245   8.716
 2378POPC   C2B32864  23.308  18.384   8.281
 2378POPC   C3B32865  23.115  18.488   7.869
 2378POPC   C4B32866  22.979  18.190   7.528
 2379POPC   NC332867  42.157  12.662   9.519
 2379POPC   PO432868  42.587  12.198   9.674
 2379POPC   GL132869  42.664  12.462   9.230
 2379POPC   GL232870  42.495  12.815   9.166
 2379POPC   C1A32871  42.659  12.623   8.744
 2379POPC   D2A32872  42.820  12.702   8.278
 2379POPC   C3A32873  42.542  12.726   7.928
 2379POPC   C4A32874  42.190  12.458   7.813
 2379POPC   C1B32875  42.187  12.891   8.780
 2379POPC   C2B32876  42.108  12.927   8.281
 2379POPC   C3B32877  42.102  12.985   7.794
 2379POPC   C4B32878  42.119  13.096   7.350
 2380POPC   NC332879  42.926   3.962   9.462
 2380POPC   PO432880  43.480   4.270   9.638
 2380POPC   GL132881  43.202   4.404   9.240
 2380POPC   GL232882  43.239   4.783   9.221
 2380POPC   C1A32883  43.161   4.225   8.793
 2380POPC   D2A32884  43.377   4.011   8.420
 2380POPC   C3A32885  43.188   3.974   7.999
 2380POPC   C4A32886  42.985   4.281   7.732
 2380POPC   C1B32887  43.022   4.741   8.807
 2380POPC   C2B32888  42.969   4.569   8.354
 2380POPC   C3B32889  43.087   4.740   7.928
 2380POPC   C4B32890  43.095   4.722   7.461
 2381POPC   NC332891  13.241  27.544   9.722
 2381POPC   PO432892  13.823  27.852   9.557
 2381POPC   GL132893  13.659  27.756   9.169
 2381POPC   GL232894  13.320  27.748   9.245
 2381POPC   C1A32895  13.831  27.573   8.784
 2381POPC   D2A32896  13.778  27.750   8.402
 2381POPC   C3A32897  13.666  27.553   8.031
 2381POPC   C4A32898  13.906  27.593   7.687
 2381POPC   C1B32899  13.325  27.504   8.861
 2381POPC   C2B32900  13.321  27.471   8.420
 2381POPC   C3B32901  13.207  27.298   8.013
 2381POPC   C4B32902  13.207  27.535   7.629
 2382POPC   NC332903  32.859  10.907   9.790
 2382POPC   PO432904  33.199  11.385   9.361
 2382POPC   GL132905  33.285  11.224   9.036
 2382POPC   GL232906  33.430  10.925   9.124
 2382POPC   C1A32907  33.089  11.308   8.665
 2382POPC   D2A32908  33.161  11.613   8.351
 2382POPC   C3A32909  33.123  11.448   7.947
 2382POPC   C4A32910  32.942  11.097   7.784
 2382POPC   C1B32911  33.518  11.029   8.643
 2382POPC   C2B32912  33.263  11.034   8.274
 2382POPC   C3B32913  33.259  10.750   7.975
 2382POPC   C4B32914  33.268  10.785   7.523
 2383POPC   NC332915   4.720  39.334   9.335
 2383POPC   PO432916   5.286  38.922   9.452
 2383POPC   GL132917   5.162  38.965   9.079
 2383POPC   GL232918   5.186  39.295   9.075
 2383POPC   C1A32919   5.138  39.038   8.635
 2383POPC   D2A32920   4.940  39.190   8.266
 2383POPC   C3A32921   5.195  39.165   7.915
 2383POPC   C4A32922   5.275  39.115   7.486
 2383POPC   C1B32923   5.145  39.562   8.721
 2383POPC   C2B32924   4.962  39.696   8.348
 2383POPC   C3B32925   4.973  39.611   7.924
 2383POPC   C4B32926   4.967  39.871   7.606
 2384POPC   NC332927  17.009  40.884   9.453
 2384POPC   PO432928  16.369  41.164   9.538
 2384POPC   GL132929  16.640  41.095   9.184
 2384POPC   GL232930  16.617  40.783   9.046
 2384POPC   C1A32931  16.963  41.106   8.817
 2384POPC   D2A32932  16.913  40.843   8.460
 2384POPC   C3A32933  16.897  41.013   8.048
 2384POPC   C4A32934  16.604  40.839   7.787
 2384POPC   C1B32935  16.537  40.521   8.678
 2384POPC   C2B32936  16.524  40.531   8.217
 2384POPC   C3B32937  16.916  40.500   8.047
 2384POPC   C4B32938  17.123  40.604   7.688
 2385POPC   NC332939  36.362  37.785   9.718
 2385POPC   PO432940  35.801  37.478   9.505
 2385POPC   GL132941  35.851  37.779   9.161
 2385POPC   GL232942  36.193  37.943   9.174
 2385POPC   C1A32943  36.014  37.716   8.728
 2385POPC   D2A32944  35.949  37.817   8.328
 2385POPC   C3A32945  36.046  37.602   7.937
 2385POPC   C4A32946  36.118  37.454   7.490
 2385POPC   C1B32947  36.293  38.132   8.784
 2385POPC   C2B32948  36.435  37.994   8.398
 2385POPC   C3B32949  36.261  38.060   7.969
 2385POPC   C4B32950  36.337  37.896   7.559
 2386POPC   NC332951  28.086   4.388   9.471
 2386POPC   PO432952  28.830   4.217   9.367
 2386POPC   GL132953  28.754   4.445   9.048
 2386POPC   GL232954  28.423   4.401   9.089
 2386POPC   C1A32955  28.673   4.250   8.671
 2386POPC   D2A32956  28.305   4.149   8.483
 2386POPC   C3A32957  28.291   4.303   8.069
 2386POPC   C4A32958  28.028   4.082   7.779
 2386POPC   C1B32959  28.110   4.503   8.828
 2386POPC   C2B32960  28.122   4.645   8.438
 2386POPC   C3B32961  27.867   4.623   8.096
 2386POPC   C4B32962  28.043   4.584   7.708
 2387POPC   NC332963  12.485  12.657   9.424
 2387POPC   PO432964  11.963  13.113   9.464
 2387POPC   GL132965  11.945  12.868   9.099
 2387POPC   GL232966  11.871  12.476   9.096
 2387POPC   C1A32967  11.793  12.944   8.717
 2387POPC   D2A32968  11.673  12.936   8.307
 2387POPC   C3A32969  11.981  13.146   8.060
 2387POPC   C4A32970  12.315  12.980   7.798
 2387POPC   C1B32971  12.181  12.573   8.773
 2387POPC   C2B32972  12.311  12.596   8.358
 2387POPC   C3B32973  12.298  12.483   7.950
 2387POPC   C4B32974  12.586  12.593   7.633
 2388POPC   NC332975  13.940  41.435   9.597
 2388POPC   PO432976  14.438  41.688   9.212
 2388POPC   GL132977  14.405  41.441   8.874
 2388POPC   GL232978  14.299  41.137   8.943
 2388POPC   C1A32979  14.614  41.404   8.505
 2388POPC   D2A32980  14.723  41.751   8.290
 2388POPC   C3A32981  14.361  41.761   8.064
 2388POPC   C4A32982  14.448  41.556   7.690
 2388POPC   C1B32983  13.955  41.246   8.704
 2388POPC   C2B32984  14.021  41.436   8.318
 2388POPC   C3B32985  14.081  41.272   7.924
 2388POPC   C4B32986  14.159  41.121   7.509
 2389POPC   NC332987  37.913  12.711   9.121
 2389POPC   PO432988  37.471  12.394   9.491
 2389POPC   GL132989  37.690  12.249   9.070
 2389POPC   GL232990  37.993  12.041   9.069
 2389POPC   C1A32991  37.629  12.022   8.650
 2389POPC   D2A32992  37.889  12.039   8.233
 2389POPC   C3A32993  37.608  12.091   7.876
 2389POPC   C4A32994  37.232  11.930   7.712
 2389POPC   C1B32995  38.071  12.269   8.670
 2389POPC   C2B32996  38.190  12.485   8.274
 2389POPC   C3B32997  37.962  12.464   7.893
 2389POPC   C4B32998  37.953  12.225   7.516
 2390POPC   NC332999  21.364  27.295   9.593
 2390POPC   PO433000  21.159  27.858   9.313
 2390POPC   GL133001  21.468  27.578   9.079
 2390POPC   GL233002  21.618  27.227   9.147
 2390POPC   C1A33003  21.621  27.743   8.683
 2390POPC   D2A33004  21.395  27.889   8.327
 2390POPC   C3A33005  21.234  27.612   8.058
 2390POPC   C4A33006  21.239  27.704   7.670
 2390POPC   C1B33007  21.698  27.228   8.692
 2390POPC   C2B33008  21.700  27.421   8.242
 2390POPC   C3B33009  21.558  27.298   7.786
 2390POPC   C4B33010  21.669  27.008   7.449
 2391POPC   NC333011  33.155  16.388   9.809
 2391POPC   PO433012  33.307  15.792   9.544
 2391POPC   GL133013  33.139  15.765   9.131
 2391POPC   GL233014  32.819  15.959   9.088
 2391POPC   C1A33015  33.215  15.918   8.716
 2391POPC   D2A33016  33.111  15.703   8.315
 2391POPC   C3A33017  33.069  15.950   7.959
 2391POPC   C4A33018  33.299  16.277   7.794
 2391POPC   C1B33019  32.734  15.785   8.682
 2391POPC   C2B33020  32.586  15.881   8.251
 2391POPC   C3B33021  32.582  15.912   7.795
 2391POPC   C4B33022  32.915  15.810   7.473
 2392POPC   NC333023  16.659  31.312   9.415
 2392POPC   PO433024  17.189  31.533   9.617
 2392POPC   GL133025  17.067  31.484   9.137
 2392POPC   GL233026  16.800  31.720   9.059
 2392POPC   C1A33027  17.057  31.612   8.656
 2392POPC   D2A33028  16.810  31.688   8.242
 2392POPC   C3A33029  16.871  31.380   7.872
 2392POPC   C4A33030  16.802  30.979   7.586
 2392POPC   C1B33031  16.505  31.793   8.755
 2392POPC   C2B33032  16.272  31.730   8.342
 2392POPC   C3B33033  16.375  31.656   7.922
 2392POPC   C4B33034  16.733  31.866   7.749
 2393POPC   NC333035  44.620  28.823   9.449
 2393POPC   PO433036  44.776  29.535   9.260
 2393POPC   GL133037  44.701  29.145   9.052
 2393POPC   GL233038   0.036  29.095   9.035
 2393POPC   C1A33039  44.376  28.981   8.750
 2393POPC   D2A33040  44.160  29.004   8.337
 2393POPC   C3A33041  44.401  29.188   7.973
 2393POPC   C4A33042  44.448  28.992   7.576
 2393POPC   C1B33043   0.007  29.320   8.660
 2393POPC   C2B33044  44.862  29.228   8.240
 2393POPC   C3B33045  44.934  29.239   7.771
 2393POPC   C4B33046   0.278  29.294   7.448
 2394POPC   NC333047  42.697  13.570   9.340
 2394POPC   PO433048  42.118  13.893   9.531
 2394POPC   GL133049  42.205  13.665   9.149
 2394POPC   GL233050  42.292  13.295   9.164
 2394POPC   C1A33051  42.411  13.680   8.748
 2394POPC   D2A33052  42.501  13.713   8.311
 2394POPC   C3A33053  42.279  13.989   8.016
 2394POPC   C4A33054  42.226  14.022   7.561
 2394POPC   C1B33055  42.587  13.207   8.807
 2394POPC   C2B33056  42.663  13.214   8.369
 2394POPC   C3B33057  42.452  13.290   8.002
 2394POPC   C4B33058  42.136  13.527   7.790
 2395POPC   NC333059   1.665  31.030   9.414
 2395POPC   PO433060   2.233  30.548   9.442
 2395POPC   GL133061   1.949  30.681   9.147
 2395POPC   GL233062   2.261  30.705   8.930
 2395POPC   C1A33063   1.803  30.718   8.722
 2395POPC   D2A33064   2.084  30.541   8.417
 2395POPC   C3A33065   1.932  30.614   8.015
 2395POPC   C4A33066   1.578  30.650   7.753
 2395POPC   C1B33067   2.257  31.016   8.609
 2395POPC   C2B33068   1.934  31.035   8.302
 2395POPC   C3B33069   1.795  31.105   7.909
 2395POPC   C4B33070   2.083  30.982   7.647
 2396POPC   NC333071  10.224   9.359   9.855
 2396POPC   PO433072  10.547   9.733   9.370
 2396POPC   GL133073  10.590   9.869   9.000
 2396POPC   GL233074  10.909   9.970   9.023
 2396POPC   C1A33075  10.644   9.576   8.712
 2396POPC   D2A33076  10.801   9.392   8.365
 2396POPC   C3A33077  10.531   9.560   8.087
 2396POPC   C4A33078  10.361   9.643   7.727
 2396POPC   C1B33079  10.889  10.226   8.746
 2396POPC   C2B33080  10.880   9.963   8.447
 2396POPC   C3B33081  10.797   9.993   8.060
 2396POPC   C4B33082  10.807   9.934   7.629
 2397POPC   NC333083   2.923   7.398   9.649
 2397POPC   PO433084   2.348   7.370   9.396
 2397POPC   GL133085   2.679   7.577   9.181
 2397POPC   GL233086   2.779   7.246   9.092
 2397POPC   C1A33087   2.799   7.594   8.730
 2397POPC   D2A33088   2.575   7.533   8.332
 2397POPC   C3A33089   2.787   7.525   7.929
 2397POPC   C4A33090   2.801   7.701   7.489
 2397POPC   C1B33091   2.580   7.149   8.681
 2397POPC   C2B33092   2.646   7.008   8.244
 2397POPC   C3B33093   2.695   7.017   7.808
 2397POPC   C4B33094   2.746   7.205   7.420
 2398POPC   NC333095   1.572  44.611   9.598
 2398POPC   PO433096   1.033  44.940   9.342
 2398POPC   GL133097   1.306   0.043   9.017
 2398POPC   GL233098   1.556  44.855   9.139
 2398POPC   C1A33099   1.288  44.848   8.607
 2398POPC   D2A33100   1.222  44.436   8.367
 2398POPC   C3A33101   1.050  44.513   7.961
 2398POPC   C4A33102   1.103  44.958   7.844
 2398POPC   C1B33103   1.736  44.618   8.822
 2398POPC   C2B33104   1.717  44.675   8.391
 2398POPC   C3B33105   1.529  44.696   8.017
 2398POPC   C4B33106   1.487  44.391   7.692
 2399POPC   NC333107  21.218  31.436   9.519
 2399POPC   PO433108  21.799  31.050   9.439
 2399POPC   GL133109  21.571  31.333   9.115
 2399POPC   GL233110  21.388  31.690   9.110
 2399POPC   C1A33111  21.430  31.394   8.668
 2399POPC   D2A33112  21.207  31.498   8.328
 2399POPC   C3A33113  21.142  31.162   8.058
 2399POPC   C4A33114  21.216  31.400   7.697
 2399POPC   C1B33115  21.772  31.706   8.840
 2399POPC   C2B33116  21.704  31.760   8.378
 2399POPC   C3B33117  21.535  31.797   7.935
 2399POPC   C4B33118  21.747  31.905   7.503
 2400POPC   NC333119  43.048  23.194   9.499
 2400POPC   PO433120  42.941  22.520   9.480
 2400POPC   GL133121  43.117  22.786   9.192
 2400POPC   GL233122  42.800  22.920   9.124
 2400POPC   C1A33123  43.210  22.985   8.810
 2400POPC   D2A33124  43.134  23.169   8.416
 2400POPC   C3A33125  43.291  22.976   8.041
 2400POPC   C4A33126  43.107  23.225   7.761
 2400POPC   C1B33127  42.701  23.035   8.717
 2400POPC   C2B33128  42.756  22.786   8.347
 2400POPC   C3B33129  42.799  22.852   7.908
 2400POPC   C4B33130  43.010  22.731   7.569
 2401POPC   NC333131   8.416  32.315   9.488
 2401POPC   PO433132   7.846  32.094   9.523
 2401POPC   GL133133   7.994  32.400   9.175
 2401POPC   GL233134   8.177  32.116   9.083
 2401POPC   C1A33135   8.323  32.510   8.822
 2401POPC   D2A33136   8.537  32.266   8.492
 2401POPC   C3A33137   8.513  32.414   8.057
 2401POPC   C4A33138   8.420  32.495   7.632
 2401POPC   C1B33139   7.962  32.179   8.679
 2401POPC   C2B33140   8.066  32.206   8.250
 2401POPC   C3B33141   8.136  32.104   7.828
 2401POPC   C4B33142   7.959  32.272   7.453
 2402POPC   NC333143   5.185  20.976   9.508
 2402POPC   PO433144   4.989  20.370   9.487
 2402POPC   GL133145   5.047  20.603   9.072
 2402POPC   GL233146   5.315  20.823   9.051
 2402POPC   C1A33147   5.004  20.795   8.620
 2402POPC   D2A33148   4.921  20.912   8.154
 2402POPC   C3A33149   4.918  20.620   7.793
 2402POPC   C4A33150   4.960  20.681   7.346
 2402POPC   C1B33151   5.541  20.780   8.686
 2402POPC   C2B33152   5.402  20.835   8.288
 2402POPC   C3B33153   5.531  20.818   7.879
 2402POPC   C4B33154   5.489  20.784   7.431
 2403POPC   NC333155  12.071  19.471   9.421
 2403POPC   PO433156  12.156  20.093   9.553
 2403POPC   GL133157  12.238  20.074   9.100
 2403POPC   GL233158  12.315  19.746   9.082
 2403POPC   C1A33159  12.009  19.926   8.697
 2403POPC   D2A33160  11.850  19.576   8.415
 2403POPC   C3A33161  11.637  19.689   8.024
 2403POPC   C4A33162  11.791  19.946   7.708
 2403POPC   C1B33163  12.464  19.647   8.699
 2403POPC   C2B33164  12.350  19.771   8.325
 2403POPC   C3B33165  12.067  20.025   8.150
 2403POPC   C4B33166  12.344  20.015   7.816
 2404POPC   NC333167   1.518   1.019   9.413
 2404POPC   PO433168   1.307   1.651   9.589
 2404POPC   GL133169   1.214   1.402   9.222
 2404POPC   GL233170   1.527   1.330   9.009
 2404POPC   C1A33171   1.109   1.508   8.802
 2404POPC   D2A33172   1.336   1.542   8.433
 2404POPC   C3A33173   1.106   1.329   8.115
 2404POPC   C4A33174   0.999   1.431   7.689
 2404POPC   C1B33175   1.352   1.041   8.737
 2404POPC   C2B33176   1.461   0.998   8.319
 2404POPC   C3B33177   1.311   0.892   7.931
 2404POPC   C4B33178   1.406   1.163   7.588
 2405POPC   NC333179  28.071  23.012   9.467
 2405POPC   PO433180  27.748  23.650   9.481
 2405POPC   GL133181  27.602  23.746   9.108
 2405POPC   GL233182  27.767  24.038   9.125
 2405POPC   C1A33183  27.435  23.593   8.734
 2405POPC   D2A33184  27.332  23.295   8.430
 2405POPC   C3A33185  27.445  23.458   8.039
 2405POPC   C4A33186  27.648  23.498   7.648
 2405POPC   C1B33187  27.432  24.093   8.772
 2405POPC   C2B33188  27.377  23.935   8.321
 2405POPC   C3B33189  27.619  23.924   7.920
 2405POPC   C4B33190  27.750  23.974   7.473
 2406POPC   NC333191  30.480   0.654   9.501
 2406POPC   PO433192  30.682  44.941   9.518
 2406POPC   GL133193  30.715   0.272   9.199
 2406POPC   GL233194  30.392   0.370   9.097
 2406POPC   C1A33195  30.893   0.513   8.821
 2406POPC   D2A33196  31.093   0.673   8.415
 2406POPC   C3A33197  30.907   0.543   8.030
 2406POPC   C4A33198  30.599   0.445   7.737
 2406POPC   C1B33199  30.417   0.744   8.850
 2406POPC   C2B33200  30.564   0.674   8.441
 2406POPC   C3B33201  30.554   0.896   8.081
 2406POPC   C4B33202  30.339   0.902   7.723
 2407POPC   NC333203  32.994  21.930   9.464
 2407POPC   PO433204  33.295  22.623   9.368
 2407POPC   GL133205  33.065  22.271   9.086
 2407POPC   GL233206  33.136  21.888   8.995
 2407POPC   C1A33207  32.891  22.272   8.656
 2407POPC   D2A33208  32.909  22.577   8.306
 2407POPC   C3A33209  32.881  22.323   7.949
 2407POPC   C4A33210  32.988  22.071   7.579
 2407POPC   C1B33211  32.703  21.841   8.844
 2407POPC   C2B33212  32.593  21.865   8.401
 2407POPC   C3B33213  32.443  21.981   8.007
 2407POPC   C4B33214  32.620  21.733   7.746
 2408POPC   NC333215  21.739  16.688   9.398
 2408POPC   PO433216  22.347  16.446   9.493
 2408POPC   GL133217  22.363  16.578   9.085
 2408POPC   GL233218  22.372  16.938   9.008
 2408POPC   C1A33219  22.367  16.566   8.653
 2408POPC   D2A33220  22.149  16.488   8.315
 2408POPC   C3A33221  22.186  16.676   7.939
 2408POPC   C4A33222  22.014  16.478   7.595
 2408POPC   C1B33223  21.993  16.874   8.812
 2408POPC   C2B33224  21.842  16.875   8.429
 2408POPC   C3B33225  21.814  17.083   8.088
 2408POPC   C4B33226  21.805  16.953   7.704
 2409POPC   NC333227   0.831  12.905   9.424
 2409POPC   PO433228   0.351  12.442   9.422
 2409POPC   GL133229   0.462  12.713   9.110
 2409POPC   GL233230   0.107  12.710   9.059
 2409POPC   C1A33231   0.656  12.902   8.734
 2409POPC   D2A33232   0.651  12.633   8.337
 2409POPC   C3A33233   0.592  12.884   8.005
 2409POPC   C4A33234   0.433  12.671   7.719
 2409POPC   C1B33235   0.238  12.618   8.654
 2409POPC   C2B33236   0.244  12.941   8.390
 2409POPC   C3B33237   0.070  12.843   8.045
 2409POPC   C4B33238  44.918  13.003   7.723
 2410POPC   NC333239  21.546   4.438   9.298
 2410POPC   PO433240  21.239   3.880   9.363
 2410POPC   GL133241  21.176   4.185   9.077
 2410POPC   GL233242  20.984   4.441   9.274
 2410POPC   C1A33243  21.215   4.218   8.627
 2410POPC   D2A33244  21.080   3.876   8.332
 2410POPC   C3A33245  21.126   3.985   7.888
 2410POPC   C4A33246  21.496   4.112   7.601
 2410POPC   C1B33247  21.035   4.701   8.921
 2410POPC   C2B33248  21.030   4.751   8.498
 2410POPC   C3B33249  21.115   4.797   8.072
 2410POPC   C4B33250  21.272   4.520   7.780
 2411POPC   NC333251   3.258   5.593   9.515
 2411POPC   PO433252   3.831   5.897   9.415
 2411POPC   GL133253   3.677   6.119   9.127
 2411POPC   GL233254   3.364   5.940   9.135
 2411POPC   C1A33255   3.702   6.187   8.700
 2411POPC   D2A33256   3.446   6.193   8.341
 2411POPC   C3A33257   3.684   6.130   7.972
 2411POPC   C4A33258   3.617   5.943   7.581
 2411POPC   C1B33259   3.605   5.716   8.803
 2411POPC   C2B33260   3.760   5.754   8.387
 2411POPC   C3B33261   3.529   5.644   8.049
 2411POPC   C4B33262   3.579   5.448   7.664
 2412POPC   NC333263  36.861  31.893   9.701
 2412POPC   PO433264  37.167  32.456   9.475
 2412POPC   GL133265  37.079  32.283   9.102
 2412POPC   GL233266  37.300  32.018   9.098
 2412POPC   C1A33267  36.849  32.442   8.730
 2412POPC   D2A33268  36.753  32.684   8.377
 2412POPC   C3A33269  36.709  32.381   8.049
 2412POPC   C4A33270  36.914  32.323   7.721
 2412POPC   C1B33271  37.122  31.972   8.683
 2412POPC   C2B33272  36.782  32.022   8.426
 2412POPC   C3B33273  37.015  31.953   8.106
 2412POPC   C4B33274  37.203  31.900   7.766
 2413POPC   NC333275  17.335  35.301   9.750
 2413POPC   PO433276  17.709  35.789   9.393
 2413POPC   GL133277  17.532  35.485   9.157
 2413POPC   GL233278  17.663  35.193   9.319
 2413POPC   C1A33279  17.402  35.438   8.721
 2413POPC   D2A33280  17.469  35.649   8.317
 2413POPC   C3A33281  17.696  35.628   7.944
 2413POPC   C4A33282  17.359  35.554   7.673
 2413POPC   C1B33283  17.701  35.035   8.875
 2413POPC   C2B33284  17.489  34.990   8.451
 2413POPC   C3B33285  17.492  35.154   8.025
 2413POPC   C4B33286  17.904  35.187   7.795
 2414POPC   NC333287  30.879  44.483   9.557
 2414POPC   PO433288  30.304  44.357   9.629
 2414POPC   GL133289  30.499  44.443   9.200
 2414POPC   GL233290  30.768  44.714   9.092
 2414POPC   C1A33291  30.468  44.526   8.751
 2414POPC   D2A33292  30.562  44.748   8.345
 2414POPC   C3A33293  30.607  44.486   7.979
 2414POPC   C4A33294  30.488  44.436   7.557
 2414POPC   C1B33295  30.629   0.047   8.763
 2414POPC   C2B33296  30.839   0.187   8.390
 2414POPC   C3B33297  30.812   0.021   7.957
 2414POPC   C4B33298  30.407  44.946   7.761
 2415POPC   NC333299  28.842  22.890   9.451
 2415POPC   PO433300  28.263  22.561   9.512
 2415POPC   GL133301  28.482  22.629   9.186
 2415POPC   GL233302  28.427  22.947   9.118
 2415POPC   C1A33303  28.342  22.588   8.769
 2415POPC   D2A33304  28.195  22.865   8.479
 2415POPC   C3A33305  28.316  22.715   8.076
 2415POPC   C4A33306  28.334  22.783   7.659
 2415POPC   C1B33307  28.392  23.230   8.792
 2415POPC   C2B33308  28.229  23.388   8.443
 2415POPC   C3B33309  28.315  23.210   8.051
 2415POPC   C4B33310  28.563  23.234   7.699
 2416POPC   NC333311   1.326   2.685   9.489
 2416POPC   PO433312   1.259   3.198   9.250
 2416POPC   GL133313   1.132   2.904   9.016
 2416POPC   GL233314   0.950   2.620   9.097
 2416POPC   C1A33315   1.339   2.923   8.637
 2416POPC   D2A33316   1.517   2.806   8.307
 2416POPC   C3A33317   1.342   2.845   7.887
 2416POPC   C4A33318   1.200   3.174   7.617
 2416POPC   C1B33319   1.108   2.488   8.685
 2416POPC   C2B33320   1.020   2.701   8.295
 2416POPC   C3B33321   0.842   2.654   7.916
 2416POPC   C4B33322   0.960   2.691   7.525
 2417POPC   NC333323  20.877  28.165   9.523
 2417POPC   PO433324  20.309  28.081   9.646
 2417POPC   GL133325  20.515  28.319   9.214
 2417POPC   GL233326  20.766  28.089   9.035
 2417POPC   C1A33327  20.688  28.540   8.813
 2417POPC   D2A33328  20.704  28.431   8.384
 2417POPC   C3A33329  20.361  28.595   8.165
 2417POPC   C4A33330  20.293  28.703   7.737
 2417POPC   C1B33331  20.499  28.050   8.670
 2417POPC   C2B33332  20.517  27.984   8.199
 2417POPC   C3B33333  20.775  27.826   7.850
 2417POPC   C4B33334  20.973  28.090   7.501
 2418POPC   NC333335  31.217  40.292   9.602
 2418POPC   PO433336  31.732  39.746   9.438
 2418POPC   GL133337  31.604  39.959   9.022
 2418POPC   GL233338  31.384  40.249   9.053
 2418POPC   C1A33339  31.279  39.968   8.659
 2418POPC   D2A33340  31.003  39.823   8.326
 2418POPC   C3A33341  31.183  40.057   7.985
 2418POPC   C4A33342  31.546  40.023   7.720
 2418POPC   C1B33343  31.728  40.272   8.683
 2418POPC   C2B33344  31.763  40.120   8.241
 2418POPC   C3B33345  31.923  40.335   7.872
 2418POPC   C4B33346  31.741  40.518   7.482
 2419POPC   NC333347  40.624  13.044   9.417
 2419POPC   PO433348  41.007  12.514   9.550
 2419POPC   GL133349  40.969  12.772   9.149
 2419POPC   GL233350  41.022  13.168   9.116
 2419POPC   C1A33351  40.786  12.738   8.743
 2419POPC   D2A33352  40.999  12.624   8.378
 2419POPC   C3A33353  40.792  12.796   8.070
 2419POPC   C4A33354  40.577  12.740   7.728
 2419POPC   C1B33355  40.729  13.262   8.790
 2419POPC   C2B33356  40.730  13.227   8.361
 2419POPC   C3B33357  40.458  13.210   8.017
 2419POPC   C4B33358  40.455  13.415   7.643
 2420POPC   NC333359  19.150  23.980   9.510
 2420POPC   PO433360  19.167  23.375   9.734
 2420POPC   GL133361  19.139  23.493   9.236
 2420POPC   GL233362  18.960  23.770   9.086
 2420POPC   C1A33363  19.274  23.594   8.761
 2420POPC   D2A33364  19.272  23.791   8.355
 2420POPC   C3A33365  19.132  23.531   8.037
 2420POPC   C4A33366  18.809  23.462   7.753
 2420POPC   C1B33367  18.752  23.560   8.833
 2420POPC   C2B33368  18.786  23.615   8.413
 2420POPC   C3B33369  18.693  23.848   8.054
 2420POPC   C4B33370  18.453  23.812   7.675
 2421POPC   NC333371  24.607  18.543   9.302
 2421POPC   PO433372  24.152  18.085   9.330
 2421POPC   GL133373  24.451  17.921   9.017
 2421POPC   GL233374  24.785  18.051   9.042
 2421POPC   C1A33375  24.588  17.980   8.580
 2421POPC   D2A33376  24.539  18.394   8.368
 2421POPC   C3A33377  24.447  18.396   7.950
 2421POPC   C4A33378  24.113  18.456   7.654
 2421POPC   C1B33379  24.886  18.384   8.751
 2421POPC   C2B33380  25.030  18.193   8.412
 2421POPC   C3B33381  24.820  18.075   8.082
 2421POPC   C4B33382  24.882  17.976   7.700
 2422POPC   NC333383   4.104   3.198   9.782
 2422POPC   PO433384   4.062   2.566   9.557
 2422POPC   GL133385   4.196   2.746   9.154
 2422POPC   GL233386   3.886   2.733   8.988
 2422POPC   C1A33387   4.340   2.827   8.697
 2422POPC   D2A33388   4.245   3.052   8.286
 2422POPC   C3A33389   4.365   2.858   7.950
 2422POPC   C4A33390   4.637   2.630   8.192
 2422POPC   C1B33391   4.107   2.378   8.760
 2422POPC   C2B33392   4.360   2.268   8.431
 2422POPC   C3B33393   4.165   2.396   8.062
 2422POPC   C4B33394   4.117   2.568   7.613
 2423POPC   NC333395  19.232  12.457   9.355
 2423POPC   PO433396  18.917  11.912   9.392
 2423POPC   GL133397  18.890  12.175   9.065
 2423POPC   GL233398  18.630  12.383   9.122
 2423POPC   C1A33399  19.048  12.101   8.668
 2423POPC   D2A33400  18.909  12.144   8.262
 2423POPC   C3A33401  19.168  12.041   7.870
 2423POPC   C4A33402  19.034  11.841   7.475
 2423POPC   C1B33403  18.648  12.482   8.658
 2423POPC   C2B33404  18.771  12.662   8.257
 2423POPC   C3B33405  18.894  12.468   7.879
 2423POPC   C4B33406  18.774  12.288   7.502
 2424POPC   NC333407   8.507   4.025   9.408
 2424POPC   PO433408   9.112   4.064   9.683
 2424POPC   GL133409   9.216   4.339   9.286
 2424POPC   GL233410   8.902   4.267   9.202
 2424POPC   C1A33411   9.131   4.567   8.870
 2424POPC   D2A33412   9.187   4.579   8.433
 2424POPC   C3A33413   8.948   4.632   8.039
 2424POPC   C4A33414   9.053   4.356   7.695
 2424POPC   C1B33415   8.654   4.370   8.852
 2424POPC   C2B33416   8.677   4.423   8.427
 2424POPC   C3B33417   8.671   4.195   8.044
 2424POPC   C4B33418   8.537   4.335   7.646
 2425POPC   NC333419   4.127  15.266   9.584
 2425POPC   PO433420   4.763  14.942   9.601
 2425POPC   GL133421   4.410  14.994   9.240
 2425POPC   GL233422   4.241  15.328   9.098
 2425POPC   C1A33423   4.501  15.040   8.779
 2425POPC   D2A33424   4.357  15.146   8.374
 2425POPC   C3A33425   4.614  15.147   8.026
 2425POPC   C4A33426   4.606  15.217   7.603
 2425POPC   C1B33427   4.108  15.472   8.680
 2425POPC   C2B33428   3.898  15.353   8.282
 2425POPC   C3B33429   4.155  15.368   7.895
 2425POPC   C4B33430   4.122  15.330   7.439
 2426POPC   NC333431   7.467  38.034   9.677
 2426POPC   PO433432   7.676  38.666   9.540
 2426POPC   GL133433   7.419  38.680   9.161
 2426POPC   GL233434   7.253  38.354   9.134
 2426POPC   C1A33435   7.466  38.597   8.734
 2426POPC   D2A33436   7.477  38.242   8.473
 2426POPC   C3A33437   7.487  38.430   8.073
 2426POPC   C4A33438   7.506  38.735   7.755
 2426POPC   C1B33439   7.029  38.077   8.814
 2426POPC   C2B33440   6.801  38.118   8.403
 2426POPC   C3B33441   6.977  38.258   7.964
 2426POPC   C4B33442   7.337  38.110   7.703
 2427POPC   NC333443  38.704  34.547   9.548
 2427POPC   PO433444  38.227  35.038   9.404
 2427POPC   GL133445  38.446  34.788   9.109
 2427POPC   GL233446  38.774  34.880   9.165
 2427POPC   C1A33447  38.483  34.542   8.707
 2427POPC   D2A33448  38.437  34.594   8.211
 2427POPC   C3A33449  38.043  34.760   7.973
 2427POPC   C4A33450  38.003  34.806   7.500
 2427POPC   C1B33451  38.919  34.878   8.783
 2427POPC   C2B33452  38.904  34.695   8.398
 2427POPC   C3B33453  38.856  34.839   7.998
 2427POPC   C4B33454  38.495  34.741   7.723
 2428POPC   NC333455  27.797   8.244   9.727
 2428POPC   PO433456  27.608   8.637   9.193
 2428POPC   GL133457  27.501   8.206   9.053
 2428POPC   GL233458  27.312   7.962   9.225
 2428POPC   C1A33459  27.517   8.070   8.652
 2428POPC   D2A33460  27.806   8.282   8.424
 2428POPC   C3A33461  27.744   8.432   8.031
 2428POPC   C4A33462  27.823   8.214   7.670
 2428POPC   C1B33463  27.046   7.959   8.815
 2428POPC   C2B33464  27.069   8.092   8.401
 2428POPC   C3B33465  27.379   8.077   8.098
 2428POPC   C4B33466  27.330   8.183   7.672
 2429POPC   NC333467  33.400   7.370   9.327
 2429POPC   PO433468  33.982   7.230   9.633
 2429POPC   GL133469  33.885   7.220   9.240
 2429POPC   GL233470  33.837   7.587   9.191
 2429POPC   C1A33471  34.017   7.262   8.838
 2429POPC   D2A33472  33.765   7.267   8.461
 2429POPC   C3A33473  33.958   7.308   8.090
 2429POPC   C4A33474  33.900   7.387   7.698
 2429POPC   C1B33475  33.739   7.688   8.757
 2429POPC   C2B33476  33.434   7.661   8.401
 2429POPC   C3B33477  33.509   7.601   7.951
 2429POPC   C4B33478  33.500   7.627   7.458
 2430POPC   NC333479  15.243  11.714   9.590
 2430POPC   PO433480  15.455  12.311   9.498
 2430POPC   GL133481  15.103  12.097   9.241
 2430POPC   GL233482  14.806  12.290   9.287
 2430POPC   C1A33483  14.882  12.089   8.805
 2430POPC   D2A33484  14.735  12.202   8.348
 2430POPC   C3A33485  14.969  11.989   8.011
 2430POPC   C4A33486  14.992  11.879   7.563
 2430POPC   C1B33487  15.096  12.543   8.976
 2430POPC   C2B33488  15.116  12.569   8.522
 2430POPC   C3B33489  15.081  12.541   8.085
 2430POPC   C4B33490  15.320  12.415   7.715
 2431POPC   NC333491   9.493  16.509   9.509
 2431POPC   PO433492   8.883  16.643   9.649
 2431POPC   GL133493   9.077  16.723   9.207
 2431POPC   GL233494   9.319  16.516   9.045
 2431POPC   C1A33495   8.943  16.624   8.748
 2431POPC   D2A33496   8.759  16.291   8.496
 2431POPC   C3A33497   8.854  16.491   8.143
 2431POPC   C4A33498   8.824  16.861   7.869
 2431POPC   C1B33499   9.475  16.582   8.653
 2431POPC   C2B33500   9.350  16.551   8.239
 2431POPC   C3B33501   9.297  16.674   7.807
 2431POPC   C4B33502   9.363  16.424   7.446
 2432POPC   NC333503  38.666  39.117   9.506
 2432POPC   PO433504  38.000  39.020   9.338
 2432POPC   GL133505  38.407  39.199   9.076
 2432POPC   GL233506  38.797  39.376   9.094
 2432POPC   C1A33507  38.676  39.069   8.727
 2432POPC   D2A33508  38.771  38.874   8.334
 2432POPC   C3A33509  38.373  39.014   8.157
 2432POPC   C4A33510  38.283  39.351   7.836
 2432POPC   C1B33511  38.833  39.569   8.710
 2432POPC   C2B33512  38.657  39.390   8.336
 2432POPC   C3B33513  38.768  39.230   7.934
 2432POPC   C4B33514  38.699  39.572   7.656
 2433POPC   NC333515  24.798   2.687   9.546
 2433POPC   PO433516  24.282   3.160   9.550
 2433POPC   GL133517  24.528   2.971   9.198
 2433POPC   GL233518  24.359   2.696   9.143
 2433POPC   C1A33519  24.734   2.900   8.781
 2433POPC   D2A33520  24.707   2.801   8.333
 2433POPC   C3A33521  25.045   3.011   8.043
 2433POPC   C4A33522  24.955   2.989   7.596
 2433POPC   C1B33523  24.222   2.902   8.757
 2433POPC   C2B33524  24.230   3.025   8.325
 2433POPC   C3B33525  24.325   2.752   7.973
 2433POPC   C4B33526  24.441   2.478   7.676
 2434POPC   NC333527  35.905   7.355   9.497
 2434POPC   PO433528  36.407   7.267   9.126
 2434POPC   GL133529  36.123   7.598   9.037
 2434POPC   GL233530  35.840   7.773   9.193
 2434POPC   C1A33531  36.181   7.660   8.611
 2434POPC   D2A33532  36.398   7.410   8.313
 2434POPC   C3A33533  36.439   7.581   7.932
 2434POPC   C4A33534  36.252   7.391   7.590
 2434POPC   C1B33535  35.681   7.681   8.757
 2434POPC   C2B33536  35.815   7.854   8.318
 2434POPC   C3B33537  35.734   7.870   7.879
 2434POPC   C4B33538  35.813   7.645   7.511
 2435POPC   NC333539  13.916  38.056   9.702
 2435POPC   PO433540  14.379  38.440   9.450
 2435POPC   GL133541  14.551  38.596   9.119
 2435POPC   GL233542  14.685  38.263   9.048
 2435POPC   C1A33543  14.339  38.531   8.753
 2435POPC   D2A33544  14.278  38.750   8.419
 2435POPC   C3A33545  14.262  38.521   8.028
 2435POPC   C4A33546  14.156  38.652   7.616
 2435POPC   C1B33547  14.831  38.376   8.702
 2435POPC   C2B33548  14.638  38.370   8.342
 2435POPC   C3B33549  14.718  38.203   7.994
 2435POPC   C4B33550  14.587  38.397   7.649
 2436POPC   NC333551  10.487  41.866   9.498
 2436POPC   PO433552  10.597  41.115   9.496
 2436POPC   GL133553  10.661  41.449   9.224
 2436POPC   GL233554  10.337  41.396   9.111
 2436POPC   C1A33555  10.695  41.555   8.782
 2436POPC   D2A33556  10.815  41.706   8.373
 2436POPC   C3A33557  10.662  41.570   7.958
 2436POPC   C4A33558  10.749  41.727   7.517
 2436POPC   C1B33559  10.276  41.233   8.716
 2436POPC   C2B33560  10.268  41.463   8.321
 2436POPC   C3B33561  10.185  41.356   7.914
 2436POPC   C4B33562  10.443  41.315   7.547
 2437POPC   NC333563  24.996   8.772   9.423
 2437POPC   PO433564  24.391   8.644   9.429
 2437POPC   GL133565  24.340   8.885   9.020
 2437POPC   GL233566  24.655   8.978   9.063
 2437POPC   C1A33567  24.467   8.977   8.574
 2437POPC   D2A33568  24.500   9.278   8.266
 2437POPC   C3A33569  24.462   9.080   7.864
 2437POPC   C4A33570  24.247   9.035   7.475
 2437POPC   C1B33571  24.728   8.602   8.793
 2437POPC   C2B33572  24.662   8.437   8.359
 2437POPC   C3B33573  24.650   8.586   7.918
 2437POPC   C4B33574  24.598   8.705   7.452
 2438POPC   NC333575  16.788  26.726   9.541
 2438POPC   PO433576  16.185  26.879   9.482
 2438POPC   GL133577  16.403  26.669   9.105
 2438POPC   GL233578  16.823  26.608   9.041
 2438POPC   C1A33579  16.466  26.685   8.651
 2438POPC   D2A33580  16.881  26.547   8.470
 2438POPC   C3A33581  16.876  26.649   8.044
 2438POPC   C4A33582  16.474  26.805   7.853
 2438POPC   C1B33583  16.880  26.960   8.756
 2438POPC   C2B33584  16.673  27.012   8.326
 2438POPC   C3B33585  16.812  27.185   7.936
 2438POPC   C4B33586  16.914  27.017   7.513
 2439POPC   NC333587  14.536  39.797   9.554
 2439POPC   PO433588  15.198  39.756   9.511
 2439POPC   GL133589  15.340  40.049   9.203
 2439POPC   GL233590  15.023  39.971   9.019
 2439POPC   C1A33591  15.464  40.163   8.790
 2439POPC   D2A33592  15.133  40.097   8.496
 2439POPC   C3A33593  15.243  40.178   8.089
 2439POPC   C4A33594  15.222  40.057   7.681
 2439POPC   C1B33595  15.321  39.676   8.828
 2439POPC   C2B33596  15.401  39.669   8.391
 2439POPC   C3B33597  15.056  39.688   8.120
 2439POPC   C4B33598  14.867  39.695   7.710
 2440POPC   NC333599   1.635  25.294   9.520
 2440POPC   PO433600   2.351  25.099   9.495
 2440POPC   GL133601   2.210  25.340   9.139
 2440POPC   GL233602   1.886  25.263   9.075
 2440POPC   C1A33603   2.259  25.262   8.692
 2440POPC   D2A33604   1.940  25.006   8.414
 2440POPC   C3A33605   1.999  25.109   7.957
 2440POPC   C4A33606   1.954  25.226   7.506
 2440POPC   C1B33607   1.761  25.403   8.690
 2440POPC   C2B33608   1.992  25.510   8.322
 2440POPC   C3B33609   1.965  25.670   7.939
 2440POPC   C4B33610   1.933  25.740   7.503
 2441POPC   NC333611  39.585  44.163   9.716
 2441POPC   PO433612  38.947  44.363   9.383
 2441POPC   GL133613  39.061  44.613   9.041
 2441POPC   GL233614  39.400  44.753   9.038
 2441POPC   C1A33615  39.166  44.446   8.638
 2441POPC   D2A33616  38.985  44.552   8.258
 2441POPC   C3A33617  39.114  44.938   8.073
 2441POPC   C4A33618  38.967   0.058   7.660
 2441POPC   C1B33619  39.639  44.609   8.723
 2441POPC   C2B33620  39.636  44.572   8.325
 2441POPC   C3B33621  39.381  44.302   8.095
 2441POPC   C4B33622  39.312  44.593   7.756
 2442POPC   NC333623  25.228   5.026   9.557
 2442POPC   PO433624  25.748   5.403   9.364
 2442POPC   GL133625  25.435   5.214   9.044
 2442POPC   GL233626  25.125   4.971   9.083
 2442POPC   C1A33627  25.273   5.151   8.625
 2442POPC   D2A33628  25.158   4.892   8.256
 2442POPC   C3A33629  25.009   5.097   7.897
 2442POPC   C4A33630  25.123   5.077   7.464
 2442POPC   C1B33631  25.168   4.693   8.763
 2442POPC   C2B33632  25.475   4.557   8.476
 2442POPC   C3B33633  25.525   4.511   8.078
 2442POPC   C4B33634  25.237   4.645   7.794
 2443POPC   NC333635   7.138   8.504   9.449
 2443POPC   PO433636   7.422   7.809   9.481
 2443POPC   GL133637   7.447   7.925   9.083
 2443POPC   GL233638   7.139   8.088   9.118
 2443POPC   C1A33639   7.722   7.906   8.724
 2443POPC   D2A33640   7.781   7.723   8.296
 2443POPC   C3A33641   7.733   8.071   8.033
 2443POPC   C4A33642   7.408   8.299   7.835
 2443POPC   C1B33643   7.389   8.314   8.764
 2443POPC   C2B33644   7.316   8.473   8.318
 2443POPC   C3B33645   7.037   8.606   7.945
 2443POPC   C4B33646   7.111   8.543   7.486
 2444POPC   NC333647  41.163   2.048   9.436
 2444POPC   PO433648  40.472   1.790   9.498
 2444POPC   GL133649  40.608   1.650   9.079
 2444POPC   GL233650  40.886   1.888   9.041
 2444POPC   C1A33651  40.589   1.791   8.652
 2444POPC   D2A33652  40.705   1.998   8.288
 2444POPC   C3A33653  40.647   1.686   8.011
 2444POPC   C4A33654  40.603   1.586   7.598
 2444POPC   C1B33655  40.835   2.244   8.737
 2444POPC   C2B33656  40.956   2.447   8.379
 2444POPC   C3B33657  40.935   2.333   7.943
 2444POPC   C4B33658  41.025   1.922   7.783
 2445POPC   NC333659   7.883   5.519   9.471
 2445POPC   PO433660   8.245   4.832   9.585
 2445POPC   GL133661   8.191   5.016   9.174
 2445POPC   GL233662   7.860   5.170   9.120
 2445POPC   C1A33663   8.283   5.209   8.765
 2445POPC   D2A33664   8.442   5.370   8.368
 2445POPC   C3A33665   8.209   5.202   8.020
 2445POPC   C4A33666   8.267   5.119   7.599
 2445POPC   C1B33667   7.816   4.920   8.797
 2445POPC   C2B33668   7.919   4.964   8.398
 2445POPC   C3B33669   7.711   4.990   8.037
 2445POPC   C4B33670   7.765   5.052   7.615
 2446POPC   NC333671  26.779  41.357   9.470
 2446POPC   PO433672  27.412  41.395   9.470
 2446POPC   GL133673  27.105  41.459   9.101
 2446POPC   GL233674  26.827  41.740   9.137
 2446POPC   C1A33675  26.831  41.397   8.741
 2446POPC   D2A33676  26.659  41.313   8.330
 2446POPC   C3A33677  26.887  41.068   8.044
 2446POPC   C4A33678  26.962  41.047   7.604
 2446POPC   C1B33679  26.677  41.909   8.746
 2446POPC   C2B33680  26.783  41.807   8.336
 2446POPC   C3B33681  27.094  41.936   8.034
 2446POPC   C4B33682  27.092  41.942   7.594
 2447POPC   NC333683  44.472   8.408   9.443
 2447POPC   PO433684   0.107   8.526   9.431
 2447POPC   GL133685  44.877   8.188   9.171
 2447POPC   GL233686  44.505   8.082   9.061
 2447POPC   C1A33687  44.917   7.978   8.798
 2447POPC   D2A33688  44.627   8.043   8.491
 2447POPC   C3A33689  44.812   7.917   8.130
 2447POPC   C4A33690  44.903   8.089   7.749
 2447POPC   C1B33691  44.259   8.365   8.782
 2447POPC   C2B33692  44.215   8.292   8.337
 2447POPC   C3B33693  44.535   8.375   8.026
 2447POPC   C4B33694  44.511   8.364   7.610
 2448POPC   NC333695   5.129  40.241   9.430
 2448POPC   PO433696   5.065  39.545   9.526
 2448POPC   GL133697   5.100  39.798   9.158
 2448POPC   GL233698   5.447  39.741   9.147
 2448POPC   C1A33699   5.082  40.071   8.753
 2448POPC   D2A33700   5.214  40.412   8.464
 2448POPC   C3A33701   4.944  40.437   8.100
 2448POPC   C4A33702   5.001  40.367   7.663
 2448POPC   C1B33703   5.584  39.961   8.821
 2448POPC   C2B33704   5.428  39.888   8.419
 2448POPC   C3B33705   5.244  40.033   8.058
 2448POPC   C4B33706   5.466  40.089   7.706
 2449POPC   NC333707  40.474   6.639   9.498
 2449POPC   PO433708  41.042   7.027   9.433
 2449POPC   GL133709  40.780   6.866   9.113
 2449POPC   GL233710  40.820   6.495   9.135
 2449POPC   C1A33711  40.839   6.741   8.691
 2449POPC   D2A33712  40.951   6.533   8.317
 2449POPC   C3A33713  40.864   6.739   7.906
 2449POPC   C4A33714  40.591   6.977   7.589
 2449POPC   C1B33715  40.614   6.278   8.770
 2449POPC   C2B33716  40.674   6.105   8.368
 2449POPC   C3B33717  40.583   6.314   8.017
 2449POPC   C4B33718  40.388   6.505   7.699
 2450POPC   NC333719  23.325  24.956   9.241
 2450POPC   PO433720  23.840  24.684   9.493
 2450POPC   GL133721  23.913  24.475   9.071
 2450POPC   GL233722  23.544  24.366   9.002
 2450POPC   C1A33723  23.918  24.176   8.713
 2450POPC   D2A33724  23.626  24.132   8.310
 2450POPC   C3A33725  23.826  24.165   7.852
 2450POPC   C4A33726  24.140  24.105   7.469
 2450POPC   C1B33727  23.676  24.622   8.650
 2450POPC   C2B33728  23.994  24.864   8.433
 2450POPC   C3B33729  23.838  24.796   8.032
 2450POPC   C4B33730  23.531  24.569   7.788
 2451POPC   NC333731  17.025  10.994   9.319
 2451POPC   PO433732  17.579  11.287   9.416
 2451POPC   GL133733  17.618  11.461   9.032
 2451POPC   GL233734  17.967  11.502   9.062
 2451POPC   C1A33735  17.499  11.673   8.650
 2451POPC   D2A33736  17.294  11.572   8.289
 2451POPC   C3A33737  17.301  11.171   8.149
 2451POPC   C4A33738  17.474  11.176   7.768
 2451POPC   C1B33739  17.933  11.319   8.669
 2451POPC   C2B33740  17.785  11.342   8.279
 2451POPC   C3B33741  17.972  11.301   7.892
 2451POPC   C4B33742  17.899  11.116   7.473
 2452POPC   NC333743   2.691  11.880   9.447
 2452POPC   PO433744   2.946  12.578   9.395
 2452POPC   GL133745   2.833  12.201   9.062
 2452POPC   GL233746   2.883  11.802   9.003
 2452POPC   C1A33747   2.623  12.096   8.653
 2452POPC   D2A33748   2.765  12.351   8.302
 2452POPC   C3A33749   2.812  12.190   7.857
 2452POPC   C4A33750   2.632  12.043   7.439
 2452POPC   C1B33751   2.735  11.597   8.637
 2452POPC   C2B33752   2.465  11.717   8.295
 2452POPC   C3B33753   2.589  11.731   7.875
 2452POPC   C4B33754   2.895  11.602   7.605
 2453POPC   NC333755  42.075   7.628   9.452
 2453POPC   PO433756  41.436   7.444   9.646
 2453POPC   GL133757  41.435   7.625   9.254
 2453POPC   GL233758  41.480   7.273   9.115
 2453POPC   C1A33759  41.661   7.721   8.873
 2453POPC   D2A33760  41.633   7.369   8.586
 2453POPC   C3A33761  41.636   7.532   8.187
 2453POPC   C4A33762  41.569   7.692   7.788
 2453POPC   C1B33763  41.234   7.059   8.786
 2453POPC   C2B33764  41.310   6.932   8.369
 2453POPC   C3B33765  41.530   7.053   7.995
 2453POPC   C4B33766  41.441   7.238   7.585
 2454POPC   NC333767  38.904  43.314   9.415
 2454POPC   PO433768  38.360  42.867   9.545
 2454POPC   GL133769  38.298  43.013   9.108
 2454POPC   GL233770  38.525  43.248   9.079
 2454POPC   C1A33771  38.293  43.067   8.632
 2454POPC   D2A33772  38.585  43.128   8.281
 2454POPC   C3A33773  38.531  43.016   7.816
 2454POPC   C4A33774  38.587  42.861   7.377
 2454POPC   C1B33775  38.399  43.540   8.772
 2454POPC   C2B33776  38.232  43.534   8.377
 2454POPC   C3B33777  38.370  43.473   7.966
 2454POPC   C4B33778  38.280  43.472   7.532
 2455POPC   NC333779  44.510  23.608   9.566
 2455POPC   PO433780   0.072  23.846   9.499
 2455POPC   GL133781  44.857  23.762   9.139
 2455POPC   GL233782  44.813  23.396   9.155
 2455POPC   C1A33783  44.674  23.926   8.753
 2455POPC   D2A33784  44.326  23.808   8.461
 2455POPC   C3A33785  44.511  23.599   8.106
 2455POPC   C4A33786  44.500  23.784   7.698
 2455POPC   C1B33787   0.027  23.415   8.747
 2455POPC   C2B33788   0.023  23.698   8.378
 2455POPC   C3B33789  44.971  23.769   7.934
 2455POPC   C4B33790  44.967  23.677   7.473
 2456POPC   NC333791  33.132  12.409   9.495
 2456POPC   PO433792  33.309  13.001   9.787
 2456POPC   GL133793  33.178  12.936   9.362
 2456POPC   GL233794  33.442  12.749   9.224
 2456POPC   C1A33795  33.077  13.172   8.961
 2456POPC   D2A33796  33.273  13.219   8.543
 2456POPC   C3A33797  33.204  12.931   8.200
 2456POPC   C4A33798  32.913  12.940   7.835
 2456POPC   C1B33799  33.271  12.724   8.798
 2456POPC   C2B33800  33.078  12.454   8.487
 2456POPC   C3B33801  32.999  12.444   8.042
 2456POPC   C4B33802  32.809  12.432   7.628
 2457POPC   NC333803  34.577  29.789   9.546
 2457POPC   PO433804  34.344  30.333   9.140
 2457POPC   GL133805  34.579  29.991   9.090
 2457POPC   GL233806  34.292  29.702   9.144
 2457POPC   C1A33807  34.846  29.909   8.725
 2457POPC   D2A33808  34.711  29.802   8.297
 2457POPC   C3A33809  34.612  30.058   7.946
 2457POPC   C4A33810  34.908  30.264   7.713
 2457POPC   C1B33811  34.337  29.747   8.722
 2457POPC   C2B33812  34.204  30.028   8.422
 2457POPC   C3B33813  34.145  29.870   8.037
 2457POPC   C4B33814  34.262  29.828   7.606
 2458POPC   NC333815   6.563  11.776   9.484
 2458POPC   PO433816   6.260  12.357   9.373
 2458POPC   GL133817   6.515  12.108   9.082
 2458POPC   GL233818   6.497  11.737   9.001
 2458POPC   C1A33819   6.525  12.122   8.638
 2458POPC   D2A33820   6.834  12.079   8.328
 2458POPC   C3A33821   6.770  12.277   7.950
 2458POPC   C4A33822   6.990  12.181   7.596
 2458POPC   C1B33823   6.306  11.633   8.658
 2458POPC   C2B33824   6.443  11.726   8.295
 2458POPC   C3B33825   6.558  11.828   7.918
 2458POPC   C4B33826   6.503  11.999   7.519
 2459POPC   NC333827   4.882  38.699   9.485
 2459POPC   PO433828   5.428  38.256   9.569
 2459POPC   GL133829   5.312  38.475   9.160
 2459POPC   GL233830   4.951  38.401   9.084
 2459POPC   C1A33831   5.250  38.503   8.696
 2459POPC   D2A33832   5.116  38.179   8.401
 2459POPC   C3A33833   5.073  38.328   7.978
 2459POPC   C4A33834   5.199  38.690   7.745
 2459POPC   C1B33835   4.719  38.389   8.693
 2459POPC   C2B33836   4.648  38.564   8.286
 2459POPC   C3B33837   4.654  38.645   7.826
 2459POPC   C4B33838   4.513  38.406   7.471
 2460POPC   NC333839  33.142  17.308   9.624
 2460POPC   PO433840  32.577  17.340   9.326
 2460POPC   GL133841  32.817  17.688   9.127
 2460POPC   GL233842  33.187  17.660   9.211
 2460POPC   C1A33843  32.835  17.636   8.681
 2460POPC   D2A33844  33.127  17.385   8.453
 2460POPC   C3A33845  33.022  17.466   8.065
 2460POPC   C4A33846  32.949  17.271   7.724
 2460POPC   C1B33847  33.330  17.731   8.768
 2460POPC   C2B33848  33.206  17.897   8.314
 2460POPC   C3B33849  33.331  17.792   7.832
 2460POPC   C4B33850  33.359  17.966   7.366
 2461POPC   NC333851  28.899   0.960   9.497
 2461POPC   PO433852  29.248   1.533   9.482
 2461POPC   GL133853  29.193   1.258   9.133
 2461POPC   GL233854  29.508   1.116   9.040
 2461POPC   C1A33855  28.890   1.156   8.770
 2461POPC   D2A33856  28.707   0.932   8.401
 2461POPC   C3A33857  28.827   1.142   8.027
 2461POPC   C4A33858  29.015   1.152   7.630
 2461POPC   C1B33859  29.406   1.311   8.649
 2461POPC   C2B33860  29.329   1.147   8.244
 2461POPC   C3B33861  29.478   1.168   7.813
 2461POPC   C4B33862  29.524   1.468   7.517
 2462POPC   NC333863   7.529  13.988   9.514
 2462POPC   PO433864   7.085  14.615   9.445
 2462POPC   GL133865   7.344  14.360   9.171
 2462POPC   GL233866   7.247  14.011   9.053
 2462POPC   C1A33867   7.539  14.340   8.771
 2462POPC   D2A33868   7.489  14.115   8.417
 2462POPC   C3A33869   7.563  14.382   8.111
 2462POPC   C4A33870   7.637  14.394   7.712
 2462POPC   C1B33871   7.032  14.281   8.733
 2462POPC   C2B33872   7.150  14.502   8.372
 2462POPC   C3B33873   7.092  14.190   8.019
 2462POPC   C4B33874   7.199  14.183   7.579
 2463POPC   NC333875  14.130   2.927   9.416
 2463POPC   PO433876  14.611   2.304   9.346
 2463POPC   GL133877  14.320   2.525   9.124
 2463POPC   GL233878  14.557   2.813   9.141
 2463POPC   C1A33879  14.242   2.740   8.744
 2463POPC   D2A33880  14.470   2.678   8.377
 2463POPC   C3A33881  14.240   2.763   8.039
 2463POPC   C4A33882  14.302   2.568   7.648
 2463POPC   C1B33883  14.634   3.096   8.794
 2463POPC   C2B33884  14.489   3.188   8.410
 2463POPC   C3B33885  14.682   3.104   8.073
 2463POPC   C4B33886  14.742   2.714   7.919
 2464POPC   NC333887  24.111  38.699   9.637
 2464POPC   PO433888  23.579  38.426   9.399
 2464POPC   GL133889  23.733  38.231   9.030
 2464POPC   GL233890  23.636  38.552   8.881
 2464POPC   C1A33891  23.747  38.184   8.569
 2464POPC   D2A33892  23.486  38.369   8.233
 2464POPC   C3A33893  23.758  38.422   7.910
 2464POPC   C4A33894  24.151  38.503   7.751
 2464POPC   C1B33895  23.280  38.279   8.752
 2464POPC   C2B33896  22.991  38.277   8.374
 2464POPC   C3B33897  23.039  38.431   7.923
 2464POPC   C4B33898  23.253  38.646   7.549
 2465POPC   NC333899  35.942   8.523   9.373
 2465POPC   PO433900  36.318   8.034   9.488
 2465POPC   GL133901  36.296   8.236   9.140
 2465POPC   GL233902  36.464   8.563   9.192
 2465POPC   C1A33903  36.083   8.152   8.757
 2465POPC   D2A33904  35.899   8.363   8.401
 2465POPC   C3A33905  36.059   8.238   7.988
 2465POPC   C4A33906  36.208   7.943   7.650
 2465POPC   C1B33907  36.364   8.598   8.776
 2465POPC   C2B33908  36.406   8.368   8.398
 2465POPC   C3B33909  36.475   8.535   8.023
 2465POPC   C4B33910  36.414   8.400   7.634
 2466POPC   NC333911  34.256  12.087   9.295
 2466POPC   PO433912  34.829  12.398   9.395
 2466POPC   GL133913  34.780  12.118   9.106
 2466POPC   GL233914  34.662  11.798   9.207
 2466POPC   C1A33915  34.774  12.158   8.708
 2466POPC   D2A33916  34.483  12.213   8.426
 2466POPC   C3A33917  34.760  12.087   8.147
 2466POPC   C4A33918  34.921  12.182   7.781
 2466POPC   C1B33919  34.474  11.768   8.782
 2466POPC   C2B33920  34.484  11.686   8.345
 2466POPC   C3B33921  34.472  11.773   7.905
 2466POPC   C4B33922  34.751  11.686   7.595
 2467POPC   NC333923  42.935  38.863   9.525
 2467POPC   PO433924  43.052  38.236   9.419
 2467POPC   GL133925  43.125  38.521   9.126
 2467POPC   GL233926  43.390  38.737   9.219
 2467POPC   C1A33927  43.053  38.550   8.715
 2467POPC   D2A33928  42.810  38.592   8.399
 2467POPC   C3A33929  42.985  38.565   8.053
 2467POPC   C4A33930  42.998  38.468   7.659
 2467POPC   C1B33931  43.388  38.907   8.794
 2467POPC   C2B33932  43.256  38.926   8.321
 2467POPC   C3B33933  43.396  38.822   7.858
 2467POPC   C4B33934  43.342  38.884   7.365
 2468POPC   NC333935  22.984   8.626   9.755
 2468POPC   PO433936  23.099   9.197   9.330
 2468POPC   GL133937  22.902   9.010   9.043
 2468POPC   GL233938  22.808   9.281   8.898
 2468POPC   C1A33939  22.894   8.822   8.645
 2468POPC   D2A33940  23.053   8.934   8.250
 2468POPC   C3A33941  22.804   8.920   7.863
 2468POPC   C4A33942  22.983   8.987   7.451
 2468POPC   C1B33943  23.080   9.310   8.629
 2468POPC   C2B33944  22.798   9.376   8.324
 2468POPC   C3B33945  23.017   9.375   7.968
 2468POPC   C4B33946  22.982   9.509   7.580
 2469POPC   NC333947  35.058  37.061   9.452
 2469POPC   PO433948  34.423  37.035   9.415
 2469POPC   GL133949  34.694  37.174   9.108
 2469POPC   GL233950  34.805  36.817   9.088
 2469POPC   C1A33951  34.625  37.146   8.682
 2469POPC   D2A33952  34.418  36.944   8.338
 2469POPC   C3A33953  34.508  37.148   7.926
 2469POPC   C4A33954  34.209  37.147   7.554
 2469POPC   C1B33955  34.688  36.613   8.710
 2469POPC   C2B33956  34.722  36.433   8.345
 2469POPC   C3B33957  34.657  36.620   7.974
 2469POPC   C4B33958  34.529  36.746   7.587
 2470POPC   NC333959  21.651   8.318   9.475
 2470POPC   PO433960  20.976   8.261   9.436
 2470POPC   GL133961  21.268   8.394   9.136
 2470POPC   GL233962  21.469   8.076   9.060
 2470POPC   C1A33963  21.430   8.468   8.738
 2470POPC   D2A33964  21.564   8.484   8.358
 2470POPC   C3A33965  21.308   8.268   8.081
 2470POPC   C4A33966  21.358   8.308   7.648
 2470POPC   C1B33967  21.761   7.881   8.756
 2470POPC   C2B33968  21.613   7.967   8.370
 2470POPC   C3B33969  21.791   8.147   8.002
 2470POPC   C4B33970  21.786   8.069   7.587
 2471POPC   NC333971  17.305   5.849   9.538
 2471POPC   PO433972  17.836   5.624   9.245
 2471POPC   GL133973  17.446   5.695   9.057
 2471POPC   GL233974  17.655   5.683   8.755
 2471POPC   C1A33975  17.151   5.660   8.726
 2471POPC   D2A33976  17.172   5.888   8.325
 2471POPC   C3A33977  17.517   5.755   8.087
 2471POPC   C4A33978  17.385   5.749   7.637
 2471POPC   C1B33979  17.855   6.005   8.509
 2471POPC   C2B33980  18.058   6.351   8.321
 2471POPC   C3B33981  17.879   6.446   7.949
 2471POPC   C4B33982  17.603   6.165   7.818
 2472POPC   NC333983  40.306  13.937   9.383
 2472POPC   PO433984  39.763  13.755   9.599
 2472POPC   GL133985  39.847  13.856   9.147
 2472POPC   GL233986  40.090  13.609   9.055
 2472POPC   C1A33987  39.902  13.872   8.673
 2472POPC   D2A33988  39.725  13.685   8.281
 2472POPC   C3A33989  39.928  13.938   7.940
 2472POPC   C4A33990  40.369  13.913   7.760
 2472POPC   C1B33991  39.879  13.289   8.784
 2472POPC   C2B33992  39.895  13.092   8.372
 2472POPC   C3B33993  39.945  13.281   7.948
 2472POPC   C4B33994  39.739  13.287   7.552
 2473POPC   NC333995  23.300   8.769   9.371
 2473POPC   PO433996  22.879   8.241   9.528
 2473POPC   GL133997  22.718   8.219   9.142
 2473POPC   GL233998  22.936   8.506   9.089
 2473POPC   C1A33999  22.743   8.231   8.690
 2473POPC   D2A34000  22.959   7.932   8.411
 2473POPC   C3A34001  22.847   8.027   8.004
 2473POPC   C4A34002  23.056   7.832   7.649
 2473POPC   C1B34003  23.214   8.449   8.746
 2473POPC   C2B34004  23.077   8.433   8.335
 2473POPC   C3B34005  23.139   8.528   7.932
 2473POPC   C4B34006  22.974   8.345   7.594
 2474POPC   NC334007  16.556   6.190   9.494
 2474POPC   PO434008  16.969   6.657   9.509
 2474POPC   GL134009  16.875   6.457   9.126
 2474POPC   GL234010  16.527   6.493   9.090
 2474POPC   C1A34011  16.865   6.577   8.691
 2474POPC   D2A34012  16.998   6.396   8.325
 2474POPC   C3A34013  16.911   6.725   8.114
 2474POPC   C4A34014  16.954   6.717   7.723
 2474POPC   C1B34015  16.434   6.285   8.702
 2474POPC   C2B34016  16.487   6.417   8.264
 2474POPC   C3B34017  16.501   6.460   7.787
 2474POPC   C4B34018  16.332   6.347   7.352
 2475POPC   NC334019  37.648  44.319   9.420
 2475POPC   PO434020  37.394  43.721   9.516
 2475POPC   GL134021  37.690  43.813   9.163
 2475POPC   GL234022  37.909  43.501   9.078
 2475POPC   C1A34023  37.624  44.078   8.773
 2475POPC   D2A34024  37.379  43.880   8.448
 2475POPC   C3A34025  37.454  43.861   8.012
 2475POPC   C4A34026  37.373  44.197   7.753
 2475POPC   C1B34027  37.777  43.600   8.681
 2475POPC   C2B34028  37.868  43.864   8.331
 2475POPC   C3B34029  37.942  43.730   7.904
 2475POPC   C4B34030  37.814  43.683   7.503
 2476POPC   NC334031   2.136  39.260   9.729
 2476POPC   PO434032   1.523  39.182   9.489
 2476POPC   GL134033   1.859  39.276   9.204
 2476POPC   GL234034   2.131  38.993   9.249
 2476POPC   C1A34035   1.795  39.290   8.757
 2476POPC   D2A34036   1.594  39.201   8.362
 2476POPC   C3A34037   1.702  39.405   7.991
 2476POPC   C4A34038   1.739  39.218   7.614
 2476POPC   C1B34039   2.107  38.858   8.807
 2476POPC   C2B34040   2.114  39.083   8.411
 2476POPC   C3B34041   2.172  39.224   7.980
 2476POPC   C4B34042   2.229  39.235   7.526
 2477POPC   NC334043  40.401  37.782   9.267
 2477POPC   PO434044  40.768  37.413   9.698
 2477POPC   GL134045  40.846  37.537   9.247
 2477POPC   GL234046  41.130  37.753   9.210
 2477POPC   C1A34047  40.784  37.701   8.766
 2477POPC   D2A34048  40.502  37.959   8.434
 2477POPC   C3A34049  40.624  37.885   7.988
 2477POPC   C4A34050  40.493  37.484   7.805
 2477POPC   C1B34051  41.184  37.397   8.903
 2477POPC   C2B34052  41.064  37.272   8.490
 2477POPC   C3B34053  40.928  37.320   8.068
 2477POPC   C4B34054  41.115  37.192   7.677
 2478POPC   NC334055  28.742  43.053   9.519
 2478POPC   PO434056  28.123  43.061   9.585
 2478POPC   GL134057  28.327  43.095   9.208
 2478POPC   GL234058  28.482  43.408   9.185
 2478POPC   C1A34059  28.364  43.127   8.771
 2478POPC   D2A34060  28.371  42.937   8.419
 2478POPC   C3A34061  28.364  43.109   8.047
 2478POPC   C4A34062  28.194  43.172   7.657
 2478POPC   C1B34063  28.030  43.443   8.944
 2478POPC   C2B34064  28.009  43.351   8.456
 2478POPC   C3B34065  27.936  43.477   7.996
 2478POPC   C4B34066  27.797  43.624   7.568
 2479POPC   NC334067  44.201  27.133   9.454
 2479POPC   PO434068  43.631  26.934   9.158
 2479POPC   GL134069  43.934  26.962   8.996
 2479POPC   GL234070  44.200  26.729   9.136
 2479POPC   C1A34071  43.922  27.057   8.546
 2479POPC   D2A34072  44.034  26.860   8.172
 2479POPC   C3A34073  43.744  27.045   7.913
 2479POPC   C4A34074  43.354  26.884   7.778
 2479POPC   C1B34075  44.138  26.628   8.700
 2479POPC   C2B34076  44.040  26.363   8.353
 2479POPC   C3B34077  44.175  26.418   7.927
 2479POPC   C4B34078  44.162  26.407   7.447
 2480POPC   NC334079  28.518   3.120   9.522
 2480POPC   PO434080  28.030   2.762   9.835
 2480POPC   GL134081  28.104   2.912   9.296
 2480POPC   GL234082  28.122   2.625   9.065
 2480POPC   C1A34083  28.433   2.969   8.864
 2480POPC   D2A34084  28.325   3.167   8.421
 2480POPC   C3A34085  28.528   3.063   7.993
 2480POPC   C4A34086  28.681   2.628   7.861
 2480POPC   C1B34087  28.286   2.530   8.672
 2480POPC   C2B34088  28.385   2.651   8.281
 2480POPC   C3B34089  28.144   2.742   7.927
 2480POPC   C4B34090  28.281   2.678   7.552
 2481POPC   NC334091  29.801   5.830   9.605
 2481POPC   PO434092  30.387   6.070   9.415
 2481POPC   GL134093  30.186   6.071   9.072
 2481POPC   GL234094  29.813   6.037   9.139
 2481POPC   C1A34095  30.074   5.925   8.682
 2481POPC   D2A34096  29.927   5.631   8.416
 2481POPC   C3A34097  30.013   5.744   8.007
 2481POPC   C4A34098  30.251   5.581   7.713
 2481POPC   C1B34099  29.613   6.151   8.758
 2481POPC   C2B34100  29.553   5.975   8.353
 2481POPC   C3B34101  29.622   6.042   7.905
 2481POPC   C4B34102  29.707   6.167   7.499
 2482POPC   NC334103   1.590  29.353   9.468
 2482POPC   PO434104   0.909  29.247   9.588
 2482POPC   GL134105   0.998  29.132   9.184
 2482POPC   GL234106   1.315  28.987   9.204
 2482POPC   C1A34107   0.949  29.001   8.747
 2482POPC   D2A34108   0.755  29.075   8.363
 2482POPC   C3A34109   1.020  29.027   8.086
 2482POPC   C4A34110   1.105  29.242   7.712
 2482POPC   C1B34111   1.363  29.287   8.855
 2482POPC   C2B34112   1.392  29.175   8.443
 2482POPC   C3B34113   1.515  29.157   8.033
 2482POPC   C4B34114   1.597  29.386   7.689
 2483POPC   NC334115   2.718  28.109   9.574
 2483POPC   PO434116   3.290  28.514   9.452
 2483POPC   GL134117   2.925  28.424   9.174
 2483POPC   GL234118   2.559  28.465   9.254
 2483POPC   C1A34119   2.858  28.269   8.762
 2483POPC   D2A34120   3.006  28.085   8.364
 2483POPC   C3A34121   2.967  28.346   7.999
 2483POPC   C4A34122   2.727  28.629   7.759
 2483POPC   C1B34123   2.440  28.089   8.958
 2483POPC   C2B34124   2.507  27.948   8.480
 2483POPC   C3B34125   2.651  27.903   8.006
 2483POPC   C4B34126   2.465  28.102   7.595
 2484POPC   NC334127   6.804  30.366   9.453
 2484POPC   PO434128   6.338  30.904   9.454
 2484POPC   GL134129   6.588  30.702   9.138
 2484POPC   GL234130   6.397  30.416   9.086
 2484POPC   C1A34131   6.857  30.609   8.765
 2484POPC   D2A34132   6.722  30.675   8.321
 2484POPC   C3A34133   6.950  30.831   7.948
 2484POPC   C4A34134   6.704  30.911   7.551
 2484POPC   C1B34135   6.364  30.455   8.639
 2484POPC   C2B34136   6.440  30.282   8.197
 2484POPC   C3B34137   6.653  30.410   7.793
 2484POPC   C4B34138   6.899  30.252   7.437
 2485POPC   NC334139  35.248  31.859   9.534
 2485POPC   PO434140  35.168  32.500   9.425
 2485POPC   GL134141  35.366  32.336   9.070
 2485POPC   GL234142  35.170  32.041   9.069
 2485POPC   C1A34143  35.459  32.422   8.608
 2485POPC   D2A34144  35.208  32.561   8.285
 2485POPC   C3A34145  35.207  32.663   7.851
 2485POPC   C4A34146  35.464  32.435   7.541
 2485POPC   C1B34147  34.988  32.243   8.714
 2485POPC   C2B34148  35.039  32.058   8.326
 2485POPC   C3B34149  35.205  32.130   7.923
 2485POPC   C4B34150  34.977  32.283   7.572
 2486POPC   NC334151  11.781   2.567   9.301
 2486POPC   PO434152  12.234   2.223   9.394
 2486POPC   GL134153  12.060   2.281   8.973
 2486POPC   GL234154  11.705   2.221   8.916
 2486POPC   C1A34155  12.058   2.216   8.517
 2486POPC   D2A34156  12.342   1.979   8.276
 2486POPC   C3A34157  12.242   1.904   7.840
 2486POPC   C4A34158  12.084   2.071   7.446
 2486POPC   C1B34159  11.622   1.943   8.561
 2486POPC   C2B34160  11.826   1.815   8.172
 2486POPC   C3B34161  11.742   1.803   7.716
 2486POPC   C4B34162  11.388   2.006   7.506
 2487POPC   NC334163  32.068  12.004   9.480
 2487POPC   PO434164  32.724  12.184   9.434
 2487POPC   GL134165  32.476  11.923   9.121
 2487POPC   GL234166  32.143  12.093   8.988
 2487POPC   C1A34167  32.451  11.870   8.657
 2487POPC   D2A34168  32.288  11.859   8.215
 2487POPC   C3A34169  32.395  12.128   7.860
 2487POPC   C4A34170  32.344  12.003   7.435
 2487POPC   C1B34171  31.919  11.883   8.636
 2487POPC   C2B34172  31.760  11.851   8.239
 2487POPC   C3B34173  31.877  12.041   7.830
 2487POPC   C4B34174  31.945  12.300   7.417
 2488POPC   NC334175  38.302  23.192   9.343
 2488POPC   PO434176  38.461  22.491   9.542
 2488POPC   GL134177  38.384  22.712   9.188
 2488POPC   GL234178  38.704  22.771   9.091
 2488POPC   C1A34179  38.254  22.730   8.763
 2488POPC   D2A34180  38.245  22.990   8.383
 2488POPC   C3A34181  38.342  22.918   7.928
 2488POPC   C4A34182  38.306  22.737   7.478
 2488POPC   C1B34183  38.698  22.977   8.686
 2488POPC   C2B34184  38.746  22.840   8.270
 2488POPC   C3B34185  38.861  22.985   7.879
 2488POPC   C4B34186  38.679  23.047   7.493
 2489POPC   NC334187   9.221  30.709   9.348
 2489POPC   PO434188   9.895  30.792   9.614
 2489POPC   GL134189   9.837  30.690   9.167
 2489POPC   GL234190   9.602  30.947   9.015
 2489POPC   C1A34191  10.022  30.779   8.738
 2489POPC   D2A34192   9.907  30.620   8.338
 2489POPC   C3A34193  10.176  30.646   8.004
 2489POPC   C4A34194  10.025  30.802   7.655
 2489POPC   C1B34195   9.540  30.562   8.778
 2489POPC   C2B34196   9.505  30.332   8.415
 2489POPC   C3B34197   9.468  30.566   8.048
 2489POPC   C4B34198   9.525  30.931   7.820
 2490POPC   NC334199  13.776  29.053   9.574
 2490POPC   PO434200  13.117  28.983   9.413
 2490POPC   GL134201  13.445  29.134   9.112
 2490POPC   GL234202  13.809  29.209   9.093
 2490POPC   C1A34203  13.457  29.194   8.672
 2490POPC   D2A34204  13.398  29.446   8.334
 2490POPC   C3A34205  13.591  29.258   8.004
 2490POPC   C4A34206  13.314  29.186   7.672
 2490POPC   C1B34207  13.990  28.963   8.805
 2490POPC   C2B34208  13.859  28.983   8.389
 2490POPC   C3B34209  13.902  28.820   7.993
 2490POPC   C4B34210  13.862  29.044   7.617
 2491POPC   NC334211  40.012  41.823   9.546
 2491POPC   PO434212  40.187  41.251   9.360
 2491POPC   GL134213  39.908  41.530   9.120
 2491POPC   GL234214  39.696  41.863   9.147
 2491POPC   C1A34215  39.963  41.439   8.714
 2491POPC   D2A34216  39.803  41.587   8.349
 2491POPC   C3A34217  40.020  41.481   8.014
 2491POPC   C4A34218  40.002  41.224   7.672
 2491POPC   C1B34219  39.897  41.943   8.760
 2491POPC   C2B34220  39.822  42.090   8.375
 2491POPC   C3B34221  39.875  41.971   7.975
 2491POPC   C4B34222  39.747  41.699   7.640
 2492POPC   NC334223   7.722  29.931   9.561
 2492POPC   PO434224   7.082  29.817   9.501
 2492POPC   GL134225   7.154  29.856   9.102
 2492POPC   GL234226   7.515  29.773   9.103
 2492POPC   C1A34227   7.278  30.157   8.821
 2492POPC   D2A34228   7.531  30.178   8.432
 2492POPC   C3A34229   7.442  29.953   8.048
 2492POPC   C4A34230   7.281  30.047   7.662
 2492POPC   C1B34231   7.552  29.734   8.664
 2492POPC   C2B34232   7.837  29.756   8.312
 2492POPC   C3B34233   7.836  29.578   7.913
 2492POPC   C4B34234   7.658  29.731   7.578
 2493POPC   NC334235  23.474  44.674   9.681
 2493POPC   PO434236  23.916  44.212   9.426
 2493POPC   GL134237  23.869  44.458   9.041
 2493POPC   GL234238  23.575  44.606   9.160
 2493POPC   C1A34239  23.993  44.624   8.621
 2493POPC   D2A34240  23.838  44.946   8.335
 2493POPC   C3A34241  23.903  44.908   7.906
 2493POPC   C4A34242  23.926  44.470   7.837
 2493POPC   C1B34243  23.572  44.909   8.829
 2493POPC   C2B34244  23.343  44.963   8.449
 2493POPC   C3B34245  23.407  44.788   8.035
 2493POPC   C4B34246  23.526  44.652   7.612
 2494POPC   NC334247  16.907  33.045   9.568
 2494POPC   PO434248  16.244  32.954   9.752
 2494POPC   GL134249  16.492  33.028   9.266
 2494POPC   GL234250  16.317  33.201   9.040
 2494POPC   C1A34251  16.869  33.010   8.907
 2494POPC   D2A34252  17.143  33.024   8.485
 2494POPC   C3A34253  17.036  32.851   8.055
 2494POPC   C4A34254  16.661  32.735   7.806
 2494POPC   C1B34255  16.526  33.284   8.675
 2494POPC   C2B34256  16.638  33.035   8.315
 2494POPC   C3B34257  16.615  33.222   7.929
 2494POPC   C4B34258  16.245  33.301   7.743
 2495POPC   NC334259   7.481  41.144   9.626
 2495POPC   PO434260   7.382  41.813   9.580
 2495POPC   GL134261   7.377  41.686   9.154
 2495POPC   GL234262   7.537  41.361   9.118
 2495POPC   C1A34263   7.270  41.548   8.727
 2495POPC   D2A34264   7.078  41.359   8.363
 2495POPC   C3A34265   7.361  41.489   7.996
 2495POPC   C4A34266   7.317  41.897   7.841
 2495POPC   C1B34267   7.853  41.357   8.761
 2495POPC   C2B34268   7.969  41.496   8.329
 2495POPC   C3B34269   7.824  41.250   7.935
 2495POPC   C4B34270   7.531  41.135   7.606
 2496POPC   NC334271  40.917   4.939   9.672
 2496POPC   PO434272  40.779   5.549   9.535
 2496POPC   GL134273  40.897   5.233   9.233
 2496POPC   GL234274  40.698   4.922   9.198
 2496POPC   C1A34275  40.815   5.225   8.802
 2496POPC   D2A34276  40.596   5.162   8.443
 2496POPC   C3A34277  40.860   5.166   8.107
 2496POPC   C4A34278  40.662   5.213   7.703
 2496POPC   C1B34279  40.527   4.794   8.810
 2496POPC   C2B34280  40.522   4.644   8.414
 2496POPC   C3B34281  40.521   4.814   8.009
 2496POPC   C4B34282  40.785   4.696   7.619
 2497POPC   NC334283  13.195   3.271   9.505
 2497POPC   PO434284  12.951   2.633   9.647
 2497POPC   GL134285  12.918   2.839   9.225
 2497POPC   GL234286  13.268   2.971   9.090
 2497POPC   C1A34287  12.782   2.741   8.792
 2497POPC   D2A34288  12.949   2.879   8.397
 2497POPC   C3A34289  12.876   2.635   8.025
 2497POPC   C4A34290  12.652   2.704   7.662
 2497POPC   C1B34291  12.962   3.227   8.849
 2497POPC   C2B34292  12.771   3.358   8.446
 2497POPC   C3B34293  12.785   3.167   7.994
 2497POPC   C4B34294  13.090   2.992   7.721
 2498POPC   NC334295   8.774  35.205   9.570
 2498POPC   PO434296   8.980  35.830   9.436
 2498POPC   GL134297   8.775  35.491   9.144
 2498POPC   GL234298   8.788  35.101   9.064
 2498POPC   C1A34299   8.722  35.476   8.706
 2498POPC   D2A34300   8.789  35.188   8.385
 2498POPC   C3A34301   8.995  35.397   8.044
 2498POPC   C4A34302   8.867  35.471   7.619
 2498POPC   C1B34303   9.174  35.284   8.860
 2498POPC   C2B34304   9.337  35.157   8.464
 2498POPC   C3B34305   9.221  34.919   8.109
 2498POPC   C4B34306   9.190  35.074   7.686
 2499POPC   NC334307  39.471   3.876   9.546
 2499POPC   PO434308  39.092   3.333   9.468
 2499POPC   GL134309  39.226   3.376   9.047
 2499POPC   GL234310  39.299   3.719   9.090
 2499POPC   C1A34311  39.296   3.254   8.600
 2499POPC   D2A34312  39.400   3.039   8.200
 2499POPC   C3A34313  39.315   3.315   7.906
 2499POPC   C4A34314  39.198   3.553   7.574
 2499POPC   C1B34315  39.488   3.738   8.691
 2499POPC   C2B34316  39.304   3.742   8.265
 2499POPC   C3B34317  39.575   3.761   7.881
 2499POPC   C4B34318  39.610   3.911   7.455
 2500POPC   NC334319  10.739  22.001   9.440
 2500POPC   PO434320  10.279  22.502   9.643
 2500POPC   GL134321  10.320  22.351   9.245
 2500POPC   GL234322  10.461  22.091   9.041
 2500POPC   C1A34323  10.157  22.427   8.881
 2500POPC   D2A34324  10.469  22.473   8.542
 2500POPC   C3A34325  10.529  22.170   8.208
 2500POPC   C4A34326  10.482  22.236   7.772
 2500POPC   C1B34327  10.392  21.951   8.670
 2500POPC   C2B34328  10.700  21.728   8.464
 2500POPC   C3B34329  10.838  21.753   8.072
 2500POPC   C4B34330  10.642  21.778   7.681
 2501POPC   NC334331   4.475  42.288   9.405
 2501POPC   PO434332   3.846  42.705   9.442
 2501POPC   GL134333   4.084  42.543   9.119
 2501POPC   GL234334   4.089  42.196   9.005
 2501POPC   C1A34335   4.232  42.670   8.724
 2501POPC   D2A34336   4.412  42.597   8.313
 2501POPC   C3A34337   4.155  42.357   8.016
 2501POPC   C4A34338   4.253  42.400   7.595
 2501POPC   C1B34339   4.482  42.230   8.714
 2501POPC   C2B34340   4.614  42.103   8.266
 2501POPC   C3B34341   4.488  42.012   7.827
 2501POPC   C4B34342   4.117  41.783   7.640
 2502POPC   NC334343  20.757  18.960   9.413
 2502POPC   PO434344  20.138  19.363   9.458
 2502POPC   GL134345  20.432  19.199   9.101
 2502POPC   GL234346  20.861  19.223   9.015
 2502POPC   C1A34347  20.390  18.848   8.823
 2502POPC   D2A34348  20.245  18.609   8.451
 2502POPC   C3A34349  20.257  18.885   8.119
 2502POPC   C4A34350  20.445  19.067   7.771
 2502POPC   C1B34351  20.819  19.048   8.612
 2502POPC   C2B34352  20.678  19.246   8.232
 2502POPC   C3B34353  20.916  19.173   7.889
 2502POPC   C4B34354  20.898  18.721   7.822
 2503POPC   NC334355  34.727  38.406   9.410
 2503POPC   PO434356  34.362  38.881   9.667
 2503POPC   GL134357  34.354  38.639   9.170
 2503POPC   GL234358  34.700  38.535   8.928
 2503POPC   C1A34359  34.284  38.717   8.734
 2503POPC   D2A34360  34.653  38.690   8.430
 2503POPC   C3A34361  34.582  38.530   7.994
 2503POPC   C4A34362  34.217  38.523   7.708
 2503POPC   C1B34363  34.599  38.201   8.697
 2503POPC   C2B34364  34.540  38.039   8.293
 2503POPC   C3B34365  34.664  38.040   7.844
 2503POPC   C4B34366  34.552  38.245   7.429
 2504POPC   NC334367  14.367  28.662   9.577
 2504POPC   PO434368  14.646  29.244   9.515
 2504POPC   GL134369  14.363  29.151   9.195
 2504POPC   GL234370  14.584  28.833   9.154
 2504POPC   C1A34371  14.235  29.408   8.827
 2504POPC   D2A34372  14.311  29.214   8.429
 2504POPC   C3A34373  14.146  29.292   8.016
 2504POPC   C4A34374  14.439  29.372   7.698
 2504POPC   C1B34375  14.511  28.853   8.750
 2504POPC   C2B34376  14.749  28.955   8.407
 2504POPC   C3B34377  14.648  29.033   8.019
 2504POPC   C4B34378  14.347  28.841   7.790
 2505POPC   NC334379  11.703  38.105   9.812
 2505POPC   PO434380  11.185  38.573   9.622
 2505POPC   GL134381  11.413  38.274   9.365
 2505POPC   GL234382  11.610  38.514   9.175
 2505POPC   C1A34383  11.384  38.153   8.912
 2505POPC   D2A34384  11.618  38.211   8.525
 2505POPC   C3A34385  11.341  38.250   8.174
 2505POPC   C4A34386  11.349  38.431   7.765
 2505POPC   C1B34387  11.486  38.703   8.779
 2505POPC   C2B34388  11.148  38.636   8.461
 2505POPC   C3B34389  11.068  38.752   8.033
 2505POPC   C4B34390  11.331  38.987   7.724
 2506POPC   NC334391  40.662  12.477   9.853
 2506POPC   PO434392  40.831  11.849   9.619
 2506POPC   GL134393  40.940  12.099   9.236
 2506POPC   GL234394  40.663  12.356   9.216
 2506POPC   C1A34395  40.889  12.218   8.780
 2506POPC   D2A34396  40.928  12.129   8.330
 2506POPC   C3A34397  40.738  11.861   8.033
 2506POPC   C4A34398  40.986  11.540   7.851
 2506POPC   C1B34399  40.381  12.437   8.871
 2506POPC   C2B34400  40.461  12.341   8.472
 2506POPC   C3B34401  40.481  12.349   8.045
 2506POPC   C4B34402  40.880  12.337   7.862
 2507POPC   NC334403  40.245  33.599   9.727
 2507POPC   PO434404  39.825  34.041   9.598
 2507POPC   GL134405  39.961  33.897   9.173
 2507POPC   GL234406  39.655  33.737   9.105
 2507POPC   C1A34407  40.058  34.054   8.717
 2507POPC   D2A34408  40.139  34.142   8.236
 2507POPC   C3A34409  40.168  33.799   7.890
 2507POPC   C4A34410  40.226  33.875   7.404
 2507POPC   C1B34411  39.799  33.617   8.727
 2507POPC   C2B34412  39.752  33.795   8.313
 2507POPC   C3B34413  39.681  33.579   7.931
 2507POPC   C4B34414  39.805  33.633   7.534
 2508POPC   NC334415  23.698  31.768   9.772
 2508POPC   PO434416  23.366  31.239   9.539
 2508POPC   GL134417  23.551  31.257   9.146
 2508POPC   GL234418  23.806  31.506   9.168
 2508POPC   C1A34419  23.420  31.391   8.731
 2508POPC   D2A34420  23.621  31.735   8.449
 2508POPC   C3A34421  23.553  31.712   7.985
 2508POPC   C4A34422  23.735  31.604   7.566
 2508POPC   C1B34423  23.923  31.424   8.765
 2508POPC   C2B34424  23.800  31.257   8.362
 2508POPC   C3B34425  23.878  31.237   7.926
 2508POPC   C4B34426  24.118  31.251   7.553
 2509POPC   NC334427  33.829  11.816   9.751
 2509POPC   PO434428  33.704  11.137   9.563
 2509POPC   GL134429  33.931  10.999   9.150
 2509POPC   GL234430  33.812  11.276   8.984
 2509POPC   C1A34431  34.032  10.986   8.644
 2509POPC   D2A34432  34.182  11.236   8.241
 2509POPC   C3A34433  33.915  11.241   7.901
 2509POPC   C4A34434  33.502  11.151   7.780
 2509POPC   C1B34435  33.549  11.537   8.704
 2509POPC   C2B34436  33.611  11.427   8.263
 2509POPC   C3B34437  33.594  11.645   7.852
 2509POPC   C4B34438  33.662  11.483   7.409
 2510POPC   NC334439  27.082  21.993   9.507
 2510POPC   PO434440  26.662  22.454   9.588
 2510POPC   GL134441  26.718  22.342   9.175
 2510POPC   GL234442  26.792  21.985   9.098
 2510POPC   C1A34443  26.603  22.473   8.768
 2510POPC   D2A34444  26.558  22.690   8.375
 2510POPC   C3A34445  26.604  22.431   8.014
 2510POPC   C4A34446  26.950  22.396   7.726
 2510POPC   C1B34447  27.029  22.200   8.790
 2510POPC   C2B34448  26.914  22.187   8.366
 2510POPC   C3B34449  27.217  22.017   8.085
 2510POPC   C4B34450  27.201  21.929   7.665
 2511POPC   NC334451  14.403  15.572   9.717
 2511POPC   PO434452  14.031  16.090   9.679
 2511POPC   GL134453  14.183  16.015   9.239
 2511POPC   GL234454  14.332  15.730   9.138
 2511POPC   C1A34455  14.348  16.127   8.810
 2511POPC   D2A34456  14.130  16.324   8.500
 2511POPC   C3A34457  14.156  16.107   8.108
 2511POPC   C4A34458  14.428  16.070   7.774
 2511POPC   C1B34459  14.614  15.668   8.743
 2511POPC   C2B34460  14.648  15.792   8.321
 2511POPC   C3B34461  14.730  15.679   7.901
 2511POPC   C4B34462  14.583  15.705   7.446
 2512POPC   NC334463  12.484  38.751   9.378
 2512POPC   PO434464  12.099  38.410   9.791
 2512POPC   GL134465  12.084  38.445   9.349
 2512POPC   GL234466  11.984  38.798   9.356
 2512POPC   C1A34467  12.022  38.311   8.899
 2512POPC   D2A34468  12.133  38.084   8.517
 2512POPC   C3A34469  12.168  38.277   8.120
 2512POPC   C4A34470  11.848  38.391   7.833
 2512POPC   C1B34471  11.995  38.830   8.901
 2512POPC   C2B34472  11.927  38.637   8.496
 2512POPC   C3B34473  12.040  38.775   8.107
 2512POPC   C4B34474  12.313  38.682   7.728
 2513POPC   NC334475  32.451   4.758   9.463
 2513POPC   PO434476  31.993   5.312   9.340
 2513POPC   GL134477  32.343   5.134   9.141
 2513POPC   GL234478  32.619   5.355   9.144
 2513POPC   C1A34479  32.504   4.906   8.779
 2513POPC   D2A34480  32.299   4.622   8.472
 2513POPC   C3A34481  32.178   4.874   8.096
 2513POPC   C4A34482  32.392   4.974   7.742
 2513POPC   C1B34483  32.405   5.427   8.735
 2513POPC   C2B34484  32.502   5.257   8.336
 2513POPC   C3B34485  32.409   5.433   7.954
 2513POPC   C4B34486  32.027   5.326   7.785
 2514POPC   NC334487   8.810   7.950   9.409
 2514POPC   PO434488   9.210   8.528   9.491
 2514POPC   GL134489   9.045   8.329   9.154
 2514POPC   GL234490   9.248   8.015   9.170
 2514POPC   C1A34491   8.851   8.171   8.787
 2514POPC   D2A34492   9.004   8.185   8.381
 2514POPC   C3A34493   8.768   8.194   8.010
 2514POPC   C4A34494   8.759   8.543   7.722
 2514POPC   C1B34495   9.366   8.066   8.749
 2514POPC   C2B34496   9.390   7.854   8.327
 2514POPC   C3B34497   9.333   8.126   7.971
 2514POPC   C4B34498   9.238   8.230   7.522
 2515POPC   NC334499  30.196  44.800   9.541
 2515POPC   PO434500  29.584  44.706   9.238
 2515POPC   GL134501  29.995  44.606   9.084
 2515POPC   GL234502  30.254  44.880   9.052
 2515POPC   C1A34503  29.957  44.378   8.704
 2515POPC   D2A34504  30.201  44.386   8.348
 2515POPC   C3A34505  30.096  44.671   8.055
 2515POPC   C4A34506  29.816  44.548   7.718
 2515POPC   C1B34507  30.109  44.871   8.630
 2515POPC   C2B34508  29.699  44.856   8.463
 2515POPC   C3B34509  29.647  44.902   8.033
 2515POPC   C4B34510  29.905   0.048   7.674
 2516POPC   NC334511  17.177  25.257   9.529
 2516POPC   PO434512  16.467  25.344   9.578
 2516POPC   GL134513  16.602  25.355   9.160
 2516POPC   GL234514  16.936  25.497   9.153
 2516POPC   C1A34515  16.751  25.226   8.760
 2516POPC   D2A34516  16.656  25.041   8.391
 2516POPC   C3A34517  16.496  25.282   8.105
 2516POPC   C4A34518  16.625  25.320   7.700
 2516POPC   C1B34519  17.139  25.559   8.785
 2516POPC   C2B34520  17.123  25.336   8.389
 2516POPC   C3B34521  17.312  25.421   7.977
 2516POPC   C4B34522  17.120  25.412   7.580
 2517POPC   NC334523  22.361  28.822   9.653
 2517POPC   PO434524  21.951  28.336   9.461
 2517POPC   GL134525  22.176  28.313   9.094
 2517POPC   GL234526  22.290  28.648   9.176
 2517POPC   C1A34527  22.052  28.105   8.701
 2517POPC   D2A34528  21.883  27.988   8.295
 2517POPC   C3A34529  22.059  28.139   7.909
 2517POPC   C4A34530  22.091  27.937   7.448
 2517POPC   C1B34531  22.063  28.709   8.782
 2517POPC   C2B34532  21.991  28.529   8.367
 2517POPC   C3B34533  21.932  28.673   7.959
 2517POPC   C4B34534  22.236  28.657   7.688
 2518POPC   NC334535  11.644  23.906   9.330
 2518POPC   PO434536  11.318  23.335   9.537
 2518POPC   GL134537  11.215  23.669   9.185
 2518POPC   GL234538  11.018  23.962   9.222
 2518POPC   C1A34539  11.304  23.899   8.781
 2518POPC   D2A34540  11.558  24.052   8.483
 2518POPC   C3A34541  11.529  23.843   8.115
 2518POPC   C4A34542  11.430  23.585   7.790
 2518POPC   C1B34543  10.818  23.992   8.776
 2518POPC   C2B34544  10.962  23.910   8.332
 2518POPC   C3B34545  11.044  23.906   7.887
 2518POPC   C4B34546  11.197  24.013   7.466
 2519POPC   NC334547  16.063  13.466   9.847
 2519POPC   PO434548  16.232  14.034   9.570
 2519POPC   GL134549  15.930  13.823   9.299
 2519POPC   GL234550  16.188  13.572   9.231
 2519POPC   C1A34551  15.690  13.909   8.889
 2519POPC   D2A34552  15.713  13.810   8.448
 2519POPC   C3A34553  15.666  13.825   8.003
 2519POPC   C4A34554  15.918  13.721   7.639
 2519POPC   C1B34555  16.087  13.580   8.784
 2519POPC   C2B34556  16.214  13.640   8.346
 2519POPC   C3B34557  16.164  13.428   7.956
 2519POPC   C4B34558  16.363  13.487   7.543
 2520POPC   NC334559  31.575   4.528   9.581
 2520POPC   PO434560  31.656   3.905   9.653
 2520POPC   GL134561  31.362   4.124   9.302
 2520POPC   GL234562  31.609   4.318   9.122
 2520POPC   C1A34563  31.222   4.247   8.838
 2520POPC   D2A34564  31.433   4.205   8.439
 2520POPC   C3A34565  31.217   4.323   8.103
 2520POPC   C4A34566  31.355   4.295   7.721
 2520POPC   C1B34567  31.581   4.598   8.744
 2520POPC   C2B34568  31.769   4.620   8.327
 2520POPC   C3B34569  31.694   4.703   7.868
 2520POPC   C4B34570  31.929   4.891   7.510
 2521POPC   NC334571  43.016  34.937   9.503
 2521POPC   PO434572  43.344  34.381   9.385
 2521POPC   GL134573  43.033  34.484   9.040
 2521POPC   GL234574  42.773  34.222   9.019
 2521POPC   C1A34575  43.128  34.607   8.586
 2521POPC   D2A34576  43.217  34.341   8.211
 2521POPC   C3A34577  43.297  34.488   7.765
 2521POPC   C4A34578  43.559  34.635   7.406
 2521POPC   C1B34579  42.654  34.473   8.657
 2521POPC   C2B34580  42.746  34.521   8.219
 2521POPC   C3B34581  42.806  34.346   7.840
 2521POPC   C4B34582  42.875  34.676   7.523
 2522POPC   NC334583  43.416   3.068   9.332
 2522POPC   PO434584  42.985   2.621   9.607
 2522POPC   GL134585  43.215   2.563   9.212
 2522POPC   GL234586  42.981   2.800   9.110
 2522POPC   C1A34587  43.317   2.720   8.750
 2522POPC   D2A34588  43.051   2.874   8.440
 2522POPC   C3A34589  43.170   2.761   8.019
 2522POPC   C4A34590  43.593   2.710   7.948
 2522POPC   C1B34591  42.877   3.156   8.857
 2522POPC   C2B34592  42.747   3.287   8.466
 2522POPC   C3B34593  42.726   3.024   8.094
 2522POPC   C4B34594  42.904   3.099   7.718
 2523POPC   NC334595  12.846  28.603   9.460
 2523POPC   PO434596  12.098  28.395   9.526
 2523POPC   GL134597  12.058  28.494   9.135
 2523POPC   GL234598  12.369  28.625   9.149
 2523POPC   C1A34599  11.940  28.383   8.730
 2523POPC   D2A34600  12.119  28.353   8.319
 2523POPC   C3A34601  11.915  28.322   7.916
 2523POPC   C4A34602  12.072  28.294   7.489
 2523POPC   C1B34603  12.328  28.719   8.728
 2523POPC   C2B34604  12.545  28.654   8.361
 2523POPC   C3B34605  12.368  28.635   7.977
 2523POPC   C4B34606  12.444  28.606   7.576
 2524POPC   NC334607  29.480   0.159   9.349
 2524POPC   PO434608  30.022   0.579   9.449
 2524POPC   GL134609  29.895   0.474   9.049
 2524POPC   GL234610  29.565   0.569   9.020
 2524POPC   C1A34611  30.112   0.389   8.647
 2524POPC   D2A34612  29.982   0.229   8.247
 2524POPC   C3A34613  30.130   0.435   7.904
 2524POPC   C4A34614  30.070   0.552   7.469
 2524POPC   C1B34615  29.606   0.414   8.612
 2524POPC   C2B34616  29.599   0.601   8.231
 2524POPC   C3B34617  29.558   0.387   7.854
 2524POPC   C4B34618  29.343  44.998   7.648
 2525POPC   NC334619  37.258  14.775   9.486
 2525POPC   PO434620  36.720  15.087   9.564
 2525POPC   GL134621  36.962  15.168   9.156
 2525POPC   GL234622  37.038  15.528   9.080
 2525POPC   C1A34623  36.761  15.244   8.729
 2525POPC   D2A34624  36.779  15.010   8.333
 2525POPC   C3A34625  36.729  15.204   7.932
 2525POPC   C4A34626  36.687  15.378   7.516
 2525POPC   C1B34627  37.249  15.317   8.717
 2525POPC   C2B34628  37.302  15.113   8.325
 2525POPC   C3B34629  37.238  15.279   7.896
 2525POPC   C4B34630  37.074  15.071   7.526
 2526POPC   NC334631  28.895  20.416   9.420
 2526POPC   PO434632  29.535  20.404   9.503
 2526POPC   GL134633  29.293  20.354   9.098
 2526POPC   GL234634  29.046  20.588   8.974
 2526POPC   C1A34635  29.443  20.390   8.681
 2526POPC   D2A34636  29.555  20.395   8.259
 2526POPC   C3A34637  29.240  20.510   8.005
 2526POPC   C4A34638  29.387  20.649   7.680
 2526POPC   C1B34639  28.850  20.886   8.719
 2526POPC   C2B34640  28.601  20.892   8.390
 2526POPC   C3B34641  28.826  20.987   8.028
 2526POPC   C4B34642  28.896  20.760   7.660
 2527POPC   NC334643  15.418  32.084   9.606
 2527POPC   PO434644  14.933  32.541   9.480
 2527POPC   GL134645  15.192  32.297   9.186
 2527POPC   GL234646  15.137  31.916   9.200
 2527POPC   C1A34647  15.198  32.345   8.751
 2527POPC   D2A34648  14.983  32.309   8.374
 2527POPC   C3A34649  15.183  32.536   8.078
 2527POPC   C4A34650  15.124  32.433   7.662
 2527POPC   C1B34651  15.477  31.923   8.881
 2527POPC   C2B34652  15.488  32.047   8.435
 2527POPC   C3B34653  15.301  32.020   8.019
 2527POPC   C4B34654  15.564  31.847   7.699
 2528POPC   NC334655  37.198  10.686   9.439
 2528POPC   PO434656  36.632  10.384   9.464
 2528POPC   GL134657  36.833  10.485   9.116
 2528POPC   GL234658  36.642  10.763   9.006
 2528POPC   C1A34659  36.756  10.352   8.694
 2528POPC   D2A34660  36.618  10.396   8.259
 2528POPC   C3A34661  36.861  10.281   7.917
 2528POPC   C4A34662  37.155  10.547   7.684
 2528POPC   C1B34663  37.031  10.833   8.768
 2528POPC   C2B34664  37.146  11.000   8.360
 2528POPC   C3B34665  36.904  10.836   8.008
 2528POPC   C4B34666  36.769  11.009   7.592
 2529POPC   NC334667  26.308  30.361   9.623
 2529POPC   PO434668  25.883  29.727   9.581
 2529POPC   GL134669  25.812  29.639   9.145
 2529POPC   GL234670  26.139  29.616   8.936
 2529POPC   C1A34671  25.664  29.656   8.719
 2529POPC   D2A34672  25.977  29.724   8.442
 2529POPC   C3A34673  25.885  29.787   8.061
 2529POPC   C4A34674  26.002  29.573   7.684
 2529POPC   C1B34675  26.103  30.057   8.818
 2529POPC   C2B34676  26.017  30.252   8.415
 2529POPC   C3B34677  26.191  30.278   8.022
 2529POPC   C4B34678  26.026  30.069   7.672
 2530POPC   NC334679   6.704  12.543   9.373
 2530POPC   PO434680   6.379  13.112   9.425
 2530POPC   GL134681   6.518  12.946   9.084
 2530POPC   GL234682   6.816  13.104   9.064
 2530POPC   C1A34683   6.533  12.873   8.665
 2530POPC   D2A34684   6.670  12.575   8.383
 2530POPC   C3A34685   6.468  12.681   8.026
 2530POPC   C4A34686   6.425  12.508   7.661
 2530POPC   C1B34687   7.038  12.884   8.709
 2530POPC   C2B34688   6.979  12.970   8.266
 2530POPC   C3B34689   6.954  12.774   7.855
 2530POPC   C4B34690   6.735  12.929   7.487
 2531POPC   NC334691  28.778  44.985   9.683
 2531POPC   PO434692  29.367  44.865   9.696
 2531POPC   GL134693  29.073  44.826   9.277
 2531POPC   GL234694  28.862   0.088   9.194
 2531POPC   C1A34695  29.076  44.611   8.839
 2531POPC   D2A34696  29.217  44.685   8.387
 2531POPC   C3A34697  29.337  44.492   7.959
 2531POPC   C4A34698  29.253  44.525   7.493
 2531POPC   C1B34699  28.712  44.969   8.799
 2531POPC   C2B34700  28.786   0.082   8.344
 2531POPC   C3B34701  28.938  44.830   7.987
 2531POPC   C4B34702  28.661  44.603   7.768
 2532POPC   NC334703   0.257   5.594   9.473
 2532POPC   PO434704   0.734   6.044   9.558
 2532POPC   GL134705   0.559   6.065   9.143
 2532POPC   GL234706   0.260   5.909   9.070
 2532POPC   C1A34707   0.615   5.852   8.733
 2532POPC   D2A34708   0.774   5.573   8.467
 2532POPC   C3A34709   0.845   5.682   8.025
 2532POPC   C4A34710   0.803   5.368   7.693
 2532POPC   C1B34711   0.100   5.849   8.671
 2532POPC   C2B34712   0.287   5.680   8.295
 2532POPC   C3B34713   0.332   5.661   7.840
 2532POPC   C4B34714   0.170   6.018   7.580
 2533POPC   NC334715  31.746  31.384   9.464
 2533POPC   PO434716  31.093  31.366   9.320
 2533POPC   GL134717  31.335  31.511   9.011
 2533POPC   GL234718  31.674  31.374   8.970
 2533POPC   C1A34719  31.308  31.321   8.612
 2533POPC   D2A34720  31.561  31.253   8.258
 2533POPC   C3A34721  31.247  31.218   7.910
 2533POPC   C4A34722  31.103  31.557   7.656
 2533POPC   C1B34723  32.002  31.266   8.673
 2533POPC   C2B34724  32.125  31.389   8.282
 2533POPC   C3B34725  31.848  31.650   8.078
 2533POPC   C4B34726  31.604  31.531   7.713
 2534POPC   NC334727   5.074   9.424   9.452
 2534POPC   PO434728   4.877  10.083   9.541
 2534POPC   GL134729   5.173   9.894   9.229
 2534POPC   GL234730   4.863   9.789   9.122
 2534POPC   C1A34731   5.256   9.727   8.786
 2534POPC   D2A34732   5.081   9.501   8.411
 2534POPC   C3A34733   5.320   9.574   8.050
 2534POPC   C4A34734   5.365   9.916   7.799
 2534POPC   C1B34735   4.729   9.568   8.803
 2534POPC   C2B34736   4.602   9.727   8.425
 2534POPC   C3B34737   4.838   9.837   8.058
 2534POPC   C4B34738   4.942   9.604   7.697
 2535POPC   NC334739   1.426  14.564   9.443
 2535POPC   PO434740   0.915  14.136   9.521
 2535POPC   GL134741   1.010  14.367   9.169
 2535POPC   GL234742   1.033  14.712   9.104
 2535POPC   C1A34743   1.136  14.340   8.754
 2535POPC   D2A34744   0.922  14.364   8.383
 2535POPC   C3A34745   1.154  14.138   8.095
 2535POPC   C4A34746   1.006  14.257   7.695
 2535POPC   C1B34747   1.372  14.801   8.822
 2535POPC   C2B34748   1.320  14.695   8.412
 2535POPC   C3B34749   1.172  14.620   8.005
 2535POPC   C4B34750   1.435  14.673   7.659
 2536POPC   NC334751   6.076   3.823   9.475
 2536POPC   PO434752   5.660   3.320   9.506
 2536POPC   GL134753   5.791   3.503   9.163
 2536POPC   GL234754   6.146   3.402   9.156
 2536POPC   C1A34755   5.568   3.545   8.800
 2536POPC   D2A34756   5.647   3.784   8.449
 2536POPC   C3A34757   5.794   3.567   8.094
 2536POPC   C4A34758   5.865   3.465   7.671
 2536POPC   C1B34759   6.024   3.329   8.734
 2536POPC   C2B34760   6.214   3.435   8.398
 2536POPC   C3B34761   6.278   3.291   8.045
 2536POPC   C4B34762   6.366   3.390   7.665
 2537POPC   NC334763  26.264  33.020   9.540
 2537POPC   PO434764  25.596  32.903   9.458
 2537POPC   GL134765  25.856  33.196   9.258
 2537POPC   GL234766  26.009  32.890   9.112
 2537POPC   C1A34767  26.153  33.328   8.912
 2537POPC   D2A34768  26.184  33.242   8.476
 2537POPC   C3A34769  26.397  33.393   8.082
 2537POPC   C4A34770  26.323  33.165   7.645
 2537POPC   C1B34771  26.380  32.886   8.847
 2537POPC   C2B34772  26.370  32.751   8.431
 2537POPC   C3B34773  26.281  32.520   8.045
 2537POPC   C4B34774  26.081  32.670   7.647
 2538POPC   NC334775  38.053  43.266   9.501
 2538POPC   PO434776  37.412  42.850   9.520
 2538POPC   GL134777  37.604  43.079   9.208
 2538POPC   GL234778  37.407  43.361   9.087
 2538POPC   C1A34779  37.805  43.067   8.813
 2538POPC   D2A34780  37.861  43.194   8.388
 2538POPC   C3A34781  37.616  43.322   8.052
 2538POPC   C4A34782  37.805  43.191   7.643
 2538POPC   C1B34783  37.363  43.282   8.638
 2538POPC   C2B34784  37.403  42.928   8.345
 2538POPC   C3B34785  37.202  42.926   7.945
 2538POPC   C4B34786  37.325  43.019   7.501
 2539POPC   NC334787   6.485  10.273   9.484
 2539POPC   PO434788   7.102  10.558   9.641
 2539POPC   GL134789   6.883  10.524   9.217
 2539POPC   GL234790   6.615  10.798   9.215
 2539POPC   C1A34791   6.783  10.326   8.796
 2539POPC   D2A34792   6.652  10.085   8.414
 2539POPC   C3A34793   6.579  10.236   8.015
 2539POPC   C4A34794   6.846  10.136   7.714
 2539POPC   C1B34795   6.669  10.838   8.764
 2539POPC   C2B34796   6.609  10.651   8.354
 2539POPC   C3B34797   6.673  10.791   7.924
 2539POPC   C4B34798   6.513  10.918   7.519
 2540POPC   NC334799  42.401  20.248   9.654
 2540POPC   PO434800  42.276  20.873   9.585
 2540POPC   GL134801  42.428  20.591   9.230
 2540POPC   GL234802  42.567  20.246   9.173
 2540POPC   C1A34803  42.325  20.521   8.807
 2540POPC   D2A34804  42.444  20.753   8.465
 2540POPC   C3A34805  42.385  20.593   8.076
 2540POPC   C4A34806  42.191  20.760   7.743
 2540POPC   C1B34807  42.786  20.303   8.787
 2540POPC   C2B34808  42.852  20.457   8.367
 2540POPC   C3B34809  42.755  20.285   7.950
 2540POPC   C4B34810  42.507  20.232   7.590
 2541POPC   NC334811  25.771   3.994   9.210
 2541POPC   PO434812  25.502   4.466   9.566
 2541POPC   GL134813  25.213   4.420   9.205
 2541POPC   GL234814  25.482   4.384   8.998
 2541POPC   C1A34815  24.917   4.267   8.836
 2541POPC   D2A34816  25.019   4.390   8.382
 2541POPC   C3A34817  24.860   4.304   7.994
 2541POPC   C4A34818  24.906   3.941   7.801
 2541POPC   C1B34819  25.383   4.116   8.668
 2541POPC   C2B34820  25.519   4.057   8.326
 2541POPC   C3B34821  25.409   3.967   7.928
 2541POPC   C4B34822  25.540   4.246   7.623
 2542POPC   NC334823  39.673  10.378   9.469
 2542POPC   PO434824  40.184  10.848   9.541
 2542POPC   GL134825  40.000  10.658   9.182
 2542POPC   GL234826  39.722  10.847   9.084
 2542POPC   C1A34827  40.154  10.370   8.862
 2542POPC   D2A34828  40.371  10.519   8.497
 2542POPC   C3A34829  40.344  10.409   8.077
 2542POPC   C4A34830  40.051  10.432   7.749
 2542POPC   C1B34831  39.640  10.458   8.821
 2542POPC   C2B34832  39.852  10.309   8.447
 2542POPC   C3B34833  39.670  10.308   8.028
 2542POPC   C4B34834  39.573  10.415   7.609
 2543POPC   NC334835  37.707   3.506   9.754
 2543POPC   PO434836  37.410   3.142   9.268
 2543POPC   GL134837  37.691   3.310   8.974
 2543POPC   GL234838  37.782   3.609   9.209
 2543POPC   C1A34839  37.721   3.258   8.516
 2543POPC   D2A34840  37.536   3.519   8.176
 2543POPC   C3A34841  37.557   3.365   7.747
 2543POPC   C4A34842  37.610   3.186   7.320
 2543POPC   C1B34843  37.851   3.750   8.770
 2543POPC   C2B34844  38.035   3.667   8.369
 2543POPC   C3B34845  38.004   3.574   7.957
 2543POPC   C4B34846  37.771   3.840   7.689
 2544POPC   NC334847   1.097  17.678   9.645
 2544POPC   PO434848   1.077  17.002   9.576
 2544POPC   GL134849   1.117  17.352   9.257
 2544POPC   GL234850   1.464  17.542   9.219
 2544POPC   C1A34851   1.144  17.467   8.828
 2544POPC   D2A34852   1.399  17.557   8.477
 2544POPC   C3A34853   1.177  17.448   8.116
 2544POPC   C4A34854   1.058  17.477   7.696
 2544POPC   C1B34855   1.518  17.862   8.863
 2544POPC   C2B34856   1.690  17.989   8.465
 2544POPC   C3B34857   1.710  17.766   8.059
 2544POPC   C4B34858   1.437  17.814   7.697
 2545POPC   NC334859   6.713  24.044   9.469
 2545POPC   PO434860   6.542  24.744   9.465
 2545POPC   GL134861   6.623  24.449   9.120
 2545POPC   GL234862   6.929  24.352   9.126
 2545POPC   C1A34863   6.432  24.440   8.708
 2545POPC   D2A34864   6.196  24.585   8.368
 2545POPC   C3A34865   6.319  24.392   8.008
 2545POPC   C4A34866   6.391  24.528   7.616
 2545POPC   C1B34867   6.924  24.582   8.722
 2545POPC   C2B34868   6.724  24.639   8.311
 2545POPC   C3B34869   6.818  24.523   7.884
 2545POPC   C4B34870   7.028  24.298   7.572
 2546POPC   NC334871  34.313  21.138   9.344
 2546POPC   PO434872  34.857  21.579   9.382
 2546POPC   GL134873  34.805  21.527   8.984
 2546POPC   GL234874  34.713  21.193   9.024
 2546POPC   C1A34875  34.477  21.517   8.670
 2546POPC   D2A34876  34.203  21.764   8.399
 2546POPC   C3A34877  34.340  21.614   8.016
 2546POPC   C4A34878  34.360  21.223   7.894
 2546POPC   C1B34879  34.984  21.183   8.662
 2546POPC   C2B34880  35.066  21.380   8.290
 2546POPC   C3B34881  34.886  21.404   7.888
 2546POPC   C4B34882  34.778  21.114   7.612
 2547POPC   NC334883  33.591  42.845   9.475
 2547POPC   PO434884  33.851  42.183   9.416
 2547POPC   GL134885  33.918  42.527   9.097
 2547POPC   GL234886  33.692  42.791   8.978
 2547POPC   C1A34887  33.935  42.321   8.709
 2547POPC   D2A34888  33.943  42.019   8.417
 2547POPC   C3A34889  33.868  42.115   7.976
 2547POPC   C4A34890  33.639  41.912   7.637
 2547POPC   C1B34891  33.964  42.800   8.611
 2547POPC   C2B34892  33.943  42.574   8.246
 2547POPC   C3B34893  34.081  42.564   7.837
 2547POPC   C4B34894  33.912  42.345   7.464
 2548POPC   NC334895  38.711  36.429   9.491
 2548POPC   PO434896  38.348  35.896   9.545
 2548POPC   GL134897  38.389  36.069   9.156
 2548POPC   GL234898  38.711  35.897   9.076
 2548POPC   C1A34899  38.250  36.211   8.755
 2548POPC   D2A34900  38.141  35.973   8.387
 2548POPC   C3A34901  38.414  36.039   8.039
 2548POPC   C4A34902  38.333  36.434   7.841
 2548POPC   C1B34903  38.723  36.048   8.633
 2548POPC   C2B34904  38.613  36.400   8.365
 2548POPC   C3B34905  38.823  36.492   7.971
 2548POPC   C4B34906  38.844  36.259   7.565
 2549POPC   NC334907  41.208  39.673   9.419
 2549POPC   PO434908  40.558  39.909   9.504
 2549POPC   GL134909  40.636  40.108   9.116
 2549POPC   GL234910  40.985  40.057   9.092
 2549POPC   C1A34911  40.731  40.036   8.646
 2549POPC   D2A34912  41.054  39.830   8.408
 2549POPC   C3A34913  40.941  39.676   7.972
 2549POPC   C4A34914  40.724  39.877   7.611
 2549POPC   C1B34915  41.219  40.205   8.736
 2549POPC   C2B34916  41.207  40.298   8.318
 2549POPC   C3B34917  41.007  40.202   7.939
 2549POPC   C4B34918  41.089  40.217   7.495
 2550POPC   NC334919   7.622   7.387   9.441
 2550POPC   PO434920   7.497   6.785   9.329
 2550POPC   GL134921   7.276   7.137   9.091
 2550POPC   GL234922   7.169   7.498   9.136
 2550POPC   C1A34923   7.480   7.399   8.744
 2550POPC   D2A34924   7.311   7.458   8.337
 2550POPC   C3A34925   7.517   7.317   7.988
 2550POPC   C4A34926   7.798   7.544   7.748
 2550POPC   C1B34927   7.107   7.759   8.746
 2550POPC   C2B34928   7.325   7.960   8.390
 2550POPC   C3B34929   7.293   7.819   7.952
 2550POPC   C4B34930   7.073   7.527   7.723
 2551POPC   NC334931  33.647  11.561   9.364
 2551POPC   PO434932  33.917  12.237   9.571
 2551POPC   GL134933  33.769  12.051   9.133
 2551POPC   GL234934  33.953  11.762   9.001
 2551POPC   C1A34935  33.922  12.087   8.639
 2551POPC   D2A34936  34.007  12.262   8.235
 2551POPC   C3A34937  33.833  12.139   7.844
 2551POPC   C4A34938  34.019  12.343   7.472
 2551POPC   C1B34939  34.032  11.584   8.584
 2551POPC   C2B34940  34.011  11.729   8.137
 2551POPC   C3B34941  34.055  11.681   7.660
 2551POPC   C4B34942  34.114  11.879   7.282
 2552POPC   NC334943   7.139   9.959   9.532
 2552POPC   PO434944   6.513   9.805   9.509
 2552POPC   GL134945   6.830   9.726   9.185
 2552POPC   GL234946   7.057   9.446   9.272
 2552POPC   C1A34947   6.682   9.726   8.768
 2552POPC   D2A34948   6.386   9.548   8.440
 2552POPC   C3A34949   6.230   9.853   8.156
 2552POPC   C4A34950   6.205   9.984   7.722
 2552POPC   C1B34951   7.125   9.486   8.827
 2552POPC   C2B34952   6.880   9.387   8.446
 2552POPC   C3B34953   6.876   9.596   8.040
 2552POPC   C4B34954   6.579   9.668   7.768
 2553POPC   NC334955  30.548  12.157   9.459
 2553POPC   PO434956  30.934  11.767   9.717
 2553POPC   GL134957  30.960  11.988   9.224
 2553POPC   GL234958  30.633  11.815   9.095
 2553POPC   C1A34959  30.933  11.918   8.723
 2553POPC   D2A34960  30.763  11.764   8.354
 2553POPC   C3A34961  30.895  12.065   8.070
 2553POPC   C4A34962  30.981  12.081   7.630
 2553POPC   C1B34963  30.408  11.935   8.702
 2553POPC   C2B34964  30.431  12.136   8.286
 2553POPC   C3B34965  30.472  12.017   7.830
 2553POPC   C4B34966  30.197  11.851   7.533
 2554POPC   NC334967  19.537   0.572   9.708
 2554POPC   PO434968  19.980   0.109   9.423
 2554POPC   GL134969  19.768   0.398   9.180
 2554POPC   GL234970  19.944   0.700   9.244
 2554POPC   C1A34971  19.702   0.354   8.735
 2554POPC   D2A34972  19.886   0.095   8.390
 2554POPC   C3A34973  19.769   0.326   8.043
 2554POPC   C4A34974  19.783   0.409   7.637
 2554POPC   C1B34975  19.902   0.825   8.791
 2554POPC   C2B34976  19.724   0.798   8.345
 2554POPC   C3B34977  19.907   0.831   7.893
 2554POPC   C4B34978  19.815   0.888   7.414
 2555POPC   NC334979   3.159   7.020   9.353
 2555POPC   PO434980   3.544   7.512   9.565
 2555POPC   GL134981   3.533   7.356   9.179
 2555POPC   GL234982   3.205   7.522   9.169
 2555POPC   C1A34983   3.710   7.481   8.776
 2555POPC   D2A34984   3.556   7.458   8.370
 2555POPC   C3A34985   3.916   7.473   8.086
 2555POPC   C4A34986   3.591   7.583   7.806
 2555POPC   C1B34987   3.214   7.278   8.774
 2555POPC   C2B34988   3.054   7.254   8.394
 2555POPC   C3B34989   3.172   7.145   7.986
 2555POPC   C4B34990   3.171   7.380   7.605
 2556POPC   NC334991  40.901  22.619   9.496
 2556POPC   PO434992  40.723  23.208   9.355
 2556POPC   GL134993  40.859  22.904   9.071
 2556POPC   GL234994  40.617  22.622   9.088
 2556POPC   C1A34995  40.932  22.929   8.656
 2556POPC   D2A34996  40.719  22.977   8.286
 2556POPC   C3A34997  41.029  22.972   7.986
 2556POPC   C4A34998  41.138  23.271   7.659
 2556POPC   C1B34999  40.448  22.783   8.713
 2556POPC   C2B35000  40.302  22.675   8.302
 2556POPC   C3B35001  40.534  22.679   7.888
 2556POPC   C4B35002  40.477  22.761   7.373
 2557POPC   NC335003  43.718   5.473   9.588
 2557POPC   PO435004  44.203   5.937   9.526
 2557POPC   GL135005  43.850   5.880   9.260
 2557POPC   GL235006  43.918   5.580   9.149
 2557POPC   C1A35007  43.706   5.981   8.855
 2557POPC   D2A35008  43.936   6.084   8.499
 2557POPC   C3A35009  43.816   5.813   8.164
 2557POPC   C4A35010  43.637   5.965   7.787
 2557POPC   C1B35011  44.214   5.746   8.871
 2557POPC   C2B35012  44.271   5.702   8.448
 2557POPC   C3B35013  44.345   5.871   8.068
 2557POPC   C4B35014  44.101   5.761   7.743
 2558POPC   NC335015   2.351  44.504   9.585
 2558POPC   PO435016   1.858  44.982   9.555
 2558POPC   GL135017   2.033  44.696   9.244
 2558POPC   GL235018   2.306  44.866   9.186
 2558POPC   C1A35019   2.237  44.509   8.845
 2558POPC   D2A35020   2.039  44.290   8.499
 2558POPC   C3A35021   2.173  44.300   8.070
 2558POPC   C4A35022   1.991  44.386   7.692
 2558POPC   C1B35023   2.253   0.032   8.783
 2558POPC   C2B35024   2.200  44.820   8.414
 2558POPC   C3B35025   2.032  44.812   7.995
 2558POPC   C4B35026   2.043  44.877   7.547
 2559POPC   NC335027  40.692  38.817   9.459
 2559POPC   PO435028  41.020  38.226   9.474
 2559POPC   GL135029  40.785  38.113   9.137
 2559POPC   GL235030  40.641  38.410   9.165
 2559POPC   C1A35031  40.851  38.220   8.708
 2559POPC   D2A35032  41.090  38.420   8.384
 2559POPC   C3A35033  41.008  38.251   7.966
 2559POPC   C4A35034  40.678  38.319   7.693
 2559POPC   C1B35035  40.732  38.709   8.823
 2559POPC   C2B35036  40.595  38.615   8.429
 2559POPC   C3B35037  40.749  38.682   8.036
 2559POPC   C4B35038  40.573  38.848   7.686
 2560POPC   NC335039   0.814  18.965   9.458
 2560POPC   PO435040   1.470  18.872   9.566
 2560POPC   GL135041   1.250  18.913   9.188
 2560POPC   GL235042   1.028  18.625   9.123
 2560POPC   C1A35043   1.059  19.170   8.848
 2560POPC   D2A35044   0.989  19.364   8.438
 2560POPC   C3A35045   1.160  19.246   8.015
 2560POPC   C4A35046   1.605  19.245   7.858
 2560POPC   C1B35047   0.896  18.701   8.682
 2560POPC   C2B35048   0.860  18.823   8.221
 2560POPC   C3B35049   0.942  18.840   7.758
 2560POPC   C4B35050   0.677  18.914   7.374
 2561POPC   NC335051  14.849  14.023   9.434
 2561POPC   PO435052  14.329  13.573   9.435
 2561POPC   GL135053  14.499  13.774   9.128
 2561POPC   GL235054  14.253  14.004   9.138
 2561POPC   C1A35055  14.638  13.670   8.736
 2561POPC   D2A35056  14.647  13.378   8.406
 2561POPC   C3A35057  14.678  13.575   8.012
 2561POPC   C4A35058  14.609  13.362   7.656
 2561POPC   C1B35059  14.169  13.885   8.739
 2561POPC   C2B35060  14.307  13.817   8.324
 2561POPC   C3B35061  14.118  13.962   7.924
 2561POPC   C4B35062  14.411  13.848   7.631
 2562POPC   NC335063  42.803  11.065   9.444
 2562POPC   PO435064  43.319  11.563   9.439
 2562POPC   GL135065  43.041  11.420   9.157
 2562POPC   GL235066  43.222  11.103   9.169
 2562POPC   C1A35067  42.987  11.329   8.731
 2562POPC   D2A35068  43.181  11.416   8.330
 2562POPC   C3A35069  43.095  11.388   7.890
 2562POPC   C4A35070  43.445  11.490   7.635
 2562POPC   C1B35071  43.299  10.926   8.796
 2562POPC   C2B35072  43.516  11.045   8.441
 2562POPC   C3B35073  43.531  11.122   8.016
 2562POPC   C4B35074  43.367  10.984   7.636
 2563POPC   NC335075  20.157  11.732   9.430
 2563POPC   PO435076  19.635  12.159   9.505
 2563POPC   GL135077  19.862  12.108   9.150
 2563POPC   GL235078  19.786  11.764   9.036
 2563POPC   C1A35079  19.697  12.227   8.735
 2563POPC   D2A35080  19.834  12.449   8.381
 2563POPC   C3A35081  19.779  12.214   8.023
 2563POPC   C4A35082  19.867  12.236   7.623
 2563POPC   C1B35083  20.093  11.910   8.741
 2563POPC   C2B35084  20.175  12.068   8.330
 2563POPC   C3B35085  20.163  11.881   7.949
 2563POPC   C4B35086  19.965  11.666   7.639
 2564POPC   NC335087  26.936  27.861   9.670
 2564POPC   PO435088  26.496  27.414   9.496
 2564POPC   GL135089  26.729  27.559   9.168
 2564POPC   GL235090  27.057  27.703   9.210
 2564POPC   C1A35091  26.587  27.694   8.769
 2564POPC   D2A35092  26.581  27.927   8.395
 2564POPC   C3A35093  26.631  27.721   7.991
 2564POPC   C4A35094  26.869  27.807   7.618
 2564POPC   C1B35095  27.092  27.601   8.782
 2564POPC   C2B35096  27.105  27.862   8.428
 2564POPC   C3B35097  27.196  27.778   8.010
 2564POPC   C4B35098  27.113  27.395   7.790
 2565POPC   NC335099  41.458   6.910   9.551
 2565POPC   PO435100  41.523   6.207   9.645
 2565POPC   GL135101  41.362   6.451   9.289
 2565POPC   GL235102  41.651   6.661   9.155
 2565POPC   C1A35103  41.254   6.514   8.860
 2565POPC   D2A35104  41.438   6.444   8.485
 2565POPC   C3A35105  41.390   6.526   8.046
 2565POPC   C4A35106  41.518   6.672   7.643
 2565POPC   C1B35107  41.681   6.797   8.750
 2565POPC   C2B35108  41.892   6.656   8.371
 2565POPC   C3B35109  41.920   6.701   7.949
 2565POPC   C4B35110  41.886   6.997   7.597
 2566POPC   NC335111   1.377  26.248   9.601
 2566POPC   PO435112   0.856  25.854   9.511
 2566POPC   GL135113   1.109  25.947   9.144
 2566POPC   GL235114   1.440  26.122   9.134
 2566POPC   C1A35115   0.932  25.883   8.725
 2566POPC   D2A35116   0.898  25.736   8.310
 2566POPC   C3A35117   0.956  26.000   7.960
 2566POPC   C4A35118   0.963  25.800   7.558
 2566POPC   C1B35119   1.207  26.315   8.779
 2566POPC   C2B35120   1.266  26.127   8.368
 2566POPC   C3B35121   1.412  26.247   7.949
 2566POPC   C4B35122   1.174  26.283   7.580
 2567POPC   NC335123  33.751  34.475   9.657
 2567POPC   PO435124  33.976  35.130   9.692
 2567POPC   GL135125  33.774  34.823   9.279
 2567POPC   GL235126  33.738  34.404   9.167
 2567POPC   C1A35127  33.674  34.746   8.804
 2567POPC   D2A35128  33.810  34.566   8.386
 2567POPC   C3A35129  33.851  34.735   7.966
 2567POPC   C4A35130  33.983  34.644   7.551
 2567POPC   C1B35131  33.378  34.332   8.868
 2567POPC   C2B35132  33.291  34.482   8.440
 2567POPC   C3B35133  33.443  34.382   8.032
 2567POPC   C4B35134  33.380  34.277   7.578
 2568POPC   NC335135  19.028   7.668   9.392
 2568POPC   PO435136  18.546   7.237   9.512
 2568POPC   GL135137  18.808   7.293   9.133
 2568POPC   GL235138  19.191   7.227   9.149
 2568POPC   C1A35139  18.871   7.237   8.692
 2568POPC   D2A35140  19.150   7.304   8.325
 2568POPC   C3A35141  18.985   7.372   7.911
 2568POPC   C4A35142  18.923   7.801   7.740
 2568POPC   C1B35143  19.321   7.503   8.786
 2568POPC   C2B35144  19.395   7.788   8.453
 2568POPC   C3B35145  19.334   7.717   8.028
 2568POPC   C4B35146  19.464   7.454   7.694
 2569POPC   NC335147  20.115  33.476   9.368
 2569POPC   PO435148  19.691  33.938   9.329
 2569POPC   GL135149  19.996  33.845   9.035
 2569POPC   GL235150  20.236  34.035   9.255
 2569POPC   C1A35151  19.910  33.841   8.585
 2569POPC   D2A35152  19.564  33.677   8.289
 2569POPC   C3A35153  19.655  33.882   7.901
 2569POPC   C4A35154  19.891  33.698   7.546
 2569POPC   C1B35155  20.049  34.324   8.909
 2569POPC   C2B35156  19.985  34.405   8.466
 2569POPC   C3B35157  20.162  34.432   8.052
 2569POPC   C4B35158  20.104  34.156   7.697
 2570POPC   NC335159  35.240  27.495   9.486
 2570POPC   PO435160  35.904  27.169   9.605
 2570POPC   GL135161  35.651  27.369   9.190
 2570POPC   GL235162  35.557  27.750   9.198
 2570POPC   C1A35163  35.367  27.553   8.782
 2570POPC   D2A35164  35.198  27.717   8.334
 2570POPC   C3A35165  35.183  27.466   7.937
 2570POPC   C4A35166  34.976  27.543   7.524
 2570POPC   C1B35167  35.695  27.962   8.813
 2570POPC   C2B35168  35.586  28.082   8.411
 2570POPC   C3B35169  35.559  27.943   7.995
 2570POPC   C4B35170  35.657  28.156   7.604
 2571POPC   NC335171   2.513   8.296   9.488
 2571POPC   PO435172   3.003   7.847   9.592
 2571POPC   GL135173   3.059   8.030   9.157
 2571POPC   GL235174   2.877   8.365   9.133
 2571POPC   C1A35175   2.878   8.076   8.716
 2571POPC   D2A35176   2.442   8.029   8.530
 2571POPC   C3A35177   2.426   7.969   8.089
 2571POPC   C4A35178   2.513   8.070   7.674
 2571POPC   C1B35179   2.696   8.531   8.734
 2571POPC   C2B35180   2.745   8.378   8.293
 2571POPC   C3B35181   2.874   8.369   7.854
 2571POPC   C4B35182   3.232   8.483   7.610
 2572POPC   NC335183  40.162  44.314   9.475
 2572POPC   PO435184  39.565  44.608   9.499
 2572POPC   GL135185  39.898  44.630   9.168
 2572POPC   GL235186  39.905  44.312   9.013
 2572POPC   C1A35187  40.053  44.892   8.808
 2572POPC   D2A35188  40.104  44.993   8.340
 2572POPC   C3A35189  39.895  44.825   7.946
 2572POPC   C4A35190  39.805  44.401   7.845
 2572POPC   C1B35191  40.114  44.408   8.627
 2572POPC   C2B35192  40.194  44.480   8.200
 2572POPC   C3B35193  40.406  44.802   7.977
 2572POPC   C4B35194  40.290  44.995   7.605
 2573POPC   NC335195  32.073   7.493   9.519
 2573POPC   PO435196  32.496   6.865   9.565
 2573POPC   GL135197  32.478   7.295   9.174
 2573POPC   GL235198  32.277   7.638   9.075
 2573POPC   C1A35199  32.335   7.281   8.757
 2573POPC   D2A35200  32.445   7.277   8.386
 2573POPC   C3A35201  32.128   7.313   8.120
 2573POPC   C4A35202  32.273   7.198   7.763
 2573POPC   C1B35203  32.416   7.800   8.658
 2573POPC   C2B35204  32.369   7.759   8.204
 2573POPC   C3B35205  32.245   7.747   7.767
 2573POPC   C4B35206  32.288   7.849   7.299
 2574POPC   NC335207  34.131   8.660   9.532
 2574POPC   PO435208  33.656   9.153   9.402
 2574POPC   GL135209  33.817   8.840   9.171
 2574POPC   GL235210  33.630   8.545   9.301
 2574POPC   C1A35211  33.960   8.895   8.739
 2574POPC   D2A35212  33.663   8.999   8.398
 2574POPC   C3A35213  33.863   9.121   8.020
 2574POPC   C4A35214  33.608   9.329   7.763
 2574POPC   C1B35215  33.568   8.561   8.841
 2574POPC   C2B35216  33.783   8.503   8.442
 2574POPC   C3B35217  33.707   8.624   8.002
 2574POPC   C4B35218  34.013   8.698   7.643
 2575POPC   NC335219  36.956  28.692   9.494
 2575POPC   PO435220  36.722  28.084   9.577
 2575POPC   GL135221  36.907  28.278   9.198
 2575POPC   GL235222  36.624  28.509   9.114
 2575POPC   C1A35223  37.209  28.235   8.853
 2575POPC   D2A35224  37.242  28.045   8.444
 2575POPC   C3A35225  36.926  28.177   8.149
 2575POPC   C4A35226  36.974  28.211   7.701
 2575POPC   C1B35227  36.860  28.594   8.732
 2575POPC   C2B35228  36.721  28.624   8.293
 2575POPC   C3B35229  36.950  28.706   7.911
 2575POPC   C4B35230  36.884  28.641   7.450
 2576POPC   NC335231  29.628   0.832   9.451
 2576POPC   PO435232  29.967   1.340   9.585
 2576POPC   GL135233  29.962   1.348   9.174
 2576POPC   GL235234  30.009   0.989   9.116
 2576POPC   C1A35235  29.888   1.439   8.754
 2576POPC   D2A35236  29.821   1.250   8.344
 2576POPC   C3A35237  29.808   1.506   7.988
 2576POPC   C4A35238  29.994   1.319   7.615
 2576POPC   C1B35239  29.877   0.868   8.699
 2576POPC   C2B35240  30.067   0.800   8.275
 2576POPC   C3B35241  29.855   0.854   7.858
 2576POPC   C4B35242  29.740   0.922   7.409
 2577POPC   NC335243  21.976   6.691   9.430
 2577POPC   PO435244  22.552   6.438   9.401
 2577POPC   GL135245  22.358   6.680   9.080
 2577POPC   GL235246  22.277   7.030   9.179
 2577POPC   C1A35247  22.265   6.589   8.654
 2577POPC   D2A35248  22.541   6.639   8.304
 2577POPC   C3A35249  22.303   6.494   7.982
 2577POPC   C4A35250  22.382   6.430   7.563
 2577POPC   C1B35251  22.031   7.015   8.799
 2577POPC   C2B35252  21.874   6.857   8.405
 2577POPC   C3B35253  21.761   6.893   7.986
 2577POPC   C4B35254  21.941   6.660   7.681
 2578POPC   NC335255  10.103  12.956   9.503
 2578POPC   PO435256   9.505  12.602   9.470
 2578POPC   GL135257   9.821  12.699   9.149
 2578POPC   GL235258   9.918  13.058   9.036
 2578POPC   C1A35259   9.832  12.666   8.717
 2578POPC   D2A35260   9.795  12.951   8.405
 2578POPC   C3A35261   9.588  12.786   8.057
 2578POPC   C4A35262   9.577  12.892   7.642
 2578POPC   C1B35263  10.222  13.168   8.694
 2578POPC   C2B35264  10.144  13.280   8.275
 2578POPC   C3B35265  10.016  13.093   7.904
 2578POPC   C4B35266  10.040  13.045   7.466
 2579POPC   NC335267   6.843  33.991   9.752
 2579POPC   PO435268   6.819  34.560   9.437
 2579POPC   GL135269   6.688  34.606   9.053
 2579POPC   GL235270   6.329  34.556   9.079
 2579POPC   C1A35271   6.866  34.516   8.665
 2579POPC   D2A35272   6.681  34.387   8.281
 2579POPC   C3A35273   6.471  34.683   7.989
 2579POPC   C4A35274   6.591  34.804   7.556
 2579POPC   C1B35275   6.382  34.274   8.725
 2579POPC   C2B35276   6.239  34.130   8.306
 2579POPC   C3B35277   6.274  34.220   7.852
 2579POPC   C4B35278   6.433  34.245   7.405
 2580POPC   NC335279  43.818  17.167   9.546
 2580POPC   PO435280  43.677  17.877   9.521
 2580POPC   GL135281  43.865  17.598   9.249
 2580POPC   GL235282  43.583  17.461   9.075
 2580POPC   C1A35283  44.023  17.675   8.851
 2580POPC   D2A35284  43.855  17.672   8.424
 2580POPC   C3A35285  44.089  17.606   8.053
 2580POPC   C4A35286  43.846  17.678   7.698
 2580POPC   C1B35287  43.742  17.258   8.710
 2580POPC   C2B35288  43.816  17.139   8.324
 2580POPC   C3B35289  43.673  17.308   8.007
 2580POPC   C4B35290  43.622  17.207   7.617
 2581POPC   NC335291  37.080  33.500   9.685
 2581POPC   PO435292  36.812  34.033   9.441
 2581POPC   GL135293  36.794  33.695   9.176
 2581POPC   GL235294  37.124  33.648   9.174
 2581POPC   C1A35295  36.844  33.756   8.735
 2581POPC   D2A35296  36.791  34.089   8.449
 2581POPC   C3A35297  36.646  33.860   8.117
 2581POPC   C4A35298  36.722  33.658   7.728
 2581POPC   C1B35299  37.294  33.958   8.863
 2581POPC   C2B35300  37.260  33.888   8.412
 2581POPC   C3B35301  37.145  33.720   8.022
 2581POPC   C4B35302  37.207  33.743   7.592
 2582POPC   NC335303   2.178  43.042   9.441
 2582POPC   PO435304   2.841  43.126   9.513
 2582POPC   GL135305   2.639  42.979   9.161
 2582POPC   GL235306   2.431  42.653   9.202
 2582POPC   C1A35307   2.776  43.130   8.747
 2582POPC   D2A35308   2.965  43.174   8.321
 2582POPC   C3A35309   2.616  43.201   8.009
 2582POPC   C4A35310   2.641  43.305   7.577
 2582POPC   C1B35311   2.669  42.628   8.775
 2582POPC   C2B35312   2.861  42.671   8.364
 2582POPC   C3B35313   2.784  42.733   7.941
 2582POPC   C4B35314   2.509  42.813   7.573
 2583POPC   NC335315  25.989  10.037   9.714
 2583POPC   PO435316  26.442   9.566   9.702
 2583POPC   GL135317  26.325   9.558   9.273
 2583POPC   GL235318  26.403   9.905   9.241
 2583POPC   C1A35319  26.003   9.678   8.969
 2583POPC   D2A35320  25.997   9.765   8.523
 2583POPC   C3A35321  25.789   9.505   8.209
 2583POPC   C4A35322  25.744   9.598   7.763
 2583POPC   C1B35323  26.266  10.110   8.850
 2583POPC   C2B35324  26.333  10.156   8.411
 2583POPC   C3B35325  26.166   9.977   8.022
 2583POPC   C4B35326  26.242   9.929   7.579
 2584POPC   NC335327  42.447  29.661   9.459
 2584POPC   PO435328  42.201  30.337   9.478
 2584POPC   GL135329  42.138  29.982   9.130
 2584POPC   GL235330  42.209  29.597   9.022
 2584POPC   C1A35331  41.990  29.870   8.680
 2584POPC   D2A35332  42.169  29.804   8.264
 2584POPC   C3A35333  42.191  29.634   7.833
 2584POPC   C4A35334  42.139  29.943   7.468
 2584POPC   C1B35335  42.556  29.835   8.817
 2584POPC   C2B35336  42.746  29.945   8.422
 2584POPC   C3B35337  42.601  29.903   8.007
 2584POPC   C4B35338  42.677  29.680   7.645
 2585POPC   NC335339  28.684  17.115   9.595
 2585POPC   PO435340  28.020  17.063   9.434
 2585POPC   GL135341  28.166  16.893   9.072
 2585POPC   GL235342  28.504  16.957   9.080
 2585POPC   C1A35343  28.101  16.989   8.641
 2585POPC   D2A35344  28.473  17.098   8.379
 2585POPC   C3A35345  28.479  16.976   7.966
 2585POPC   C4A35346  28.108  16.863   7.765
 2585POPC   C1B35347  28.461  16.650   8.678
 2585POPC   C2B35348  28.472  16.520   8.207
 2585POPC   C3B35349  28.751  16.532   7.860
 2585POPC   C4B35350  28.932  16.463   7.445
 2586POPC   NC335351  25.587  25.847   9.439
 2586POPC   PO435352  25.195  26.332   9.440
 2586POPC   GL135353  25.222  26.083   9.097
 2586POPC   GL235354  24.908  25.901   9.178
 2586POPC   C1A35355  25.460  25.994   8.705
 2586POPC   D2A35356  25.473  26.211   8.301
 2586POPC   C3A35357  25.432  26.007   7.932
 2586POPC   C4A35358  25.556  26.014   7.491
 2586POPC   C1B35359  24.974  25.806   8.748
 2586POPC   C2B35360  25.164  25.735   8.338
 2586POPC   C3B35361  24.971  25.814   7.931
 2586POPC   C4B35362  25.064  26.101   7.577
 2587POPC   NC335363  24.126   2.006   9.564
 2587POPC   PO435364  23.567   2.438   9.619
 2587POPC   GL135365  23.780   2.265   9.231
 2587POPC   GL235366  23.542   2.379   8.966
 2587POPC   C1A35367  23.866   1.966   8.875
 2587POPC   D2A35368  24.190   1.973   8.542
 2587POPC   C3A35369  23.947   1.924   8.163
 2587POPC   C4A35370  23.757   1.878   7.774
 2587POPC   C1B35371  23.401   2.413   8.577
 2587POPC   C2B35372  23.594   2.335   8.207
 2587POPC   C3B35373  23.394   2.240   7.862
 2587POPC   C4B35374  23.177   2.463   7.558
 2588POPC   NC335375  21.417   5.336   9.719
 2588POPC   PO435376  21.266   4.793   9.538
 2588POPC   GL135377  21.455   4.974   9.187
 2588POPC   GL235378  21.191   5.166   9.073
 2588POPC   C1A35379  21.513   4.890   8.737
 2588POPC   D2A35380  21.437   5.128   8.358
 2588POPC   C3A35381  21.598   4.982   7.961
 2588POPC   C4A35382  21.349   4.997   7.628
 2588POPC   C1B35383  21.561   5.398   8.814
 2588POPC   C2B35384  21.667   5.601   8.406
 2588POPC   C3B35385  21.489   5.497   7.981
 2588POPC   C4B35386  21.478   5.465   7.526
 2589POPC   NC335387  39.539  35.981   9.828
 2589POPC   PO435388  39.181  36.449   9.555
 2589POPC   GL135389  39.055  36.263   9.145
 2589POPC   GL235390  38.732  36.426   8.990
 2589POPC   C1A35391  39.210  36.009   8.804
 2589POPC   D2A35392  39.469  35.931   8.432
 2589POPC   C3A35393  39.280  35.847   8.035
 2589POPC   C4A35394  39.564  35.819   7.718
 2589POPC   C1B35395  39.025  36.486   8.682
 2589POPC   C2B35396  39.145  36.310   8.348
 2589POPC   C3B35397  39.350  36.360   7.992
 2589POPC   C4B35398  39.349  36.267   7.624
 2590POPC   NC335399  34.197  28.999   9.538
 2590POPC   PO435400  33.572  29.232   9.543
 2590POPC   GL135401  33.737  29.059   9.191
 2590POPC   GL235402  34.035  29.243   9.143
 2590POPC   C1A35403  33.688  29.017   8.755
 2590POPC   D2A35404  33.543  29.281   8.397
 2590POPC   C3A35405  33.563  29.130   8.004
 2590POPC   C4A35406  33.851  28.917   7.790
 2590POPC   C1B35407  34.202  29.241   8.753
 2590POPC   C2B35408  34.057  29.057   8.377
 2590POPC   C3B35409  34.309  28.959   7.992
 2590POPC   C4B35410  34.285  28.850   7.540
 2591POPC   NC335411  28.937  23.508   9.400
 2591POPC   PO435412  29.405  23.944   9.503
 2591POPC   GL135413  29.272  23.805   9.118
 2591POPC   GL235414  28.915  23.829   8.997
 2591POPC   C1A35415  29.315  23.700   8.709
 2591POPC   D2A35416  29.047  23.762   8.382
 2591POPC   C3A35417  29.390  23.601   8.144
 2591POPC   C4A35418  29.428  23.503   7.736
 2591POPC   C1B35419  28.875  23.412   8.746
 2591POPC   C2B35420  28.704  23.399   8.320
 2591POPC   C3B35421  28.930  23.482   7.949
 2591POPC   C4B35422  29.095  23.905   7.854
 2592POPC   NC335423  24.242  23.630   9.476
 2592POPC   PO435424  24.867  23.751   9.350
 2592POPC   GL135425  24.546  23.794   9.056
 2592POPC   GL235426  24.428  23.451   9.057
 2592POPC   C1A35427  24.472  23.983   8.647
 2592POPC   D2A35428  24.522  24.185   8.257
 2592POPC   C3A35429  24.749  23.944   7.982
 2592POPC   C4A35430  24.600  23.850   7.605
 2592POPC   C1B35431  24.552  23.462   8.661
 2592POPC   C2B35432  24.506  23.611   8.276
 2592POPC   C3B35433  24.398  23.405   7.924
 2592POPC   C4B35434  24.468  23.365   7.516
 2593POPC   NC335435  20.256  26.273   9.433
 2593POPC   PO435436  20.827  26.050   9.472
 2593POPC   GL135437  20.663  25.855   9.129
 2593POPC   GL235438  20.334  25.726   9.236
 2593POPC   C1A35439  20.702  26.055   8.738
 2593POPC   D2A35440  20.887  26.229   8.405
 2593POPC   C3A35441  20.641  26.168   8.061
 2593POPC   C4A35442  20.689  25.992   7.684
 2593POPC   C1B35443  20.238  25.872   8.829
 2593POPC   C2B35444  20.311  25.945   8.373
 2593POPC   C3B35445  20.273  25.779   7.921
 2593POPC   C4B35446  20.325  25.720   7.460
 2594POPC   NC335447  35.566  16.351   9.466
 2594POPC   PO435448  35.095  16.861   9.564
 2594POPC   GL135449  35.326  16.867   9.199
 2594POPC   GL235450  35.695  16.938   9.284
 2594POPC   C1A35451  35.208  16.821   8.761
 2594POPC   D2A35452  35.238  16.583   8.403
 2594POPC   C3A35453  35.060  16.659   8.063
 2594POPC   C4A35454  35.291  16.941   7.841
 2594POPC   C1B35455  35.694  16.790   8.862
 2594POPC   C2B35456  35.585  16.994   8.446
 2594POPC   C3B35457  35.766  17.017   8.045
 2594POPC   C4B35458  35.759  16.660   7.795
 2595POPC   NC335459  42.920  26.180   9.633
 2595POPC   PO435460  43.072  25.480   9.684
 2595POPC   GL135461  42.840  25.838   9.281
 2595POPC   GL235462  43.098  26.087   9.146
 2595POPC   C1A35463  42.846  25.940   8.768
 2595POPC   D2A35464  43.030  26.106   8.369
 2595POPC   C3A35465  43.130  25.789   8.091
 2595POPC   C4A35466  42.934  25.634   7.733
 2595POPC   C1B35467  43.377  25.955   8.751
 2595POPC   C2B35468  43.569  26.098   8.341
 2595POPC   C3B35469  43.425  26.174   7.916
 2595POPC   C4B35470  43.249  26.421   7.534
 2596POPC   NC335471  39.593   7.956   9.461
 2596POPC   PO435472  39.001   8.376   9.506
 2596POPC   GL135473  39.153   8.284   9.114
 2596POPC   GL235474  39.228   8.561   8.909
 2596POPC   C1A35475  39.239   8.061   8.737
 2596POPC   D2A35476  39.545   8.148   8.416
 2596POPC   C3A35477  39.438   8.411   8.067
 2596POPC   C4A35478  39.468   8.408   7.612
 2596POPC   C1B35479  39.106   8.500   8.479
 2596POPC   C2B35480  39.049   8.112   8.253
 2596POPC   C3B35481  39.115   8.081   7.813
 2596POPC   C4B35482  39.002   8.386   7.450
 2597POPC   NC335483  25.356  31.490   9.501
 2597POPC   PO435484  24.751  31.754   9.417
 2597POPC   GL135485  24.996  31.457   9.110
 2597POPC   GL235486  25.316  31.255   9.062
 2597POPC   C1A35487  25.181  31.499   8.657
 2597POPC   D2A35488  25.230  31.817   8.340
 2597POPC   C3A35489  25.164  31.711   7.921
 2597POPC   C4A35490  24.942  31.321   7.908
 2597POPC   C1B35491  25.591  31.625   8.912
 2597POPC   C2B35492  25.712  31.697   8.496
 2597POPC   C3B35493  25.580  31.487   8.128
 2597POPC   C4B35494  25.421  31.253   7.782
 2598POPC   NC335495   1.219  21.494   9.555
 2598POPC   PO435496   0.778  21.075   9.851
 2598POPC   GL135497   0.815  21.418   9.276
 2598POPC   GL235498   1.159  21.408   9.083
 2598POPC   C1A35499   0.845  21.305   8.733
 2598POPC   D2A35500   0.984  21.115   8.310
 2598POPC   C3A35501   1.155  21.253   7.948
 2598POPC   C4A35502   1.335  21.232   7.567
 2598POPC   C1B35503   1.401  21.604   8.744
 2598POPC   C2B35504   1.306  21.549   8.324
 2598POPC   C3B35505   1.465  21.655   7.912
 2598POPC   C4B35506   1.396  21.712   7.471
 2599POPC   NC335507  37.855   9.569   9.670
 2599POPC   PO435508  37.284   9.764   9.448
 2599POPC   GL135509  37.609   9.584   9.186
 2599POPC   GL235510  37.990   9.495   9.184
 2599POPC   C1A35511  37.763   9.797   8.817
 2599POPC   D2A35512  37.566  10.076   8.544
 2599POPC   C3A35513  37.593   9.882   8.175
 2599POPC   C4A35514  37.824  10.011   7.818
 2599POPC   C1B35515  37.823   9.296   8.811
 2599POPC   C2B35516  37.714   9.394   8.403
 2599POPC   C3B35517  37.864   9.473   7.998
 2599POPC   C4B35518  37.525   9.598   7.751
 2600POPC   NC335519  25.076  11.785   9.441
 2600POPC   PO435520  25.605  12.204   9.546
 2600POPC   GL135521  25.500  12.030   9.171
 2600POPC   GL235522  25.189  12.231   9.176
 2600POPC   C1A35523  25.488  11.833   8.740
 2600POPC   D2A35524  25.565  11.707   8.271
 2600POPC   C3A35525  25.384  11.985   7.942
 2600POPC   C4A35526  25.019  12.257   7.933
 2600POPC   C1B35527  25.472  12.383   8.831
 2600POPC   C2B35528  25.366  12.319   8.399
 2600POPC   C3B35529  25.469  12.499   8.020
 2600POPC   C4B35530  25.695  12.353   7.702
 2601POPC   NC335531  24.934   5.600   9.557
 2601POPC   PO435532  24.272   5.890   9.515
 2601POPC   GL135533  24.393   5.877   9.103
 2601POPC   GL235534  24.717   5.912   9.101
 2601POPC   C1A35535  24.382   6.112   8.714
 2601POPC   D2A35536  24.387   6.411   8.366
 2601POPC   C3A35537  24.442   6.071   8.053
 2601POPC   C4A35538  24.731   6.049   7.722
 2601POPC   C1B35539  24.667   5.692   8.684
 2601POPC   C2B35540  24.829   5.774   8.236
 2601POPC   C3B35541  24.928   5.584   7.837
 2601POPC   C4B35542  24.910   5.578   7.383
 2602POPC   NC335543  39.795  20.206   9.454
 2602POPC   PO435544  39.973  20.880   9.364
 2602POPC   GL135545  40.143  20.504   9.208
 2602POPC   GL235546  39.810  20.518   9.035
 2602POPC   C1A35547  40.240  20.308   8.824
 2602POPC   D2A35548  39.909  20.280   8.519
 2602POPC   C3A35549  39.986  20.366   8.107
 2602POPC   C4A35550  39.878  20.333   7.686
 2602POPC   C1B35551  39.996  20.785   8.705
 2602POPC   C2B35552  39.979  20.847   8.256
 2602POPC   C3B35553  39.989  20.826   7.832
 2602POPC   C4B35554  40.257  21.031   7.509
 2603POPC   NC335555   9.202  23.523   9.564
 2603POPC   PO435556   8.831  24.083   9.399
 2603POPC   GL135557   8.937  23.755   9.111
 2603POPC   GL235558   8.628  23.675   8.924
 2603POPC   C1A35559   9.175  23.787   8.728
 2603POPC   D2A35560   9.165  24.080   8.393
 2603POPC   C3A35561   9.177  23.827   8.032
 2603POPC   C4A35562   8.928  23.684   7.696
 2603POPC   C1B35563   8.898  23.360   8.763
 2603POPC   C2B35564   9.074  23.417   8.350
 2603POPC   C3B35565   8.794  23.300   8.051
 2603POPC   C4B35566   8.588  23.293   7.681
 2604POPC   NC335567  39.680  34.465   9.749
 2604POPC   PO435568  40.243  34.854   9.505
 2604POPC   GL135569  40.003  34.631   9.225
 2604POPC   GL235570  40.312  34.615   9.024
 2604POPC   C1A35571  39.844  34.604   8.793
 2604POPC   D2A35572  39.686  34.321   8.458
 2604POPC   C3A35573  39.752  34.402   8.023
 2604POPC   C4A35574  39.889  34.157   7.688
 2604POPC   C1B35575  40.309  34.491   8.621
 2604POPC   C2B35576  40.065  34.714   8.339
 2604POPC   C3B35577  40.161  34.790   7.943
 2604POPC   C4B35578  40.368  34.442   7.733
 2605POPC   NC335579  41.561  41.296   9.485
 2605POPC   PO435580  41.369  41.888   9.502
 2605POPC   GL135581  41.563  41.682   9.103
 2605POPC   GL235582  41.778  41.359   9.028
 2605POPC   C1A35583  41.563  41.644   8.638
 2605POPC   D2A35584  41.379  41.721   8.216
 2605POPC   C3A35585  41.716  41.716   7.907
 2605POPC   C4A35586  41.770  41.397   7.563
 2605POPC   C1B35587  41.384  41.210   8.842
 2605POPC   C2B35588  41.323  41.228   8.398
 2605POPC   C3B35589  41.490  41.256   7.980
 2605POPC   C4B35590  41.274  41.132   7.581
 2606POPC   NC335591  30.744  38.888   9.499
 2606POPC   PO435592  30.760  38.224   9.507
 2606POPC   GL135593  30.789  38.485   9.166
 2606POPC   GL235594  31.107  38.594   9.206
 2606POPC   C1A35595  30.539  38.551   8.787
 2606POPC   D2A35596  30.559  38.407   8.368
 2606POPC   C3A35597  30.591  38.717   8.067
 2606POPC   C4A35598  30.685  38.689   7.688
 2606POPC   C1B35599  30.945  38.861   8.845
 2606POPC   C2B35600  31.002  38.754   8.405
 2606POPC   C3B35601  31.101  38.576   7.989
 2606POPC   C4B35602  31.164  38.727   7.557
 2607POPC   NC335603   9.576  41.885   9.380
 2607POPC   PO435604   9.904  42.475   9.534
 2607POPC   GL135605   9.829  42.346   9.100
 2607POPC   GL235606   9.913  41.990   8.980
 2607POPC   C1A35607   9.703  42.327   8.660
 2607POPC   D2A35608   9.528  42.547   8.324
 2607POPC   C3A35609   9.809  42.571   7.979
 2607POPC   C4A35610   9.619  42.506   7.584
 2607POPC   C1B35611   9.512  41.856   8.724
 2607POPC   C2B35612   9.401  42.040   8.337
 2607POPC   C3B35613   9.545  42.136   7.954
 2607POPC   C4B35614   9.332  42.071   7.615
 2608POPC   NC335615  27.701  11.707   9.329
 2608POPC   PO435616  27.140  12.152   9.519
 2608POPC   GL135617  27.334  12.008   9.142
 2608POPC   GL235618  27.493  12.308   9.064
 2608POPC   C1A35619  27.629  11.941   8.732
 2608POPC   D2A35620  27.878  12.068   8.349
 2608POPC   C3A35621  27.641  11.940   7.987
 2608POPC   C4A35622  27.432  11.699   7.681
 2608POPC   C1B35623  27.225  12.237   8.712
 2608POPC   C2B35624  27.425  12.305   8.349
 2608POPC   C3B35625  27.400  12.433   7.953
 2608POPC   C4B35626  27.383  12.246   7.600
 2609POPC   NC335627  14.417  11.288   9.530
 2609POPC   PO435628  13.756  11.255   9.483
 2609POPC   GL135629  14.044  11.423   9.176
 2609POPC   GL235630  14.320  11.180   9.040
 2609POPC   C1A35631  14.065  11.499   8.755
 2609POPC   D2A35632  13.915  11.321   8.388
 2609POPC   C3A35633  14.081  11.203   7.987
 2609POPC   C4A35634  14.173  11.545   7.725
 2609POPC   C1B35635  14.496  11.286   8.605
 2609POPC   C2B35636  14.526  11.367   8.152
 2609POPC   C3B35637  14.775  11.494   7.810
 2609POPC   C4B35638  14.961  11.396   7.374
 2610POPC   NC335639  23.129   3.157   9.402
 2610POPC   PO435640  22.744   3.712   9.377
 2610POPC   GL135641  22.878   3.482   9.080
 2610POPC   GL235642  22.598   3.291   9.037
 2610POPC   C1A35643  22.898   3.608   8.682
 2610POPC   D2A35644  22.707   3.576   8.314
 2610POPC   C3A35645  23.064   3.504   8.010
 2610POPC   C4A35646  23.052   3.525   7.564
 2610POPC   C1B35647  22.683   3.135   8.627
 2610POPC   C2B35648  22.882   3.104   8.249
 2610POPC   C3B35649  22.691   3.198   7.855
 2610POPC   C4B35650  22.802   3.124   7.395
 2611POPC   NC335651  23.494  16.439   9.498
 2611POPC   PO435652  23.515  17.099   9.293
 2611POPC   GL135653  23.750  16.920   9.010
 2611POPC   GL235654  23.804  16.605   9.069
 2611POPC   C1A35655  23.535  16.828   8.643
 2611POPC   D2A35656  23.492  16.525   8.329
 2611POPC   C3A35657  23.667  16.687   8.033
 2611POPC   C4A35658  23.618  16.810   7.635
 2611POPC   C1B35659  23.991  16.625   8.638
 2611POPC   C2B35660  24.131  16.849   8.245
 2611POPC   C3B35661  24.112  16.709   7.808
 2611POPC   C4B35662  24.012  16.624   7.376
 2612POPC   NC335663  27.240   7.665   9.709
 2612POPC   PO435664  26.889   8.146   9.410
 2612POPC   GL135665  26.716   8.287   9.066
 2612POPC   GL235666  26.499   8.025   9.058
 2612POPC   C1A35667  26.689   8.336   8.647
 2612POPC   D2A35668  26.819   8.529   8.274
 2612POPC   C3A35669  26.912   8.260   7.940
 2612POPC   C4A35670  26.819   8.165   7.512
 2612POPC   C1B35671  26.563   7.829   8.681
 2612POPC   C2B35672  26.594   7.978   8.283
 2612POPC   C3B35673  26.500   7.983   7.896
 2612POPC   C4B35674  26.611   7.721   7.616
 2613POPC   NC335675  25.953  44.393   9.735
 2613POPC   PO435676  26.422  44.838   9.619
 2613POPC   GL135677  26.187  44.716   9.245
 2613POPC   GL235678  25.859  44.611   9.251
 2613POPC   C1A35679  26.258  44.596   8.803
 2613POPC   D2A35680  26.419  44.598   8.362
 2613POPC   C3A35681  26.200  44.766   8.000
 2613POPC   C4A35682  26.385  44.886   7.624
 2613POPC   C1B35683  25.737  44.704   8.831
 2613POPC   C2B35684  25.901  44.720   8.425
 2613POPC   C3B35685  25.686  44.699   8.048
 2613POPC   C4B35686  25.583  44.424   7.727
 2614POPC   NC335687  27.395  23.365   9.381
 2614POPC   PO435688  27.659  22.782   9.382
 2614POPC   GL135689  27.715  23.106   9.094
 2614POPC   GL235690  27.379  23.140   8.931
 2614POPC   C1A35691  27.837  23.264   8.734
 2614POPC   D2A35692  27.810  23.150   8.326
 2614POPC   C3A35693  27.564  22.967   8.096
 2614POPC   C4A35694  27.883  23.079   7.787
 2614POPC   C1B35695  27.519  22.823   8.671
 2614POPC   C2B35696  27.343  22.462   8.453
 2614POPC   C3B35697  27.358  22.498   8.019
 2614POPC   C4B35698  27.398  22.772   7.666
 2615POPC   NC335699  27.311  28.500   9.551
 2615POPC   PO435700  27.764  28.026   9.438
 2615POPC   GL135701  27.416  28.159   9.146
 2615POPC   GL235702  27.501  28.554   9.086
 2615POPC   C1A35703  27.361  28.263   8.696
 2615POPC   D2A35704  27.703  28.547   8.516
 2615POPC   C3A35705  27.734  28.527   8.072
 2615POPC   C4A35706  27.495  28.212   7.855
 2615POPC   C1B35707  27.290  28.762   8.734
 2615POPC   C2B35708  27.239  28.585   8.273
 2615POPC   C3B35709  27.286  28.737   7.856
 2615POPC   C4B35710  27.690  28.834   7.653
 2616POPC   NC335711  17.966  37.437   9.911
 2616POPC   PO435712  18.411  37.728   9.515
 2616POPC   GL135713  18.356  37.546   9.103
 2616POPC   GL235714  18.270  37.842   8.926
 2616POPC   C1A35715  18.451  37.463   8.642
 2616POPC   D2A35716  18.769  37.501   8.353
 2616POPC   C3A35717  18.533  37.518   7.991
 2616POPC   C4A35718  18.123  37.481   7.859
 2616POPC   C1B35719  17.955  37.487   8.790
 2616POPC   C2B35720  17.979  37.462   8.365
 2616POPC   C3B35721  18.208  37.837   8.209
 2616POPC   C4B35722  18.407  37.971   7.803
 2617POPC   NC335723  34.650  16.855   9.436
 2617POPC   PO435724  34.565  16.152   9.562
 2617POPC   GL135725  34.544  16.415   9.179
 2617POPC   GL235726  34.791  16.671   9.005
 2617POPC   C1A35727  34.562  16.316   8.749
 2617POPC   D2A35728  34.709  16.598   8.421
 2617POPC   C3A35729  34.551  16.499   7.994
 2617POPC   C4A35730  34.092  16.554   7.909
 2617POPC   C1B35731  34.755  17.029   8.737
 2617POPC   C2B35732  34.993  17.099   8.342
 2617POPC   C3B35733  34.722  17.040   7.971
 2617POPC   C4B35734  34.424  16.867   7.647
 2618POPC   NC335735  26.867  17.010   9.638
 2618POPC   PO435736  26.537  16.503   9.396
 2618POPC   GL135737  26.793  16.782   9.178
 2618POPC   GL235738  26.652  17.116   9.177
 2618POPC   C1A35739  26.950  16.774   8.760
 2618POPC   D2A35740  27.002  16.961   8.370
 2618POPC   C3A35741  26.954  16.654   8.098
 2618POPC   C4A35742  27.134  16.561   7.728
 2618POPC   C1B35743  26.469  16.916   8.789
 2618POPC   C2B35744  26.496  16.693   8.368
 2618POPC   C3B35745  26.529  16.868   7.945
 2618POPC   C4B35746  26.699  16.752   7.550
 2619POPC   NC335747  40.347   5.734   9.460
 2619POPC   PO435748  39.605   5.845   9.503
 2619POPC   GL135749  39.795   5.912   9.118
 2619POPC   GL235750  39.966   5.609   9.091
 2619POPC   C1A35751  39.799   6.086   8.683
 2619POPC   D2A35752  40.171   6.169   8.444
 2619POPC   C3A35753  40.149   6.020   8.021
 2619POPC   C4A35754  39.826   5.906   7.726
 2619POPC   C1B35755  40.137   5.694   8.693
 2619POPC   C2B35756  40.308   5.572   8.291
 2619POPC   C3B35757  40.227   5.521   7.848
 2619POPC   C4B35758  40.296   5.845   7.536
 2620POPC   NC335759  28.585  22.181   9.501
 2620POPC   PO435760  27.988  21.886   9.310
 2620POPC   GL135761  28.226  22.182   9.082
 2620POPC   GL235762  28.593  22.175   9.001
 2620POPC   C1A35763  28.238  22.066   8.658
 2620POPC   D2A35764  28.241  22.300   8.343
 2620POPC   C3A35765  28.219  22.141   7.960
 2620POPC   C4A35766  28.155  22.316   7.588
 2620POPC   C1B35767  28.742  22.310   8.601
 2620POPC   C2B35768  28.721  22.417   8.169
 2620POPC   C3B35769  28.625  22.365   7.746
 2620POPC   C4B35770  28.674  22.460   7.281
 2621POPC   NC335771  40.403   2.302   9.569
 2621POPC   PO435772  39.831   1.958   9.453
 2621POPC   GL135773  40.083   1.966   9.114
 2621POPC   GL235774  40.412   2.108   9.102
 2621POPC   C1A35775  39.868   1.916   8.743
 2621POPC   D2A35776  39.666   2.014   8.387
 2621POPC   C3A35777  39.836   1.751   8.078
 2621POPC   C4A35778  40.176   1.796   7.816
 2621POPC   C1B35779  40.309   2.193   8.707
 2621POPC   C2B35780  40.200   2.009   8.335
 2621POPC   C3B35781  40.356   2.262   8.022
 2621POPC   C4B35782  40.551   2.108   7.688
 2622POPC   NC335783   4.241  38.070   9.586
 2622POPC   PO435784   4.409  38.786   9.489
 2622POPC   GL135785   4.428  38.534   9.141
 2622POPC   GL235786   4.479  38.180   9.128
 2622POPC   C1A35787   4.232  38.534   8.756
 2622POPC   D2A35788   3.970  38.665   8.429
 2622POPC   C3A35789   4.172  38.641   8.065
 2622POPC   C4A35790   4.083  38.528   7.693
 2622POPC   C1B35791   4.303  38.024   8.755
 2622POPC   C2B35792   4.225  38.214   8.366
 2622POPC   C3B35793   4.216  38.132   7.968
 2622POPC   C4B35794   4.310  37.944   7.600
 2623POPC   NC335795  44.655  15.883   9.448
 2623POPC   PO435796  44.527  16.547   9.404
 2623POPC   GL135797  44.544  16.250   9.101
 2623POPC   GL235798  44.883  16.201   9.073
 2623POPC   C1A35799  44.573  16.000   8.724
 2623POPC   D2A35800  44.384  16.007   8.318
 2623POPC   C3A35801  44.595  16.030   7.935
 2623POPC   C4A35802  44.571  15.640   7.712
 2623POPC   C1B35803   0.086  15.980   8.708
 2623POPC   C2B35804  44.976  16.013   8.311
 2623POPC   C3B35805   0.030  15.740   7.999
 2623POPC   C4B35806   0.018  15.832   7.611
 2624POPC   NC335807  10.121   5.866   9.459
 2624POPC   PO435808  10.701   5.891   9.849
 2624POPC   GL135809  10.635   5.901   9.361
 2624POPC   GL235810  10.894   6.038   9.166
 2624POPC   C1A35811  10.468   5.932   8.886
 2624POPC   D2A35812  10.573   5.784   8.437
 2624POPC   C3A35813  10.449   5.964   8.033
 2624POPC   C4A35814  10.109   5.788   7.759
 2624POPC   C1B35815  10.935   5.755   8.787
 2624POPC   C2B35816  11.051   5.573   8.386
 2624POPC   C3B35817  10.896   5.720   7.988
 2624POPC   C4B35818  10.723   5.539   7.621
 2625POPC   NC335819  42.264  28.681   9.532
 2625POPC   PO435820  42.618  28.115   9.659
 2625POPC   GL135821  42.354  28.222   9.284
 2625POPC   GL235822  42.358  27.939   9.100
 2625POPC   C1A35823  42.362  28.472   8.882
 2625POPC   D2A35824  42.607  28.471   8.483
 2625POPC   C3A35825  42.399  28.466   8.062
 2625POPC   C4A35826  42.572  28.533   7.639
 2625POPC   C1B35827  42.196  27.960   8.717
 2625POPC   C2B35828  42.133  28.279   8.467
 2625POPC   C3B35829  41.951  28.214   8.127
 2625POPC   C4B35830  42.068  28.205   7.733
 2626POPC   NC335831  13.503  30.015   9.546
 2626POPC   PO435832  13.986  29.468   9.502
 2626POPC   GL135833  13.691  29.702   9.188
 2626POPC   GL235834  13.662  30.085   9.078
 2626POPC   C1A35835  13.661  29.644   8.765
 2626POPC   D2A35836  13.894  29.513   8.417
 2626POPC   C3A35837  13.734  29.752   8.068
 2626POPC   C4A35838  13.640  29.643   7.649
 2626POPC   C1B35839  13.436  30.102   8.694
 2626POPC   C2B35840  13.459  30.132   8.297
 2626POPC   C3B35841  13.714  30.353   8.043
 2626POPC   C4B35842  13.808  30.169   7.704
 2627POPC   NC335843  26.320   6.211   9.609
 2627POPC   PO435844  26.620   5.553   9.551
 2627POPC   GL135845  26.805   5.642   9.176
 2627POPC   GL235846  26.880   5.970   9.268
 2627POPC   C1A35847  26.909   5.509   8.807
 2627POPC   D2A35848  26.828   5.827   8.494
 2627POPC   C3A35849  26.715   5.886   8.102
 2627POPC   C4A35850  26.814   5.738   7.727
 2627POPC   C1B35851  26.662   6.101   8.894
 2627POPC   C2B35852  26.784   6.344   8.525
 2627POPC   C3B35853  26.714   6.399   8.077
 2627POPC   C4B35854  26.579   6.201   7.681
 2628POPC   NC335855  44.786  22.009   9.540
 2628POPC   PO435856  44.896  22.655   9.499
 2628POPC   GL135857  44.673  22.393   9.193
 2628POPC   GL235858  44.776  22.043   9.056
 2628POPC   C1A35859  44.558  22.386   8.751
 2628POPC   D2A35860  44.652  22.525   8.335
 2628POPC   C3A35861  44.642  22.311   7.923
 2628POPC   C4A35862  44.582  22.230   7.429
 2628POPC   C1B35863  44.954  21.941   8.687
 2628POPC   C2B35864  44.802  21.988   8.280
 2628POPC   C3B35865   0.024  21.992   7.896
 2628POPC   C4B35866   0.034  22.029   7.475
 2629POPC   NC335867  13.565  28.223   9.385
 2629POPC   PO435868  13.921  28.634   9.762
 2629POPC   GL135869  13.698  28.682   9.219
 2629POPC   GL235870  13.774  28.321   8.943
 2629POPC   C1A35871  13.543  28.705   8.756
 2629POPC   D2A35872  13.656  28.523   8.341
 2629POPC   C3A35873  13.412  28.748   7.980
 2629POPC   C4A35874  13.598  28.481   7.705
 2629POPC   C1B35875  13.478  28.012   8.770
 2629POPC   C2B35876  13.352  28.019   8.379
 2629POPC   C3B35877  13.660  28.089   8.042
 2629POPC   C4B35878  13.504  27.956   7.680
 2630POPC   NC335879   8.549  17.999   9.520
 2630POPC   PO435880   7.934  18.024   9.437
 2630POPC   GL135881   8.260  18.060   9.089
 2630POPC   GL235882   8.539  18.302   9.099
 2630POPC   C1A35883   8.238  18.120   8.635
 2630POPC   D2A35884   8.126  18.384   8.281
 2630POPC   C3A35885   7.989  18.215   7.886
 2630POPC   C4A35886   7.925  18.439   7.519
 2630POPC   C1B35887   8.741  18.144   8.708
 2630POPC   C2B35888   8.630  18.210   8.284
 2630POPC   C3B35889   8.491  18.358   7.906
 2630POPC   C4B35890   8.356  18.158   7.524
 2631POPC   NC335891  27.258  10.678   9.518
 2631POPC   PO435892  27.927  10.625   9.593
 2631POPC   GL135893  27.774  10.455   9.192
 2631POPC   GL235894  27.851  10.115   9.121
 2631POPC   C1A35895  27.548  10.549   8.779
 2631POPC   D2A35896  27.357  10.755   8.416
 2631POPC   C3A35897  27.531  10.745   7.994
 2631POPC   C4A35898  27.522  10.568   7.595
 2631POPC   C1B35899  27.586  10.061   8.765
 2631POPC   C2B35900  27.629  10.274   8.334
 2631POPC   C3B35901  27.610  10.174   7.886
 2631POPC   C4B35902  27.823  10.131   7.436
 2632POPC   NC335903  19.656  31.597   9.608
 2632POPC   PO435904  20.254  31.299   9.585
 2632POPC   GL135905  20.036  31.596   9.276
 2632POPC   GL235906  19.821  31.339   9.182
 2632POPC   C1A35907  19.865  31.709   8.841
 2632POPC   D2A35908  19.868  31.591   8.434
 2632POPC   C3A35909  19.744  31.733   8.055
 2632POPC   C4A35910  19.741  31.525   7.685
 2632POPC   C1B35911  19.983  31.201   8.765
 2632POPC   C2B35912  20.118  31.170   8.293
 2632POPC   C3B35913  19.985  31.117   7.859
 2632POPC   C4B35914  19.641  30.872   7.697
 2633POPC   NC335915   9.149  28.893   9.578
 2633POPC   PO435916   8.764  29.390   9.519
 2633POPC   GL135917   8.838  29.107   9.188
 2633POPC   GL235918   9.182  29.190   9.150
 2633POPC   C1A35919   8.971  29.027   8.722
 2633POPC   D2A35920   9.174  29.244   8.371
 2633POPC   C3A35921   9.093  29.037   7.991
 2633POPC   C4A35922   8.898  28.842   7.641
 2633POPC   C1B35923   8.928  29.509   8.868
 2633POPC   C2B35924   8.689  29.423   8.472
 2633POPC   C3B35925   8.782  29.441   8.027
 2633POPC   C4B35926   8.977  29.355   7.603
 2634POPC   NC335927  33.788   9.597   9.425
 2634POPC   PO435928  34.417   9.723   9.460
 2634POPC   GL135929  34.177   9.677   9.086
 2634POPC   GL235930  34.088  10.002   9.177
 2634POPC   C1A35931  33.894   9.571   8.717
 2634POPC   D2A35932  33.609   9.579   8.339
 2634POPC   C3A35933  33.880   9.709   7.996
 2634POPC   C4A35934  34.274   9.469   7.910
 2634POPC   C1B35935  33.862  10.081   8.802
 2634POPC   C2B35936  33.748  10.096   8.384
 2634POPC   C3B35937  33.712  10.298   8.010
 2634POPC   C4B35938  33.692  10.048   7.642
 2635POPC   NC335939  13.699  32.427   9.525
 2635POPC   PO435940  13.833  31.886   9.142
 2635POPC   GL135941  13.530  32.215   9.056
 2635POPC   GL235942  13.457  32.563   9.090
 2635POPC   C1A35943  13.304  32.244   8.683
 2635POPC   D2A35944  13.262  31.954   8.340
 2635POPC   C3A35945  13.408  32.091   7.941
 2635POPC   C4A35946  13.702  31.982   7.639
 2635POPC   C1B35947  13.682  32.609   8.731
 2635POPC   C2B35948  13.790  32.254   8.478
 2635POPC   C3B35949  13.914  32.191   8.068
 2635POPC   C4B35950  13.747  32.491   7.792
 2636POPC   NC335951  30.767   3.188   9.223
 2636POPC   PO435952  30.440   3.648   9.450
 2636POPC   GL135953  30.702   3.664   9.033
 2636POPC   GL235954  31.045   3.807   9.031
 2636POPC   C1A35955  30.655   3.378   8.632
 2636POPC   D2A35956  30.701   3.014   8.344
 2636POPC   C3A35957  30.612   3.342   8.082
 2636POPC   C4A35958  30.688   3.596   7.733
 2636POPC   C1B35959  31.151   3.475   8.741
 2636POPC   C2B35960  31.109   3.323   8.327
 2636POPC   C3B35961  31.151   3.384   7.900
 2636POPC   C4B35962  31.202   3.670   7.576
 2637POPC   NC335963  36.702  32.544   9.359
 2637POPC   PO435964  36.874  33.074   9.717
 2637POPC   GL135965  37.076  33.145   9.289
 2637POPC   GL235966  37.099  32.822   9.125
 2637POPC   C1A35967  36.907  33.256   8.871
 2637POPC   D2A35968  36.628  33.350   8.508
 2637POPC   C3A35969  36.781  33.260   8.079
 2637POPC   C4A35970  37.016  33.242   7.694
 2637POPC   C1B35971  37.283  32.931   8.733
 2637POPC   C2B35972  37.218  32.895   8.318
 2637POPC   C3B35973  37.031  32.791   7.947
 2637POPC   C4B35974  37.344  32.859   7.670
 2638POPC   NC335975   6.793   1.503   9.426
 2638POPC   PO435976   6.370   0.974   9.489
 2638POPC   GL135977   6.522   1.174   9.123
 2638POPC   GL235978   6.363   1.506   9.141
 2638POPC   C1A35979   6.778   1.336   8.778
 2638POPC   D2A35980   6.902   1.191   8.347
 2638POPC   C3A35981   6.805   1.333   7.917
 2638POPC   C4A35982   6.792   0.999   7.613
 2638POPC   C1B35983   6.242   1.380   8.729
 2638POPC   C2B35984   6.104   1.399   8.321
 2638POPC   C3B35985   6.310   1.195   8.026
 2638POPC   C4B35986   6.329   1.246   7.631
 2639POPC   NC335987  29.243  21.804   9.530
 2639POPC   PO435988  29.017  22.436   9.503
 2639POPC   GL135989  29.240  22.187   9.184
 2639POPC   GL235990  29.003  21.901   9.102
 2639POPC   C1A35991  29.248  22.250   8.719
 2639POPC   D2A35992  29.135  22.605   8.409
 2639POPC   C3A35993  29.179  22.530   7.953
 2639POPC   C4A35994  29.095  22.365   7.529
 2639POPC   C1B35995  29.357  21.758   8.869
 2639POPC   C2B35996  29.190  21.795   8.475
 2639POPC   C3B35997  29.260  22.054   8.160
 2639POPC   C4B35998  28.966  22.022   7.889
 2640POPC   NC335999  11.167  27.280   9.630
 2640POPC   PO436000  11.607  26.763   9.610
 2640POPC   GL136001  11.391  26.806   9.254
 2640POPC   GL236002  11.455  27.158   9.216
 2640POPC   C1A36003  11.391  26.678   8.842
 2640POPC   D2A36004  11.219  26.705   8.453
 2640POPC   C3A36005  11.463  26.530   8.118
 2640POPC   C4A36006  11.335  26.395   7.726
 2640POPC   C1B36007  11.145  27.105   8.861
 2640POPC   C2B36008  11.195  27.214   8.433
 2640POPC   C3B36009  11.364  27.054   8.058
 2640POPC   C4B36010  11.275  27.160   7.636
 2641POPC   NC336011   9.769  39.139   9.557
 2641POPC   PO436012   9.228  39.342   9.510
 2641POPC   GL136013   9.444  39.044   9.185
 2641POPC   GL236014   9.815  38.886   9.131
 2641POPC   C1A36015   9.642  39.264   8.838
 2641POPC   D2A36016   9.466  39.354   8.450
 2641POPC   C3A36017   9.674  39.412   8.045
 2641POPC   C4A36018   9.563  39.418   7.606
 2641POPC   C1B36019  10.035  38.943   8.765
 2641POPC   C2B36020   9.940  39.082   8.358
 2641POPC   C3B36021  10.189  39.240   8.013
 2641POPC   C4B36022  10.261  39.006   7.602
 2642POPC   NC336023   2.247   0.980   9.395
 2642POPC   PO436024   2.863   1.413   9.471
 2642POPC   GL136025   2.737   1.215   9.137
 2642POPC   GL236026   2.592   1.520   9.028
 2642POPC   C1A36027   2.933   1.227   8.736
 2642POPC   D2A36028   2.721   1.083   8.397
 2642POPC   C3A36029   2.840   1.227   8.005
 2642POPC   C4A36030   3.014   0.978   7.740
 2642POPC   C1B36031   2.378   1.322   8.682
 2642POPC   C2B36032   2.290   1.296   8.228
 2642POPC   C3B36033   2.377   1.173   7.805
 2642POPC   C4B36034   2.701   1.347   7.516
 2643POPC   NC336035   4.460  40.464   9.450
 2643POPC   PO436036   4.121  41.075   9.552
 2643POPC   GL136037   4.148  40.805   9.200
 2643POPC   GL236038   4.027  41.050   9.022
 2643POPC   C1A36039   4.347  40.609   8.816
 2643POPC   D2A36040   4.519  40.686   8.397
 2643POPC   C3A36041   4.394  40.475   8.033
 2643POPC   C4A36042   4.102  40.424   7.659
 2643POPC   C1B36043   4.356  41.110   8.770
 2643POPC   C2B36044   4.475  41.191   8.411
 2643POPC   C3B36045   4.303  41.060   8.068
 2643POPC   C4B36046   4.310  40.861   7.694
 2644POPC   NC336047  27.773   5.417   9.804
 2644POPC   PO436048  27.893   4.830   9.514
 2644POPC   GL136049  27.825   4.910   9.095
 2644POPC   GL236050  27.468   4.951   9.099
 2644POPC   C1A36051  27.835   5.005   8.651
 2644POPC   D2A36052  28.013   5.335   8.398
 2644POPC   C3A36053  27.929   5.316   7.946
 2644POPC   C4A36054  27.706   4.960   7.752
 2644POPC   C1B36055  27.423   5.277   8.770
 2644POPC   C2B36056  27.518   5.252   8.287
 2644POPC   C3B36057  27.311   5.228   7.875
 2644POPC   C4B36058  27.297   5.303   7.402
 2645POPC   NC336059   7.438  44.323   9.827
 2645POPC   PO436060   7.342  43.797   9.411
 2645POPC   GL136061   7.194  43.929   9.061
 2645POPC   GL236062   7.044  43.601   8.982
 2645POPC   C1A36063   7.269  44.229   8.741
 2645POPC   D2A36064   7.047  44.299   8.372
 2645POPC   C3A36065   7.283  44.065   8.055
 2645POPC   C4A36066   7.644  44.045   7.771
 2645POPC   C1B36067   7.242  43.728   8.589
 2645POPC   C2B36068   7.512  43.545   8.315
 2645POPC   C3B36069   7.470  43.591   7.908
 2645POPC   C4B36070   7.095  43.729   7.668
 2646POPC   NC336071  35.436   4.282   9.448
 2646POPC   PO436072  35.103   4.817   9.241
 2646POPC   GL136073  35.426   4.643   9.010
 2646POPC   GL236074  35.593   4.333   8.968
 2646POPC   C1A36075  35.485   4.647   8.575
 2646POPC   D2A36076  35.598   4.295   8.356
 2646POPC   C3A36077  35.304   4.395   8.052
 2646POPC   C4A36078  35.311   4.625   7.674
 2646POPC   C1B36079  35.363   4.025   8.794
 2646POPC   C2B36080  35.177   4.004   8.403
 2646POPC   C3B36081  35.242   3.896   7.983
 2646POPC   C4B36082  35.564   4.076   7.688
 2647POPC   NC336083  44.081  19.061   9.673
 2647POPC   PO436084  43.516  19.456   9.630
 2647POPC   GL136085  43.673  19.109   9.310
 2647POPC   GL236086  44.051  19.048   9.167
 2647POPC   C1A36087  43.662  19.018   8.855
 2647POPC   D2A36088  43.748  18.863   8.420
 2647POPC   C3A36089  43.818  19.173   8.066
 2647POPC   C4A36090  43.589  19.214   7.661
 2647POPC   C1B36091  44.117  18.761   8.797
 2647POPC   C2B36092  44.237  18.741   8.356
 2647POPC   C3B36093  44.011  18.687   7.931
 2647POPC   C4B36094  43.984  18.708   7.452
 2648POPC   NC336095  44.793   6.450   9.465
 2648POPC   PO436096  44.394   6.917   9.577
 2648POPC   GL136097  44.511   6.772   9.162
 2648POPC   GL236098  44.797   6.944   9.064
 2648POPC   C1A36099  44.455   6.570   8.742
 2648POPC   D2A36100  44.387   6.328   8.341
 2648POPC   C3A36101  44.588   6.582   8.032
 2648POPC   C4A36102  44.512   6.794   7.640
 2648POPC   C1B36103  44.937   7.087   8.678
 2648POPC   C2B36104  44.981   6.861   8.290
 2648POPC   C3B36105  44.929   6.989   7.879
 2648POPC   C4B36106  44.956   6.910   7.430
 2649POPC   NC336107  14.987  31.202   9.518
 2649POPC   PO436108  15.491  31.636   9.485
 2649POPC   GL136109  15.317  31.439   9.099
 2649POPC   GL236110  14.995  31.308   9.032
 2649POPC   C1A36111  15.250  31.520   8.639
 2649POPC   D2A36112  15.343  31.288   8.269
 2649POPC   C3A36113  15.132  31.440   7.920
 2649POPC   C4A36114  15.102  31.299   7.468
 2649POPC   C1B36115  14.761  31.134   8.680
 2649POPC   C2B36116  14.761  31.253   8.236
 2649POPC   C3B36117  14.713  31.181   7.776
 2649POPC   C4B36118  14.606  31.242   7.316
 2650POPC   NC336119  20.089  22.235   9.616
 2650POPC   PO436120  20.600  21.931   9.577
 2650POPC   GL136121  20.612  22.106   9.179
 2650POPC   GL236122  20.832  21.826   9.093
 2650POPC   C1A36123  20.567  22.313   8.788
 2650POPC   D2A36124  20.759  22.322   8.389
 2650POPC   C3A36125  20.600  22.457   7.992
 2650POPC   C4A36126  20.718  22.255   7.610
 2650POPC   C1B36127  20.484  21.792   8.792
 2650POPC   C2B36128  20.564  21.812   8.367
 2650POPC   C3B36129  20.528  21.913   7.956
 2650POPC   C4B36130  20.933  21.775   7.831
 2651POPC   NC336131  23.580  36.141   9.422
 2651POPC   PO436132  24.193  36.213   9.434
 2651POPC   GL136133  23.940  36.189   9.071
 2651POPC   GL236134  23.733  35.910   9.012
 2651POPC   C1A36135  23.758  36.330   8.704
 2651POPC   D2A36136  23.770  36.539   8.319
 2651POPC   C3A36137  23.719  36.269   7.958
 2651POPC   C4A36138  23.628  36.423   7.547
 2651POPC   C1B36139  23.781  35.698   8.647
 2651POPC   C2B36140  23.673  35.821   8.253
 2651POPC   C3B36141  23.768  35.765   7.839
 2651POPC   C4B36142  23.910  36.015   7.513
 2652POPC   NC336143  22.601  29.532   9.577
 2652POPC   PO436144  21.971  29.155   9.554
 2652POPC   GL136145  22.061  29.177   9.151
 2652POPC   GL236146  22.215  29.497   9.205
 2652POPC   C1A36147  22.098  29.223   8.725
 2652POPC   D2A36148  22.002  29.056   8.348
 2652POPC   C3A36149  22.057  29.353   8.013
 2652POPC   C4A36150  22.152  29.165   7.600
 2652POPC   C1B36151  22.556  29.480   8.891
 2652POPC   C2B36152  22.463  29.448   8.445
 2652POPC   C3B36153  22.606  29.425   8.045
 2652POPC   C4B36154  22.434  29.575   7.684
 2653POPC   NC336155  38.025  10.208   9.445
 2653POPC   PO436156  38.481  10.805   9.499
 2653POPC   GL136157  38.552  10.498   9.154
 2653POPC   GL236158  38.224  10.500   9.069
 2653POPC   C1A36159  38.656  10.274   8.746
 2653POPC   D2A36160  38.523  10.430   8.357
 2653POPC   C3A36161  38.702  10.507   7.943
 2653POPC   C4A36162  38.569  10.421   7.513
 2653POPC   C1B36163  38.260  10.735   8.692
 2653POPC   C2B36164  38.148  10.737   8.245
 2653POPC   C3B36165  38.230  10.749   7.814
 2653POPC   C4B36166  38.081  10.904   7.439
 2654POPC   NC336167  25.073  39.611   9.495
 2654POPC   PO436168  25.381  39.070   9.544
 2654POPC   GL136169  25.363  39.150   9.125
 2654POPC   GL236170  25.083  39.322   9.061
 2654POPC   C1A36171  25.531  39.289   8.734
 2654POPC   D2A36172  25.443  39.153   8.335
 2654POPC   C3A36173  25.577  39.323   7.946
 2654POPC   C4A36174  25.330  38.962   7.809
 2654POPC   C1B36175  25.069  39.018   8.714
 2654POPC   C2B36176  24.901  38.987   8.285
 2654POPC   C3B36177  24.835  39.160   7.871
 2654POPC   C4B36178  24.978  39.066   7.434
 2655POPC   NC336179  44.444  18.651   9.402
 2655POPC   PO436180  44.667  18.019   9.516
 2655POPC   GL136181  44.746  18.300   9.156
 2655POPC   GL236182  44.923  18.637   9.206
 2655POPC   C1A36183  44.534  18.423   8.778
 2655POPC   D2A36184  44.426  18.265   8.383
 2655POPC   C3A36185  44.458  18.441   8.001
 2655POPC   C4A36186  44.563  18.092   7.852
 2655POPC   C1B36187   0.009  18.612   8.758
 2655POPC   C2B36188  44.780  18.644   8.368
 2655POPC   C3B36189  44.939  18.626   7.958
 2655POPC   C4B36190  44.840  18.443   7.581
 2656POPC   NC336191  24.287  24.700   9.341
 2656POPC   PO436192  24.213  24.083   9.344
 2656POPC   GL136193  24.454  24.316   9.039
 2656POPC   GL236194  24.751  24.482   9.187
 2656POPC   C1A36195  24.320  24.490   8.647
 2656POPC   D2A36196  24.067  24.399   8.278
 2656POPC   C3A36197  24.314  24.610   8.000
 2656POPC   C4A36198  24.515  24.347   7.724
 2656POPC   C1B36199  24.835  24.637   8.754
 2656POPC   C2B36200  24.717  24.679   8.331
 2656POPC   C3B36201  24.754  24.881   7.893
 2656POPC   C4B36202  24.774  24.692   7.454
 2657POPC   NC336203  25.309  33.316   9.510
 2657POPC   PO436204  24.993  32.739   9.623
 2657POPC   GL136205  25.169  32.950   9.152
 2657POPC   GL236206  25.492  32.841   8.974
 2657POPC   C1A36207  25.177  33.128   8.678
 2657POPC   D2A36208  25.116  33.339   8.257
 2657POPC   C3A36209  24.889  33.073   7.978
 2657POPC   C4A36210  25.090  32.783   7.752
 2657POPC   C1B36211  25.673  33.212   8.793
 2657POPC   C2B36212  25.668  33.266   8.363
 2657POPC   C3B36213  25.572  33.083   7.996
 2657POPC   C4B36214  25.772  33.081   7.588
 2658POPC   NC336215  23.104   2.528   9.698
 2658POPC   PO436216  22.607   2.989   9.520
 2658POPC   GL136217  22.754   2.806   9.138
 2658POPC   GL236218  23.030   3.006   8.944
 2658POPC   C1A36219  22.868   2.557   8.784
 2658POPC   D2A36220  22.842   2.630   8.387
 2658POPC   C3A36221  22.905   2.441   7.998
 2658POPC   C4A36222  22.750   2.703   7.656
 2658POPC   C1B36223  23.269   2.907   8.607
 2658POPC   C2B36224  23.301   2.786   8.175
 2658POPC   C3B36225  23.172   3.019   7.805
 2658POPC   C4B36226  23.297   3.051   7.386
 2659POPC   NC336227  23.645   7.039   9.459
 2659POPC   PO436228  24.195   6.600   9.441
 2659POPC   GL136229  23.774   6.626   9.186
 2659POPC   GL236230  23.544   6.341   9.270
 2659POPC   C1A36231  23.630   6.720   8.751
 2659POPC   D2A36232  23.862   6.644   8.350
 2659POPC   C3A36233  23.668   6.719   7.976
 2659POPC   C4A36234  23.653   6.973   7.635
 2659POPC   C1B36235  23.460   6.159   8.844
 2659POPC   C2B36236  23.465   6.298   8.410
 2659POPC   C3B36237  23.272   6.404   8.024
 2659POPC   C4B36238  23.315   6.553   7.613
 2660POPC   NC336239  22.543   7.939   9.569
 2660POPC   PO436240  22.073   8.451   9.643
 2660POPC   GL136241  22.153   8.177   9.302
 2660POPC   GL236242  22.264   8.469   9.137
 2660POPC   C1A36243  22.283   7.989   8.892
 2660POPC   D2A36244  22.400   7.877   8.454
 2660POPC   C3A36245  22.311   8.083   8.055
 2660POPC   C4A36246  22.492   8.240   7.677
 2660POPC   C1B36247  21.918   8.355   8.872
 2660POPC   C2B36248  22.022   8.268   8.461
 2660POPC   C3B36249  22.075   8.566   8.120
 2660POPC   C4B36250  22.049   8.476   7.688
 2661POPC   NC336251   3.318   9.797   9.472
 2661POPC   PO436252   3.968   9.810   9.449
 2661POPC   GL136253   3.764   9.635   9.099
 2661POPC   GL236254   3.400   9.506   9.049
 2661POPC   C1A36255   3.632   9.794   8.706
 2661POPC   D2A36256   3.657  10.006   8.336
 2661POPC   C3A36257   3.727   9.747   8.004
 2661POPC   C4A36258   3.425   9.981   7.826
 2661POPC   C1B36259   3.314   9.332   8.612
 2661POPC   C2B36260   3.285   9.524   8.164
 2661POPC   C3B36261   3.338   9.522   7.664
 2661POPC   C4B36262   3.445   9.494   7.199
 2662POPC   NC336263  44.382  40.481   9.391
 2662POPC   PO436264  44.709  41.117   9.451
 2662POPC   GL136265  44.808  40.747   9.166
 2662POPC   GL236266   0.044  40.479   9.277
 2662POPC   C1A36267  44.580  40.652   8.775
 2662POPC   D2A36268  44.527  40.318   8.479
 2662POPC   C3A36269  44.304  40.539   8.161
 2662POPC   C4A36270  44.519  40.814   7.858
 2662POPC   C1B36271  44.997  40.366   8.825
 2662POPC   C2B36272   0.025  40.573   8.401
 2662POPC   C3B36273  44.937  40.494   7.958
 2662POPC   C4B36274   0.059  40.611   7.529
 2663POPC   NC336275  38.447   0.640   9.528
 2663POPC   PO436276  38.765   0.140   9.464
 2663POPC   GL136277  38.491   0.327   9.103
 2663POPC   GL236278  38.332   0.691   9.049
 2663POPC   C1A36279  38.480   0.275   8.662
 2663POPC   D2A36280  38.769   0.482   8.341
 2663POPC   C3A36281  38.648   0.359   7.957
 2663POPC   C4A36282  38.343   0.102   7.873
 2663POPC   C1B36283  38.479   0.765   8.646
 2663POPC   C2B36284  38.270   0.565   8.241
 2663POPC   C3B36285  38.231   0.612   7.761
 2663POPC   C4B36286  38.020   0.722   7.342
 2664POPC   NC336287  34.274   6.900   9.451
 2664POPC   PO436288  34.879   6.624   9.404
 2664POPC   GL136289  34.712   6.581   9.027
 2664POPC   GL236290  34.363   6.535   9.078
 2664POPC   C1A36291  34.578   6.362   8.651
 2664POPC   D2A36292  34.281   6.534   8.345
 2664POPC   C3A36293  34.364   6.456   7.899
 2664POPC   C4A36294  34.732   6.519   7.544
 2664POPC   C1B36295  34.372   6.888   8.800
 2664POPC   C2B36296  34.278   7.088   8.431
 2664POPC   C3B36297  34.409   6.976   8.062
 2664POPC   C4B36298  34.414   6.885   7.650
 2665POPC   NC336299  43.690  11.277   9.407
 2665POPC   PO436300  44.267  11.374   9.695
 2665POPC   GL136301  44.117  11.337   9.155
 2665POPC   GL236302  43.819  11.591   9.046
 2665POPC   C1A36303  43.967  11.216   8.699
 2665POPC   D2A36304  44.116  11.151   8.257
 2665POPC   C3A36305  43.990  10.937   7.854
 2665POPC   C4A36306  43.810  11.150   7.476
 2665POPC   C1B36307  43.514  11.499   8.729
 2665POPC   C2B36308  43.694  11.519   8.305
 2665POPC   C3B36309  43.893  11.458   7.897
 2665POPC   C4B36310  43.901  11.668   7.486
 2666POPC   NC336311   2.537  18.171   9.549
 2666POPC   PO436312   2.952  18.618   9.373
 2666POPC   GL136313   2.659  18.422   9.132
 2666POPC   GL236314   2.670  18.060   9.056
 2666POPC   C1A36315   2.474  18.437   8.774
 2666POPC   D2A36316   2.555  18.071   8.511
 2666POPC   C3A36317   2.590  18.124   8.060
 2666POPC   C4A36318   2.732  18.169   7.619
 2666POPC   C1B36319   2.955  18.262   8.764
 2666POPC   C2B36320   3.055  18.162   8.337
 2666POPC   C3B36321   3.058  18.328   7.951
 2666POPC   C4B36322   3.064  18.567   7.593
 2667POPC   NC336323   2.059  14.122   9.758
 2667POPC   PO436324   1.882  14.710   9.479
 2667POPC   GL136325   1.837  14.291   9.295
 2667POPC   GL236326   2.124  14.131   9.205
 2667POPC   C1A36327   1.709  14.277   8.863
 2667POPC   D2A36328   1.826  14.571   8.515
 2667POPC   C3A36329   1.652  14.449   8.104
 2667POPC   C4A36330   1.844  14.323   7.736
 2667POPC   C1B36331   2.223  14.359   8.814
 2667POPC   C2B36332   2.266  14.300   8.352
 2667POPC   C3B36333   2.282  14.481   7.915
 2667POPC   C4B36334   2.281  14.306   7.458
 2668POPC   NC336335  16.932  31.912   9.507
 2668POPC   PO436336  16.727  32.606   9.481
 2668POPC   GL136337  16.671  32.236   9.198
 2668POPC   GL236338  16.313  32.140   9.191
 2668POPC   C1A36339  16.873  32.210   8.785
 2668POPC   D2A36340  16.892  32.527   8.448
 2668POPC   C3A36341  16.884  32.334   8.031
 2668POPC   C4A36342  17.186  32.461   7.750
 2668POPC   C1B36343  16.375  32.279   8.768
 2668POPC   C2B36344  16.569  32.130   8.389
 2668POPC   C3B36345  16.401  32.142   8.017
 2668POPC   C4B36346  16.479  32.302   7.619
 2669POPC   NC336347  29.474   5.140   9.499
 2669POPC   PO436348  28.820   5.205   9.522
 2669POPC   GL136349  29.041   5.074   9.132
 2669POPC   GL236350  29.355   5.242   9.011
 2669POPC   C1A36351  28.824   4.909   8.784
 2669POPC   D2A36352  28.693   4.680   8.407
 2669POPC   C3A36353  28.807   4.955   8.088
 2669POPC   C4A36354  28.984   4.856   7.726
 2669POPC   C1B36355  29.326   5.007   8.634
 2669POPC   C2B36356  29.308   5.064   8.190
 2669POPC   C3B36357  29.372   5.140   7.767
 2669POPC   C4B36358  29.376   4.793   7.414
 2670POPC   NC336359  17.709  34.308   9.500
 2670POPC   PO436360  17.450  34.865   9.673
 2670POPC   GL136361  17.500  34.690   9.238
 2670POPC   GL236362  17.793  34.548   9.062
 2670POPC   C1A36363  17.350  34.646   8.819
 2670POPC   D2A36364  17.383  34.426   8.433
 2670POPC   C3A36365  17.410  34.623   8.048
 2670POPC   C4A36366  17.326  34.465   7.637
 2670POPC   C1B36367  17.766  34.212   8.752
 2670POPC   C2B36368  17.732  34.073   8.302
 2670POPC   C3B36369  17.771  34.285   7.867
 2670POPC   C4B36370  17.676  34.175   7.407
 2671POPC   NC336371   3.272  40.200   9.490
 2671POPC   PO436372   3.975  40.241   9.522
 2671POPC   GL136373   3.733  40.192   9.151
 2671POPC   GL236374   3.446  40.393   9.064
 2671POPC   C1A36375   3.665  40.001   8.744
 2671POPC   D2A36376   3.375  39.855   8.407
 2671POPC   C3A36377   3.520  39.932   7.977
 2671POPC   C4A36378   3.372  39.744   7.573
 2671POPC   C1B36379   3.189  40.209   8.768
 2671POPC   C2B36380   2.963  40.181   8.387
 2671POPC   C3B36381   3.005  40.004   7.966
 2671POPC   C4B36382   3.232  40.224   7.673
 2672POPC   NC336383  34.978  22.887   9.557
 2672POPC   PO436384  35.553  23.119   9.369
 2672POPC   GL136385  35.248  22.936   9.127
 2672POPC   GL236386  35.090  23.265   9.128
 2672POPC   C1A36387  35.274  22.731   8.743
 2672POPC   D2A36388  35.181  22.522   8.391
 2672POPC   C3A36389  35.063  22.780   8.062
 2672POPC   C4A36390  35.152  22.661   7.636
 2672POPC   C1B36391  35.367  23.251   8.737
 2672POPC   C2B36392  35.417  23.064   8.310
 2672POPC   C3B36393  35.389  23.101   7.847
 2672POPC   C4B36394  35.396  23.026   7.370
 2673POPC   NC336395  10.113  26.689   9.810
 2673POPC   PO436396   9.594  26.943   9.439
 2673POPC   GL136397   9.694  26.825   9.036
 2673POPC   GL236398  10.002  26.754   9.177
 2673POPC   C1A36399   9.497  26.536   8.731
 2673POPC   D2A36400   9.225  26.519   8.380
 2673POPC   C3A36401   9.467  26.803   8.161
 2673POPC   C4A36402   9.588  27.002   7.829
 2673POPC   C1B36403  10.026  26.478   8.821
 2673POPC   C2B36404   9.904  26.605   8.402
 2673POPC   C3B36405  10.024  26.730   7.975
 2673POPC   C4B36406  10.081  27.092   7.724
 2674POPC   NC336407   2.815  22.419   9.882
 2674POPC   PO436408   2.515  22.418   9.281
 2674POPC   GL136409   2.970  22.355   9.225
 2674POPC   GL236410   3.080  21.997   9.206
 2674POPC   C1A36411   3.079  22.501   8.817
 2674POPC   D2A36412   2.707  22.472   8.537
 2674POPC   C3A36413   2.811  22.402   8.092
 2674POPC   C4A36414   2.579  22.273   7.720
 2674POPC   C1B36415   2.833  22.032   8.834
 2674POPC   C2B36416   3.003  22.034   8.445
 2674POPC   C3B36417   2.864  21.889   8.040
 2674POPC   C4B36418   3.041  22.090   7.674
 2675POPC   NC336419  10.916  41.040   9.824
 2675POPC   PO436420  10.404  40.607   9.584
 2675POPC   GL136421  10.386  40.683   9.124
 2675POPC   GL236422  10.114  40.453   9.094
 2675POPC   C1A36423  10.649  40.884   8.768
 2675POPC   D2A36424  10.700  41.194   8.416
 2675POPC   C3A36425  10.562  41.041   8.032
 2675POPC   C4A36426  10.821  40.750   7.874
 2675POPC   C1B36427  10.352  40.474   8.652
 2675POPC   C2B36428  10.366  40.538   8.181
 2675POPC   C3B36429  10.390  40.438   7.716
 2675POPC   C4B36430  10.567  40.280   7.320
 2676POPC   NC336431  36.878  24.511   9.526
 2676POPC   PO436432  37.412  24.462   9.158
 2676POPC   GL136433  36.987  24.379   9.028
 2676POPC   GL236434  36.685  24.580   9.070
 2676POPC   C1A36435  36.688  24.309   8.647
 2676POPC   D2A36436  36.607  24.590   8.276
 2676POPC   C3A36437  36.614  24.511   7.831
 2676POPC   C4A36438  36.724  24.310   7.422
 2676POPC   C1B36439  36.860  24.787   8.743
 2676POPC   C2B36440  37.079  24.752   8.357
 2676POPC   C3B36441  37.106  24.562   7.969
 2676POPC   C4B36442  36.982  24.749   7.569
 2677POPC   NC336443  37.658   8.570   9.617
 2677POPC   PO436444  37.603   9.194   9.767
 2677POPC   GL136445  37.621   9.070   9.328
 2677POPC   GL236446  37.303   8.920   9.338
 2677POPC   C1A36447  37.821   8.822   8.970
 2677POPC   D2A36448  37.704   8.876   8.523
 2677POPC   C3A36449  37.930   8.963   8.157
 2677POPC   C4A36450  37.971   8.837   7.735
 2677POPC   C1B36451  37.310   8.889   8.888
 2677POPC   C2B36452  37.286   8.601   8.520
 2677POPC   C3B36453  37.267   8.930   8.180
 2677POPC   C4B36454  37.532   9.094   7.829
 2678POPC   NC336455  36.504  43.279  10.091
 2678POPC   PO436456  35.948  43.075   9.668
 2678POPC   GL136457  36.060  43.093   9.218
 2678POPC   GL236458  36.299  43.369   9.097
 2678POPC   C1A36459  35.837  43.259   8.842
 2678POPC   D2A36460  35.923  43.134   8.418
 2678POPC   C3A36461  35.731  43.265   8.058
 2678POPC   C4A36462  35.972  43.103   7.757
 2678POPC   C1B36463  36.357  43.245   8.691
 2678POPC   C2B36464  36.436  43.324   8.270
 2678POPC   C3B36465  36.468  43.042   7.925
 2678POPC   C4B36466  36.438  42.769   7.560
 2679POPC   NC336467  34.561  34.048   9.483
 2679POPC   PO436468  34.201  33.448   9.467
 2679POPC   GL136469  34.394  33.659   9.154
 2679POPC   GL236470  34.751  33.671   9.183
 2679POPC   C1A36471  34.502  33.516   8.760
 2679POPC   D2A36472  34.670  33.375   8.411
 2679POPC   C3A36473  34.542  33.604   8.051
 2679POPC   C4A36474  34.266  33.780   7.717
 2679POPC   C1B36475  34.735  33.969   8.832
 2679POPC   C2B36476  34.831  33.879   8.406
 2679POPC   C3B36477  34.749  34.086   8.017
 2679POPC   C4B36478  34.665  34.128   7.585
 2680POPC   NC336479  33.771  22.559   9.426
 2680POPC   PO436480  33.296  22.193   9.683
 2680POPC   GL136481  33.544  22.138   9.226
 2680POPC   GL236482  33.558  22.404   9.007
 2680POPC   C1A36483  33.886  22.083   8.825
 2680POPC   D2A36484  33.733  21.971   8.378
 2680POPC   C3A36485  33.925  21.973   7.991
 2680POPC   C4A36486  34.121  21.851   7.623
 2680POPC   C1B36487  33.399  22.185   8.692
 2680POPC   C2B36488  33.294  22.237   8.282
 2680POPC   C3B36489  33.401  22.162   7.877
 2680POPC   C4B36490  33.444  22.252   7.444
 2681POPC   NC336491  31.965  43.020   9.547
 2681POPC   PO436492  32.547  43.450   9.643
 2681POPC   GL136493  32.427  43.122   9.280
 2681POPC   GL236494  32.526  42.768   9.218
 2681POPC   C1A36495  32.145  43.048   8.891
 2681POPC   D2A36496  31.912  43.279   8.564
 2681POPC   C3A36497  32.173  43.317   8.186
 2681POPC   C4A36498  32.032  43.226   7.769
 2681POPC   C1B36499  32.406  42.632   8.758
 2681POPC   C2B36500  32.442  42.902   8.355
 2681POPC   C3B36501  32.378  42.880   7.870
 2681POPC   C4B36502  32.383  42.802   7.377
 2682POPC   NC336503  12.305  34.114   9.314
 2682POPC   PO436504  11.830  33.684   9.576
 2682POPC   GL136505  11.876  33.790   9.158
 2682POPC   GL236506  12.190  33.639   9.110
 2682POPC   C1A36507  11.861  33.568   8.740
 2682POPC   D2A36508  12.016  33.737   8.350
 2682POPC   C3A36509  11.963  33.661   7.946
 2682POPC   C4A36510  11.884  34.054   7.732
 2682POPC   C1B36511  12.339  33.892   8.719
 2682POPC   C2B36512  12.537  33.879   8.315
 2682POPC   C3B36513  12.366  33.989   7.915
 2682POPC   C4B36514  12.267  33.777   7.553
 2683POPC   NC336515  24.430   3.617   9.584
 2683POPC   PO436516  25.032   3.602   9.393
 2683POPC   GL136517  24.719   3.778   9.179
 2683POPC   GL236518  24.502   3.472   9.116
 2683POPC   C1A36519  24.484   3.872   8.818
 2683POPC   D2A36520  24.541   3.851   8.397
 2683POPC   C3A36521  24.345   3.611   8.108
 2683POPC   C4A36522  24.524   3.626   7.706
 2683POPC   C1B36523  24.442   3.363   8.698
 2683POPC   C2B36524  24.701   3.319   8.354
 2683POPC   C3B36525  24.599   3.189   7.948
 2683POPC   C4B36526  24.277   3.161   7.685
 2684POPC   NC336527  33.605  14.651   9.379
 2684POPC   PO436528  33.156  14.183   9.629
 2684POPC   GL136529  32.992  14.484   9.214
 2684POPC   GL236530  33.251  14.605   9.046
 2684POPC   C1A36531  32.843  14.521   8.752
 2684POPC   D2A36532  32.756  14.251   8.392
 2684POPC   C3A36533  32.656  14.422   8.023
 2684POPC   C4A36534  32.755  14.255   7.630
 2684POPC   C1B36535  33.330  14.407   8.708
 2684POPC   C2B36536  33.258  14.175   8.384
 2684POPC   C3B36537  33.148  14.208   7.988
 2684POPC   C4B36538  33.185  13.868   7.758
 2685POPC   NC336539  17.018  13.289   9.678
 2685POPC   PO436540  16.642  12.770   9.407
 2685POPC   GL136541  16.474  12.831   9.026
 2685POPC   GL236542  16.495  13.181   8.963
 2685POPC   C1A36543  16.636  12.776   8.629
 2685POPC   D2A36544  16.938  12.941   8.373
 2685POPC   C3A36545  16.808  12.853   7.963
 2685POPC   C4A36546  16.596  12.551   7.705
 2685POPC   C1B36547  16.384  13.216   8.567
 2685POPC   C2B36548  16.430  13.075   8.190
 2685POPC   C3B36549  16.388  13.022   7.743
 2685POPC   C4B36550  16.428  13.012   7.301
 2686POPC   NC336551  22.819  41.939   9.499
 2686POPC   PO436552  23.039  42.569   9.714
 2686POPC   GL136553  22.932  42.500   9.276
 2686POPC   GL236554  22.690  42.778   9.271
 2686POPC   C1A36555  22.998  42.319   8.814
 2686POPC   D2A36556  23.149  42.189   8.366
 2686POPC   C3A36557  22.818  42.220   8.016
 2686POPC   C4A36558  22.766  42.056   7.555
 2686POPC   C1B36559  22.780  42.846   8.840
 2686POPC   C2B36560  22.768  42.653   8.414
 2686POPC   C3B36561  22.866  42.757   7.973
 2686POPC   C4B36562  22.789  42.573   7.557
 2687POPC   NC336563  26.149  27.738   9.464
 2687POPC   PO436564  25.686  27.203   9.462
 2687POPC   GL136565  25.802  27.538   9.152
 2687POPC   GL236566  25.743  27.942   9.190
 2687POPC   C1A36567  26.130  27.450   8.832
 2687POPC   D2A36568  26.259  27.539   8.402
 2687POPC   C3A36569  25.997  27.354   8.099
 2687POPC   C4A36570  26.196  27.313   7.737
 2687POPC   C1B36571  25.913  27.913   8.766
 2687POPC   C2B36572  25.834  27.825   8.323
 2687POPC   C3B36573  26.109  27.838   7.963
 2687POPC   C4B36574  26.053  27.958   7.545
 2688POPC   NC336575  37.473  36.261   9.398
 2688POPC   PO436576  36.937  35.976   9.606
 2688POPC   GL136577  37.024  35.980   9.140
 2688POPC   GL236578  37.330  36.035   8.931
 2688POPC   C1A36579  36.866  36.109   8.711
 2688POPC   D2A36580  37.006  36.325   8.316
 2688POPC   C3A36581  36.759  36.265   7.958
 2688POPC   C4A36582  36.903  36.450   7.607
 2688POPC   C1B36583  37.288  35.916   8.472
 2688POPC   C2B36584  36.980  35.818   8.141
 2688POPC   C3B36585  36.969  35.862   7.665
 2688POPC   C4B36586  37.003  35.727   7.193
 2689POPC   NC336587  20.317  44.527   9.534
 2689POPC   PO436588  20.927  44.793   9.476
 2689POPC   GL136589  20.646  44.666   9.172
 2689POPC   GL236590  20.426  44.944   9.215
 2689POPC   C1A36591  20.714  44.461   8.798
 2689POPC   D2A36592  20.793  44.613   8.415
 2689POPC   C3A36593  20.852  44.358   8.056
 2689POPC   C4A36594  20.588  44.432   7.719
 2689POPC   C1B36595  20.523  44.993   8.793
 2689POPC   C2B36596  20.379  44.909   8.401
 2689POPC   C3B36597  20.619  44.906   8.029
 2689POPC   C4B36598  20.544  44.909   7.628
 2690POPC   NC336599   8.615  10.356   9.518
 2690POPC   PO436600   7.993  10.687   9.532
 2690POPC   GL136601   8.301  10.576   9.178
 2690POPC   GL236602   8.450  10.857   8.998
 2690POPC   C1A36603   8.475  10.372   8.780
 2690POPC   D2A36604   8.295  10.442   8.350
 2690POPC   C3A36605   8.439  10.430   7.954
 2690POPC   C4A36606   8.488  10.361   7.524
 2690POPC   C1B36607   8.083  10.702   8.724
 2690POPC   C2B36608   7.956  10.814   8.264
 2690POPC   C3B36609   8.032  10.718   7.791
 2690POPC   C4B36610   8.235  10.946   7.415
 2691POPC   NC336611  21.802  13.668   9.223
 2691POPC   PO436612  21.471  13.690   9.778
 2691POPC   GL136613  21.346  13.855   9.342
 2691POPC   GL236614  21.312  13.523   9.168
 2691POPC   C1A36615  21.250  13.923   8.864
 2691POPC   D2A36616  21.468  13.851   8.461
 2691POPC   C3A36617  21.315  13.947   8.054
 2691POPC   C4A36618  21.438  13.889   7.639
 2691POPC   C1B36619  21.384  13.419   8.738
 2691POPC   C2B36620  21.621  13.374   8.340
 2691POPC   C3B36621  21.451  13.449   7.929
 2691POPC   C4B36622  21.100  13.222   7.869
 2692POPC   NC336623  19.622  10.969   9.419
 2692POPC   PO436624  20.003  10.537   9.798
 2692POPC   GL136625  20.040  10.720   9.300
 2692POPC   GL236626  19.755  10.637   9.067
 2692POPC   C1A36627  20.219  10.612   8.863
 2692POPC   D2A36628  19.991  10.512   8.490
 2692POPC   C3A36629  20.115  10.544   8.061
 2692POPC   C4A36630  20.293  10.404   7.660
 2692POPC   C1B36631  19.499  10.495   8.731
 2692POPC   C2B36632  19.248  10.609   8.387
 2692POPC   C3B36633  19.464  10.435   8.084
 2692POPC   C4B36634  19.687  10.577   7.778
 2693POPC   NC336635  33.733   2.872   9.657
 2693POPC   PO436636  34.266   2.498   9.510
 2693POPC   GL136637  34.041   2.707   9.155
 2693POPC   GL236638  33.632   2.750   9.159
 2693POPC   C1A36639  33.933   2.720   8.743
 2693POPC   D2A36640  34.000   2.532   8.347
 2693POPC   C3A36641  33.845   2.708   7.983
 2693POPC   C4A36642  33.902   2.576   7.589
 2693POPC   C1B36643  33.473   2.945   8.760
 2693POPC   C2B36644  33.683   3.012   8.372
 2693POPC   C3B36645  33.601   3.184   7.968
 2693POPC   C4B36646  33.602   2.986   7.587
 2694POPC   NC336647  28.673   3.855   9.583
 2694POPC   PO436648  28.131   3.515   9.504
 2694POPC   GL136649  28.443   3.549   9.229
 2694POPC   GL236650  28.227   3.376   9.021
 2694POPC   C1A36651  28.509   3.798   8.877
 2694POPC   D2A36652  28.570   3.641   8.470
 2694POPC   C3A36653  28.647   3.930   8.158
 2694POPC   C4A36654  28.403   3.736   7.818
 2694POPC   C1B36655  27.938   3.511   8.737
 2694POPC   C2B36656  27.839   3.354   8.356
 2694POPC   C3B36657  28.053   3.348   7.973
 2694POPC   C4B36658  27.968   3.564   7.587
 2695POPC   NC336659   2.769  26.387   9.895
 2695POPC   PO436660   2.882  25.875   9.494
 2695POPC   GL136661   2.715  25.897   9.110
 2695POPC   GL236662   2.955  26.082   8.939
 2695POPC   C1A36663   2.626  25.663   8.728
 2695POPC   D2A36664   2.926  25.787   8.368
 2695POPC   C3A36665   2.839  25.984   7.940
 2695POPC   C4A36666   2.737  25.886   7.487
 2695POPC   C1B36667   2.635  26.152   8.665
 2695POPC   C2B36668   2.651  26.290   8.308
 2695POPC   C3B36669   2.824  26.502   8.026
 2695POPC   C4B36670   2.624  26.396   7.629
 2696POPC   NC336671  43.296  39.695   9.582
 2696POPC   PO436672  42.996  40.233   9.541
 2696POPC   GL136673  42.919  39.946   9.192
 2696POPC   GL236674  43.267  39.965   9.108
 2696POPC   C1A36675  42.895  39.948   8.720
 2696POPC   D2A36676  43.192  40.077   8.350
 2696POPC   C3A36677  43.001  39.961   7.958
 2696POPC   C4A36678  43.060  39.725   7.588
 2696POPC   C1B36679  43.360  39.757   8.723
 2696POPC   C2B36680  43.587  39.746   8.344
 2696POPC   C3B36681  43.479  39.729   7.897
 2696POPC   C4B36682  43.577  39.766   7.425
 2697POPC   NC336683  25.402  13.358   9.362
 2697POPC   PO436684  24.832  13.748   9.480
 2697POPC   GL136685  24.976  13.793   9.070
 2697POPC   GL236686  25.335  13.871   9.131
 2697POPC   C1A36687  25.008  13.593   8.640
 2697POPC   D2A36688  25.382  13.412   8.416
 2697POPC   C3A36689  25.353  13.442   7.969
 2697POPC   C4A36690  24.896  13.440   7.853
 2697POPC   C1B36691  25.455  13.844   8.695
 2697POPC   C2B36692  25.279  13.918   8.272
 2697POPC   C3B36693  25.397  13.958   7.842
 2697POPC   C4B36694  25.434  13.893   7.375
 2698POPC   NC336695   8.394   2.351   9.479
 2698POPC   PO436696   7.946   2.807   9.727
 2698POPC   GL136697   8.131   2.699   9.217
 2698POPC   GL236698   8.348   2.985   9.047
 2698POPC   C1A36699   8.155   2.635   8.738
 2698POPC   D2A36700   8.193   2.831   8.322
 2698POPC   C3A36701   8.102   2.585   7.964
 2698POPC   C4A36702   8.385   2.265   7.844
 2698POPC   C1B36703   8.003   3.111   8.786
 2698POPC   C2B36704   7.731   3.047   8.425
 2698POPC   C3B36705   7.802   3.024   8.006
 2698POPC   C4B36706   8.212   3.079   7.808
 2699POPC   NC336707  38.089  17.701   9.408
 2699POPC   PO436708  38.424  17.278   9.807
 2699POPC   GL136709  38.509  17.213   9.330
 2699POPC   GL236710  38.483  17.558   9.139
 2699POPC   C1A36711  38.637  17.187   8.866
 2699POPC   D2A36712  38.320  17.357   8.574
 2699POPC   C3A36713  38.334  17.222   8.169
 2699POPC   C4A36714  38.444  17.496   7.835
 2699POPC   C1B36715  38.627  17.723   8.740
 2699POPC   C2B36716  38.739  17.545   8.300
 2699POPC   C3B36717  38.840  17.806   7.925
 2699POPC   C4B36718  38.644  17.816   7.490
 2700POPC   NC336719  19.409  16.531   9.952
 2700POPC   PO436720  18.997  16.655   9.510
 2700POPC   GL136721  18.939  16.656   9.115
 2700POPC   GL236722  18.610  16.538   9.108
 2700POPC   C1A36723  19.142  16.709   8.748
 2700POPC   D2A36724  19.157  16.494   8.367
 2700POPC   C3A36725  19.300  16.763   8.089
 2700POPC   C4A36726  19.297  16.834   7.672
 2700POPC   C1B36727  18.642  16.771   8.710
 2700POPC   C2B36728  18.868  16.988   8.368
 2700POPC   C3B36729  18.844  16.902   7.916
 2700POPC   C4B36730  18.906  17.100   7.499
 2701POPC   NC336731  10.733  35.061   9.633
 2701POPC   PO436732  10.277  35.478   9.654
 2701POPC   GL136733  10.590  35.436   9.308
 2701POPC   GL236734  10.555  35.091   9.160
 2701POPC   C1A36735  10.687  35.523   8.872
 2701POPC   D2A36736  10.794  35.633   8.445
 2701POPC   C3A36737  10.724  35.307   8.107
 2701POPC   C4A36738  10.520  35.206   7.683
 2701POPC   C1B36739  10.248  35.040   8.857
 2701POPC   C2B36740  10.395  35.160   8.473
 2701POPC   C3B36741  10.227  35.119   8.086
 2701POPC   C4B36742  10.006  35.084   7.695
 2702POPC   NC336743  30.008  42.865   9.521
 2702POPC   PO436744  29.962  43.572   9.506
 2702POPC   GL136745  30.061  43.260   9.178
 2702POPC   GL236746  29.740  43.104   9.108
 2702POPC   C1A36747  30.129  43.007   8.800
 2702POPC   D2A36748  29.947  42.995   8.371
 2702POPC   C3A36749  30.164  43.147   8.025
 2702POPC   C4A36750  30.344  42.960   7.664
 2702POPC   C1B36751  29.748  43.347   8.695
 2702POPC   C2B36752  29.647  43.410   8.235
 2702POPC   C3B36753  29.661  43.028   7.936
 2702POPC   C4B36754  29.790  42.908   7.499
 2703POPC   NC336755  32.061   2.525   9.459
 2703POPC   PO436756  32.710   2.795   9.466
 2703POPC   GL136757  32.345   2.852   9.183
 2703POPC   GL236758  32.066   3.084   9.274
 2703POPC   C1A36759  32.257   2.653   8.783
 2703POPC   D2A36760  32.376   2.299   8.522
 2703POPC   C3A36761  32.159   2.272   8.163
 2703POPC   C4A36762  32.304   2.420   7.787
 2703POPC   C1B36763  32.122   3.171   8.831
 2703POPC   C2B36764  32.069   2.982   8.437
 2703POPC   C3B36765  32.189   2.877   8.046
 2703POPC   C4B36766  32.030   3.135   7.735
 2704POPC   NC336767  29.829  29.573   9.411
 2704POPC   PO436768  30.372  30.039   9.503
 2704POPC   GL136769  30.147  30.041   9.160
 2704POPC   GL236770  30.318  29.714   9.078
 2704POPC   C1A36771  29.926  30.165   8.809
 2704POPC   D2A36772  29.889  30.058   8.401
 2704POPC   C3A36773  30.237  30.145   8.154
 2704POPC   C4A36774  30.185  30.263   7.736
 2704POPC   C1B36775  29.996  29.655   8.777
 2704POPC   C2B36776  29.870  29.555   8.369
 2704POPC   C3B36777  30.057  29.679   8.017
 2704POPC   C4B36778  30.124  29.557   7.616
 2705POPC   NC336779   7.119   4.054   9.494
 2705POPC   PO436780   7.635   4.427   9.745
 2705POPC   GL136781   7.637   4.291   9.262
 2705POPC   GL236782   7.358   4.300   9.101
 2705POPC   C1A36783   7.800   4.418   8.824
 2705POPC   D2A36784   7.620   4.551   8.429
 2705POPC   C3A36785   7.670   4.471   8.003
 2705POPC   C4A36786   7.305   4.384   7.805
 2705POPC   C1B36787   7.374   4.155   8.689
 2705POPC   C2B36788   7.198   4.242   8.288
 2705POPC   C3B36789   7.053   3.970   7.939
 2705POPC   C4B36790   7.194   4.008   7.491
 2706POPC   NC336791  18.153  24.062   9.494
 2706POPC   PO436792  18.749  23.761   9.517
 2706POPC   GL136793  18.442  23.642   9.251
 2706POPC   GL236794  18.444  23.938   9.094
 2706POPC   C1A36795  18.206  23.554   8.873
 2706POPC   D2A36796  18.286  23.713   8.481
 2706POPC   C3A36797  18.354  23.461   8.085
 2706POPC   C4A36798  18.077  23.476   7.694
 2706POPC   C1B36799  18.643  24.047   8.728
 2706POPC   C2B36800  18.480  24.187   8.356
 2706POPC   C3B36801  18.183  23.981   8.073
 2706POPC   C4B36802  17.899  23.963   7.743
 2707POPC   NC336803   9.488   5.454   9.512
 2707POPC   PO436804   9.753   6.108   9.616
 2707POPC   GL136805   9.739   6.034   9.154
 2707POPC   GL236806   9.581   5.722   9.073
 2707POPC   C1A36807   9.948   5.876   8.750
 2707POPC   D2A36808  10.018   5.856   8.290
 2707POPC   C3A36809   9.774   6.118   8.013
 2707POPC   C4A36810   9.657   6.003   7.597
 2707POPC   C1B36811   9.300   5.744   8.687
 2707POPC   C2B36812   9.355   5.824   8.223
 2707POPC   C3B36813   9.438   5.594   7.829
 2707POPC   C4B36814   9.343   5.669   7.387
 2708POPC   NC336815   0.683  19.806   9.621
 2708POPC   PO436816   0.022  19.888   9.717
 2708POPC   GL136817   0.190  20.020   9.307
 2708POPC   GL236818  44.934  20.015   9.067
 2708POPC   C1A36819   0.488  20.126   8.974
 2708POPC   D2A36820   0.685  20.251   8.558
 2708POPC   C3A36821   0.637  20.133   8.147
 2708POPC   C4A36822   0.642  20.113   7.731
 2708POPC   C1B36823   0.171  19.806   8.736
 2708POPC   C2B36824   0.208  19.919   8.330
 2708POPC   C3B36825   0.319  19.664   8.006
 2708POPC   C4B36826   0.198  19.798   7.625
 2709POPC   NC336827   3.838  17.773   9.721
 2709POPC   PO436828   3.409  17.342   9.589
 2709POPC   GL136829   3.523  17.634   9.260
 2709POPC   GL236830   3.833  17.487   9.231
 2709POPC   C1A36831   3.475  17.535   8.799
 2709POPC   D2A36832   3.680  17.460   8.398
 2709POPC   C3A36833   3.524  17.383   7.985
 2709POPC   C4A36834   3.369  17.520   7.553
 2709POPC   C1B36835   4.000  17.407   8.801
 2709POPC   C2B36836   4.168  17.371   8.355
 2709POPC   C3B36837   4.201  17.397   7.918
 2709POPC   C4B36838   3.879  17.402   7.613
 2710POPC   NC336839  22.254  31.168   9.527
 2710POPC   PO436840  22.323  31.721   9.834
 2710POPC   GL136841  22.282  31.603   9.274
 2710POPC   GL236842  22.487  31.268   9.103
 2710POPC   C1A36843  22.463  31.658   8.813
 2710POPC   D2A36844  22.606  31.543   8.390
 2710POPC   C3A36845  22.295  31.423   8.095
 2710POPC   C4A36846  22.366  31.310   7.673
 2710POPC   C1B36847  22.116  31.247   8.858
 2710POPC   C2B36848  21.928  31.307   8.473
 2710POPC   C3B36849  21.651  31.285   8.123
 2710POPC   C4B36850  21.762  31.407   7.708
 2711POPC   NC336851   4.441  28.007   9.426
 2711POPC   PO436852   4.206  28.602   9.509
 2711POPC   GL136853   4.189  28.476   9.073
 2711POPC   GL236854   4.538  28.365   9.040
 2711POPC   C1A36855   4.253  28.453   8.609
 2711POPC   D2A36856   4.235  28.288   8.177
 2711POPC   C3A36857   4.390  28.560   7.858
 2711POPC   C4A36858   4.248  28.681   7.430
 2711POPC   C1B36859   4.314  28.002   8.803
 2711POPC   C2B36860   4.373  27.759   8.442
 2711POPC   C3B36861   4.476  27.827   8.020
 2711POPC   C4B36862   4.246  27.966   7.698
 2712POPC   NC336863  11.100  28.820   9.438
 2712POPC   PO436864  11.605  29.263   9.583
 2712POPC   GL136865  11.379  29.199   9.204
 2712POPC   GL236866  10.990  29.274   9.198
 2712POPC   C1A36867  11.513  28.899   8.872
 2712POPC   D2A36868  11.354  28.826   8.460
 2712POPC   C3A36869  11.500  29.099   8.124
 2712POPC   C4A36870  11.531  29.056   7.666
 2712POPC   C1B36871  11.017  29.035   8.813
 2712POPC   C2B36872  10.999  29.188   8.393
 2712POPC   C3B36873  11.001  29.046   8.000
 2712POPC   C4B36874  11.000  29.143   7.577
 2713POPC   NC336875  25.283  34.088   9.577
 2713POPC   PO436876  25.033  33.606   9.771
 2713POPC   GL136877  25.111  33.753   9.251
 2713POPC   GL236878  25.290  33.496   9.039
 2713POPC   C1A36879  25.075  33.924   8.800
 2713POPC   D2A36880  24.837  33.719   8.467
 2713POPC   C3A36881  24.898  33.824   8.009
 2713POPC   C4A36882  24.813  33.948   7.561
 2713POPC   C1B36883  25.432  33.630   8.637
 2713POPC   C2B36884  25.317  33.828   8.280
 2713POPC   C3B36885  25.406  33.611   7.909
 2713POPC   C4B36886  25.245  33.283   7.671
 2714POPC   NC336887  20.549  34.961   9.823
 2714POPC   PO436888  20.649  35.507   9.426
 2714POPC   GL136889  20.440  35.601   9.047
 2714POPC   GL236890  20.704  35.394   8.937
 2714POPC   C1A36891  20.485  35.643   8.587
 2714POPC   D2A36892  20.801  35.485   8.357
 2714POPC   C3A36893  20.666  35.321   8.005
 2714POPC   C4A36894  20.631  35.540   7.651
 2714POPC   C1B36895  20.658  35.100   8.652
 2714POPC   C2B36896  20.954  34.987   8.338
 2714POPC   C3B36897  20.950  34.911   7.913
 2714POPC   C4B36898  20.698  35.027   7.562
 2715POPC   NC336899   9.255  21.669   9.646
 2715POPC   PO436900   9.857  21.281   9.631
 2715POPC   GL136901   9.891  21.315   9.183
 2715POPC   GL236902   9.600  21.525   9.144
 2715POPC   C1A36903   9.825  21.307   8.716
 2715POPC   D2A36904  10.040  21.246   8.295
 2715POPC   C3A36905   9.778  21.283   7.916
 2715POPC   C4A36906   9.481  21.114   7.665
 2715POPC   C1B36907   9.437  21.692   8.744
 2715POPC   C2B36908   9.581  21.540   8.322
 2715POPC   C3B36909   9.965  21.715   8.123
 2715POPC   C4B36910  10.103  21.890   7.735
 2716POPC   NC336911  30.233  41.968   9.908
 2716POPC   PO436912  30.012  42.401   9.458
 2716POPC   GL136913  29.893  42.601   9.094
 2716POPC   GL236914  29.755  42.282   9.004
 2716POPC   C1A36915  29.719  42.675   8.697
 2716POPC   D2A36916  29.590  42.320   8.459
 2716POPC   C3A36917  29.575  42.260   8.017
 2716POPC   C4A36918  29.855  42.525   7.799
 2716POPC   C1B36919  30.021  42.104   8.698
 2716POPC   C2B36920  30.194  41.985   8.337
 2716POPC   C3B36921  30.072  42.096   7.925
 2716POPC   C4B36922  30.076  42.192   7.461
 2717POPC   NC336923   5.059  29.500   9.466
 2717POPC   PO436924   4.632  29.056   9.625
 2717POPC   GL136925   5.007  28.986   9.312
 2717POPC   GL236926   5.375  29.139   9.285
 2717POPC   C1A36927   5.116  28.944   8.873
 2717POPC   D2A36928   4.997  29.105   8.481
 2717POPC   C3A36929   5.211  28.910   8.146
 2717POPC   C4A36930   5.261  29.086   7.731
 2717POPC   C1B36931   5.460  29.353   8.892
 2717POPC   C2B36932   5.493  29.269   8.449
 2717POPC   C3B36933   5.226  29.452   8.130
 2717POPC   C4B36934   5.237  29.677   7.739
 2718POPC   NC336935  28.934  29.679   9.444
 2718POPC   PO436936  29.027  29.032   9.286
 2718POPC   GL136937  29.191  29.131   8.967
 2718POPC   GL236938  29.300  29.465   9.077
 2718POPC   C1A36939  29.205  29.009   8.554
 2718POPC   D2A36940  29.502  28.994   8.226
 2718POPC   C3A36941  29.301  28.821   7.861
 2718POPC   C4A36942  28.846  28.944   7.886
 2718POPC   C1B36943  29.556  29.359   8.720
 2718POPC   C2B36944  29.356  29.463   8.341
 2718POPC   C3B36945  29.212  29.348   7.943
 2718POPC   C4B36946  29.337  29.605   7.632
 2719POPC   NC336947  21.593  34.068   9.393
 2719POPC   PO436948  21.530  33.403   9.413
 2719POPC   GL136949  21.541  33.665   9.089
 2719POPC   GL236950  21.202  33.821   9.140
 2719POPC   C1A36951  21.411  33.716   8.692
 2719POPC   D2A36952  21.160  33.483   8.453
 2719POPC   C3A36953  21.316  33.557   8.042
 2719POPC   C4A36954  21.471  33.943   7.879
 2719POPC   C1B36955  21.027  34.045   8.752
 2719POPC   C2B36956  21.158  34.005   8.320
 2719POPC   C3B36957  20.971  34.014   7.929
 2719POPC   C4B36958  21.132  34.081   7.515
 2720POPC   NC336959   0.303   2.351   9.535
 2720POPC   PO436960   0.556   1.681   9.452
 2720POPC   GL136961   0.369   1.962   9.172
 2720POPC   GL236962   0.630   2.217   9.166
 2720POPC   C1A36963   0.413   1.929   8.733
 2720POPC   D2A36964   0.313   2.106   8.339
 2720POPC   C3A36965   0.396   1.825   8.006
 2720POPC   C4A36966   0.297   1.956   7.577
 2720POPC   C1B36967   0.614   2.395   8.749
 2720POPC   C2B36968   0.810   2.241   8.356
 2720POPC   C3B36969   0.748   2.167   7.945
 2720POPC   C4B36970   0.395   2.369   7.858
 2721POPC   NC336971  26.198   5.376   9.418
 2721POPC   PO436972  25.979   5.923   9.775
 2721POPC   GL136973  25.994   5.897   9.300
 2721POPC   GL236974  26.341   5.856   9.228
 2721POPC   C1A36975  26.065   6.003   8.826
 2721POPC   D2A36976  26.348   6.076   8.438
 2721POPC   C3A36977  26.155   6.233   8.021
 2721POPC   C4A36978  25.742   6.114   7.803
 2721POPC   C1B36979  26.416   5.633   8.824
 2721POPC   C2B36980  26.433   5.513   8.382
 2721POPC   C3B36981  26.246   5.717   8.008
 2721POPC   C4B36982  26.332   5.680   7.595
 2722POPC   NC336983  31.730   3.463   9.567
 2722POPC   PO436984  31.039   3.485   9.433
 2722POPC   GL136985  31.426   3.490   9.171
 2722POPC   GL236986  31.703   3.760   9.163
 2722POPC   C1A36987  31.647   3.343   8.819
 2722POPC   D2A36988  31.584   3.146   8.444
 2722POPC   C3A36989  31.636   3.299   8.054
 2722POPC   C4A36990  31.625   3.421   7.649
 2722POPC   C1B36991  31.516   3.843   8.790
 2722POPC   C2B36992  31.496   3.675   8.385
 2722POPC   C3B36993  31.504   3.829   7.971
 2722POPC   C4B36994  31.727   3.923   7.583
 2723POPC   NC336995   9.496  33.502   9.570
 2723POPC   PO436996  10.060  33.864   9.662
 2723POPC   GL136997   9.839  33.765   9.261
 2723POPC   GL236998   9.968  33.435   9.205
 2723POPC   C1A36999   9.561  33.870   8.863
 2723POPC   D2A37000   9.619  34.168   8.502
 2723POPC   C3A37001   9.616  33.952   8.097
 2723POPC   C4A37002   9.368  34.059   7.730
 2723POPC   C1B37003   9.736  33.368   8.830
 2723POPC   C2B37004   9.595  33.532   8.440
 2723POPC   C3B37005   9.544  33.384   8.026
 2723POPC   C4B37006   9.637  33.621   7.700
 2724POPC   NC337007  12.338   5.596   9.252
 2724POPC   PO437008  11.905   5.975   9.671
 2724POPC   GL137009  11.971   5.994   9.190
 2724POPC   GL237010  12.300   6.055   9.000
 2724POPC   C1A37011  11.930   5.816   8.739
 2724POPC   D2A37012  11.808   5.640   8.326
 2724POPC   C3A37013  11.887   5.931   7.981
 2724POPC   C4A37014  11.828   6.375   7.952
 2724POPC   C1B37015  12.433   5.770   8.637
 2724POPC   C2B37016  12.297   5.773   8.241
 2724POPC   C3B37017  12.250   5.557   7.853
 2724POPC   C4B37018  12.168   5.469   7.412
 2725POPC   NC337019  33.110  38.479   9.741
 2725POPC   PO437020  33.193  37.877   9.520
 2725POPC   GL137021  33.143  38.251   9.279
 2725POPC   GL237022  32.775  38.281   9.291
 2725POPC   C1A37023  33.203  38.498   8.893
 2725POPC   D2A37024  33.398  38.497   8.476
 2725POPC   C3A37025  33.291  38.697   8.116
 2725POPC   C4A37026  33.160  38.512   7.744
 2725POPC   C1B37027  32.704  38.332   8.834
 2725POPC   C2B37028  32.865  38.568   8.456
 2725POPC   C3B37029  32.774  38.728   8.021
 2725POPC   C4B37030  32.716  38.710   7.550
 2726POPC   NC337031  23.088  34.598   9.714
 2726POPC   PO437032  22.712  34.225   9.275
 2726POPC   GL137033  23.102  34.386   9.095
 2726POPC   GL237034  23.153  34.732   9.195
 2726POPC   C1A37035  23.126  34.476   8.676
 2726POPC   D2A37036  22.758  34.468   8.463
 2726POPC   C3A37037  22.812  34.305   8.095
 2726POPC   C4A37038  22.707  34.586   7.813
 2726POPC   C1B37039  23.422  34.849   8.856
 2726POPC   C2B37040  23.537  34.783   8.420
 2726POPC   C3B37041  23.376  35.007   8.034
 2726POPC   C4B37042  23.138  34.833   7.696
 2727POPC   NC337043  42.956  29.169   9.542
 2727POPC   PO437044  43.552  29.128   9.784
 2727POPC   GL137045  43.368  29.209   9.271
 2727POPC   GL237046  43.075  28.990   9.081
 2727POPC   C1A37047  43.335  29.271   8.783
 2727POPC   D2A37048  43.129  29.017   8.464
 2727POPC   C3A37049  43.170  29.155   8.038
 2727POPC   C4A37050  43.458  29.033   7.745
 2727POPC   C1B37051  42.728  28.861   8.852
 2727POPC   C2B37052  42.631  28.979   8.423
 2727POPC   C3B37053  42.794  28.795   8.061
 2727POPC   C4B37054  42.981  28.841   7.663
 2728POPC   NC337055  20.090   9.444   9.436
 2728POPC   PO437056  20.761   9.206   9.518
 2728POPC   GL137057  20.719   9.121   9.095
 2728POPC   GL237058  20.379   9.189   9.095
 2728POPC   C1A37059  20.692   9.171   8.646
 2728POPC   D2A37060  20.890   9.125   8.251
 2728POPC   C3A37061  20.635   8.843   8.038
 2728POPC   C4A37062  20.589   8.751   7.602
 2728POPC   C1B37063  20.186   9.283   8.708
 2728POPC   C2B37064  20.182   9.323   8.260
 2728POPC   C3B37065  20.385   9.276   7.934
 2728POPC   C4B37066  20.319   9.182   7.542
 2729POPC   NC337067   5.420  28.188   9.493
 2729POPC   PO437068   6.109  28.454   9.566
 2729POPC   GL137069   6.027  28.248   9.188
 2729POPC   GL237070   5.709  28.369   9.083
 2729POPC   C1A37071   6.121  28.385   8.748
 2729POPC   D2A37072   6.177  28.319   8.294
 2729POPC   C3A37073   6.123  28.653   8.005
 2729POPC   C4A37074   6.005  28.646   7.586
 2729POPC   C1B37075   5.514  28.495   8.699
 2729POPC   C2B37076   5.671  28.630   8.302
 2729POPC   C3B37077   5.610  28.727   7.889
 2729POPC   C4B37078   5.505  28.508   7.538
 2730POPC   NC337079  39.655  39.244   9.430
 2730POPC   PO437080  40.243  38.936   9.542
 2730POPC   GL137081  40.139  39.172   9.168
 2730POPC   GL237082  39.827  39.132   8.977
 2730POPC   C1A37083  40.299  39.001   8.810
 2730POPC   D2A37084  40.418  39.126   8.445
 2730POPC   C3A37085  40.276  38.901   8.119
 2730POPC   C4A37086  40.103  39.078   7.757
 2730POPC   C1B37087  40.014  39.465   8.736
 2730POPC   C2B37088  39.884  39.561   8.318
 2730POPC   C3B37089  39.566  39.311   8.071
 2730POPC   C4B37090  39.607  39.156   7.631
 2731POPC   NC337091  20.137   3.609   9.666
 2731POPC   PO437092  19.469   3.488   9.688
 2731POPC   GL137093  19.789   3.470   9.296
 2731POPC   GL237094  20.022   3.225   9.354
 2731POPC   C1A37095  19.782   3.624   8.825
 2731POPC   D2A37096  19.587   3.677   8.395
 2731POPC   C3A37097  19.812   3.547   8.033
 2731POPC   C4A37098  19.665   3.393   7.653
 2731POPC   C1B37099  20.140   3.292   8.922
 2731POPC   C2B37100  20.133   3.438   8.489
 2731POPC   C3B37101  20.306   3.413   8.081
 2731POPC   C4B37102  20.114   3.153   7.745
 2732POPC   NC337103   2.136  21.181   9.533
 2732POPC   PO437104   1.643  21.659   9.526
 2732POPC   GL137105   1.931  21.583   9.179
 2732POPC   GL237106   2.251  21.390   9.098
 2732POPC   C1A37107   1.894  21.443   8.761
 2732POPC   D2A37108   1.761  21.326   8.375
 2732POPC   C3A37109   1.934  21.477   8.017
 2732POPC   C4A37110   1.824  21.370   7.572
 2732POPC   C1B37111   2.428  21.390   8.681
 2732POPC   C2B37112   2.289  21.206   8.290
 2732POPC   C3B37113   2.312  21.198   7.819
 2732POPC   C4B37114   2.409  21.351   7.421
 2733POPC   NC337115  44.199  40.085   9.712
 2733POPC   PO437116  43.737  39.591   9.684
 2733POPC   GL137117  43.756  39.915   9.311
 2733POPC   GL237118  44.029  40.164   9.220
 2733POPC   C1A37119  43.826  39.904   8.841
 2733POPC   D2A37120  44.011  39.563   8.587
 2733POPC   C3A37121  44.033  39.598   8.122
 2733POPC   C4A37122  43.988  39.835   7.725
 2733POPC   C1B37123  44.082  40.377   8.802
 2733POPC   C2B37124  44.013  40.150   8.418
 2733POPC   C3B37125  43.761  40.127   8.057
 2733POPC   C4B37126  43.836  40.358   7.697
 2734POPC   NC337127  34.517  43.097   9.506
 2734POPC   PO437128  35.149  43.261   9.524
 2734POPC   GL137129  34.856  43.261   9.156
 2734POPC   GL237130  34.614  42.997   9.027
 2734POPC   C1A37131  34.839  43.337   8.718
 2734POPC   D2A37132  34.638  43.399   8.298
 2734POPC   C3A37133  34.729  43.164   7.955
 2734POPC   C4A37134  34.695  43.153   7.497
 2734POPC   C1B37135  34.384  43.082   8.645
 2734POPC   C2B37136  34.361  42.889   8.222
 2734POPC   C3B37137  34.237  43.064   7.818
 2734POPC   C4B37138  34.063  42.860   7.423
 2735POPC   NC337139  26.591   0.230   9.817
 2735POPC   PO437140  26.914   0.786   9.666
 2735POPC   GL137141  26.721   0.593   9.244
 2735POPC   GL237142  27.011   0.518   9.097
 2735POPC   C1A37143  26.586   0.402   8.760
 2735POPC   D2A37144  26.645   0.100   8.382
 2735POPC   C3A37145  26.539   0.248   7.945
 2735POPC   C4A37146  26.554   0.348   7.466
 2735POPC   C1B37147  27.076   0.211   8.785
 2735POPC   C2B37148  27.293   0.246   8.414
 2735POPC   C3B37149  27.094   0.249   8.054
 2735POPC   C4B37150  26.974   0.507   7.729
 2736POPC   NC337151   8.234  34.714   9.467
 2736POPC   PO437152   8.249  34.033   9.509
 2736POPC   GL137153   8.271  34.326   9.110
 2736POPC   GL237154   8.524  34.590   9.061
 2736POPC   C1A37155   8.092  34.658   8.766
 2736POPC   D2A37156   7.840  34.990   8.493
 2736POPC   C3A37157   7.972  34.929   8.050
 2736POPC   C4A37158   8.041  34.559   7.801
 2736POPC   C1B37159   8.626  34.737   8.672
 2736POPC   C2B37160   8.381  34.698   8.302
 2736POPC   C3B37161   8.531  34.482   7.941
 2736POPC   C4B37162   8.508  34.476   7.499
 2737POPC   NC337163  27.031  14.277   9.454
 2737POPC   PO437164  26.848  14.909   9.481
 2737POPC   GL137165  26.788  14.618   9.130
 2737POPC   GL237166  26.522  14.813   9.002
 2737POPC   C1A37167  26.915  14.303   8.784
 2737POPC   D2A37168  26.923  14.069   8.362
 2737POPC   C3A37169  26.962  14.275   7.951
 2737POPC   C4A37170  26.624  14.326   7.647
 2737POPC   C1B37171  26.778  14.777   8.633
 2737POPC   C2B37172  26.748  14.661   8.205
 2737POPC   C3B37173  26.808  14.769   7.779
 2737POPC   C4B37174  26.711  14.731   7.316
 2738POPC   NC337175  14.000   5.384   9.774
 2738POPC   PO437176  13.560   4.965   9.526
 2738POPC   GL137177  13.469   5.214   9.163
 2738POPC   GL237178  13.688   4.990   9.015
 2738POPC   C1A37179  13.376   5.253   8.694
 2738POPC   D2A37180  13.501   4.973   8.376
 2738POPC   C3A37181  13.406   5.108   7.981
 2738POPC   C4A37182  13.521   5.035   7.567
 2738POPC   C1B37183  13.898   5.111   8.664
 2738POPC   C2B37184  14.016   4.946   8.312
 2738POPC   C3B37185  13.945   5.062   7.906
 2738POPC   C4B37186  13.753   5.434   7.788
 2739POPC   NC337187  40.198   8.728   9.471
 2739POPC   PO437188  40.066   9.398   9.605
 2739POPC   GL137189  39.965   9.175   9.229
 2739POPC   GL237190  40.278   9.058   9.087
 2739POPC   C1A37191  39.878   9.286   8.793
 2739POPC   D2A37192  39.640   9.385   8.406
 2739POPC   C3A37193  39.621   8.999   8.118
 2739POPC   C4A37194  39.832   8.683   7.882
 2739POPC   C1B37195  40.139   8.804   8.760
 2739POPC   C2B37196  40.027   8.964   8.390
 2739POPC   C3B37197  40.201   9.047   7.979
 2739POPC   C4B37198  40.443   9.190   7.612
 2740POPC   NC337199   1.394  20.517   9.437
 2740POPC   PO437200   0.851  20.934   9.254
 2740POPC   GL137201   1.227  20.765   9.028
 2740POPC   GL237202   1.476  21.018   9.056
 2740POPC   C1A37203   1.467  20.601   8.657
 2740POPC   D2A37204   1.162  20.497   8.292
 2740POPC   C3A37205   1.162  20.686   7.872
 2740POPC   C4A37206   0.835  20.521   7.516
 2740POPC   C1B37207   1.358  21.109   8.657
 2740POPC   C2B37208   1.449  20.935   8.269
 2740POPC   C3B37209   1.649  21.049   7.936
 2740POPC   C4B37210   1.633  20.823   7.605
 2741POPC   NC337211   1.436  16.120   9.583
 2741POPC   PO437212   0.788  15.820   9.510
 2741POPC   GL137213   1.058  16.006   9.227
 2741POPC   GL237214   1.320  15.768   9.204
 2741POPC   C1A37215   1.262  16.143   8.832
 2741POPC   D2A37216   1.536  16.201   8.462
 2741POPC   C3A37217   1.310  16.082   8.090
 2741POPC   C4A37218   0.959  15.967   7.855
 2741POPC   C1B37219   1.560  15.756   8.826
 2741POPC   C2B37220   1.365  15.699   8.449
 2741POPC   C3B37221   1.232  15.562   8.053
 2741POPC   C4B37222   1.476  15.704   7.737
 2742POPC   NC337223  20.085  25.547   9.644
 2742POPC   PO437224  19.449  25.251   9.522
 2742POPC   GL137225  19.823  25.396   9.234
 2742POPC   GL237226  19.997  25.081   9.202
 2742POPC   C1A37227  20.126  25.366   8.827
 2742POPC   D2A37228  20.009  25.131   8.433
 2742POPC   C3A37229  19.994  25.362   8.047
 2742POPC   C4A37230  19.883  25.347   7.634
 2742POPC   C1B37231  19.664  25.092   8.847
 2742POPC   C2B37232  19.509  24.936   8.448
 2742POPC   C3B37233  19.662  24.987   8.018
 2742POPC   C4B37234  19.455  25.057   7.640
 2743POPC   NC337235  32.796  33.237   9.369
 2743POPC   PO437236  33.323  33.083   9.774
 2743POPC   GL137237  33.194  32.853   9.329
 2743POPC   GL237238  32.817  32.781   9.151
 2743POPC   C1A37239  33.239  32.839   8.878
 2743POPC   D2A37240  33.229  32.967   8.453
 2743POPC   C3A37241  32.983  32.771   8.144
 2743POPC   C4A37242  32.890  33.033   7.789
 2743POPC   C1B37243  32.789  33.067   8.731
 2743POPC   C2B37244  32.840  33.303   8.276
 2743POPC   C3B37245  32.700  33.507   7.868
 2743POPC   C4B37246  32.543  33.319   7.483
 2744POPC   NC337247  37.448  23.690   9.496
 2744POPC   PO437248  38.105  23.626   9.436
 2744POPC   GL137249  37.830  23.792   9.126
 2744POPC   GL237250  37.518  23.962   9.079
 2744POPC   C1A37251  37.751  23.597   8.736
 2744POPC   D2A37252  37.965  23.417   8.355
 2744POPC   C3A37253  37.819  23.639   8.003
 2744POPC   C4A37254  37.751  23.496   7.575
 2744POPC   C1B37255  37.611  24.093   8.681
 2744POPC   C2B37256  37.525  23.941   8.328
 2744POPC   C3B37257  37.395  24.121   8.002
 2744POPC   C4B37258  37.489  23.906   7.701
 2745POPC   NC337259  39.594   9.419   9.742
 2745POPC   PO437260  39.920   9.969   9.450
 2745POPC   GL137261  40.048   9.685   9.148
 2745POPC   GL237262  40.338   9.861   9.044
 2745POPC   C1A37263  39.957   9.805   8.716
 2745POPC   D2A37264  40.284   9.970   8.463
 2745POPC   C3A37265  40.053   9.976   8.109
 2745POPC   C4A37266  39.832   9.917   7.737
 2745POPC   C1B37267  40.362   9.494   8.751
 2745POPC   C2B37268  40.161   9.459   8.335
 2745POPC   C3B37269  40.245   9.560   7.891
 2745POPC   C4B37270  40.229   9.638   7.420
 2746POPC   NC337271  43.678  36.573   9.522
 2746POPC   PO437272  43.825  35.905   9.638
 2746POPC   GL137273  43.819  36.068   9.156
 2746POPC   GL237274  43.828  36.425   9.055
 2746POPC   C1A37275  43.843  36.066   8.663
 2746POPC   D2A37276  43.814  35.907   8.208
 2746POPC   C3A37277  44.114  35.964   7.837
 2746POPC   C4A37278  43.993  35.981   7.392
 2746POPC   C1B37279  43.652  36.536   8.646
 2746POPC   C2B37280  43.798  36.437   8.226
 2746POPC   C3B37281  43.716  36.272   7.809
 2746POPC   C4B37282  43.889  36.482   7.427
 2747POPC   NC337283  42.015  10.517   9.325
 2747POPC   PO437284  42.343  10.101   9.835
 2747POPC   GL137285  42.330  10.086   9.357
 2747POPC   GL237286  42.542  10.333   9.222
 2747POPC   C1A37287  42.234  10.154   8.870
 2747POPC   D2A37288  42.330  10.508   8.567
 2747POPC   C3A37289  42.282  10.425   8.123
 2747POPC   C4A37290  42.007  10.415   7.755
 2747POPC   C1B37291  42.726  10.270   8.801
 2747POPC   C2B37292  42.815  10.406   8.375
 2747POPC   C3B37293  42.752  10.457   7.942
 2747POPC   C4B37294  42.470  10.621   7.667
 2748POPC   NC337295   3.803   5.000   9.376
 2748POPC   PO437296   3.151   5.148   9.439
 2748POPC   GL137297   3.371   4.994   9.110
 2748POPC   GL237298   3.540   5.332   9.107
 2748POPC   C1A37299   3.595   4.941   8.724
 2748POPC   D2A37300   3.497   5.187   8.345
 2748POPC   C3A37301   3.528   4.949   7.971
 2748POPC   C4A37302   3.447   4.983   7.556
 2748POPC   C1B37303   3.247   5.350   8.767
 2748POPC   C2B37304   3.017   5.373   8.380
 2748POPC   C3B37305   3.140   5.330   7.935
 2748POPC   C4B37306   3.084   5.338   7.442
 2749POPC   NC337307  27.001  15.336   9.503
 2749POPC   PO437308  26.391  15.515   9.352
 2749POPC   GL137309  26.681  15.334   9.065
 2749POPC   GL237310  26.973  15.099   9.030
 2749POPC   C1A37311  26.689  15.291   8.633
 2749POPC   D2A37312  26.490  15.093   8.335
 2749POPC   C3A37313  26.568  15.160   7.971
 2749POPC   C4A37314  26.443  15.066   7.572
 2749POPC   C1B37315  27.172  15.123   8.614
 2749POPC   C2B37316  27.021  15.085   8.207
 2749POPC   C3B37317  27.047  15.269   7.796
 2749POPC   C4B37318  26.901  15.191   7.404
 2750POPC   NC337319  22.602   5.169   9.379
 2750POPC   PO437320  23.291   5.185   9.462
 2750POPC   GL137321  23.042   5.167   9.094
 2750POPC   GL237322  23.143   5.404   8.854
 2750POPC   C1A37323  22.747   5.082   8.735
 2750POPC   D2A37324  22.484   5.223   8.377
 2750POPC   C3A37325  22.625   5.120   7.959
 2750POPC   C4A37326  22.627   4.778   7.710
 2750POPC   C1B37327  23.267   4.997   8.658
 2750POPC   C2B37328  23.092   5.044   8.235
 2750POPC   C3B37329  23.114   5.335   7.873
 2750POPC   C4B37330  23.191   5.539   7.479
 2751POPC   NC337331  20.517  42.660   9.700
 2751POPC   PO437332  20.993  42.255   9.727
 2751POPC   GL137333  20.716  42.308   9.308
 2751POPC   GL237334  20.959  42.484   9.113
 2751POPC   C1A37335  20.573  42.374   8.799
 2751POPC   D2A37336  20.264  42.338   8.431
 2751POPC   C3A37337  20.375  42.352   7.984
 2751POPC   C4A37338  20.205  42.186   7.585
 2751POPC   C1B37339  21.068  42.375   8.660
 2751POPC   C2B37340  21.136  42.551   8.240
 2751POPC   C3B37341  20.989  42.428   7.853
 2751POPC   C4B37342  20.673  42.504   7.567
 2752POPC   NC337343  21.512  34.802   9.608
 2752POPC   PO437344  21.173  34.250   9.486
 2752POPC   GL137345  21.257  34.362   9.083
 2752POPC   GL237346  21.508  34.615   9.123
 2752POPC   C1A37347  21.413  34.348   8.651
 2752POPC   D2A37348  21.612  34.282   8.254
 2752POPC   C3A37349  21.314  34.418   7.923
 2752POPC   C4A37350  21.459  34.539   7.509
 2752POPC   C1B37351  21.578  34.841   8.719
 2752POPC   C2B37352  21.412  34.757   8.298
 2752POPC   C3B37353  21.454  34.912   7.884
 2752POPC   C4B37354  21.745  35.199   7.933
 2753POPC   NC337355   0.160  10.468   9.576
 2753POPC   PO437356   0.760  10.849   9.580
 2753POPC   GL137357   0.643  10.576   9.234
 2753POPC   GL237358   0.307  10.675   9.151
 2753POPC   C1A37359   0.579  10.417   8.804
 2753POPC   D2A37360   0.699  10.525   8.400
 2753POPC   C3A37361   0.579  10.283   8.060
 2753POPC   C4A37362   0.622  10.214   7.623
 2753POPC   C1B37363   0.067  10.543   8.809
 2753POPC   C2B37364   0.169  10.569   8.380
 2753POPC   C3B37365   0.335  10.764   8.025
 2753POPC   C4B37366   0.308  10.599   7.634
 2754POPC   NC337367   0.367  11.142   9.596
 2754POPC   PO437368   0.799  11.610   9.594
 2754POPC   GL137369   0.521  11.483   9.222
 2754POPC   GL237370   0.552  11.127   9.140
 2754POPC   C1A37371   0.286  11.620   8.813
 2754POPC   D2A37372   0.071  11.610   8.366
 2754POPC   C3A37373   0.295  11.806   8.027
 2754POPC   C4A37374   0.635  11.740   7.763
 2754POPC   C1B37375   0.288  11.041   8.794
 2754POPC   C2B37376   0.157  11.100   8.377
 2754POPC   C3B37377   0.337  11.292   8.027
 2754POPC   C4B37378   0.585  11.162   7.715
 2755POPC   NC337379  38.406  12.793   9.531
 2755POPC   PO437380  38.749  13.307   9.629
 2755POPC   GL137381  38.639  13.207   9.190
 2755POPC   GL237382  38.510  12.837   9.041
 2755POPC   C1A37383  38.452  13.266   8.795
 2755POPC   D2A37384  38.350  12.939   8.522
 2755POPC   C3A37385  38.464  13.008   8.115
 2755POPC   C4A37386  38.284  12.844   7.766
 2755POPC   C1B37387  38.809  12.792   8.713
 2755POPC   C2B37388  38.845  12.623   8.309
 2755POPC   C3B37389  38.718  12.603   7.900
 2755POPC   C4B37390  38.765  12.964   7.671
 2756POPC   NC337391  26.636  31.851   9.529
 2756POPC   PO437392  26.725  31.184   9.630
 2756POPC   GL137393  26.735  31.346   9.170
 2756POPC   GL237394  26.497  31.569   9.120
 2756POPC   C1A37395  26.760  31.371   8.689
 2756POPC   D2A37396  26.815  31.440   8.233
 2756POPC   C3A37397  27.098  31.350   7.907
 2756POPC   C4A37398  26.786  31.280   7.552
 2756POPC   C1B37399  26.559  31.869   8.792
 2756POPC   C2B37400  26.858  31.904   8.446
 2756POPC   C3B37401  27.051  31.855   8.051
 2756POPC   C4B37402  26.712  31.729   7.780
 2757POPC   NC337403  37.712  44.808  10.290
 2757POPC   PO437404  37.370  44.714   9.632
 2757POPC   GL137405  37.529  44.782   9.199
 2757POPC   GL237406  37.899  44.898   9.199
 2757POPC   C1A37407  37.658  44.675   8.773
 2757POPC   D2A37408  37.673  44.862   8.360
 2757POPC   C3A37409  37.521  44.616   8.047
 2757POPC   C4A37410  37.293  44.691   7.705
 2757POPC   C1B37411  38.024   0.047   8.767
 2757POPC   C2B37412  38.163  44.965   8.332
 2757POPC   C3B37413  38.000  44.747   7.936
 2757POPC   C4B37414  37.885  44.704   7.471
 2758POPC   NC337415  30.727  39.480   9.756
 2758POPC   PO437416  30.312  39.087   9.490
 2758POPC   GL137417  30.599  39.274   9.205
 2758POPC   GL237418  30.908  39.437   9.274
 2758POPC   C1A37419  30.489  39.206   8.813
 2758POPC   D2A37420  30.574  39.022   8.467
 2758POPC   C3A37421  30.694  39.251   8.104
 2758POPC   C4A37422  30.527  39.322   7.688
 2758POPC   C1B37423  30.940  39.476   8.824
 2758POPC   C2B37424  31.111  39.282   8.445
 2758POPC   C3B37425  31.192  39.081   8.058
 2758POPC   C4B37426  31.021  39.203   7.689
 2759POPC   NC337427  12.477  31.237   9.415
 2759POPC   PO437428  12.982  31.622   9.394
 2759POPC   GL137429  12.761  31.509   9.039
 2759POPC   GL237430  12.863  31.151   8.991
 2759POPC   C1A37431  12.673  31.428   8.602
 2759POPC   D2A37432  12.848  31.040   8.393
 2759POPC   C3A37433  12.676  31.080   8.005
 2759POPC   C4A37434  12.541  31.480   7.819
 2759POPC   C1B37435  13.257  31.034   8.733
 2759POPC   C2B37436  13.438  31.136   8.327
 2759POPC   C3B37437  13.270  31.192   7.881
 2759POPC   C4B37438  13.086  31.323   7.467
 2760POPC   NC337439  37.700  25.956   9.512
 2760POPC   PO437440  37.672  26.540   9.464
 2760POPC   GL137441  37.730  26.251   9.079
 2760POPC   GL237442  37.839  25.870   9.004
 2760POPC   C1A37443  37.451  26.107   8.740
 2760POPC   D2A37444  37.246  26.027   8.348
 2760POPC   C3A37445  37.401  25.988   7.912
 2760POPC   C4A37446  37.469  25.743   7.541
 2760POPC   C1B37447  37.945  26.085   8.622
 2760POPC   C2B37448  37.745  26.251   8.247
 2760POPC   C3B37449  37.887  26.177   7.827
 2760POPC   C4B37450  37.937  25.735   7.805
 2761POPC   NC337451   9.642  36.763   9.451
 2761POPC   PO437452  10.246  37.150   9.393
 2761POPC   GL137453   9.785  37.112   9.103
 2761POPC   GL237454   9.410  36.909   9.035
 2761POPC   C1A37455   9.672  37.036   8.639
 2761POPC   D2A37456   9.732  37.227   8.239
 2761POPC   C3A37457   9.999  37.004   7.919
 2761POPC   C4A37458   9.988  36.981   7.459
 2761POPC   C1B37459   9.202  36.582   8.777
 2761POPC   C2B37460   9.274  36.512   8.374
 2761POPC   C3B37461   9.552  36.764   8.129
 2761POPC   C4B37462   9.521  36.943   7.716
 2762POPC   NC337463   7.161  21.076   9.574
 2762POPC   PO437464   7.058  21.703   9.485
 2762POPC   GL137465   7.381  21.615   9.160
 2762POPC   GL237466   7.752  21.605   9.077
 2762POPC   C1A37467   7.361  21.432   8.742
 2762POPC   D2A37468   7.501  21.305   8.338
 2762POPC   C3A37469   7.264  21.470   8.001
 2762POPC   C4A37470   6.895  21.269   7.780
 2762POPC   C1B37471   7.852  21.294   8.742
 2762POPC   C2B37472   7.921  21.016   8.379
 2762POPC   C3B37473   7.872  21.255   7.995
 2762POPC   C4B37474   7.770  21.645   7.882
 2763POPC   NC337475  17.721  40.335   9.571
 2763POPC   PO437476  17.541  40.973   9.485
 2763POPC   GL137477  17.412  40.823   9.112
 2763POPC   GL237478  17.361  40.506   9.228
 2763POPC   C1A37479  17.402  40.839   8.669
 2763POPC   D2A37480  17.306  41.184   8.382
 2763POPC   C3A37481  17.414  41.043   7.980
 2763POPC   C4A37482  17.243  41.094   7.583
 2763POPC   C1B37483  17.625  40.388   8.845
 2763POPC   C2B37484  17.851  40.526   8.451
 2763POPC   C3B37485  17.841  40.466   7.983
 2763POPC   C4B37486  17.613  40.683   7.639
 2764POPC   NC337487  16.771  34.062   9.266
 2764POPC   PO437488  16.919  33.497   9.440
 2764POPC   GL137489  16.698  33.577   9.077
 2764POPC   GL237490  16.357  33.699   9.176
 2764POPC   C1A37491  16.855  33.718   8.677
 2764POPC   D2A37492  16.853  33.478   8.320
 2764POPC   C3A37493  16.926  33.647   7.945
 2764POPC   C4A37494  16.867  34.008   7.747
 2764POPC   C1B37495  16.357  33.784   8.714
 2764POPC   C2B37496  16.537  33.903   8.282
 2764POPC   C3B37497  16.408  33.786   7.853
 2764POPC   C4B37498  16.650  33.559   7.513
 2765POPC   NC337499  16.346  17.133   9.616
 2765POPC   PO437500  16.140  17.798   9.611
 2765POPC   GL137501  16.013  17.686   9.194
 2765POPC   GL237502  16.112  17.363   9.211
 2765POPC   C1A37503  16.039  17.742   8.764
 2765POPC   D2A37504  16.094  17.499   8.416
 2765POPC   C3A37505  16.026  17.772   8.076
 2765POPC   C4A37506  15.758  17.753   7.744
 2765POPC   C1B37507  15.929  17.212   8.827
 2765POPC   C2B37508  15.805  17.064   8.423
 2765POPC   C3B37509  15.850  17.288   8.030
 2765POPC   C4B37510  15.764  17.238   7.611
 2766POPC   NC337511   3.880  24.621   9.571
 2766POPC   PO437512   3.215  24.618   9.345
 2766POPC   GL137513   3.400  24.429   9.023
 2766POPC   GL237514   3.749  24.506   9.045
 2766POPC   C1A37515   3.187  24.405   8.633
 2766POPC   D2A37516   3.149  24.161   8.288
 2766POPC   C3A37517   3.345  24.360   8.001
 2766POPC   C4A37518   3.286  24.450   7.566
 2766POPC   C1B37519   3.750  24.504   8.620
 2766POPC   C2B37520   3.939  24.761   8.291
 2766POPC   C3B37521   3.804  24.704   7.879
 2766POPC   C4B37522   3.724  24.285   7.693
 2767POPC   NC337523   4.646  37.424   9.476
 2767POPC   PO437524   3.947  37.693   9.541
 2767POPC   GL137525   4.201  37.712   9.191
 2767POPC   GL237526   4.523  37.648   9.048
 2767POPC   C1A37527   4.057  37.562   8.810
 2767POPC   D2A37528   4.106  37.422   8.418
 2767POPC   C3A37529   4.268  37.650   8.111
 2767POPC   C4A37530   4.152  37.470   7.706
 2767POPC   C1B37531   4.801  37.895   8.794
 2767POPC   C2B37532   4.667  37.961   8.368
 2767POPC   C3B37533   4.717  37.955   7.932
 2767POPC   C4B37534   4.636  37.563   7.769
 2768POPC   NC337535  14.190   6.120   9.438
 2768POPC   PO437536  14.422   5.468   9.474
 2768POPC   GL137537  14.443   5.778   9.141
 2768POPC   GL237538  14.792   5.871   9.032
 2768POPC   C1A37539  14.165   5.903   8.786
 2768POPC   D2A37540  13.926   5.958   8.397
 2768POPC   C3A37541  14.079   6.169   8.067
 2768POPC   C4A37542  14.270   6.020   7.744
 2768POPC   C1B37543  14.642   6.029   8.672
 2768POPC   C2B37544  14.482   5.885   8.284
 2768POPC   C3B37545  14.689   5.780   7.886
 2768POPC   C4B37546  14.787   6.099   7.561
 2769POPC   NC337547   8.293  41.044   9.293
 2769POPC   PO437548   7.649  40.896   9.284
 2769POPC   GL137549   7.951  40.699   9.027
 2769POPC   GL237550   8.231  40.551   9.185
 2769POPC   C1A37551   8.135  40.902   8.693
 2769POPC   D2A37552   7.985  40.977   8.335
 2769POPC   C3A37553   8.163  40.772   8.041
 2769POPC   C4A37554   7.970  40.811   7.660
 2769POPC   C1B37555   8.420  40.484   8.789
 2769POPC   C2B37556   8.523  40.473   8.337
 2769POPC   C3B37557   8.504  40.426   7.883
 2769POPC   C4B37558   8.479  40.775   7.610
 2770POPC   NC337559  24.314  44.411   9.255
 2770POPC   PO437560  24.656  44.847   9.639
 2770POPC   GL137561  24.794  44.690   9.232
 2770POPC   GL237562  24.866  44.375   9.073
 2770POPC   C1A37563  24.719  44.821   8.806
 2770POPC   D2A37564  24.421  44.936   8.486
 2770POPC   C3A37565  24.291  44.658   8.162
 2770POPC   C4A37566  24.364  44.682   7.716
 2770POPC   C1B37567  24.616  44.328   8.709
 2770POPC   C2B37568  24.749  44.495   8.354
 2770POPC   C3B37569  24.673  44.344   7.970
 2770POPC   C4B37570  24.314  44.138   7.814
 2771POPC   NC337571  42.513  17.040   9.421
 2771POPC   PO437572  42.294  17.609   9.659
 2771POPC   GL137573  42.225  17.601   9.204
 2771POPC   GL237574  42.146  17.288   9.105
 2771POPC   C1A37575  42.350  17.627   8.770
 2771POPC   D2A37576  42.320  17.295   8.447
 2771POPC   C3A37577  42.336  17.440   8.022
 2771POPC   C4A37578  42.328  17.869   7.947
 2771POPC   C1B37579  41.924  17.102   8.771
 2771POPC   C2B37580  41.817  17.226   8.314
 2771POPC   C3B37581  41.882  17.252   7.842
 2771POPC   C4B37582  41.969  17.198   7.398
 2772POPC   NC337583  38.154  19.372   9.474
 2772POPC   PO437584  38.605  18.876   9.561
 2772POPC   GL137585  38.396  19.005   9.189
 2772POPC   GL237586  38.734  19.037   9.069
 2772POPC   C1A37587  38.326  19.257   8.812
 2772POPC   D2A37588  38.134  19.354   8.410
 2772POPC   C3A37589  38.285  19.091   8.087
 2772POPC   C4A37590  38.604  19.033   7.756
 2772POPC   C1B37591  38.673  18.822   8.682
 2772POPC   C2B37592  38.679  18.806   8.237
 2772POPC   C3B37593  38.976  18.726   7.922
 2772POPC   C4B37594  38.902  18.714   7.489
 2773POPC   NC337595  35.732  26.730   9.902
 2773POPC   PO437596  35.312  27.041   9.409
 2773POPC   GL137597  35.254  26.619   9.214
 2773POPC   GL237598  35.405  26.783   8.960
 2773POPC   C1A37599  35.129  26.431   8.761
 2773POPC   D2A37600  35.289  26.603   8.376
 2773POPC   C3A37601  35.130  26.472   7.990
 2773POPC   C4A37602  35.104  26.688   7.626
 2773POPC   C1B37603  35.541  27.090   8.707
 2773POPC   C2B37604  35.361  27.195   8.341
 2773POPC   C3B37605  35.400  26.963   7.972
 2773POPC   C4B37606  35.746  26.951   7.703
 2774POPC   NC337607   3.504  29.738   9.453
 2774POPC   PO437608   3.866  30.236   9.418
 2774POPC   GL137609   3.775  29.981   9.052
 2774POPC   GL237610   3.438  29.807   8.972
 2774POPC   C1A37611   3.852  29.837   8.634
 2774POPC   D2A37612   3.675  29.956   8.260
 2774POPC   C3A37613   3.684  29.670   7.961
 2774POPC   C4A37614   3.648  29.949   7.674
 2774POPC   C1B37615   3.413  30.111   8.679
 2774POPC   C2B37616   3.161  30.004   8.354
 2774POPC   C3B37617   3.206  29.860   7.974
 2774POPC   C4B37618   3.147  30.047   7.596
 2775POPC   NC337619   5.127  34.268   9.532
 2775POPC   PO437620   5.049  34.935   9.502
 2775POPC   GL137621   4.903  34.826   9.106
 2775POPC   GL237622   5.066  34.509   9.089
 2775POPC   C1A37623   4.983  34.740   8.650
 2775POPC   D2A37624   5.115  35.004   8.328
 2775POPC   C3A37625   4.958  34.830   7.971
 2775POPC   C4A37626   4.877  34.467   7.769
 2775POPC   C1B37627   5.431  34.411   8.803
 2775POPC   C2B37628   5.586  34.355   8.373
 2775POPC   C3B37629   5.381  34.511   8.018
 2775POPC   C4B37630   5.268  34.114   7.834
 2776POPC   NC337631  31.819   6.745   9.197
 2776POPC   PO437632  31.614   6.446   9.772
 2776POPC   GL137633  31.394   6.519   9.211
 2776POPC   GL237634  31.338   6.837   9.013
 2776POPC   C1A37635  31.549   6.603   8.650
 2776POPC   D2A37636  31.417   6.585   8.219
 2776POPC   C3A37637  31.714   6.607   7.884
 2776POPC   C4A37638  31.839   6.967   7.696
 2776POPC   C1B37639  31.110   6.427   8.818
 2776POPC   C2B37640  30.948   6.319   8.405
 2776POPC   C3B37641  31.077   6.310   7.973
 2776POPC   C4B37642  31.235   6.653   7.716
 2777POPC   NC337643  43.338   1.277   9.609
 2777POPC   PO437644  42.709   1.098   9.517
 2777POPC   GL137645  42.990   1.167   9.189
 2777POPC   GL237646  43.334   1.002   9.180
 2777POPC   C1A37647  42.873   1.372   8.818
 2777POPC   D2A37648  42.877   1.540   8.410
 2777POPC   C3A37649  42.788   1.253   8.072
 2777POPC   C4A37650  43.077   1.201   7.771
 2777POPC   C1B37651  43.376   1.302   8.840
 2777POPC   C2B37652  43.555   1.348   8.432
 2777POPC   C3B37653  43.545   1.183   8.007
 2777POPC   C4B37654  43.499   1.017   7.561
 2778POPC   NC337655  10.133   3.209   9.581
 2778POPC   PO437656   9.570   2.779   9.479
 2778POPC   GL137657   9.619   2.954   9.091
 2778POPC   GL237658   9.917   3.148   9.118
 2778POPC   C1A37659   9.760   2.751   8.727
 2778POPC   D2A37660   9.571   2.736   8.336
 2778POPC   C3A37661   9.643   2.452   7.984
 2778POPC   C4A37662   9.759   2.422   7.558
 2778POPC   C1B37663  10.107   3.117   8.716
 2778POPC   C2B37664  10.086   2.840   8.345
 2778POPC   C3B37665   9.899   2.896   7.946
 2778POPC   C4B37666  10.012   3.003   7.556
 2779POPC   NC337667  10.335  21.267   9.603
 2779POPC   PO437668  10.292  21.907   9.469
 2779POPC   GL137669  10.328  21.597   9.124
 2779POPC   GL237670  10.550  21.315   9.146
 2779POPC   C1A37671  10.324  21.441   8.694
 2779POPC   D2A37672  10.542  21.224   8.350
 2779POPC   C3A37673  10.428  21.455   8.014
 2779POPC   C4A37674  10.206  21.396   7.661
 2779POPC   C1B37675  10.830  21.299   8.758
 2779POPC   C2B37676  11.048  21.358   8.353
 2779POPC   C3B37677  10.899  21.230   7.938
 2779POPC   C4B37678  10.693  21.297   7.512
 2780POPC   NC337679  38.395  32.759   9.442
 2780POPC   PO437680  38.402  33.433   9.430
 2780POPC   GL137681  38.432  33.177   9.076
 2780POPC   GL237682  38.747  32.973   9.131
 2780POPC   C1A37683  38.386  33.327   8.636
 2780POPC   D2A37684  38.228  33.116   8.293
 2780POPC   C3A37685  38.215  33.297   7.865
 2780POPC   C4A37686  38.511  33.202   7.520
 2780POPC   C1B37687  38.614  32.851   8.698
 2780POPC   C2B37688  38.599  32.770   8.247
 2780POPC   C3B37689  38.281  32.778   7.882
 2780POPC   C4B37690  38.281  32.429   7.551
 2781POPC   NC337691  26.762   4.023   9.334
 2781POPC   PO437692  26.940   4.634   9.568
 2781POPC   GL137693  26.748   4.652   9.169
 2781POPC   GL237694  26.416   4.679   9.260
 2781POPC   C1A37695  26.806   4.468   8.752
 2781POPC   D2A37696  26.820   4.079   8.467
 2781POPC   C3A37697  26.985   4.052   8.029
 2781POPC   C4A37698  26.740   4.129   7.645
 2781POPC   C1B37699  26.301   4.686   8.805
 2781POPC   C2B37700  26.396   4.407   8.453
 2781POPC   C3B37701  26.491   4.348   8.038
 2781POPC   C4B37702  26.561   4.612   7.679
 2782POPC   NC337703   0.837   3.240   9.411
 2782POPC   PO437704   0.177   3.539   9.481
 2782POPC   GL137705   0.486   3.527   9.144
 2782POPC   GL237706   0.590   3.860   8.984
 2782POPC   C1A37707   0.632   3.419   8.727
 2782POPC   D2A37708   0.815   3.649   8.353
 2782POPC   C3A37709   0.633   3.612   7.933
 2782POPC   C4A37710   0.335   3.346   7.810
 2782POPC   C1B37711   0.201   3.696   8.730
 2782POPC   C2B37712   0.231   3.597   8.280
 2782POPC   C3B37713   0.136   3.806   7.884
 2782POPC   C4B37714  44.999   3.715   7.468
 2783POPC   NC337715   4.584  24.962   9.501
 2783POPC   PO437716   4.270  24.487   9.762
 2783POPC   GL137717   4.247  24.497   9.179
 2783POPC   GL237718   4.578  24.629   9.113
 2783POPC   C1A37719   4.252  24.589   8.722
 2783POPC   D2A37720   4.572  24.552   8.411
 2783POPC   C3A37721   4.368  24.613   8.028
 2783POPC   C4A37722   4.197  24.388   7.737
 2783POPC   C1B37723   4.604  24.234   8.864
 2783POPC   C2B37724   4.559  24.031   8.484
 2783POPC   C3B37725   4.568  24.149   8.057
 2783POPC   C4B37726   4.682  24.369   7.648
 2784POPC   NC337727  11.851  42.654   9.556
 2784POPC   PO437728  12.138  43.225   9.695
 2784POPC   GL137729  12.042  43.048   9.289
 2784POPC   GL237730  12.346  42.978   9.162
 2784POPC   C1A37731  11.975  43.085   8.837
 2784POPC   D2A37732  11.892  43.359   8.495
 2784POPC   C3A37733  12.103  43.297   8.130
 2784POPC   C4A37734  11.903  43.069   7.807
 2784POPC   C1B37735  12.456  42.886   8.767
 2784POPC   C2B37736  12.316  42.840   8.361
 2784POPC   C3B37737  12.303  42.816   7.964
 2784POPC   C4B37738  12.390  43.183   7.720
 2785POPC   NC337739  21.253   0.166   9.457
 2785POPC   PO437740  21.872   0.502   9.555
 2785POPC   GL137741  21.530   0.516   9.188
 2785POPC   GL237742  21.350   0.848   9.125
 2785POPC   C1A37743  21.300   0.311   8.813
 2785POPC   D2A37744  21.424   0.049   8.466
 2785POPC   C3A37745  21.503   0.160   8.062
 2785POPC   C4A37746  21.263   0.210   7.679
 2785POPC   C1B37747  21.140   0.803   8.717
 2785POPC   C2B37748  21.320   0.563   8.359
 2785POPC   C3B37749  21.473   0.631   7.931
 2785POPC   C4B37750  21.114   0.688   7.670
 2786POPC   NC337751  15.492  41.426   9.556
 2786POPC   PO437752  15.978  41.915   9.533
 2786POPC   GL137753  15.652  41.786   9.205
 2786POPC   GL237754  15.781  41.438   9.142
 2786POPC   C1A37755  15.517  41.631   8.766
 2786POPC   D2A37756  15.647  41.435   8.339
 2786POPC   C3A37757  15.674  41.748   7.992
 2786POPC   C4A37758  15.804  41.697   7.552
 2786POPC   C1B37759  15.983  41.386   8.738
 2786POPC   C2B37760  16.213  41.476   8.359
 2786POPC   C3B37761  16.129  41.557   7.943
 2786POPC   C4B37762  16.333  41.723   7.618
 2787POPC   NC337763  31.176  38.012   9.713
 2787POPC   PO437764  30.656  37.668   9.326
 2787POPC   GL137765  30.757  37.778   8.936
 2787POPC   GL237766  30.573  38.069   8.977
 2787POPC   C1A37767  31.016  37.573   8.647
 2787POPC   D2A37768  30.695  37.465   8.386
 2787POPC   C3A37769  30.833  37.607   8.030
 2787POPC   C4A37770  30.736  37.748   7.666
 2787POPC   C1B37771  30.410  37.934   8.582
 2787POPC   C2B37772  30.392  37.921   8.152
 2787POPC   C3B37773  30.590  38.197   7.880
 2787POPC   C4B37774  30.898  38.229   7.547
 2788POPC   NC337775  14.366   4.557   9.717
 2788POPC   PO437776  14.004   4.070   9.495
 2788POPC   GL137777  14.213   4.403   9.233
 2788POPC   GL237778  14.564   4.454   9.161
 2788POPC   C1A37779  14.181   4.486   8.785
 2788POPC   D2A37780  14.029   4.409   8.379
 2788POPC   C3A37781  14.191   4.577   8.018
 2788POPC   C4A37782  14.452   4.441   7.736
 2788POPC   C1B37783  14.658   4.291   8.720
 2788POPC   C2B37784  14.608   4.298   8.240
 2788POPC   C3B37785  14.720   4.053   7.869
 2788POPC   C4B37786  14.662   4.140   7.392
 2789POPC   NC337787   6.951  24.982   9.388
 2789POPC   PO437788   6.449  25.435   9.401
 2789POPC   GL137789   6.695  25.291   9.082
 2789POPC   GL237790   6.654  24.949   8.996
 2789POPC   C1A37791   6.834  25.371   8.696
 2789POPC   D2A37792   6.882  25.130   8.363
 2789POPC   C3A37793   6.717  25.381   8.060
 2789POPC   C4A37794   6.746  25.458   7.656
 2789POPC   C1B37795   6.443  24.964   8.656
 2789POPC   C2B37796   6.376  25.067   8.266
 2789POPC   C3B37797   6.514  24.930   7.904
 2789POPC   C4B37798   6.567  25.016   7.484
 2790POPC   NC337799   0.794   0.359   9.358
 2790POPC   PO437800   0.134   0.357   9.472
 2790POPC   GL137801   0.317   0.558   9.129
 2790POPC   GL237802   0.506   0.854   9.195
 2790POPC   C1A37803   0.498   0.469   8.726
 2790POPC   D2A37804   0.268   0.379   8.360
 2790POPC   C3A37805   0.461   0.082   8.135
 2790POPC   C4A37806   0.646   0.135   7.741
 2790POPC   C1B37807   0.324   0.955   8.772
 2790POPC   C2B37808   0.450   0.869   8.355
 2790POPC   C3B37809   0.298   0.942   7.931
 2790POPC   C4B37810   0.436   0.611   7.675
 2791POPC   NC337811  17.412  24.666   9.203
 2791POPC   PO437812  17.924  24.471   9.514
 2791POPC   GL137813  17.841  24.362   9.136
 2791POPC   GL237814  17.520  24.176   9.136
 2791POPC   C1A37815  17.849  24.636   8.753
 2791POPC   D2A37816  17.549  24.553   8.432
 2791POPC   C3A37817  17.581  24.598   7.980
 2791POPC   C4A37818  17.244  24.554   7.682
 2791POPC   C1B37819  17.690  24.138   8.701
 2791POPC   C2B37820  17.698  24.084   8.249
 2791POPC   C3B37821  17.428  24.109   7.898
 2791POPC   C4B37822  17.219  24.046   7.514
 2792POPC   NC337823   1.356  37.214   9.482
 2792POPC   PO437824   1.866  36.905   9.793
 2792POPC   GL137825   1.660  36.790   9.308
 2792POPC   GL237826   1.262  36.852   9.145
 2792POPC   C1A37827   1.636  36.915   8.843
 2792POPC   D2A37828   1.244  36.817   8.585
 2792POPC   C3A37829   1.249  36.844   8.159
 2792POPC   C4A37830   1.544  36.808   7.873
 2792POPC   C1B37831   1.200  37.246   8.837
 2792POPC   C2B37832   1.053  37.301   8.358
 2792POPC   C3B37833   0.944  37.133   7.881
 2792POPC   C4B37834   0.847  37.093   7.384
 2793POPC   NC337835  15.338   0.230   9.543
 2793POPC   PO437836  14.882   0.700   9.646
 2793POPC   GL137837  15.026   0.639   9.184
 2793POPC   GL237838  15.392   0.570   9.159
 2793POPC   C1A37839  15.101   0.494   8.756
 2793POPC   D2A37840  15.145   0.212   8.419
 2793POPC   C3A37841  15.018   0.406   8.031
 2793POPC   C4A37842  14.784   0.708   7.765
 2793POPC   C1B37843  15.450   0.149   8.904
 2793POPC   C2B37844  15.635   0.054   8.505
 2793POPC   C3B37845  15.602   0.397   8.215
 2793POPC   C4B37846  15.471   0.478   7.809
 2794POPC   NC337847  40.645  25.163   9.525
 2794POPC   PO437848  41.277  25.409   9.639
 2794POPC   GL137849  40.953  25.549   9.250
 2794POPC   GL237850  40.652  25.371   9.063
 2794POPC   C1A37851  40.785  25.798   8.852
 2794POPC   D2A37852  40.564  25.672   8.488
 2794POPC   C3A37853  40.839  25.585   8.152
 2794POPC   C4A37854  40.805  25.324   7.778
 2794POPC   C1B37855  40.869  25.280   8.638
 2794POPC   C2B37856  40.836  25.037   8.224
 2794POPC   C3B37857  40.537  24.898   7.893
 2794POPC   C4B37858  40.481  25.093   7.435
 2795POPC   NC337859  20.519   6.937   9.472
 2795POPC   PO437860  20.945   6.310   9.457
 2795POPC   GL137861  20.831   6.563   9.079
 2795POPC   GL237862  20.830   6.949   9.068
 2795POPC   C1A37863  20.589   6.456   8.678
 2795POPC   D2A37864  20.379   6.421   8.258
 2795POPC   C3A37865  20.450   6.563   7.817
 2795POPC   C4A37866  20.395   6.285   7.424
 2795POPC   C1B37867  20.581   6.959   8.671
 2795POPC   C2B37868  20.491   6.920   8.227
 2795POPC   C3B37869  20.700   7.072   7.858
 2795POPC   C4B37870  20.922   7.080   7.468
 2796POPC   NC337871  10.083   7.698   9.255
 2796POPC   PO437872  10.570   7.272   9.450
 2796POPC   GL137873  10.468   7.368   9.048
 2796POPC   GL237874  10.543   7.716   9.008
 2796POPC   C1A37875  10.700   7.393   8.644
 2796POPC   D2A37876  10.647   7.639   8.258
 2796POPC   C3A37877  10.811   7.367   7.935
 2796POPC   C4A37878  10.629   7.199   7.552
 2796POPC   C1B37879  10.248   7.604   8.639
 2796POPC   C2B37880  10.247   7.319   8.285
 2796POPC   C3B37881  10.272   7.471   7.838
 2796POPC   C4B37882  10.045   7.767   7.539
 2797POPC   NC337883  14.295  18.243   9.707
 2797POPC   PO437884  14.853  18.503   9.557
 2797POPC   GL137885  14.603  18.185   9.261
 2797POPC   GL237886  14.261  18.299   9.202
 2797POPC   C1A37887  14.414  17.961   8.863
 2797POPC   D2A37888  14.198  17.970   8.445
 2797POPC   C3A37889  14.418  18.082   8.084
 2797POPC   C4A37890  14.549  18.207   7.701
 2797POPC   C1B37891  14.139  18.400   8.751
 2797POPC   C2B37892  14.159  18.502   8.288
 2797POPC   C3B37893  14.162  18.539   7.825
 2797POPC   C4B37894  14.422  18.680   7.467
 2798POPC   NC337895   9.158  13.410   9.453
 2798POPC   PO437896   8.647  13.923   9.579
 2798POPC   GL137897   8.806  13.727   9.210
 2798POPC   GL237898   9.146  13.803   9.101
 2798POPC   C1A37899   8.779  13.681   8.764
 2798POPC   D2A37900   8.910  13.952   8.402
 2798POPC   C3A37901   8.880  13.865   7.954
 2798POPC   C4A37902   8.967  13.792   7.483
 2798POPC   C1B37903   9.269  13.562   8.720
 2798POPC   C2B37904   9.159  13.505   8.288
 2798POPC   C3B37905   9.245  13.549   7.852
 2798POPC   C4B37906   9.237  13.346   7.509
 2799POPC   NC337907   0.129  18.942   9.579
 2799POPC   PO437908   0.606  19.370   9.494
 2799POPC   GL137909   0.400  19.114   9.168
 2799POPC   GL237910   0.271  19.498   9.132
 2799POPC   C1A37911   0.432  18.900   8.722
 2799POPC   D2A37912   0.354  18.677   8.285
 2799POPC   C3A37913   0.412  18.774   7.820
 2799POPC   C4A37914   0.280  18.597   7.397
 2799POPC   C1B37915   0.534  19.388   8.780
 2799POPC   C2B37916   0.508  19.255   8.348
 2799POPC   C3B37917   0.633  19.215   7.947
 2799POPC   C4B37918   0.375  19.285   7.620
 2800POPC   NC337919  37.874  16.994   9.577
 2800POPC   PO437920  37.325  16.591   9.474
 2800POPC   GL137921  37.659  16.557   9.168
 2800POPC   GL237922  37.723  16.889   9.094
 2800POPC   C1A37923  37.823  16.568   8.723
 2800POPC   D2A37924  37.550  16.483   8.371
 2800POPC   C3A37925  37.726  16.535   7.933
 2800POPC   C4A37926  37.796  16.806   7.526
 2800POPC   C1B37927  37.438  16.922   8.722
 2800POPC   C2B37928  37.486  17.002   8.293
 2800POPC   C3B37929  37.870  17.015   8.025
 2800POPC   C4B37930  38.046  17.222   7.680
 2801POPC   NC337931  43.121  15.021   9.688
 2801POPC   PO437932  42.836  15.603   9.483
 2801POPC   GL137933  42.879  15.281   9.185
 2801POPC   GL237934  42.632  15.353   9.023
 2801POPC   C1A37935  43.145  15.162   8.821
 2801POPC   D2A37936  43.317  15.295   8.428
 2801POPC   C3A37937  43.238  15.142   8.008
 2801POPC   C4A37938  43.318  15.493   7.730
 2801POPC   C1B37939  42.666  15.021   8.756
 2801POPC   C2B37940  42.872  14.970   8.357
 2801POPC   C3B37941  42.725  15.206   7.987
 2801POPC   C4B37942  42.931  15.198   7.591
 2802POPC   NC337943  23.196  17.390   9.425
 2802POPC   PO437944  22.569  17.385   9.444
 2802POPC   GL137945  22.802  17.250   9.106
 2802POPC   GL237946  22.900  17.599   9.071
 2802POPC   C1A37947  23.091  17.243   8.743
 2802POPC   D2A37948  22.848  17.381   8.389
 2802POPC   C3A37949  22.882  17.201   7.983
 2802POPC   C4A37950  22.804  17.233   7.549
 2802POPC   C1B37951  23.119  17.751   8.748
 2802POPC   C2B37952  23.182  17.866   8.348
 2802POPC   C3B37953  23.072  17.661   8.019
 2802POPC   C4B37954  23.020  17.682   7.624
 2803POPC   NC337955  16.986  42.539   9.443
 2803POPC   PO437956  16.639  42.070   9.640
 2803POPC   GL137957  16.524  42.067   9.204
 2803POPC   GL237958  16.893  42.084   9.178
 2803POPC   C1A37959  16.449  42.233   8.775
 2803POPC   D2A37960  16.682  42.555   8.525
 2803POPC   C3A37961  16.694  42.441   8.088
 2803POPC   C4A37962  16.485  42.190   7.778
 2803POPC   C1B37963  16.979  42.213   8.793
 2803POPC   C2B37964  17.088  42.239   8.383
 2803POPC   C3B37965  17.207  42.357   8.000
 2803POPC   C4B37966  16.973  42.299   7.660
 2804POPC   NC337967  44.711  14.259   9.457
 2804POPC   PO437968  44.314  14.819   9.477
 2804POPC   GL137969  44.602  14.641   9.143
 2804POPC   GL237970  44.981  14.580   9.129
 2804POPC   C1A37971  44.644  14.389   8.776
 2804POPC   D2A37972  44.487  14.161   8.432
 2804POPC   C3A37973  44.460  14.481   8.121
 2804POPC   C4A37974  44.408  14.308   7.737
 2804POPC   C1B37975   0.156  14.322   8.808
 2804POPC   C2B37976   0.007  14.261   8.390
 2804POPC   C3B37977  44.877  14.219   7.982
 2804POPC   C4B37978  44.882  14.545   7.683
 2805POPC   NC337979  33.225  28.889   9.534
 2805POPC   PO437980  32.817  29.441   9.435
 2805POPC   GL137981  32.989  29.136   9.122
 2805POPC   GL237982  32.930  28.771   9.122
 2805POPC   C1A37983  33.173  29.240   8.739
 2805POPC   D2A37984  33.046  29.541   8.444
 2805POPC   C3A37985  33.168  29.458   8.040
 2805POPC   C4A37986  33.098  29.393   7.619
 2805POPC   C1B37987  33.229  28.732   8.761
 2805POPC   C2B37988  33.180  28.918   8.314
 2805POPC   C3B37989  33.136  28.905   7.842
 2805POPC   C4B37990  33.282  28.626   7.491
 2806POPC   NC337991   4.447   4.656   9.479
 2806POPC   PO437992   4.141   5.255   9.530
 2806POPC   GL137993   4.194   5.226   9.126
 2806POPC   GL237994   4.032   5.549   9.087
 2806POPC   C1A37995   4.327   4.972   8.769
 2806POPC   D2A37996   4.498   5.087   8.356
 2806POPC   C3A37997   4.299   4.910   7.975
 2806POPC   C4A37998   4.475   4.731   7.584
 2806POPC   C1B37999   3.922   5.328   8.715
 2806POPC   C2B38000   3.982   5.050   8.383
 2806POPC   C3B38001   3.919   5.262   8.026
 2806POPC   C4B38002   4.075   5.259   7.644
 2807POPC   NC338003  32.866  19.405   9.451
 2807POPC   PO438004  33.365  18.838   9.553
 2807POPC   GL138005  33.250  18.990   9.156
 2807POPC   GL238006  32.958  19.068   9.093
 2807POPC   C1A38007  33.300  19.083   8.716
 2807POPC   D2A38008  33.048  19.019   8.366
 2807POPC   C3A38009  33.264  19.135   8.009
 2807POPC   C4A38010  33.166  19.418   7.677
 2807POPC   C1B38011  32.733  18.916   8.776
 2807POPC   C2B38012  32.540  18.872   8.432
 2807POPC   C3B38013  32.595  19.107   8.091
 2807POPC   C4B38014  32.822  19.068   7.743
 2808POPC   NC338015  24.866  12.575   9.519
 2808POPC   PO438016  24.343  12.970   9.755
 2808POPC   GL138017  24.360  12.951   9.296
 2808POPC   GL238018  24.680  12.975   9.200
 2808POPC   C1A38019  24.254  12.845   8.878
 2808POPC   D2A38020  24.422  12.863   8.447
 2808POPC   C3A38021  24.196  12.784   8.032
 2808POPC   C4A38022  24.263  12.834   7.587
 2808POPC   C1B38023  24.901  13.142   8.858
 2808POPC   C2B38024  24.902  13.123   8.400
 2808POPC   C3B38025  24.688  12.990   8.024
 2808POPC   C4B38026  24.757  13.024   7.595
 2809POPC   NC338027  36.265  15.007   9.614
 2809POPC   PO438028  36.184  15.644   9.463
 2809POPC   GL138029  36.188  15.336   9.142
 2809POPC   GL238030  36.453  15.102   9.103
 2809POPC   C1A38031  36.162  15.285   8.701
 2809POPC   D2A38032  35.884  15.258   8.347
 2809POPC   C3A38033  36.128  15.327   8.007
 2809POPC   C4A38034  36.217  15.247   7.616
 2809POPC   C1B38035  36.450  14.849   8.714
 2809POPC   C2B38036  36.270  14.908   8.320
 2809POPC   C3B38037  36.366  14.853   7.918
 2809POPC   C4B38038  36.603  14.848   7.559
 2810POPC   NC338039  42.448   3.314   9.382
 2810POPC   PO438040  41.966   3.803   9.541
 2810POPC   GL138041  42.121   3.708   9.158
 2810POPC   GL238042  41.993   3.407   9.055
 2810POPC   C1A38043  42.136   3.803   8.723
 2810POPC   D2A38044  42.386   3.691   8.382
 2810POPC   C3A38045  42.158   3.731   8.020
 2810POPC   C4A38046  42.380   3.835   7.673
 2810POPC   C1B38047  42.263   3.297   8.709
 2810POPC   C2B38048  42.283   3.188   8.278
 2810POPC   C3B38049  42.406   3.312   7.834
 2810POPC   C4B38050  42.529   3.349   7.416
 2811POPC   NC338051   5.919  33.699   9.505
 2811POPC   PO438052   6.366  34.115   9.401
 2811POPC   GL138053   6.052  34.006   9.084
 2811POPC   GL238054   5.747  33.761   9.033
 2811POPC   C1A38055   5.890  34.111   8.700
 2811POPC   D2A38056   5.856  33.784   8.405
 2811POPC   C3A38057   5.655  33.828   8.032
 2811POPC   C4A38058   5.865  33.802   7.654
 2811POPC   C1B38059   5.586  33.466   8.702
 2811POPC   C2B38060   5.461  33.353   8.256
 2811POPC   C3B38061   5.551  33.384   7.772
 2811POPC   C4B38062   5.604  33.528   7.310
 2812POPC   NC338063  43.678  20.729   9.780
 2812POPC   PO438064  43.698  20.366   9.258
 2812POPC   GL138065  43.820  20.710   9.082
 2812POPC   GL238066  44.136  20.687   9.091
 2812POPC   C1A38067  43.728  20.780   8.664
 2812POPC   D2A38068  43.757  20.508   8.324
 2812POPC   C3A38069  43.693  20.699   7.939
 2812POPC   C4A38070  43.664  20.443   7.610
 2812POPC   C1B38071  44.120  20.443   8.716
 2812POPC   C2B38072  44.259  20.645   8.342
 2812POPC   C3B38073  44.198  20.652   7.920
 2812POPC   C4B38074  44.355  20.397   7.631
 2813POPC   NC338075  37.679  11.970   9.484
 2813POPC   PO438076  37.630  11.295   9.692
 2813POPC   GL138077  37.652  11.293   9.269
 2813POPC   GL238078  37.936  11.549   9.261
 2813POPC   C1A38079  37.644  10.999   8.892
 2813POPC   D2A38080  37.849  11.059   8.498
 2813POPC   C3A38081  37.653  11.026   8.100
 2813POPC   C4A38082  37.782  11.189   7.724
 2813POPC   C1B38083  37.757  11.560   8.860
 2813POPC   C2B38084  37.875  11.570   8.467
 2813POPC   C3B38085  37.764  11.573   8.058
 2813POPC   C4B38086  37.926  11.734   7.708
 2814POPC   NC338087  13.458  10.908   9.456
 2814POPC   PO438088  13.090  11.527   9.464
 2814POPC   GL138089  13.336  11.362   9.114
 2814POPC   GL238090  13.238  11.021   9.031
 2814POPC   C1A38091  13.542  11.490   8.720
 2814POPC   D2A38092  13.546  11.689   8.295
 2814POPC   C3A38093  13.654  11.461   7.935
 2814POPC   C4A38094  13.701  11.544   7.483
 2814POPC   C1B38095  13.303  11.043   8.592
 2814POPC   C2B38096  13.560  11.001   8.238
 2814POPC   C3B38097  13.652  10.938   7.806
 2814POPC   C4B38098  13.702  11.047   7.361
 2815POPC   NC338099  15.834  28.989   9.566
 2815POPC   PO438100  15.555  29.468   9.459
 2815POPC   GL138101  15.693  29.238   9.101
 2815POPC   GL238102  15.698  28.876   9.091
 2815POPC   C1A38103  15.968  29.170   8.731
 2815POPC   D2A38104  16.043  29.340   8.316
 2815POPC   C3A38105  16.252  29.260   7.927
 2815POPC   C4A38106  16.196  29.516   7.526
 2815POPC   C1B38107  15.507  28.955   8.703
 2815POPC   C2B38108  15.674  28.937   8.292
 2815POPC   C3B38109  15.779  29.070   7.870
 2815POPC   C4B38110  15.766  28.839   7.463
 2816POPC   NC338111  40.491   9.389   9.408
 2816POPC   PO438112  40.665   8.713   9.391
 2816POPC   GL138113  40.817   9.074   9.159
 2816POPC   GL238114  40.706   8.870   8.890
 2816POPC   C1A38115  40.988   9.272   8.772
 2816POPC   D2A38116  41.064   9.234   8.347
 2816POPC   C3A38117  40.750   9.112   8.033
 2816POPC   C4A38118  40.938   9.144   7.612
 2816POPC   C1B38119  40.546   9.054   8.525
 2816POPC   C2B38120  40.440   8.691   8.295
 2816POPC   C3B38121  40.339   8.525   7.932
 2816POPC   C4B38122  40.655   8.718   7.729
 2817POPC   NC338123  43.877  44.579   9.624
 2817POPC   PO438124  43.647   0.128   9.286
 2817POPC   GL138125  44.033  44.839   9.210
 2817POPC   GL238126  43.985  44.452   9.148
 2817POPC   C1A38127  44.160  44.790   8.820
 2817POPC   D2A38128  43.955  44.985   8.535
 2817POPC   C3A38129  43.930  44.743   8.180
 2817POPC   C4A38130  43.895  44.838   7.769
 2817POPC   C1B38131  43.779  44.426   8.724
 2817POPC   C2B38132  43.703  44.234   8.297
 2817POPC   C3B38133  43.751  44.353   7.868
 2817POPC   C4B38134  43.965  44.214   7.490
 2818POPC   NC338135   3.539  26.803   9.967
 2818POPC   PO438136   3.148  26.822   9.385
 2818POPC   GL138137   3.481  26.972   9.040
 2818POPC   GL238138   3.915  26.907   9.110
 2818POPC   C1A38139   3.415  26.987   8.585
 2818POPC   D2A38140   3.297  26.699   8.275
 2818POPC   C3A38141   3.129  26.950   7.991
 2818POPC   C4A38142   3.172  27.055   7.589
 2818POPC   C1B38143   3.834  26.731   8.714
 2818POPC   C2B38144   3.828  26.829   8.277
 2818POPC   C3B38145   3.663  26.704   7.869
 2818POPC   C4B38146   3.959  26.667   7.490
 2819POPC   NC338147  28.378  25.828   9.536
 2819POPC   PO438148  28.097  26.355   9.168
 2819POPC   GL138149  28.329  26.007   9.046
 2819POPC   GL238150  28.549  25.686   9.082
 2819POPC   C1A38151  28.219  25.833   8.669
 2819POPC   D2A38152  28.359  26.008   8.304
 2819POPC   C3A38153  28.172  26.379   8.124
 2819POPC   C4A38154  28.069  26.193   7.745
 2819POPC   C1B38155  28.734  25.915   8.732
 2819POPC   C2B38156  28.887  25.918   8.321
 2819POPC   C3B38157  28.685  25.962   7.924
 2819POPC   C4B38158  28.591  26.216   7.608
 2820POPC   NC338159  28.100   8.670   9.283
 2820POPC   PO438160  28.266   8.187   9.741
 2820POPC   GL138161  28.323   8.195   9.255
 2820POPC   GL238162  28.530   7.889   9.234
 2820POPC   C1A38163  28.209   8.302   8.776
 2820POPC   D2A38164  28.294   8.116   8.377
 2820POPC   C3A38165  28.237   8.290   7.967
 2820POPC   C4A38166  28.309   8.151   7.537
 2820POPC   C1B38167  28.588   7.924   8.779
 2820POPC   C2B38168  28.748   7.896   8.336
 2820POPC   C3B38169  28.479   7.825   7.976
 2820POPC   C4B38170  28.710   7.862   7.607
 2821POPC   NC338171  40.455   8.056   9.427
 2821POPC   PO438172  39.864   8.420   9.527
 2821POPC   GL138173  40.070   8.312   9.154
 2821POPC   GL238174  40.372   8.468   9.061
 2821POPC   C1A38175  39.959   8.304   8.728
 2821POPC   D2A38176  39.981   8.442   8.309
 2821POPC   C3A38177  39.864   8.117   8.007
 2821POPC   C4A38178  39.589   7.937   7.697
 2821POPC   C1B38179  40.472   8.324   8.653
 2821POPC   C2B38180  40.433   8.122   8.237
 2821POPC   C3B38181  40.313   8.036   7.791
 2821POPC   C4B38182  40.178   7.879   7.383
 2822POPC   NC338183  17.190  38.941   9.467
 2822POPC   PO438184  17.776  39.226   9.541
 2822POPC   GL138185  17.537  39.250   9.201
 2822POPC   GL238186  17.586  38.916   9.118
 2822POPC   C1A38187  17.636  39.315   8.787
 2822POPC   D2A38188  17.380  39.459   8.519
 2822POPC   C3A38189  17.415  39.455   8.105
 2822POPC   C4A38190  17.645  39.471   7.753
 2822POPC   C1B38191  17.347  38.906   8.744
 2822POPC   C2B38192  17.579  38.988   8.373
 2822POPC   C3B38193  17.556  38.839   7.966
 2822POPC   C4B38194  17.286  39.085   7.770
 2823POPC   NC338195  12.486  28.132   9.611
 2823POPC   PO438196  13.110  28.246   9.325
 2823POPC   GL138197  12.766  28.306   9.069
 2823POPC   GL238198  12.437  28.130   9.113
 2823POPC   C1A38199  12.887  28.447   8.674
 2823POPC   D2A38200  13.165  28.538   8.370
 2823POPC   C3A38201  13.182  28.292   7.991
 2823POPC   C4A38202  12.815  28.425   7.908
 2823POPC   C1B38203  12.442  28.226   8.699
 2823POPC   C2B38204  12.574  28.101   8.288
 2823POPC   C3B38205  12.414  28.119   7.853
 2823POPC   C4B38206  12.708  28.176   7.487
 2824POPC   NC338207   2.917  24.963   9.433
 2824POPC   PO438208   2.771  24.424   9.713
 2824POPC   GL138209   2.705  24.504   9.240
 2824POPC   GL238210   2.500  24.761   9.148
 2824POPC   C1A38211   2.684  24.422   8.780
 2824POPC   D2A38212   2.670  24.316   8.334
 2824POPC   C3A38213   2.858  24.450   7.906
 2824POPC   C4A38214   2.823  24.368   7.424
 2824POPC   C1B38215   2.273  24.767   8.778
 2824POPC   C2B38216   2.416  24.879   8.351
 2824POPC   C3B38217   2.404  24.681   7.975
 2824POPC   C4B38218   2.362  24.268   7.924
 2825POPC   NC338219  22.854  35.666   9.590
 2825POPC   PO438220  22.953  35.018   9.582
 2825POPC   GL138221  23.018  35.298   9.216
 2825POPC   GL238222  22.827  35.584   9.101
 2825POPC   C1A38223  23.071  35.252   8.766
 2825POPC   D2A38224  23.039  34.944   8.426
 2825POPC   C3A38225  22.835  35.062   8.024
 2825POPC   C4A38226  22.935  35.357   7.669
 2825POPC   C1B38227  22.563  35.572   8.768
 2825POPC   C2B38228  22.668  35.373   8.407
 2825POPC   C3B38229  22.570  35.488   8.017
 2825POPC   C4B38230  22.449  35.582   7.630
 2826POPC   NC338231  30.762  33.421   9.526
 2826POPC   PO438232  30.834  32.859   9.477
 2826POPC   GL138233  30.720  33.118   9.108
 2826POPC   GL238234  30.492  32.913   8.903
 2826POPC   C1A38235  30.824  33.264   8.695
 2826POPC   D2A38236  30.918  33.094   8.279
 2826POPC   C3A38237  31.135  33.347   8.004
 2826POPC   C4A38238  30.983  33.435   7.611
 2826POPC   C1B38239  30.847  32.725   8.663
 2826POPC   C2B38240  31.006  32.568   8.236
 2826POPC   C3B38241  30.840  32.464   7.801
 2826POPC   C4B38242  30.823  32.572   7.347
 2827POPC   NC338243  39.358  16.356   9.537
 2827POPC   PO438244  39.375  15.665   9.589
 2827POPC   GL138245  39.290  15.914   9.232
 2827POPC   GL238246  38.955  15.852   9.222
 2827POPC   C1A38247  39.267  15.973   8.787
 2827POPC   D2A38248  39.434  15.880   8.377
 2827POPC   C3A38249  39.198  15.999   8.008
 2827POPC   C4A38250  39.216  15.631   7.746
 2827POPC   C1B38251  38.866  15.669   8.819
 2827POPC   C2B38252  38.906  15.824   8.405
 2827POPC   C3B38253  38.767  15.707   7.986
 2827POPC   C4B38254  38.764  15.911   7.596
 2828POPC   NC338255  13.745  25.841   9.451
 2828POPC   PO438256  13.233  26.281   9.401
 2828POPC   GL138257  13.505  26.157   9.112
 2828POPC   GL238258  13.377  25.821   9.094
 2828POPC   C1A38259  13.668  26.039   8.730
 2828POPC   D2A38260  13.606  25.749   8.405
 2828POPC   C3A38261  13.798  25.837   8.038
 2828POPC   C4A38262  13.872  26.149   7.739
 2828POPC   C1B38263  13.176  25.881   8.754
 2828POPC   C2B38264  13.212  26.089   8.382
 2828POPC   C3B38265  13.286  25.887   7.999
 2828POPC   C4B38266  13.498  25.747   7.636
 2829POPC   NC338267   0.711  39.820   9.444
 2829POPC   PO438268   1.278  40.152   9.498
 2829POPC   GL138269   1.118  39.921   9.143
 2829POPC   GL238270   0.883  40.176   9.117
 2829POPC   C1A38271   1.046  39.789   8.713
 2829POPC   D2A38272   1.048  39.651   8.275
 2829POPC   C3A38273   1.196  39.929   7.976
 2829POPC   C4A38274   1.587  39.913   7.788
 2829POPC   C1B38275   1.184  40.281   8.777
 2829POPC   C2B38276   1.478  40.214   8.404
 2829POPC   C3B38277   1.472  40.386   7.974
 2829POPC   C4B38278   1.047  40.448   7.853
 2830POPC   NC338279  18.859  17.775   9.581
 2830POPC   PO438280  19.533  17.575   9.582
 2830POPC   GL138281  19.168  17.456   9.236
 2830POPC   GL238282  18.829  17.594   9.101
 2830POPC   C1A38283  19.086  17.245   8.813
 2830POPC   D2A38284  19.314  17.300   8.404
 2830POPC   C3A38285  19.147  17.293   7.991
 2830POPC   C4A38286  19.331  17.340   7.591
 2830POPC   C1B38287  19.041  17.761   8.709
 2830POPC   C2B38288  19.007  17.727   8.260
 2830POPC   C3B38289  19.101  17.779   7.819
 2830POPC   C4B38290  18.909  17.608   7.434
 2831POPC   NC338291  39.084   0.942   9.469
 2831POPC   PO438292  39.665   1.202   9.440
 2831POPC   GL138293  39.444   0.996   9.097
 2831POPC   GL238294  39.162   1.247   9.072
 2831POPC   C1A38295  39.429   1.140   8.665
 2831POPC   D2A38296  39.600   1.475   8.451
 2831POPC   C3A38297  39.489   1.240   8.108
 2831POPC   C4A38298  39.390   1.072   7.717
 2831POPC   C1B38299  38.909   1.083   8.719
 2831POPC   C2B38300  39.024   0.995   8.281
 2831POPC   C3B38301  38.968   1.269   7.925
 2831POPC   C4B38302  38.739   1.219   7.563
 2832POPC   NC338303  27.968  20.627   9.733
 2832POPC   PO438304  27.358  20.958   9.548
 2832POPC   GL138305  27.618  20.735   9.243
 2832POPC   GL238306  27.492  20.436   9.041
 2832POPC   C1A38307  27.619  20.865   8.803
 2832POPC   D2A38308  27.693  20.639   8.438
 2832POPC   C3A38309  27.387  20.609   8.136
 2832POPC   C4A38310  27.554  20.581   7.722
 2832POPC   C1B38311  27.634  20.184   8.643
 2832POPC   C2B38312  27.850  20.196   8.188
 2832POPC   C3B38313  27.994  20.246   7.718
 2832POPC   C4B38314  28.180  20.118   7.265
 2833POPC   NC338315  34.326  26.290   9.473
 2833POPC   PO438316  33.873  25.810   9.603
 2833POPC   GL138317  33.978  25.834   9.138
 2833POPC   GL238318  34.093  26.173   8.996
 2833POPC   C1A38319  33.754  25.869   8.715
 2833POPC   D2A38320  33.512  26.157   8.434
 2833POPC   C3A38321  33.726  26.321   8.086
 2833POPC   C4A38322  33.791  26.123   7.707
 2833POPC   C1B38323  34.046  26.247   8.521
 2833POPC   C2B38324  34.219  26.513   8.184
 2833POPC   C3B38325  34.170  26.496   7.720
 2833POPC   C4B38326  34.344  26.269   7.356
 2834POPC   NC338327  22.580   4.147   9.425
 2834POPC   PO438328  23.224   4.307   9.540
 2834POPC   GL138329  23.050   4.264   9.176
 2834POPC   GL238330  23.128   3.953   9.027
 2834POPC   C1A38331  22.916   4.618   8.950
 2834POPC   D2A38332  22.897   4.655   8.515
 2834POPC   C3A38333  22.907   4.576   8.112
 2834POPC   C4A38334  22.858   4.342   7.784
 2834POPC   C1B38335  22.772   4.150   8.744
 2834POPC   C2B38336  22.596   4.149   8.301
 2834POPC   C3B38337  22.730   3.889   7.923
 2834POPC   C4B38338  23.183   3.956   7.837
 2835POPC   NC338339   6.324  32.833   9.797
 2835POPC   PO438340   5.876  33.244   9.449
 2835POPC   GL138341   5.893  33.010   9.106
 2835POPC   GL238342   6.004  33.316   8.944
 2835POPC   C1A38343   5.692  32.967   8.713
 2835POPC   D2A38344   5.816  32.828   8.345
 2835POPC   C3A38345   5.802  32.941   7.922
 2835POPC   C4A38346   6.231  32.838   7.774
 2835POPC   C1B38347   6.047  33.282   8.520
 2835POPC   C2B38348   5.952  33.365   8.128
 2835POPC   C3B38349   6.067  33.330   7.709
 2835POPC   C4B38350   6.111  33.491   7.311
 2836POPC   NC338351   3.413  18.643   9.469
 2836POPC   PO438352   3.778  18.223   9.707
 2836POPC   GL138353   3.583  18.211   9.281
 2836POPC   GL238354   3.203  18.164   9.255
 2836POPC   C1A38355   3.772  18.395   8.899
 2836POPC   D2A38356   3.892  18.328   8.451
 2836POPC   C3A38357   3.838  18.641   8.090
 2836POPC   C4A38358   3.537  18.633   7.756
 2836POPC   C1B38359   3.390  18.040   8.851
 2836POPC   C2B38360   3.518  17.958   8.427
 2836POPC   C3B38361   3.536  18.223   8.055
 2836POPC   C4B38362   3.371  18.147   7.576
 2837POPC   NC338363   4.983  15.396   9.663
 2837POPC   PO438364   5.606  15.415   9.345
 2837POPC   GL138365   5.148  15.115   9.274
 2837POPC   GL238366   4.805  15.285   9.202
 2837POPC   C1A38367   5.051  15.082   8.795
 2837POPC   D2A38368   5.320  15.148   8.407
 2837POPC   C3A38369   5.152  15.214   7.975
 2837POPC   C4A38370   5.119  15.188   7.516
 2837POPC   C1B38371   4.750  15.492   8.814
 2837POPC   C2B38372   4.848  15.409   8.378
 2837POPC   C3B38373   4.828  15.595   7.886
 2837POPC   C4B38374   4.862  15.604   7.378
 2838POPC   NC338375  33.198  20.231   9.790
 2838POPC   PO438376  32.698  19.863   9.412
 2838POPC   GL138377  32.724  20.040   9.031
 2838POPC   GL238378  32.847  19.718   8.931
 2838POPC   C1A38379  33.052  20.157   8.712
 2838POPC   D2A38380  33.260  19.988   8.348
 2838POPC   C3A38381  32.921  19.888   8.087
 2838POPC   C4A38382  32.925  19.893   7.661
 2838POPC   C1B38383  33.102  19.557   8.593
 2838POPC   C2B38384  33.522  19.519   8.466
 2838POPC   C3B38385  33.541  19.579   8.027
 2838POPC   C4B38386  33.455  19.814   7.651
 2839POPC   NC338387   7.751  26.221   9.486
 2839POPC   PO438388   8.397  25.846   9.556
 2839POPC   GL138389   8.364  25.978   9.167
 2839POPC   GL238390   8.005  25.922   9.125
 2839POPC   C1A38391   8.305  26.056   8.739
 2839POPC   D2A38392   8.149  26.147   8.384
 2839POPC   C3A38393   8.388  25.999   8.088
 2839POPC   C4A38394   8.358  25.825   7.714
 2839POPC   C1B38395   7.789  26.013   8.748
 2839POPC   C2B38396   7.705  25.861   8.355
 2839POPC   C3B38397   7.873  26.044   7.981
 2839POPC   C4B38398   7.887  26.431   7.797
 2840POPC   NC338399   4.698   2.696   9.529
 2840POPC   PO438400   5.345   2.877   9.724
 2840POPC   GL138401   5.130   2.955   9.344
 2840POPC   GL238402   5.336   3.150   9.127
 2840POPC   C1A38403   5.038   2.779   8.916
 2840POPC   D2A38404   5.293   2.652   8.560
 2840POPC   C3A38405   5.151   2.558   8.156
 2840POPC   C4A38406   4.911   2.640   7.763
 2840POPC   C1B38407   5.142   3.257   8.708
 2840POPC   C2B38408   5.247   3.093   8.277
 2840POPC   C3B38409   5.041   3.142   7.869
 2840POPC   C4B38410   4.622   3.149   7.641
 2841POPC   NC338411  30.450  31.455   9.508
 2841POPC   PO438412  30.965  31.858   9.660
 2841POPC   GL138413  30.790  31.743   9.198
 2841POPC   GL238414  30.640  31.405   9.060
 2841POPC   C1A38415  30.883  31.671   8.716
 2841POPC   D2A38416  30.576  31.575   8.352
 2841POPC   C3A38417  30.655  31.727   7.895
 2841POPC   C4A38418  30.621  31.557   7.464
 2841POPC   C1B38419  30.752  31.157   8.711
 2841POPC   C2B38420  30.896  31.170   8.291
 2841POPC   C3B38421  30.741  31.207   7.863
 2841POPC   C4B38422  30.926  31.129   7.445
 2842POPC   NC338423  10.567  28.536   9.433
 2842POPC   PO438424  10.078  28.127   9.569
 2842POPC   GL138425  10.302  28.201   9.140
 2842POPC   GL238426  10.677  28.198   9.057
 2842POPC   C1A38427  10.323  28.218   8.677
 2842POPC   D2A38428  10.423  28.426   8.294
 2842POPC   C3A38429  10.274  28.324   7.886
 2842POPC   C4A38430  10.380  28.519   7.520
 2842POPC   C1B38431  10.805  28.542   8.735
 2842POPC   C2B38432  10.949  28.561   8.264
 2842POPC   C3B38433  10.806  28.324   7.884
 2842POPC   C4B38434  10.771  28.241   7.430
 2843POPC   NC338435  36.540  22.224   9.494
 2843POPC   PO438436  35.856  22.205   9.368
 2843POPC   GL138437  36.210  22.113   9.086
 2843POPC   GL238438  36.432  22.391   9.027
 2843POPC   C1A38439  36.156  22.147   8.638
 2843POPC   D2A38440  36.108  22.401   8.271
 2843POPC   C3A38441  35.905  22.301   7.911
 2843POPC   C4A38442  36.108  21.979   7.709
 2843POPC   C1B38443  36.640  22.480   8.636
 2843POPC   C2B38444  36.606  22.504   8.173
 2843POPC   C3B38445  36.336  22.491   7.777
 2843POPC   C4B38446  36.408  22.302   7.361
 2844POPC   NC338447  33.216  39.415   9.468
 2844POPC   PO438448  33.855  39.189   9.332
 2844POPC   GL138449  33.747  39.095   8.951
 2844POPC   GL238450  33.395  38.975   9.010
 2844POPC   C1A38451  33.897  39.031   8.523
 2844POPC   D2A38452  34.220  38.883   8.244
 2844POPC   C3A38453  34.105  39.003   7.855
 2844POPC   C4A38454  33.999  39.303   7.465
 2844POPC   C1B38455  33.389  39.325   8.675
 2844POPC   C2B38456  33.677  39.522   8.368
 2844POPC   C3B38457  33.759  39.384   7.914
 2844POPC   C4B38458  33.616  38.980   7.776
 2845POPC   NC338459   9.969  10.308   9.669
 2845POPC   PO438460   9.574  10.872   9.591
 2845POPC   GL138461   9.747  10.735   9.202
 2845POPC   GL238462   9.463  10.685   8.962
 2845POPC   C1A38463   9.984  10.675   8.840
 2845POPC   D2A38464   9.995  10.459   8.458
 2845POPC   C3A38465   9.887  10.662   8.098
 2845POPC   C4A38466  10.113  10.617   7.738
 2845POPC   C1B38467   9.642  10.290   8.791
 2845POPC   C2B38468   9.651  10.085   8.358
 2845POPC   C3B38469   9.665  10.236   7.926
 2845POPC   C4B38470   9.581  10.589   7.667
 2846POPC   NC338471   6.987  39.621   9.444
 2846POPC   PO438472   6.459  40.088   9.508
 2846POPC   GL138473   6.741  40.066   9.171
 2846POPC   GL238474   6.699  39.793   9.051
 2846POPC   C1A38475   6.613  40.179   8.732
 2846POPC   D2A38476   6.356  40.152   8.378
 2846POPC   C3A38477   6.632  40.180   8.065
 2846POPC   C4A38478   6.858  40.282   7.681
 2846POPC   C1B38479   6.420  39.606   8.778
 2846POPC   C2B38480   6.295  39.504   8.364
 2846POPC   C3B38481   6.240  39.791   8.033
 2846POPC   C4B38482   6.495  39.883   7.689
 2847POPC   NC338483  17.457  38.464   9.937
 2847POPC   PO438484  17.783  38.234   9.414
 2847POPC   GL138485  17.607  38.407   9.051
 2847POPC   GL238486  17.266  38.512   9.160
 2847POPC   C1A38487  17.637  38.524   8.627
 2847POPC   D2A38488  17.393  38.490   8.294
 2847POPC   C3A38489  17.580  38.300   7.958
 2847POPC   C4A38490  17.698  38.443   7.575
 2847POPC   C1B38491  17.190  38.320   8.756
 2847POPC   C2B38492  17.025  38.083   8.416
 2847POPC   C3B38493  17.094  38.171   8.004
 2847POPC   C4B38494  17.117  38.594   7.854
 2848POPC   NC338495  35.161   0.829   9.354
 2848POPC   PO438496  35.507   1.514   9.439
 2848POPC   GL138497  35.418   1.216   9.133
 2848POPC   GL238498  35.573   1.403   8.887
 2848POPC   C1A38499  35.225   1.045   8.727
 2848POPC   D2A38500  35.370   1.181   8.315
 2848POPC   C3A38501  35.361   0.974   7.891
 2848POPC   C4A38502  35.509   0.992   7.428
 2848POPC   C1B38503  35.178   1.564   8.773
 2848POPC   C2B38504  35.039   1.614   8.365
 2848POPC   C3B38505  35.026   1.387   7.990
 2848POPC   C4B38506  35.269   1.403   7.607
 2849POPC   NC338507  15.543  24.571   9.460
 2849POPC   PO438508  16.155  24.396   9.512
 2849POPC   GL138509  16.005  24.701   9.170
 2849POPC   GL238510  16.177  25.035   9.206
 2849POPC   C1A38511  15.843  24.628   8.722
 2849POPC   D2A38512  15.686  24.569   8.283
 2849POPC   C3A38513  16.016  24.495   7.957
 2849POPC   C4A38514  15.985  24.533   7.481
 2849POPC   C1B38515  16.344  24.907   8.800
 2849POPC   C2B38516  16.413  24.594   8.480
 2849POPC   C3B38517  16.552  24.655   8.064
 2849POPC   C4B38518  16.302  24.908   7.791
 2850POPC   NC338519  29.315  26.254   9.631
 2850POPC   PO438520  28.843  25.830   9.576
 2850POPC   GL138521  29.051  25.856   9.147
 2850POPC   GL238522  29.253  26.154   9.102
 2850POPC   C1A38523  29.258  25.821   8.702
 2850POPC   D2A38524  29.435  25.839   8.262
 2850POPC   C3A38525  29.167  25.827   7.869
 2850POPC   C4A38526  28.900  25.820   7.466
 2850POPC   C1B38527  29.088  26.298   8.668
 2850POPC   C2B38528  29.198  26.303   8.218
 2850POPC   C3B38529  29.078  26.360   7.806
 2850POPC   C4B38530  29.241  26.726   7.517
 2851POPC   NC338531  39.202   8.771   9.444
 2851POPC   PO438532  39.430   9.266   9.335
 2851POPC   GL138533  39.471   8.996   9.054
 2851POPC   GL238534  39.093   9.040   9.018
 2851POPC   C1A38535  39.511   8.921   8.634
 2851POPC   D2A38536  39.184   9.140   8.450
 2851POPC   C3A38537  39.205   9.253   8.025
 2851POPC   C4A38538  39.268   8.831   7.799
 2851POPC   C1B38539  38.836   9.315   8.800
 2851POPC   C2B38540  38.701   9.267   8.392
 2851POPC   C3B38541  38.806   8.933   8.100
 2851POPC   C4B38542  38.852   9.087   7.684
 2852POPC   NC338543   7.880  38.923   9.226
 2852POPC   PO438544   8.280  39.457   9.443
 2852POPC   GL138545   8.310  39.125   9.094
 2852POPC   GL238546   8.004  39.242   8.862
 2852POPC   C1A38547   8.247  38.866   8.679
 2852POPC   D2A38548   8.109  39.098   8.325
 2852POPC   C3A38549   8.323  39.087   7.951
 2852POPC   C4A38550   8.289  39.072   7.536
 2852POPC   C1B38551   8.050  39.579   8.569
 2852POPC   C2B38552   7.917  39.805   8.269
 2852POPC   C3B38553   8.052  39.527   7.997
 2852POPC   C4B38554   8.164  39.543   7.607
 2853POPC   NC338555   4.732  14.464   9.672
 2853POPC   PO438556   4.133  14.180   9.753
 2853POPC   GL138557   4.169  14.209   9.275
 2853POPC   GL238558   4.394  14.489   9.189
 2853POPC   C1A38559   4.189  14.274   8.783
 2853POPC   D2A38560   4.357  14.548   8.407
 2853POPC   C3A38561   4.311  14.280   7.993
 2853POPC   C4A38562   4.132  13.845   7.915
 2853POPC   C1B38563   4.078  14.762   8.907
 2853POPC   C2B38564   3.929  14.833   8.456
 2853POPC   C3B38565   4.103  14.848   8.026
 2853POPC   C4B38566   4.481  14.727   7.793
 2854POPC   NC338567  31.756  44.287   9.531
 2854POPC   PO438568  31.290  44.685   9.490
 2854POPC   GL138569  31.301  44.766   9.053
 2854POPC   GL238570  31.143   0.072   8.935
 2854POPC   C1A38571  31.511  44.606   8.653
 2854POPC   D2A38572  31.532  44.264   8.320
 2854POPC   C3A38573  31.305  44.361   7.917
 2854POPC   C4A38574  31.569  44.494   7.581
 2854POPC   C1B38575  31.004  44.734   8.643
 2854POPC   C2B38576  31.126  44.711   8.246
 2854POPC   C3B38577  31.310  44.870   7.861
 2854POPC   C4B38578  31.194  44.770   7.417
 2855POPC   NC338579   7.951  39.624   9.180
 2855POPC   PO438580   8.093  40.155   9.551
 2855POPC   GL138581   8.290  40.040   9.156
 2855POPC   GL238582   8.589  39.839   9.209
 2855POPC   C1A38583   8.090  40.106   8.744
 2855POPC   D2A38584   8.015  40.452   8.463
 2855POPC   C3A38585   8.066  40.269   8.088
 2855POPC   C4A38586   8.058  40.002   7.777
 2855POPC   C1B38587   8.651  39.997   8.767
 2855POPC   C2B38588   8.413  39.961   8.365
 2855POPC   C3B38589   8.498  39.822   7.940
 2855POPC   C4B38590   8.524  39.899   7.487
 2856POPC   NC338591  41.954  40.002   9.306
 2856POPC   PO438592  41.311  40.139   9.492
 2856POPC   GL138593  41.505  40.093   9.127
 2856POPC   GL238594  41.736  40.405   9.077
 2856POPC   C1A38595  41.507  39.784   8.795
 2856POPC   D2A38596  41.662  39.754   8.392
 2856POPC   C3A38597  41.420  39.863   8.044
 2856POPC   C4A38598  41.500  39.901   7.621
 2856POPC   C1B38599  41.746  40.271   8.686
 2856POPC   C2B38600  41.696  40.247   8.278
 2856POPC   C3B38601  41.515  40.379   7.925
 2856POPC   C4B38602  41.607  40.382   7.524
 2857POPC   NC338603  30.592  20.645   9.625
 2857POPC   PO438604  31.187  21.029   9.518
 2857POPC   GL138605  30.845  20.770   9.188
 2857POPC   GL238606  30.565  20.492   9.157
 2857POPC   C1A38607  30.904  20.515   8.773
 2857POPC   D2A38608  30.906  20.258   8.416
 2857POPC   C3A38609  30.942  20.543   8.060
 2857POPC   C4A38610  30.700  20.640   7.693
 2857POPC   C1B38611  30.432  20.664   8.758
 2857POPC   C2B38612  30.513  20.573   8.341
 2857POPC   C3B38613  30.278  20.693   7.964
 2857POPC   C4B38614  30.208  20.515   7.546
 2858POPC   NC338615  13.413  12.656   9.620
 2858POPC   PO438616  12.785  13.102   9.524
 2858POPC   GL138617  12.755  13.044   9.132
 2858POPC   GL238618  12.413  13.104   9.094
 2858POPC   C1A38619  12.655  12.794   8.754
 2858POPC   D2A38620  12.821  12.586   8.414
 2858POPC   C3A38621  12.744  12.796   8.070
 2858POPC   C4A38622  13.060  12.675   7.811
 2858POPC   C1B38623  12.659  13.320   8.734
 2858POPC   C2B38624  12.946  13.144   8.418
 2858POPC   C3B38625  13.114  13.171   7.985
 2858POPC   C4B38626  12.900  13.104   7.574
 2859POPC   NC338627  38.231  20.176   9.425
 2859POPC   PO438628  38.633  19.673   9.443
 2859POPC   GL138629  38.530  19.898   9.103
 2859POPC   GL238630  38.214  19.718   9.092
 2859POPC   C1A38631  38.595  19.919   8.669
 2859POPC   D2A38632  38.766  19.996   8.280
 2859POPC   C3A38633  38.613  19.694   7.999
 2859POPC   C4A38634  38.315  19.473   7.769
 2859POPC   C1B38635  38.110  20.006   8.772
 2859POPC   C2B38636  38.241  20.322   8.492
 2859POPC   C3B38637  38.390  20.347   8.064
 2859POPC   C4B38638  38.306  20.042   7.743
 2860POPC   NC338639  40.300  33.517   9.199
 2860POPC   PO438640  40.715  34.005   9.380
 2860POPC   GL138641  40.938  33.763   9.082
 2860POPC   GL238642  40.818  33.435   9.258
 2860POPC   C1A38643  40.934  33.949   8.649
 2860POPC   D2A38644  40.639  34.146   8.359
 2860POPC   C3A38645  40.667  33.902   7.984
 2860POPC   C4A38646  40.585  33.597   7.659
 2860POPC   C1B38647  40.879  33.329   8.827
 2860POPC   C2B38648  41.089  33.465   8.478
 2860POPC   C3B38649  41.071  33.568   8.051
 2860POPC   C4B38650  40.979  33.302   7.720
 2861POPC   NC338651  22.431  16.918   9.491
 2861POPC   PO438652  22.992  16.524   9.560
 2861POPC   GL138653  22.917  16.719   9.136
 2861POPC   GL238654  23.279  16.639   9.069
 2861POPC   C1A38655  22.752  16.877   8.693
 2861POPC   D2A38656  22.647  16.684   8.224
 2861POPC   C3A38657  22.685  16.784   7.743
 2861POPC   C4A38658  22.694  16.810   7.232
 2861POPC   C1B38659  23.116  16.534   8.670
 2861POPC   C2B38660  23.114  16.872   8.345
 2861POPC   C3B38661  23.163  16.784   7.952
 2861POPC   C4B38662  23.279  16.459   7.745
 2862POPC   NC338663   2.510   6.332   9.839
 2862POPC   PO438664   2.742   6.952   9.541
 2862POPC   GL138665   2.763   6.739   9.161
 2862POPC   GL238666   2.816   6.405   9.280
 2862POPC   C1A38667   2.944   6.802   8.745
 2862POPC   D2A38668   2.836   6.558   8.396
 2862POPC   C3A38669   2.965   6.640   7.994
 2862POPC   C4A38670   3.093   6.818   7.576
 2862POPC   C1B38671   2.755   6.280   8.840
 2862POPC   C2B38672   2.456   6.217   8.475
 2862POPC   C3B38673   2.574   6.283   8.030
 2862POPC   C4B38674   2.802   6.342   7.620
 2863POPC   NC338675   3.132  43.599   9.453
 2863POPC   PO438676   2.608  44.098   9.543
 2863POPC   GL138677   2.703  43.908   9.189
 2863POPC   GL238678   3.019  44.062   9.122
 2863POPC   C1A38679   2.782  43.737   8.791
 2863POPC   D2A38680   2.648  43.887   8.421
 2863POPC   C3A38681   2.855  43.661   8.127
 2863POPC   C4A38682   2.768  43.763   7.738
 2863POPC   C1B38683   3.190  44.059   8.720
 2863POPC   C2B38684   3.117  44.073   8.283
 2863POPC   C3B38685   3.170  44.049   7.835
 2863POPC   C4B38686   2.978  44.100   7.414
 2864POPC   NC338687   2.365  24.618   9.623
 2864POPC   PO438688   1.837  24.243   9.544
 2864POPC   GL138689   2.030  24.442   9.186
 2864POPC   GL238690   1.990  24.793   9.243
 2864POPC   C1A38691   1.948  24.371   8.741
 2864POPC   D2A38692   2.173  24.430   8.388
 2864POPC   C3A38693   1.918  24.591   8.065
 2864POPC   C4A38694   1.944  24.708   7.631
 2864POPC   C1B38695   1.704  24.810   8.866
 2864POPC   C2B38696   1.554  24.663   8.441
 2864POPC   C3B38697   1.461  24.900   8.042
 2864POPC   C4B38698   1.509  24.955   7.596
 2865POPC   NC338699  16.417  35.567   9.453
 2865POPC   PO438700  16.933  35.203   9.535
 2865POPC   GL138701  17.018  35.355   9.139
 2865POPC   GL238702  17.217  35.076   9.088
 2865POPC   C1A38703  16.725  35.469   8.797
 2865POPC   D2A38704  16.368  35.421   8.502
 2865POPC   C3A38705  16.521  35.346   8.082
 2865POPC   C4A38706  16.586  35.464   7.626
 2865POPC   C1B38707  17.042  35.058   8.694
 2865POPC   C2B38708  17.021  35.342   8.347
 2865POPC   C3B38709  16.990  35.263   7.905
 2865POPC   C4B38710  17.075  34.889   7.727
 2866POPC   NC338711  22.993   0.337   9.569
 2866POPC   PO438712  23.336   0.947   9.495
 2866POPC   GL138713  23.028   0.832   9.181
 2866POPC   GL238714  22.819   0.527   9.147
 2866POPC   C1A38715  23.019   0.786   8.753
 2866POPC   D2A38716  22.798   0.953   8.420
 2866POPC   C3A38717  22.915   0.768   8.057
 2866POPC   C4A38718  23.249   0.659   7.811
 2866POPC   C1B38719  22.743   0.350   8.748
 2866POPC   C2B38720  23.041   0.394   8.420
 2866POPC   C3B38721  23.143   0.242   8.067
 2866POPC   C4B38722  22.847   0.325   7.792
 2867POPC   NC338723   6.067  30.509   9.485
 2867POPC   PO438724   5.623  30.994   9.404
 2867POPC   GL138725   5.918  30.806   9.097
 2867POPC   GL238726   6.194  30.962   8.960
 2867POPC   C1A38727   5.875  30.633   8.692
 2867POPC   D2A38728   5.575  30.608   8.348
 2867POPC   C3A38729   5.761  30.621   7.964
 2867POPC   C4A38730   5.734  30.582   7.535
 2867POPC   C1B38731   6.246  31.004   8.532
 2867POPC   C2B38732   6.180  30.716   8.240
 2867POPC   C3B38733   6.266  30.739   7.819
 2867POPC   C4B38734   6.163  30.829   7.417
 2868POPC   NC338735  27.180  36.952   9.828
 2868POPC   PO438736  27.099  37.616   9.505
 2868POPC   GL138737  26.974  37.846   9.116
 2868POPC   GL238738  26.604  37.780   9.100
 2868POPC   C1A38739  26.851  37.905   8.672
 2868POPC   D2A38740  26.606  37.771   8.303
 2868POPC   C3A38741  26.813  37.782   7.894
 2868POPC   C4A38742  26.986  37.762   7.459
 2868POPC   C1B38743  26.647  37.434   8.846
 2868POPC   C2B38744  26.500  37.278   8.466
 2868POPC   C3B38745  26.679  37.297   8.039
 2868POPC   C4B38746  26.785  37.327   7.622
 2869POPC   NC338747   8.406   7.085   9.381
 2869POPC   PO438748   8.348   6.500   9.772
 2869POPC   GL138749   8.240   6.479   9.290
 2869POPC   GL238750   8.411   6.245   9.049
 2869POPC   C1A38751   8.127   6.682   8.843
 2869POPC   D2A38752   8.253   6.811   8.367
 2869POPC   C3A38753   8.093   6.681   7.927
 2869POPC   C4A38754   7.712   6.857   7.782
 2869POPC   C1B38755   8.543   6.431   8.676
 2869POPC   C2B38756   8.643   6.489   8.282
 2869POPC   C3B38757   8.545   6.372   7.904
 2869POPC   C4B38758   8.355   6.458   7.524
 2870POPC   NC338759  11.050  18.152   9.609
 2870POPC   PO438760  11.579  18.505   9.663
 2870POPC   GL138761  11.393  18.343   9.254
 2870POPC   GL238762  11.117  18.071   9.109
 2870POPC   C1A38763  11.292  18.449   8.835
 2870POPC   D2A38764  11.299  18.165   8.494
 2870POPC   C3A38765  11.272  18.330   8.114
 2870POPC   C4A38766  11.499  18.347   7.758
 2870POPC   C1B38767  11.009  17.821   8.717
 2870POPC   C2B38768  10.907  17.898   8.270
 2870POPC   C3B38769  11.012  17.949   7.843
 2870POPC   C4B38770  10.999  18.358   7.674
 2871POPC   NC338771   1.691  40.391   9.456
 2871POPC   PO438772   1.761  41.012   9.661
 2871POPC   GL138773   1.957  40.800   9.210
 2871POPC   GL238774   1.800  40.527   8.987
 2871POPC   C1A38775   2.228  40.740   8.815
 2871POPC   D2A38776   2.201  40.871   8.408
 2871POPC   C3A38777   2.209  40.568   8.079
 2871POPC   C4A38778   2.319  40.585   7.699
 2871POPC   C1B38779   1.737  40.832   8.668
 2871POPC   C2B38780   1.726  40.772   8.228
 2871POPC   C3B38781   1.941  40.944   7.887
 2871POPC   C4B38782   1.852  41.104   7.483
 2872POPC   NC338783  12.526  44.291   9.855
 2872POPC   PO438784  12.955  43.969   9.802
 2872POPC   GL138785  13.041  43.918   9.296
 2872POPC   GL238786  12.870  43.641   9.148
 2872POPC   C1A38787  13.188  43.843   8.833
 2872POPC   D2A38788  12.912  43.688   8.484
 2872POPC   C3A38789  12.955  43.938   8.111
 2872POPC   C4A38790  12.916  43.823   7.700
 2872POPC   C1B38791  12.698  43.978   8.828
 2872POPC   C2B38792  12.559  44.088   8.376
 2872POPC   C3B38793  12.446  44.001   7.937
 2872POPC   C4B38794  12.193  43.664   7.723
 2873POPC   NC338795  11.002   9.734   9.457
 2873POPC   PO438796  11.621   9.509   9.485
 2873POPC   GL138797  11.404   9.626   9.128
 2873POPC   GL238798  11.442   9.967   9.093
 2873POPC   C1A38799  11.154   9.625   8.754
 2873POPC   D2A38800  11.251   9.666   8.320
 2873POPC   C3A38801  11.034   9.559   7.951
 2873POPC   C4A38802  11.154   9.600   7.523
 2873POPC   C1B38803  11.375  10.087   8.656
 2873POPC   C2B38804  11.310  10.172   8.230
 2873POPC   C3B38805  11.313   9.964   7.838
 2873POPC   C4B38806  11.213  10.081   7.364
 2874POPC   NC338807  39.097  25.011   9.438
 2874POPC   PO438808  39.303  25.528   9.568
 2874POPC   GL138809  39.305  25.347   9.129
 2874POPC   GL238810  39.540  25.034   9.172
 2874POPC   C1A38811  39.223  25.422   8.686
 2874POPC   D2A38812  39.180  25.591   8.275
 2874POPC   C3A38813  39.168  25.322   7.932
 2874POPC   C4A38814  39.163  24.984   7.652
 2874POPC   C1B38815  39.388  24.937   8.769
 2874POPC   C2B38816  39.337  25.047   8.340
 2874POPC   C3B38817  39.567  24.958   7.980
 2874POPC   C4B38818  39.701  24.836   7.627
 2875POPC   NC338819   0.676  39.186   9.388
 2875POPC   PO438820   0.049  39.316   9.197
 2875POPC   GL138821   0.422  39.310   8.981
 2875POPC   GL238822   0.710  39.550   9.011
 2875POPC   C1A38823   0.463  38.965   8.725
 2875POPC   D2A38824   0.070  38.903   8.462
 2875POPC   C3A38825   0.088  39.249   8.154
 2875POPC   C4A38826   0.357  39.279   7.776
 2875POPC   C1B38827   0.686  39.429   8.573
 2875POPC   C2B38828   0.555  39.558   8.171
 2875POPC   C3B38829   0.776  39.576   7.769
 2875POPC   C4B38830   0.864  39.161   7.573
 2876POPC   NC338831  25.176  23.427   9.454
 2876POPC   PO438832  25.451  24.063   9.545
 2876POPC   GL138833  25.394  23.767   9.150
 2876POPC   GL238834  25.471  23.389   9.058
 2876POPC   C1A38835  25.385  23.931   8.719
 2876POPC   D2A38836  25.509  24.127   8.334
 2876POPC   C3A38837  25.275  23.986   8.014
 2876POPC   C4A38838  25.354  23.805   7.637
 2876POPC   C1B38839  25.093  23.482   8.807
 2876POPC   C2B38840  24.962  23.726   8.468
 2876POPC   C3B38841  24.977  23.503   8.087
 2876POPC   C4B38842  24.937  23.477   7.666
 2877POPC   NC338843   1.483  41.247   9.374
 2877POPC   PO438844   1.065  41.704   9.249
 2877POPC   GL138845   1.340  41.571   8.966
 2877POPC   GL238846   1.216  41.230   8.940
 2877POPC   C1A38847   1.108  41.605   8.582
 2877POPC   D2A38848   1.131  41.854   8.243
 2877POPC   C3A38849   1.162  41.692   7.837
 2877POPC   C4A38850   1.096  41.262   7.763
 2877POPC   C1B38851   1.421  41.212   8.569
 2877POPC   C2B38852   1.359  41.370   8.198
 2877POPC   C3B38853   1.584  41.346   7.851
 2877POPC   C4B38854   1.555  41.552   7.490
 2878POPC   NC338855  26.401  17.522   9.487
 2878POPC   PO438856  27.076  17.393   9.451
 2878POPC   GL138857  26.926  17.531   9.076
 2878POPC   GL238858  26.760  17.758   9.209
 2878POPC   C1A38859  26.801  17.330   8.700
 2878POPC   D2A38860  26.549  17.199   8.350
 2878POPC   C3A38861  26.747  17.351   8.022
 2878POPC   C4A38862  26.989  17.090   7.833
 2878POPC   C1B38863  26.720  17.882   8.761
 2878POPC   C2B38864  26.672  17.772   8.305
 2878POPC   C3B38865  26.644  17.837   7.835
 2878POPC   C4B38866  26.449  17.727   7.406
 2879POPC   NC338867  30.487  34.372   9.384
 2879POPC   PO438868  30.873  33.856   9.409
 2879POPC   GL138869  30.620  33.700   9.089
 2879POPC   GL238870  30.417  33.992   9.043
 2879POPC   C1A38871  30.589  33.733   8.634
 2879POPC   D2A38872  30.875  33.635   8.327
 2879POPC   C3A38873  30.635  33.462   7.982
 2879POPC   C4A38874  30.534  33.632   7.541
 2879POPC   C1B38875  30.796  34.158   8.814
 2879POPC   C2B38876  30.795  34.170   8.350
 2879POPC   C3B38877  30.615  34.349   7.963
 2879POPC   C4B38878  30.526  34.130   7.551
 2880POPC   NC338879  43.312  27.115   9.431
 2880POPC   PO438880  42.901  27.640   9.430
 2880POPC   GL138881  43.050  27.759   9.088
 2880POPC   GL238882  43.357  27.539   9.109
 2880POPC   C1A38883  43.107  27.638   8.697
 2880POPC   D2A38884  43.265  27.662   8.330
 2880POPC   C3A38885  42.942  27.715   8.014
 2880POPC   C4A38886  42.633  27.463   7.791
 2880POPC   C1B38887  43.491  27.322   8.699
 2880POPC   C2B38888  43.420  27.141   8.311
 2880POPC   C3B38889  43.369  27.378   7.935
 2880POPC   C4B38890  43.104  27.315   7.639
 2881POPC   NC338891   1.630   1.757   9.274
 2881POPC   PO438892   2.159   2.027   9.627
 2881POPC   GL138893   1.970   2.160   9.196
 2881POPC   GL238894   2.167   2.451   9.075
 2881POPC   C1A38895   1.977   2.075   8.737
 2881POPC   D2A38896   1.931   1.902   8.311
 2881POPC   C3A38897   1.630   1.979   8.011
 2881POPC   C4A38898   1.678   1.938   7.586
 2881POPC   C1B38899   2.312   2.453   8.652
 2881POPC   C2B38900   2.223   2.306   8.222
 2881POPC   C3B38901   2.069   2.231   7.765
 2881POPC   C4B38902   2.188   2.519   7.387
 2882POPC   NC338903  26.372  20.224   9.420
 2882POPC   PO438904  26.142  19.536   9.584
 2882POPC   GL138905  26.056  19.687   9.186
 2882POPC   GL238906  25.813  19.407   9.180
 2882POPC   C1A38907  26.211  19.868   8.784
 2882POPC   D2A38908  26.377  19.886   8.348
 2882POPC   C3A38909  26.254  20.230   8.077
 2882POPC   C4A38910  26.031  20.065   7.723
 2882POPC   C1B38911  25.769  19.554   8.775
 2882POPC   C2B38912  25.959  19.576   8.414
 2882POPC   C3B38913  25.843  19.723   8.031
 2882POPC   C4B38914  25.677  19.729   7.604
 2883POPC   NC338915  33.649  44.610   9.642
 2883POPC   PO438916  33.420   0.194   9.379
 2883POPC   GL138917  33.610  44.824   9.160
 2883POPC   GL238918  33.975  44.775   9.180
 2883POPC   C1A38919  33.658  44.648   8.728
 2883POPC   D2A38920  33.463  44.641   8.316
 2883POPC   C3A38921  33.627  44.484   7.930
 2883POPC   C4A38922  33.652  44.708   7.562
 2883POPC   C1B38923  34.172  44.780   8.755
 2883POPC   C2B38924  34.003  44.777   8.306
 2883POPC   C3B38925  34.094  44.744   7.836
 2883POPC   C4B38926  34.160  44.845   7.375
 2884POPC   NC338927  19.781  17.961   9.463
 2884POPC   PO438928  19.556  18.572   9.646
 2884POPC   GL138929  19.490  18.334   9.256
 2884POPC   GL238930  19.847  18.299   9.080
 2884POPC   C1A38931  19.430  18.142   8.838
 2884POPC   D2A38932  19.686  18.308   8.504
 2884POPC   C3A38933  19.652  18.180   8.095
 2884POPC   C4A38934  19.922  18.367   7.791
 2884POPC   C1B38935  19.900  17.937   8.795
 2884POPC   C2B38936  19.997  17.895   8.358
 2884POPC   C3B38937  20.028  17.882   7.925
 2884POPC   C4B38938  20.326  18.052   7.692
 2885POPC   NC338939   8.793  42.324   9.550
 2885POPC   PO438940   9.322  42.252   9.198
 2885POPC   GL138941   8.862  42.167   9.079
 2885POPC   GL238942   8.651  42.463   9.058
 2885POPC   C1A38943   8.633  42.116   8.692
 2885POPC   D2A38944   8.887  42.108   8.356
 2885POPC   C3A38945   8.812  42.295   7.980
 2885POPC   C4A38946   8.837  42.086   7.627
 2885POPC   C1B38947   9.006  42.474   8.697
 2885POPC   C2B38948   9.036  42.638   8.285
 2885POPC   C3B38949   9.209  42.555   7.848
 2885POPC   C4B38950   9.100  42.460   7.378
 2886POPC   NC338951  22.513   1.802   9.622
 2886POPC   PO438952  21.907   2.153   9.535
 2886POPC   GL138953  22.042   2.056   9.152
 2886POPC   GL238954  22.368   1.895   9.125
 2886POPC   C1A38955  21.817   2.120   8.761
 2886POPC   D2A38956  21.994   2.245   8.362
 2886POPC   C3A38957  21.941   2.116   7.932
 2886POPC   C4A38958  22.134   1.991   7.537
 2886POPC   C1B38959  22.329   2.240   8.782
 2886POPC   C2B38960  22.507   2.249   8.346
 2886POPC   C3B38961  22.466   2.171   7.877
 2886POPC   C4B38962  22.584   2.268   7.440
 2887POPC   NC338963  43.585   8.569   9.430
 2887POPC   PO438964  43.465   9.252   9.477
 2887POPC   GL138965  43.615   9.085   9.047
 2887POPC   GL238966  43.913   8.828   9.093
 2887POPC   C1A38967  43.682   8.838   8.647
 2887POPC   D2A38968  43.909   8.685   8.311
 2887POPC   C3A38969  43.875   8.934   7.958
 2887POPC   C4A38970  43.567   9.056   7.653
 2887POPC   C1B38971  44.046   9.187   8.788
 2887POPC   C2B38972  44.077   9.197   8.381
 2887POPC   C3B38973  44.243   9.326   8.031
 2887POPC   C4B38974  44.058   9.293   7.640
 2888POPC   NC338975   3.495  27.698   9.523
 2888POPC   PO438976   3.758  27.092   9.675
 2888POPC   GL138977   3.750  27.366   9.238
 2888POPC   GL238978   3.471  27.579   9.036
 2888POPC   C1A38979   3.790  27.278   8.791
 2888POPC   D2A38980   3.653  27.451   8.409
 2888POPC   C3A38981   3.607  27.231   8.017
 2888POPC   C4A38982   3.433  27.495   7.698
 2888POPC   C1B38983   3.803  27.804   8.775
 2888POPC   C2B38984   3.872  27.960   8.342
 2888POPC   C3B38985   3.729  27.939   7.891
 2888POPC   C4B38986   3.796  27.944   7.422
 2889POPC   NC338987  39.604  43.493   9.352
 2889POPC   PO438988  40.069  43.067   9.600
 2889POPC   GL138989  39.914  42.905   9.201
 2889POPC   GL238990  39.667  43.111   9.027
 2889POPC   C1A38991  40.059  42.893   8.759
 2889POPC   D2A38992  39.891  43.115   8.412
 2889POPC   C3A38993  39.967  42.962   8.017
 2889POPC   C4A38994  40.058  43.143   7.627
 2889POPC   C1B38995  39.632  43.454   8.711
 2889POPC   C2B38996  39.726  43.591   8.312
 2889POPC   C3B38997  39.731  43.415   7.932
 2889POPC   C4B38998  39.770  43.554   7.528
 2890POPC   NC338999  19.376  37.168   9.336
 2890POPC   PO439000  18.904  36.660   9.435
 2890POPC   GL139001  18.936  36.761   9.036
 2890POPC   GL239002  19.098  36.435   9.010
 2890POPC   C1A39003  18.933  37.059   8.696
 2890POPC   D2A39004  19.113  37.131   8.316
 2890POPC   C3A39005  18.919  37.222   7.925
 2890POPC   C4A39006  19.068  37.224   7.501
 2890POPC   C1B39007  19.218  36.598   8.641
 2890POPC   C2B39008  19.175  36.519   8.247
 2890POPC   C3B39009  19.098  36.538   7.874
 2890POPC   C4B39010  18.837  36.791   7.657
 2891POPC   NC339011  11.620  31.750   9.364
 2891POPC   PO439012  12.103  31.334   9.686
 2891POPC   GL139013  12.046  31.477   9.289
 2891POPC   GL239014  11.758  31.246   9.251
 2891POPC   C1A39015  12.292  31.701   8.931
 2891POPC   D2A39016  12.327  31.897   8.532
 2891POPC   C3A39017  12.234  31.582   8.219
 2891POPC   C4A39018  12.023  31.700   7.836
 2891POPC   C1B39019  11.930  31.343   8.833
 2891POPC   C2B39020  11.858  31.278   8.420
 2891POPC   C3B39021  11.779  31.263   8.002
 2891POPC   C4B39022  12.099  31.220   7.728
 2892POPC   NC339023  44.003  41.929   9.561
 2892POPC   PO439024  43.700  41.276   9.543
 2892POPC   GL139025  43.826  41.436   9.139
 2892POPC   GL239026  43.753  41.772   9.069
 2892POPC   C1A39027  43.777  41.368   8.681
 2892POPC   D2A39028  43.705  41.647   8.315
 2892POPC   C3A39029  43.907  41.537   7.925
 2892POPC   C4A39030  43.713  41.425   7.558
 2892POPC   C1B39031  43.993  41.860   8.702
 2892POPC   C2B39032  44.093  41.993   8.274
 2892POPC   C3B39033  43.899  42.026   7.872
 2892POPC   C4B39034  43.846  41.947   7.437
 2893POPC   NC339035  22.369  14.465   9.429
 2893POPC   PO439036  21.705  14.425   9.498
 2893POPC   GL139037  21.973  14.542   9.090
 2893POPC   GL239038  22.209  14.242   8.998
 2893POPC   C1A39039  21.969  14.627   8.609
 2893POPC   D2A39040  22.139  14.458   8.170
 2893POPC   C3A39041  22.005  14.644   7.766
 2893POPC   C4A39042  21.953  14.750   7.322
 2893POPC   C1B39043  22.458  14.439   8.662
 2893POPC   C2B39044  22.685  14.335   8.310
 2893POPC   C3B39045  22.584  14.032   8.011
 2893POPC   C4B39046  22.258  14.179   7.730
 2894POPC   NC339047  32.408  39.104   9.511
 2894POPC   PO439048  33.041  38.919   9.611
 2894POPC   GL139049  32.840  39.040   9.202
 2894POPC   GL239050  32.998  39.319   9.023
 2894POPC   C1A39051  32.683  39.033   8.754
 2894POPC   D2A39052  32.950  39.085   8.410
 2894POPC   C3A39053  32.834  39.304   8.037
 2894POPC   C4A39054  32.588  39.137   7.755
 2894POPC   C1B39055  32.899  39.553   8.666
 2894POPC   C2B39056  33.148  39.598   8.305
 2894POPC   C3B39057  33.333  39.220   8.123
 2894POPC   C4B39058  33.122  39.023   7.744
 2895POPC   NC339059  11.509  38.926   9.517
 2895POPC   PO439060  11.054  39.416   9.290
 2895POPC   GL139061  11.278  39.116   9.081
 2895POPC   GL239062  11.639  39.162   9.081
 2895POPC   C1A39063  11.148  39.101   8.676
 2895POPC   D2A39064  11.312  39.130   8.293
 2895POPC   C3A39065  11.024  39.283   8.023
 2895POPC   C4A39066  11.076  39.448   7.645
 2895POPC   C1B39067  11.495  39.496   8.772
 2895POPC   C2B39068  11.527  39.725   8.384
 2895POPC   C3B39069  11.458  39.545   8.028
 2895POPC   C4B39070  11.604  39.433   7.671
 2896POPC   NC339071   4.546  44.908   9.280
 2896POPC   PO439072   4.194  44.452   9.601
 2896POPC   GL139073   4.222  44.514   9.164
 2896POPC   GL239074   4.570  44.390   9.195
 2896POPC   C1A39075   4.144  44.743   8.749
 2896POPC   D2A39076   4.056  44.736   8.304
 2896POPC   C3A39077   4.184  44.993   7.933
 2896POPC   C4A39078   4.165  44.850   7.525
 2896POPC   C1B39079   4.502  44.376   8.749
 2896POPC   C2B39080   4.527  44.578   8.333
 2896POPC   C3B39081   4.315  44.502   7.901
 2896POPC   C4B39082   4.408  44.418   7.429
 2897POPC   NC339083  44.161   3.117   9.610
 2897POPC   PO439084  43.978   2.516   9.489
 2897POPC   GL139085  43.889   2.882   9.222
 2897POPC   GL239086  43.722   2.626   9.039
 2897POPC   C1A39087  43.830   3.042   8.780
 2897POPC   D2A39088  43.892   2.788   8.398
 2897POPC   C3A39089  43.958   3.080   8.044
 2897POPC   C4A39090  44.264   3.152   7.731
 2897POPC   C1B39091  44.169   2.615   8.831
 2897POPC   C2B39092  44.375   2.573   8.417
 2897POPC   C3B39093  44.156   2.609   7.986
 2897POPC   C4B39094  43.881   2.356   7.761
 2898POPC   NC339095  41.509  19.971   9.419
 2898POPC   PO439096  42.009  19.520   9.426
 2898POPC   GL139097  41.744  19.678   9.058
 2898POPC   GL239098  41.376  19.696   9.024
 2898POPC   C1A39099  41.661  19.974   8.704
 2898POPC   D2A39100  41.540  20.162   8.292
 2898POPC   C3A39101  41.732  19.936   7.970
 2898POPC   C4A39102  41.575  19.786   7.597
 2898POPC   C1B39103  41.137  19.888   8.710
 2898POPC   C2B39104  40.972  19.979   8.321
 2898POPC   C3B39105  41.195  19.933   7.943
 2898POPC   C4B39106  41.417  20.269   7.746
 2899POPC   NC339107   2.027   4.960   9.550
 2899POPC   PO439108   2.083   5.484   9.167
 2899POPC   GL139109   1.928   5.032   9.058
 2899POPC   GL239110   2.256   4.816   9.060
 2899POPC   C1A39111   1.731   4.858   8.663
 2899POPC   D2A39112   1.588   5.069   8.298
 2899POPC   C3A39113   1.785   5.025   7.887
 2899POPC   C4A39114   1.783   5.371   7.635
 2899POPC   C1B39115   2.214   5.033   8.648
 2899POPC   C2B39116   2.185   4.899   8.212
 2899POPC   C3B39117   2.316   4.885   7.768
 2899POPC   C4B39118   2.219   5.204   7.458
 2900POPC   NC339119  26.263  36.644   9.574
 2900POPC   PO439120  26.294  35.958   9.545
 2900POPC   GL139121  26.195  36.217   9.199
 2900POPC   GL239122  26.463  36.473   9.115
 2900POPC   C1A39123  25.882  36.117   8.856
 2900POPC   D2A39124  25.671  36.257   8.495
 2900POPC   C3A39125  25.706  36.058   8.115
 2900POPC   C4A39126  25.796  36.298   7.774
 2900POPC   C1B39127  26.360  36.284   8.718
 2900POPC   C2B39128  26.285  36.041   8.358
 2900POPC   C3B39129  26.169  35.980   7.937
 2900POPC   C4B39130  26.360  36.149   7.547
 2901POPC   NC339131  24.338  33.797   9.432
 2901POPC   PO439132  24.789  33.393   9.143
 2901POPC   GL139133  24.576  33.705   8.966
 2901POPC   GL239134  24.689  34.012   9.099
 2901POPC   C1A39135  24.236  33.722   8.681
 2901POPC   D2A39136  24.178  33.480   8.298
 2901POPC   C3A39137  24.555  33.460   8.102
 2901POPC   C4A39138  24.744  33.457   7.704
 2901POPC   C1B39139  24.602  34.132   8.674
 2901POPC   C2B39140  24.486  34.036   8.262
 2901POPC   C3B39141  24.375  33.934   7.842
 2901POPC   C4B39142  24.371  34.104   7.413
 2902POPC   NC339143  28.915   4.703   9.465
 2902POPC   PO439144  29.482   4.415   9.622
 2902POPC   GL139145  29.265   4.468   9.174
 2902POPC   GL239146  29.521   4.263   9.045
 2902POPC   C1A39147  29.139   4.512   8.722
 2902POPC   D2A39148  29.063   4.254   8.332
 2902POPC   C3A39149  28.850   4.350   7.928
 2902POPC   C4A39150  28.537   4.199   7.614
 2902POPC   C1B39151  29.437   4.106   8.660
 2902POPC   C2B39152  29.452   3.833   8.316
 2902POPC   C3B39153  29.307   4.033   7.947
 2902POPC   C4B39154  29.337   4.499   7.853
 2903POPC   NC339155  22.040  36.001   9.444
 2903POPC   PO439156  22.517  36.496   9.457
 2903POPC   GL139157  22.307  36.295   9.107
 2903POPC   GL239158  22.329  35.966   9.027
 2903POPC   C1A39159  21.931  36.225   8.792
 2903POPC   D2A39160  21.772  36.311   8.346
 2903POPC   C3A39161  21.985  36.343   7.920
 2903POPC   C4A39162  21.925  35.984   7.679
 2903POPC   C1B39163  22.398  36.090   8.651
 2903POPC   C2B39164  22.294  36.217   8.300
 2903POPC   C3B39165  22.364  35.993   7.966
 2903POPC   C4B39166  22.434  36.094   7.602
 2904POPC   NC339167  36.655  23.615   9.419
 2904POPC   PO439168  37.199  24.074   9.560
 2904POPC   GL139169  37.036  23.855   9.199
 2904POPC   GL239170  36.715  23.947   9.024
 2904POPC   C1A39171  37.001  23.541   8.861
 2904POPC   D2A39172  36.952  23.371   8.488
 2904POPC   C3A39173  37.014  23.639   8.144
 2904POPC   C4A39174  36.686  23.529   7.867
 2904POPC   C1B39175  37.108  24.004   8.728
 2904POPC   C2B39176  37.127  24.253   8.416
 2904POPC   C3B39177  36.841  24.148   8.124
 2904POPC   C4B39178  36.951  23.994   7.750
 2905POPC   NC339179  40.705  28.748   9.500
 2905POPC   PO439180  41.089  29.272   9.501
 2905POPC   GL139181  40.738  29.230   9.243
 2905POPC   GL239182  40.920  28.964   9.075
 2905POPC   C1A39183  40.713  29.352   8.821
 2905POPC   D2A39184  40.836  29.154   8.452
 2905POPC   C3A39185  40.798  29.384   8.070
 2905POPC   C4A39186  40.738  29.210   7.663
 2905POPC   C1B39187  40.526  28.855   8.851
 2905POPC   C2B39188  40.357  28.926   8.444
 2905POPC   C3B39189  40.599  28.899   8.056
 2905POPC   C4B39190  40.446  28.794   7.653
 2906POPC   NC339191  11.733  16.591   9.470
 2906POPC   PO439192  12.026  17.159   9.400
 2906POPC   GL139193  12.034  16.827   9.110
 2906POPC   GL239194  12.313  16.620   9.113
 2906POPC   C1A39195  11.862  16.586   8.761
 2906POPC   D2A39196  11.634  16.513   8.359
 2906POPC   C3A39197  11.935  16.550   8.002
 2906POPC   C4A39198  12.107  16.686   7.587
 2906POPC   C1B39199  12.341  16.776   8.689
 2906POPC   C2B39200  12.348  16.703   8.243
 2906POPC   C3B39201  12.475  16.903   7.866
 2906POPC   C4B39202  12.537  16.889   7.401
 2907POPC   NC339203  21.336  24.279   9.634
 2907POPC   PO439204  21.773  24.743   9.576
 2907POPC   GL139205  21.452  24.650   9.262
 2907POPC   GL239206  21.529  24.316   9.151
 2907POPC   C1A39207  21.316  24.703   8.819
 2907POPC   D2A39208  21.276  24.527   8.401
 2907POPC   C3A39209  21.126  24.699   8.027
 2907POPC   C4A39210  21.328  24.536   7.664
 2907POPC   C1B39211  21.337  24.177   8.779
 2907POPC   C2B39212  21.046  24.076   8.456
 2907POPC   C3B39213  21.151  24.147   8.031
 2907POPC   C4B39214  20.947  24.021   7.673
 2908POPC   NC339215  28.579  28.948   9.250
 2908POPC   PO439216  28.427  29.570   9.482
 2908POPC   GL139217  28.415  29.392   9.067
 2908POPC   GL239218  28.756  29.407   9.050
 2908POPC   C1A39219  28.492  29.176   8.646
 2908POPC   D2A39220  28.337  29.214   8.211
 2908POPC   C3A39221  28.303  28.934   7.847
 2908POPC   C4A39222  28.132  28.956   7.428
 2908POPC   C1B39223  28.965  29.494   8.687
 2908POPC   C2B39224  28.859  29.319   8.311
 2908POPC   C3B39225  28.702  29.439   7.954
 2908POPC   C4B39226  28.344  29.404   7.680
 2909POPC   NC339227   3.660  20.442   9.691
 2909POPC   PO439228   3.482  19.780   9.476
 2909POPC   GL139229   3.572  19.960   9.078
 2909POPC   GL239230   3.921  19.968   9.161
 2909POPC   C1A39231   3.423  19.895   8.618
 2909POPC   D2A39232   3.272  20.149   8.264
 2909POPC   C3A39233   3.504  20.104   7.902
 2909POPC   C4A39234   3.632  20.063   7.473
 2909POPC   C1B39235   3.932  19.968   8.691
 2909POPC   C2B39236   3.872  19.936   8.220
 2909POPC   C3B39237   3.812  19.689   7.801
 2909POPC   C4B39238   4.112  19.371   7.621
 2910POPC   NC339239  24.514  41.216   9.796
 2910POPC   PO439240  24.212  40.750   9.355
 2910POPC   GL139241  24.611  40.567   9.138
 2910POPC   GL239242  24.825  40.294   9.268
 2910POPC   C1A39243  24.742  40.736   8.741
 2910POPC   D2A39244  24.484  40.931   8.469
 2910POPC   C3A39245  24.615  40.826   8.083
 2910POPC   C4A39246  24.250  40.783   7.793
 2910POPC   C1B39247  24.852  40.237   8.823
 2910POPC   C2B39248  24.905  40.389   8.414
 2910POPC   C3B39249  24.827  40.369   7.988
 2910POPC   C4B39250  24.695  40.590   7.619
 2911POPC   NC339251   2.047   2.490   9.575
 2911POPC   PO439252   1.651   3.019   9.602
 2911POPC   GL139253   1.883   2.863   9.235
 2911POPC   GL239254   1.642   2.908   9.038
 2911POPC   C1A39255   2.103   2.959   8.801
 2911POPC   D2A39256   2.022   2.782   8.365
 2911POPC   C3A39257   2.216   2.739   7.958
 2911POPC   C4A39258   2.197   3.045   7.653
 2911POPC   C1B39259   1.775   2.571   8.760
 2911POPC   C2B39260   1.724   2.355   8.390
 2911POPC   C3B39261   1.728   2.488   8.000
 2911POPC   C4B39262   1.806   2.687   7.654
 2912POPC   NC339263   4.398  10.015   9.531
 2912POPC   PO439264   4.569   9.326   9.558
 2912POPC   GL139265   4.382   9.604   9.189
 2912POPC   GL239266   4.257   9.952   9.058
 2912POPC   C1A39267   4.212   9.552   8.773
 2912POPC   D2A39268   4.094   9.776   8.450
 2912POPC   C3A39269   4.206   9.517   8.126
 2912POPC   C4A39270   4.116   9.508   7.747
 2912POPC   C1B39271   4.552  10.133   8.803
 2912POPC   C2B39272   4.494  10.239   8.377
 2912POPC   C3B39273   4.339   9.988   8.056
 2912POPC   C4B39274   4.487   9.860   7.668
 2913POPC   NC339275  28.580   0.553   9.164
 2913POPC   PO439276  29.215   0.620   9.407
 2913POPC   GL139277  29.093   0.766   9.051
 2913POPC   GL239278  29.033   0.464   8.907
 2913POPC   C1A39279  29.288   0.820   8.658
 2913POPC   D2A39280  29.095   0.615   8.339
 2913POPC   C3A39281  29.193   0.774   7.947
 2913POPC   C4A39282  29.313   0.713   7.540
 2913POPC   C1B39283  29.201   0.119   8.686
 2913POPC   C2B39284  29.291   0.167   8.246
 2913POPC   C3B39285  29.033   0.314   7.905
 2913POPC   C4B39286  28.699   0.161   7.685
 2914POPC   NC339287  22.959  36.422   9.515
 2914POPC   PO439288  23.289  35.792   9.507
 2914POPC   GL139289  23.122  36.042   9.201
 2914POPC   GL239290  22.776  36.073   9.217
 2914POPC   C1A39291  23.248  36.316   8.861
 2914POPC   D2A39292  23.337  36.121   8.485
 2914POPC   C3A39293  23.181  36.218   8.100
 2914POPC   C4A39294  23.194  36.200   7.667
 2914POPC   C1B39295  22.870  35.989   8.755
 2914POPC   C2B39296  22.732  35.903   8.312
 2914POPC   C3B39297  22.863  35.870   7.874
 2914POPC   C4B39298  22.839  35.839   7.423
 2915POPC   NC339299  39.959   7.190   9.556
 2915POPC   PO439300  40.050   7.858   9.411
 2915POPC   GL139301  39.885   7.547   9.106
 2915POPC   GL239302  40.092   7.263   9.083
 2915POPC   C1A39303  40.031   7.468   8.648
 2915POPC   D2A39304  40.337   7.327   8.370
 2915POPC   C3A39305  40.242   7.643   8.109
 2915POPC   C4A39306  39.966   7.629   7.772
 2915POPC   C1B39307  39.867   7.013   8.809
 2915POPC   C2B39308  39.941   6.995   8.365
 2915POPC   C3B39309  39.706   7.199   8.048
 2915POPC   C4B39310  39.442   6.975   7.771
 2916POPC   NC339311  41.872  29.154   9.774
 2916POPC   PO439312  42.496  29.107   9.612
 2916POPC   GL139313  42.351  29.157   9.241
 2916POPC   GL239314  42.652  29.304   9.146
 2916POPC   C1A39315  42.301  29.115   8.799
 2916POPC   D2A39316  42.158  28.804   8.474
 2916POPC   C3A39317  42.255  28.970   8.058
 2916POPC   C4A39318  42.127  29.092   7.656
 2916POPC   C1B39319  42.784  29.367   8.770
 2916POPC   C2B39320  42.526  29.479   8.448
 2916POPC   C3B39321  42.636  29.384   8.066
 2916POPC   C4B39322  42.620  29.173   7.715
 2917POPC   NC339323  18.794  36.318   9.738
 2917POPC   PO439324  18.357  35.934   9.576
 2917POPC   GL139325  18.134  36.049   9.166
 2917POPC   GL239326  18.021  36.405   9.209
 2917POPC   C1A39327  17.999  36.022   8.701
 2917POPC   D2A39328  17.978  35.936   8.245
 2917POPC   C3A39329  18.288  36.060   7.921
 2917POPC   C4A39330  18.417  36.058   7.438
 2917POPC   C1B39331  18.166  36.501   8.809
 2917POPC   C2B39332  18.299  36.335   8.424
 2917POPC   C3B39333  18.279  36.580   8.079
 2917POPC   C4B39334  18.429  36.496   7.704
 2918POPC   NC339335   0.307  22.001   9.665
 2918POPC   PO439336   0.957  21.887   9.480
 2918POPC   GL139337   0.565  21.900   9.185
 2918POPC   GL239338   0.291  22.185   9.194
 2918POPC   C1A39339   0.462  22.017   8.738
 2918POPC   D2A39340   0.313  21.859   8.318
 2918POPC   C3A39341   0.523  22.046   7.976
 2918POPC   C4A39342   0.529  22.432   7.751
 2918POPC   C1B39343   0.082  22.400   8.883
 2918POPC   C2B39344   0.138  22.362   8.459
 2918POPC   C3B39345   0.122  22.460   8.066
 2918POPC   C4B39346   0.043  22.516   7.630
 2919POPC   NC339347  18.420  10.187   9.444
 2919POPC   PO439348  18.441  10.805   9.578
 2919POPC   GL139349  18.356  10.658   9.206
 2919POPC   GL239350  18.020  10.635   9.206
 2919POPC   C1A39351  18.473  10.501   8.810
 2919POPC   D2A39352  18.263  10.559   8.432
 2919POPC   C3A39353  18.364  10.358   8.069
 2919POPC   C4A39354  18.536  10.428   7.704
 2919POPC   C1B39355  17.816  10.856   8.866
 2919POPC   C2B39356  17.794  10.852   8.412
 2919POPC   C3B39357  17.759  10.794   7.960
 2919POPC   C4B39358  18.003  10.471   7.694
 2920POPC   NC339359   2.839   4.768   9.508
 2920POPC   PO439360   2.385   5.254   9.624
 2920POPC   GL139361   2.618   5.182   9.218
 2920POPC   GL239362   2.858   4.916   9.044
 2920POPC   C1A39363   2.681   5.274   8.772
 2920POPC   D2A39364   2.655   4.962   8.440
 2920POPC   C3A39365   2.657   5.135   8.078
 2920POPC   C4A39366   2.660   5.336   7.726
 2920POPC   C1B39367   3.096   4.893   8.651
 2920POPC   C2B39368   3.086   4.875   8.186
 2920POPC   C3B39369   2.973   4.908   7.734
 2920POPC   C4B39370   3.093   4.801   7.273
 2921POPC   NC339371  29.628  16.773   9.405
 2921POPC   PO439372  29.110  16.978   9.623
 2921POPC   GL139373  29.030  16.880   9.205
 2921POPC   GL239374  28.987  17.189   9.073
 2921POPC   C1A39375  29.249  16.721   8.820
 2921POPC   D2A39376  29.382  16.885   8.388
 2921POPC   C3A39377  29.265  16.640   7.989
 2921POPC   C4A39378  29.412  16.721   7.538
 2921POPC   C1B39379  28.838  16.988   8.721
 2921POPC   C2B39380  28.883  16.766   8.377
 2921POPC   C3B39381  28.978  17.050   8.093
 2921POPC   C4B39382  28.982  16.971   7.701
 2922POPC   NC339383  32.601  40.813   9.378
 2922POPC   PO439384  33.225  40.923   9.636
 2922POPC   GL139385  33.059  40.995   9.230
 2922POPC   GL239386  33.019  40.636   9.183
 2922POPC   C1A39387  33.101  41.184   8.798
 2922POPC   D2A39388  33.006  40.915   8.442
 2922POPC   C3A39389  32.914  41.052   8.021
 2922POPC   C4A39390  33.145  40.950   7.669
 2922POPC   C1B39391  32.911  40.546   8.794
 2922POPC   C2B39392  33.103  40.367   8.450
 2922POPC   C3B39393  33.096  40.559   8.066
 2922POPC   C4B39394  33.085  40.455   7.674
 2923POPC   NC339395   8.808  27.189   9.392
 2923POPC   PO439396   9.195  27.684   9.721
 2923POPC   GL139397   9.122  27.756   9.257
 2923POPC   GL239398   9.100  27.427   9.062
 2923POPC   C1A39399   8.992  27.861   8.815
 2923POPC   D2A39400   9.069  27.582   8.462
 2923POPC   C3A39401   8.885  27.688   8.077
 2923POPC   C4A39402   8.834  27.632   7.643
 2923POPC   C1B39403   8.766  27.270   8.748
 2923POPC   C2B39404   8.637  27.297   8.297
 2923POPC   C3B39405   8.645  27.209   7.856
 2923POPC   C4B39406   8.684  27.219   7.393
 2924POPC   NC339407   7.748  25.388   9.820
 2924POPC   PO439408   7.419  25.001   9.403
 2924POPC   GL139409   7.249  25.269   9.066
 2924POPC   GL239410   7.164  25.013   8.844
 2924POPC   C1A39411   7.385  25.421   8.646
 2924POPC   D2A39412   7.384  25.110   8.302
 2924POPC   C3A39413   7.190  25.219   7.901
 2924POPC   C4A39414   7.237  25.536   7.543
 2924POPC   C1B39415   7.653  25.025   8.755
 2924POPC   C2B39416   7.883  25.195   8.384
 2924POPC   C3B39417   7.740  25.199   7.939
 2924POPC   C4B39418   7.684  25.241   7.471
 2925POPC   NC339419   1.949   8.651   9.459
 2925POPC   PO439420   2.040   9.366   9.422
 2925POPC   GL139421   2.005   9.221   9.017
 2925POPC   GL239422   2.162   8.921   9.074
 2925POPC   C1A39423   1.898   8.976   8.646
 2925POPC   D2A39424   1.842   8.887   8.223
 2925POPC   C3A39425   1.996   9.207   7.950
 2925POPC   C4A39426   1.942   9.300   7.552
 2925POPC   C1B39427   2.427   8.999   8.741
 2925POPC   C2B39428   2.335   9.162   8.335
 2925POPC   C3B39429   2.464   9.008   7.913
 2925POPC   C4B39430   2.267   8.898   7.491
 2926POPC   NC339431  19.120  25.417   9.870
 2926POPC   PO439432  18.570  25.091   9.630
 2926POPC   GL139433  18.945  25.142   9.312
 2926POPC   GL239434  19.054  25.469   9.164
 2926POPC   C1A39435  19.132  24.992   8.892
 2926POPC   D2A39436  19.007  25.193   8.484
 2926POPC   C3A39437  19.157  25.071   8.085
 2926POPC   C4A39438  19.002  25.227   7.728
 2926POPC   C1B39439  19.319  25.468   8.767
 2926POPC   C2B39440  19.474  25.435   8.314
 2926POPC   C3B39441  19.429  25.530   7.856
 2926POPC   C4B39442  19.475  25.518   7.374
 2927POPC   NC339443  19.398   9.239   9.525
 2927POPC   PO439444  18.809   8.919   9.544
 2927POPC   GL139445  19.019   8.926   9.160
 2927POPC   GL239446  19.399   8.820   9.186
 2927POPC   C1A39447  19.007   8.684   8.762
 2927POPC   D2A39448  18.856   8.639   8.326
 2927POPC   C3A39449  18.965   8.925   7.996
 2927POPC   C4A39450  18.908   9.221   7.638
 2927POPC   C1B39451  19.339   9.089   8.816
 2927POPC   C2B39452  19.356   8.878   8.425
 2927POPC   C3B39453  19.437   8.667   8.080
 2927POPC   C4B39454  19.368   8.787   7.725
 2928POPC   NC339455  43.619  26.627   9.496
 2928POPC   PO439456  42.912  26.652   9.588
 2928POPC   GL139457  43.105  26.733   9.156
 2928POPC   GL239458  43.393  26.490   9.075
 2928POPC   C1A39459  43.055  27.067   8.784
 2928POPC   D2A39460  42.877  27.301   8.403
 2928POPC   C3A39461  42.948  27.070   8.047
 2928POPC   C4A39462  42.856  26.829   7.690
 2928POPC   C1B39463  43.145  26.442   8.741
 2928POPC   C2B39464  43.109  26.707   8.394
 2928POPC   C3B39465  43.067  26.524   8.022
 2928POPC   C4B39466  42.910  26.163   7.823
 2929POPC   NC339467  23.994  14.687   9.504
 2929POPC   PO439468  23.522  15.193   9.536
 2929POPC   GL139469  23.636  15.002   9.185
 2929POPC   GL239470  23.610  15.333   9.034
 2929POPC   C1A39471  23.695  14.937   8.739
 2929POPC   D2A39472  23.750  15.222   8.383
 2929POPC   C3A39473  23.540  15.084   8.017
 2929POPC   C4A39474  23.649  14.958   7.630
 2929POPC   C1B39475  23.288  15.487   8.780
 2929POPC   C2B39476  23.326  15.560   8.378
 2929POPC   C3B39477  23.530  15.596   8.036
 2929POPC   C4B39478  23.400  15.463   7.676
 2930POPC   NC339479  37.210  11.467   9.540
 2930POPC   PO439480  36.810  10.935   9.465
 2930POPC   GL139481  36.858  11.208   9.191
 2930POPC   GL239482  37.187  11.117   9.151
 2930POPC   C1A39483  36.737  11.247   8.786
 2930POPC   D2A39484  36.877  11.438   8.437
 2930POPC   C3A39485  36.767  11.329   8.025
 2930POPC   C4A39486  36.932  11.511   7.650
 2930POPC   C1B39487  37.268  11.343   8.790
 2930POPC   C2B39488  37.374  11.544   8.407
 2930POPC   C3B39489  37.285  11.396   8.002
 2930POPC   C4B39490  37.274  11.051   7.710
 2931POPC   NC339491   2.299  28.795   9.578
 2931POPC   PO439492   2.122  28.167   9.576
 2931POPC   GL139493   1.944  28.180   9.145
 2931POPC   GL239494   2.064  28.538   9.118
 2931POPC   C1A39495   1.871  28.350   8.704
 2931POPC   D2A39496   2.097  28.607   8.392
 2931POPC   C3A39497   1.931  28.351   8.080
 2931POPC   C4A39498   1.902  28.136   7.674
 2931POPC   C1B39499   2.412  28.585   8.795
 2931POPC   C2B39500   2.606  28.492   8.383
 2931POPC   C3B39501   2.422  28.353   8.037
 2931POPC   C4B39502   2.187  28.548   7.689
 2932POPC   NC339503   9.890  23.188   9.584
 2932POPC   PO439504   9.345  22.827   9.522
 2932POPC   GL139505   9.617  23.011   9.207
 2932POPC   GL239506   9.972  22.822   9.204
 2932POPC   C1A39507   9.905  23.250   8.919
 2932POPC   D2A39508   9.977  23.333   8.487
 2932POPC   C3A39509   9.786  23.097   8.131
 2932POPC   C4A39510   9.975  22.931   7.739
 2932POPC   C1B39511   9.711  22.748   8.808
 2932POPC   C2B39512   9.419  22.619   8.474
 2932POPC   C3B39513   9.577  22.543   8.060
 2932POPC   C4B39514   9.490  22.774   7.678
 2933POPC   NC339515  26.437  24.520   9.441
 2933POPC   PO439516  27.156  24.343   9.553
 2933POPC   GL139517  26.905  24.319   9.201
 2933POPC   GL239518  26.841  24.663   9.156
 2933POPC   C1A39519  26.727  24.244   8.784
 2933POPC   D2A39520  26.443  24.361   8.419
 2933POPC   C3A39521  26.565  24.260   7.988
 2933POPC   C4A39522  26.767  24.354   7.601
 2933POPC   C1B39523  26.687  24.782   8.750
 2933POPC   C2B39524  26.498  24.894   8.358
 2933POPC   C3B39525  26.487  24.769   7.933
 2933POPC   C4B39526  26.325  24.914   7.545
 2934POPC   NC339527  42.560  41.255   9.510
 2934POPC   PO439528  41.950  41.565   9.461
 2934POPC   GL139529  42.314  41.768   9.269
 2934POPC   GL239530  42.488  41.485   9.075
 2934POPC   C1A39531  42.372  41.908   8.846
 2934POPC   D2A39532  42.371  41.575   8.549
 2934POPC   C3A39533  42.319  41.658   8.117
 2934POPC   C4A39534  42.203  41.361   7.833
 2934POPC   C1B39535  42.787  41.225   8.865
 2934POPC   C2B39536  42.879  41.169   8.437
 2934POPC   C3B39537  42.730  41.276   8.005
 2934POPC   C4B39538  42.605  41.189   7.566
 2935POPC   NC339539  15.274   0.929   9.506
 2935POPC   PO439540  15.059   1.496   9.559
 2935POPC   GL139541  15.288   1.313   9.174
 2935POPC   GL239542  15.608   1.229   9.186
 2935POPC   C1A39543  15.401   1.435   8.756
 2935POPC   D2A39544  15.173   1.298   8.407
 2935POPC   C3A39545  15.344   1.420   8.038
 2935POPC   C4A39546  15.168   1.329   7.674
 2935POPC   C1B39547  15.458   0.929   8.815
 2935POPC   C2B39548  15.318   0.778   8.395
 2935POPC   C3B39549  15.213   0.903   7.965
 2935POPC   C4B39550  15.447   0.923   7.564
 2936POPC   NC339551  42.733  42.140   9.475
 2936POPC   PO439552  42.182  42.461   9.608
 2936POPC   GL139553  42.244  42.289   9.201
 2936POPC   GL239554  42.560  42.344   9.069
 2936POPC   C1A39555  42.152  42.350   8.753
 2936POPC   D2A39556  42.203  42.118   8.378
 2936POPC   C3A39557  42.020  42.359   8.030
 2936POPC   C4A39558  41.808  42.270   7.653
 2936POPC   C1B39559  42.744  42.253   8.707
 2936POPC   C2B39560  42.650  42.367   8.303
 2936POPC   C3B39561  42.487  42.125   7.947
 2936POPC   C4B39562  42.565  42.178   7.507
 2937POPC   NC339563   5.465  32.747   9.416
 2937POPC   PO439564   4.987  33.222   9.552
 2937POPC   GL139565   5.042  33.170   9.112
 2937POPC   GL239566   5.391  33.153   9.091
 2937POPC   C1A39567   5.107  33.256   8.661
 2937POPC   D2A39568   4.942  33.239   8.261
 2937POPC   C3A39569   5.150  33.087   7.917
 2937POPC   C4A39570   4.904  32.751   7.724
 2937POPC   C1B39571   5.231  32.785   8.798
 2937POPC   C2B39572   5.288  32.834   8.350
 2937POPC   C3B39573   5.386  32.652   7.937
 2937POPC   C4B39574   5.371  32.731   7.500
 2938POPC   NC339575  26.600  39.020   9.519
 2938POPC   PO439576  26.862  39.730   9.668
 2938POPC   GL139577  26.885  39.401   9.299
 2938POPC   GL239578  27.202  39.341   9.274
 2938POPC   C1A39579  26.679  39.259   8.883
 2938POPC   D2A39580  26.578  38.953   8.529
 2938POPC   C3A39581  26.582  39.099   8.095
 2938POPC   C4A39582  26.561  39.373   7.726
 2938POPC   C1B39583  27.183  39.307   8.835
 2938POPC   C2B39584  26.948  39.350   8.452
 2938POPC   C3B39585  26.947  39.481   8.051
 2938POPC   C4B39586  27.142  39.362   7.693
 2939POPC   NC339587  25.932  15.559   9.388
 2939POPC   PO439588  25.625  16.119   9.524
 2939POPC   GL139589  26.039  16.090   9.211
 2939POPC   GL239590  26.133  15.783   8.984
 2939POPC   C1A39591  26.329  16.222   8.835
 2939POPC   D2A39592  26.366  16.024   8.437
 2939POPC   C3A39593  26.121  16.038   8.103
 2939POPC   C4A39594  25.760  16.142   7.904
 2939POPC   C1B39595  26.216  15.508   8.631
 2939POPC   C2B39596  26.302  15.543   8.217
 2939POPC   C3B39597  26.092  15.587   7.841
 2939POPC   C4B39598  26.122  15.547   7.409
 2940POPC   NC339599  41.836  26.758   9.555
 2940POPC   PO439600  41.322  27.141   9.349
 2940POPC   GL139601  41.573  26.901   9.066
 2940POPC   GL239602  41.761  26.584   9.094
 2940POPC   C1A39603  41.524  26.721   8.670
 2940POPC   D2A39604  41.188  26.597   8.415
 2940POPC   C3A39605  41.341  26.603   8.028
 2940POPC   C4A39606  41.593  26.830   7.734
 2940POPC   C1B39607  41.959  26.437   8.717
 2940POPC   C2B39608  41.846  26.554   8.315
 2940POPC   C3B39609  42.019  26.777   8.045
 2940POPC   C4B39610  42.040  26.587   7.695
 2941POPC   NC339611  31.176  36.406   9.389
 2941POPC   PO439612  30.729  35.934   9.501
 2941POPC   GL139613  30.957  36.023   9.134
 2941POPC   GL239614  30.639  36.140   9.024
 2941POPC   C1A39615  31.087  35.946   8.709
 2941POPC   D2A39616  30.769  35.996   8.395
 2941POPC   C3A39617  30.864  35.881   7.935
 2941POPC   C4A39618  30.649  35.792   7.517
 2941POPC   C1B39619  30.872  36.399   8.756
 2941POPC   C2B39620  30.781  36.538   8.365
 2941POPC   C3B39621  30.616  36.328   8.038
 2941POPC   C4B39622  30.661  36.288   7.616
 2942POPC   NC339623  14.795  17.419   9.439
 2942POPC   PO439624  14.318  17.823   9.519
 2942POPC   GL139625  14.319  17.548   9.160
 2942POPC   GL239626  14.624  17.473   8.944
 2942POPC   C1A39627  14.081  17.569   8.771
 2942POPC   D2A39628  14.262  17.434   8.385
 2942POPC   C3A39629  14.165  17.645   8.002
 2942POPC   C4A39630  14.244  17.802   7.592
 2942POPC   C1B39631  14.764  17.061   8.752
 2942POPC   C2B39632  14.797  16.915   8.330
 2942POPC   C3B39633  14.533  17.144   8.061
 2942POPC   C4B39634  14.559  17.400   7.747
 2943POPC   NC339635  43.459  41.695   9.470
 2943POPC   PO439636  42.783  41.670   9.492
 2943POPC   GL139637  43.042  41.574   9.178
 2943POPC   GL239638  43.044  41.939   9.087
 2943POPC   C1A39639  43.270  41.440   8.799
 2943POPC   D2A39640  43.179  41.576   8.373
 2943POPC   C3A39641  43.356  41.460   7.986
 2943POPC   C4A39642  43.446  41.813   7.753
 2943POPC   C1B39643  42.836  41.732   8.744
 2943POPC   C2B39644  42.736  41.861   8.349
 2943POPC   C3B39645  42.903  41.786   7.967
 2943POPC   C4B39646  42.608  41.684   7.678
 2944POPC   NC339647  25.559   6.059   9.540
 2944POPC   PO439648  25.351   5.437   9.752
 2944POPC   GL139649  25.335   5.671   9.280
 2944POPC   GL239650  25.056   5.542   9.063
 2944POPC   C1A39651  25.550   5.876   8.907
 2944POPC   D2A39652  25.665   5.996   8.465
 2944POPC   C3A39653  25.326   5.963   8.160
 2944POPC   C4A39654  25.234   5.977   7.725
 2944POPC   C1B39655  25.171   5.642   8.618
 2944POPC   C2B39656  25.308   5.450   8.217
 2944POPC   C3B39657  25.612   5.595   7.920
 2944POPC   C4B39658  25.408   5.524   7.555
 2945POPC   NC339659  20.153   1.364   9.601
 2945POPC   PO439660  19.657   0.994   9.581
 2945POPC   GL139661  19.785   1.186   9.179
 2945POPC   GL239662  20.115   1.195   9.116
 2945POPC   C1A39663  19.688   1.359   8.787
 2945POPC   D2A39664  19.902   1.303   8.434
 2945POPC   C3A39665  19.671   1.242   8.067
 2945POPC   C4A39666  19.642   1.285   7.657
 2945POPC   C1B39667  20.294   1.428   8.789
 2945POPC   C2B39668  20.425   1.323   8.398
 2945POPC   C3B39669  20.199   1.275   8.024
 2945POPC   C4B39670  20.162   1.203   7.628
 2946POPC   NC339671   6.325  33.248   9.324
 2946POPC   PO439672   6.738  32.761   9.572
 2946POPC   GL139673   6.721  32.904   9.121
 2946POPC   GL239674   6.382  32.947   8.939
 2946POPC   C1A39675   6.962  32.890   8.715
 2946POPC   D2A39676   6.952  33.130   8.287
 2946POPC   C3A39677   6.866  32.902   7.891
 2946POPC   C4A39678   6.689  32.654   7.543
 2946POPC   C1B39679   6.537  33.172   8.603
 2946POPC   C2B39680   6.419  33.119   8.167
 2946POPC   C3B39681   6.558  33.313   7.807
 2946POPC   C4B39682   6.888  33.539   7.712
 2947POPC   NC339683  44.483  31.862   9.409
 2947POPC   PO439684  44.559  31.210   9.361
 2947POPC   GL139685  44.660  31.275   8.989
 2947POPC   GL239686  44.567  31.604   8.976
 2947POPC   C1A39687  44.661  31.342   8.542
 2947POPC   D2A39688  44.900  31.477   8.222
 2947POPC   C3A39689  44.854  31.282   7.846
 2947POPC   C4A39690  44.635  31.445   7.516
 2947POPC   C1B39691  44.632  31.848   8.610
 2947POPC   C2B39692  44.511  31.822   8.179
 2947POPC   C3B39693  44.782  31.816   7.817
 2947POPC   C4B39694  44.733  31.913   7.358
 2948POPC   NC339695  11.152  15.533   9.358
 2948POPC   PO439696  11.487  16.173   9.445
 2948POPC   GL139697  11.333  15.939   9.122
 2948POPC   GL239698  11.599  15.721   9.049
 2948POPC   C1A39699  11.242  15.742   8.710
 2948POPC   D2A39700  11.303  15.967   8.358
 2948POPC   C3A39701  11.055  15.998   8.033
 2948POPC   C4A39702  11.212  15.820   7.695
 2948POPC   C1B39703  11.904  15.675   8.736
 2948POPC   C2B39704  11.853  15.491   8.330
 2948POPC   C3B39705  11.586  15.671   8.032
 2948POPC   C4B39706  11.706  15.782   7.607
 2949POPC   NC339707   2.327  38.307   9.496
 2949POPC   PO439708   3.059  38.152   9.512
 2949POPC   GL139709   2.768  38.342   9.213
 2949POPC   GL239710   2.580  38.657   9.244
 2949POPC   C1A39711   2.822  38.312   8.791
 2949POPC   D2A39712   2.992  38.189   8.409
 2949POPC   C3A39713   3.156  38.482   8.129
 2949POPC   C4A39714   3.023  38.655   7.774
 2949POPC   C1B39715   2.604  38.770   8.821
 2949POPC   C2B39716   2.522  38.555   8.440
 2949POPC   C3B39717   2.380  38.761   8.096
 2949POPC   C4B39718   2.565  38.968   7.780
 2950POPC   NC339719  15.536  35.054   9.591
 2950POPC   PO439720  15.980  35.504   9.576
 2950POPC   GL139721  16.040  35.275   9.219
 2950POPC   GL239722  15.850  35.528   9.055
 2950POPC   C1A39723  16.005  35.133   8.792
 2950POPC   D2A39724  15.832  35.416   8.507
 2950POPC   C3A39725  15.994  35.282   8.117
 2950POPC   C4A39726  16.172  35.193   7.726
 2950POPC   C1B39727  15.679  35.854   8.818
 2950POPC   C2B39728  15.711  36.040   8.433
 2950POPC   C3B39729  15.801  35.756   8.126
 2950POPC   C4B39730  15.769  35.542   7.736
 2951POPC   NC339731  33.381  27.906   9.441
 2951POPC   PO439732  32.836  27.697   9.716
 2951POPC   GL139733  32.938  27.727   9.245
 2951POPC   GL239734  33.188  27.492   9.172
 2951POPC   C1A39735  32.963  27.813   8.767
 2951POPC   D2A39736  32.732  27.710   8.351
 2951POPC   C3A39737  32.835  27.803   7.900
 2951POPC   C4A39738  33.201  27.797   7.610
 2951POPC   C1B39739  33.000  27.291   8.791
 2951POPC   C2B39740  33.059  27.278   8.321
 2951POPC   C3B39741  33.060  27.334   7.838
 2951POPC   C4B39742  33.065  27.106   7.421
 2952POPC   NC339743  33.267   8.949   9.291
 2952POPC   PO439744  32.659   8.612   9.374
 2952POPC   GL139745  32.827   8.827   9.038
 2952POPC   GL239746  32.805   9.167   9.095
 2952POPC   C1A39747  33.105   8.953   8.685
 2952POPC   D2A39748  32.978   9.020   8.301
 2952POPC   C3A39749  33.276   8.954   8.003
 2952POPC   C4A39750  32.977   8.857   7.676
 2952POPC   C1B39751  32.924   9.420   8.728
 2952POPC   C2B39752  33.068   9.537   8.310
 2952POPC   C3B39753  32.988   9.355   7.882
 2952POPC   C4B39754  33.199   9.261   7.472
 2953POPC   NC339755  42.722  40.438   9.238
 2953POPC   PO439756  42.061  40.571   9.461
 2953POPC   GL139757  42.161  40.976   9.182
 2953POPC   GL239758  42.493  40.876   9.104
 2953POPC   C1A39759  42.297  41.088   8.700
 2953POPC   D2A39760  42.501  40.817   8.336
 2953POPC   C3A39761  42.393  40.854   7.879
 2953POPC   C4A39762  42.534  40.706   7.426
 2953POPC   C1B39763  42.180  40.619   8.820
 2953POPC   C2B39764  42.010  40.647   8.429
 2953POPC   C3B39765  42.022  40.503   7.993
 2953POPC   C4B39766  42.069  40.538   7.554
 2954POPC   NC339767  10.908   4.503   9.422
 2954POPC   PO439768  11.511   4.439   9.328
 2954POPC   GL139769  11.204   4.406   9.024
 2954POPC   GL239770  10.983   4.107   9.122
 2954POPC   C1A39771  11.363   4.410   8.632
 2954POPC   D2A39772  11.226   4.330   8.232
 2954POPC   C3A39773  11.468   4.506   7.927
 2954POPC   C4A39774  11.302   4.559   7.508
 2954POPC   C1B39775  11.101   3.992   8.749
 2954POPC   C2B39776  11.040   3.834   8.397
 2954POPC   C3B39777  10.925   3.922   8.036
 2954POPC   C4B39778  11.090   4.182   7.754
 2955POPC   NC339779  22.003  21.764   9.623
 2955POPC   PO439780  22.531  21.228   9.427
 2955POPC   GL139781  22.495  21.592   9.159
 2955POPC   GL239782  22.161  21.485   9.111
 2955POPC   C1A39783  22.416  21.670   8.690
 2955POPC   D2A39784  22.053  21.574   8.421
 2955POPC   C3A39785  22.141  21.485   8.003
 2955POPC   C4A39786  22.503  21.532   7.782
 2955POPC   C1B39787  21.891  21.268   8.785
 2955POPC   C2B39788  21.893  21.105   8.333
 2955POPC   C3B39789  21.681  21.267   7.989
 2955POPC   C4B39790  21.754  21.616   7.677
 2956POPC   NC339791  38.337  41.641   9.390
 2956POPC   PO439792  38.576  41.039   9.474
 2956POPC   GL139793  38.465  41.192   9.122
 2956POPC   GL239794  38.679  41.461   9.078
 2956POPC   C1A39795  38.569  41.130   8.713
 2956POPC   D2A39796  38.342  41.302   8.389
 2956POPC   C3A39797  38.486  41.193   8.046
 2956POPC   C4A39798  38.425  41.321   7.662
 2956POPC   C1B39799  38.518  41.646   8.714
 2956POPC   C2B39800  38.535  41.763   8.267
 2956POPC   C3B39801  38.467  41.798   7.805
 2956POPC   C4B39802  38.593  42.059   7.441
 2957POPC   NC339803  37.991   5.793   9.612
 2957POPC   PO439804  37.352   5.667   9.266
 2957POPC   GL139805  37.715   5.927   9.194
 2957POPC   GL239806  37.986   5.701   9.127
 2957POPC   C1A39807  37.893   6.095   8.827
 2957POPC   D2A39808  37.717   5.902   8.449
 2957POPC   C3A39809  37.810   6.096   8.037
 2957POPC   C4A39810  37.711   5.931   7.631
 2957POPC   C1B39811  38.149   5.635   8.759
 2957POPC   C2B39812  38.051   5.479   8.389
 2957POPC   C3B39813  38.015   5.621   7.982
 2957POPC   C4B39814  38.047   5.491   7.567
 2958POPC   NC339815  34.847  26.895   9.467
 2958POPC   PO439816  34.170  26.757   9.478
 2958POPC   GL139817  34.452  26.646   9.109
 2958POPC   GL239818  34.805  26.726   8.998
 2958POPC   C1A39819  34.490  26.468   8.690
 2958POPC   D2A39820  34.781  26.517   8.358
 2958POPC   C3A39821  34.649  26.640   7.933
 2958POPC   C4A39822  34.610  26.693   7.500
 2958POPC   C1B39823  34.994  26.938   8.623
 2958POPC   C2B39824  34.924  26.999   8.171
 2958POPC   C3B39825  34.858  27.105   7.743
 2958POPC   C4B39826  34.908  27.065   7.275
 2959POPC   NC339827  28.837  27.378   9.497
 2959POPC   PO439828  28.313  27.783   9.739
 2959POPC   GL139829  28.297  27.685   9.288
 2959POPC   GL239830  28.402  27.415   9.091
 2959POPC   C1A39831  28.035  27.725   8.911
 2959POPC   D2A39832  27.977  27.671   8.430
 2959POPC   C3A39833  28.205  27.594   8.009
 2959POPC   C4A39834  28.099  27.718   7.554
 2959POPC   C1B39835  28.475  27.641   8.712
 2959POPC   C2B39836  28.508  27.362   8.384
 2959POPC   C3B39837  28.648  27.313   7.983
 2959POPC   C4B39838  28.574  27.527   7.630
 2960POPC   NC339839  28.057   1.498   9.502
 2960POPC   PO439840  28.447   0.942   9.372
 2960POPC   GL139841  28.206   0.996   9.048
 2960POPC   GL239842  28.300   1.350   9.077
 2960POPC   C1A39843  28.296   1.138   8.632
 2960POPC   D2A39844  28.514   1.406   8.398
 2960POPC   C3A39845  28.370   1.384   8.012
 2960POPC   C4A39846  28.560   1.358   7.610
 2960POPC   C1B39847  28.043   1.550   8.770
 2960POPC   C2B39848  28.069   1.653   8.363
 2960POPC   C3B39849  28.011   1.829   7.982
 2960POPC   C4B39850  28.233   1.743   7.643
 2961POPC   NC339851  31.559   5.212   9.469
 2961POPC   PO439852  31.162   4.624   9.415
 2961POPC   GL139853  31.387   4.850   9.143
 2961POPC   GL239854  31.736   4.827   9.189
 2961POPC   C1A39855  31.346   5.100   8.758
 2961POPC   D2A39856  31.261   5.372   8.378
 2961POPC   C3A39857  31.142   5.207   7.999
 2961POPC   C4A39858  31.181   4.779   7.828
 2961POPC   C1B39859  32.018   4.813   8.873
 2961POPC   C2B39860  32.014   5.088   8.527
 2961POPC   C3B39861  31.702   5.129   8.169
 2961POPC   C4B39862  31.564   5.175   7.725
 2962POPC   NC339863  13.109  37.305   9.632
 2962POPC   PO439864  12.610  37.629   9.431
 2962POPC   GL139865  12.850  37.522   9.078
 2962POPC   GL239866  13.079  37.761   9.142
 2962POPC   C1A39867  12.816  37.518   8.617
 2962POPC   D2A39868  12.899  37.471   8.182
 2962POPC   C3A39869  12.651  37.626   7.850
 2962POPC   C4A39870  12.542  38.071   7.812
 2962POPC   C1B39871  13.220  37.852   8.727
 2962POPC   C2B39872  13.126  37.914   8.296
 2962POPC   C3B39873  13.131  37.818   7.848
 2962POPC   C4B39874  13.059  37.521   7.513
 2963POPC   NC339875  40.427  18.053   9.391
 2963POPC   PO439876  39.718  18.079   9.513
 2963POPC   GL139877  39.740  17.955   9.110
 2963POPC   GL239878  40.019  18.170   9.101
 2963POPC   C1A39879  39.667  18.143   8.703
 2963POPC   D2A39880  39.794  18.502   8.437
 2963POPC   C3A39881  39.819  18.292   8.059
 2963POPC   C4A39882  39.740  18.104   7.696
 2963POPC   C1B39883  40.162  18.302   8.728
 2963POPC   C2B39884  40.480  18.411   8.456
 2963POPC   C3B39885  40.341  18.476   8.069
 2963POPC   C4B39886  40.184  18.417   7.684
 2964POPC   NC339887   2.052  17.679   9.362
 2964POPC   PO439888   1.878  17.092   9.597
 2964POPC   GL139889   1.868  17.218   9.154
 2964POPC   GL239890   2.224  17.279   9.044
 2964POPC   C1A39891   1.857  17.481   8.749
 2964POPC   D2A39892   2.100  17.264   8.461
 2964POPC   C3A39893   2.064  17.336   8.036
 2964POPC   C4A39894   1.849  17.204   7.655
 2964POPC   C1B39895   2.357  17.612   8.726
 2964POPC   C2B39896   2.158  17.785   8.335
 2964POPC   C3B39897   2.216  17.809   7.876
 2964POPC   C4B39898   2.389  17.849   7.461
 2965POPC   NC339899  20.868  29.156   9.571
 2965POPC   PO439900  20.403  29.005   9.277
 2965POPC   GL139901  20.741  29.259   9.079
 2965POPC   GL239902  20.884  29.551   9.227
 2965POPC   C1A39903  20.752  29.239   8.663
 2965POPC   D2A39904  20.688  28.942   8.374
 2965POPC   C3A39905  20.467  29.086   8.024
 2965POPC   C4A39906  20.734  28.956   7.719
 2965POPC   C1B39907  20.784  29.740   8.815
 2965POPC   C2B39908  20.664  29.657   8.369
 2965POPC   C3B39909  20.812  29.448   8.006
 2965POPC   C4B39910  20.745  29.460   7.567
 2966POPC   NC339911   0.105  40.049   9.572
 2966POPC   PO439912   0.391  39.521   9.573
 2966POPC   GL139913   0.266  39.772   9.171
 2966POPC   GL239914   0.363  40.099   9.061
 2966POPC   C1A39915   0.323  39.757   8.707
 2966POPC   D2A39916   0.223  40.100   8.419
 2966POPC   C3A39917   0.317  39.978   8.013
 2966POPC   C4A39918   0.324  39.776   7.629
 2966POPC   C1B39919   0.665  40.142   8.673
 2966POPC   C2B39920   0.790  40.114   8.225
 2966POPC   C3B39921   0.730  40.093   7.740
 2966POPC   C4B39922   0.853  40.365   7.343
 2967POPC   NC339923  20.496  32.952   9.598
 2967POPC   PO439924  21.041  32.717   9.310
 2967POPC   GL139925  20.783  32.955   9.050
 2967POPC   GL239926  20.533  33.209   9.134
 2967POPC   C1A39927  20.791  33.132   8.646
 2967POPC   D2A39928  20.991  33.028   8.285
 2967POPC   C3A39929  20.722  32.906   8.008
 2967POPC   C4A39930  20.555  33.206   7.732
 2967POPC   C1B39931  20.301  33.007   8.786
 2967POPC   C2B39932  20.386  32.844   8.391
 2967POPC   C3B39933  20.193  32.913   7.989
 2967POPC   C4B39934  20.067  32.619   7.696
 2968POPC   NC339935  11.675  12.736   9.503
 2968POPC   PO439936  11.195  13.218   9.434
 2968POPC   GL139937  11.440  13.060   9.107
 2968POPC   GL239938  11.419  12.728   9.065
 2968POPC   C1A39939  11.285  13.004   8.673
 2968POPC   D2A39940  11.074  13.100   8.318
 2968POPC   C3A39941  11.292  12.951   7.959
 2968POPC   C4A39942  11.191  12.594   7.811
 2968POPC   C1B39943  11.512  12.514   8.693
 2968POPC   C2B39944  11.423  12.490   8.258
 2968POPC   C3B39945  11.696  12.585   7.891
 2968POPC   C4B39946  11.586  12.576   7.444
 2969POPC   NC339947  29.464  19.137   9.508
 2969POPC   PO439948  28.791  19.294   9.576
 2969POPC   GL139949  29.077  19.394   9.165
 2969POPC   GL239950  29.417  19.381   9.084
 2969POPC   C1A39951  29.160  19.313   8.662
 2969POPC   D2A39952  28.973  19.030   8.375
 2969POPC   C3A39953  28.920  19.219   7.992
 2969POPC   C4A39954  28.964  19.111   7.573
 2969POPC   C1B39955  29.436  18.956   8.874
 2969POPC   C2B39956  29.434  18.837   8.440
 2969POPC   C3B39957  29.423  19.080   8.081
 2969POPC   C4B39958  29.578  19.076   7.657
 2970POPC   NC339959  24.208  19.248   9.485
 2970POPC   PO439960  23.677  18.922   9.617
 2970POPC   GL139961  23.727  19.006   9.152
 2970POPC   GL239962  24.094  18.998   9.057
 2970POPC   C1A39963  23.789  19.271   8.751
 2970POPC   D2A39964  23.982  19.206   8.336
 2970POPC   C3A39965  23.931  19.443   7.977
 2970POPC   C4A39966  23.708  19.321   7.616
 2970POPC   C1B39967  24.134  18.818   8.643
 2970POPC   C2B39968  24.288  18.824   8.204
 2970POPC   C3B39969  24.004  18.935   7.849
 2970POPC   C4B39970  24.097  19.049   7.384
 2971POPC   NC339971  34.125  16.037   9.487
 2971POPC   PO439972  33.563  16.389   9.534
 2971POPC   GL139973  33.630  16.093   9.205
 2971POPC   GL239974  33.738  15.785   9.231
 2971POPC   C1A39975  33.747  16.075   8.794
 2971POPC   D2A39976  34.141  16.076   8.557
 2971POPC   C3A39977  34.123  16.034   8.096
 2971POPC   C4A39978  33.807  16.144   7.788
 2971POPC   C1B39979  33.539  15.564   8.908
 2971POPC   C2B39980  33.604  15.685   8.487
 2971POPC   C3B39981  33.686  15.718   8.057
 2971POPC   C4B39982  33.770  15.403   7.769
 2972POPC   NC339983   6.220  39.485   9.500
 2972POPC   PO439984   6.800  39.148   9.538
 2972POPC   GL139985   6.525  39.168   9.207
 2972POPC   GL239986   6.792  39.304   9.030
 2972POPC   C1A39987   6.540  38.927   8.838
 2972POPC   D2A39988   6.636  39.132   8.463
 2972POPC   C3A39989   6.439  39.087   8.078
 2972POPC   C4A39990   6.647  39.074   7.693
 2972POPC   C1B39991   6.935  39.504   8.666
 2972POPC   C2B39992   6.744  39.757   8.377
 2972POPC   C3B39993   6.683  39.535   8.002
 2972POPC   C4B39994   6.916  39.530   7.629
 2973POPC   NC339995   0.796  30.536   9.446
 2973POPC   PO439996   1.454  30.618   9.407
 2973POPC   GL139997   1.220  30.739   9.072
 2973POPC   GL239998   1.051  30.444   9.010
 2973POPC   C1A39999   1.311  30.874   8.649
 2973POPC   D2A40000   1.505  30.775   8.254
 2973POPC   C3A40001   1.289  31.028   7.901
 2973POPC   C4A40002   1.467  31.099   7.478
 2973POPC   C1B40003   1.281  30.345   8.630
 2973POPC   C2B40004   1.160  30.428   8.198
 2973POPC   C3B40005   0.994  30.606   7.817
 2973POPC   C4B40006   0.731  30.658   7.430
 2974POPC   NC340007  26.496   8.361   9.531
 2974POPC   PO440008  25.912   8.029   9.585
 2974POPC   GL140009  26.040   8.188   9.140
 2974POPC   GL240010  26.234   8.491   9.075
 2974POPC   C1A40011  26.158   8.165   8.681
 2974POPC   D2A40012  26.085   7.958   8.269
 2974POPC   C3A40013  26.048   8.186   7.854
 2974POPC   C4A40014  26.313   8.166   7.441
 2974POPC   C1B40015  26.318   8.679   8.641
 2974POPC   C2B40016  26.319   8.426   8.250
 2974POPC   C3B40017  26.472   8.485   7.822
 2974POPC   C4B40018  26.591   8.601   7.382
 2975POPC   NC340019  37.129   3.501   9.325
 2975POPC   PO440020  36.478   3.458   9.446
 2975POPC   GL140021  36.628   3.438   9.073
 2975POPC   GL240022  36.719   3.783   9.107
 2975POPC   C1A40023  36.817   3.431   8.672
 2975POPC   D2A40024  37.076   3.244   8.335
 2975POPC   C3A40025  36.950   3.423   7.944
 2975POPC   C4A40026  36.636   3.291   7.635
 2975POPC   C1B40027  36.934   3.954   8.771
 2975POPC   C2B40028  36.758   3.960   8.355
 2975POPC   C3B40029  36.946   3.941   7.957
 2975POPC   C4B40030  37.297   3.811   7.820
 2976POPC   NC340031  28.049  44.872   9.500
 2976POPC   PO440032  28.661  44.541   9.586
 2976POPC   GL140033  28.475  44.717   9.215
 2976POPC   GL240034  28.295  44.407   9.201
 2976POPC   C1A40035  28.203  44.741   8.809
 2976POPC   D2A40036  28.087  44.855   8.349
 2976POPC   C3A40037  28.319  44.947   7.941
 2976POPC   C4A40038  28.339  44.864   7.452
 2976POPC   C1B40039  28.137  44.240   8.797
 2976POPC   C2B40040  27.975  44.363   8.421
 2976POPC   C3B40041  28.252  44.460   8.079
 2976POPC   C4B40042  28.166  44.434   7.662
 2977POPC   NC340043  31.368   6.826   9.758
 2977POPC   PO440044  31.475   7.489   9.603
 2977POPC   GL140045  31.587   7.274   9.224
 2977POPC   GL240046  31.341   7.438   9.035
 2977POPC   C1A40047  31.842   7.398   8.837
 2977POPC   D2A40048  31.933   7.676   8.486
 2977POPC   C3A40049  31.678   7.577   8.120
 2977POPC   C4A40050  31.815   7.482   7.714
 2977POPC   C1B40051  31.400   7.218   8.654
 2977POPC   C2B40052  31.336   7.152   8.227
 2977POPC   C3B40053  31.385   7.127   7.806
 2977POPC   C4B40054  31.168   7.086   7.386
 2978POPC   NC340055  35.804  20.415   9.449
 2978POPC   PO440056  35.215  20.764   9.513
 2978POPC   GL140057  35.302  20.511   9.205
 2978POPC   GL240058  35.571  20.692   9.095
 2978POPC   C1A40059  35.157  20.548   8.806
 2978POPC   D2A40060  35.070  20.733   8.426
 2978POPC   C3A40061  35.063  20.479   8.074
 2978POPC   C4A40062  34.916  20.605   7.687
 2978POPC   C1B40063  35.639  20.587   8.673
 2978POPC   C2B40064  35.531  20.396   8.295
 2978POPC   C3B40065  35.519  20.544   7.859
 2978POPC   C4B40066  35.595  20.592   7.416
 2979POPC   NC340067  19.388  11.736   9.465
 2979POPC   PO440068  19.336  11.104   9.756
 2979POPC   GL140069  19.155  11.071   9.287
 2979POPC   GL240070  18.940  11.351   9.260
 2979POPC   C1A40071  19.237  10.927   8.833
 2979POPC   D2A40072  19.326  11.112   8.444
 2979POPC   C3A40073  19.061  11.234   8.097
 2979POPC   C4A40074  19.320  11.523   7.808
 2979POPC   C1B40075  18.908  11.346   8.800
 2979POPC   C2B40076  18.792  11.618   8.427
 2979POPC   C3B40077  18.812  11.706   7.987
 2979POPC   C4B40078  18.862  11.403   7.659
 2980POPC   NC340079  25.895  37.435   9.478
 2980POPC   PO440080  26.180  38.009   9.538
 2980POPC   GL140081  26.078  37.783   9.142
 2980POPC   GL240082  25.718  37.664   9.060
 2980POPC   C1A40083  26.118  37.497   8.788
 2980POPC   D2A40084  25.904  37.544   8.398
 2980POPC   C3A40085  26.212  37.503   8.109
 2980POPC   C4A40086  26.377  37.616   7.713
 2980POPC   C1B40087  25.790  37.966   8.718
 2980POPC   C2B40088  25.640  37.989   8.295
 2980POPC   C3B40089  25.845  37.949   7.923
 2980POPC   C4B40090  25.846  37.550   7.781
 2981POPC   NC340091  44.814   3.385   9.750
 2981POPC   PO440092  44.231   3.766   9.714
 2981POPC   GL140093  44.491   3.688   9.299
 2981POPC   GL240094  44.743   3.383   9.223
 2981POPC   C1A40095  44.574   3.609   8.832
 2981POPC   D2A40096  44.733   3.520   8.431
 2981POPC   C3A40097  44.408   3.443   8.120
 2981POPC   C4A40098  44.489   3.642   7.695
 2981POPC   C1B40099  44.961   3.225   8.772
 2981POPC   C2B40100   0.034   3.112   8.299
 2981POPC   C3B40101  44.855   3.359   7.927
 2981POPC   C4B40102  44.706   3.248   7.481
 2982POPC   NC340103  22.266  17.749   9.505
 2982POPC   PO440104  21.949  17.114   9.438
 2982POPC   GL140105  22.168  17.416   9.092
 2982POPC   GL240106  22.402  17.719   9.036
 2982POPC   C1A40107  22.442  17.339   8.723
 2982POPC   D2A40108  22.333  17.031   8.442
 2982POPC   C3A40109  22.395  17.119   8.055
 2982POPC   C4A40110  22.187  17.290   7.773
 2982POPC   C1B40111  22.211  17.815   8.636
 2982POPC   C2B40112  22.386  17.583   8.273
 2982POPC   C3B40113  22.538  17.661   7.874
 2982POPC   C4B40114  22.173  17.767   7.635
 2983POPC   NC340115  20.743  16.773   9.425
 2983POPC   PO440116  20.111  16.591   9.127
 2983POPC   GL140117  20.430  16.871   8.988
 2983POPC   GL240118  20.645  16.589   8.940
 2983POPC   C1A40119  20.649  17.017   8.589
 2983POPC   D2A40120  20.862  16.857   8.203
 2983POPC   C3A40121  20.546  16.667   7.921
 2983POPC   C4A40122  20.175  16.947   7.824
 2983POPC   C1B40123  20.993  16.632   8.676
 2983POPC   C2B40124  21.182  16.474   8.298
 2983POPC   C3B40125  21.032  16.487   7.859
 2983POPC   C4B40126  20.859  16.409   7.448
 2984POPC   NC340127  18.474  20.167   9.485
 2984POPC   PO440128  17.907  20.135   9.456
 2984POPC   GL140129  18.210  20.153   9.050
 2984POPC   GL240130  18.479  20.434   9.039
 2984POPC   C1A40131  18.450  20.137   8.624
 2984POPC   D2A40132  18.504  20.456   8.293
 2984POPC   C3A40133  18.424  20.502   7.877
 2984POPC   C4A40134  18.261  20.792   7.591
 2984POPC   C1B40135  18.798  20.546   8.702
 2984POPC   C2B40136  18.884  20.798   8.304
 2984POPC   C3B40137  18.630  20.968   7.971
 2984POPC   C4B40138  18.704  21.070   7.568
 2985POPC   NC340139  43.750  28.757   9.582
 2985POPC   PO440140  43.697  28.118   9.743
 2985POPC   GL140141  43.616  28.316   9.328
 2985POPC   GL240142  43.464  28.044   9.200
 2985POPC   C1A40143  43.758  28.352   8.875
 2985POPC   D2A40144  44.003  28.499   8.499
 2985POPC   C3A40145  43.949  28.366   8.042
 2985POPC   C4A40146  44.192  28.560   7.698
 2985POPC   C1B40147  43.349  28.075   8.781
 2985POPC   C2B40148  43.597  28.032   8.406
 2985POPC   C3B40149  43.378  28.044   8.002
 2985POPC   C4B40150  43.614  28.163   7.679
 2986POPC   NC340151  22.485  15.169   9.450
 2986POPC   PO440152  21.832  15.227   9.429
 2986POPC   GL140153  22.132  15.231   9.076
 2986POPC   GL240154  22.377  15.502   9.068
 2986POPC   C1A40155  22.340  15.117   8.692
 2986POPC   D2A40156  22.345  14.861   8.358
 2986POPC   C3A40157  22.153  15.052   8.020
 2986POPC   C4A40158  22.247  15.091   7.595
 2986POPC   C1B40159  22.167  15.596   8.685
 2986POPC   C2B40160  22.125  15.512   8.230
 2986POPC   C3B40161  22.162  15.571   7.773
 2986POPC   C4B40162  22.379  15.531   7.355
 2987POPC   NC340163  18.191  39.021   9.550
 2987POPC   PO440164  18.248  39.686   9.652
 2987POPC   GL140165  18.304  39.404   9.231
 2987POPC   GL240166  18.033  39.199   9.091
 2987POPC   C1A40167  18.443  39.221   8.800
 2987POPC   D2A40168  18.328  39.239   8.340
 2987POPC   C3A40169  18.591  39.437   7.976
 2987POPC   C4A40170  18.441  39.518   7.535
 2987POPC   C1B40171  18.002  38.926   8.697
 2987POPC   C2B40172  18.028  38.822   8.213
 2987POPC   C3B40173  17.955  39.043   7.762
 2987POPC   C4B40174  17.824  38.885   7.314
 2988POPC   NC340175  41.951   1.830   9.784
 2988POPC   PO440176  41.509   2.292   9.625
 2988POPC   GL140177  41.569   2.257   9.161
 2988POPC   GL240178  41.808   2.022   9.050
 2988POPC   C1A40179  41.330   2.054   8.800
 2988POPC   D2A40180  41.193   1.915   8.398
 2988POPC   C3A40181  41.398   2.140   8.068
 2988POPC   C4A40182  41.628   2.137   7.705
 2988POPC   C1B40183  41.734   1.766   8.709
 2988POPC   C2B40184  41.675   1.716   8.275
 2988POPC   C3B40185  41.948   1.810   7.928
 2988POPC   C4B40186  41.964   1.574   7.541
 2989POPC   NC340187   0.371  13.960   9.524
 2989POPC   PO440188   0.751  13.350   9.550
 2989POPC   GL140189   0.703  13.652   9.175
 2989POPC   GL240190   0.372  13.798   9.042
 2989POPC   C1A40191   0.639  13.520   8.731
 2989POPC   D2A40192   0.474  13.613   8.328
 2989POPC   C3A40193   0.300  13.336   8.030
 2989POPC   C4A40194   0.595  13.511   7.774
 2989POPC   C1B40195   0.115  13.822   8.655
 2989POPC   C2B40196  44.993  13.759   8.203
 2989POPC   C3B40197   0.170  13.817   7.765
 2989POPC   C4B40198   0.199  13.810   7.268
 2990POPC   NC340199   1.012   4.939   9.428
 2990POPC   PO440200   1.444   5.433   9.609
 2990POPC   GL140201   1.353   5.271   9.151
 2990POPC   GL240202   1.389   4.917   9.033
 2990POPC   C1A40203   1.260   5.283   8.672
 2990POPC   D2A40204   1.052   5.223   8.237
 2990POPC   C3A40205   1.257   5.014   7.907
 2990POPC   C4A40206   1.348   5.095   7.480
 2990POPC   C1B40207   1.056   4.795   8.728
 2990POPC   C2B40208   0.846   4.734   8.310
 2990POPC   C3B40209   0.765   4.885   7.895
 2990POPC   C4B40210   0.937   4.826   7.510
 2991POPC   NC340211   9.450  39.750   9.470
 2991POPC   PO440212   9.780  40.293   9.602
 2991POPC   GL140213   9.572  40.152   9.182
 2991POPC   GL240214   9.855  39.982   9.124
 2991POPC   C1A40215   9.552  39.797   8.791
 2991POPC   D2A40216   9.735  39.790   8.395
 2991POPC   C3A40217   9.563  39.904   7.990
 2991POPC   C4A40218   9.755  39.911   7.595
 2991POPC   C1B40219   9.810  40.243   8.741
 2991POPC   C2B40220   9.753  40.317   8.314
 2991POPC   C3B40221   9.955  40.247   7.946
 2991POPC   C4B40222   9.859  40.429   7.570
 2992POPC   NC340223  36.392  31.061   9.404
 2992POPC   PO440224  35.886  30.563   9.382
 2992POPC   GL140225  36.004  30.752   9.022
 2992POPC   GL240226  36.348  30.722   9.011
 2992POPC   C1A40227  36.047  30.590   8.598
 2992POPC   D2A40228  36.246  30.661   8.213
 2992POPC   C3A40229  35.981  30.856   7.935
 2992POPC   C4A40230  35.802  30.611   7.651
 2992POPC   C1B40231  36.362  30.992   8.639
 2992POPC   C2B40232  36.610  31.026   8.242
 2992POPC   C3B40233  36.465  30.948   7.825
 2992POPC   C4B40234  36.307  30.899   7.421
 2993POPC   NC340235  22.038  33.368   9.510
 2993POPC   PO440236  22.044  34.060   9.522
 2993POPC   GL140237  22.204  34.001   9.106
 2993POPC   GL240238  22.553  33.871   8.930
 2993POPC   C1A40239  21.925  33.876   8.790
 2993POPC   D2A40240  21.843  33.615   8.443
 2993POPC   C3A40241  21.926  33.860   8.107
 2993POPC   C4A40242  21.857  33.716   7.670
 2993POPC   C1B40243  22.325  33.570   8.686
 2993POPC   C2B40244  22.279  33.379   8.310
 2993POPC   C3B40245  22.251  33.533   7.914
 2993POPC   C4B40246  22.409  33.541   7.514
 2994POPC   NC340247  11.243  11.802   9.415
 2994POPC   PO440248  11.299  12.470   9.495
 2994POPC   GL140249  11.050  12.396   9.143
 2994POPC   GL240250  11.285  12.176   9.022
 2994POPC   C1A40251  10.996  12.566   8.722
 2994POPC   D2A40252  10.845  12.493   8.288
 2994POPC   C3A40253  11.059  12.156   8.061
 2994POPC   C4A40254  11.405  12.144   7.795
 2994POPC   C1B40255  11.204  12.096   8.578
 2994POPC   C2B40256  11.524  11.984   8.289
 2994POPC   C3B40257  11.623  11.721   7.959
 2994POPC   C4B40258  11.519  11.721   7.518
 2995POPC   NC340259   2.757  15.565   9.260
 2995POPC   PO440260   2.992  14.925   9.447
 2995POPC   GL140261   2.897  15.094   9.091
 2995POPC   GL240262   2.556  15.107   9.070
 2995POPC   C1A40263   2.831  15.131   8.656
 2995POPC   D2A40264   2.648  15.231   8.304
 2995POPC   C3A40265   2.855  15.301   7.966
 2995POPC   C4A40266   3.161  15.006   7.804
 2995POPC   C1B40267   2.361  15.381   8.730
 2995POPC   C2B40268   2.158  15.262   8.332
 2995POPC   C3B40269   2.329  15.142   7.910
 2995POPC   C4B40270   2.400  15.518   7.737
 2996POPC   NC340271  19.621  21.430   9.546
 2996POPC   PO440272  20.279  21.031   9.482
 2996POPC   GL140273  20.018  21.310   9.194
 2996POPC   GL240274  19.675  21.249   9.085
 2996POPC   C1A40275  19.948  21.634   8.860
 2996POPC   D2A40276  20.080  21.718   8.429
 2996POPC   C3A40277  19.833  21.629   8.073
 2996POPC   C4A40278  19.696  21.468   7.690
 2996POPC   C1B40279  19.774  21.163   8.672
 2996POPC   C2B40280  19.597  21.183   8.254
 2996POPC   C3B40281  19.487  21.061   7.859
 2996POPC   C4B40282  19.204  21.295   7.619
 2997POPC   NC340283  25.450  18.162   9.531
 2997POPC   PO440284  24.816  18.292   9.615
 2997POPC   GL140285  25.113  18.389   9.217
 2997POPC   GL240286  25.410  18.597   9.132
 2997POPC   C1A40287  25.317  18.143   8.845
 2997POPC   D2A40288  25.542  18.019   8.401
 2997POPC   C3A40289  25.326  18.004   8.028
 2997POPC   C4A40290  25.366  18.046   7.584
 2997POPC   C1B40291  25.520  18.583   8.660
 2997POPC   C2B40292  25.383  18.490   8.223
 2997POPC   C3B40293  25.111  18.431   7.826
 2997POPC   C4B40294  25.196  18.477   7.346
 2998POPC   NC340295  35.780   1.964   9.487
 2998POPC   PO440296  35.155   2.243   9.447
 2998POPC   GL140297  35.358   2.037   9.112
 2998POPC   GL240298  35.667   2.205   9.041
 2998POPC   C1A40299  35.169   2.072   8.707
 2998POPC   D2A40300  34.894   2.148   8.365
 2998POPC   C3A40301  35.077   2.279   7.977
 2998POPC   C4A40302  34.903   2.523   7.644
 2998POPC   C1B40303  35.662   2.188   8.602
 2998POPC   C2B40304  35.451   1.921   8.310
 2998POPC   C3B40305  35.301   1.818   7.916
 2998POPC   C4B40306  35.448   1.879   7.499
 2999POPC   NC340307   7.667  12.745   9.551
 2999POPC   PO440308   7.080  12.922   9.465
 2999POPC   GL140309   7.337  13.034   9.097
 2999POPC   GL240310   7.668  12.997   9.116
 2999POPC   C1A40311   7.468  13.174   8.680
 2999POPC   D2A40312   7.474  12.865   8.366
 2999POPC   C3A40313   7.469  12.978   7.971
 2999POPC   C4A40314   7.388  13.053   7.560
 2999POPC   C1B40315   7.571  12.675   8.832
 2999POPC   C2B40316   7.804  12.503   8.524
 2999POPC   C3B40317   7.733  12.480   8.098
 2999POPC   C4B40318   7.882  12.711   7.753
 3000POPC   NC340319  42.869   8.639   9.345
 3000POPC   PO440320  43.275   8.283   9.636
 3000POPC   GL140321  43.240   8.207   9.156
 3000POPC   GL240322  42.865   8.141   9.128
 3000POPC   C1A40323  43.142   8.004   8.712
 3000POPC   D2A40324  42.998   8.038   8.252
 3000POPC   C3A40325  43.248   8.137   7.858
 3000POPC   C4A40326  43.592   8.313   7.575
 3000POPC   C1B40327  42.804   8.408   8.753
 3000POPC   C2B40328  42.841   8.536   8.329
 3000POPC   C3B40329  42.794   8.419   7.904
 3000POPC   C4B40330  42.567   8.545   7.526
 3001POPC   NC340331  12.877  11.122   9.534
 3001POPC   PO440332  12.232  11.235   9.705
 3001POPC   GL140333  12.431  11.246   9.212
 3001POPC   GL240334  12.726  11.006   9.074
 3001POPC   C1A40335  12.419  11.166   8.724
 3001POPC   D2A40336  12.717  10.984   8.420
 3001POPC   C3A40337  12.627  11.147   8.022
 3001POPC   C4A40338  12.499  11.440   7.737
 3001POPC   C1B40339  12.907  11.304   8.797
 3001POPC   C2B40340  13.090  11.476   8.433
 3001POPC   C3B40341  13.156  11.266   8.041
 3001POPC   C4B40342  13.306  11.257   7.619
 3002POPC   NC340343   6.508  42.834   9.632
 3002POPC   PO440344   6.750  43.438   9.689
 3002POPC   GL140345   6.745  43.171   9.296
 3002POPC   GL240346   6.376  43.133   9.164
 3002POPC   C1A40347   6.806  43.140   8.846
 3002POPC   D2A40348   6.745  42.848   8.529
 3002POPC   C3A40349   6.815  42.886   8.079
 3002POPC   C4A40350   6.816  42.780   7.673
 3002POPC   C1B40351   6.277  43.064   8.703
 3002POPC   C2B40352   6.394  43.107   8.255
 3002POPC   C3B40353   6.349  42.946   7.832
 3002POPC   C4B40354   6.396  42.866   7.363
 3003POPC   NC340355  26.432  15.077   9.443
 3003POPC   PO440356  25.788  15.130   9.499
 3003POPC   GL140357  25.824  15.077   9.082
 3003POPC   GL240358  26.142  15.220   9.039
 3003POPC   C1A40359  25.730  15.280   8.687
 3003POPC   D2A40360  25.818  15.390   8.263
 3003POPC   C3A40361  26.061  15.104   7.992
 3003POPC   C4A40362  25.966  15.080   7.510
 3003POPC   C1B40363  26.161  14.982   8.697
 3003POPC   C2B40364  26.294  14.660   8.467
 3003POPC   C3B40365  25.959  14.596   8.225
 3003POPC   C4B40366  25.835  14.697   7.811
 3004POPC   NC340367  36.963  42.690   9.607
 3004POPC   PO440368  37.273  42.074   9.441
 3004POPC   GL140369  37.068  42.386   9.211
 3004POPC   GL240370  37.325  42.488   9.039
 3004POPC   C1A40371  36.805  42.408   8.838
 3004POPC   D2A40372  36.649  42.085   8.534
 3004POPC   C3A40373  36.883  42.134   8.156
 3004POPC   C4A40374  36.879  41.998   7.748
 3004POPC   C1B40375  37.275  42.289   8.612
 3004POPC   C2B40376  37.339  42.378   8.133
 3004POPC   C3B40377  37.356  42.167   7.719
 3004POPC   C4B40378  37.143  42.024   7.301
 3005POPC   NC340379  32.804  37.622   9.461
 3005POPC   PO440380  33.555  37.469   9.360
 3005POPC   GL140381  33.165  37.512   9.100
 3005POPC   GL240382  32.970  37.847   9.024
 3005POPC   C1A40383  33.125  37.534   8.660
 3005POPC   D2A40384  33.482  37.668   8.423
 3005POPC   C3A40385  33.315  37.726   8.048
 3005POPC   C4A40386  32.991  37.506   7.865
 3005POPC   C1B40387  33.120  38.060   8.609
 3005POPC   C2B40388  33.096  38.187   8.145
 3005POPC   C3B40389  33.055  38.015   7.687
 3005POPC   C4B40390  33.032  37.907   7.231
 3006POPC   NC340391  28.840  30.808   9.401
 3006POPC   PO440392  29.569  30.738   9.526
 3006POPC   GL140393  29.347  30.637   9.093
 3006POPC   GL240394  29.019  30.461   9.052
 3006POPC   C1A40395  29.196  30.759   8.667
 3006POPC   D2A40396  29.232  30.628   8.222
 3006POPC   C3A40397  29.191  30.931   7.861
 3006POPC   C4A40398  29.228  30.771   7.456
 3006POPC   C1B40399  28.751  30.478   8.664
 3006POPC   C2B40400  28.719  30.696   8.251
 3006POPC   C3B40401  28.834  30.577   7.787
 3006POPC   C4B40402  28.709  30.720   7.374
 3007POPC   NC340403  32.601  30.062   9.529
 3007POPC   PO440404  32.063  29.702   9.741
 3007POPC   GL140405  32.084  29.763   9.224
 3007POPC   GL240406  32.427  29.760   9.143
 3007POPC   C1A40407  32.179  30.062   8.788
 3007POPC   D2A40408  32.321  29.894   8.351
 3007POPC   C3A40409  32.110  30.026   7.981
 3007POPC   C4A40410  32.264  30.361   7.764
 3007POPC   C1B40411  32.214  29.570   8.757
 3007POPC   C2B40412  32.189  29.403   8.344
 3007POPC   C3B40413  32.224  29.526   7.919
 3007POPC   C4B40414  31.906  29.642   7.626
 3008POPC   NC340415  33.178  43.755   9.462
 3008POPC   PO440416  33.781  44.136   9.528
 3008POPC   GL140417  33.946  43.988   9.154
 3008POPC   GL240418  33.958  44.301   9.001
 3008POPC   C1A40419  34.022  43.752   8.786
 3008POPC   D2A40420  33.736  43.678   8.433
 3008POPC   C3A40421  33.882  43.882   8.044
 3008POPC   C4A40422  34.013  43.671   7.701
 3008POPC   C1B40423  33.653  44.120   8.719
 3008POPC   C2B40424  33.512  44.131   8.292
 3008POPC   C3B40425  33.363  43.980   7.908
 3008POPC   C4B40426  33.614  43.966   7.542
 3009POPC   NC340427  21.754  18.480   9.328
 3009POPC   PO440428  21.140  18.749   9.255
 3009POPC   GL140429  21.250  18.354   9.009
 3009POPC   GL240430  21.423  18.038   9.114
 3009POPC   C1A40431  21.320  18.211   8.585
 3009POPC   D2A40432  21.537  18.416   8.234
 3009POPC   C3A40433  21.361  18.504   7.834
 3009POPC   C4A40434  21.170  18.559   7.402
 3009POPC   C1B40435  21.707  17.779   8.813
 3009POPC   C2B40436  21.686  17.914   8.365
 3009POPC   C3B40437  21.652  17.985   7.893
 3009POPC   C4B40438  21.755  17.924   7.407
 3010POPC   NC340439  16.652  36.472   9.541
 3010POPC   PO440440  16.615  37.135   9.718
 3010POPC   GL140441  16.691  37.070   9.222
 3010POPC   GL240442  16.683  36.716   9.090
 3010POPC   C1A40443  16.539  37.065   8.760
 3010POPC   D2A40444  16.647  36.809   8.406
 3010POPC   C3A40445  16.626  37.035   8.032
 3010POPC   C4A40446  16.730  37.409   7.846
 3010POPC   C1B40447  16.934  36.522   8.738
 3010POPC   C2B40448  17.252  36.616   8.459
 3010POPC   C3B40449  17.049  36.634   8.075
 3010POPC   C4B40450  16.765  36.626   7.759
 3011POPC   NC340451   0.842   4.173   9.541
 3011POPC   PO440452   1.361   4.585   9.409
 3011POPC   GL140453   1.058   4.459   9.133
 3011POPC   GL240454   1.177   4.128   9.135
 3011POPC   C1A40455   0.885   4.216   8.744
 3011POPC   D2A40456   1.002   4.126   8.307
 3011POPC   C3A40457   0.936   4.391   7.922
 3011POPC   C4A40458   0.967   4.325   7.474
 3011POPC   C1B40459   1.380   4.372   8.745
 3011POPC   C2B40460   1.503   4.243   8.308
 3011POPC   C3B40461   1.337   4.047   7.907
 3011POPC   C4B40462   1.421   4.112   7.456
 3012POPC   NC340463  25.698   8.483   9.338
 3012POPC   PO440464  25.068   8.265   9.450
 3012POPC   GL140465  25.245   8.166   9.094
 3012POPC   GL240466  25.568   7.980   9.145
 3012POPC   C1A40467  25.052   8.217   8.710
 3012POPC   D2A40468  25.218   8.399   8.363
 3012POPC   C3A40469  25.072   8.271   7.988
 3012POPC   C4A40470  25.036   8.456   7.602
 3012POPC   C1B40471  25.606   8.230   8.748
 3012POPC   C2B40472  25.777   8.371   8.389
 3012POPC   C3B40473  25.589   8.220   8.045
 3012POPC   C4B40474  25.565   8.499   7.755
 3013POPC   NC340475   9.283  17.811   9.499
 3013POPC   PO440476   8.879  18.339   9.532
 3013POPC   GL140477   9.050  18.266   9.153
 3013POPC   GL240478   8.942  17.964   9.127
 3013POPC   C1A40479   9.103  18.510   8.783
 3013POPC   D2A40480   9.105  18.365   8.366
 3013POPC   C3A40481   9.008  18.583   7.983
 3013POPC   C4A40482   8.876  18.417   7.587
 3013POPC   C1B40483   9.238  17.999   8.762
 3013POPC   C2B40484   9.408  17.966   8.334
 3013POPC   C3B40485   9.206  18.097   7.902
 3013POPC   C4B40486   9.293  18.115   7.440
 3014POPC   NC340487  33.737  19.178   9.540
 3014POPC   PO440488  33.251  19.513   9.214
 3014POPC   GL140489  33.650  19.301   9.055
 3014POPC   GL240490  33.741  18.903   9.123
 3014POPC   C1A40491  33.863  19.150   8.694
 3014POPC   D2A40492  33.663  19.049   8.337
 3014POPC   C3A40493  33.891  19.200   8.035
 3014POPC   C4A40494  33.686  19.187   7.678
 3014POPC   C1B40495  33.630  18.693   8.752
 3014POPC   C2B40496  33.866  18.600   8.382
 3014POPC   C3B40497  33.805  18.709   7.932
 3014POPC   C4B40498  33.840  18.741   7.460
 3015POPC   NC340499   0.747   1.248   9.444
 3015POPC   PO440500   0.095   1.161   9.363
 3015POPC   GL140501   0.356   1.378   9.074
 3015POPC   GL240502   0.675   1.287   8.947
 3015POPC   C1A40503   0.168   1.471   8.695
 3015POPC   D2A40504   0.122   1.258   8.331
 3015POPC   C3A40505   0.522   1.348   8.144
 3015POPC   C4A40506   0.507   1.389   7.709
 3015POPC   C1B40507   0.842   0.890   8.772
 3015POPC   C2B40508   0.975   0.853   8.358
 3015POPC   C3B40509   0.802   0.953   7.948
 3015POPC   C4B40510   0.792   0.968   7.523
 3016POPC   NC340511   8.409  26.942   9.704
 3016POPC   PO440512   7.831  26.667   9.637
 3016POPC   GL140513   8.068  26.865   9.248
 3016POPC   GL240514   8.466  26.811   9.192
 3016POPC   C1A40515   8.051  27.028   8.792
 3016POPC   D2A40516   8.132  27.150   8.349
 3016POPC   C3A40517   7.996  26.919   7.986
 3016POPC   C4A40518   8.294  26.909   7.644
 3016POPC   C1B40519   8.274  26.561   8.852
 3016POPC   C2B40520   8.128  26.634   8.425
 3016POPC   C3B40521   8.337  26.524   8.045
 3016POPC   C4B40522   8.387  26.345   7.640
 3017POPC   NC340523  42.044   4.227   9.372
 3017POPC   PO440524  42.750   4.422   9.495
 3017POPC   GL140525  42.481   4.455   9.119
 3017POPC   GL240526  42.401   4.135   9.008
 3017POPC   C1A40527  42.552   4.523   8.688
 3017POPC   D2A40528  42.414   4.274   8.320
 3017POPC   C3A40529  42.493   4.485   7.912
 3017POPC   C4A40530  42.481   4.321   7.494
 3017POPC   C1B40531  42.066   4.339   8.733
 3017POPC   C2B40532  41.890   4.166   8.366
 3017POPC   C3B40533  42.032   4.241   7.937
 3017POPC   C4B40534  41.895   3.949   7.621
 3018POPC   NC340535   3.833  10.548   9.481
 3018POPC   PO440536   3.214  10.246   9.542
 3018POPC   GL140537   3.386  10.145   9.102
 3018POPC   GL240538   3.770  10.159   9.107
 3018POPC   C1A40539   3.505  10.436   8.765
 3018POPC   D2A40540   3.408  10.680   8.398
 3018POPC   C3A40541   3.498  10.451   8.041
 3018POPC   C4A40542   3.419  10.690   7.706
 3018POPC   C1B40543   3.989  10.225   8.695
 3018POPC   C2B40544   4.016  10.358   8.242
 3018POPC   C3B40545   3.900  10.179   7.847
 3018POPC   C4B40546   3.678  10.286   7.490
 3019POPC   NC340547  11.589   8.271   9.490
 3019POPC   PO440548  10.876   8.117   9.526
 3019POPC   GL140549  11.164   8.224   9.201
 3019POPC   GL240550  11.438   7.948   9.108
 3019POPC   C1A40551  11.094   8.225   8.792
 3019POPC   D2A40552  11.286   8.058   8.467
 3019POPC   C3A40553  11.228   8.295   8.115
 3019POPC   C4A40554  11.383   8.161   7.735
 3019POPC   C1B40555  11.614   8.264   8.818
 3019POPC   C2B40556  11.602   8.473   8.439
 3019POPC   C3B40557  11.711   8.476   7.996
 3019POPC   C4B40558  11.685   8.569   7.549
 3020POPC   NC340559  37.420   6.904   9.494
 3020POPC   PO440560  37.708   6.336   9.517
 3020POPC   GL140561  37.567   6.499   9.177
 3020POPC   GL240562  37.753   6.788   9.121
 3020POPC   C1A40563  37.553   6.464   8.756
 3020POPC   D2A40564  37.830   6.436   8.432
 3020POPC   C3A40565  37.615   6.599   8.088
 3020POPC   C4A40566  37.736   6.490   7.698
 3020POPC   C1B40567  37.465   6.969   8.807
 3020POPC   C2B40568  37.662   7.097   8.432
 3020POPC   C3B40569  37.808   7.067   8.019
 3020POPC   C4B40570  37.485   6.964   7.723
 3021POPC   NC340571  21.494  14.146   9.794
 3021POPC   PO440572  21.082  14.567   9.483
 3021POPC   GL140573  21.305  14.347   9.140
 3021POPC   GL240574  21.648  14.154   9.075
 3021POPC   C1A40575  21.380  14.433   8.688
 3021POPC   D2A40576  21.517  14.789   8.377
 3021POPC   C3A40577  21.487  14.672   7.929
 3021POPC   C4A40578  21.252  14.350   7.707
 3021POPC   C1B40579  21.830  14.139   8.674
 3021POPC   C2B40580  21.669  14.290   8.282
 3021POPC   C3B40581  21.745  14.228   7.878
 3021POPC   C4B40582  21.739  14.305   7.461
 3022POPC   NC340583  29.803  20.802   9.533
 3022POPC   PO440584  30.243  20.343   9.546
 3022POPC   GL140585  30.008  20.333   9.175
 3022POPC   GL240586  29.745  20.570   9.069
 3022POPC   C1A40587  30.056  20.325   8.748
 3022POPC   D2A40588  30.030  20.510   8.394
 3022POPC   C3A40589  30.040  20.266   8.076
 3022POPC   C4A40590  29.776  20.358   7.785
 3022POPC   C1B40591  29.819  20.834   8.714
 3022POPC   C2B40592  29.755  20.930   8.268
 3022POPC   C3B40593  29.817  20.881   7.815
 3022POPC   C4B40594  29.633  21.021   7.402
 3023POPC   NC340595  25.699   0.680   9.852
 3023POPC   PO440596  25.148   0.372   9.553
 3023POPC   GL140597  25.181   0.452   9.134
 3023POPC   GL240598  24.982   0.155   9.099
 3023POPC   C1A40599  25.349   0.635   8.748
 3023POPC   D2A40600  25.334   0.449   8.353
 3023POPC   C3A40601  25.312   0.574   7.955
 3023POPC   C4A40602  25.638   0.606   7.689
 3023POPC   C1B40603  24.968   0.273   8.672
 3023POPC   C2B40604  24.926  44.973   8.353
 3023POPC   C3B40605  24.782  44.884   7.954
 3023POPC   C4B40606  24.839   0.299   7.792
 3024POPC   NC340607  36.883  16.519   9.579
 3024POPC   PO440608  36.820  17.108   9.432
 3024POPC   GL140609  36.951  16.754   9.142
 3024POPC   GL240610  36.679  16.487   9.115
 3024POPC   C1A40611  37.115  16.528   8.783
 3024POPC   D2A40612  37.024  16.380   8.367
 3024POPC   C3A40613  37.219  16.614   8.024
 3024POPC   C4A40614  37.404  16.927   7.800
 3024POPC   C1B40615  36.610  16.647   8.709
 3024POPC   C2B40616  36.503  16.546   8.315
 3024POPC   C3B40617  36.729  16.613   7.969
 3024POPC   C4B40618  36.936  16.801   7.639
 3025POPC   NC340619  29.685   1.724   9.527
 3025POPC   PO440620  30.431   1.856   9.529
 3025POPC   GL140621  30.178   1.828   9.156
 3025POPC   GL240622  29.895   2.074   9.190
 3025POPC   C1A40623  30.052   1.943   8.722
 3025POPC   D2A40624  29.847   2.184   8.375
 3025POPC   C3A40625  30.016   2.085   8.024
 3025POPC   C4A40626  30.198   1.771   7.763
 3025POPC   C1B40627  29.614   2.154   8.830
 3025POPC   C2B40628  29.457   1.867   8.533
 3025POPC   C3B40629  29.483   1.905   8.100
 3025POPC   C4B40630  29.673   1.912   7.705
 3026POPC   NC340631  33.457   4.982   9.381
 3026POPC   PO440632  32.905   5.045   9.587
 3026POPC   GL140633  32.990   4.996   9.150
 3026POPC   GL240634  33.160   5.299   9.108
 3026POPC   C1A40635  32.990   5.021   8.685
 3026POPC   D2A40636  32.781   4.809   8.321
 3026POPC   C3A40637  32.856   5.069   7.980
 3026POPC   C4A40638  33.183   5.069   7.667
 3026POPC   C1B40639  33.472   5.422   8.826
 3026POPC   C2B40640  33.337   5.554   8.450
 3026POPC   C3B40641  33.327   5.279   8.120
 3026POPC   C4B40642  33.602   5.355   7.779
 3027POPC   NC340643  37.335  19.289   9.466
 3027POPC   PO440644  37.936  18.956   9.460
 3027POPC   GL140645  37.837  19.220   9.112
 3027POPC   GL240646  37.923  18.959   8.919
 3027POPC   C1A40647  37.659  19.312   8.704
 3027POPC   D2A40648  37.713  19.053   8.308
 3027POPC   C3A40649  37.837  19.280   7.907
 3027POPC   C4A40650  37.757  19.279   7.449
 3027POPC   C1B40651  37.637  18.634   8.786
 3027POPC   C2B40652  37.332  18.493   8.469
 3027POPC   C3B40653  37.370  18.583   8.050
 3027POPC   C4B40654  37.727  18.779   7.856
 3028POPC   NC340655  34.778  13.193   9.577
 3028POPC   PO440656  34.424  13.743   9.404
 3028POPC   GL140657  34.487  13.397   9.207
 3028POPC   GL240658  34.252  13.406   8.971
 3028POPC   C1A40659  34.766  13.280   8.905
 3028POPC   D2A40660  34.647  13.326   8.476
 3028POPC   C3A40661  34.904  13.571   8.179
 3028POPC   C4A40662  34.908  13.509   7.727
 3028POPC   C1B40663  34.555  13.728   8.771
 3028POPC   C2B40664  34.546  13.909   8.347
 3028POPC   C3B40665  34.470  13.697   7.932
 3028POPC   C4B40666  34.367  13.630   7.476
 3029POPC   NC340667  31.584  39.388   9.713
 3029POPC   PO440668  32.021  39.229   9.288
 3029POPC   GL140669  31.928  39.230   8.901
 3029POPC   GL240670  31.921  39.577   8.942
 3029POPC   C1A40671  32.194  39.101   8.578
 3029POPC   D2A40672  32.443  39.043   8.251
 3029POPC   C3A40673  32.171  39.257   7.970
 3029POPC   C4A40674  32.028  39.128   7.547
 3029POPC   C1B40675  31.884  39.791   8.625
 3029POPC   C2B40676  32.013  39.619   8.301
 3029POPC   C3B40677  31.970  39.743   7.927
 3029POPC   C4B40678  31.787  39.567   7.599
 3030POPC   NC340679  29.753  31.199   9.673
 3030POPC   PO440680  29.206  31.071   9.280
 3030POPC   GL140681  29.135  31.234   8.896
 3030POPC   GL240682  29.438  31.240   8.759
 3030POPC   C1A40683  28.876  31.479   8.597
 3030POPC   D2A40684  29.022  31.682   8.225
 3030POPC   C3A40685  29.120  31.441   7.863
 3030POPC   C4A40686  28.853  31.480   7.468
 3030POPC   C1B40687  29.313  31.703   8.698
 3030POPC   C2B40688  29.433  31.951   8.327
 3030POPC   C3B40689  29.516  31.825   7.916
 3030POPC   C4B40690  29.279  31.791   7.539
 3031POPC   NC340691  12.917  26.619   9.524
 3031POPC   PO440692  13.031  27.254   9.429
 3031POPC   GL140693  12.922  26.976   9.136
 3031POPC   GL240694  12.599  26.880   9.221
 3031POPC   C1A40695  13.064  26.906   8.711
 3031POPC   D2A40696  13.215  26.604   8.421
 3031POPC   C3A40697  13.066  26.789   8.051
 3031POPC   C4A40698  13.230  26.821   7.641
 3031POPC   C1B40699  12.619  26.686   8.834
 3031POPC   C2B40700  12.700  26.602   8.411
 3031POPC   C3B40701  12.506  26.491   8.033
 3031POPC   C4B40702  12.727  26.673   7.689
 3032POPC   NC340703  31.135   0.108   9.449
 3032POPC   PO440704  31.736   0.504   9.539
 3032POPC   GL140705  31.517   0.395   9.185
 3032POPC   GL240706  31.692   0.102   9.040
 3032POPC   C1A40707  31.442   0.497   8.763
 3032POPC   D2A40708  31.351   0.187   8.440
 3032POPC   C3A40709  31.383   0.361   8.029
 3032POPC   C4A40710  31.277   0.646   7.700
 3032POPC   C1B40711  31.854   0.217   8.610
 3032POPC   C2B40712  31.875   0.252   8.140
 3032POPC   C3B40713  31.791   0.457   7.714
 3032POPC   C4B40714  31.822   0.383   7.216
 3033POPC   NC340715  34.279  39.297   9.478
 3033POPC   PO440716  34.801  38.872   9.268
 3033POPC   GL140717  34.478  39.119   9.028
 3033POPC   GL240718  34.427  39.513   9.034
 3033POPC   C1A40719  34.481  39.183   8.592
 3033POPC   D2A40720  34.644  39.379   8.235
 3033POPC   C3A40721  34.649  39.041   7.976
 3033POPC   C4A40722  34.821  39.138   7.609
 3033POPC   C1B40723  34.104  39.484   8.699
 3033POPC   C2B40724  34.150  39.404   8.234
 3033POPC   C3B40725  34.356  39.431   7.807
 3033POPC   C4B40726  34.517  39.472   7.374
 3034POPC   NC340727  11.256  33.370   9.555
 3034POPC   PO440728  11.715  32.857   9.623
 3034POPC   GL140729  11.471  32.838   9.196
 3034POPC   GL240730  11.195  33.085   9.138
 3034POPC   C1A40731  11.400  32.887   8.714
 3034POPC   D2A40732  11.299  32.707   8.308
 3034POPC   C3A40733  11.402  32.940   7.931
 3034POPC   C4A40734  11.690  33.269   7.726
 3034POPC   C1B40735  10.854  33.091   8.824
 3034POPC   C2B40736  10.776  33.286   8.447
 3034POPC   C3B40737  11.118  33.297   8.156
 3034POPC   C4B40738  11.185  33.344   7.705
 3035POPC   NC340739  35.191   7.895   9.578
 3035POPC   PO440740  35.412   8.519   9.669
 3035POPC   GL140741  35.500   8.162   9.282
 3035POPC   GL240742  35.188   8.057   9.090
 3035POPC   C1A40743  35.562   8.162   8.785
 3035POPC   D2A40744  35.353   8.003   8.430
 3035POPC   C3A40745  35.523   8.271   8.099
 3035POPC   C4A40746  35.616   8.344   7.684
 3035POPC   C1B40747  34.998   8.253   8.700
 3035POPC   C2B40748  35.025   8.340   8.244
 3035POPC   C3B40749  35.151   7.997   7.937
 3035POPC   C4B40750  35.049   8.256   7.633
 3036POPC   NC340751   9.128  22.561   9.830
 3036POPC   PO440752   8.626  22.160   9.692
 3036POPC   GL140753   8.904  22.045   9.360
 3036POPC   GL240754   8.637  22.128   9.144
 3036POPC   C1A40755   9.086  22.026   8.928
 3036POPC   D2A40756   9.023  21.938   8.487
 3036POPC   C3A40757   9.116  22.284   8.205
 3036POPC   C4A40758   9.207  22.328   7.766
 3036POPC   C1B40759   8.522  22.049   8.716
 3036POPC   C2B40760   8.577  22.087   8.263
 3036POPC   C3B40761   8.752  22.115   7.842
 3036POPC   C4B40762   8.797  22.285   7.396
 3037POPC   NC340763  20.123  18.896   9.552
 3037POPC   PO440764  19.427  19.098   9.624
 3037POPC   GL140765  19.729  19.084   9.252
 3037POPC   GL240766  19.738  18.782   9.222
 3037POPC   C1A40767  19.967  19.149   8.848
 3037POPC   D2A40768  20.192  19.294   8.452
 3037POPC   C3A40769  20.028  19.358   7.999
 3037POPC   C4A40770  20.114  19.355   7.526
 3037POPC   C1B40771  19.556  18.670   8.856
 3037POPC   C2B40772  19.747  18.834   8.496
 3037POPC   C3B40773  19.745  18.731   8.089
 3037POPC   C4B40774  19.942  18.885   7.716
 3038POPC   NC340775  22.681  21.775   9.629
 3038POPC   PO440776  23.110  21.295   9.773
 3038POPC   GL140777  22.998  21.459   9.335
 3038POPC   GL240778  22.932  21.175   9.092
 3038POPC   C1A40779  22.931  21.634   8.892
 3038POPC   D2A40780  23.004  21.495   8.468
 3038POPC   C3A40781  22.829  21.751   8.131
 3038POPC   C4A40782  23.011  21.666   7.734
 3038POPC   C1B40783  22.621  21.215   8.760
 3038POPC   C2B40784  22.547  21.329   8.309
 3038POPC   C3B40785  22.874  21.231   7.973
 3038POPC   C4B40786  22.808  21.239   7.496
 3039POPC   NC340787   9.288  40.507   9.433
 3039POPC   PO440788   8.660  40.860   9.504
 3039POPC   GL140789   8.735  40.732   9.118
 3039POPC   GL240790   8.812  40.358   9.121
 3039POPC   C1A40791   8.658  40.963   8.736
 3039POPC   D2A40792   8.492  41.055   8.350
 3039POPC   C3A40793   8.733  40.879   8.055
 3039POPC   C4A40794   8.972  40.645   7.748
 3039POPC   C1B40795   8.909  40.521   8.687
 3039POPC   C2B40796   9.053  40.550   8.279
 3039POPC   C3B40797   9.327  40.350   7.995
 3039POPC   C4B40798   9.331  40.221   7.576
 3040POPC   NC340799  31.456   7.949   9.680
 3040POPC   PO440800  31.669   8.558   9.501
 3040POPC   GL140801  31.615   8.261   9.177
 3040POPC   GL240802  31.324   8.000   9.187
 3040POPC   C1A40803  31.583   8.391   8.750
 3040POPC   D2A40804  31.338   8.495   8.414
 3040POPC   C3A40805  31.503   8.352   8.038
 3040POPC   C4A40806  31.238   8.342   7.697
 3040POPC   C1B40807  31.573   7.861   8.834
 3040POPC   C2B40808  31.479   7.968   8.409
 3040POPC   C3B40809  31.275   7.890   7.999
 3040POPC   C4B40810  31.584   7.952   7.714
 3041POPC   NC340811  22.895   1.166   9.561
 3041POPC   PO440812  23.320   1.718   9.402
 3041POPC   GL140813  23.095   1.390   9.163
 3041POPC   GL240814  22.692   1.391   9.158
 3041POPC   C1A40815  23.034   1.288   8.758
 3041POPC   D2A40816  22.995   1.506   8.377
 3041POPC   C3A40817  23.181   1.225   8.116
 3041POPC   C4A40818  23.280   1.157   7.717
 3041POPC   C1B40819  22.626   1.584   8.769
 3041POPC   C2B40820  22.495   1.368   8.393
 3041POPC   C3B40821  22.647   1.219   7.995
 3041POPC   C4B40822  22.900   1.496   7.758
 3042POPC   NC340823  31.927  37.545   9.454
 3042POPC   PO440824  32.406  37.953   9.532
 3042POPC   GL140825  32.331  37.726   9.164
 3042POPC   GL240826  32.321  37.333   9.128
 3042POPC   C1A40827  32.109  37.701   8.777
 3042POPC   D2A40828  31.868  37.792   8.404
 3042POPC   C3A40829  32.114  37.679   8.068
 3042POPC   C4A40830  32.128  37.785   7.662
 3042POPC   C1B40831  32.615  37.510   8.801
 3042POPC   C2B40832  32.551  37.579   8.354
 3042POPC   C3B40833  32.518  37.328   7.980
 3042POPC   C4B40834  32.414  37.332   7.557
 3043POPC   NC340835  22.708  16.139   9.547
 3043POPC   PO440836  23.387  15.993   9.443
 3043POPC   GL140837  23.080  16.145   9.176
 3043POPC   GL240838  22.853  15.822   9.167
 3043POPC   C1A40839  22.742  16.277   8.908
 3043POPC   D2A40840  22.692  16.219   8.478
 3043POPC   C3A40841  23.014  16.321   8.192
 3043POPC   C4A40842  22.818  16.301   7.824
 3043POPC   C1B40843  22.674  15.774   8.754
 3043POPC   C2B40844  22.835  15.739   8.331
 3043POPC   C3B40845  23.043  15.742   7.944
 3043POPC   C4B40846  23.187  15.985   7.600
 3044POPC   NC340847  33.338  37.067   9.334
 3044POPC   PO440848  32.681  37.126   9.443
 3044POPC   GL140849  32.867  36.951   9.098
 3044POPC   GL240850  32.890  36.602   9.142
 3044POPC   C1A40851  33.045  36.993   8.697
 3044POPC   D2A40852  32.894  37.198   8.334
 3044POPC   C3A40853  33.066  37.023   7.970
 3044POPC   C4A40854  32.808  37.027   7.648
 3044POPC   C1B40855  32.762  36.551   8.702
 3044POPC   C2B40856  32.882  36.670   8.278
 3044POPC   C3B40857  32.904  36.557   7.820
 3044POPC   C4B40858  32.991  36.646   7.350
 3045POPC   NC340859   4.525  35.838   9.347
 3045POPC   PO440860   4.246  36.403   9.485
 3045POPC   GL140861   4.167  36.214   9.114
 3045POPC   GL240862   4.488  36.212   9.024
 3045POPC   C1A40863   4.108  36.104   8.697
 3045POPC   D2A40864   4.244  35.898   8.340
 3045POPC   C3A40865   4.210  36.154   8.014
 3045POPC   C4A40866   4.049  36.034   7.641
 3045POPC   C1B40867   4.613  35.961   8.693
 3045POPC   C2B40868   4.773  35.932   8.292
 3045POPC   C3B40869   4.566  35.765   7.936
 3045POPC   C4B40870   4.545  36.090   7.628
 3046POPC   NC340871  41.214  16.712   9.448
 3046POPC   PO440872  41.989  16.949   9.449
 3046POPC   GL140873  41.675  16.744   9.211
 3046POPC   GL240874  41.520  17.028   9.078
 3046POPC   C1A40875  41.462  16.571   8.845
 3046POPC   D2A40876  41.607  16.789   8.512
 3046POPC   C3A40877  41.715  16.781   8.094
 3046POPC   C4A40878  41.888  16.731   7.694
 3046POPC   C1B40879  41.435  17.260   8.700
 3046POPC   C2B40880  41.296  17.127   8.291
 3046POPC   C3B40881  41.198  16.719   8.089
 3046POPC   C4B40882  41.411  16.539   7.711
 3047POPC   NC340883  17.594  31.753   9.454
 3047POPC   PO440884  18.161  31.404   9.420
 3047POPC   GL140885  17.762  31.335   9.095
 3047POPC   GL240886  17.558  31.609   8.968
 3047POPC   C1A40887  17.516  31.242   8.652
 3047POPC   D2A40888  17.428  31.572   8.316
 3047POPC   C3A40889  17.452  31.456   7.884
 3047POPC   C4A40890  17.611  31.593   7.498
 3047POPC   C1B40891  17.882  31.612   8.641
 3047POPC   C2B40892  17.916  31.385   8.239
 3047POPC   C3B40893  18.014  31.489   7.797
 3047POPC   C4B40894  18.111  31.635   7.347
 3048POPC   NC340895  25.726  31.147   5.304
 3048POPC   PO440896  25.874  30.465   5.455
 3048POPC   GL140897  25.490  30.587   5.715
 3048POPC   GL240898  25.513  30.958   5.750
 3048POPC   C1A40899  25.250  30.647   6.121
 3048POPC   D2A40900  25.429  30.733   6.519
 3048POPC   C3A40901  25.179  30.768   6.894
 3048POPC   C4A40902  25.269  30.502   7.188
 3048POPC   C1B40903  25.705  31.114   6.131
 3048POPC   C2B40904  25.664  31.186   6.559
 3048POPC   C3B40905  25.659  30.959   6.932
 3048POPC   C4B40906  25.430  31.094   7.274
 3049POPC   NC340907  23.131   5.899   5.432
 3049POPC   PO440908  22.595   6.392   5.475
 3049POPC   GL140909  22.875   6.112   5.790
 3049POPC   GL240910  23.249   6.154   5.871
 3049POPC   C1A40911  22.922   5.813   6.135
 3049POPC   D2A40912  22.699   5.691   6.504
 3049POPC   C3A40913  22.912   5.549   6.874
 3049POPC   C4A40914  22.690   5.521   7.278
 3049POPC   C1B40915  23.415   5.797   6.083
 3049POPC   C2B40916  23.474   5.699   6.538
 3049POPC   C3B40917  23.362   5.835   6.981
 3049POPC   C4B40918  23.002   5.930   7.207
 3050POPC   NC340919  17.372  17.759   5.425
 3050POPC   PO440920  17.965  17.547   5.538
 3050POPC   GL140921  17.702  17.322   5.821
 3050POPC   GL240922  17.355  17.354   5.763
 3050POPC   C1A40923  17.620  17.238   6.234
 3050POPC   D2A40924  17.654  17.044   6.601
 3050POPC   C3A40925  17.678  17.250   6.974
 3050POPC   C4A40926  17.341  17.369   7.259
 3050POPC   C1B40927  17.171  17.445   6.190
 3050POPC   C2B40928  17.254  17.427   6.660
 3050POPC   C3B40929  17.073  17.715   6.999
 3050POPC   C4B40930  17.208  17.844   7.413
 3051POPC   NC340931  38.441  10.251   5.429
 3051POPC   PO440932  38.330  11.001   5.379
 3051POPC   GL140933  38.328  10.701   5.776
 3051POPC   GL240934  38.233  10.387   5.872
 3051POPC   C1A40935  38.612  10.596   6.153
 3051POPC   D2A40936  38.832  10.608   6.531
 3051POPC   C3A40937  38.472  10.544   6.751
 3051POPC   C4A40938  38.291  10.592   7.112
 3051POPC   C1B40939  38.172  10.375   6.333
 3051POPC   C2B40940  38.241  10.080   6.688
 3051POPC   C3B40941  38.132  10.089   7.127
 3051POPC   C4B40942  38.032  10.372   7.501
 3052POPC   NC340943   3.051  36.342   5.411
 3052POPC   PO440944   2.556  35.984   5.480
 3052POPC   GL140945   2.648  36.303   5.762
 3052POPC   GL240946   2.344  36.528   5.750
 3052POPC   C1A40947   2.885  36.225   6.151
 3052POPC   D2A40948   2.897  35.966   6.541
 3052POPC   C3A40949   2.913  36.201   6.938
 3052POPC   C4A40950   2.921  36.181   7.393
 3052POPC   C1B40951   2.364  36.377   6.177
 3052POPC   C2B40952   2.587  36.378   6.566
 3052POPC   C3B40953   2.422  36.362   7.003
 3052POPC   C4B40954   2.407  36.075   7.372
 3053POPC   NC340955  39.327  29.460   5.671
 3053POPC   PO440956  39.073  28.969   5.320
 3053POPC   GL140957  39.080  28.959   5.757
 3053POPC   GL240958  39.369  28.985   5.972
 3053POPC   C1A40959  38.889  29.023   6.159
 3053POPC   D2A40960  39.043  28.887   6.542
 3053POPC   C3A40961  39.035  29.138   6.885
 3053POPC   C4A40962  38.899  28.992   7.281
 3053POPC   C1B40963  39.270  29.344   6.297
 3053POPC   C2B40964  39.414  29.649   6.608
 3053POPC   C3B40965  39.476  29.510   7.004
 3053POPC   C4B40966  39.411  29.120   7.217
 3054POPC   NC340967   6.163  24.687   5.405
 3054POPC   PO440968   6.764  24.253   5.435
 3054POPC   GL140969   6.515  24.347   5.834
 3054POPC   GL240970   6.703  24.486   6.156
 3054POPC   C1A40971   6.216  24.384   6.211
 3054POPC   D2A40972   6.337  24.613   6.606
 3054POPC   C3A40973   6.705  24.512   6.847
 3054POPC   C4A40974   6.644  24.285   7.249
 3054POPC   C1B40975   6.803  24.939   6.270
 3054POPC   C2B40976   6.915  25.153   6.650
 3054POPC   C3B40977   7.095  24.884   6.952
 3054POPC   C4B40978   6.897  24.701   7.298
 3055POPC   NC340979  40.208  37.984   5.363
 3055POPC   PO440980  39.941  37.353   5.462
 3055POPC   GL140981  40.058  37.613   5.834
 3055POPC   GL240982  39.846  37.876   5.718
 3055POPC   C1A40983  40.115  37.700   6.333
 3055POPC   D2A40984  39.945  37.762   6.793
 3055POPC   C3A40985  40.182  37.821   7.194
 3055POPC   C4A40986  40.247  38.100   7.569
 3055POPC   C1B40987  39.656  37.794   6.133
 3055POPC   C2B40988  39.647  38.039   6.492
 3055POPC   C3B40989  39.616  38.148   6.931
 3055POPC   C4B40990  39.676  37.930   7.303
 3056POPC   NC340991  23.193  28.125   5.447
 3056POPC   PO440992  23.927  28.059   5.465
 3056POPC   GL140993  23.628  28.134   5.797
 3056POPC   GL240994  23.525  28.491   5.789
 3056POPC   C1A40995  23.748  28.191   6.230
 3056POPC   D2A40996  23.799  28.427   6.610
 3056POPC   C3A40997  23.688  28.168   6.958
 3056POPC   C4A40998  23.816  28.161   7.339
 3056POPC   C1B40999  23.595  28.733   6.178
 3056POPC   C2B41000  23.409  28.745   6.599
 3056POPC   C3B41001  23.595  28.725   7.033
 3056POPC   C4B41002  23.512  28.857   7.457
 3057POPC   NC341003  23.161   9.132   5.479
 3057POPC   PO441004  22.510   8.921   5.416
 3057POPC   GL141005  22.773   8.691   5.717
 3057POPC   GL241006  23.153   8.738   5.826
 3057POPC   C1A41007  22.788   8.716   6.183
 3057POPC   D2A41008  22.973   8.884   6.573
 3057POPC   C3A41009  22.750   8.865   7.006
 3057POPC   C4A41010  22.595   8.689   7.435
 3057POPC   C1B41011  23.336   8.638   6.261
 3057POPC   C2B41012  23.375   8.606   6.731
 3057POPC   C3B41013  23.160   8.564   7.104
 3057POPC   C4B41014  23.356   8.635   7.477
 3058POPC   NC341015  34.301  38.947   5.579
 3058POPC   PO441016  34.570  39.527   5.529
 3058POPC   GL141017  34.666  39.206   5.835
 3058POPC   GL241018  34.963  39.074   5.752
 3058POPC   C1A41019  34.655  39.041   6.282
 3058POPC   D2A41020  34.551  39.284   6.682
 3058POPC   C3A41021  34.607  39.077   7.073
 3058POPC   C4A41022  34.388  38.964   7.454
 3058POPC   C1B41023  35.032  39.385   6.149
 3058POPC   C2B41024  35.043  39.251   6.601
 3058POPC   C3B41025  34.991  39.449   7.052
 3058POPC   C4B41026  34.999  39.598   7.509
 3059POPC   NC341027  17.930   0.273   5.307
 3059POPC   PO441028  17.290   0.257   5.375
 3059POPC   GL141029  17.561   0.407   5.708
 3059POPC   GL241030  17.672   0.758   5.646
 3059POPC   C1A41031  17.398   0.500   6.139
 3059POPC   D2A41032  17.229   0.633   6.559
 3059POPC   C3A41033  17.350   0.394   6.932
 3059POPC   C4A41034  17.482   0.163   7.302
 3059POPC   C1B41035  17.847   0.747   6.067
 3059POPC   C2B41036  17.756   0.623   6.511
 3059POPC   C3B41037  17.687   0.788   6.918
 3059POPC   C4B41038  17.566   0.670   7.330
 3060POPC   NC341039   9.609   5.125   5.463
 3060POPC   PO441040  10.095   5.466   5.611
 3060POPC   GL141041   9.789   5.292   5.895
 3060POPC   GL241042   9.810   4.969   5.913
 3060POPC   C1A41043   9.516   5.321   6.242
 3060POPC   D2A41044   9.680   5.445   6.629
 3060POPC   C3A41045   9.479   5.372   7.017
 3060POPC   C4A41046   9.560   5.197   7.476
 3060POPC   C1B41047   9.948   5.047   6.312
 3060POPC   C2B41048   9.819   4.921   6.694
 3060POPC   C3B41049   9.871   5.045   7.090
 3060POPC   C4B41050  10.019   4.857   7.421
 3061POPC   NC341051  19.292  13.679   5.375
 3061POPC   PO441052  20.012  13.531   5.396
 3061POPC   GL141053  19.629  13.425   5.676
 3061POPC   GL241054  19.604  13.750   5.814
 3061POPC   C1A41055  19.585  13.325   6.137
 3061POPC   D2A41056  19.732  13.558   6.519
 3061POPC   C3A41057  19.870  13.427   6.944
 3061POPC   C4A41058  20.060  13.779   7.206
 3061POPC   C1B41059  19.456  13.922   6.214
 3061POPC   C2B41060  19.272  13.800   6.611
 3061POPC   C3B41061  19.445  13.742   7.026
 3061POPC   C4B41062  19.536  13.450   7.381
 3062POPC   NC341063  39.577  27.096   5.590
 3062POPC   PO441064  40.181  26.818   5.326
 3062POPC   GL141065  40.035  26.818   5.804
 3062POPC   GL241066  39.694  26.715   5.894
 3062POPC   C1A41067  40.054  26.811   6.288
 3062POPC   D2A41068  39.988  27.040   6.688
 3062POPC   C3A41069  40.076  26.805   7.059
 3062POPC   C4A41070  40.357  26.482   7.238
 3062POPC   C1B41071  39.526  26.922   6.248
 3062POPC   C2B41072  39.563  26.780   6.653
 3062POPC   C3B41073  39.556  27.026   6.999
 3062POPC   C4B41074  39.755  27.073   7.377
 3063POPC   NC341075  34.530  11.003   5.356
 3063POPC   PO441076  34.173  11.602   5.532
 3063POPC   GL141077  34.502  11.430   5.856
 3063POPC   GL241078  34.702  11.105   5.838
 3063POPC   C1A41079  34.702  11.382   6.278
 3063POPC   D2A41080  34.906  11.470   6.670
 3063POPC   C3A41081  34.613  11.340   6.920
 3063POPC   C4A41082  34.327  11.427   7.256
 3063POPC   C1B41083  35.062  11.033   6.124
 3063POPC   C2B41084  35.038  10.978   6.558
 3063POPC   C3B41085  35.060  11.076   6.985
 3063POPC   C4B41086  34.741  11.106   7.332
 3064POPC   NC341087  33.941   8.004   5.524
 3064POPC   PO441088  33.449   8.420   5.608
 3064POPC   GL141089  33.745   8.257   5.910
 3064POPC   GL241090  34.086   8.397   5.823
 3064POPC   C1A41091  33.613   8.052   6.267
 3064POPC   D2A41092  33.294   8.108   6.550
 3064POPC   C3A41093  33.477   7.921   6.887
 3064POPC   C4A41094  33.730   8.011   7.195
 3064POPC   C1B41095  34.055   8.576   6.242
 3064POPC   C2B41096  34.241   8.539   6.651
 3064POPC   C3B41097  34.047   8.373   7.012
 3064POPC   C4B41098  34.139   8.234   7.414
 3065POPC   NC341099   3.528  39.588   5.135
 3065POPC   PO441100   3.423  39.970   5.693
 3065POPC   GL141101   3.577  39.872   6.026
 3065POPC   GL241102   3.924  39.825   5.946
 3065POPC   C1A41103   3.400  39.817   6.388
 3065POPC   D2A41104   3.622  39.792   6.735
 3065POPC   C3A41105   3.374  39.717   7.049
 3065POPC   C4A41106   3.306  40.082   7.194
 3065POPC   C1B41107   3.998  40.098   6.319
 3065POPC   C2B41108   3.848  40.338   6.667
 3065POPC   C3B41109   3.767  40.186   7.076
 3065POPC   C4B41110   3.717  40.136   7.551
 3066POPC   NC341111  35.596  31.673   5.389
 3066POPC   PO441112  34.953  31.666   5.577
 3066POPC   GL141113  35.329  31.736   5.867
 3066POPC   GL241114  35.686  31.637   5.870
 3066POPC   C1A41115  35.351  31.810   6.299
 3066POPC   D2A41116  35.053  31.921   6.613
 3066POPC   C3A41117  35.266  31.698   6.908
 3066POPC   C4A41118  35.146  31.484   7.227
 3066POPC   C1B41119  35.596  31.349   6.171
 3066POPC   C2B41120  35.663  31.467   6.558
 3066POPC   C3B41121  35.857  31.223   6.820
 3066POPC   C4B41122  35.548  31.211   7.071
 3067POPC   NC341123  21.869  17.479   5.502
 3067POPC   PO441124  22.553  17.275   5.463
 3067POPC   GL141125  22.280  17.455   5.796
 3067POPC   GL241126  21.921  17.402   5.988
 3067POPC   C1A41127  22.360  17.430   6.215
 3067POPC   D2A41128  22.188  17.294   6.592
 3067POPC   C3A41129  22.476  17.422   6.906
 3067POPC   C4A41130  22.404  17.409   7.321
 3067POPC   C1B41131  21.658  17.091   6.193
 3067POPC   C2B41132  21.598  17.166   6.606
 3067POPC   C3B41133  21.803  17.250   6.955
 3067POPC   C4B41134  21.922  17.294   7.341
 3068POPC   NC341135  26.065  12.477   5.153
 3068POPC   PO441136  25.862  11.940   5.494
 3068POPC   GL141137  26.202  11.876   5.824
 3068POPC   GL241138  25.924  11.957   6.042
 3068POPC   C1A41139  26.414  12.070   6.151
 3068POPC   D2A41140  26.152  12.161   6.469
 3068POPC   C3A41141  26.209  12.130   6.903
 3068POPC   C4A41142  26.143  11.794   7.210
 3068POPC   C1B41143  25.756  11.815   6.444
 3068POPC   C2B41144  25.685  12.067   6.810
 3068POPC   C3B41145  25.678  12.052   7.250
 3068POPC   C4B41146  25.797  11.864   7.655
 3069POPC   NC341147  38.048  31.191   5.450
 3069POPC   PO441148  38.574  31.614   5.284
 3069POPC   GL141149  38.563  31.378   5.671
 3069POPC   GL241150  38.308  31.581   5.789
 3069POPC   C1A41151  38.673  31.433   6.127
 3069POPC   D2A41152  38.577  31.670   6.505
 3069POPC   C3A41153  38.662  31.485   6.900
 3069POPC   C4A41154  38.977  31.222   7.079
 3069POPC   C1B41155  38.159  31.393   6.191
 3069POPC   C2B41156  38.213  31.340   6.644
 3069POPC   C3B41157  38.173  31.388   7.084
 3069POPC   C4B41158  38.454  31.297   7.357
 3070POPC   NC341159   3.199  23.384   5.477
 3070POPC   PO441160   3.467  22.713   5.314
 3070POPC   GL141161   3.572  22.949   5.717
 3070POPC   GL241162   3.452  23.257   5.911
 3070POPC   C1A41163   3.716  22.816   6.127
 3070POPC   D2A41164   3.505  22.679   6.528
 3070POPC   C3A41165   3.540  22.750   6.976
 3070POPC   C4A41166   3.265  22.809   7.322
 3070POPC   C1B41167   3.463  23.190   6.367
 3070POPC   C2B41168   3.629  23.340   6.741
 3070POPC   C3B41169   3.329  23.237   7.059
 3070POPC   C4B41170   2.880  23.224   7.163
 3071POPC   NC341171   6.894  25.491   5.526
 3071POPC   PO441172   6.532  24.989   5.288
 3071POPC   GL141173   6.420  25.136   5.689
 3071POPC   GL241174   6.621  24.854   5.795
 3071POPC   C1A41175   6.508  25.382   6.093
 3071POPC   D2A41176   6.569  25.683   6.459
 3071POPC   C3A41177   6.535  25.492   6.871
 3071POPC   C4A41178   6.842  25.319   7.172
 3071POPC   C1B41179   6.303  24.904   6.141
 3071POPC   C2B41180   6.391  25.128   6.537
 3071POPC   C3B41181   6.536  24.986   6.947
 3071POPC   C4B41182   6.355  24.674   7.148
 3072POPC   NC341183  12.001   2.410   5.457
 3072POPC   PO441184  11.738   1.870   5.621
 3072POPC   GL141185  11.972   2.170   5.965
 3072POPC   GL241186  12.304   2.342   5.865
 3072POPC   C1A41187  11.937   2.205   6.467
 3072POPC   D2A41188  12.035   1.940   6.837
 3072POPC   C3A41189  11.732   1.830   7.166
 3072POPC   C4A41190  11.416   1.509   7.357
 3072POPC   C1B41191  12.360   2.436   6.287
 3072POPC   C2B41192  12.427   2.251   6.691
 3072POPC   C3B41193  12.468   2.085   7.107
 3072POPC   C4B41194  12.587   2.213   7.532
 3073POPC   NC341195  37.471  43.616   5.521
 3073POPC   PO441196  38.073  44.051   5.487
 3073POPC   GL141197  37.846  43.797   5.791
 3073POPC   GL241198  37.505  43.905   5.929
 3073POPC   C1A41199  37.827  43.641   6.222
 3073POPC   D2A41200  37.689  43.942   6.559
 3073POPC   C3A41201  37.749  43.848   7.005
 3073POPC   C4A41202  37.392  43.885   7.314
 3073POPC   C1B41203  37.248  43.791   6.290
 3073POPC   C2B41204  37.200  43.828   6.745
 3073POPC   C3B41205  37.365  44.201   6.909
 3073POPC   C4B41206  37.392  44.446   7.275
 3074POPC   NC341207  12.541  44.228   5.307
 3074POPC   PO441208  13.192  44.108   5.306
 3074POPC   GL141209  12.992  43.955   5.650
 3074POPC   GL241210  13.154  43.646   5.701
 3074POPC   C1A41211  12.763  43.960   6.066
 3074POPC   D2A41212  12.490  44.095   6.455
 3074POPC   C3A41213  12.514  44.050   6.927
 3074POPC   C4A41214  12.492  44.049   7.433
 3074POPC   C1B41215  13.265  43.852   6.077
 3074POPC   C2B41216  13.062  43.829   6.477
 3074POPC   C3B41217  12.839  43.649   6.818
 3074POPC   C4B41218  12.890  43.830   7.205
 3075POPC   NC341219   6.969  24.734   5.394
 3075POPC   PO441220   7.601  24.315   5.515
 3075POPC   GL141221   7.350  24.629   5.729
 3075POPC   GL241222   7.057  24.447   5.801
 3075POPC   C1A41223   7.282  24.732   6.160
 3075POPC   D2A41224   7.536  24.475   6.413
 3075POPC   C3A41225   7.535  24.585   6.828
 3075POPC   C4A41226   7.644  24.951   7.057
 3075POPC   C1B41227   7.159  24.218   6.168
 3075POPC   C2B41228   7.085  24.302   6.597
 3075POPC   C3B41229   7.140  24.312   7.040
 3075POPC   C4B41230   7.414  24.563   7.326
 3076POPC   NC341231  29.212   6.103   5.408
 3076POPC   PO441232  29.136   5.414   5.426
 3076POPC   GL141233  29.294   5.637   5.818
 3076POPC   GL241234  29.337   6.001   5.893
 3076POPC   C1A41235  29.058   5.733   6.229
 3076POPC   D2A41236  29.193   5.603   6.615
 3076POPC   C3A41237  29.014   5.808   6.920
 3076POPC   C4A41238  28.894   5.655   7.307
 3076POPC   C1B41239  29.422   6.050   6.349
 3076POPC   C2B41240  29.700   6.168   6.667
 3076POPC   C3B41241  29.537   6.212   7.035
 3076POPC   C4B41242  29.248   6.043   7.300
 3077POPC   NC341243  15.675   4.660   5.591
 3077POPC   PO441244  16.199   4.328   5.164
 3077POPC   GL141245  15.957   4.213   5.572
 3077POPC   GL241246  16.232   4.215   5.828
 3077POPC   C1A41247  15.765   4.159   6.008
 3077POPC   D2A41248  15.809   4.250   6.447
 3077POPC   C3A41249  15.736   3.994   6.810
 3077POPC   C4A41250  15.856   4.135   7.219
 3077POPC   C1B41251  16.324   4.433   6.220
 3077POPC   C2B41252  16.228   4.443   6.645
 3077POPC   C3B41253  16.306   4.234   6.998
 3077POPC   C4B41254  16.267   4.454   7.361
 3078POPC   NC341255  20.990  24.686   5.395
 3078POPC   PO441256  20.336  24.982   5.381
 3078POPC   GL141257  20.445  24.602   5.746
 3078POPC   GL241258  20.834  24.616   5.878
 3078POPC   C1A41259  20.537  24.380   6.206
 3078POPC   D2A41260  20.604  24.189   6.645
 3078POPC   C3A41261  20.579  24.413   7.067
 3078POPC   C4A41262  20.237  24.522   7.352
 3078POPC   C1B41263  21.017  24.550   6.303
 3078POPC   C2B41264  20.988  24.541   6.773
 3078POPC   C3B41265  21.061  24.667   7.220
 3078POPC   C4B41266  20.831  24.506   7.637
 3079POPC   NC341267   8.465  39.438   5.332
 3079POPC   PO441268   7.972  39.677   5.677
 3079POPC   GL141269   8.167  39.246   5.816
 3079POPC   GL241270   7.923  38.965   5.766
 3079POPC   C1A41271   8.279  39.044   6.249
 3079POPC   D2A41272   8.053  39.158   6.664
 3079POPC   C3A41273   8.274  39.030   7.029
 3079POPC   C4A41274   8.439  39.425   7.183
 3079POPC   C1B41275   7.794  39.139   6.183
 3079POPC   C2B41276   7.562  39.201   6.545
 3079POPC   C3B41277   7.564  39.338   6.937
 3079POPC   C4B41278   7.898  39.325   7.231
 3080POPC   NC341279   1.756  14.330   5.436
 3080POPC   PO441280   1.151  14.213   5.324
 3080POPC   GL141281   1.260  14.322   5.722
 3080POPC   GL241282   1.484  14.091   5.870
 3080POPC   C1A41283   1.060  14.310   6.130
 3080POPC   D2A41284   1.176  14.110   6.517
 3080POPC   C3A41285   1.035  14.361   6.877
 3080POPC   C4A41286   1.160  14.513   7.267
 3080POPC   C1B41287   1.582  14.320   6.237
 3080POPC   C2B41288   1.553  14.437   6.680
 3080POPC   C3B41289   1.463  14.151   7.036
 3080POPC   C4B41290   1.450  14.143   7.504
 3081POPC   NC341291  24.349  27.942   5.615
 3081POPC   PO441292  24.712  28.301   5.253
 3081POPC   GL141293  24.533  28.427   5.697
 3081POPC   GL241294  24.154  28.385   5.813
 3081POPC   C1A41295  24.544  28.328   6.160
 3081POPC   D2A41296  24.681  28.038   6.497
 3081POPC   C3A41297  24.588  28.220   6.897
 3081POPC   C4A41298  24.715  28.315   7.328
 3081POPC   C1B41299  24.098  28.589   6.200
 3081POPC   C2B41300  24.288  28.574   6.617
 3081POPC   C3B41301  24.146  28.441   7.014
 3081POPC   C4B41302  23.996  28.628   7.344
 3082POPC   NC341303  18.590  42.205   5.533
 3082POPC   PO441304  19.243  42.325   5.348
 3082POPC   GL141305  19.051  42.409   5.781
 3082POPC   GL241306  18.757  42.613   5.798
 3082POPC   C1A41307  19.109  42.632   6.195
 3082POPC   D2A41308  19.470  42.603   6.467
 3082POPC   C3A41309  19.578  42.628   6.894
 3082POPC   C4A41310  19.457  42.572   7.303
 3082POPC   C1B41311  18.685  42.351   6.194
 3082POPC   C2B41312  18.870  42.387   6.597
 3082POPC   C3B41313  19.058  42.443   7.008
 3082POPC   C4B41314  19.133  42.146   7.374
 3083POPC   NC341315  42.085   1.463   5.369
 3083POPC   PO441316  42.555   0.993   5.280
 3083POPC   GL141317  42.418   1.192   5.702
 3083POPC   GL241318  42.220   1.476   5.845
 3083POPC   C1A41319  42.385   1.140   6.179
 3083POPC   D2A41320  42.575   0.853   6.517
 3083POPC   C3A41321  42.293   1.020   6.835
 3083POPC   C4A41322  42.202   1.155   7.273
 3083POPC   C1B41323  42.046   1.585   6.229
 3083POPC   C2B41324  42.130   1.469   6.638
 3083POPC   C3B41325  42.006   1.643   7.018
 3083POPC   C4B41326  42.387   1.641   7.244
 3084POPC   NC341327   4.574   9.023   5.581
 3084POPC   PO441328   3.885   9.254   5.380
 3084POPC   GL141329   4.103   9.162   5.808
 3084POPC   GL241330   4.133   8.792   5.937
 3084POPC   C1A41331   4.295   9.138   6.248
 3084POPC   D2A41332   4.159   8.935   6.638
 3084POPC   C3A41333   4.378   9.055   7.013
 3084POPC   C4A41334   4.219   9.104   7.439
 3084POPC   C1B41335   4.453   8.650   6.225
 3084POPC   C2B41336   4.421   8.491   6.638
 3084POPC   C3B41337   4.453   8.532   7.069
 3084POPC   C4B41338   4.634   8.793   7.365
 3085POPC   NC341339  32.077   0.672   5.470
 3085POPC   PO441340  32.577   0.160   5.517
 3085POPC   GL141341  32.545   0.536   5.775
 3085POPC   GL241342  32.216   0.452   5.909
 3085POPC   C1A41343  32.515   0.748   6.198
 3085POPC   D2A41344  32.523   0.534   6.592
 3085POPC   C3A41345  32.249   0.561   6.949
 3085POPC   C4A41346  32.489   0.451   7.313
 3085POPC   C1B41347  32.293   0.064   6.162
 3085POPC   C2B41348  32.162  44.921   6.570
 3085POPC   C3B41349  32.287   0.053   6.962
 3085POPC   C4B41350  32.162   0.039   7.358
 3086POPC   NC341351  10.913  27.254   5.764
 3086POPC   PO441352  11.473  27.603   5.447
 3086POPC   GL141353  11.341  27.553   5.826
 3086POPC   GL241354  11.025  27.747   5.786
 3086POPC   C1A41355  11.377  27.433   6.259
 3086POPC   D2A41356  10.992  27.385   6.491
 3086POPC   C3A41357  11.008  27.617   6.853
 3086POPC   C4A41358  11.232  27.418   7.179
 3086POPC   C1B41359  11.175  27.886   6.166
 3086POPC   C2B41360  11.373  27.868   6.563
 3086POPC   C3B41361  11.394  27.910   7.004
 3086POPC   C4B41362  11.071  27.871   7.321
 3087POPC   NC341363   9.352  41.372   5.520
 3087POPC   PO441364   8.641  41.274   5.463
 3087POPC   GL141365   8.915  41.359   5.856
 3087POPC   GL241366   9.039  41.718   5.964
 3087POPC   C1A41367   8.979  41.374   6.311
 3087POPC   D2A41368   9.190  41.688   6.514
 3087POPC   C3A41369   9.122  41.557   6.894
 3087POPC   C4A41370   8.982  41.322   7.201
 3087POPC   C1B41371   8.695  41.804   6.293
 3087POPC   C2B41372   8.651  41.587   6.693
 3087POPC   C3B41373   8.643  41.684   7.169
 3087POPC   C4B41374   8.574  41.637   7.623
 3088POPC   NC341375  13.045   3.683   5.334
 3088POPC   PO441376  12.753   3.166   5.427
 3088POPC   GL141377  12.639   3.492   5.708
 3088POPC   GL241378  12.467   3.208   5.853
 3088POPC   C1A41379  12.748   3.767   6.098
 3088POPC   D2A41380  13.001   3.652   6.492
 3088POPC   C3A41381  12.843   3.834   6.883
 3088POPC   C4A41382  12.834   3.809   7.282
 3088POPC   C1B41383  12.771   3.260   6.181
 3088POPC   C2B41384  12.720   3.232   6.607
 3088POPC   C3B41385  12.903   3.313   6.985
 3088POPC   C4B41386  12.727   3.323   7.409
 3089POPC   NC341387   0.222   7.684   5.333
 3089POPC   PO441388   0.411   8.406   5.306
 3089POPC   GL141389   0.483   8.267   5.730
 3089POPC   GL241390   0.727   7.997   5.697
 3089POPC   C1A41391   0.247   8.227   6.150
 3089POPC   D2A41392   0.331   8.083   6.577
 3089POPC   C3A41393   0.253   8.255   6.977
 3089POPC   C4A41394   0.289   8.154   7.423
 3089POPC   C1B41395   0.634   7.865   6.144
 3089POPC   C2B41396   0.651   7.703   6.574
 3089POPC   C3B41397   0.646   7.864   7.003
 3089POPC   C4B41398   0.543   7.718   7.449
 3090POPC   NC341399  33.969  13.126   5.603
 3090POPC   PO441400  33.614  12.658   5.433
 3090POPC   GL141401  33.841  12.676   5.850
 3090POPC   GL241402  34.211  12.639   5.869
 3090POPC   C1A41403  33.831  12.928   6.259
 3090POPC   D2A41404  33.903  13.142   6.684
 3090POPC   C3A41405  33.708  12.899   7.014
 3090POPC   C4A41406  33.713  12.954   7.458
 3090POPC   C1B41407  34.309  12.778   6.316
 3090POPC   C2B41408  34.084  12.671   6.716
 3090POPC   C3B41409  34.157  12.726   7.156
 3090POPC   C4B41410  34.236  13.129   7.275
 3091POPC   NC341411   5.638  31.001   5.498
 3091POPC   PO441412   5.606  31.767   5.509
 3091POPC   GL141413   5.878  31.467   5.783
 3091POPC   GL241414   6.236  31.383   5.736
 3091POPC   C1A41415   5.976  31.384   6.216
 3091POPC   D2A41416   5.870  31.556   6.579
 3091POPC   C3A41417   5.779  31.292   6.877
 3091POPC   C4A41418   5.922  31.222   7.244
 3091POPC   C1B41419   6.349  31.686   6.073
 3091POPC   C2B41420   6.409  31.855   6.494
 3091POPC   C3B41421   6.152  31.868   6.863
 3091POPC   C4B41422   6.203  31.635   7.225
 3092POPC   NC341423  25.509  18.521   5.329
 3092POPC   PO441424  25.004  18.565   5.716
 3092POPC   GL141425  25.444  18.511   5.832
 3092POPC   GL241426  25.410  18.181   5.737
 3092POPC   C1A41427  25.660  18.485   6.217
 3092POPC   D2A41428  25.304  18.574   6.503
 3092POPC   C3A41429  25.256  18.296   6.849
 3092POPC   C4A41430  25.558  18.139   7.126
 3092POPC   C1B41431  25.265  18.163   6.172
 3092POPC   C2B41432  24.902  18.181   6.429
 3092POPC   C3B41433  24.838  17.988   6.803
 3092POPC   C4B41434  24.961  18.053   7.221
 3093POPC   NC341435  12.048  24.811   5.059
 3093POPC   PO441436  12.466  24.534   5.508
 3093POPC   GL141437  12.222  24.459   5.842
 3093POPC   GL241438  11.894  24.563   5.717
 3093POPC   C1A41439  12.247  24.230   6.229
 3093POPC   D2A41440  12.274  24.421   6.608
 3093POPC   C3A41441  12.382  24.243   6.949
 3093POPC   C4A41442  12.182  24.483   7.248
 3093POPC   C1B41443  11.803  24.500   6.165
 3093POPC   C2B41444  11.768  24.383   6.608
 3093POPC   C3B41445  11.681  24.534   7.021
 3093POPC   C4B41446  11.684  24.276   7.365
 3094POPC   NC341447  22.385   8.520   5.203
 3094POPC   PO441448  21.920   9.061   5.476
 3094POPC   GL141449  22.049   8.936   5.892
 3094POPC   GL241450  21.845   8.628   6.018
 3094POPC   C1A41451  22.367   9.045   6.156
 3094POPC   D2A41452  22.474   8.925   6.564
 3094POPC   C3A41453  22.340   9.160   6.889
 3094POPC   C4A41454  22.221   8.950   7.219
 3094POPC   C1B41455  21.733   8.732   6.437
 3094POPC   C2B41456  21.838   9.031   6.739
 3094POPC   C3B41457  21.731   9.080   7.153
 3094POPC   C4B41458  21.825   8.893   7.516
 3095POPC   NC341459  20.067  25.367   5.475
 3095POPC   PO441460  19.568  24.909   5.400
 3095POPC   GL141461  19.751  25.108   5.767
 3095POPC   GL241462  20.081  24.994   5.842
 3095POPC   C1A41463  19.616  25.226   6.168
 3095POPC   D2A41464  19.407  25.417   6.520
 3095POPC   C3A41465  19.612  25.397   6.886
 3095POPC   C4A41466  19.705  25.103   7.199
 3095POPC   C1B41467  20.113  25.255   6.238
 3095POPC   C2B41468  19.943  25.077   6.623
 3095POPC   C3B41469  20.158  24.894   6.973
 3095POPC   C4B41470  20.163  25.025   7.381
 3096POPC   NC341471  36.841  35.885   5.334
 3096POPC   PO441472  37.312  36.320   5.419
 3096POPC   GL141473  37.130  36.108   5.722
 3096POPC   GL241474  36.908  36.344   5.868
 3096POPC   C1A41475  37.257  36.109   6.149
 3096POPC   D2A41476  37.079  36.343   6.472
 3096POPC   C3A41477  36.965  36.111   6.799
 3096POPC   C4A41478  37.030  36.227   7.198
 3096POPC   C1B41479  36.729  36.059   6.211
 3096POPC   C2B41480  36.489  35.974   6.607
 3096POPC   C3B41481  36.514  36.107   7.043
 3096POPC   C4B41482  36.572  36.090   7.456
 3097POPC   NC341483  35.935  33.395   5.314
 3097POPC   PO441484  36.063  32.725   5.305
 3097POPC   GL141485  36.081  32.801   5.757
 3097POPC   GL241486  36.441  32.711   5.801
 3097POPC   C1A41487  35.961  33.078   6.136
 3097POPC   D2A41488  36.185  33.229   6.529
 3097POPC   C3A41489  36.039  33.072   6.944
 3097POPC   C4A41490  36.076  33.255   7.339
 3097POPC   C1B41491  36.403  32.848   6.233
 3097POPC   C2B41492  36.261  32.719   6.622
 3097POPC   C3B41493  36.359  32.663   7.043
 3097POPC   C4B41494  36.255  32.782   7.447
 3098POPC   NC341495   1.461  16.185   5.473
 3098POPC   PO441496   0.871  15.809   5.299
 3098POPC   GL141497   1.038  15.819   5.737
 3098POPC   GL241498   1.034  16.149   5.841
 3098POPC   C1A41499   1.324  15.804   6.122
 3098POPC   D2A41500   1.557  16.004   6.474
 3098POPC   C3A41501   1.461  15.853   6.890
 3098POPC   C4A41502   1.526  15.959   7.298
 3098POPC   C1B41503   1.180  16.277   6.228
 3098POPC   C2B41504   1.246  16.432   6.631
 3098POPC   C3B41505   1.278  16.333   7.046
 3098POPC   C4B41506   1.097  16.190   7.428
 3099POPC   NC341507   0.420  13.367   5.437
 3099POPC   PO441508   0.483  14.023   5.525
 3099POPC   GL141509   0.525  13.700   5.837
 3099POPC   GL241510   0.231  13.468   5.897
 3099POPC   C1A41511   0.529  13.590   6.271
 3099POPC   D2A41512   0.213  13.595   6.587
 3099POPC   C3A41513   0.527  13.658   6.871
 3099POPC   C4A41514   0.685  13.547   7.251
 3099POPC   C1B41515   0.248  13.168   6.267
 3099POPC   C2B41516   0.407  13.126   6.691
 3099POPC   C3B41517   0.275  13.288   7.085
 3099POPC   C4B41518   0.203  13.361   7.507
 3100POPC   NC341519  44.393  18.365   5.345
 3100POPC   PO441520  44.967  17.988   5.385
 3100POPC   GL141521  44.594  18.045   5.697
 3100POPC   GL241522  44.866  18.143   5.899
 3100POPC   C1A41523  44.385  18.267   6.074
 3100POPC   D2A41524  44.203  18.376   6.511
 3100POPC   C3A41525  44.465  18.285   6.908
 3100POPC   C4A41526  44.395  18.307   7.364
 3100POPC   C1B41527   0.021  17.887   6.237
 3100POPC   C2B41528  44.909  17.990   6.650
 3100POPC   C3B41529  44.874  17.786   7.031
 3100POPC   C4B41530  44.794  17.959   7.424
 3101POPC   NC341531  40.438  20.679   5.547
 3101POPC   PO441532  41.081  20.443   5.525
 3101POPC   GL141533  40.840  20.462   5.866
 3101POPC   GL241534  40.681  20.162   5.785
 3101POPC   C1A41535  40.898  20.655   6.258
 3101POPC   D2A41536  40.784  20.891   6.635
 3101POPC   C3A41537  40.882  20.709   7.020
 3101POPC   C4A41538  40.758  20.859   7.473
 3101POPC   C1B41539  40.574  20.145   6.201
 3101POPC   C2B41540  40.529  20.436   6.552
 3101POPC   C3B41541  40.529  20.302   6.973
 3101POPC   C4B41542  40.741  20.375   7.361
 3102POPC   NC341543  40.372  15.809   5.365
 3102POPC   PO441544  40.911  16.215   5.448
 3102POPC   GL141545  40.639  15.992   5.783
 3102POPC   GL241546  40.859  15.701   5.808
 3102POPC   C1A41547  40.612  15.753   6.236
 3102POPC   D2A41548  40.747  15.604   6.664
 3102POPC   C3A41549  40.776  15.890   6.988
 3102POPC   C4A41550  40.795  16.258   7.196
 3102POPC   C1B41551  41.019  16.059   6.101
 3102POPC   C2B41552  41.024  16.106   6.553
 3102POPC   C3B41553  41.233  16.133   6.966
 3102POPC   C4B41554  41.276  16.087   7.397
 3103POPC   NC341555  27.379   0.066   5.694
 3103POPC   PO441556  27.675  44.518   5.427
 3103POPC   GL141557  27.673  44.581   5.840
 3103POPC   GL241558  27.313  44.559   5.812
 3103POPC   C1A41559  27.930  44.509   6.241
 3103POPC   D2A41560  28.118  44.406   6.686
 3103POPC   C3A41561  27.856  44.597   7.051
 3103POPC   C4A41562  27.615   0.000   7.139
 3103POPC   C1B41563  27.375  44.624   6.257
 3103POPC   C2B41564  27.235  44.915   6.581
 3103POPC   C3B41565  27.150  44.769   6.990
 3103POPC   C4B41566  27.244  44.778   7.400
 3104POPC   NC341567  32.759  31.027   5.452
 3104POPC   PO441568  33.235  30.479   5.313
 3104POPC   GL141569  33.224  30.616   5.761
 3104POPC   GL241570  32.877  30.736   5.850
 3104POPC   C1A41571  33.250  30.697   6.222
 3104POPC   D2A41572  33.073  30.616   6.643
 3104POPC   C3A41573  33.324  30.397   6.949
 3104POPC   C4A41574  33.180  30.195   7.326
 3104POPC   C1B41575  32.705  30.736   6.265
 3104POPC   C2B41576  32.726  31.007   6.631
 3104POPC   C3B41577  32.632  30.831   7.010
 3104POPC   C4B41578  32.881  30.539   7.140
 3105POPC   NC341579  12.805  15.090   5.170
 3105POPC   PO441580  12.458  15.402   5.690
 3105POPC   GL141581  12.723  15.403   6.077
 3105POPC   GL241582  12.939  15.103   6.178
 3105POPC   C1A41583  12.882  15.548   6.442
 3105POPC   D2A41584  12.728  15.214   6.686
 3105POPC   C3A41585  13.025  15.086   6.981
 3105POPC   C4A41586  13.091  15.315   7.351
 3105POPC   C1B41587  12.506  14.944   6.264
 3105POPC   C2B41588  12.387  14.678   6.625
 3105POPC   C3B41589  12.534  14.842   6.993
 3105POPC   C4B41590  12.692  14.995   7.356
 3106POPC   NC341591  35.057  22.171   5.517
 3106POPC   PO441592  35.682  22.212   5.218
 3106POPC   GL141593  35.563  22.305   5.709
 3106POPC   GL241594  35.259  22.451   5.905
 3106POPC   C1A41595  35.576  22.215   6.207
 3106POPC   D2A41596  35.471  22.367   6.661
 3106POPC   C3A41597  35.614  22.098   6.994
 3106POPC   C4A41598  35.249  21.922   7.190
 3106POPC   C1B41599  35.048  22.385   6.309
 3106POPC   C2B41600  34.991  22.535   6.735
 3106POPC   C3B41601  34.832  22.384   7.098
 3106POPC   C4B41602  34.961  22.208   7.482
 3107POPC   NC341603  43.726  26.993   5.506
 3107POPC   PO441604  44.029  26.534   5.127
 3107POPC   GL141605  44.020  26.447   5.720
 3107POPC   GL241606  43.936  26.761   5.944
 3107POPC   C1A41607  44.160  26.407   6.205
 3107POPC   D2A41608  43.875  26.605   6.534
 3107POPC   C3A41609  43.949  26.561   6.992
 3107POPC   C4A41610  43.639  26.715   7.297
 3107POPC   C1B41611  44.203  26.934   6.311
 3107POPC   C2B41612  44.261  26.906   6.791
 3107POPC   C3B41613  44.030  27.027   7.202
 3107POPC   C4B41614  44.118  26.875   7.640
 3108POPC   NC341615   1.440  10.596   5.151
 3108POPC   PO441616   0.800  10.637   5.358
 3108POPC   GL141617   0.989  10.388   5.711
 3108POPC   GL241618   1.364  10.361   5.701
 3108POPC   C1A41619   1.121  10.440   6.160
 3108POPC   D2A41620   1.200  10.579   6.578
 3108POPC   C3A41621   1.181  10.337   6.957
 3108POPC   C4A41622   0.897  10.470   7.284
 3108POPC   C1B41623   1.550  10.721   5.939
 3108POPC   C2B41624   1.627  10.832   6.387
 3108POPC   C3B41625   1.614  10.721   6.832
 3108POPC   C4B41626   1.309  10.781   7.132
 3109POPC   NC341627  17.897  42.919   5.430
 3109POPC   PO441628  18.418  43.349   5.324
 3109POPC   GL141629  18.244  43.176   5.723
 3109POPC   GL241630  18.342  42.893   5.838
 3109POPC   C1A41631  18.197  43.151   6.218
 3109POPC   D2A41632  18.255  43.251   6.661
 3109POPC   C3A41633  18.207  42.974   7.007
 3109POPC   C4A41634  18.135  43.060   7.422
 3109POPC   C1B41635  18.622  42.864   6.237
 3109POPC   C2B41636  18.559  42.780   6.696
 3109POPC   C3B41637  18.635  42.723   7.155
 3109POPC   C4B41638  18.556  42.838   7.612
 3110POPC   NC341639   8.882   1.741   5.399
 3110POPC   PO441640   8.902   2.376   5.507
 3110POPC   GL141641   8.858   2.273   5.922
 3110POPC   GL241642   8.865   1.926   5.885
 3110POPC   C1A41643   8.955   2.157   6.352
 3110POPC   D2A41644   9.027   1.999   6.781
 3110POPC   C3A41645   9.277   2.256   7.128
 3110POPC   C4A41646   9.409   2.056   7.542
 3110POPC   C1B41647   8.672   1.748   6.251
 3110POPC   C2B41648   8.597   1.651   6.671
 3110POPC   C3B41649   8.633   1.785   7.076
 3110POPC   C4B41650   8.930   1.935   7.375
 3111POPC   NC341651  34.174   5.987   5.389
 3111POPC   PO441652  33.545   5.669   5.390
 3111POPC   GL141653  33.630   5.802   5.813
 3111POPC   GL241654  33.970   5.991   5.876
 3111POPC   C1A41655  33.787   5.660   6.216
 3111POPC   D2A41656  33.893   5.903   6.558
 3111POPC   C3A41657  33.567   5.932   6.852
 3111POPC   C4A41658  33.657   5.707   7.240
 3111POPC   C1B41659  34.135   6.266   6.252
 3111POPC   C2B41660  34.136   6.315   6.743
 3111POPC   C3B41661  34.096   5.999   7.076
 3111POPC   C4B41662  34.135   6.044   7.545
 3112POPC   NC341663   7.252  13.675   5.513
 3112POPC   PO441664   7.753  13.936   5.114
 3112POPC   GL141665   7.767  13.790   5.571
 3112POPC   GL241666   8.056  13.869   5.736
 3112POPC   C1A41667   7.659  13.706   6.033
 3112POPC   D2A41668   7.419  13.849   6.389
 3112POPC   C3A41669   7.473  13.702   6.826
 3112POPC   C4A41670   7.191  13.814   7.160
 3112POPC   C1B41671   8.013  14.032   6.183
 3112POPC   C2B41672   7.934  13.885   6.602
 3112POPC   C3B41673   7.885  13.955   7.045
 3112POPC   C4B41674   7.629  13.970   7.413
 3113POPC   NC341675  27.085  20.329   5.402
 3113POPC   PO441676  27.004  19.608   5.506
 3113POPC   GL141677  26.797  19.733   5.883
 3113POPC   GL241678  26.865  20.082   5.988
 3113POPC   C1A41679  26.885  19.620   6.285
 3113POPC   D2A41680  27.066  19.836   6.623
 3113POPC   C3A41681  26.768  19.967   6.964
 3113POPC   C4A41682  26.882  19.918   7.409
 3113POPC   C1B41683  26.605  20.053   6.383
 3113POPC   C2B41684  26.528  20.360   6.723
 3113POPC   C3B41685  26.437  20.351   7.115
 3113POPC   C4B41686  26.396  20.047   7.360
 3114POPC   NC341687  18.126  41.958   5.276
 3114POPC   PO441688  18.286  42.603   5.427
 3114POPC   GL141689  17.991  42.517   5.760
 3114POPC   GL241690  18.262  42.402   5.929
 3114POPC   C1A41691  17.943  42.674   6.208
 3114POPC   D2A41692  17.881  42.537   6.630
 3114POPC   C3A41693  18.180  42.460   6.950
 3114POPC   C4A41694  18.190  42.553   7.374
 3114POPC   C1B41695  18.142  42.209   6.315
 3114POPC   C2B41696  18.385  42.090   6.645
 3114POPC   C3B41697  18.609  42.205   7.006
 3114POPC   C4B41698  18.618  42.282   7.426
 3115POPC   NC341699  12.556  10.222   5.555
 3115POPC   PO441700  12.748  10.836   5.297
 3115POPC   GL141701  12.840  10.749   5.746
 3115POPC   GL241702  12.515  10.655   5.870
 3115POPC   C1A41703  13.072  10.724   6.177
 3115POPC   D2A41704  13.160  10.447   6.542
 3115POPC   C3A41705  13.082  10.511   6.974
 3115POPC   C4A41706  13.085  10.230   7.294
 3115POPC   C1B41707  12.593  10.552   6.274
 3115POPC   C2B41708  12.744  10.714   6.635
 3115POPC   C3B41709  12.561  10.588   7.021
 3115POPC   C4B41710  12.721  10.542   7.420
 3116POPC   NC341711   1.322  13.795   5.382
 3116POPC   PO441712   0.998  13.196   5.433
 3116POPC   GL141713   1.051  13.544   5.736
 3116POPC   GL241714   1.411  13.586   5.837
 3116POPC   C1A41715   1.002  13.782   6.125
 3116POPC   D2A41716   0.955  13.618   6.552
 3116POPC   C3A41717   1.020  13.833   6.925
 3116POPC   C4A41718   1.064  13.897   7.320
 3116POPC   C1B41719   1.503  13.715   6.272
 3116POPC   C2B41720   1.469  13.720   6.736
 3116POPC   C3B41721   1.498  13.670   7.188
 3116POPC   C4B41722   1.492  13.657   7.658
 3117POPC   NC341723   6.899  28.733   5.611
 3117POPC   PO441724   6.661  29.253   5.256
 3117POPC   GL141725   6.442  29.228   5.655
 3117POPC   GL241726   6.737  29.157   5.827
 3117POPC   C1A41727   6.333  29.225   6.109
 3117POPC   D2A41728   6.585  29.378   6.458
 3117POPC   C3A41729   6.559  29.131   6.847
 3117POPC   C4A41730   6.628  29.184   7.285
 3117POPC   C1B41731   6.803  28.963   6.234
 3117POPC   C2B41732   6.919  28.799   6.617
 3117POPC   C3B41733   7.054  28.911   6.986
 3117POPC   C4B41734   6.887  28.776   7.351
 3118POPC   NC341735   4.798   1.949   5.384
 3118POPC   PO441736   5.325   1.612   5.402
 3118POPC   GL141737   5.320   1.675   5.824
 3118POPC   GL241738   5.101   1.956   5.804
 3118POPC   C1A41739   5.258   1.831   6.257
 3118POPC   D2A41740   4.890   1.809   6.532
 3118POPC   C3A41741   5.023   1.991   6.928
 3118POPC   C4A41742   5.299   2.038   7.282
 3118POPC   C1B41743   4.840   2.168   6.130
 3118POPC   C2B41744   4.836   2.334   6.556
 3118POPC   C3B41745   4.660   2.365   6.960
 3118POPC   C4B41746   4.858   2.263   7.367
 3119POPC   NC341747  16.896  11.438   5.211
 3119POPC   PO441748  16.437  11.636   5.679
 3119POPC   GL141749  16.851  11.655   5.834
 3119POPC   GL241750  17.016  11.334   5.851
 3119POPC   C1A41751  16.829  11.655   6.287
 3119POPC   D2A41752  17.000  11.528   6.660
 3119POPC   C3A41753  16.798  11.496   7.070
 3119POPC   C4A41754  16.605  11.380   7.482
 3119POPC   C1B41755  17.004  11.153   6.290
 3119POPC   C2B41756  16.990  11.017   6.752
 3119POPC   C3B41757  16.907  11.007   7.222
 3119POPC   C4B41758  16.974  10.965   7.703
 3120POPC   NC341759  29.369  12.444   4.938
 3120POPC   PO441760  29.222  11.903   5.222
 3120POPC   GL141761  29.278  11.825   5.716
 3120POPC   GL241762  28.969  11.767   5.924
 3120POPC   C1A41763  29.407  11.938   6.193
 3120POPC   D2A41764  29.173  12.042   6.612
 3120POPC   C3A41765  29.296  12.226   7.036
 3120POPC   C4A41766  29.334  12.545   7.378
 3120POPC   C1B41767  29.039  11.616   6.320
 3120POPC   C2B41768  28.859  11.612   6.685
 3120POPC   C3B41769  28.963  11.827   7.050
 3120POPC   C4B41770  28.874  11.774   7.465
 3121POPC   NC341771  28.551  43.475   5.451
 3121POPC   PO441772  28.214  42.908   5.417
 3121POPC   GL141773  28.190  43.065   5.803
 3121POPC   GL241774  28.164  43.430   5.798
 3121POPC   C1A41775  28.291  42.945   6.202
 3121POPC   D2A41776  28.661  42.898   6.445
 3121POPC   C3A41777  28.585  43.058   6.842
 3121POPC   C4A41778  28.605  43.049   7.283
 3121POPC   C1B41779  28.181  43.489   6.208
 3121POPC   C2B41780  28.535  43.531   6.492
 3121POPC   C3B41781  28.638  43.558   6.925
 3121POPC   C4B41782  28.339  43.474   7.256
 3122POPC   NC341783  24.170  43.856   5.603
 3122POPC   PO441784  24.615  43.453   5.394
 3122POPC   GL141785  24.566  43.589   5.847
 3122POPC   GL241786  24.388  43.885   6.062
 3122POPC   C1A41787  24.779  43.644   6.239
 3122POPC   D2A41788  24.657  43.906   6.636
 3122POPC   C3A41789  24.480  43.727   7.049
 3122POPC   C4A41790  24.528  43.455   7.469
 3122POPC   C1B41791  24.248  44.333   6.126
 3122POPC   C2B41792  24.276  44.492   6.516
 3122POPC   C3B41793  24.466  44.341   6.877
 3122POPC   C4B41794  24.373  44.238   7.307
 3123POPC   NC341795   6.363  35.242   5.631
 3123POPC   PO441796   5.719  35.216   5.355
 3123POPC   GL141797   5.877  35.394   5.714
 3123POPC   GL241798   5.917  35.086   5.851
 3123POPC   C1A41799   5.926  35.482   6.173
 3123POPC   D2A41800   5.843  35.233   6.539
 3123POPC   C3A41801   5.883  35.425   6.951
 3123POPC   C4A41802   5.780  35.763   7.235
 3123POPC   C1B41803   5.643  34.890   6.145
 3123POPC   C2B41804   5.508  34.824   6.564
 3123POPC   C3B41805   5.642  34.938   6.991
 3123POPC   C4B41806   5.987  35.021   7.267
 3124POPC   NC341807  10.958  13.516   5.509
 3124POPC   PO441808  11.607  13.643   5.535
 3124POPC   GL141809  11.312  13.598   5.860
 3124POPC   GL241810  11.189  13.247   5.885
 3124POPC   C1A41811  11.137  13.768   6.234
 3124POPC   D2A41812  10.968  13.590   6.587
 3124POPC   C3A41813  11.123  13.744   6.942
 3124POPC   C4A41814  11.300  13.815   7.346
 3124POPC   C1B41815  11.432  13.330   6.269
 3124POPC   C2B41816  11.468  13.460   6.686
 3124POPC   C3B41817  11.407  13.363   7.110
 3124POPC   C4B41818  11.717  13.519   7.350
 3125POPC   NC341819  44.861  24.030   5.405
 3125POPC   PO441820  44.489  23.430   5.424
 3125POPC   GL141821  44.647  23.664   5.752
 3125POPC   GL241822  44.980  23.726   5.798
 3125POPC   C1A41823  44.614  23.648   6.187
 3125POPC   D2A41824  44.328  23.706   6.514
 3125POPC   C3A41825  44.561  23.633   6.872
 3125POPC   C4A41826  44.582  23.889   7.190
 3125POPC   C1B41827   0.098  23.870   6.175
 3125POPC   C2B41828  44.950  23.810   6.589
 3125POPC   C3B41829   0.058  23.926   7.009
 3125POPC   C4B41830  44.934  24.170   7.392
 3126POPC   NC341831  26.233  44.872   5.224
 3126POPC   PO441832  25.724  44.488   5.324
 3126POPC   GL141833  26.040  44.538   5.708
 3126POPC   GL241834  26.298  44.825   5.742
 3126POPC   C1A41835  26.031  44.691   6.178
 3126POPC   D2A41836  26.058  44.962   6.554
 3126POPC   C3A41837  25.809  44.780   6.892
 3126POPC   C4A41838  25.840  44.598   7.300
 3126POPC   C1B41839  26.477  44.484   6.017
 3126POPC   C2B41840  26.461  44.398   6.474
 3126POPC   C3B41841  26.309  44.607   6.856
 3126POPC   C4B41842  26.353  44.539   7.275
 3127POPC   NC341843  34.354  39.713   5.161
 3127POPC   PO441844  33.813  40.108   5.230
 3127POPC   GL141845  33.745  39.935   5.678
 3127POPC   GL241846  33.895  40.221   5.889
 3127POPC   C1A41847  33.624  39.890   6.161
 3127POPC   D2A41848  33.823  39.733   6.584
 3127POPC   C3A41849  33.916  39.816   7.060
 3127POPC   C4A41850  33.708  39.719   7.488
 3127POPC   C1B41851  33.951  40.261   6.363
 3127POPC   C2B41852  33.733  40.224   6.779
 3127POPC   C3B41853  33.780  40.326   7.225
 3127POPC   C4B41854  33.912  40.258   7.643
 3128POPC   NC341855  34.727   2.989   5.381
 3128POPC   PO441856  34.303   2.506   5.606
 3128POPC   GL141857  34.518   2.752   5.883
 3128POPC   GL241858  34.354   3.059   5.821
 3128POPC   C1A41859  34.605   2.635   6.315
 3128POPC   D2A41860  34.488   2.417   6.702
 3128POPC   C3A41861  34.499   2.742   7.006
 3128POPC   C4A41862  34.386   2.648   7.450
 3128POPC   C1B41863  34.620   3.205   6.158
 3128POPC   C2B41864  34.704   3.077   6.591
 3128POPC   C3B41865  34.859   3.151   7.007
 3128POPC   C4B41866  34.608   3.081   7.365
 3129POPC   NC341867  21.470  36.308   5.421
 3129POPC   PO441868  21.625  35.678   5.618
 3129POPC   GL141869  21.500  35.971   5.906
 3129POPC   GL241870  21.374  36.305   5.915
 3129POPC   C1A41871  21.349  35.926   6.295
 3129POPC   D2A41872  21.417  35.667   6.646
 3129POPC   C3A41873  21.513  35.892   7.009
 3129POPC   C4A41874  21.293  36.204   7.270
 3129POPC   C1B41875  21.271  36.457   6.331
 3129POPC   C2B41876  21.066  36.352   6.732
 3129POPC   C3B41877  21.067  36.617   7.076
 3129POPC   C4B41878  21.278  36.871   7.399
 3130POPC   NC341879  30.478  36.225   5.262
 3130POPC   PO441880  31.059  36.014   5.530
 3130POPC   GL141881  30.846  36.241   5.799
 3130POPC   GL241882  30.490  36.314   5.779
 3130POPC   C1A41883  30.749  36.100   6.197
 3130POPC   D2A41884  30.470  36.117   6.534
 3130POPC   C3A41885  30.738  36.071   6.874
 3130POPC   C4A41886  30.940  36.127   7.240
 3130POPC   C1B41887  30.455  36.530   6.183
 3130POPC   C2B41888  30.312  36.620   6.592
 3130POPC   C3B41889  30.443  36.480   6.959
 3130POPC   C4B41890  30.326  36.145   7.246
 3131POPC   NC341891  34.379   2.128   5.365
 3131POPC   PO441892  34.998   1.822   5.388
 3131POPC   GL141893  34.696   1.864   5.758
 3131POPC   GL241894  34.336   1.953   5.841
 3131POPC   C1A41895  34.692   2.054   6.179
 3131POPC   D2A41896  34.591   1.906   6.565
 3131POPC   C3A41897  34.826   2.014   6.936
 3131POPC   C4A41898  34.705   2.321   7.223
 3131POPC   C1B41899  34.217   1.736   6.241
 3131POPC   C2B41900  34.112   1.704   6.684
 3131POPC   C3B41901  34.300   1.988   6.962
 3131POPC   C4B41902  34.507   1.868   7.339
 3132POPC   NC341903  28.175  41.752   5.419
 3132POPC   PO441904  28.434  41.121   5.489
 3132POPC   GL141905  28.424  41.473   5.795
 3132POPC   GL241906  28.094  41.605   5.897
 3132POPC   C1A41907  28.585  41.579   6.217
 3132POPC   D2A41908  28.785  41.438   6.604
 3132POPC   C3A41909  28.703  41.698   6.967
 3132POPC   C4A41910  28.432  41.724   7.338
 3132POPC   C1B41911  28.177  41.247   6.175
 3132POPC   C2B41912  28.340  41.172   6.602
 3132POPC   C3B41913  28.339  41.305   7.035
 3132POPC   C4B41914  28.136  41.143   7.409
 3133POPC   NC341915  43.528  28.856   5.580
 3133POPC   PO441916  43.200  29.424   5.474
 3133POPC   GL141917  43.175  29.175   5.837
 3133POPC   GL241918  43.056  28.820   5.820
 3133POPC   C1A41919  42.985  29.277   6.238
 3133POPC   D2A41920  42.873  29.154   6.670
 3133POPC   C3A41921  43.065  29.378   7.051
 3133POPC   C4A41922  43.089  29.364   7.545
 3133POPC   C1B41923  43.288  28.834   6.228
 3133POPC   C2B41924  43.254  28.725   6.665
 3133POPC   C3B41925  43.519  28.763   7.035
 3133POPC   C4B41926  43.258  28.979   7.267
 3134POPC   NC341927  28.761   6.683   5.524
 3134POPC   PO441928  29.433   6.529   5.364
 3134POPC   GL141929  29.196   6.492   5.741
 3134POPC   GL241930  29.194   6.827   5.779
 3134POPC   C1A41931  29.033   6.416   6.174
 3134POPC   D2A41932  28.917   6.145   6.529
 3134POPC   C3A41933  29.009   6.347   6.921
 3134POPC   C4A41934  29.262   6.643   7.113
 3134POPC   C1B41935  28.933   6.947   6.139
 3134POPC   C2B41936  28.949   6.818   6.579
 3134POPC   C3B41937  28.829   6.912   6.998
 3134POPC   C4B41938  28.750   6.643   7.366
 3135POPC   NC341939  23.726  11.507   5.348
 3135POPC   PO441940  23.368  10.977   5.464
 3135POPC   GL141941  23.670  11.158   5.784
 3135POPC   GL241942  23.821  11.495   5.839
 3135POPC   C1A41943  23.644  11.224   6.229
 3135POPC   D2A41944  23.843  11.299   6.588
 3135POPC   C3A41945  23.613  11.109   6.865
 3135POPC   C4A41946  23.750  11.173   7.239
 3135POPC   C1B41947  24.055  11.576   6.212
 3135POPC   C2B41948  24.276  11.598   6.632
 3135POPC   C3B41949  24.151  11.495   7.063
 3135POPC   C4B41950  23.908  11.602   7.451
 3136POPC   NC341951  17.868   1.904   5.441
 3136POPC   PO441952  18.460   2.268   5.305
 3136POPC   GL141953  18.356   2.135   5.750
 3136POPC   GL241954  18.276   2.412   5.994
 3136POPC   C1A41955  18.475   1.932   6.188
 3136POPC   D2A41956  18.631   1.887   6.647
 3136POPC   C3A41957  18.371   1.749   7.019
 3136POPC   C4A41958  17.892   1.726   7.106
 3136POPC   C1B41959  18.011   2.173   6.294
 3136POPC   C2B41960  18.094   2.075   6.726
 3136POPC   C3B41961  18.299   2.270   7.093
 3136POPC   C4B41962  18.749   2.227   7.186
 3137POPC   NC341963   9.249  33.720   5.616
 3137POPC   PO441964   9.855  33.927   5.229
 3137POPC   GL141965   9.773  33.845   5.625
 3137POPC   GL241966   9.992  34.122   5.679
 3137POPC   C1A41967   9.764  33.749   6.068
 3137POPC   D2A41968   9.567  33.935   6.438
 3137POPC   C3A41969   9.580  33.698   6.828
 3137POPC   C4A41970   9.497  33.807   7.239
 3137POPC   C1B41971  10.002  34.195   6.108
 3137POPC   C2B41972  10.006  34.159   6.520
 3137POPC   C3B41973   9.761  34.187   6.896
 3137POPC   C4B41974   9.894  34.102   7.308
 3138POPC   NC341975  37.470  23.871   5.533
 3138POPC   PO441976  36.820  23.844   5.343
 3138POPC   GL141977  36.900  23.755   5.788
 3138POPC   GL241978  37.144  23.493   5.842
 3138POPC   C1A41979  36.864  23.764   6.245
 3138POPC   D2A41980  36.914  23.998   6.638
 3138POPC   C3A41981  36.816  23.779   6.996
 3138POPC   C4A41982  36.713  23.699   7.401
 3138POPC   C1B41983  37.305  23.515   6.283
 3138POPC   C2B41984  37.169  23.524   6.720
 3138POPC   C3B41985  37.177  23.422   7.181
 3138POPC   C4B41986  37.170  23.532   7.656
 3139POPC   NC341987  26.298  35.341   5.676
 3139POPC   PO441988  25.771  35.393   5.248
 3139POPC   GL141989  25.786  35.292   5.725
 3139POPC   GL241990  25.795  35.638   5.867
 3139POPC   C1A41991  25.946  35.199   6.191
 3139POPC   D2A41992  25.872  35.372   6.613
 3139POPC   C3A41993  26.163  35.378   6.977
 3139POPC   C4A41994  26.384  35.750   7.174
 3139POPC   C1B41995  26.086  35.709   6.233
 3139POPC   C2B41996  26.151  35.829   6.665
 3139POPC   C3B41997  25.899  35.804   7.041
 3139POPC   C4B41998  25.915  35.898   7.493
 3140POPC   NC341999  42.833  39.287   5.424
 3140POPC   PO442000  42.242  39.626   5.391
 3140POPC   GL142001  42.373  39.406   5.768
 3140POPC   GL242002  42.560  39.109   5.848
 3140POPC   C1A42003  42.239  39.313   6.197
 3140POPC   D2A42004  42.440  39.174   6.576
 3140POPC   C3A42005  42.250  39.344   6.928
 3140POPC   C4A42006  42.199  39.230   7.340
 3140POPC   C1B42007  42.721  38.908   6.231
 3140POPC   C2B42008  42.780  38.812   6.707
 3140POPC   C3B42009  42.632  39.036   7.094
 3140POPC   C4B42010  42.464  38.818   7.468
 3141POPC   NC342011  38.720   2.371   5.610
 3141POPC   PO442012  38.625   2.949   5.288
 3141POPC   GL142013  38.494   2.943   5.747
 3141POPC   GL242014  38.232   2.737   5.882
 3141POPC   C1A42015  38.569   2.916   6.224
 3141POPC   D2A42016  38.317   2.894   6.623
 3141POPC   C3A42017  38.544   2.864   7.039
 3141POPC   C4A42018  38.411   2.920   7.468
 3141POPC   C1B42019  38.357   2.432   6.208
 3141POPC   C2B42020  38.253   2.287   6.593
 3141POPC   C3B42021  38.151   2.523   6.943
 3141POPC   C4B42022  38.320   2.401   7.304
 3142POPC   NC342023   9.010  15.881   5.062
 3142POPC   PO442024   8.682  15.688   5.617
 3142POPC   GL142025   8.884  15.896   5.849
 3142POPC   GL242026   9.085  16.086   5.649
 3142POPC   C1A42027   8.772  15.978   6.251
 3142POPC   D2A42028   8.734  15.738   6.629
 3142POPC   C3A42029   8.797  16.041   6.907
 3142POPC   C4A42030   8.946  16.158   7.244
 3142POPC   C1B42031   9.243  16.139   6.097
 3142POPC   C2B42032   9.117  16.201   6.558
 3142POPC   C3B42033   9.374  16.105   6.967
 3142POPC   C4B42034   9.341  15.921   7.419
 3143POPC   NC342035  27.753   8.958   5.409
 3143POPC   PO442036  27.123   8.805   5.403
 3143POPC   GL142037  27.323   9.055   5.719
 3143POPC   GL242038  27.630   8.907   5.898
 3143POPC   C1A42039  27.252   9.123   6.145
 3143POPC   D2A42040  27.396   8.851   6.494
 3143POPC   C3A42041  27.400   9.082   6.858
 3143POPC   C4A42042  27.200   9.428   7.031
 3143POPC   C1B42043  27.753   9.148   6.269
 3143POPC   C2B42044  27.888   9.007   6.657
 3143POPC   C3B42045  27.710   8.673   6.857
 3143POPC   C4B42046  27.742   8.913   7.204
 3144POPC   NC342047  28.239  36.500   5.553
 3144POPC   PO442048  28.138  35.890   5.320
 3144POPC   GL142049  28.051  36.047   5.719
 3144POPC   GL242050  28.038  35.748   5.854
 3144POPC   C1A42051  27.950  36.248   6.132
 3144POPC   D2A42052  27.955  36.104   6.586
 3144POPC   C3A42053  28.256  36.268   6.905
 3144POPC   C4A42054  28.601  36.060   7.171
 3144POPC   C1B42055  28.321  35.907   6.200
 3144POPC   C2B42056  28.430  35.855   6.627
 3144POPC   C3B42057  28.210  35.783   7.005
 3144POPC   C4B42058  28.260  35.700   7.426
 3145POPC   NC342059   7.868  24.787   5.650
 3145POPC   PO442060   8.132  24.266   5.271
 3145POPC   GL142061   8.204  24.371   5.739
 3145POPC   GL242062   8.407  24.672   5.841
 3145POPC   C1A42063   8.028  24.379   6.215
 3145POPC   D2A42064   7.905  24.244   6.673
 3145POPC   C3A42065   8.023  24.522   7.023
 3145POPC   C4A42066   8.279  24.363   7.364
 3145POPC   C1B42067   8.535  24.407   6.213
 3145POPC   C2B42068   8.420  24.502   6.663
 3145POPC   C3B42069   8.514  24.700   7.075
 3145POPC   C4B42070   8.470  24.784   7.569
 3146POPC   NC342071  21.410   8.164   5.291
 3146POPC   PO442072  21.986   8.098   5.637
 3146POPC   GL142073  21.573   8.219   5.813
 3146POPC   GL242074  21.238   8.020   5.759
 3146POPC   C1A42075  21.460   8.356   6.232
 3146POPC   D2A42076  21.504   8.253   6.674
 3146POPC   C3A42077  21.326   8.285   7.089
 3146POPC   C4A42078  21.689   8.466   7.288
 3146POPC   C1B42079  21.336   7.879   6.165
 3146POPC   C2B42080  21.288   7.782   6.588
 3146POPC   C3B42081  21.423   7.764   7.013
 3146POPC   C4B42082  21.335   7.869   7.416
 3147POPC   NC342083   2.724   6.905   5.171
 3147POPC   PO442084   3.079   6.448   5.497
 3147POPC   GL142085   2.860   6.538   5.838
 3147POPC   GL242086   2.579   6.757   5.786
 3147POPC   C1A42087   2.818   6.627   6.247
 3147POPC   D2A42088   2.804   6.888   6.566
 3147POPC   C3A42089   3.006   6.747   6.911
 3147POPC   C4A42090   3.029   6.415   7.176
 3147POPC   C1B42091   2.338   6.837   6.212
 3147POPC   C2B42092   2.197   6.709   6.620
 3147POPC   C3B42093   2.511   6.629   6.911
 3147POPC   C4B42094   2.652   6.734   7.307
 3148POPC   NC342095   9.770  34.539   5.382
 3148POPC   PO442096   9.240  34.200   5.537
 3148POPC   GL142097   9.574  34.337   5.846
 3148POPC   GL242098   9.865  34.600   5.858
 3148POPC   C1A42099   9.583  34.472   6.284
 3148POPC   D2A42100   9.433  34.692   6.641
 3148POPC   C3A42101   9.302  34.433   6.960
 3148POPC   C4A42102   9.484  34.389   7.369
 3148POPC   C1B42103  10.055  34.680   6.260
 3148POPC   C2B42104   9.954  34.650   6.677
 3148POPC   C3B42105   9.791  34.678   7.059
 3148POPC   C4B42106   9.971  34.635   7.427
 3149POPC   NC342107  43.785   1.678   4.968
 3149POPC   PO442108  43.868   2.233   5.447
 3149POPC   GL142109  43.949   1.974   5.779
 3149POPC   GL242110  43.974   1.681   5.689
 3149POPC   C1A42111  43.901   2.040   6.203
 3149POPC   D2A42112  43.823   2.249   6.583
 3149POPC   C3A42113  44.014   2.117   6.942
 3149POPC   C4A42114  43.781   2.164   7.313
 3149POPC   C1B42115  44.109   1.582   6.119
 3149POPC   C2B42116  43.949   1.704   6.570
 3149POPC   C3B42117  43.639   1.785   6.873
 3149POPC   C4B42118  43.899   1.690   7.235
 3150POPC   NC342119  14.001  44.420   5.271
 3150POPC   PO442120  13.600  44.939   5.434
 3150POPC   GL142121  13.625  44.680   5.818
 3150POPC   GL242122  13.726  44.360   5.679
 3150POPC   C1A42123  13.598  44.713   6.310
 3150POPC   D2A42124  13.715  44.713   6.794
 3150POPC   C3A42125  13.544  44.991   7.136
 3150POPC   C4A42126  13.217   0.050   7.470
 3150POPC   C1B42127  13.707  44.229   6.084
 3150POPC   C2B42128  13.858  44.318   6.495
 3150POPC   C3B42129  14.017  44.302   6.894
 3150POPC   C4B42130  13.803  44.446   7.238
 3151POPC   NC342131   7.710  36.217   5.494
 3151POPC   PO442132   7.076  36.006   5.575
 3151POPC   GL142133   7.295  36.161   5.878
 3151POPC   GL242134   7.509  35.904   5.857
 3151POPC   C1A42135   7.455  36.263   6.290
 3151POPC   D2A42136   7.467  36.101   6.699
 3151POPC   C3A42137   7.388  36.310   7.097
 3151POPC   C4A42138   7.584  36.123   7.490
 3151POPC   C1B42139   7.406  35.750   6.277
 3151POPC   C2B42140   7.274  35.629   6.707
 3151POPC   C3B42141   7.401  35.795   7.130
 3151POPC   C4B42142   7.584  35.601   7.528
 3152POPC   NC342143  37.668  21.245   5.321
 3152POPC   PO442144  37.548  21.849   5.399
 3152POPC   GL142145  37.588  21.593   5.757
 3152POPC   GL242146  37.928  21.541   5.890
 3152POPC   C1A42147  37.438  21.402   6.139
 3152POPC   D2A42148  37.657  21.408   6.536
 3152POPC   C3A42149  37.440  21.265   6.869
 3152POPC   C4A42150  37.586  21.235   7.270
 3152POPC   C1B42151  37.795  21.806   6.243
 3152POPC   C2B42152  37.936  21.832   6.685
 3152POPC   C3B42153  37.921  21.523   7.027
 3152POPC   C4B42154  37.830  21.619   7.485
 3153POPC   NC342155  21.749  12.786   5.472
 3153POPC   PO442156  22.369  13.055   5.238
 3153POPC   GL142157  22.253  12.870   5.672
 3153POPC   GL242158  21.950  12.991   5.912
 3153POPC   C1A42159  22.396  12.893   6.110
 3153POPC   D2A42160  22.253  12.826   6.517
 3153POPC   C3A42161  22.215  13.143   6.817
 3153POPC   C4A42162  22.409  12.995   7.162
 3153POPC   C1B42163  21.897  12.590   6.143
 3153POPC   C2B42164  21.968  12.415   6.559
 3153POPC   C3B42165  21.907  12.696   6.900
 3153POPC   C4B42166  21.566  12.660   7.182
 3154POPC   NC342167  13.681   9.137   4.980
 3154POPC   PO442168  13.348   8.858   5.362
 3154POPC   GL142169  13.588   8.862   5.753
 3154POPC   GL242170  13.915   8.713   5.786
 3154POPC   C1A42171  13.660   9.011   6.189
 3154POPC   D2A42172  13.403   9.044   6.562
 3154POPC   C3A42173  13.590   8.964   6.998
 3154POPC   C4A42174  13.669   9.273   7.327
 3154POPC   C1B42175  13.721   8.506   6.171
 3154POPC   C2B42176  13.660   8.606   6.614
 3154POPC   C3B42177  13.757   8.452   7.035
 3154POPC   C4B42178  14.134   8.333   7.271
 3155POPC   NC342179  12.722  27.590   5.354
 3155POPC   PO442180  13.302  27.549   5.658
 3155POPC   GL142181  12.933  27.380   5.778
 3155POPC   GL242182  12.694  27.675   5.850
 3155POPC   C1A42183  12.851  27.249   6.170
 3155POPC   D2A42184  12.875  27.434   6.570
 3155POPC   C3A42185  12.814  27.233   6.948
 3155POPC   C4A42186  12.792  27.529   7.273
 3155POPC   C1B42187  12.928  27.783   6.200
 3155POPC   C2B42188  12.751  27.990   6.562
 3155POPC   C3B42189  12.828  27.994   7.001
 3155POPC   C4B42190  13.135  27.937   7.324
 3156POPC   NC342191  36.028  39.543   5.170
 3156POPC   PO442192  36.148  40.101   5.396
 3156POPC   GL142193  36.120  40.117   5.825
 3156POPC   GL242194  36.247  39.789   5.954
 3156POPC   C1A42195  36.044  40.147   6.261
 3156POPC   D2A42196  36.306  40.249   6.577
 3156POPC   C3A42197  36.129  40.201   6.983
 3156POPC   C4A42198  36.070  40.467   7.341
 3156POPC   C1B42199  36.441  39.544   6.283
 3156POPC   C2B42200  36.362  39.738   6.650
 3156POPC   C3B42201  36.376  39.748   7.052
 3156POPC   C4B42202  36.297  39.965   7.420
 3157POPC   NC342203  41.302   4.814   5.471
 3157POPC   PO442204  41.493   5.452   5.422
 3157POPC   GL142205  41.656   5.348   5.840
 3157POPC   GL242206  41.631   5.001   5.863
 3157POPC   C1A42207  41.573   5.275   6.306
 3157POPC   D2A42208  41.539   5.442   6.711
 3157POPC   C3A42209  41.474   5.174   7.084
 3157POPC   C4A42210  41.417   5.360   7.484
 3157POPC   C1B42211  41.194   5.044   6.080
 3157POPC   C2B42212  41.115   4.925   6.517
 3157POPC   C3B42213  41.190   4.689   6.900
 3157POPC   C4B42214  41.279   4.747   7.337
 3158POPC   NC342215  13.428  42.130   5.352
 3158POPC   PO442216  13.997  42.419   5.243
 3158POPC   GL142217  13.816  42.280   5.674
 3158POPC   GL242218  13.640  41.949   5.777
 3158POPC   C1A42219  13.688  42.348   6.125
 3158POPC   D2A42220  13.863  42.488   6.507
 3158POPC   C3A42221  13.704  42.387   6.892
 3158POPC   C4A42222  13.438  42.546   7.162
 3158POPC   C1B42223  13.319  41.990   6.106
 3158POPC   C2B42224  13.329  42.224   6.523
 3158POPC   C3B42225  13.131  42.198   6.942
 3158POPC   C4B42226  13.276  42.019   7.343
 3159POPC   NC342227  36.985  14.803   5.347
 3159POPC   PO442228  37.134  14.134   5.494
 3159POPC   GL142229  36.819  14.293   5.732
 3159POPC   GL242230  37.013  14.583   5.794
 3159POPC   C1A42231  36.583  14.450   6.102
 3159POPC   D2A42232  36.671  14.673   6.503
 3159POPC   C3A42233  36.479  14.451   6.834
 3159POPC   C4A42234  36.603  14.339   7.239
 3159POPC   C1B42235  37.094  14.391   6.171
 3159POPC   C2B42236  37.183  14.456   6.574
 3159POPC   C3B42237  36.991  14.376   6.912
 3159POPC   C4B42238  37.107  14.117   7.218
 3160POPC   NC342239  37.903   2.670   5.463
 3160POPC   PO442240  37.664   3.176   5.131
 3160POPC   GL142241  37.523   2.950   5.636
 3160POPC   GL242242  37.720   2.731   5.923
 3160POPC   C1A42243  37.422   3.087   6.080
 3160POPC   D2A42244  37.666   2.940   6.423
 3160POPC   C3A42245  37.656   2.959   6.864
 3160POPC   C4A42246  38.054   3.049   7.083
 3160POPC   C1B42247  37.813   2.457   6.337
 3160POPC   C2B42248  37.482   2.301   6.621
 3160POPC   C3B42249  37.586   2.438   6.990
 3160POPC   C4B42250  37.801   2.677   7.295
 3161POPC   NC342251  41.094  31.192   5.208
 3161POPC   PO442252  40.622  31.658   5.434
 3161POPC   GL142253  40.903  31.445   5.706
 3161POPC   GL242254  41.023  31.108   5.768
 3161POPC   C1A42255  40.830  31.435   6.148
 3161POPC   D2A42256  40.734  31.269   6.549
 3161POPC   C3A42257  40.741  31.595   6.882
 3161POPC   C4A42258  40.962  31.763   7.241
 3161POPC   C1B42259  41.216  31.098   6.203
 3161POPC   C2B42260  41.232  31.075   6.672
 3161POPC   C3B42261  40.907  31.127   6.999
 3161POPC   C4B42262  40.452  31.186   7.014
 3162POPC   NC342263  25.369  34.621   5.507
 3162POPC   PO442264  25.029  34.007   5.496
 3162POPC   GL142265  25.279  34.252   5.852
 3162POPC   GL242266  25.645  34.216   5.765
 3162POPC   C1A42267  25.257  34.580   6.225
 3162POPC   D2A42268  24.988  34.752   6.617
 3162POPC   C3A42269  25.166  34.949   7.024
 3162POPC   C4A42270  25.557  34.803   7.243
 3162POPC   C1B42271  25.655  34.217   6.235
 3162POPC   C2B42272  25.578  34.492   6.621
 3162POPC   C3B42273  25.275  34.461   6.954
 3162POPC   C4B42274  25.151  34.441   7.397
 3163POPC   NC342275   1.620  23.787   5.529
 3163POPC   PO442276   2.235  24.063   5.555
 3163POPC   GL142277   1.985  23.916   5.885
 3163POPC   GL242278   1.944  23.550   5.858
 3163POPC   C1A42279   2.084  23.782   6.310
 3163POPC   D2A42280   2.075  23.528   6.694
 3163POPC   C3A42281   1.981  23.769   7.042
 3163POPC   C4A42282   2.080  23.761   7.458
 3163POPC   C1B42283   1.620  23.508   6.205
 3163POPC   C2B42284   1.589  23.309   6.630
 3163POPC   C3B42285   1.722  23.327   7.064
 3163POPC   C4B42286   1.614  23.489   7.419
 3164POPC   NC342287  23.853   7.732   5.364
 3164POPC   PO442288  23.985   7.081   5.395
 3164POPC   GL142289  23.667   7.271   5.665
 3164POPC   GL242290  23.902   7.473   5.780
 3164POPC   C1A42291  23.569   7.422   6.129
 3164POPC   D2A42292  23.354   7.613   6.472
 3164POPC   C3A42293  23.553   7.431   6.823
 3164POPC   C4A42294  23.544   7.222   7.211
 3164POPC   C1B42295  24.081   7.483   6.152
 3164POPC   C2B42296  23.944   7.291   6.481
 3164POPC   C3B42297  24.086   7.391   6.857
 3164POPC   C4B42298  24.252   7.526   7.227
 3165POPC   NC342299   1.238  36.711   5.416
 3165POPC   PO442300   1.175  37.292   5.519
 3165POPC   GL142301   1.261  36.994   5.869
 3165POPC   GL242302   1.019  36.724   5.902
 3165POPC   C1A42303   1.201  36.986   6.329
 3165POPC   D2A42304   0.998  37.104   6.716
 3165POPC   C3A42305   1.273  36.972   7.039
 3165POPC   C4A42306   1.352  37.013   7.473
 3165POPC   C1B42307   0.967  36.517   6.309
 3165POPC   C2B42308   1.139  36.609   6.713
 3165POPC   C3B42309   1.140  36.482   7.171
 3165POPC   C4B42310   1.350  36.422   7.593
 3166POPC   NC342311  16.655  32.702   5.205
 3166POPC   PO442312  16.521  33.319   5.417
 3166POPC   GL142313  16.775  33.185   5.735
 3166POPC   GL242314  16.959  32.922   5.560
 3166POPC   C1A42315  16.705  33.194   6.194
 3166POPC   D2A42316  16.821  33.374   6.601
 3166POPC   C3A42317  16.840  33.132   7.008
 3166POPC   C4A42318  16.593  33.073   7.399
 3166POPC   C1B42319  16.963  32.786   6.015
 3166POPC   C2B42320  16.920  32.833   6.503
 3166POPC   C3B42321  16.962  32.607   6.915
 3166POPC   C4B42322  16.966  32.730   7.369
 3167POPC   NC342323  30.535  20.257   5.393
 3167POPC   PO442324  31.091  20.455   5.631
 3167POPC   GL142325  30.696  20.590   5.781
 3167POPC   GL242326  30.495  20.889   5.676
 3167POPC   C1A42327  30.696  20.485   6.201
 3167POPC   D2A42328  30.578  20.315   6.569
 3167POPC   C3A42329  30.854  20.454   6.875
 3167POPC   C4A42330  30.616  20.448   7.229
 3167POPC   C1B42331  30.317  20.795   6.088
 3167POPC   C2B42332  30.527  20.860   6.485
 3167POPC   C3B42333  30.503  20.829   6.892
 3167POPC   C4B42334  30.576  20.986   7.281
 3168POPC   NC342335  41.704  12.059   5.498
 3168POPC   PO442336  41.032  11.861   5.371
 3168POPC   GL142337  41.205  12.020   5.840
 3168POPC   GL242338  41.443  12.286   5.863
 3168POPC   C1A42339  41.402  11.915   6.236
 3168POPC   D2A42340  41.249  12.017   6.634
 3168POPC   C3A42341  41.431  11.792   6.958
 3168POPC   C4A42342  41.442  11.909   7.397
 3168POPC   C1B42343  41.736  12.324   6.229
 3168POPC   C2B42344  41.714  12.424   6.695
 3168POPC   C3B42345  41.536  12.302   7.105
 3168POPC   C4B42346  41.741  12.308   7.546
 3169POPC   NC342347  41.128  39.174   5.454
 3169POPC   PO442348  40.484  39.415   5.317
 3169POPC   GL142349  40.656  39.456   5.715
 3169POPC   GL242350  40.710  39.131   5.812
 3169POPC   C1A42351  40.757  39.549   6.133
 3169POPC   D2A42352  41.018  39.426   6.438
 3169POPC   C3A42353  40.842  39.511   6.819
 3169POPC   C4A42354  40.686  39.537   7.217
 3169POPC   C1B42355  40.809  38.987   6.243
 3169POPC   C2B42356  40.889  39.015   6.715
 3169POPC   C3B42357  40.834  38.828   7.144
 3169POPC   C4B42358  41.022  38.672   7.547
 3170POPC   NC342359  11.287   8.274   5.093
 3170POPC   PO442360  11.315   7.867   5.594
 3170POPC   GL142361  11.509   8.247   5.788
 3170POPC   GL242362  11.194   8.351   5.890
 3170POPC   C1A42363  11.526   8.533   6.209
 3170POPC   D2A42364  11.335   8.520   6.607
 3170POPC   C3A42365  11.471   8.516   7.028
 3170POPC   C4A42366  11.221   8.471   7.380
 3170POPC   C1B42367  11.309   8.062   6.223
 3170POPC   C2B42368  11.235   7.980   6.626
 3170POPC   C3B42369  11.112   8.151   6.980
 3170POPC   C4B42370  11.095   7.988   7.358
 3171POPC   NC342371   7.485  10.019   5.159
 3171POPC   PO442372   7.406  10.619   5.439
 3171POPC   GL142373   7.385  10.557   5.858
 3171POPC   GL242374   7.464  10.207   5.871
 3171POPC   C1A42375   7.407  10.518   6.312
 3171POPC   D2A42376   7.721  10.696   6.607
 3171POPC   C3A42377   7.583  10.728   7.020
 3171POPC   C4A42378   7.262  10.910   7.277
 3171POPC   C1B42379   7.801  10.231   6.195
 3171POPC   C2B42380   7.683  10.183   6.632
 3171POPC   C3B42381   7.373  10.242   6.962
 3171POPC   C4B42382   7.236  10.187   7.403
 3172POPC   NC342383   4.011   1.334   5.351
 3172POPC   PO442384   4.637   1.198   5.513
 3172POPC   GL142385   4.474   1.036   5.910
 3172POPC   GL242386   4.173   1.177   5.800
 3172POPC   C1A42387   4.439   1.085   6.375
 3172POPC   D2A42388   4.461   1.429   6.660
 3172POPC   C3A42389   4.418   1.387   7.102
 3172POPC   C4A42390   4.383   1.052   7.365
 3172POPC   C1B42391   3.975   1.082   6.139
 3172POPC   C2B42392   3.943   0.961   6.538
 3172POPC   C3B42393   3.987   1.175   6.916
 3172POPC   C4B42394   3.907   1.181   7.336
 3173POPC   NC342395  35.562   8.981   5.447
 3173POPC   PO442396  35.555   8.381   5.671
 3173POPC   GL142397  35.320   8.748   5.836
 3173POPC   GL242398  35.259   9.148   5.825
 3173POPC   C1A42399  35.132   8.794   6.211
 3173POPC   D2A42400  35.087   8.988   6.621
 3173POPC   C3A42401  35.224   8.848   7.032
 3173POPC   C4A42402  35.656   8.785   7.110
 3173POPC   C1B42403  34.996   9.289   6.186
 3173POPC   C2B42404  35.051   9.501   6.562
 3173POPC   C3B42405  35.291   9.363   6.919
 3173POPC   C4B42406  35.709   9.375   7.118
 3174POPC   NC342407  12.306  38.721   5.273
 3174POPC   PO442408  12.379  39.371   5.316
 3174POPC   GL142409  12.185  39.417   5.747
 3174POPC   GL242410  11.844  39.406   5.714
 3174POPC   C1A42411  12.322  39.241   6.188
 3174POPC   D2A42412  12.242  38.974   6.547
 3174POPC   C3A42413  12.430  39.091   6.943
 3174POPC   C4A42414  12.215  38.992   7.298
 3174POPC   C1B42415  11.825  39.239   6.124
 3174POPC   C2B42416  11.939  39.375   6.535
 3174POPC   C3B42417  11.933  39.206   6.919
 3174POPC   C4B42418  11.704  39.137   7.282
 3175POPC   NC342419  35.993  21.876   5.324
 3175POPC   PO442420  36.062  22.504   5.635
 3175POPC   GL142421  36.349  22.265   5.874
 3175POPC   GL242422  36.384  21.946   5.704
 3175POPC   C1A42423  36.321  22.284   6.297
 3175POPC   D2A42424  35.970  22.288   6.574
 3175POPC   C3A42425  36.074  22.388   6.983
 3175POPC   C4A42426  35.889  22.302   7.391
 3175POPC   C1B42427  36.420  21.788   6.139
 3175POPC   C2B42428  36.308  21.853   6.588
 3175POPC   C3B42429  36.435  21.657   6.982
 3175POPC   C4B42430  36.131  21.892   7.198
 3176POPC   NC342431  37.532   3.587   5.318
 3176POPC   PO442432  36.881   3.436   5.325
 3176POPC   GL142433  36.976   3.583   5.733
 3176POPC   GL242434  36.653   3.619   5.903
 3176POPC   C1A42435  36.992   3.330   6.103
 3176POPC   D2A42436  37.147   3.261   6.506
 3176POPC   C3A42437  36.834   3.496   6.725
 3176POPC   C4A42438  36.737   3.445   7.131
 3176POPC   C1B42439  36.908   3.813   6.266
 3176POPC   C2B42440  36.882   4.060   6.666
 3176POPC   C3B42441  37.000   3.893   7.078
 3176POPC   C4B42442  36.891   3.733   7.506
 3177POPC   NC342443  10.875  31.791   5.377
 3177POPC   PO442444  10.328  31.372   5.389
 3177POPC   GL142445  10.671  31.438   5.688
 3177POPC   GL242446  10.539  31.215   5.883
 3177POPC   C1A42447  10.795  31.735   6.002
 3177POPC   D2A42448  10.773  31.839   6.409
 3177POPC   C3A42449  10.624  31.589   6.741
 3177POPC   C4A42450  10.553  31.713   7.158
 3177POPC   C1B42451  10.622  31.306   6.292
 3177POPC   C2B42452  10.695  31.059   6.625
 3177POPC   C3B42453  10.470  31.148   6.971
 3177POPC   C4B42454  10.594  31.289   7.402
 3178POPC   NC342455  32.243   3.923   5.154
 3178POPC   PO442456  32.014   4.438   5.555
 3178POPC   GL142457  32.349   4.378   5.811
 3178POPC   GL242458  32.231   4.668   5.974
 3178POPC   C1A42459  32.407   4.283   6.237
 3178POPC   D2A42460  32.252   4.121   6.592
 3178POPC   C3A42461  32.414   4.277   6.975
 3178POPC   C4A42462  32.155   4.151   7.347
 3178POPC   C1B42463  31.957   4.600   6.285
 3178POPC   C2B42464  32.002   4.564   6.710
 3178POPC   C3B42465  32.065   4.611   7.113
 3178POPC   C4B42466  32.395   4.607   7.386
 3179POPC   NC342467   6.868  36.512   5.444
 3179POPC   PO442468   6.645  37.147   5.618
 3179POPC   GL142469   6.505  36.830   5.892
 3179POPC   GL242470   6.790  36.694   5.897
 3179POPC   C1A42471   6.613  36.822   6.362
 3179POPC   D2A42472   6.475  37.073   6.730
 3179POPC   C3A42473   6.689  37.059   7.137
 3179POPC   C4A42474   6.521  37.164   7.532
 3179POPC   C1B42475   7.045  36.532   6.161
 3179POPC   C2B42476   7.090  36.506   6.580
 3179POPC   C3B42477   6.779  36.604   6.871
 3179POPC   C4B42478   6.933  36.545   7.232
 3180POPC   NC342479   8.331  24.679   5.266
 3180POPC   PO442480   8.026  25.220   5.520
 3180POPC   GL142481   8.142  25.400   5.870
 3180POPC   GL242482   8.417  25.197   5.901
 3180POPC   C1A42483   8.314  25.610   6.206
 3180POPC   D2A42484   8.125  25.646   6.586
 3180POPC   C3A42485   8.336  25.527   6.920
 3180POPC   C4A42486   8.195  25.565   7.321
 3180POPC   C1B42487   8.192  25.064   6.279
 3180POPC   C2B42488   8.073  24.918   6.698
 3180POPC   C3B42489   8.152  25.070   7.110
 3180POPC   C4B42490   8.545  25.188   7.264
 3181POPC   NC342491  43.725  11.618   5.307
 3181POPC   PO442492  44.252  11.232   5.219
 3181POPC   GL142493  44.022  11.588   5.685
 3181POPC   GL242494  43.668  11.450   5.804
 3181POPC   C1A42495  43.967  11.655   6.140
 3181POPC   D2A42496  44.099  11.533   6.531
 3181POPC   C3A42497  43.903  11.636   6.946
 3181POPC   C4A42498  43.532  11.475   7.134
 3181POPC   C1B42499  43.704  11.223   6.246
 3181POPC   C2B42500  43.714  11.234   6.696
 3181POPC   C3B42501  43.987  11.092   6.997
 3181POPC   C4B42502  44.142  10.785   7.299
 3182POPC   NC342503  26.059  23.322   5.517
 3182POPC   PO442504  25.715  23.881   5.580
 3182POPC   GL142505  25.872  23.644   5.902
 3182POPC   GL242506  26.221  23.700   5.868
 3182POPC   C1A42507  25.904  23.739   6.341
 3182POPC   D2A42508  26.197  23.873   6.681
 3182POPC   C3A42509  25.997  23.836   7.066
 3182POPC   C4A42510  25.890  24.000   7.462
 3182POPC   C1B42511  26.407  23.624   6.293
 3182POPC   C2B42512  26.463  23.318   6.642
 3182POPC   C3B42513  26.200  23.335   7.029
 3182POPC   C4B42514  26.279  23.586   7.414
 3183POPC   NC342515  24.845  22.216   5.452
 3183POPC   PO442516  24.274  21.781   5.321
 3183POPC   GL142517  24.446  21.964   5.713
 3183POPC   GL242518  24.704  21.772   5.882
 3183POPC   C1A42519  24.389  22.237   6.113
 3183POPC   D2A42520  24.312  22.404   6.577
 3183POPC   C3A42521  24.424  22.212   7.000
 3183POPC   C4A42522  24.240  22.274   7.422
 3183POPC   C1B42523  24.933  21.868   6.276
 3183POPC   C2B42524  24.850  21.842   6.744
 3183POPC   C3B42525  24.854  21.903   7.196
 3183POPC   C4B42526  24.713  22.117   7.586
 3184POPC   NC342527   6.191  33.010   5.388
 3184POPC   PO442528   5.565  32.756   5.363
 3184POPC   GL142529   5.845  32.823   5.769
 3184POPC   GL242530   6.235  32.771   5.828
 3184POPC   C1A42531   5.774  33.022   6.186
 3184POPC   D2A42532   5.608  33.178   6.580
 3184POPC   C3A42533   5.831  33.225   6.965
 3184POPC   C4A42534   5.806  33.023   7.398
 3184POPC   C1B42535   6.256  32.924   6.232
 3184POPC   C2B42536   6.033  32.845   6.609
 3184POPC   C3B42537   6.101  32.812   7.028
 3184POPC   C4B42538   6.231  32.583   7.334
 3185POPC   NC342539  23.808  35.147   5.288
 3185POPC   PO442540  24.090  35.752   5.273
 3185POPC   GL142541  23.729  35.552   5.605
 3185POPC   GL242542  23.524  35.195   5.697
 3185POPC   C1A42543  23.702  35.467   6.072
 3185POPC   D2A42544  23.987  35.205   6.303
 3185POPC   C3A42545  23.969  35.169   6.758
 3185POPC   C4A42546  23.976  35.222   7.191
 3185POPC   C1B42547  23.387  34.991   6.120
 3185POPC   C2B42548  23.367  34.966   6.605
 3185POPC   C3B42549  23.501  35.128   7.038
 3185POPC   C4B42550  23.461  35.186   7.528
 3186POPC   NC342551  27.615  27.368   5.154
 3186POPC   PO442552  27.634  27.440   5.738
 3186POPC   GL142553  27.302  27.446   5.989
 3186POPC   GL242554  27.316  27.137   6.093
 3186POPC   C1A42555  27.399  27.621   6.371
 3186POPC   D2A42556  27.701  27.603   6.705
 3186POPC   C3A42557  27.532  27.775   7.078
 3186POPC   C4A42558  27.717  28.060   7.423
 3186POPC   C1B42559  27.708  27.230   6.317
 3186POPC   C2B42560  28.033  27.231   6.531
 3186POPC   C3B42561  27.973  27.174   6.908
 3186POPC   C4B42562  27.838  27.433   7.241
 3187POPC   NC342563  24.819  12.849   5.507
 3187POPC   PO442564  24.179  13.126   5.475
 3187POPC   GL142565  24.362  12.869   5.764
 3187POPC   GL242566  24.356  12.518   5.697
 3187POPC   C1A42567  24.442  13.008   6.150
 3187POPC   D2A42568  24.433  12.863   6.533
 3187POPC   C3A42569  24.171  12.973   6.869
 3187POPC   C4A42570  24.500  12.985   7.164
 3187POPC   C1B42571  24.573  12.500   6.110
 3187POPC   C2B42572  24.485  12.356   6.512
 3187POPC   C3B42573  24.449  12.527   6.910
 3187POPC   C4B42574  24.367  12.442   7.293
 3188POPC   NC342575  35.382  19.604   4.945
 3188POPC   PO442576  35.414  19.579   5.590
 3188POPC   GL142577  35.173  19.890   5.797
 3188POPC   GL242578  35.471  20.019   5.975
 3188POPC   C1A42579  35.021  19.947   6.218
 3188POPC   D2A42580  35.194  20.041   6.639
 3188POPC   C3A42581  35.171  19.786   7.039
 3188POPC   C4A42582  35.221  19.780   7.517
 3188POPC   C1B42583  35.535  19.627   6.273
 3188POPC   C2B42584  35.878  19.393   6.543
 3188POPC   C3B42585  35.912  19.544   6.968
 3188POPC   C4B42586  35.698  19.846   7.193
 3189POPC   NC342587   9.977  15.770   5.496
 3189POPC   PO442588   9.395  15.869   5.314
 3189POPC   GL142589   9.524  15.786   5.753
 3189POPC   GL242590   9.806  16.043   5.897
 3189POPC   C1A42591   9.562  15.714   6.200
 3189POPC   D2A42592   9.599  16.103   6.470
 3189POPC   C3A42593   9.882  16.171   6.796
 3189POPC   C4A42594   9.811  16.082   7.244
 3189POPC   C1B42595  10.026  15.895   6.301
 3189POPC   C2B42596   9.836  15.657   6.643
 3189POPC   C3B42597   9.666  15.643   7.052
 3189POPC   C4B42598   9.964  15.635   7.418
 3190POPC   NC342599  26.035  36.942   5.318
 3190POPC   PO442600  26.141  36.319   5.325
 3190POPC   GL142601  26.116  36.586   5.738
 3190POPC   GL242602  25.948  36.913   5.826
 3190POPC   C1A42603  26.277  36.695   6.165
 3190POPC   D2A42604  26.122  36.929   6.514
 3190POPC   C3A42605  26.150  36.751   6.920
 3190POPC   C4A42606  26.032  36.900   7.304
 3190POPC   C1B42607  25.837  37.199   6.183
 3190POPC   C2B42608  25.805  37.361   6.617
 3190POPC   C3B42609  25.687  37.210   7.055
 3190POPC   C4B42610  25.669  37.161   7.533
 3191POPC   NC342611  35.005  27.174   5.391
 3191POPC   PO442612  35.463  26.543   5.412
 3191POPC   GL142613  35.329  26.683   5.874
 3191POPC   GL242614  35.175  27.043   5.981
 3191POPC   C1A42615  35.195  26.699   6.338
 3191POPC   D2A42616  35.137  26.847   6.756
 3191POPC   C3A42617  35.412  26.589   6.944
 3191POPC   C4A42618  35.495  26.685   7.331
 3191POPC   C1B42619  35.551  27.061   6.207
 3191POPC   C2B42620  35.626  26.965   6.634
 3191POPC   C3B42621  35.507  27.125   7.058
 3191POPC   C4B42622  35.348  27.181   7.501
 3192POPC   NC342623   8.637  41.720   5.646
 3192POPC   PO442624   8.093  41.591   5.243
 3192POPC   GL142625   8.129  41.607   5.701
 3192POPC   GL242626   8.241  41.290   5.764
 3192POPC   C1A42627   8.218  41.600   6.185
 3192POPC   D2A42628   8.192  41.839   6.591
 3192POPC   C3A42629   8.193  41.594   6.949
 3192POPC   C4A42630   8.153  41.692   7.350
 3192POPC   C1B42631   8.490  41.168   6.122
 3192POPC   C2B42632   8.368  41.165   6.546
 3192POPC   C3B42633   8.516  41.172   6.958
 3192POPC   C4B42634   8.463  41.223   7.353
 3193POPC   NC342635  33.851   9.496   5.329
 3193POPC   PO442636  33.426  10.001   5.344
 3193POPC   GL142637  33.748   9.855   5.715
 3193POPC   GL242638  33.992   9.558   5.808
 3193POPC   C1A42639  33.625   9.672   6.165
 3193POPC   D2A42640  33.415   9.438   6.539
 3193POPC   C3A42641  33.497   9.646   6.944
 3193POPC   C4A42642  33.689   9.619   7.355
 3193POPC   C1B42643  34.115   9.839   6.131
 3193POPC   C2B42644  33.951   9.854   6.547
 3193POPC   C3B42645  34.038   9.741   6.952
 3193POPC   C4B42646  34.047   9.998   7.301
 3194POPC   NC342647  17.699   6.684   5.415
 3194POPC   PO442648  17.175   6.352   5.329
 3194POPC   GL142649  17.358   6.476   5.790
 3194POPC   GL242650  17.490   6.768   5.876
 3194POPC   C1A42651  17.618   6.416   6.212
 3194POPC   D2A42652  17.805   6.424   6.638
 3194POPC   C3A42653  17.605   6.562   7.056
 3194POPC   C4A42654  17.370   6.358   7.410
 3194POPC   C1B42655  17.616   6.950   6.266
 3194POPC   C2B42656  17.698   6.931   6.671
 3194POPC   C3B42657  17.458   7.058   7.011
 3194POPC   C4B42658  17.168   6.857   7.289
 3195POPC   NC342659  34.633  11.771   5.498
 3195POPC   PO442660  34.347  12.390   5.436
 3195POPC   GL142661  34.391  12.123   5.763
 3195POPC   GL242662  34.727  12.228   5.802
 3195POPC   C1A42663  34.273  11.867   6.139
 3195POPC   D2A42664  34.075  11.968   6.539
 3195POPC   C3A42665  34.262  11.716   6.829
 3195POPC   C4A42666  34.618  11.819   7.103
 3195POPC   C1B42667  34.495  12.314   6.210
 3195POPC   C2B42668  34.479  12.388   6.635
 3195POPC   C3B42669  34.334  12.260   7.034
 3195POPC   C4B42670  34.517  12.158   7.466
 3196POPC   NC342671  28.604  44.109   5.160
 3196POPC   PO442672  28.133  43.658   5.341
 3196POPC   GL142673  28.203  43.943   5.711
 3196POPC   GL242674  28.567  43.988   5.670
 3196POPC   C1A42675  28.122  44.023   6.191
 3196POPC   D2A42676  28.059  43.786   6.607
 3196POPC   C3A42677  28.239  43.904   6.993
 3196POPC   C4A42678  28.178  43.934   7.439
 3196POPC   C1B42679  28.614  43.931   6.129
 3196POPC   C2B42680  28.506  44.039   6.573
 3196POPC   C3B42681  28.716  44.062   6.955
 3196POPC   C4B42682  28.677  43.859   7.343
 3197POPC   NC342683   3.484  36.834   5.308
 3197POPC   PO442684   3.267  37.503   5.418
 3197POPC   GL142685   3.506  37.282   5.682
 3197POPC   GL242686   3.224  37.090   5.795
 3197POPC   C1A42687   3.729  37.093   6.018
 3197POPC   D2A42688   3.496  37.023   6.400
 3197POPC   C3A42689   3.666  37.064   6.803
 3197POPC   C4A42690   3.614  36.773   7.113
 3197POPC   C1B42691   3.098  37.293   6.205
 3197POPC   C2B42692   3.047  37.153   6.652
 3197POPC   C3B42693   3.163  37.043   7.082
 3197POPC   C4B42694   3.246  37.240   7.473
 3198POPC   NC342695  36.050  14.488   5.288
 3198POPC   PO442696  36.582  14.872   5.112
 3198POPC   GL142697  36.454  14.678   5.579
 3198POPC   GL242698  36.305  14.314   5.693
 3198POPC   C1A42699  36.128  14.698   5.966
 3198POPC   D2A42700  36.156  14.588   6.412
 3198POPC   C3A42701  35.933  14.419   6.769
 3198POPC   C4A42702  36.106  14.480   7.183
 3198POPC   C1B42703  36.101  14.170   6.109
 3198POPC   C2B42704  36.262  14.086   6.546
 3198POPC   C3B42705  36.212  14.013   6.995
 3198POPC   C4B42706  35.933  14.032   7.367
 3199POPC   NC342707  34.178  35.631   5.197
 3199POPC   PO442708  34.816  35.535   5.339
 3199POPC   GL142709  34.525  35.405   5.708
 3199POPC   GL242710  34.336  35.071   5.656
 3199POPC   C1A42711  34.716  35.409   6.141
 3199POPC   D2A42712  34.796  35.637   6.537
 3199POPC   C3A42713  34.846  35.397   6.936
 3199POPC   C4A42714  34.603  35.392   7.320
 3199POPC   C1B42715  34.377  35.021   6.113
 3199POPC   C2B42716  34.424  35.223   6.531
 3199POPC   C3B42717  34.399  35.122   6.951
 3199POPC   C4B42718  34.273  35.005   7.352
 3200POPC   NC342719  39.053   7.138   5.461
 3200POPC   PO442720  39.618   7.366   5.618
 3200POPC   GL142721  39.224   7.400   5.873
 3200POPC   GL242722  38.962   7.649   5.757
 3200POPC   C1A42723  39.110   7.136   6.226
 3200POPC   D2A42724  39.335   7.103   6.606
 3200POPC   C3A42725  39.129   7.042   6.984
 3200POPC   C4A42726  39.394   7.162   7.289
 3200POPC   C1B42727  38.804   7.560   6.195
 3200POPC   C2B42728  38.903   7.419   6.640
 3200POPC   C3B42729  39.126   7.553   7.034
 3200POPC   C4B42730  39.175   7.868   7.363
 3201POPC   NC342731  32.682  32.600   5.620
 3201POPC   PO442732  32.417  33.015   5.165
 3201POPC   GL142733  32.408  33.027   5.622
 3201POPC   GL242734  32.194  32.722   5.685
 3201POPC   C1A42735  32.430  33.062   6.093
 3201POPC   D2A42736  32.334  33.297   6.497
 3201POPC   C3A42737  32.028  33.320   6.813
 3201POPC   C4A42738  32.204  33.103   7.140
 3201POPC   C1B42739  31.957  32.878   6.033
 3201POPC   C2B42740  31.945  32.907   6.484
 3201POPC   C3B42741  32.007  32.682   6.863
 3201POPC   C4B42742  32.062  32.634   7.299
 3202POPC   NC342743  15.105  14.853   5.777
 3202POPC   PO442744  15.112  15.461   5.473
 3202POPC   GL142745  15.141  15.373   5.859
 3202POPC   GL242746  15.434  15.564   5.915
 3202POPC   C1A42747  14.853  15.306   6.201
 3202POPC   D2A42748  14.819  15.364   6.633
 3202POPC   C3A42749  15.102  15.084   6.850
 3202POPC   C4A42750  14.951  14.912   7.226
 3202POPC   C1B42751  15.341  15.461   6.343
 3202POPC   C2B42752  15.285  15.565   6.776
 3202POPC   C3B42753  15.416  15.524   7.185
 3202POPC   C4B42754  15.590  15.561   7.600
 3203POPC   NC342755  32.518  16.574   5.511
 3203POPC   PO442756  32.074  17.057   5.233
 3203POPC   GL142757  32.218  16.953   5.727
 3203POPC   GL242758  32.206  16.582   5.893
 3203POPC   C1A42759  32.364  16.949   6.194
 3203POPC   D2A42760  32.122  16.770   6.546
 3203POPC   C3A42761  32.139  17.011   6.912
 3203POPC   C4A42762  32.415  16.951   7.247
 3203POPC   C1B42763  32.426  16.425   6.281
 3203POPC   C2B42764  32.551  16.550   6.705
 3203POPC   C3B42765  32.274  16.499   7.060
 3203POPC   C4B42766  32.309  16.520   7.525
 3204POPC   NC342767   9.480  13.460   5.423
 3204POPC   PO442768  10.092  13.760   5.291
 3204POPC   GL142769   9.893  13.643   5.729
 3204POPC   GL242770   9.534  13.718   5.872
 3204POPC   C1A42771   9.831  13.387   6.124
 3204POPC   D2A42772   9.630  13.239   6.521
 3204POPC   C3A42773   9.775  13.499   6.874
 3204POPC   C4A42774  10.056  13.539   7.243
 3204POPC   C1B42775   9.855  13.923   6.172
 3204POPC   C2B42776   9.855  14.023   6.631
 3204POPC   C3B42777   9.787  13.984   7.083
 3204POPC   C4B42778   9.485  13.713   7.284
 3205POPC   NC342779  43.152  43.496   5.452
 3205POPC   PO442780  42.850  42.868   5.424
 3205POPC   GL142781  42.927  43.151   5.725
 3205POPC   GL242782  43.231  43.070   5.826
 3205POPC   C1A42783  42.870  43.378   6.136
 3205POPC   D2A42784  42.652  43.211   6.512
 3205POPC   C3A42785  42.874  43.268   6.887
 3205POPC   C4A42786  43.099  43.419   7.235
 3205POPC   C1B42787  42.907  42.884   6.145
 3205POPC   C2B42788  43.111  42.929   6.530
 3205POPC   C3B42789  43.263  42.942   6.919
 3205POPC   C4B42790  43.038  42.918   7.275
 3206POPC   NC342791  17.442  24.870   5.419
 3206POPC   PO442792  17.636  24.242   5.388
 3206POPC   GL142793  17.455  24.464   5.716
 3206POPC   GL242794  17.755  24.656   5.791
 3206POPC   C1A42795  17.332  24.635   6.114
 3206POPC   D2A42796  17.535  24.385   6.432
 3206POPC   C3A42797  17.318  24.148   6.748
 3206POPC   C4A42798  17.261  24.349   7.124
 3206POPC   C1B42799  17.790  24.823   6.205
 3206POPC   C2B42800  17.532  24.853   6.595
 3206POPC   C3B42801  17.660  24.584   6.923
 3206POPC   C4B42802  17.636  24.648   7.365
 3207POPC   NC342803  42.333  42.929   5.361
 3207POPC   PO442804  42.380  43.600   5.265
 3207POPC   GL142805  42.277  43.326   5.688
 3207POPC   GL242806  42.451  43.028   5.839
 3207POPC   C1A42807  42.329  43.404   6.152
 3207POPC   D2A42808  42.311  43.605   6.547
 3207POPC   C3A42809  42.368  43.375   6.938
 3207POPC   C4A42810  42.177  43.442   7.355
 3207POPC   C1B42811  42.375  42.853   6.242
 3207POPC   C2B42812  42.644  42.700   6.570
 3207POPC   C3B42813  42.583  42.855   6.981
 3207POPC   C4B42814  42.205  42.939   7.183
 3208POPC   NC342815   4.951   9.641   5.115
 3208POPC   PO442816   5.485   9.784   5.530
 3208POPC   GL142817   5.177   9.763   5.851
 3208POPC   GL242818   4.819   9.927   5.799
 3208POPC   C1A42819   5.133   9.418   6.172
 3208POPC   D2A42820   5.222   9.260   6.612
 3208POPC   C3A42821   5.113   9.578   6.929
 3208POPC   C4A42822   5.263   9.864   7.264
 3208POPC   C1B42823   4.542  10.056   6.150
 3208POPC   C2B42824   4.633  10.161   6.580
 3208POPC   C3B42825   4.881  10.080   6.943
 3208POPC   C4B42826   4.752   9.800   7.245
 3209POPC   NC342827  39.721  31.058   5.562
 3209POPC   PO442828  39.165  30.704   5.465
 3209POPC   GL142829  39.273  30.883   5.839
 3209POPC   GL242830  39.076  31.189   5.914
 3209POPC   C1A42831  39.274  30.655   6.250
 3209POPC   D2A42832  39.023  30.619   6.631
 3209POPC   C3A42833  39.255  30.692   7.009
 3209POPC   C4A42834  39.682  30.682   7.149
 3209POPC   C1B42835  39.383  31.161   6.256
 3209POPC   C2B42836  39.492  31.017   6.675
 3209POPC   C3B42837  39.485  31.160   7.127
 3209POPC   C4B42838  39.315  30.962   7.495
 3210POPC   NC342839  24.745  31.267   5.435
 3210POPC   PO442840  24.484  30.612   5.411
 3210POPC   GL142841  24.495  30.617   5.868
 3210POPC   GL242842  24.380  30.963   5.905
 3210POPC   C1A42843  24.686  30.782   6.282
 3210POPC   D2A42844  24.703  30.903   6.728
 3210POPC   C3A42845  24.666  30.581   7.049
 3210POPC   C4A42846  24.272  30.374   7.185
 3210POPC   C1B42847  24.284  31.147   6.323
 3210POPC   C2B42848  24.046  31.062   6.689
 3210POPC   C3B42849  24.095  30.929   7.121
 3210POPC   C4B42850  24.416  30.855   7.389
 3211POPC   NC342851  23.408   9.891   5.386
 3211POPC   PO442852  24.013   9.615   5.511
 3211POPC   GL142853  23.651   9.664   5.802
 3211POPC   GL242854  23.580   9.968   5.930
 3211POPC   C1A42855  23.660   9.477   6.236
 3211POPC   D2A42856  23.902   9.282   6.592
 3211POPC   C3A42857  23.694   9.449   6.974
 3211POPC   C4A42858  23.353   9.663   7.225
 3211POPC   C1B42859  23.999   9.852   6.131
 3211POPC   C2B42860  24.053   9.782   6.574
 3211POPC   C3B42861  23.824  10.017   6.897
 3211POPC   C4B42862  24.006  10.248   7.226
 3212POPC   NC342863  20.517   1.550   5.376
 3212POPC   PO442864  20.830   2.064   5.161
 3212POPC   GL142865  20.778   2.033   5.636
 3212POPC   GL242866  21.049   1.918   5.883
 3212POPC   C1A42867  20.576   2.001   6.058
 3212POPC   D2A42868  20.686   1.973   6.498
 3212POPC   C3A42869  20.473   2.130   6.859
 3212POPC   C4A42870  20.702   2.477   7.108
 3212POPC   C1B42871  20.985   1.607   6.243
 3212POPC   C2B42872  20.833   1.516   6.654
 3212POPC   C3B42873  20.849   1.821   6.987
 3212POPC   C4B42874  20.842   2.020   7.393
 3213POPC   NC342875  26.478  25.881   5.610
 3213POPC   PO442876  27.094  25.843   5.484
 3213POPC   GL142877  27.023  26.197   5.786
 3213POPC   GL242878  26.691  26.319   5.865
 3213POPC   C1A42879  27.156  26.243   6.213
 3213POPC   D2A42880  26.956  26.295   6.609
 3213POPC   C3A42881  27.132  26.180   7.010
 3213POPC   C4A42882  27.053  26.091   7.463
 3213POPC   C1B42883  26.680  26.010   6.245
 3213POPC   C2B42884  26.693  25.850   6.690
 3213POPC   C3B42885  26.757  25.844   7.109
 3213POPC   C4B42886  26.575  26.244   7.071
 3214POPC   NC342887  34.743  36.946   5.267
 3214POPC   PO442888  34.119  36.769   5.442
 3214POPC   GL142889  34.353  36.883   5.813
 3214POPC   GL242890  34.646  37.034   5.754
 3214POPC   C1A42891  34.580  36.780   6.188
 3214POPC   D2A42892  34.536  36.554   6.540
 3214POPC   C3A42893  34.338  36.717   6.872
 3214POPC   C4A42894  34.529  37.007   7.162
 3214POPC   C1B42895  34.821  37.226   6.148
 3214POPC   C2B42896  34.715  37.205   6.601
 3214POPC   C3B42897  34.913  37.281   7.001
 3214POPC   C4B42898  34.838  37.293   7.474
 3215POPC   NC342899  32.702  39.379   5.379
 3215POPC   PO442900  32.174  39.045   5.330
 3215POPC   GL142901  32.106  39.270   5.737
 3215POPC   GL242902  32.418  39.177   5.868
 3215POPC   C1A42903  32.099  39.389   6.226
 3215POPC   D2A42904  32.357  39.257   6.599
 3215POPC   C3A42905  32.359  39.469   6.983
 3215POPC   C4A42906  32.054  39.676   7.133
 3215POPC   C1B42907  32.129  38.880   6.117
 3215POPC   C2B42908  32.009  38.886   6.568
 3215POPC   C3B42909  32.100  39.008   7.009
 3215POPC   C4B42910  32.469  39.084   7.277
 3216POPC   NC342911  40.953  13.321   5.426
 3216POPC   PO442912  40.566  13.851   5.440
 3216POPC   GL142913  40.855  13.863   5.811
 3216POPC   GL242914  40.988  13.511   5.893
 3216POPC   C1A42915  40.789  13.816   6.264
 3216POPC   D2A42916  40.566  13.449   6.477
 3216POPC   C3A42917  40.523  13.501   6.914
 3216POPC   C4A42918  40.485  13.777   7.269
 3216POPC   C1B42919  41.036  13.330   6.299
 3216POPC   C2B42920  41.071  13.622   6.657
 3216POPC   C3B42921  40.952  13.735   7.052
 3216POPC   C4B42922  40.844  13.398   7.319
 3217POPC   NC342923  21.782  25.492   5.099
 3217POPC   PO442924  22.298  25.144   5.219
 3217POPC   GL142925  22.299  25.207   5.692
 3217POPC   GL242926  22.497  25.516   5.787
 3217POPC   C1A42927  22.078  25.183   6.132
 3217POPC   D2A42928  22.094  25.336   6.577
 3217POPC   C3A42929  22.073  25.088   6.961
 3217POPC   C4A42930  22.155  25.155   7.413
 3217POPC   C1B42931  22.440  25.556   6.248
 3217POPC   C2B42932  22.590  25.419   6.672
 3217POPC   C3B42933  22.511  25.392   7.120
 3217POPC   C4B42934  22.606  25.380   7.587
 3218POPC   NC342935  24.394   6.818   5.401
 3218POPC   PO442936  24.523   6.184   5.613
 3218POPC   GL142937  24.416   6.558   5.863
 3218POPC   GL242938  24.673   6.840   5.835
 3218POPC   C1A42939  24.092   6.551   6.208
 3218POPC   D2A42940  24.002   6.435   6.652
 3218POPC   C3A42941  24.209   6.575   7.032
 3218POPC   C4A42942  24.545   6.481   7.314
 3218POPC   C1B42943  24.775   6.956   6.267
 3218POPC   C2B42944  24.730   6.775   6.687
 3218POPC   C3B42945  24.964   6.707   7.075
 3218POPC   C4B42946  24.930   6.961   7.437
 3219POPC   NC342947  30.526   8.608   5.608
 3219POPC   PO442948  30.905   9.134   5.434
 3219POPC   GL142949  30.573   9.124   5.751
 3219POPC   GL242950  30.808   8.887   5.929
 3219POPC   C1A42951  30.397   9.073   6.188
 3219POPC   D2A42952  30.759   9.145   6.456
 3219POPC   C3A42953  30.778   9.135   6.905
 3219POPC   C4A42954  30.830   9.364   7.305
 3219POPC   C1B42955  30.654   8.624   6.260
 3219POPC   C2B42956  30.505   8.721   6.650
 3219POPC   C3B42957  30.683   8.635   7.035
 3219POPC   C4B42958  30.608   8.907   7.334
 3220POPC   NC342959  38.257  11.824   5.377
 3220POPC   PO442960  38.399  12.441   5.600
 3220POPC   GL142961  38.328  12.116   5.827
 3220POPC   GL242962  38.670  11.968   5.781
 3220POPC   C1A42963  38.090  12.079   6.235
 3220POPC   D2A42964  38.063  12.317   6.636
 3220POPC   C3A42965  38.237  12.189   7.049
 3220POPC   C4A42966  38.289  11.861   7.379
 3220POPC   C1B42967  38.523  11.830   6.193
 3220POPC   C2B42968  38.522  12.036   6.580
 3220POPC   C3B42969  38.633  11.865   6.959
 3220POPC   C4B42970  38.733  12.109   7.274
 3221POPC   NC342971  16.533  11.917   5.340
 3221POPC   PO442972  16.978  12.407   5.343
 3221POPC   GL142973  16.832  12.138   5.680
 3221POPC   GL242974  16.454  12.170   5.783
 3221POPC   C1A42975  16.810  12.188   6.124
 3221POPC   D2A42976  16.967  12.114   6.517
 3221POPC   C3A42977  16.687  11.916   6.782
 3221POPC   C4A42978  16.532  11.966   7.193
 3221POPC   C1B42979  16.263  12.216   6.229
 3221POPC   C2B42980  16.261  12.213   6.692
 3221POPC   C3B42981  16.050  12.179   7.065
 3221POPC   C4B42982  16.156  12.133   7.517
 3222POPC   NC342983  42.494  23.834   5.345
 3222POPC   PO442984  41.918  24.032   5.628
 3222POPC   GL142985  42.271  23.732   5.809
 3222POPC   GL242986  42.634  23.837   5.825
 3222POPC   C1A42987  42.403  23.579   6.219
 3222POPC   D2A42988  42.178  23.685   6.581
 3222POPC   C3A42989  42.295  23.479   6.890
 3222POPC   C4A42990  42.572  23.547   7.168
 3222POPC   C1B42991  42.661  24.051   6.211
 3222POPC   C2B42992  42.671  23.888   6.637
 3222POPC   C3B42993  42.388  23.985   6.958
 3222POPC   C4B42994  42.426  24.186   7.340
 3223POPC   NC342995  20.111   3.132   5.213
 3223POPC   PO442996  20.028   2.520   5.547
 3223POPC   GL142997  19.874   2.589   5.930
 3223POPC   GL242998  19.566   2.612   5.817
 3223POPC   C1A42999  20.048   2.733   6.303
 3223POPC   D2A43000  19.890   2.755   6.668
 3223POPC   C3A43001  19.888   3.109   6.895
 3223POPC   C4A43002  19.897   2.959   7.329
 3223POPC   C1B43003  19.525   2.804   6.236
 3223POPC   C2B43004  19.423   2.967   6.616
 3223POPC   C3B43005  19.479   2.825   7.005
 3223POPC   C4B43006  19.628   2.517   7.232
 3224POPC   NC343007   1.447  23.475   5.100
 3224POPC   PO443008   1.213  24.056   5.405
 3224POPC   GL143009   1.117  23.697   5.674
 3224POPC   GL243010   1.322  23.884   5.913
 3224POPC   C1A43011   1.065  23.530   6.120
 3224POPC   D2A43012   1.222  23.652   6.524
 3224POPC   C3A43013   0.960  23.691   6.882
 3224POPC   C4A43014   1.052  24.054   7.102
 3224POPC   C1B43015   1.599  24.017   6.221
 3224POPC   C2B43016   1.684  23.869   6.625
 3224POPC   C3B43017   1.475  23.786   6.995
 3224POPC   C4B43018   1.540  23.984   7.401
 3225POPC   NC343019  40.952  18.239   5.438
 3225POPC   PO443020  40.431  17.847   5.469
 3225POPC   GL143021  40.628  17.986   5.886
 3225POPC   GL243022  40.742  18.323   5.921
 3225POPC   C1A43023  40.646  17.992   6.340
 3225POPC   D2A43024  40.867  18.077   6.739
 3225POPC   C3A43025  40.615  18.346   6.994
 3225POPC   C4A43026  40.607  18.389   7.411
 3225POPC   C1B43027  41.000  18.457   6.248
 3225POPC   C2B43028  41.216  18.439   6.612
 3225POPC   C3B43029  41.114  18.623   7.002
 3225POPC   C4B43030  41.097  18.619   7.466
 3226POPC   NC343031  23.177  21.572   5.353
 3226POPC   PO443032  22.545  21.681   5.252
 3226POPC   GL143033  22.738  21.581   5.677
 3226POPC   GL243034  23.025  21.347   5.771
 3226POPC   C1A43035  22.745  21.589   6.150
 3226POPC   D2A43036  22.903  21.651   6.594
 3226POPC   C3A43037  22.750  21.461   6.972
 3226POPC   C4A43038  22.711  21.713   7.336
 3226POPC   C1B43039  23.262  21.402   6.151
 3226POPC   C2B43040  23.273  21.278   6.545
 3226POPC   C3B43041  23.280  21.438   6.905
 3226POPC   C4B43042  23.191  21.507   7.289
 3227POPC   NC343043   1.572   9.139   5.543
 3227POPC   PO443044   1.018   8.891   5.429
 3227POPC   GL143045   1.131   9.077   5.814
 3227POPC   GL243046   0.882   8.937   5.979
 3227POPC   C1A43047   1.151   9.294   6.230
 3227POPC   D2A43048   0.877   9.301   6.599
 3227POPC   C3A43049   1.012   8.992   6.939
 3227POPC   C4A43050   1.385   8.950   7.223
 3227POPC   C1B43051   0.925   8.823   6.398
 3227POPC   C2B43052   1.148   8.569   6.667
 3227POPC   C3B43053   1.208   8.497   7.091
 3227POPC   C4B43054   0.937   8.712   7.384
 3228POPC   NC343055  20.113  32.651   5.449
 3228POPC   PO443056  20.090  31.965   5.505
 3228POPC   GL143057  19.920  32.273   5.772
 3228POPC   GL243058  19.591  32.161   5.674
 3228POPC   C1A43059  19.928  32.430   6.210
 3228POPC   D2A43060  20.117  32.212   6.590
 3228POPC   C3A43061  19.921  32.309   6.984
 3228POPC   C4A43062  19.702  32.368   7.381
 3228POPC   C1B43063  19.501  32.169   6.130
 3228POPC   C2B43064  19.571  32.341   6.573
 3228POPC   C3B43065  19.384  32.325   6.960
 3228POPC   C4B43066  19.194  32.171   7.331
 3229POPC   NC343067  33.704   0.693   5.485
 3229POPC   PO443068  34.112   0.283   5.745
 3229POPC   GL143069  33.812   0.400   5.963
 3229POPC   GL243070  33.522   0.333   5.788
 3229POPC   C1A43071  33.816   0.214   6.351
 3229POPC   D2A43072  33.640   0.267   6.698
 3229POPC   C3A43073  33.934   0.490   6.907
 3229POPC   C4A43074  34.121   0.425   7.294
 3229POPC   C1B43075  33.335   0.329   6.197
 3229POPC   C2B43076  33.158   0.171   6.563
 3229POPC   C3B43077  33.246   0.278   7.004
 3229POPC   C4B43078  33.563   0.480   7.237
 3230POPC   NC343079  26.649  39.961   5.357
 3230POPC   PO443080  27.322  39.756   5.545
 3230POPC   GL143081  27.043  40.059   5.791
 3230POPC   GL243082  26.724  39.923   5.837
 3230POPC   C1A43083  26.792  40.270   6.163
 3230POPC   D2A43084  26.682  40.145   6.575
 3230POPC   C3A43085  26.990  40.102   6.851
 3230POPC   C4A43086  26.901  40.087   7.245
 3230POPC   C1B43087  26.897  39.773   6.203
 3230POPC   C2B43088  26.792  39.611   6.597
 3230POPC   C3B43089  26.636  39.772   6.958
 3230POPC   C4B43090  26.520  39.777   7.409
 3231POPC   NC343091  32.492  41.035   5.524
 3231POPC   PO443092  33.129  41.055   5.240
 3231POPC   GL143093  32.991  40.800   5.655
 3231POPC   GL243094  32.889  40.427   5.680
 3231POPC   C1A43095  33.016  40.892   6.123
 3231POPC   D2A43096  32.921  41.194   6.490
 3231POPC   C3A43097  33.007  40.988   6.882
 3231POPC   C4A43098  33.200  40.707   7.226
 3231POPC   C1B43099  32.674  40.474   6.105
 3231POPC   C2B43100  32.659  40.675   6.523
 3231POPC   C3B43101  32.839  40.511   6.905
 3231POPC   C4B43102  32.825  40.313   7.284
 3232POPC   NC343103  11.018  12.537   5.312
 3232POPC   PO443104  11.545  12.924   5.421
 3232POPC   GL143105  11.440  12.769   5.840
 3232POPC   GL243106  11.228  12.515   5.821
 3232POPC   C1A43107  11.202  12.870   6.227
 3232POPC   D2A43108  11.121  13.082   6.611
 3232POPC   C3A43109  11.224  12.893   7.002
 3232POPC   C4A43110  11.260  12.986   7.436
 3232POPC   C1B43111  11.029  12.400   6.216
 3232POPC   C2B43112  11.004  12.574   6.622
 3232POPC   C3B43113  11.088  12.408   6.970
 3232POPC   C4B43114  11.089  12.510   7.342
 3233POPC   NC343115  18.205   2.656   5.469
 3233POPC   PO443116  18.734   3.091   5.676
 3233POPC   GL143117  18.395   2.905   5.918
 3233POPC   GL243118  18.024   2.896   5.868
 3233POPC   C1A43119  18.409   2.814   6.354
 3233POPC   D2A43120  18.512   3.009   6.754
 3233POPC   C3A43121  18.608   2.727   7.086
 3233POPC   C4A43122  18.611   2.660   7.516
 3233POPC   C1B43123  17.904   2.734   6.281
 3233POPC   C2B43124  18.055   2.752   6.739
 3233POPC   C3B43125  18.123   2.897   7.157
 3233POPC   C4B43126  18.098   2.603   7.487
 3234POPC   NC343127   5.072  31.739   5.585
 3234POPC   PO443128   5.194  31.084   5.414
 3234POPC   GL143129   5.055  31.268   5.818
 3234POPC   GL243130   5.385  31.368   5.873
 3234POPC   C1A43131   5.040  31.546   6.235
 3234POPC   D2A43132   4.896  31.811   6.587
 3234POPC   C3A43133   4.856  31.630   6.989
 3234POPC   C4A43134   4.908  31.405   7.380
 3234POPC   C1B43135   5.529  31.663   6.210
 3234POPC   C2B43136   5.366  31.587   6.658
 3234POPC   C3B43137   5.322  31.392   7.076
 3234POPC   C4B43138   5.397  31.401   7.563
 3235POPC   NC343139  30.870   4.513   5.144
 3235POPC   PO443140  30.515   4.302   5.595
 3235POPC   GL143141  30.651   4.512   5.959
 3235POPC   GL243142  31.024   4.529   5.880
 3235POPC   C1A43143  30.498   4.574   6.383
 3235POPC   D2A43144  30.701   4.273   6.614
 3235POPC   C3A43145  30.556   3.995   6.898
 3235POPC   C4A43146  30.540   4.209   7.298
 3235POPC   C1B43147  31.005   4.679   6.297
 3235POPC   C2B43148  31.024   4.658   6.719
 3235POPC   C3B43149  30.755   4.593   7.036
 3235POPC   C4B43150  30.986   4.495   7.404
 3236POPC   NC343151  43.391  38.639   5.503
 3236POPC   PO443152  42.771  38.815   5.485
 3236POPC   GL143153  42.992  38.598   5.870
 3236POPC   GL243154  42.910  38.260   5.949
 3236POPC   C1A43155  43.014  38.509   6.353
 3236POPC   D2A43156  43.343  38.609   6.585
 3236POPC   C3A43157  43.274  38.583   6.980
 3236POPC   C4A43158  42.903  38.632   7.200
 3236POPC   C1B43159  43.382  38.229   6.143
 3236POPC   C2B43160  43.447  38.097   6.554
 3236POPC   C3B43161  43.108  38.137   6.794
 3236POPC   C4B43162  43.106  38.161   7.225
 3237POPC   NC343163  33.155  37.202   5.462
 3237POPC   PO443164  33.048  37.870   5.386
 3237POPC   GL143165  33.097  37.797   5.823
 3237POPC   GL243166  33.380  37.976   5.967
 3237POPC   C1A43167  32.925  37.893   6.249
 3237POPC   D2A43168  32.937  37.875   6.717
 3237POPC   C3A43169  32.841  37.501   6.957
 3237POPC   C4A43170  32.909  37.433   7.377
 3237POPC   C1B43171  33.341  37.560   6.233
 3237POPC   C2B43172  33.277  37.400   6.673
 3237POPC   C3B43173  33.367  37.525   7.099
 3237POPC   C4B43174  33.384  37.632   7.542
 3238POPC   NC343175  38.637  41.205   5.408
 3238POPC   PO443176  38.521  40.498   5.519
 3238POPC   GL143177  38.486  40.696   5.897
 3238POPC   GL243178  38.376  41.013   5.805
 3238POPC   C1A43179  38.406  40.677   6.330
 3238POPC   D2A43180  38.149  40.843   6.642
 3238POPC   C3A43181  38.146  40.674   7.037
 3238POPC   C4A43182  38.534  40.523   7.209
 3238POPC   C1B43183  38.595  41.142   6.177
 3238POPC   C2B43184  38.810  41.097   6.552
 3238POPC   C3B43185  38.599  40.951   6.895
 3238POPC   C4B43186  38.632  41.092   7.276
 3239POPC   NC343187  42.924  36.546   5.523
 3239POPC   PO443188  43.045  35.874   5.248
 3239POPC   GL143189  43.168  36.014   5.631
 3239POPC   GL243190  42.858  35.872   5.759
 3239POPC   C1A43191  43.213  36.199   6.045
 3239POPC   D2A43192  43.080  36.448   6.393
 3239POPC   C3A43193  43.244  36.336   6.787
 3239POPC   C4A43194  43.081  36.267   7.201
 3239POPC   C1B43195  43.042  35.731   6.162
 3239POPC   C2B43196  43.240  35.919   6.511
 3239POPC   C3B43197  43.237  35.854   6.954
 3239POPC   C4B43198  42.899  35.663   7.159
 3240POPC   NC343199  26.533  36.308   5.575
 3240POPC   PO443200  27.188  36.110   5.353
 3240POPC   GL143201  27.048  36.233   5.765
 3240POPC   GL243202  26.783  36.007   5.898
 3240POPC   C1A43203  26.943  36.387   6.194
 3240POPC   D2A43204  26.806  36.578   6.566
 3240POPC   C3A43205  26.716  36.409   6.986
 3240POPC   C4A43206  26.473  36.594   7.306
 3240POPC   C1B43207  26.561  36.037   6.303
 3240POPC   C2B43208  26.644  35.958   6.747
 3240POPC   C3B43209  27.006  35.827   6.987
 3240POPC   C4B43210  27.249  35.689   7.359
 3241POPC   NC343211  17.004  25.601   5.474
 3241POPC   PO443212  16.454  25.326   5.249
 3241POPC   GL143213  16.630  25.296   5.675
 3241POPC   GL243214  16.512  25.023   5.868
 3241POPC   C1A43215  16.783  25.382   6.114
 3241POPC   D2A43216  16.658  25.286   6.524
 3241POPC   C3A43217  16.929  25.085   6.818
 3241POPC   C4A43218  16.805  25.163   7.237
 3241POPC   C1B43219  16.770  24.859   6.192
 3241POPC   C2B43220  16.568  24.775   6.565
 3241POPC   C3B43221  16.434  24.972   6.916
 3241POPC   C4B43222  16.425  24.789   7.322
 3242POPC   NC343223  33.443  13.839   5.438
 3242POPC   PO443224  33.986  13.586   5.447
 3242POPC   GL143225  33.937  13.652   5.863
 3242POPC   GL243226  33.720  13.956   5.859
 3242POPC   C1A43227  33.992  13.436   6.268
 3242POPC   D2A43228  33.944  13.675   6.668
 3242POPC   C3A43229  34.097  13.566   7.035
 3242POPC   C4A43230  33.770  13.371   7.192
 3242POPC   C1B43231  33.628  13.795   6.282
 3242POPC   C2B43232  33.530  13.955   6.701
 3242POPC   C3B43233  33.532  13.832   7.134
 3242POPC   C4B43234  33.589  13.662   7.557
 3243POPC   NC343235  16.446  24.853   5.384
 3243POPC   PO443236  16.977  24.473   5.244
 3243POPC   GL143237  16.899  24.507   5.747
 3243POPC   GL243238  16.521  24.515   5.823
 3243POPC   C1A43239  16.927  24.372   6.237
 3243POPC   D2A43240  17.068  24.609   6.623
 3243POPC   C3A43241  16.804  24.604   7.004
 3243POPC   C4A43242  16.846  24.417   7.401
 3243POPC   C1B43243  16.422  24.373   6.265
 3243POPC   C2B43244  16.554  24.270   6.714
 3243POPC   C3B43245  16.397  24.295   7.175
 3243POPC   C4B43246  16.421  24.368   7.657
 3244POPC   NC343247  25.205  12.076   5.463
 3244POPC   PO443248  25.738  12.614   5.468
 3244POPC   GL143249  25.568  12.248   5.769
 3244POPC   GL243250  25.667  12.447   5.984
 3244POPC   C1A43251  25.387  11.965   6.121
 3244POPC   D2A43252  25.210  12.114   6.568
 3244POPC   C3A43253  25.222  11.891   7.005
 3244POPC   C4A43254  25.001  11.703   7.367
 3244POPC   C1B43255  25.648  12.322   6.361
 3244POPC   C2B43256  25.454  12.563   6.653
 3244POPC   C3B43257  25.241  12.409   7.011
 3244POPC   C4B43258  25.250  12.217   7.450
 3245POPC   NC343259  23.992  26.380   5.322
 3245POPC   PO443260  23.349  26.262   5.444
 3245POPC   GL143261  23.641  25.991   5.673
 3245POPC   GL243262  23.508  25.697   5.821
 3245POPC   C1A43263  23.795  26.058   6.113
 3245POPC   D2A43264  23.680  26.378   6.433
 3245POPC   C3A43265  23.769  26.311   6.891
 3245POPC   C4A43266  23.558  26.280   7.305
 3245POPC   C1B43267  23.410  25.744   6.251
 3245POPC   C2B43268  23.672  25.820   6.648
 3245POPC   C3B43269  23.726  25.817   7.130
 3245POPC   C4B43270  23.420  25.749   7.465
 3246POPC   NC343271   5.366   6.763   5.167
 3246POPC   PO443272   5.998   6.596   5.202
 3246POPC   GL143273   6.068   6.496   5.707
 3246POPC   GL243274   5.861   6.697   5.929
 3246POPC   C1A43275   6.215   6.442   6.174
 3246POPC   D2A43276   6.185   6.739   6.558
 3246POPC   C3A43277   6.063   6.617   6.957
 3246POPC   C4A43278   6.262   6.389   7.248
 3246POPC   C1B43279   5.775   6.913   6.289
 3246POPC   C2B43280   5.657   6.674   6.643
 3246POPC   C3B43281   5.550   6.731   7.054
 3246POPC   C4B43282   5.341   6.985   7.307
 3247POPC   NC343283  33.070  15.753   5.365
 3247POPC   PO443284  32.890  16.439   5.248
 3247POPC   GL143285  32.871  16.154   5.616
 3247POPC   GL243286  33.226  16.055   5.749
 3247POPC   C1A43287  32.829  16.157   6.071
 3247POPC   D2A43288  32.835  16.170   6.527
 3247POPC   C3A43289  32.903  16.029   6.986
 3247POPC   C4A43290  33.194  16.221   7.291
 3247POPC   C1B43291  33.272  15.895   6.197
 3247POPC   C2B43292  33.242  15.866   6.658
 3247POPC   C3B43293  33.422  15.813   7.088
 3247POPC   C4B43294  33.470  15.832   7.549
 3248POPC   NC343295   7.075  29.600   5.295
 3248POPC   PO443296   6.551  30.028   5.400
 3248POPC   GL143297   6.819  30.009   5.770
 3248POPC   GL243298   6.869  29.655   5.780
 3248POPC   C1A43299   6.806  30.079   6.241
 3248POPC   D2A43300   6.872  29.795   6.600
 3248POPC   C3A43301   6.855  29.924   7.052
 3248POPC   C4A43302   6.838  29.715   7.508
 3248POPC   C1B43303   6.483  29.717   6.047
 3248POPC   C2B43304   6.374  29.861   6.478
 3248POPC   C3B43305   6.439  29.641   6.881
 3248POPC   C4B43306   6.263  29.520   7.248
 3249POPC   NC343307  12.417   7.831   5.293
 3249POPC   PO443308  13.011   7.549   5.291
 3249POPC   GL143309  12.970   7.445   5.768
 3249POPC   GL243310  12.626   7.375   5.806
 3249POPC   C1A43311  13.010   7.424   6.259
 3249POPC   D2A43312  12.941   7.191   6.658
 3249POPC   C3A43313  12.839   7.381   7.068
 3249POPC   C4A43314  13.238   7.411   7.292
 3249POPC   C1B43315  12.563   7.632   6.153
 3249POPC   C2B43316  12.584   7.555   6.598
 3249POPC   C3B43317  12.568   7.816   6.969
 3249POPC   C4B43318  12.545   7.732   7.413
 3250POPC   NC343319  32.808  42.297   5.398
 3250POPC   PO443320  33.246  41.947   5.676
 3250POPC   GL143321  32.836  42.062   5.866
 3250POPC   GL243322  32.694  42.455   5.882
 3250POPC   C1A43323  32.926  42.185   6.278
 3250POPC   D2A43324  33.160  42.517   6.536
 3250POPC   C3A43325  33.132  42.469   6.986
 3250POPC   C4A43326  33.243  42.272   7.401
 3250POPC   C1B43327  32.689  42.620   6.340
 3250POPC   C2B43328  32.711  42.310   6.724
 3250POPC   C3B43329  32.777  42.065   7.115
 3250POPC   C4B43330  32.689  42.020   7.584
 3251POPC   NC343331  11.869  42.161   5.179
 3251POPC   PO443332  12.396  42.374   5.445
 3251POPC   GL143333  12.196  42.210   5.776
 3251POPC   GL243334  11.875  42.067   5.685
 3251POPC   C1A43335  12.306  42.364   6.194
 3251POPC   D2A43336  12.111  42.471   6.590
 3251POPC   C3A43337  12.311  42.300   6.955
 3251POPC   C4A43338  12.394  42.390   7.406
 3251POPC   C1B43339  11.812  42.242   6.109
 3251POPC   C2B43340  11.671  42.100   6.492
 3251POPC   C3B43341  11.815  42.172   6.889
 3251POPC   C4B43342  11.892  42.424   7.252
 3252POPC   NC343343  35.407  34.594   5.181
 3252POPC   PO443344  35.367  33.934   5.254
 3252POPC   GL143345  35.223  34.267   5.581
 3252POPC   GL243346  35.403  34.602   5.690
 3252POPC   C1A43347  35.149  34.383   6.051
 3252POPC   D2A43348  35.392  34.358   6.440
 3252POPC   C3A43349  35.222  34.263   6.837
 3252POPC   C4A43350  35.335  34.343   7.259
 3252POPC   C1B43351  35.516  34.759   6.107
 3252POPC   C2B43352  35.368  34.850   6.531
 3252POPC   C3B43353  35.502  34.712   6.927
 3252POPC   C4B43354  35.289  34.846   7.288
 3253POPC   NC343355  16.935  16.261   5.418
 3253POPC   PO443356  16.530  15.790   5.273
 3253POPC   GL143357  16.709  15.900   5.705
 3253POPC   GL243358  16.573  16.245   5.791
 3253POPC   C1A43359  16.876  16.013   6.139
 3253POPC   D2A43360  16.647  15.944   6.523
 3253POPC   C3A43361  16.769  16.034   6.918
 3253POPC   C4A43362  16.771  15.777   7.283
 3253POPC   C1B43363  16.424  16.294   6.218
 3253POPC   C2B43364  16.449  16.425   6.668
 3253POPC   C3B43365  16.452  16.379   7.121
 3253POPC   C4B43366  16.610  16.202   7.546
 3254POPC   NC343367  24.577  16.009   5.687
 3254POPC   PO443368  25.038  16.182   5.289
 3254POPC   GL143369  25.319  16.037   5.663
 3254POPC   GL243370  25.059  15.821   5.816
 3254POPC   C1A43371  25.492  15.858   6.092
 3254POPC   D2A43372  25.296  15.660   6.468
 3254POPC   C3A43373  25.218  15.854   6.846
 3254POPC   C4A43374  25.259  15.861   7.281
 3254POPC   C1B43375  24.993  16.010   6.235
 3254POPC   C2B43376  24.849  16.198   6.635
 3254POPC   C3B43377  24.829  16.105   7.095
 3254POPC   C4B43378  24.780  16.266   7.539
 3255POPC   NC343379  41.935  40.629   5.572
 3255POPC   PO443380  41.324  40.584   5.417
 3255POPC   GL143381  41.427  40.785   5.749
 3255POPC   GL243382  41.574  41.076   5.594
 3255POPC   C1A43383  41.573  40.668   6.179
 3255POPC   D2A43384  41.461  40.373   6.539
 3255POPC   C3A43385  41.596  40.578   6.928
 3255POPC   C4A43386  41.294  40.632   7.248
 3255POPC   C1B43387  41.575  41.181   6.039
 3255POPC   C2B43388  41.727  41.100   6.445
 3255POPC   C3B43389  41.596  41.136   6.855
 3255POPC   C4B43390  41.652  40.998   7.254
 3256POPC   NC343391   5.146  21.594   5.560
 3256POPC   PO443392   4.951  20.939   5.440
 3256POPC   GL143393   5.044  21.173   5.838
 3256POPC   GL243394   4.787  21.414   5.904
 3256POPC   C1A43395   5.246  21.423   6.196
 3256POPC   D2A43396   5.352  21.634   6.584
 3256POPC   C3A43397   5.234  21.323   6.834
 3256POPC   C4A43398   5.264  21.204   7.235
 3256POPC   C1B43399   4.641  21.732   6.199
 3256POPC   C2B43400   4.645  21.586   6.650
 3256POPC   C3B43401   4.809  21.446   7.083
 3256POPC   C4B43402   4.947  21.507   7.507
 3257POPC   NC343403  26.179  30.269   5.154
 3257POPC   PO443404  26.168  30.955   5.267
 3257POPC   GL143405  26.065  31.007   5.733
 3257POPC   GL243406  25.950  30.697   5.900
 3257POPC   C1A43407  26.207  30.971   6.214
 3257POPC   D2A43408  25.965  30.758   6.513
 3257POPC   C3A43409  26.222  30.676   6.852
 3257POPC   C4A43410  26.062  30.818   7.226
 3257POPC   C1B43411  25.717  30.415   6.179
 3257POPC   C2B43412  25.852  30.250   6.583
 3257POPC   C3B43413  25.788  30.437   6.978
 3257POPC   C4B43414  26.119  30.300   7.234
 3258POPC   NC343415  14.177  32.729   5.441
 3258POPC   PO443416  14.868  32.808   5.450
 3258POPC   GL143417  14.606  32.679   5.800
 3258POPC   GL243418  14.415  33.012   5.840
 3258POPC   C1A43419  14.440  32.684   6.248
 3258POPC   D2A43420  14.322  33.083   6.471
 3258POPC   C3A43421  14.468  33.210   6.882
 3258POPC   C4A43422  14.444  32.994   7.263
 3258POPC   C1B43423  14.020  32.906   6.081
 3258POPC   C2B43424  13.914  32.748   6.500
 3258POPC   C3B43425  14.080  32.883   6.907
 3258POPC   C4B43426  14.015  33.262   7.163
 3259POPC   NC343427  32.012   9.553   5.387
 3259POPC   PO443428  32.615   9.841   5.238
 3259POPC   GL143429  32.412   9.765   5.685
 3259POPC   GL243430  32.726   9.557   5.758
 3259POPC   C1A43431  32.182   9.935   6.116
 3259POPC   D2A43432  31.928   9.985   6.542
 3259POPC   C3A43433  32.164   9.905   6.961
 3259POPC   C4A43434  32.621  10.003   7.112
 3259POPC   C1B43435  32.448   9.507   6.131
 3259POPC   C2B43436  32.323   9.566   6.593
 3259POPC   C3B43437  32.492   9.500   7.064
 3259POPC   C4B43438  32.630   9.260   7.484
 3260POPC   NC343439  31.752  18.982   5.364
 3260POPC   PO443440  31.201  19.382   5.438
 3260POPC   GL143441  31.430  19.121   5.793
 3260POPC   GL243442  31.790  19.057   5.882
 3260POPC   C1A43443  31.362  18.887   6.195
 3260POPC   D2A43444  31.307  18.804   6.653
 3260POPC   C3A43445  31.646  18.860   6.973
 3260POPC   C4A43446  31.364  19.106   7.180
 3260POPC   C1B43447  31.721  19.262   6.288
 3260POPC   C2B43448  31.575  19.302   6.717
 3260POPC   C3B43449  31.725  19.443   7.130
 3260POPC   C4B43450  31.787  19.181   7.496
 3261POPC   NC343451  37.144  27.346   4.994
 3261POPC   PO443452  36.831  27.830   5.309
 3261POPC   GL143453  37.026  27.574   5.627
 3261POPC   GL243454  37.171  27.866   5.789
 3261POPC   C1A43455  36.864  27.546   6.083
 3261POPC   D2A43456  36.574  27.781   6.402
 3261POPC   C3A43457  36.479  27.628   6.834
 3261POPC   C4A43458  36.700  27.406   7.166
 3261POPC   C1B43459  37.028  28.071   6.192
 3261POPC   C2B43460  37.168  28.200   6.602
 3261POPC   C3B43461  37.251  27.864   6.919
 3261POPC   C4B43462  37.107  27.771   7.332
 3262POPC   NC343463  44.944   8.593   5.411
 3262POPC   PO443464  44.826   7.891   5.489
 3262POPC   GL143465  44.664   8.100   5.864
 3262POPC   GL243466  44.543   8.445   5.780
 3262POPC   C1A43467  44.746   8.107   6.313
 3262POPC   D2A43468  44.852   8.021   6.742
 3262POPC   C3A43469  44.755   8.116   7.184
 3262POPC   C4A43470  44.520   7.842   7.477
 3262POPC   C1B43471  44.820   8.584   6.133
 3262POPC   C2B43472  44.992   8.496   6.561
 3262POPC   C3B43473   0.009   8.688   6.973
 3262POPC   C4B43474  44.977   8.547   7.453
 3263POPC   NC343475   5.665  42.566   5.491
 3263POPC   PO443476   6.015  42.055   5.230
 3263POPC   GL143477   6.038  42.240   5.744
 3263POPC   GL243478   5.743  42.420   5.963
 3263POPC   C1A43479   6.183  42.442   6.191
 3263POPC   D2A43480   5.993  42.421   6.587
 3263POPC   C3A43481   6.216  42.539   6.945
 3263POPC   C4A43482   6.160  42.391   7.382
 3263POPC   C1B43483   5.605  42.149   6.302
 3263POPC   C2B43484   5.732  42.005   6.711
 3263POPC   C3B43485   5.768  42.277   7.067
 3263POPC   C4B43486   5.661  42.310   7.503
 3264POPC   NC343487   2.859   4.511   5.506
 3264POPC   PO443488   2.852   3.868   5.551
 3264POPC   GL143489   2.791   4.131   5.900
 3264POPC   GL243490   3.053   4.375   5.946
 3264POPC   C1A43491   2.453   4.151   6.221
 3264POPC   D2A43492   2.468   3.975   6.641
 3264POPC   C3A43493   2.841   4.069   6.897
 3264POPC   C4A43494   2.831   4.116   7.336
 3264POPC   C1B43495   2.755   4.573   6.228
 3264POPC   C2B43496   2.652   4.454   6.638
 3264POPC   C3B43497   2.704   4.540   7.086
 3264POPC   C4B43498   2.675   4.556   7.552
 3265POPC   NC343499  29.140  27.280   5.606
 3265POPC   PO443500  28.816  27.813   5.294
 3265POPC   GL143501  28.770  27.669   5.734
 3265POPC   GL243502  29.051  27.868   5.873
 3265POPC   C1A43503  28.641  27.703   6.201
 3265POPC   D2A43504  28.665  27.802   6.681
 3265POPC   C3A43505  28.930  27.552   6.997
 3265POPC   C4A43506  29.040  27.650   7.429
 3265POPC   C1B43507  29.294  27.962   6.274
 3265POPC   C2B43508  29.418  27.788   6.686
 3265POPC   C3B43509  29.454  27.671   7.133
 3265POPC   C4B43510  29.516  27.444   7.553
 3266POPC   NC343511  12.611  41.961   5.278
 3266POPC   PO443512  12.853  41.244   5.425
 3266POPC   GL143513  12.885  41.497   5.819
 3266POPC   GL243514  13.222  41.619   5.734
 3266POPC   C1A43515  12.794  41.453   6.310
 3266POPC   D2A43516  13.065  41.235   6.631
 3266POPC   C3A43517  12.854  41.239   7.054
 3266POPC   C4A43518  12.534  41.542   7.122
 3266POPC   C1B43519  13.268  41.466   6.159
 3266POPC   C2B43520  13.214  41.720   6.539
 3266POPC   C3B43521  13.107  41.678   6.962
 3266POPC   C4B43522  13.306  41.409   7.237
 3267POPC   NC343523  30.665  37.846   5.514
 3267POPC   PO443524  31.065  37.308   5.466
 3267POPC   GL143525  30.870  37.502   5.848
 3267POPC   GL243526  30.936  37.885   5.935
 3267POPC   C1A43527  30.789  37.459   6.298
 3267POPC   D2A43528  30.557  37.470   6.699
 3267POPC   C3A43529  30.825  37.587   6.993
 3267POPC   C4A43530  30.990  37.459   7.338
 3267POPC   C1B43531  30.596  37.928   6.169
 3267POPC   C2B43532  30.388  37.999   6.524
 3267POPC   C3B43533  30.381  37.885   6.927
 3267POPC   C4B43534  30.511  38.008   7.307
 3268POPC   NC343535  29.596   5.345   5.494
 3268POPC   PO443536  30.267   5.335   5.584
 3268POPC   GL143537  30.207   5.027   5.870
 3268POPC   GL243538  29.875   5.147   5.879
 3268POPC   C1A43539  30.059   4.897   6.284
 3268POPC   D2A43540  30.164   4.904   6.723
 3268POPC   C3A43541  29.896   4.826   7.092
 3268POPC   C4A43542  29.865   4.836   7.565
 3268POPC   C1B43543  30.048   5.400   6.230
 3268POPC   C2B43544  30.197   5.402   6.609
 3268POPC   C3B43545  29.985   5.360   6.973
 3268POPC   C4B43546  30.113   5.272   7.346
 3269POPC   NC343547  13.334  18.537   5.099
 3269POPC   PO443548  12.777  18.306   5.294
 3269POPC   GL143549  12.995  18.399   5.734
 3269POPC   GL243550  12.803  18.197   5.991
 3269POPC   C1A43551  13.001  18.617   6.172
 3269POPC   D2A43552  12.936  18.380   6.573
 3269POPC   C3A43553  12.830  18.516   7.020
 3269POPC   C4A43554  12.966  18.454   7.507
 3269POPC   C1B43555  12.884  17.880   6.313
 3269POPC   C2B43556  13.060  17.905   6.710
 3269POPC   C3B43557  12.967  18.047   7.119
 3269POPC   C4B43558  12.743  18.010   7.532
 3270POPC   NC343559  11.110  41.774   5.406
 3270POPC   PO443560  11.398  41.204   5.034
 3270POPC   GL143561  11.395  41.320   5.524
 3270POPC   GL243562  11.538  41.662   5.642
 3270POPC   C1A43563  11.235  41.376   5.970
 3270POPC   D2A43564  11.324  41.494   6.432
 3270POPC   C3A43565  11.235  41.430   6.896
 3270POPC   C4A43566  11.190  41.638   7.291
 3270POPC   C1B43567  11.643  41.729   6.098
 3270POPC   C2B43568  11.804  41.612   6.540
 3270POPC   C3B43569  11.682  41.676   6.980
 3270POPC   C4B43570  11.497  42.022   7.241
 3271POPC   NC343571   2.812  17.131   5.169
 3271POPC   PO443572   2.900  17.785   5.381
 3271POPC   GL143573   2.671  17.643   5.743
 3271POPC   GL243574   2.433  17.355   5.711
 3271POPC   C1A43575   2.532  17.694   6.162
 3271POPC   D2A43576   2.428  17.825   6.576
 3271POPC   C3A43577   2.490  17.513   6.821
 3271POPC   C4A43578   2.614  17.466   7.204
 3271POPC   C1B43579   2.707  17.185   6.035
 3271POPC   C2B43580   2.722  17.180   6.492
 3271POPC   C3B43581   2.727  17.050   6.918
 3271POPC   C4B43582   2.594  16.968   7.334
 3272POPC   NC343583  39.053  16.241   5.411
 3272POPC   PO443584  39.307  15.675   5.493
 3272POPC   GL143585  39.300  15.988   5.853
 3272POPC   GL243586  39.368  16.346   5.815
 3272POPC   C1A43587  39.085  16.074   6.269
 3272POPC   D2A43588  38.772  15.969   6.629
 3272POPC   C3A43589  38.862  16.082   7.081
 3272POPC   C4A43590  39.025  15.668   7.243
 3272POPC   C1B43591  39.583  16.319   6.240
 3272POPC   C2B43592  39.548  16.042   6.597
 3272POPC   C3B43593  39.356  16.004   7.015
 3272POPC   C4B43594  39.225  16.083   7.480
 3273POPC   NC343595  34.761   5.660   5.067
 3273POPC   PO443596  34.251   5.522   5.388
 3273POPC   GL143597  34.477   5.277   5.725
 3273POPC   GL243598  34.351   4.922   5.818
 3273POPC   C1A43599  34.651   5.216   6.171
 3273POPC   D2A43600  34.985   5.075   6.464
 3273POPC   C3A43601  34.897   5.225   6.882
 3273POPC   C4A43602  34.788   5.242   7.294
 3273POPC   C1B43603  34.265   4.838   6.266
 3273POPC   C2B43604  34.413   5.003   6.673
 3273POPC   C3B43605  34.493   4.813   7.070
 3273POPC   C4B43606  34.438   4.766   7.512
 3274POPC   NC343607  32.671  34.213   5.224
 3274POPC   PO443608  33.270  34.602   5.466
 3274POPC   GL143609  33.151  34.401   5.900
 3274POPC   GL243610  32.824  34.308   5.813
 3274POPC   C1A43611  33.200  34.448   6.375
 3274POPC   D2A43612  33.112  34.817   6.671
 3274POPC   C3A43613  32.956  34.648   7.071
 3274POPC   C4A43614  32.961  34.206   7.240
 3274POPC   C1B43615  32.742  34.496   6.206
 3274POPC   C2B43616  32.592  34.265   6.544
 3274POPC   C3B43617  32.589  34.100   6.902
 3274POPC   C4B43618  32.481  34.457   7.121
 3275POPC   NC343619  12.375  19.345   5.414
 3275POPC   PO443620  12.163  20.014   5.468
 3275POPC   GL143621  12.069  19.661   5.750
 3275POPC   GL243622  11.714  19.563   5.716
 3275POPC   C1A43623  12.170  19.614   6.208
 3275POPC   D2A43624  12.075  19.961   6.488
 3275POPC   C3A43625  11.948  19.944   6.907
 3275POPC   C4A43626  12.109  20.029   7.329
 3275POPC   C1B43627  11.695  19.760   6.145
 3275POPC   C2B43628  11.751  19.572   6.576
 3275POPC   C3B43629  11.649  19.532   7.028
 3275POPC   C4B43630  11.471  19.656   7.444
 3276POPC   NC343631   1.774  17.850   5.043
 3276POPC   PO443632   1.623  17.341   5.467
 3276POPC   GL143633   1.921  17.503   5.789
 3276POPC   GL243634   1.924  17.195   5.994
 3276POPC   C1A43635   2.017  17.635   6.228
 3276POPC   D2A43636   1.981  17.505   6.668
 3276POPC   C3A43637   2.083  17.792   7.022
 3276POPC   C4A43638   1.904  17.684   7.454
 3276POPC   C1B43639   2.244  17.180   6.319
 3276POPC   C2B43640   2.237  17.067   6.768
 3276POPC   C3B43641   2.142  17.307   7.164
 3276POPC   C4B43642   2.319  17.372   7.598
 3277POPC   NC343643  34.881  24.506   5.381
 3277POPC   PO443644  34.161  24.566   5.513
 3277POPC   GL143645  34.538  24.601   5.801
 3277POPC   GL243646  34.666  24.256   5.810
 3277POPC   C1A43647  34.676  24.526   6.251
 3277POPC   D2A43648  34.680  24.172   6.551
 3277POPC   C3A43649  34.767  24.271   6.987
 3277POPC   C4A43650  34.850  24.676   7.180
 3277POPC   C1B43651  34.350  24.132   6.109
 3277POPC   C2B43652  34.174  24.014   6.507
 3277POPC   C3B43653  34.287  24.034   6.915
 3277POPC   C4B43654  34.340  24.302   7.274
 3278POPC   NC343655  23.256  19.535   5.514
 3278POPC   PO443656  23.243  20.179   5.220
 3278POPC   GL143657  22.878  19.908   5.592
 3278POPC   GL243658  22.724  20.199   5.824
 3278POPC   C1A43659  22.787  19.715   6.036
 3278POPC   D2A43660  22.969  19.702   6.490
 3278POPC   C3A43661  22.883  19.497   6.920
 3278POPC   C4A43662  22.865  19.663   7.355
 3278POPC   C1B43663  22.804  20.166   6.278
 3278POPC   C2B43664  22.611  20.071   6.689
 3278POPC   C3B43665  22.653  20.106   7.160
 3278POPC   C4B43666  22.686  20.305   7.607
 3279POPC   NC343667  40.484  17.355   5.422
 3279POPC   PO443668  40.990  17.780   5.569
 3279POPC   GL143669  40.776  17.502   5.839
 3279POPC   GL243670  40.710  17.149   5.855
 3279POPC   C1A43671  40.868  17.514   6.256
 3279POPC   D2A43672  40.694  17.588   6.672
 3279POPC   C3A43673  40.936  17.641   7.027
 3279POPC   C4A43674  40.790  17.932   7.273
 3279POPC   C1B43675  40.508  17.001   6.233
 3279POPC   C2B43676  40.448  17.145   6.653
 3279POPC   C3B43677  40.676  17.181   7.030
 3279POPC   C4B43678  40.553  17.086   7.482
 3280POPC   NC343679   3.484   3.170   5.164
 3280POPC   PO443680   3.775   2.578   5.384
 3280POPC   GL143681   3.570   2.815   5.759
 3280POPC   GL243682   3.332   3.089   5.711
 3280POPC   C1A43683   3.720   2.907   6.186
 3280POPC   D2A43684   3.835   2.617   6.499
 3280POPC   C3A43685   3.807   2.860   6.856
 3280POPC   C4A43686   3.796   2.737   7.273
 3280POPC   C1B43687   3.202   2.928   6.148
 3280POPC   C2B43688   3.346   2.840   6.603
 3280POPC   C3B43689   3.364   2.937   7.072
 3280POPC   C4B43690   3.392   2.952   7.544
 3281POPC   NC343691  35.277  41.882   5.392
 3281POPC   PO443692  35.175  41.250   5.361
 3281POPC   GL143693  35.216  41.444   5.748
 3281POPC   GL243694  34.909  41.605   5.741
 3281POPC   C1A43695  35.322  41.672   6.138
 3281POPC   D2A43696  35.480  41.860   6.553
 3281POPC   C3A43697  35.354  41.712   6.980
 3281POPC   C4A43698  35.307  41.745   7.440
 3281POPC   C1B43699  34.876  41.369   6.144
 3281POPC   C2B43700  35.079  41.439   6.533
 3281POPC   C3B43701  34.909  41.489   6.903
 3281POPC   C4B43702  34.973  41.387   7.326
 3282POPC   NC343703  30.961  17.297   5.506
 3282POPC   PO443704  30.533  17.815   5.302
 3282POPC   GL143705  30.516  17.584   5.724
 3282POPC   GL243706  30.824  17.694   5.884
 3282POPC   C1A43707  30.404  17.585   6.206
 3282POPC   D2A43708  30.612  17.773   6.583
 3282POPC   C3A43709  30.523  17.569   6.985
 3282POPC   C4A43710  30.238  17.247   7.132
 3282POPC   C1B43711  30.872  17.416   6.274
 3282POPC   C2B43712  30.928  17.331   6.735
 3282POPC   C3B43713  30.725  17.091   7.104
 3282POPC   C4B43714  30.505  17.035   7.530
 3283POPC   NC343715  37.978  25.531   5.004
 3283POPC   PO443716  37.538  25.059   5.062
 3283POPC   GL143717  37.535  25.163   5.534
 3283POPC   GL243718  37.760  25.469   5.665
 3283POPC   C1A43719  37.474  25.176   5.994
 3283POPC   D2A43720  37.379  25.413   6.380
 3283POPC   C3A43721  37.331  25.184   6.772
 3283POPC   C4A43722  37.489  25.348   7.155
 3283POPC   C1B43723  37.946  25.351   6.109
 3283POPC   C2B43724  37.969  25.183   6.542
 3283POPC   C3B43725  37.953  25.371   6.945
 3283POPC   C4B43726  37.888  25.659   7.289
 3284POPC   NC343727   0.773  21.111   5.569
 3284POPC   PO443728   1.323  21.514   5.521
 3284POPC   GL143729   1.063  21.378   5.903
 3284POPC   GL243730   1.108  20.997   5.944
 3284POPC   C1A43731   1.085  21.451   6.361
 3284POPC   D2A43732   1.002  21.669   6.758
 3284POPC   C3A43733   1.118  21.438   7.135
 3284POPC   C4A43734   0.909  21.503   7.552
 3284POPC   C1B43735   0.836  21.001   6.308
 3284POPC   C2B43736   0.762  21.195   6.734
 3284POPC   C3B43737   0.786  21.052   7.175
 3284POPC   C4B43738   0.838  21.007   7.645
 3285POPC   NC343739  27.055   1.373   5.459
 3285POPC   PO443740  26.585   0.963   5.436
 3285POPC   GL143741  26.570   1.314   5.722
 3285POPC   GL243742  26.869   1.453   5.931
 3285POPC   C1A43743  26.422   1.316   6.143
 3285POPC   D2A43744  26.689   1.265   6.477
 3285POPC   C3A43745  26.467   1.260   6.841
 3285POPC   C4A43746  26.577   1.342   7.256
 3285POPC   C1B43747  27.078   1.089   6.179
 3285POPC   C2B43748  27.200   1.026   6.633
 3285POPC   C3B43749  27.214   1.251   7.048
 3285POPC   C4B43750  27.044   1.370   7.456
 3286POPC   NC343751  28.984   8.339   5.498
 3286POPC   PO443752  29.653   8.291   5.468
 3286POPC   GL143753  29.391   8.406   5.812
 3286POPC   GL243754  29.288   8.086   5.826
 3286POPC   C1A43755  29.064   8.482   6.159
 3286POPC   D2A43756  28.908   8.275   6.559
 3286POPC   C3A43757  29.038   8.460   6.936
 3286POPC   C4A43758  29.362   8.419   7.207
 3286POPC   C1B43759  29.066   7.963   6.166
 3286POPC   C2B43760  29.195   7.812   6.553
 3286POPC   C3B43761  29.265   7.987   6.924
 3286POPC   C4B43762  28.941   8.025   7.190
 3287POPC   NC343763  44.652  37.914   5.438
 3287POPC   PO443764  44.192  37.354   5.485
 3287POPC   GL143765  44.493  37.545   5.772
 3287POPC   GL243766  44.374  37.856   5.874
 3287POPC   C1A43767  44.786  37.598   6.122
 3287POPC   D2A43768  44.659  37.588   6.574
 3287POPC   C3A43769  44.900  37.699   6.927
 3287POPC   C4A43770  44.852  37.555   7.315
 3287POPC   C1B43771  44.527  38.006   6.298
 3287POPC   C2B43772  44.530  38.072   6.749
 3287POPC   C3B43773  44.639  38.085   7.201
 3287POPC   C4B43774  44.884  38.022   7.571
 3288POPC   NC343775  19.332   1.213   5.525
 3288POPC   PO443776  18.718   1.474   5.367
 3288POPC   GL143777  18.797   1.298   5.783
 3288POPC   GL243778  18.940   0.970   5.771
 3288POPC   C1A43779  18.796   1.460   6.216
 3288POPC   D2A43780  19.055   1.522   6.585
 3288POPC   C3A43781  18.868   1.293   6.937
 3288POPC   C4A43782  18.663   1.421   7.305
 3288POPC   C1B43783  19.170   1.080   6.159
 3288POPC   C2B43784  19.215   1.023   6.596
 3288POPC   C3B43785  19.371   1.268   6.949
 3288POPC   C4B43786  19.320   1.061   7.330
 3289POPC   NC343787  39.402  27.925   5.461
 3289POPC   PO443788  39.236  27.310   5.365
 3289POPC   GL143789  39.300  27.511   5.788
 3289POPC   GL243790  39.253  27.904   5.934
 3289POPC   C1A43791  39.444  27.508   6.203
 3289POPC   D2A43792  39.319  27.784   6.524
 3289POPC   C3A43793  39.411  27.585   6.894
 3289POPC   C4A43794  39.312  27.398   7.265
 3289POPC   C1B43795  38.931  27.664   6.143
 3289POPC   C2B43796  38.831  27.548   6.551
 3289POPC   C3B43797  38.932  27.811   6.869
 3289POPC   C4B43798  39.167  27.870   7.234
 3290POPC   NC343799   6.220  39.571   5.419
 3290POPC   PO443800   5.604  39.358   5.491
 3290POPC   GL143801   5.759  39.395   5.897
 3290POPC   GL243802   5.925  39.683   5.877
 3290POPC   C1A43803   5.735  39.355   6.335
 3290POPC   D2A43804   5.623  39.496   6.724
 3290POPC   C3A43805   5.590  39.248   7.111
 3290POPC   C4A43806   5.781  39.280   7.517
 3290POPC   C1B43807   6.196  39.551   6.252
 3290POPC   C2B43808   6.123  39.347   6.666
 3290POPC   C3B43809   6.097  39.366   7.096
 3290POPC   C4B43810   6.239  39.732   7.280
 3291POPC   NC343811  35.980  38.225   5.599
 3291POPC   PO443812  35.851  37.615   5.431
 3291POPC   GL143813  36.193  37.705   5.731
 3291POPC   GL243814  36.016  37.879   5.981
 3291POPC   C1A43815  36.296  37.507   6.147
 3291POPC   D2A43816  36.060  37.696   6.484
 3291POPC   C3A43817  36.352  37.812   6.752
 3291POPC   C4A43818  36.503  37.678   7.121
 3291POPC   C1B43819  35.769  37.476   6.129
 3291POPC   C2B43820  35.787  37.248   6.561
 3291POPC   C3B43821  35.944  37.423   6.976
 3291POPC   C4B43822  35.996  37.835   7.174
 3292POPC   NC343823  35.378   2.110   5.374
 3292POPC   PO443824  35.455   1.471   5.625
 3292POPC   GL143825  35.182   1.741   5.891
 3292POPC   GL243826  35.153   2.109   5.825
 3292POPC   C1A43827  35.181   1.892   6.319
 3292POPC   D2A43828  35.526   1.900   6.615
 3292POPC   C3A43829  35.347   1.914   7.001
 3292POPC   C4A43830  35.072   1.631   7.190
 3292POPC   C1B43831  35.060   2.400   6.143
 3292POPC   C2B43832  34.970   2.328   6.558
 3292POPC   C3B43833  35.113   2.464   6.951
 3292POPC   C4B43834  35.250   2.317   7.333
 3293POPC   NC343835  21.583   3.036   5.049
 3293POPC   PO443836  21.312   2.468   5.188
 3293POPC   GL143837  21.280   2.632   5.658
 3293POPC   GL243838  21.429   2.955   5.764
 3293POPC   C1A43839  21.150   2.693   6.123
 3293POPC   D2A43840  20.959   2.524   6.522
 3293POPC   C3A43841  21.131   2.692   6.905
 3293POPC   C4A43842  21.185   2.478   7.304
 3293POPC   C1B43843  21.571   3.091   6.132
 3293POPC   C2B43844  21.381   3.080   6.517
 3293POPC   C3B43845  21.596   2.995   6.866
 3293POPC   C4B43846  21.416   2.918   7.263
 3294POPC   NC343847   3.894   3.098   5.496
 3294POPC   PO443848   3.384   3.517   5.433
 3294POPC   GL143849   3.556   3.624   5.830
 3294POPC   GL243850   3.718   3.346   5.913
 3294POPC   C1A43851   3.374   3.701   6.247
 3294POPC   D2A43852   3.383   3.330   6.477
 3294POPC   C3A43853   3.456   3.420   6.913
 3294POPC   C4A43854   3.263   3.394   7.321
 3294POPC   C1B43855   3.859   3.580   6.259
 3294POPC   C2B43856   3.892   3.345   6.608
 3294POPC   C3B43857   3.970   3.351   7.013
 3294POPC   C4B43858   3.742   3.233   7.310
 3295POPC   NC343859  18.894  36.453   5.513
 3295POPC   PO443860  19.443  36.819   5.418
 3295POPC   GL143861  19.097  36.935   5.702
 3295POPC   GL243862  19.071  36.658   5.929
 3295POPC   C1A43863  18.929  37.095   6.124
 3295POPC   D2A43864  18.956  36.764   6.455
 3295POPC   C3A43865  19.138  36.801   6.853
 3295POPC   C4A43866  18.859  36.926   7.160
 3295POPC   C1B43867  19.280  36.443   6.231
 3295POPC   C2B43868  19.168  36.311   6.648
 3295POPC   C3B43869  19.210  36.354   7.090
 3295POPC   C4B43870  19.239  36.667   7.400
 3296POPC   NC343871  15.115  23.877   5.316
 3296POPC   PO443872  15.687  23.747   5.475
 3296POPC   GL143873  15.380  23.849   5.797
 3296POPC   GL243874  15.017  23.804   5.827
 3296POPC   C1A43875  15.333  23.711   6.216
 3296POPC   D2A43876  15.140  23.766   6.587
 3296POPC   C3A43877  15.409  23.739   6.920
 3296POPC   C4A43878  15.380  24.072   7.148
 3296POPC   C1B43879  14.802  23.577   6.223
 3296POPC   C2B43880  14.650  23.697   6.673
 3296POPC   C3B43881  14.908  23.791   7.067
 3296POPC   C4B43882  15.187  23.497   7.326
 3297POPC   NC343883  30.593  29.929   5.177
 3297POPC   PO443884  31.026  29.597   5.592
 3297POPC   GL143885  30.604  29.713   5.748
 3297POPC   GL243886  30.417  30.041   5.717
 3297POPC   C1A43887  30.616  29.785   6.189
 3297POPC   D2A43888  30.970  29.717   6.480
 3297POPC   C3A43889  30.896  29.601   6.921
 3297POPC   C4A43890  30.895  29.815   7.343
 3297POPC   C1B43891  30.160  29.988   6.103
 3297POPC   C2B43892  30.201  29.845   6.571
 3297POPC   C3B43893  30.436  29.964   6.986
 3297POPC   C4B43894  30.417  29.924   7.450
 3298POPC   NC343895  11.787  27.240   5.415
 3298POPC   PO443896  12.263  27.700   5.435
 3298POPC   GL143897  12.174  27.492   5.817
 3298POPC   GL243898  12.434  27.238   5.874
 3298POPC   C1A43899  11.888  27.587   6.160
 3298POPC   D2A43900  11.873  27.745   6.577
 3298POPC   C3A43901  11.699  27.512   6.912
 3298POPC   C4A43902  11.869  27.523   7.330
 3298POPC   C1B43903  12.421  27.500   6.282
 3298POPC   C2B43904  12.423  27.618   6.742
 3298POPC   C3B43905  12.321  27.389   7.122
 3298POPC   C4B43906  12.378  27.389   7.591
 3299POPC   NC343907  29.358  38.207   5.527
 3299POPC   PO443908  28.701  38.339   5.380
 3299POPC   GL143909  28.899  38.386   5.818
 3299POPC   GL243910  29.193  38.621   5.798
 3299POPC   C1A43911  28.943  38.547   6.274
 3299POPC   D2A43912  28.827  38.740   6.682
 3299POPC   C3A43913  29.075  38.631   7.043
 3299POPC   C4A43914  29.054  38.684   7.504
 3299POPC   C1B43915  29.439  38.437   6.152
 3299POPC   C2B43916  29.404  38.289   6.577
 3299POPC   C3B43917  29.537  38.401   6.985
 3299POPC   C4B43918  29.360  38.310   7.377
 3300POPC   NC343919  42.836  41.063   5.602
 3300POPC   PO443920  43.307  40.648   5.312
 3300POPC   GL143921  43.242  40.780   5.754
 3300POPC   GL243922  42.913  40.596   5.844
 3300POPC   C1A43923  43.095  40.916   6.187
 3300POPC   D2A43924  42.888  40.743   6.515
 3300POPC   C3A43925  43.010  40.961   6.858
 3300POPC   C4A43926  42.941  40.964   7.258
 3300POPC   C1B43927  43.268  40.428   6.119
 3300POPC   C2B43928  43.349  40.516   6.546
 3300POPC   C3B43929  43.366  40.613   6.992
 3300POPC   C4B43930  43.276  40.612   7.441
 3301POPC   NC343931  41.704  14.966   5.336
 3301POPC   PO443932  41.280  14.440   5.374
 3301POPC   GL143933  41.627  14.452   5.696
 3301POPC   GL243934  41.715  14.104   5.785
 3301POPC   C1A43935  41.718  14.676   6.084
 3301POPC   D2A43936  41.446  14.582   6.440
 3301POPC   C3A43937  41.568  14.527   6.866
 3301POPC   C4A43938  41.494  14.558   7.307
 3301POPC   C1B43939  41.374  14.203   6.094
 3301POPC   C2B43940  41.266  14.096   6.547
 3301POPC   C3B43941  41.297  14.104   7.002
 3301POPC   C4B43942  41.657  14.075   7.227
 3302POPC   NC343943  25.667   2.640   5.436
 3302POPC   PO443944  26.316   2.697   5.334
 3302POPC   GL143945  26.322   2.608   5.776
 3302POPC   GL243946  25.973   2.536   5.821
 3302POPC   C1A43947  26.214   2.654   6.234
 3302POPC   D2A43948  25.974   2.690   6.604
 3302POPC   C3A43949  26.231   2.558   6.951
 3302POPC   C4A43950  26.220   2.680   7.403
 3302POPC   C1B43951  25.741   2.390   6.218
 3302POPC   C2B43952  25.484   2.460   6.538
 3302POPC   C3B43953  25.518   2.710   6.871
 3302POPC   C4B43954  25.759   2.682   7.191
 3303POPC   NC343955  27.217   3.554   5.044
 3303POPC   PO443956  27.864   3.551   5.356
 3303POPC   GL143957  27.717   3.608   5.730
 3303POPC   GL243958  27.948   3.394   5.855
 3303POPC   C1A43959  27.517   3.483   6.117
 3303POPC   D2A43960  27.613   3.630   6.529
 3303POPC   C3A43961  27.410   3.490   6.865
 3303POPC   C4A43962  27.278   3.808   7.108
 3303POPC   C1B43963  27.977   3.711   6.180
 3303POPC   C2B43964  28.127   3.560   6.560
 3303POPC   C3B43965  27.993   3.547   6.966
 3303POPC   C4B43966  27.778   3.841   7.145
 3304POPC   NC343967  34.099  38.358   5.249
 3304POPC   PO443968  34.671  38.692   5.426
 3304POPC   GL143969  34.438  38.393   5.662
 3304POPC   GL243970  34.723  38.205   5.819
 3304POPC   C1A43971  34.312  38.389   6.105
 3304POPC   D2A43972  34.547  38.473   6.484
 3304POPC   C3A43973  34.468  38.264   6.882
 3304POPC   C4A43974  34.309  38.577   7.137
 3304POPC   C1B43975  34.885  38.574   6.091
 3304POPC   C2B43976  34.998  38.720   6.528
 3304POPC   C3B43977  34.808  38.647   6.916
 3304POPC   C4B43978  34.805  38.688   7.360
 3305POPC   NC343979  44.051  27.348   5.346
 3305POPC   PO443980  44.776  27.520   5.283
 3305POPC   GL143981  44.789  27.443   5.714
 3305POPC   GL243982  44.472  27.281   5.669
 3305POPC   C1A43983  44.845  27.688   6.099
 3305POPC   D2A43984  44.632  27.804   6.484
 3305POPC   C3A43985  44.751  27.632   6.885
 3305POPC   C4A43986  44.593  27.732   7.313
 3305POPC   C1B43987  44.421  27.379   6.118
 3305POPC   C2B43988  44.438  27.333   6.569
 3305POPC   C3B43989  44.335  27.385   7.036
 3305POPC   C4B43990  44.407  27.271   7.508
 3306POPC   NC343991   9.402  33.960   5.172
 3306POPC   PO443992   8.800  33.674   5.417
 3306POPC   GL143993   8.873  33.977   5.802
 3306POPC   GL243994   8.874  33.626   5.944
 3306POPC   C1A43995   9.083  33.997   6.219
 3306POPC   D2A43996   9.130  33.689   6.549
 3306POPC   C3A43997   9.102  33.928   6.900
 3306POPC   C4A43998   9.075  34.077   7.294
 3306POPC   C1B43999   8.910  33.327   6.255
 3306POPC   C2B44000   8.703  33.200   6.615
 3306POPC   C3B44001   8.590  33.384   6.967
 3306POPC   C4B44002   8.836  33.610   7.202
 3307POPC   NC344003  16.758  30.401   5.046
 3307POPC   PO444004  16.463  30.894   5.387
 3307POPC   GL144005  16.712  30.835   5.809
 3307POPC   GL244006  16.440  30.709   5.974
 3307POPC   C1A44007  16.803  30.726   6.311
 3307POPC   D2A44008  16.534  30.725   6.704
 3307POPC   C3A44009  16.723  30.653   7.123
 3307POPC   C4A44010  17.138  30.682   7.315
 3307POPC   C1B44011  16.445  30.368   6.310
 3307POPC   C2B44012  16.630  30.228   6.737
 3307POPC   C3B44013  16.695  30.117   7.169
 3307POPC   C4B44014  16.375  30.035   7.498
 3308POPC   NC344015  27.682  36.022   5.278
 3308POPC   PO444016  27.807  36.667   5.439
 3308POPC   GL144017  27.611  36.334   5.722
 3308POPC   GL244018  27.538  35.966   5.773
 3308POPC   C1A44019  27.442  36.320   6.130
 3308POPC   D2A44020  27.533  36.450   6.543
 3308POPC   C3A44021  27.204  36.323   6.819
 3308POPC   C4A44022  27.126  36.253   7.253
 3308POPC   C1B44023  27.654  35.837   6.219
 3308POPC   C2B44024  27.488  35.890   6.656
 3308POPC   C3B44025  27.696  35.807   7.068
 3308POPC   C4B44026  27.757  35.593   7.487
 3309POPC   NC344027  11.003   7.532   5.566
 3309POPC   PO444028  11.655   7.302   5.450
 3309POPC   GL144029  11.352   7.293   5.853
 3309POPC   GL244030  11.249   7.592   6.009
 3309POPC   C1A44031  11.151   7.186   6.302
 3309POPC   D2A44032  11.358   7.178   6.716
 3309POPC   C3A44033  11.114   7.080   7.085
 3309POPC   C4A44034  11.141   7.120   7.573
 3309POPC   C1B44035  10.931   7.646   6.296
 3309POPC   C2B44036  10.986   7.523   6.694
 3309POPC   C3B44037  11.239   7.591   7.029
 3309POPC   C4B44038  10.916   7.503   7.277
 3310POPC   NC344039  41.705  33.368   5.437
 3310POPC   PO444040  41.359  32.831   5.367
 3310POPC   GL144041  41.512  32.938   5.792
 3310POPC   GL244042  41.511  33.280   5.922
 3310POPC   C1A44043  41.752  32.860   6.156
 3310POPC   D2A44044  41.878  32.787   6.583
 3310POPC   C3A44045  41.674  32.768   6.946
 3310POPC   C4A44046  41.671  33.040   7.279
 3310POPC   C1B44047  41.323  33.093   6.297
 3310POPC   C2B44048  41.373  33.138   6.735
 3310POPC   C3B44049  41.365  33.407   7.067
 3310POPC   C4B44050  41.185  33.119   7.312
 3311POPC   NC344051  14.122  23.944   5.419
 3311POPC   PO444052  14.709  23.542   5.437
 3311POPC   GL144053  14.523  23.761   5.819
 3311POPC   GL244054  14.230  23.775   5.895
 3311POPC   C1A44055  14.514  23.983   6.263
 3311POPC   D2A44056  14.400  24.160   6.687
 3311POPC   C3A44057  14.386  23.902   7.072
 3311POPC   C4A44058  14.520  24.043   7.467
 3311POPC   C1B44059  14.255  23.506   6.268
 3311POPC   C2B44060  14.223  23.419   6.713
 3311POPC   C3B44061  14.264  23.157   7.059
 3311POPC   C4B44062  14.347  23.201   7.518
 3312POPC   NC344063  32.535  16.499   4.967
 3312POPC   PO444064  32.364  16.135   5.491
 3312POPC   GL144065  32.322  16.046   5.925
 3312POPC   GL244066  31.993  15.926   5.976
 3312POPC   C1A44067  32.418  15.916   6.357
 3312POPC   D2A44068  32.407  16.047   6.792
 3312POPC   C3A44069  32.062  15.953   7.079
 3312POPC   C4A44070  32.046  16.065   7.537
 3312POPC   C1B44071  32.021  15.613   6.299
 3312POPC   C2B44072  32.162  15.580   6.707
 3312POPC   C3B44073  32.021  15.411   7.104
 3312POPC   C4B44074  31.834  15.580   7.484
 3313POPC   NC344075   0.606   9.341   5.380
 3313POPC   PO444076   0.045   8.997   5.633
 3313POPC   GL144077   0.420   9.116   5.802
 3313POPC   GL244078   0.549   8.825   5.608
 3313POPC   C1A44079   0.493   9.128   6.269
 3313POPC   D2A44080   0.146   9.017   6.557
 3313POPC   C3A44081   0.210   9.159   6.968
 3313POPC   C4A44082   0.590   9.117   7.237
 3313POPC   C1B44083   0.452   8.670   6.038
 3313POPC   C2B44084   0.489   8.574   6.468
 3313POPC   C3B44085   0.531   8.785   6.839
 3313POPC   C4B44086   0.448   8.631   7.258
 3314POPC   NC344087  27.019  23.603   5.552
 3314POPC   PO444088  26.426  23.206   5.779
 3314POPC   GL144089  26.762  23.420   5.972
 3314POPC   GL244090  26.722  23.773   5.938
 3314POPC   C1A44091  26.905  23.481   6.386
 3314POPC   D2A44092  26.739  23.802   6.658
 3314POPC   C3A44093  26.602  23.653   7.015
 3314POPC   C4A44094  26.967  23.419   7.095
 3314POPC   C1B44095  27.042  23.942   6.202
 3314POPC   C2B44096  27.261  23.855   6.569
 3314POPC   C3B44097  27.124  23.975   6.982
 3314POPC   C4B44098  26.875  23.918   7.336
 3315POPC   NC344099  34.841  32.039   5.309
 3315POPC   PO444100  34.522  32.597   5.110
 3315POPC   GL144101  34.569  32.548   5.606
 3315POPC   GL244102  34.479  32.202   5.719
 3315POPC   C1A44103  34.619  32.606   6.070
 3315POPC   D2A44104  34.722  32.393   6.473
 3315POPC   C3A44105  34.555  32.529   6.827
 3315POPC   C4A44106  34.606  32.409   7.239
 3315POPC   C1B44107  34.670  32.058   6.080
 3315POPC   C2B44108  34.536  31.913   6.481
 3315POPC   C3B44109  34.555  32.016   6.887
 3315POPC   C4B44110  34.884  31.959   7.155
 3316POPC   NC344111  23.631  34.554   5.477
 3316POPC   PO444112  24.024  35.060   5.695
 3316POPC   GL144113  23.806  34.775   5.925
 3316POPC   GL244114  23.833  34.400   5.922
 3316POPC   C1A44115  23.783  34.748   6.361
 3316POPC   D2A44116  23.928  34.537   6.686
 3316POPC   C3A44117  23.877  34.749   7.065
 3316POPC   C4A44118  23.849  34.822   7.509
 3316POPC   C1B44119  23.449  34.436   6.138
 3316POPC   C2B44120  23.407  34.454   6.554
 3316POPC   C3B44121  23.504  34.414   6.964
 3316POPC   C4B44122  23.417  34.594   7.345
 3317POPC   NC344123  38.997   3.183   5.096
 3317POPC   PO444124  39.087   2.661   5.630
 3317POPC   GL144125  39.317   2.771   5.942
 3317POPC   GL244126  39.087   3.041   6.091
 3317POPC   C1A44127  39.494   2.846   6.323
 3317POPC   D2A44128  39.268   3.086   6.642
 3317POPC   C3A44129  39.076   2.803   6.944
 3317POPC   C4A44130  39.390   2.693   7.259
 3317POPC   C1B44131  39.010   2.686   6.356
 3317POPC   C2B44132  38.700   2.546   6.607
 3317POPC   C3B44133  38.708   2.376   6.986
 3317POPC   C4B44134  38.929   2.465   7.323
 3318POPC   NC344135   5.771   9.768   5.173
 3318POPC   PO444136   6.065  10.199   5.724
 3318POPC   GL144137   5.808   9.899   5.928
 3318POPC   GL244138   5.873   9.555   5.774
 3318POPC   C1A44139   5.490   9.966   6.258
 3318POPC   D2A44140   5.363   9.978   6.712
 3318POPC   C3A44141   5.703  10.055   7.015
 3318POPC   C4A44142   6.111  10.085   7.212
 3318POPC   C1B44143   5.648   9.460   6.157
 3318POPC   C2B44144   5.863   9.658   6.504
 3318POPC   C3B44145   5.998   9.661   6.912
 3318POPC   C4B44146   5.634   9.525   7.116
 3319POPC   NC344147  28.079  10.414   5.391
 3319POPC   PO444148  27.686  10.030   5.719
 3319POPC   GL144149  28.101  10.259   5.879
 3319POPC   GL244150  28.490  10.320   5.828
 3319POPC   C1A44151  28.207  10.536   6.253
 3319POPC   D2A44152  28.358  10.777   6.627
 3319POPC   C3A44153  28.455  10.665   7.061
 3319POPC   C4A44154  28.342  10.369   7.403
 3319POPC   C1B44155  28.676  10.330   6.250
 3319POPC   C2B44156  28.778  10.443   6.704
 3319POPC   C3B44157  28.814  10.276   7.151
 3319POPC   C4B44158  28.777  10.193   7.640
 3320POPC   NC344159  23.244  29.038   5.454
 3320POPC   PO444160  22.729  29.433   5.492
 3320POPC   GL144161  22.827  29.041   5.745
 3320POPC   GL244162  23.071  29.257   5.889
 3320POPC   C1A44163  23.016  28.835   6.158
 3320POPC   D2A44164  22.984  29.053   6.563
 3320POPC   C3A44165  23.107  28.912   6.984
 3320POPC   C4A44166  22.991  28.832   7.407
 3320POPC   C1B44167  22.726  29.302   6.172
 3320POPC   C2B44168  22.645  29.449   6.578
 3320POPC   C3B44169  22.889  29.385   6.944
 3320POPC   C4B44170  22.754  29.281   7.319
 3321POPC   NC344171   5.224  44.245   5.407
 3321POPC   PO444172   4.920  44.862   5.270
 3321POPC   GL144173   4.978  44.655   5.697
 3321POPC   GL244174   4.785  44.300   5.721
 3321POPC   C1A44175   5.195  44.763   6.147
 3321POPC   D2A44176   5.283  44.755   6.634
 3321POPC   C3A44177   5.267  44.887   7.082
 3321POPC   C4A44178   5.151  44.857   7.547
 3321POPC   C1B44179   5.065  44.264   6.073
 3321POPC   C2B44180   4.978  44.369   6.492
 3321POPC   C3B44181   5.098  44.363   6.924
 3321POPC   C4B44182   4.871  44.555   7.238
 3322POPC   NC344183  25.000  26.977   5.168
 3322POPC   PO444184  25.320  26.414   5.461
 3322POPC   GL144185  25.184  26.724   5.812
 3322POPC   GL244186  25.030  27.029   5.682
 3322POPC   C1A44187  25.354  26.853   6.243
 3322POPC   D2A44188  25.515  26.646   6.653
 3322POPC   C3A44189  25.360  26.807   7.077
 3322POPC   C4A44190  25.538  26.901   7.523
 3322POPC   C1B44191  24.873  27.097   6.117
 3322POPC   C2B44192  25.023  27.080   6.565
 3322POPC   C3B44193  25.041  27.241   6.992
 3322POPC   C4B44194  25.121  27.128   7.404
 3323POPC   NC344195   9.569   8.806   5.118
 3323POPC   PO444196  10.078   9.232   5.232
 3323POPC   GL144197  10.007   9.131   5.691
 3323POPC   GL244198   9.698   9.317   5.756
 3323POPC   C1A44199   9.816   8.945   6.104
 3323POPC   D2A44200   9.578   8.982   6.531
 3323POPC   C3A44201   9.778   8.884   6.901
 3323POPC   C4A44202   9.873   8.989   7.288
 3323POPC   C1B44203   9.516   9.339   6.163
 3323POPC   C2B44204   9.341   9.556   6.497
 3323POPC   C3B44205   9.360   9.415   6.899
 3323POPC   C4B44206   9.593   9.403   7.276
 3324POPC   NC344207  25.719  44.023   5.342
 3324POPC   PO444208  26.303  43.647   5.348
 3324POPC   GL144209  26.217  43.855   5.780
 3324POPC   GL244210  25.870  43.866   5.799
 3324POPC   C1A44211  26.111  44.151   6.169
 3324POPC   D2A44212  25.962  44.340   6.591
 3324POPC   C3A44213  26.086  44.167   7.036
 3324POPC   C4A44214  26.083  43.847   7.406
 3324POPC   C1B44215  25.898  43.691   6.229
 3324POPC   C2B44216  26.018  43.789   6.654
 3324POPC   C3B44217  25.760  43.763   6.999
 3324POPC   C4B44218  25.671  43.557   7.399
 3325POPC   NC344219  27.869  43.252   5.428
 3325POPC   PO444220  27.307  42.817   5.554
 3325POPC   GL144221  27.461  43.029   5.901
 3325POPC   GL244222  27.731  43.221   5.970
 3325POPC   C1A44223  27.538  42.831   6.281
 3325POPC   D2A44224  27.710  42.770   6.699
 3325POPC   C3A44225  27.527  43.111   6.933
 3325POPC   C4A44226  27.416  43.363   7.282
 3325POPC   C1B44227  27.736  43.282   6.435
 3325POPC   C2B44228  27.575  43.607   6.722
 3325POPC   C3B44229  27.864  43.560   7.045
 3325POPC   C4B44230  27.896  43.204   7.266
 3326POPC   NC344231  21.969  34.896   5.036
 3326POPC   PO444232  21.744  34.393   5.403
 3326POPC   GL144233  22.042  34.549   5.781
 3326POPC   GL244234  22.393  34.377   5.773
 3326POPC   C1A44235  22.141  34.351   6.213
 3326POPC   D2A44236  22.379  34.413   6.585
 3326POPC   C3A44237  22.221  34.478   6.981
 3326POPC   C4A44238  21.962  34.446   7.316
 3326POPC   C1B44239  22.635  34.201   6.158
 3326POPC   C2B44240  22.658  33.989   6.585
 3326POPC   C3B44241  22.663  34.200   7.004
 3326POPC   C4B44242  22.503  34.329   7.417
 3327POPC   NC344243  27.816  23.638   5.270
 3327POPC   PO444244  27.368  24.076   5.478
 3327POPC   GL144245  27.565  23.736   5.751
 3327POPC   GL244246  27.897  23.531   5.757
 3327POPC   C1A44247  27.684  23.723   6.193
 3327POPC   D2A44248  27.776  24.016   6.523
 3327POPC   C3A44249  27.631  23.881   6.931
 3327POPC   C4A44250  27.415  23.627   7.219
 3327POPC   C1B44251  28.117  23.397   6.135
 3327POPC   C2B44252  28.017  23.503   6.546
 3327POPC   C3B44253  27.758  23.373   6.865
 3327POPC   C4B44254  27.924  23.563   7.219
 3328POPC   NC344255  12.345   2.967   5.415
 3328POPC   PO444256  11.722   2.786   5.486
 3328POPC   GL144257  12.033   2.805   5.813
 3328POPC   GL244258  11.979   3.125   5.963
 3328POPC   C1A44259  11.919   2.673   6.252
 3328POPC   D2A44260  12.129   2.671   6.687
 3328POPC   C3A44261  12.046   2.405   7.042
 3328POPC   C4A44262  11.705   2.411   7.363
 3328POPC   C1B44263  12.297   3.001   6.280
 3328POPC   C2B44264  12.230   3.173   6.680
 3328POPC   C3B44265  12.462   3.010   7.027
 3328POPC   C4B44266  12.523   2.590   7.127
 3329POPC   NC344267   3.780  25.815   5.527
 3329POPC   PO444268   3.350  26.307   5.389
 3329POPC   GL144269   3.330  26.082   5.785
 3329POPC   GL244270   3.643  26.016   5.959
 3329POPC   C1A44271   3.302  26.238   6.224
 3329POPC   D2A44272   3.582  26.131   6.547
 3329POPC   C3A44273   3.390  25.869   6.866
 3329POPC   C4A44274   3.202  26.116   7.225
 3329POPC   C1B44275   3.901  25.784   6.251
 3329POPC   C2B44276   4.010  25.882   6.670
 3329POPC   C3B44277   3.853  25.996   7.049
 3329POPC   C4B44278   3.627  25.804   7.344
 3330POPC   NC344279  31.499  44.197   5.569
 3330POPC   PO444280  31.181  44.645   5.130
 3330POPC   GL144281  31.208  44.619   5.646
 3330POPC   GL244282  31.569  44.635   5.839
 3330POPC   C1A44283  31.152  44.595   6.135
 3330POPC   D2A44284  31.403  44.784   6.494
 3330POPC   C3A44285  31.710  44.781   6.801
 3330POPC   C4A44286  31.700  44.848   7.229
 3330POPC   C1B44287  31.585  44.342   6.224
 3330POPC   C2B44288  31.383  44.296   6.628
 3330POPC   C3B44289  31.333  44.497   7.002
 3330POPC   C4B44290  31.697  44.321   7.119
 3331POPC   NC344291  18.710   8.848   5.521
 3331POPC   PO444292  18.159   9.055   5.194
 3331POPC   GL144293  18.287   9.114   5.708
 3331POPC   GL244294  18.614   9.209   5.878
 3331POPC   C1A44295  18.312   8.974   6.216
 3331POPC   D2A44296  18.142   8.946   6.670
 3331POPC   C3A44297  18.311   8.930   7.100
 3331POPC   C4A44298  18.263   9.237   7.437
 3331POPC   C1B44299  18.771   9.186   6.309
 3331POPC   C2B44300  18.652   9.062   6.720
 3331POPC   C3B44301  18.740   9.197   7.156
 3331POPC   C4B44302  18.628   9.599   7.383
 3332POPC   NC344303  32.470  32.542   5.099
 3332POPC   PO444304  31.991  32.264   5.464
 3332POPC   GL144305  32.093  32.222   5.857
 3332POPC   GL244306  32.439  32.208   5.841
 3332POPC   C1A44307  32.168  32.065   6.249
 3332POPC   D2A44308  32.479  32.068   6.532
 3332POPC   C3A44309  32.312  32.268   6.864
 3332POPC   C4A44310  32.077  32.120   7.203
 3332POPC   C1B44311  32.332  32.545   6.186
 3332POPC   C2B44312  32.438  32.793   6.550
 3332POPC   C3B44313  32.510  32.725   6.976
 3332POPC   C4B44314  32.556  32.453   7.281
 3333POPC   NC344315  35.406  36.545   5.569
 3333POPC   PO444316  35.194  37.083   5.181
 3333POPC   GL144317  35.154  37.004   5.654
 3333POPC   GL244318  35.007  36.693   5.860
 3333POPC   C1A44319  35.290  37.034   6.110
 3333POPC   D2A44320  35.022  36.825   6.473
 3333POPC   C3A44321  35.197  36.847   6.897
 3333POPC   C4A44322  35.242  37.045   7.303
 3333POPC   C1B44323  35.311  36.535   6.191
 3333POPC   C2B44324  35.551  36.758   6.481
 3333POPC   C3B44325  35.680  36.632   6.857
 3333POPC   C4B44326  35.520  36.603   7.269
 3334POPC   NC344327  21.527  43.623   5.435
 3334POPC   PO444328  21.694  42.938   5.485
 3334POPC   GL144329  21.357  43.123   5.751
 3334POPC   GL244330  21.227  42.785   5.794
 3334POPC   C1A44331  21.288  43.393   6.160
 3334POPC   D2A44332  21.340  43.589   6.607
 3334POPC   C3A44333  21.391  43.368   7.006
 3334POPC   C4A44334  21.099  43.062   7.103
 3334POPC   C1B44335  21.482  42.914   6.205
 3334POPC   C2B44336  21.487  42.989   6.660
 3334POPC   C3B44337  21.477  42.718   7.048
 3334POPC   C4B44338  21.186  42.609   7.415
 3335POPC   NC344339   6.900   5.680   5.507
 3335POPC   PO444340   6.273   6.099   5.428
 3335POPC   GL144341   6.563   6.003   5.755
 3335POPC   GL244342   6.427   5.680   5.760
 3335POPC   C1A44343   6.712   5.916   6.196
 3335POPC   D2A44344   6.417   6.052   6.526
 3335POPC   C3A44345   6.603   6.163   6.917
 3335POPC   C4A44346   6.902   5.987   7.202
 3335POPC   C1B44347   6.309   5.613   6.163
 3335POPC   C2B44348   6.500   5.529   6.551
 3335POPC   C3B44349   6.737   5.619   6.894
 3335POPC   C4B44350   6.861   5.476   7.282
 3336POPC   NC344351  22.818  23.332   5.455
 3336POPC   PO444352  23.203  23.919   5.509
 3336POPC   GL144353  23.106  23.615   5.788
 3336POPC   GL244354  22.804  23.749   5.912
 3336POPC   C1A44355  23.160  23.453   6.184
 3336POPC   D2A44356  22.936  23.465   6.555
 3336POPC   C3A44357  22.999  23.696   6.931
 3336POPC   C4A44358  23.143  23.761   7.334
 3336POPC   C1B44359  22.873  23.924   6.345
 3336POPC   C2B44360  22.629  24.017   6.740
 3336POPC   C3B44361  22.602  23.953   7.203
 3336POPC   C4B44362  22.845  24.125   7.545
 3337POPC   NC344363  36.637  18.953   5.111
 3337POPC   PO444364  36.145  18.896   5.609
 3337POPC   GL144365  36.136  19.149   5.964
 3337POPC   GL244366  35.821  19.258   6.050
 3337POPC   C1A44367  36.317  19.014   6.336
 3337POPC   D2A44368  36.343  19.124   6.740
 3337POPC   C3A44369  36.295  18.916   7.130
 3337POPC   C4A44370  36.353  18.937   7.610
 3337POPC   C1B44371  35.854  18.828   6.255
 3337POPC   C2B44372  35.937  18.829   6.692
 3337POPC   C3B44373  35.798  19.047   7.048
 3337POPC   C4B44374  35.976  19.272   7.392
 3338POPC   NC344375  11.620  11.464   5.028
 3338POPC   PO444376  11.139  11.268   5.480
 3338POPC   GL144377  11.227  11.363   5.896
 3338POPC   GL244378  11.589  11.358   5.939
 3338POPC   C1A44379  11.303  11.565   6.297
 3338POPC   D2A44380  11.462  11.313   6.647
 3338POPC   C3A44381  11.356  11.488   7.068
 3338POPC   C4A44382  11.273  11.270   7.467
 3338POPC   C1B44383  11.727  11.052   6.252
 3338POPC   C2B44384  11.748  10.834   6.649
 3338POPC   C3B44385  11.645  10.912   7.073
 3338POPC   C4B44386  11.661  10.844   7.536
 3339POPC   NC344387  30.752  41.948   5.498
 3339POPC   PO444388  30.973  41.347   5.491
 3339POPC   GL144389  30.728  41.494   5.862
 3339POPC   GL244390  30.821  41.781   5.968
 3339POPC   C1A44391  30.539  41.536   6.298
 3339POPC   D2A44392  30.746  41.648   6.694
 3339POPC   C3A44393  30.486  41.755   7.021
 3339POPC   C4A44394  30.471  41.545   7.404
 3339POPC   C1B44395  30.963  41.955   6.343
 3339POPC   C2B44396  31.254  41.840   6.669
 3339POPC   C3B44397  31.198  41.757   7.088
 3339POPC   C4B44398  30.867  41.845   7.346
 3340POPC   NC344399  23.368   3.324   5.440
 3340POPC   PO444400  23.776   3.795   5.528
 3340POPC   GL144401  23.589   3.558   5.834
 3340POPC   GL244402  23.720   3.230   5.811
 3340POPC   C1A44403  23.393   3.427   6.201
 3340POPC   D2A44404  23.465   3.281   6.613
 3340POPC   C3A44405  23.697   3.634   6.791
 3340POPC   C4A44406  23.851   3.618   7.201
 3340POPC   C1B44407  23.910   3.313   6.248
 3340POPC   C2B44408  23.967   3.199   6.712
 3340POPC   C3B44409  23.700   3.136   7.082
 3340POPC   C4B44410  23.756   3.178   7.548
 3341POPC   NC344411  28.378  39.629   5.311
 3341POPC   PO444412  28.028  39.065   5.386
 3341POPC   GL144413  28.328  39.267   5.699
 3341POPC   GL244414  28.616  39.073   5.811
 3341POPC   C1A44415  28.364  39.419   6.148
 3341POPC   D2A44416  27.996  39.408   6.449
 3341POPC   C3A44417  28.054  39.314   6.884
 3341POPC   C4A44418  28.448  39.402   7.008
 3341POPC   C1B44419  28.662  38.969   6.224
 3341POPC   C2B44420  28.455  39.122   6.573
 3341POPC   C3B44421  28.377  38.913   6.940
 3341POPC   C4B44422  28.687  38.930   7.219
 3342POPC   NC344423  27.640  44.038   5.418
 3342POPC   PO444424  27.475  43.450   5.568
 3342POPC   GL144425  27.687  43.728   5.826
 3342POPC   GL244426  27.464  44.063   5.913
 3342POPC   C1A44427  27.696  43.754   6.245
 3342POPC   D2A44428  27.695  44.139   6.507
 3342POPC   C3A44429  27.759  44.088   6.945
 3342POPC   C4A44430  27.487  43.849   7.173
 3342POPC   C1B44431  27.240  43.958   6.346
 3342POPC   C2B44432  27.247  44.127   6.804
 3342POPC   C3B44433  27.357  44.331   7.227
 3342POPC   C4B44434  27.296  44.385   7.722
 3343POPC   NC344435  37.492   7.313   5.315
 3343POPC   PO444436  37.754   8.008   5.388
 3343POPC   GL144437  37.563   7.698   5.705
 3343POPC   GL244438  37.706   7.358   5.787
 3343POPC   C1A44439  37.454   7.656   6.149
 3343POPC   D2A44440  37.642   7.700   6.569
 3343POPC   C3A44441  37.608   7.474   6.958
 3343POPC   C4A44442  37.557   7.204   7.283
 3343POPC   C1B44443  37.917   7.422   6.190
 3343POPC   C2B44444  37.974   7.280   6.615
 3343POPC   C3B44445  38.048   7.238   7.045
 3343POPC   C4B44446  37.954   7.490   7.409
 3344POPC   NC344447   3.720  16.713   5.131
 3344POPC   PO444448   3.226  17.052   5.352
 3344POPC   GL144449   3.290  16.986   5.804
 3344POPC   GL244450   3.505  16.686   5.868
 3344POPC   C1A44451   3.154  16.980   6.248
 3344POPC   D2A44452   3.187  17.138   6.689
 3344POPC   C3A44453   3.294  16.828   6.969
 3344POPC   C4A44454   3.647  16.606   7.149
 3344POPC   C1B44455   3.605  16.593   6.330
 3344POPC   C2B44456   3.836  16.379   6.711
 3344POPC   C3B44457   4.079  16.352   7.148
 3344POPC   C4B44458   4.037  16.405   7.640
 3345POPC   NC344459  19.160  41.895   5.161
 3345POPC   PO444460  18.555  41.776   5.283
 3345POPC   GL144461  18.777  41.786   5.738
 3345POPC   GL244462  18.878  41.473   5.856
 3345POPC   C1A44463  18.895  41.882   6.210
 3345POPC   D2A44464  18.831  41.849   6.691
 3345POPC   C3A44465  19.165  41.706   6.999
 3345POPC   C4A44466  19.194  41.633   7.479
 3345POPC   C1B44467  19.002  41.386   6.292
 3345POPC   C2B44468  18.771  41.346   6.700
 3345POPC   C3B44469  18.773  41.312   7.139
 3345POPC   C4B44470  18.946  40.962   7.376
 3346POPC   NC344471  25.953  28.172   5.149
 3346POPC   PO444472  26.427  28.573   5.393
 3346POPC   GL144473  26.268  28.488   5.794
 3346POPC   GL244474  25.966  28.269   5.773
 3346POPC   C1A44475  26.116  28.561   6.192
 3346POPC   D2A44476  26.089  28.301   6.517
 3346POPC   C3A44477  26.113  28.480   6.892
 3346POPC   C4A44478  26.263  28.323   7.267
 3346POPC   C1B44479  25.655  28.365   6.132
 3346POPC   C2B44480  25.674  28.563   6.557
 3346POPC   C3B44481  25.616  28.320   6.902
 3346POPC   C4B44482  25.761  28.299   7.296
 3347POPC   NC344483  42.291  16.481   5.393
 3347POPC   PO444484  42.774  17.002   5.339
 3347POPC   GL144485  42.433  16.897   5.663
 3347POPC   GL244486  42.420  16.661   5.845
 3347POPC   C1A44487  42.175  17.070   6.039
 3347POPC   D2A44488  42.019  17.089   6.470
 3347POPC   C3A44489  42.209  16.799   6.784
 3347POPC   C4A44490  42.102  16.742   7.225
 3347POPC   C1B44491  42.273  16.585   6.258
 3347POPC   C2B44492  42.489  16.406   6.600
 3347POPC   C3B44493  42.533  16.286   7.012
 3347POPC   C4B44494  42.603  16.636   7.291
 3348POPC   NC344495  30.275  40.586   5.037
 3348POPC   PO444496  30.040  40.987   5.518
 3348POPC   GL144497  29.897  40.813   5.899
 3348POPC   GL244498  30.251  40.779   5.938
 3348POPC   C1A44499  29.932  40.557   6.317
 3348POPC   D2A44500  29.711  40.339   6.696
 3348POPC   C3A44501  29.638  40.573   7.117
 3348POPC   C4A44502  29.874  40.868   7.416
 3348POPC   C1B44503  30.145  41.165   6.179
 3348POPC   C2B44504  30.163  40.955   6.539
 3348POPC   C3B44505  30.104  40.939   6.960
 3348POPC   C4B44506  30.346  40.781   7.251
 3349POPC   NC344507  28.846  30.308   5.487
 3349POPC   PO444508  29.504  30.047   5.438
 3349POPC   GL144509  29.242  29.914   5.761
 3349POPC   GL244510  29.152  29.566   5.857
 3349POPC   C1A44511  29.141  30.073   6.149
 3349POPC   D2A44512  29.135  29.868   6.516
 3349POPC   C3A44513  29.347  30.043   6.861
 3349POPC   C4A44514  29.473  29.942   7.262
 3349POPC   C1B44515  28.771  29.708   6.143
 3349POPC   C2B44516  28.650  29.718   6.602
 3349POPC   C3B44517  28.862  29.911   6.981
 3349POPC   C4B44518  28.975  29.892   7.442
 3350POPC   NC344519   2.866  28.987   5.422
 3350POPC   PO444520   2.269  29.386   5.323
 3350POPC   GL144521   2.441  29.454   5.756
 3350POPC   GL244522   2.812  29.429   5.716
 3350POPC   C1A44523   2.567  29.276   6.185
 3350POPC   D2A44524   2.579  28.866   6.470
 3350POPC   C3A44525   2.474  28.920   6.911
 3350POPC   C4A44526   2.479  29.340   7.048
 3350POPC   C1B44527   3.097  29.333   6.077
 3350POPC   C2B44528   3.182  29.201   6.505
 3350POPC   C3B44529   2.953  29.080   6.857
 3350POPC   C4B44530   2.992  29.363   7.164
 3351POPC   NC344531  15.243  16.337   5.540
 3351POPC   PO444532  14.989  17.057   5.522
 3351POPC   GL144533  15.139  16.773   5.816
 3351POPC   GL244534  14.927  16.496   5.903
 3351POPC   C1A44535  15.351  16.595   6.180
 3351POPC   D2A44536  15.296  16.492   6.599
 3351POPC   C3A44537  15.308  16.695   6.984
 3351POPC   C4A44538  15.461  16.476   7.308
 3351POPC   C1B44539  14.873  16.835   6.227
 3351POPC   C2B44540  14.948  16.898   6.630
 3351POPC   C3B44541  14.771  16.799   7.011
 3351POPC   C4B44542  14.926  16.680   7.380
 3352POPC   NC344543  44.520  22.384   5.309
 3352POPC   PO444544  44.849  21.817   5.281
 3352POPC   GL144545  44.881  22.053   5.705
 3352POPC   GL244546  44.593  22.284   5.807
 3352POPC   C1A44547  44.820  22.037   6.185
 3352POPC   D2A44548  44.767  22.298   6.567
 3352POPC   C3A44549  44.800  22.131   6.983
 3352POPC   C4A44550  44.664  21.775   7.195
 3352POPC   C1B44551  44.515  22.560   6.173
 3352POPC   C2B44552  44.474  22.734   6.586
 3352POPC   C3B44553  44.457  22.519   6.969
 3352POPC   C4B44554  44.165  22.510   7.319
 3353POPC   NC344555  38.700  23.271   5.050
 3353POPC   PO444556  38.597  22.769   5.470
 3353POPC   GL144557  38.525  22.770   5.890
 3353POPC   GL244558  38.420  23.111   5.900
 3353POPC   C1A44559  38.551  22.837   6.322
 3353POPC   D2A44560  38.276  22.837   6.666
 3353POPC   C3A44561  38.531  22.693   7.014
 3353POPC   C4A44562  38.827  22.575   7.335
 3353POPC   C1B44563  38.263  23.255   6.308
 3353POPC   C2B44564  38.407  23.333   6.728
 3353POPC   C3B44565  38.323  23.142   7.129
 3353POPC   C4B44566  38.203  23.246   7.570
 3354POPC   NC344567  16.541  37.494   5.284
 3354POPC   PO444568  17.053  37.913   5.399
 3354POPC   GL144569  16.692  37.853   5.734
 3354POPC   GL244570  16.495  37.513   5.775
 3354POPC   C1A44571  16.575  37.819   6.192
 3354POPC   D2A44572  16.672  37.982   6.578
 3354POPC   C3A44573  16.769  37.791   6.904
 3354POPC   C4A44574  16.439  37.910   7.165
 3354POPC   C1B44575  16.739  37.358   6.099
 3354POPC   C2B44576  16.618  37.391   6.528
 3354POPC   C3B44577  16.451  37.412   6.935
 3354POPC   C4B44578  16.669  37.491   7.327
 3355POPC   NC344579  20.365  44.954   5.556
 3355POPC   PO444580  20.663  44.475   5.129
 3355POPC   GL144581  20.678  44.540   5.602
 3355POPC   GL244582  20.370  44.392   5.782
 3355POPC   C1A44583  20.762  44.558   6.070
 3355POPC   D2A44584  20.661  44.287   6.453
 3355POPC   C3A44585  20.671  44.508   6.861
 3355POPC   C4A44586  20.772  44.630   7.262
 3355POPC   C1B44587  20.251  44.644   6.178
 3355POPC   C2B44588  20.229  44.556   6.622
 3355POPC   C3B44589  20.184  44.329   6.991
 3355POPC   C4B44590  20.275  44.559   7.343
 3356POPC   NC344591  24.724   9.252   5.573
 3356POPC   PO444592  24.266   8.746   5.393
 3356POPC   GL144593  24.265   8.900   5.874
 3356POPC   GL244594  24.534   9.128   6.049
 3356POPC   C1A44595  24.292   8.763   6.324
 3356POPC   D2A44596  24.340   8.555   6.728
 3356POPC   C3A44597  24.211   8.822   7.004
 3356POPC   C4A44598  24.185   9.262   7.026
 3356POPC   C1B44599  24.802   8.852   6.337
 3356POPC   C2B44600  24.834   8.737   6.742
 3356POPC   C3B44601  24.658   9.038   7.039
 3356POPC   C4B44602  24.675   9.295   7.400
 3357POPC   NC344603  40.425  38.892   5.403
 3357POPC   PO444604  39.836  39.259   5.266
 3357POPC   GL144605  39.864  39.148   5.690
 3357POPC   GL244606  40.187  39.193   5.719
 3357POPC   C1A44607  39.868  39.254   6.136
 3357POPC   D2A44608  39.967  39.470   6.516
 3357POPC   C3A44609  39.937  39.259   6.908
 3357POPC   C4A44610  39.997  39.398   7.321
 3357POPC   C1B44611  40.313  39.033   6.103
 3357POPC   C2B44612  40.424  39.227   6.474
 3357POPC   C3B44613  40.442  39.204   6.891
 3357POPC   C4B44614  40.428  39.106   7.297
 3358POPC   NC344615  41.842  19.647   5.472
 3358POPC   PO444616  41.213  19.471   5.557
 3358POPC   GL144617  41.455  19.749   5.881
 3358POPC   GL244618  41.819  19.900   5.911
 3358POPC   C1A44619  41.540  19.869   6.326
 3358POPC   D2A44620  41.508  20.000   6.758
 3358POPC   C3A44621  41.474  19.682   7.066
 3358POPC   C4A44622  41.197  19.488   7.316
 3358POPC   C1B44623  41.880  20.245   6.205
 3358POPC   C2B44624  42.106  20.319   6.587
 3358POPC   C3B44625  41.910  20.271   7.001
 3358POPC   C4B44626  41.569  20.146   7.249
 3359POPC   NC344627  27.494  31.143   5.307
 3359POPC   PO444628  27.573  31.716   5.519
 3359POPC   GL144629  27.457  31.626   5.956
 3359POPC   GL244630  27.548  31.269   5.954
 3359POPC   C1A44631  27.525  31.507   6.420
 3359POPC   D2A44632  27.747  31.190   6.677
 3359POPC   C3A44633  27.940  31.308   7.109
 3359POPC   C4A44634  28.150  31.637   7.393
 3359POPC   C1B44635  27.276  31.066   6.273
 3359POPC   C2B44636  27.181  31.179   6.663
 3359POPC   C3B44637  27.384  31.159   7.036
 3359POPC   C4B44638  27.261  31.217   7.435
 3360POPC   NC344639  13.538   4.493   5.013
 3360POPC   PO444640  13.554   5.095   5.398
 3360POPC   GL144641  13.674   5.061   5.834
 3360POPC   GL244642  13.979   5.182   5.958
 3360POPC   C1A44643  13.511   4.969   6.245
 3360POPC   D2A44644  13.667   5.033   6.660
 3360POPC   C3A44645  13.437   5.059   7.043
 3360POPC   C4A44646  13.342   4.669   7.257
 3360POPC   C1B44647  13.757   5.414   6.280
 3360POPC   C2B44648  13.702   5.545   6.693
 3360POPC   C3B44649  13.884   5.352   7.018
 3360POPC   C4B44650  13.984   5.180   7.402
 3361POPC   NC344651   4.650  11.483   5.480
 3361POPC   PO444652   4.161  10.982   5.565
 3361POPC   GL144653   4.395  11.218   5.847
 3361POPC   GL244654   4.708  11.035   5.795
 3361POPC   C1A44655   4.310  11.338   6.265
 3361POPC   D2A44656   4.448  11.529   6.664
 3361POPC   C3A44657   4.182  11.464   7.039
 3361POPC   C4A44658   3.913  11.496   7.419
 3361POPC   C1B44659   4.615  10.944   6.232
 3361POPC   C2B44660   4.433  10.978   6.653
 3361POPC   C3B44661   4.535  10.994   7.121
 3361POPC   C4B44662   4.567  10.745   7.540
 3362POPC   NC344663  24.573  15.253   5.355
 3362POPC   PO444664  24.398  14.646   5.515
 3362POPC   GL144665  24.473  14.983   5.797
 3362POPC   GL244666  24.818  14.895   5.766
 3362POPC   C1A44667  24.381  15.228   6.220
 3362POPC   D2A44668  24.536  15.236   6.642
 3362POPC   C3A44669  24.237  15.291   6.975
 3362POPC   C4A44670  24.249  15.423   7.396
 3362POPC   C1B44671  24.757  14.895   6.215
 3362POPC   C2B44672  24.465  14.740   6.521
 3362POPC   C3B44673  24.669  14.810   6.917
 3362POPC   C4B44674  24.545  15.024   7.278
 3363POPC   NC344675   1.893  11.461   5.087
 3363POPC   PO444676   2.382  11.264   5.545
 3363POPC   GL144677   2.076  11.342   5.824
 3363POPC   GL244678   1.778  11.504   5.654
 3363POPC   C1A44679   2.066  11.196   6.249
 3363POPC   D2A44680   2.048  10.993   6.623
 3363POPC   C3A44681   2.023  11.333   6.871
 3363POPC   C4A44682   1.934  11.433   7.280
 3363POPC   C1B44683   1.605  11.273   6.048
 3363POPC   C2B44684   1.623  11.348   6.523
 3363POPC   C3B44685   1.548  11.215   6.978
 3363POPC   C4B44686   1.813  10.935   7.267
 3364POPC   NC344687  33.616  22.399   5.532
 3364POPC   PO444688  34.201  22.379   5.536
 3364POPC   GL144689  33.978  22.269   5.921
 3364POPC   GL244690  33.670  22.022   5.930
 3364POPC   C1A44691  33.899  22.279   6.364
 3364POPC   D2A44692  34.012  22.164   6.769
 3364POPC   C3A44693  33.821  22.430   7.096
 3364POPC   C4A44694  33.935  22.305   7.529
 3364POPC   C1B44695  33.449  22.033   6.351
 3364POPC   C2B44696  33.531  22.080   6.824
 3364POPC   C3B44697  33.767  21.919   7.214
 3364POPC   C4B44698  33.612  21.767   7.642
 3365POPC   NC344699   6.782  13.120   5.421
 3365POPC   PO444700   6.610  12.444   5.378
 3365POPC   GL144701   6.599  12.645   5.780
 3365POPC   GL244702   6.650  13.006   5.899
 3365POPC   C1A44703   6.432  12.629   6.171
 3365POPC   D2A44704   6.445  12.957   6.453
 3365POPC   C3A44705   6.556  12.764   6.854
 3365POPC   C4A44706   6.291  12.693   7.205
 3365POPC   C1B44707   6.941  12.924   6.222
 3365POPC   C2B44708   6.892  13.102   6.623
 3365POPC   C3B44709   6.992  13.006   7.021
 3365POPC   C4B44710   7.146  12.711   7.292
 3366POPC   NC344711   2.568  14.174   5.378
 3366POPC   PO444712   3.101  14.692   5.532
 3366POPC   GL144713   3.063  14.608   5.962
 3366POPC   GL244714   2.915  14.306   5.874
 3366POPC   C1A44715   2.761  14.612   6.327
 3366POPC   D2A44716   2.516  14.467   6.698
 3366POPC   C3A44717   2.599  14.686   7.084
 3366POPC   C4A44718   2.428  14.772   7.507
 3366POPC   C1B44719   2.591  14.159   6.166
 3366POPC   C2B44720   2.363  14.018   6.546
 3366POPC   C3B44721   2.419  14.031   6.996
 3366POPC   C4B44722   2.750  14.223   7.232
 3367POPC   NC344723  27.028  30.743   5.386
 3367POPC   PO444724  27.689  30.732   5.387
 3367POPC   GL144725  27.587  30.782   5.818
 3367POPC   GL244726  27.231  30.847   5.830
 3367POPC   C1A44727  27.717  30.794   6.271
 3367POPC   D2A44728  27.515  30.731   6.678
 3367POPC   C3A44729  27.804  30.809   7.029
 3367POPC   C4A44730  27.716  30.989   7.441
 3367POPC   C1B44731  27.280  30.526   6.150
 3367POPC   C2B44732  27.242  30.268   6.517
 3367POPC   C3B44733  27.204  30.400   6.930
 3367POPC   C4B44734  27.341  30.696   7.232
 3368POPC   NC344735   2.003  14.983   5.214
 3368POPC   PO444736   2.157  14.302   5.217
 3368POPC   GL144737   2.178  14.263   5.716
 3368POPC   GL244738   1.925  14.498   5.891
 3368POPC   C1A44739   2.063  14.090   6.133
 3368POPC   D2A44740   1.853  13.992   6.533
 3368POPC   C3A44741   1.963  14.218   6.901
 3368POPC   C4A44742   1.900  14.026   7.301
 3368POPC   C1B44743   2.190  14.634   6.254
 3368POPC   C2B44744   2.039  14.735   6.670
 3368POPC   C3B44745   2.075  14.696   7.118
 3368POPC   C4B44746   1.722  14.520   7.276
 3369POPC   NC344747  39.717  38.680   5.279
 3369POPC   PO444748  40.377  38.421   5.343
 3369POPC   GL144749  40.104  38.364   5.699
 3369POPC   GL244750  40.039  38.678   5.709
 3369POPC   C1A44751  39.993  38.197   6.114
 3369POPC   D2A44752  40.049  38.390   6.533
 3369POPC   C3A44753  40.116  38.253   6.945
 3369POPC   C4A44754  39.917  38.379   7.309
 3369POPC   C1B44755  39.883  38.727   6.112
 3369POPC   C2B44756  39.969  38.901   6.517
 3369POPC   C3B44757  39.872  38.721   6.919
 3369POPC   C4B44758  39.990  38.873   7.315
 3370POPC   NC344759  23.533   1.570   5.054
 3370POPC   PO444760  23.871   1.964   5.514
 3370POPC   GL144761  23.583   2.063   5.820
 3370POPC   GL244762  23.812   1.977   6.033
 3370POPC   C1A44763  23.487   2.362   6.141
 3370POPC   D2A44764  23.654   2.300   6.545
 3370POPC   C3A44765  23.431   2.258   6.931
 3370POPC   C4A44766  23.496   2.113   7.373
 3370POPC   C1B44767  23.773   1.584   6.221
 3370POPC   C2B44768  23.937   1.568   6.602
 3370POPC   C3B44769  23.784   1.881   6.866
 3370POPC   C4B44770  23.375   1.746   7.041
 3371POPC   NC344771  17.245  33.428   5.561
 3371POPC   PO444772  17.384  32.883   5.164
 3371POPC   GL144773  17.453  32.861   5.682
 3371POPC   GL244774  17.630  33.144   5.785
 3371POPC   C1A44775  17.427  32.905   6.192
 3371POPC   D2A44776  17.662  32.826   6.621
 3371POPC   C3A44777  17.358  32.895   7.019
 3371POPC   C4A44778  17.434  32.838   7.505
 3371POPC   C1B44779  17.631  33.362   6.209
 3371POPC   C2B44780  17.478  33.284   6.647
 3371POPC   C3B44781  17.720  33.233   7.069
 3371POPC   C4B44782  17.564  33.311   7.515
 3372POPC   NC344783  17.510  37.277   5.405
 3372POPC   PO444784  17.580  36.649   5.257
 3372POPC   GL144785  17.606  36.826   5.676
 3372POPC   GL244786  17.274  36.948   5.752
 3372POPC   C1A44787  17.621  36.922   6.129
 3372POPC   D2A44788  17.574  37.195   6.475
 3372POPC   C3A44789  17.687  36.970   6.826
 3372POPC   C4A44790  17.704  36.884   7.250
 3372POPC   C1B44791  17.137  37.067   6.197
 3372POPC   C2B44792  17.084  37.171   6.654
 3372POPC   C3B44793  17.258  37.115   7.108
 3372POPC   C4B44794  17.212  36.811   7.496
 3373POPC   NC344795  14.539  39.864   5.507
 3373POPC   PO444796  14.013  40.200   5.711
 3373POPC   GL144797  14.238  39.848   5.957
 3373POPC   GL244798  14.608  39.834   5.999
 3373POPC   C1A44799  14.266  39.769   6.418
 3373POPC   D2A44800  14.108  39.979   6.792
 3373POPC   C3A44801  14.195  39.815   7.203
 3373POPC   C4A44802  14.650  39.738   7.253
 3373POPC   C1B44803  14.539  40.179   6.258
 3373POPC   C2B44804  14.571  40.194   6.709
 3373POPC   C3B44805  14.493  40.232   7.158
 3373POPC   C4B44806  14.749  40.197   7.532
 3374POPC   NC344807  31.219   9.493   5.397
 3374POPC   PO444808  31.804  10.001   5.383
 3374POPC   GL144809  31.788   9.808   5.803
 3374POPC   GL244810  31.544   9.542   5.805
 3374POPC   C1A44811  31.542   9.832   6.221
 3374POPC   D2A44812  31.367   9.938   6.626
 3374POPC   C3A44813  31.635   9.876   6.979
 3374POPC   C4A44814  31.491   9.945   7.393
 3374POPC   C1B44815  31.388   9.342   6.205
 3374POPC   C2B44816  31.241   9.233   6.614
 3374POPC   C3B44817  31.259   9.339   7.046
 3374POPC   C4B44818  31.594   9.466   7.288
 3375POPC   NC344819  10.891   8.308   5.496
 3375POPC   PO444820  10.344   7.861   5.559
 3375POPC   GL144821  10.560   8.085   5.849
 3375POPC   GL244822  10.884   7.946   5.877
 3375POPC   C1A44823  10.346   8.306   6.195
 3375POPC   D2A44824  10.350   8.528   6.578
 3375POPC   C3A44825  10.413   8.329   6.945
 3375POPC   C4A44826  10.726   8.412   7.221
 3375POPC   C1B44827  10.812   8.134   6.298
 3375POPC   C2B44828  10.710   7.978   6.692
 3375POPC   C3B44829  10.665   7.916   7.127
 3375POPC   C4B44830  10.669   7.783   7.622
 3376POPC   NC344831  21.167  34.113   5.399
 3376POPC   PO444832  21.668  33.654   5.263
 3376POPC   GL144833  21.547  33.684   5.740
 3376POPC   GL244834  21.242  33.867   5.849
 3376POPC   C1A44835  21.449  33.484   6.196
 3376POPC   D2A44836  21.523  33.650   6.634
 3376POPC   C3A44837  21.292  33.526   7.004
 3376POPC   C4A44838  21.381  33.603   7.463
 3376POPC   C1B44839  21.342  33.981   6.252
 3376POPC   C2B44840  21.354  34.160   6.649
 3376POPC   C3B44841  21.385  34.009   7.064
 3376POPC   C4B44842  21.630  34.078   7.405
 3377POPC   NC344843  17.708  40.428   5.623
 3377POPC   PO444844  17.843  39.887   5.247
 3377POPC   GL144845  17.524  39.952   5.618
 3377POPC   GL244846  17.244  39.790   5.747
 3377POPC   C1A44847  17.464  40.070   6.102
 3377POPC   D2A44848  17.268  40.008   6.503
 3377POPC   C3A44849  17.379  40.022   6.924
 3377POPC   C4A44850  17.372  40.259   7.332
 3377POPC   C1B44851  17.161  39.635   6.136
 3377POPC   C2B44852  17.044  39.543   6.546
 3377POPC   C3B44853  16.896  39.805   6.861
 3377POPC   C4B44854  16.981  39.939   7.283
 3378POPC   NC344855   6.472   7.535   5.553
 3378POPC   PO444856   6.747   6.969   5.294
 3378POPC   GL144857   6.814   7.197   5.773
 3378POPC   GL244858   6.792   7.561   5.936
 3378POPC   C1A44859   6.894   7.217   6.266
 3378POPC   D2A44860   6.808   7.628   6.536
 3378POPC   C3A44861   6.655   7.514   6.944
 3378POPC   C4A44862   6.881   7.308   7.291
 3378POPC   C1B44863   6.454   7.487   6.203
 3378POPC   C2B44864   6.284   7.237   6.517
 3378POPC   C3B44865   6.312   7.106   6.950
 3378POPC   C4B44866   6.310   7.349   7.298
 3379POPC   NC344867  29.585   7.026   5.316
 3379POPC   PO444868  28.918   7.096   5.349
 3379POPC   GL144869  29.055   7.313   5.719
 3379POPC   GL244870  28.931   7.649   5.763
 3379POPC   C1A44871  29.392   7.230   6.045
 3379POPC   D2A44872  29.434   7.352   6.477
 3379POPC   C3A44873  29.340   7.074   6.826
 3379POPC   C4A44874  29.229   7.127   7.270
 3379POPC   C1B44875  28.975   7.469   6.207
 3379POPC   C2B44876  28.953   7.354   6.640
 3379POPC   C3B44877  29.032   7.518   7.020
 3379POPC   C4B44878  28.801   7.423   7.362
 3380POPC   NC344879  19.453  37.265   5.495
 3380POPC   PO444880  20.057  36.754   5.579
 3380POPC   GL144881  19.959  36.968   5.907
 3380POPC   GL244882  19.606  36.899   5.902
 3380POPC   C1A44883  19.994  37.040   6.352
 3380POPC   D2A44884  20.054  36.911   6.762
 3380POPC   C3A44885  19.885  37.144   7.101
 3380POPC   C4A44886  20.018  36.887   7.421
 3380POPC   C1B44887  19.771  36.589   6.231
 3380POPC   C2B44888  19.634  36.596   6.667
 3380POPC   C3B44889  19.626  36.700   7.086
 3380POPC   C4B44890  19.725  36.467   7.456
 3381POPC   NC344891  18.470  10.650   5.354
 3381POPC   PO444892  17.851  10.628   5.417
 3381POPC   GL144893  18.142  10.735   5.741
 3381POPC   GL244894  18.427  10.500   5.849
 3381POPC   C1A44895  18.088  10.837   6.170
 3381POPC   D2A44896  18.343  10.778   6.535
 3381POPC   C3A44897  18.319  10.720   6.964
 3381POPC   C4A44898  18.352  10.379   7.237
 3381POPC   C1B44899  18.592  10.389   6.302
 3381POPC   C2B44900  18.516  10.206   6.759
 3381POPC   C3B44901  18.308   9.905   7.106
 3381POPC   C4B44902  18.243   9.994   7.571
 3382POPC   NC344903  20.756  21.333   5.320
 3382POPC   PO444904  20.113  21.189   5.428
 3382POPC   GL144905  20.468  21.182   5.738
 3382POPC   GL244906  20.583  21.498   5.778
 3382POPC   C1A44907  20.663  21.205   6.188
 3382POPC   D2A44908  20.860  21.413   6.558
 3382POPC   C3A44909  20.663  21.230   6.945
 3382POPC   C4A44910  20.522  21.091   7.396
 3382POPC   C1B44911  20.421  21.653   6.183
 3382POPC   C2B44912  20.378  21.552   6.637
 3382POPC   C3B44913  20.512  21.700   7.069
 3382POPC   C4B44914  20.524  21.613   7.529
 3383POPC   NC344915  43.164  23.281   5.550
 3383POPC   PO444916  43.039  22.655   5.333
 3383POPC   GL144917  43.124  22.763   5.751
 3383POPC   GL244918  42.834  22.966   5.784
 3383POPC   C1A44919  43.101  22.801   6.214
 3383POPC   D2A44920  42.925  22.894   6.621
 3383POPC   C3A44921  43.088  22.809   7.039
 3383POPC   C4A44922  43.189  22.397   7.209
 3383POPC   C1B44923  42.705  23.135   6.180
 3383POPC   C2B44924  42.468  23.120   6.581
 3383POPC   C3B44925  42.631  23.072   6.991
 3383POPC   C4B44926  42.770  23.125   7.387
 3384POPC   NC344927  42.594  22.839   5.326
 3384POPC   PO444928  42.367  23.390   5.418
 3384POPC   GL144929  42.322  23.112   5.741
 3384POPC   GL244930  42.137  22.785   5.687
 3384POPC   C1A44931  42.210  23.066   6.160
 3384POPC   D2A44932  42.064  22.798   6.510
 3384POPC   C3A44933  42.145  22.931   6.941
 3384POPC   C4A44934  42.230  23.195   7.305
 3384POPC   C1B44935  42.473  22.665   5.975
 3384POPC   C2B44936  42.555  22.641   6.391
 3384POPC   C3B44937  42.511  22.590   6.823
 3384POPC   C4B44938  42.671  22.560   7.239
 3385POPC   NC344939  23.825  12.838   5.393
 3385POPC   PO444940  23.297  13.171   5.422
 3385POPC   GL144941  23.499  13.092   5.853
 3385POPC   GL244942  23.861  12.946   5.891
 3385POPC   C1A44943  23.520  12.859   6.298
 3385POPC   D2A44944  23.578  12.745   6.764
 3385POPC   C3A44945  23.348  12.907   7.143
 3385POPC   C4A44946  23.416  12.944   7.622
 3385POPC   C1B44947  24.058  12.637   6.197
 3385POPC   C2B44948  24.016  12.514   6.636
 3385POPC   C3B44949  23.928  12.537   7.072
 3385POPC   C4B44950  23.837  12.911   7.279
 3386POPC   NC344951  26.153  35.121   5.138
 3386POPC   PO444952  25.893  34.504   5.414
 3386POPC   GL144953  25.832  34.731   5.788
 3386POPC   GL244954  26.156  34.868   5.825
 3386POPC   C1A44955  25.907  34.678   6.247
 3386POPC   D2A44956  26.073  34.340   6.526
 3386POPC   C3A44957  25.919  34.280   6.953
 3386POPC   C4A44958  25.646  34.279   7.324
 3386POPC   C1B44959  26.408  34.934   6.204
 3386POPC   C2B44960  26.386  35.151   6.593
 3386POPC   C3B44961  26.498  34.982   7.058
 3386POPC   C4B44962  26.510  34.670   7.440
 3387POPC   NC344963  42.947   9.368   5.400
 3387POPC   PO444964  43.367   9.830   5.338
 3387POPC   GL144965  43.276  10.004   5.735
 3387POPC   GL244966  43.040   9.797   5.839
 3387POPC   C1A44967  43.395  10.097   6.144
 3387POPC   D2A44968  43.518   9.871   6.509
 3387POPC   C3A44969  43.249   9.753   6.855
 3387POPC   C4A44970  43.052   9.974   7.182
 3387POPC   C1B44971  43.103   9.654   6.279
 3387POPC   C2B44972  42.822   9.627   6.636
 3387POPC   C3B44973  42.812   9.541   7.055
 3387POPC   C4B44974  42.805   9.541   7.507
 3388POPC   NC344975  11.929  34.943   5.608
 3388POPC   PO444976  12.395  34.512   5.524
 3388POPC   GL144977  12.160  34.337   5.836
 3388POPC   GL244978  12.408  34.107   5.914
 3388POPC   C1A44979  11.994  34.482   6.232
 3388POPC   D2A44980  11.912  34.327   6.653
 3388POPC   C3A44981  12.057  34.584   6.985
 3388POPC   C4A44982  11.997  34.662   7.453
 3388POPC   C1B44983  12.434  34.220   6.345
 3388POPC   C2B44984  12.374  34.605   6.565
 3388POPC   C3B44985  12.500  34.831   6.916
 3388POPC   C4B44986  12.526  34.545   7.196
 3389POPC   NC344987   0.657  41.007   5.431
 3389POPC   PO444988  44.957  41.081   5.346
 3389POPC   GL144989   0.241  41.087   5.725
 3389POPC   GL244990   0.303  40.734   5.747
 3389POPC   C1A44991   0.563  40.987   6.102
 3389POPC   D2A44992   0.525  40.783   6.522
 3389POPC   C3A44993   0.531  41.023   6.906
 3389POPC   C4A44994   0.593  40.799   7.231
 3389POPC   C1B44995   0.244  40.547   6.160
 3389POPC   C2B44996   0.018  40.578   6.572
 3389POPC   C3B44997   0.222  40.567   6.981
 3389POPC   C4B44998   0.327  40.244   7.314
 3390POPC   NC344999  10.890  34.378   5.764
 3390POPC   PO445000  10.246  34.578   5.494
 3390POPC   GL145001  10.391  34.532   5.894
 3390POPC   GL245002  10.453  34.169   5.865
 3390POPC   C1A45003  10.563  34.760   6.289
 3390POPC   D2A45004  10.560  34.936   6.713
 3390POPC   C3A45005  10.687  34.668   7.056
 3390POPC   C4A45006  10.704  34.681   7.489
 3390POPC   C1B45007  10.498  34.254   6.304
 3390POPC   C2B45008  10.406  34.415   6.703
 3390POPC   C3B45009  10.281  34.369   7.125
 3390POPC   C4B45010  10.308  34.277   7.584
 3391POPC   NC345011  27.380  40.189   5.413
 3391POPC   PO445012  27.926  39.776   5.414
 3391POPC   GL145013  27.769  39.752   5.836
 3391POPC   GL245014  27.567  40.063   5.887
 3391POPC   C1A45015  27.882  39.898   6.281
 3391POPC   D2A45016  27.737  39.919   6.715
 3391POPC   C3A45017  27.959  39.938   7.105
 3391POPC   C4A45018  27.834  39.928   7.542
 3391POPC   C1B45019  27.306  40.184   6.229
 3391POPC   C2B45020  27.398  40.316   6.660
 3391POPC   C3B45021  27.442  40.116   7.103
 3391POPC   C4B45022  27.255  40.251   7.536
 3392POPC   NC345023  40.917  42.544   5.388
 3392POPC   PO445024  40.594  41.899   5.429
 3392POPC   GL145025  40.647  42.118   5.809
 3392POPC   GL245026  40.973  42.302   5.825
 3392POPC   C1A45027  40.674  42.271   6.257
 3392POPC   D2A45028  40.974  42.261   6.601
 3392POPC   C3A45029  40.848  42.300   6.984
 3392POPC   C4A45030  40.832  42.436   7.360
 3392POPC   C1B45031  41.119  42.067   6.158
 3392POPC   C2B45032  41.298  41.890   6.536
 3392POPC   C3B45033  41.276  41.956   6.998
 3392POPC   C4B45034  41.004  41.918   7.364
 3393POPC   NC345035  23.024  25.937   5.536
 3393POPC   PO445036  22.379  26.118   5.454
 3393POPC   GL145037  22.641  26.241   5.810
 3393POPC   GL245038  22.990  26.385   5.799
 3393POPC   C1A45039  22.704  26.005   6.197
 3393POPC   D2A45040  22.991  25.858   6.529
 3393POPC   C3A45041  22.836  25.790   6.932
 3393POPC   C4A45042  22.969  25.566   7.297
 3393POPC   C1B45043  23.183  26.201   6.158
 3393POPC   C2B45044  23.189  26.343   6.572
 3393POPC   C3B45045  23.289  26.088   6.909
 3393POPC   C4B45046  23.081  26.069   7.278
 3394POPC   NC345047  42.397   2.899   5.273
 3394POPC   PO445048  42.127   2.278   5.274
 3394POPC   GL145049  42.288   2.520   5.658
 3394POPC   GL245050  42.427   2.848   5.795
 3394POPC   C1A45051  42.198   2.462   6.098
 3394POPC   D2A45052  42.004   2.402   6.502
 3394POPC   C3A45053  42.257   2.572   6.815
 3394POPC   C4A45054  42.171   2.579   7.231
 3394POPC   C1B45055  42.579   2.785   6.243
 3394POPC   C2B45056  42.617   2.911   6.652
 3394POPC   C3B45057  42.559   2.949   7.067
 3394POPC   C4B45058  42.162   3.097   7.150
 3395POPC   NC345059  11.169  32.029   4.925
 3395POPC   PO445060  11.280  31.985   5.577
 3395POPC   GL145061  11.447  32.148   5.943
 3395POPC   GL245062  11.488  32.496   5.940
 3395POPC   C1A45063  11.294  31.964   6.331
 3395POPC   D2A45064  11.047  32.142   6.699
 3395POPC   C3A45065  11.285  32.254   7.055
 3395POPC   C4A45066  11.434  31.871   7.240
 3395POPC   C1B45067  11.135  32.456   6.258
 3395POPC   C2B45068  11.080  32.647   6.689
 3395POPC   C3B45069  10.952  32.675   7.125
 3395POPC   C4B45070  11.195  32.703   7.518
 3396POPC   NC345071  20.238  15.131   5.277
 3396POPC   PO445072  19.681  15.494   5.647
 3396POPC   GL145073  19.523  15.234   5.912
 3396POPC   GL245074  19.845  15.131   6.015
 3396POPC   C1A45075  19.478  15.323   6.302
 3396POPC   D2A45076  19.626  15.505   6.610
 3396POPC   C3A45077  19.504  15.248   6.949
 3396POPC   C4A45078  19.421  15.360   7.393
 3396POPC   C1B45079  20.059  15.353   6.339
 3396POPC   C2B45080  19.984  15.172   6.735
 3396POPC   C3B45081  19.959  15.214   7.159
 3396POPC   C4B45082  20.276  15.257   7.426
 3397POPC   NC345083  39.359   8.845   4.951
 3397POPC   PO445084  39.327   8.274   5.318
 3397POPC   GL145085  39.141   8.184   5.749
 3397POPC   GL245086  38.787   8.257   5.740
 3397POPC   C1A45087  39.187   8.177   6.232
 3397POPC   D2A45088  39.196   8.433   6.622
 3397POPC   C3A45089  39.324   8.384   7.053
 3397POPC   C4A45090  39.619   8.115   7.213
 3397POPC   C1B45091  38.694   8.086   6.150
 3397POPC   C2B45092  38.835   7.936   6.569
 3397POPC   C3B45093  38.889   8.125   6.989
 3397POPC   C4B45094  38.830   8.591   6.999
 3398POPC   NC345095   0.576  43.552   5.556
 3398POPC   PO445096   0.114  44.058   5.436
 3398POPC   GL145097   0.415  44.040   5.765
 3398POPC   GL245098   0.774  44.073   5.773
 3398POPC   C1A45099   0.305  44.085   6.189
 3398POPC   D2A45100   0.196  43.809   6.517
 3398POPC   C3A45101   0.321  43.990   6.918
 3398POPC   C4A45102   0.226  43.872   7.320
 3398POPC   C1B45103   0.760  43.826   6.165
 3398POPC   C2B45104   0.733  43.917   6.605
 3398POPC   C3B45105   0.749  43.712   7.005
 3398POPC   C4B45106   0.685  43.754   7.469
 3399POPC   NC345107   0.862   1.009   5.411
 3399POPC   PO445108   1.395   1.375   5.471
 3399POPC   GL145109   1.234   1.113   5.760
 3399POPC   GL245110   1.400   0.797   5.767
 3399POPC   C1A45111   1.164   1.310   6.118
 3399POPC   D2A45112   1.242   1.302   6.533
 3399POPC   C3A45113   0.919   1.181   6.810
 3399POPC   C4A45114   1.024   1.264   7.205
 3399POPC   C1B45115   1.474   0.924   6.197
 3399POPC   C2B45116   1.666   0.998   6.597
 3399POPC   C3B45117   1.363   0.959   6.924
 3399POPC   C4B45118   1.221   0.798   7.309
 3400POPC   NC345119   6.440   6.555   5.358
 3400POPC   PO445120   6.278   7.119   5.683
 3400POPC   GL145121   6.498   6.775   5.849
 3400POPC   GL245122   6.837   6.674   5.712
 3400POPC   C1A45123   6.611   6.794   6.279
 3400POPC   D2A45124   6.723   6.951   6.684
 3400POPC   C3A45125   6.600   6.692   7.031
 3400POPC   C4A45126   6.419   6.867   7.429
 3400POPC   C1B45127   6.823   6.390   6.061
 3400POPC   C2B45128   6.872   6.414   6.530
 3400POPC   C3B45129   7.065   6.404   6.952
 3400POPC   C4B45130   6.908   6.442   7.391
 3401POPC   NC345131  24.485  33.342   5.428
 3401POPC   PO445132  24.615  32.692   5.195
 3401POPC   GL145133  24.623  32.858   5.648
 3401POPC   GL245134  24.287  32.745   5.773
 3401POPC   C1A45135  24.553  33.038   6.112
 3401POPC   D2A45136  24.428  33.024   6.579
 3401POPC   C3A45137  24.632  33.183   6.981
 3401POPC   C4A45138  24.892  33.098   7.352
 3401POPC   C1B45139  24.225  32.633   6.233
 3401POPC   C2B45140  24.246  32.579   6.720
 3401POPC   C3B45141  24.327  32.768   7.140
 3401POPC   C4B45142  24.227  32.597   7.562
 3402POPC   NC345143   3.050  20.564   5.613
 3402POPC   PO445144   2.440  20.657   5.487
 3402POPC   GL145145   2.536  20.734   5.908
 3402POPC   GL245146   2.829  20.941   5.906
 3402POPC   C1A45147   2.734  20.516   6.287
 3402POPC   D2A45148   2.991  20.175   6.515
 3402POPC   C3A45149   2.977  20.249   6.958
 3402POPC   C4A45150   2.754  20.409   7.343
 3402POPC   C1B45151   3.140  20.826   6.231
 3402POPC   C2B45152   3.086  20.678   6.653
 3402POPC   C3B45153   2.895  20.765   7.015
 3402POPC   C4B45154   3.028  20.817   7.469
 3403POPC   NC345155  11.075  20.847   5.616
 3403POPC   PO445156  11.474  21.316   5.232
 3403POPC   GL145157  11.194  21.398   5.581
 3403POPC   GL245158  11.405  21.215   5.763
 3403POPC   C1A45159  11.159  21.611   6.012
 3403POPC   D2A45160  11.270  21.420   6.432
 3403POPC   C3A45161  11.169  21.532   6.866
 3403POPC   C4A45162  11.173  21.291   7.245
 3403POPC   C1B45163  11.648  21.389   6.091
 3403POPC   C2B45164  11.762  21.483   6.527
 3403POPC   C3B45165  11.636  21.351   6.971
 3403POPC   C4B45166  11.617  21.479   7.429
 3404POPC   NC345167  27.360  26.310   5.416
 3404POPC   PO445168  27.761  25.809   5.601
 3404POPC   GL145169  27.509  26.015   5.888
 3404POPC   GL245170  27.259  25.776   5.979
 3404POPC   C1A45171  27.604  25.975   6.332
 3404POPC   D2A45172  27.494  25.910   6.748
 3404POPC   C3A45173  27.652  26.158   7.065
 3404POPC   C4A45174  28.053  26.139   7.250
 3404POPC   C1B45175  27.119  25.760   6.408
 3404POPC   C2B45176  27.112  25.604   6.836
 3404POPC   C3B45177  27.301  25.734   7.213
 3404POPC   C4B45178  27.403  25.655   7.626
 3405POPC   NC345179   0.641  10.063   5.437
 3405POPC   PO445180   0.188   9.534   5.312
 3405POPC   GL145181   0.455   9.670   5.723
 3405POPC   GL245182   0.787   9.473   5.844
 3405POPC   C1A45183   0.333   9.608   6.156
 3405POPC   D2A45184   0.195   9.557   6.600
 3405POPC   C3A45185   0.478   9.599   6.970
 3405POPC   C4A45186   0.914   9.499   7.063
 3405POPC   C1B45187   0.825   9.772   6.159
 3405POPC   C2B45188   0.596   9.891   6.534
 3405POPC   C3B45189   0.735  10.057   6.939
 3405POPC   C4B45190   0.893   9.940   7.302
 3406POPC   NC345191  10.452   4.593   5.548
 3406POPC   PO445192  10.233   3.840   5.616
 3406POPC   GL145193  10.556   4.101   5.826
 3406POPC   GL245194  10.344   4.335   5.964
 3406POPC   C1A45195  10.789   4.374   6.177
 3406POPC   D2A45196  10.541   4.397   6.524
 3406POPC   C3A45197  10.646   4.538   6.912
 3406POPC   C4A45198  10.447   4.556   7.311
 3406POPC   C1B45199  10.196   4.079   6.281
 3406POPC   C2B45200  10.271   3.980   6.693
 3406POPC   C3B45201  10.426   4.078   7.101
 3406POPC   C4B45202  10.331   3.798   7.426
 3407POPC   NC345203   0.081   4.121   5.468
 3407POPC   PO445204   0.654   4.479   5.476
 3407POPC   GL145205   0.496   4.390   5.866
 3407POPC   GL245206   0.139   4.467   5.848
 3407POPC   C1A45207   0.635   4.485   6.295
 3407POPC   D2A45208   0.987   4.393   6.586
 3407POPC   C3A45209   0.858   4.500   7.006
 3407POPC   C4A45210   0.548   4.201   7.195
 3407POPC   C1B45211   0.194   4.205   6.233
 3407POPC   C2B45212   0.319   4.198   6.684
 3407POPC   C3B45213   0.075   4.049   7.048
 3407POPC   C4B45214   0.095   4.265   7.448
 3408POPC   NC345215  23.846  43.095   5.563
 3408POPC   PO445216  23.232  42.914   5.608
 3408POPC   GL145217  23.460  43.241   5.900
 3408POPC   GL245218  23.819  43.154   6.055
 3408POPC   C1A45219  23.542  43.467   6.312
 3408POPC   D2A45220  23.685  43.169   6.590
 3408POPC   C3A45221  23.728  43.236   7.013
 3408POPC   C4A45222  24.100  43.373   7.180
 3408POPC   C1B45223  24.075  42.874   6.316
 3408POPC   C2B45224  24.192  42.878   6.741
 3408POPC   C3B45225  23.977  42.719   7.090
 3408POPC   C4B45226  24.094  42.655   7.534
 3409POPC   NC345227  11.132  40.128   5.161
 3409POPC   PO445228  11.521  39.665   5.353
 3409POPC   GL145229  11.296  39.893   5.701
 3409POPC   GL245230  11.175  40.241   5.745
 3409POPC   C1A45231  11.183  39.901   6.161
 3409POPC   D2A45232  11.060  39.763   6.595
 3409POPC   C3A45233  11.384  39.932   6.858
 3409POPC   C4A45234  11.695  40.201   7.076
 3409POPC   C1B45235  10.997  40.418   6.141
 3409POPC   C2B45236  11.143  40.591   6.570
 3409POPC   C3B45237  11.205  40.422   7.018
 3409POPC   C4B45238  11.104  40.042   7.263
 3410POPC   NC345239   2.561  38.844   5.501
 3410POPC   PO445240   2.983  38.403   5.213
 3410POPC   GL145241   2.760  38.306   5.652
 3410POPC   GL245242   2.455  38.371   5.849
 3410POPC   C1A45243   2.848  38.224   6.118
 3410POPC   D2A45244   2.953  38.414   6.551
 3410POPC   C3A45245   2.864  38.249   6.949
 3410POPC   C4A45246   2.862  38.445   7.340
 3410POPC   C1B45247   2.486  38.542   6.259
 3410POPC   C2B45248   2.407  38.687   6.630
 3410POPC   C3B45249   2.472  38.562   7.007
 3410POPC   C4B45250   2.440  38.809   7.326
 3411POPC   NC345251  33.041   5.649   5.433
 3411POPC   PO445252  32.778   5.033   5.473
 3411POPC   GL145253  33.068   5.110   5.776
 3411POPC   GL245254  33.397   5.239   5.647
 3411POPC   C1A45255  33.162   4.945   6.179
 3411POPC   D2A45256  32.919   4.927   6.557
 3411POPC   C3A45257  33.049   5.071   6.925
 3411POPC   C4A45258  33.339   4.887   7.204
 3411POPC   C1B45259  33.351   5.428   6.051
 3411POPC   C2B45260  33.227   5.399   6.484
 3411POPC   C3B45261  33.414   5.424   6.886
 3411POPC   C4B45262  33.234   5.396   7.291
 3412POPC   NC345263  29.386  17.785   5.531
 3412POPC   PO445264  29.024  17.253   5.335
 3412POPC   GL145265  29.017  17.491   5.786
 3412POPC   GL245266  29.039  17.857   5.931
 3412POPC   C1A45267  29.256  17.514   6.233
 3412POPC   D2A45268  29.207  17.674   6.669
 3412POPC   C3A45269  29.249  17.404   7.053
 3412POPC   C4A45270  29.335  17.246   7.470
 3412POPC   C1B45271  28.763  17.663   6.233
 3412POPC   C2B45272  28.704  17.486   6.615
 3412POPC   C3B45273  28.782  17.672   6.978
 3412POPC   C4B45274  29.126  17.889   7.144
 3413POPC   NC345275  15.146  35.688   5.098
 3413POPC   PO445276  14.763  35.232   5.286
 3413POPC   GL145277  15.029  35.212   5.702
 3413POPC   GL245278  15.302  35.482   5.750
 3413POPC   C1A45279  14.949  35.273   6.177
 3413POPC   D2A45280  14.757  35.148   6.585
 3413POPC   C3A45281  14.994  35.250   6.943
 3413POPC   C4A45282  15.382  35.368   7.165
 3413POPC   C1B45283  15.412  35.590   6.192
 3413POPC   C2B45284  15.275  35.542   6.632
 3413POPC   C3B45285  15.110  35.768   7.029
 3413POPC   C4B45286  15.326  35.807   7.455
 3414POPC   NC345287  24.299   2.983   5.228
 3414POPC   PO445288  24.687   2.381   5.327
 3414POPC   GL145289  24.785   2.616   5.737
 3414POPC   GL245290  24.774   2.991   5.729
 3414POPC   C1A45291  24.681   2.666   6.177
 3414POPC   D2A45292  24.403   2.741   6.517
 3414POPC   C3A45293  24.562   2.638   6.922
 3414POPC   C4A45294  24.487   2.849   7.327
 3414POPC   C1B45295  24.879   3.148   6.159
 3414POPC   C2B45296  24.904   2.974   6.618
 3414POPC   C3B45297  24.900   3.020   7.070
 3414POPC   C4B45298  24.662   3.332   7.326
 3415POPC   NC345299  24.264  24.695   5.452
 3415POPC   PO445300  24.714  24.147   5.359
 3415POPC   GL145301  24.664  24.448   5.698
 3415POPC   GL245302  24.340  24.340   5.841
 3415POPC   C1A45303  24.717  24.545   6.145
 3415POPC   D2A45304  24.545  24.649   6.556
 3415POPC   C3A45305  24.734  24.539   6.931
 3415POPC   C4A45306  24.654  24.212   7.233
 3415POPC   C1B45307  24.173  24.594   6.204
 3415POPC   C2B45308  24.027  24.723   6.658
 3415POPC   C3B45309  24.123  24.584   7.115
 3415POPC   C4B45310  24.030  24.619   7.577
 3416POPC   NC345311  31.178   1.110   5.479
 3416POPC   PO445312  30.634   1.405   5.286
 3416POPC   GL145313  30.713   1.275   5.703
 3416POPC   GL245314  30.482   0.999   5.732
 3416POPC   C1A45315  30.822   1.290   6.152
 3416POPC   D2A45316  30.895   1.097   6.569
 3416POPC   C3A45317  30.959   1.404   6.907
 3416POPC   C4A45318  30.896   1.368   7.347
 3416POPC   C1B45319  30.332   1.139   6.126
 3416POPC   C2B45320  30.427   1.316   6.530
 3416POPC   C3B45321  30.507   1.144   6.955
 3416POPC   C4B45322  30.208   1.022   7.259
 3417POPC   NC345323   7.670  14.519   5.265
 3417POPC   PO445324   7.211  14.203   5.685
 3417POPC   GL145325   7.638  14.258   5.842
 3417POPC   GL245326   7.701  14.612   5.781
 3417POPC   C1A45327   7.611  14.333   6.292
 3417POPC   D2A45328   7.571  14.214   6.728
 3417POPC   C3A45329   7.295  14.395   6.981
 3417POPC   C4A45330   7.334  14.592   7.344
 3417POPC   C1B45331   7.627  14.837   6.210
 3417POPC   C2B45332   7.647  14.721   6.667
 3417POPC   C3B45333   7.675  14.917   7.067
 3417POPC   C4B45334   7.743  14.873   7.503
 3418POPC   NC345335  16.233  37.025   5.525
 3418POPC   PO445336  15.614  36.700   5.410
 3418POPC   GL145337  15.878  36.734   5.778
 3418POPC   GL245338  15.866  37.107   5.864
 3418POPC   C1A45339  16.121  36.759   6.165
 3418POPC   D2A45340  15.945  36.811   6.546
 3418POPC   C3A45341  16.083  36.630   6.915
 3418POPC   C4A45342  15.874  36.703   7.242
 3418POPC   C1B45343  16.232  37.250   6.142
 3418POPC   C2B45344  16.116  37.288   6.562
 3418POPC   C3B45345  16.001  37.147   6.947
 3418POPC   C4B45346  16.297  37.013   7.212
 3419POPC   NC345347   4.283  34.378   5.250
 3419POPC   PO445348   4.076  35.045   5.333
 3419POPC   GL145349   4.235  34.713   5.696
 3419POPC   GL245350   4.466  34.414   5.714
 3419POPC   C1A45351   4.171  34.564   6.191
 3419POPC   D2A45352   4.205  34.634   6.694
 3419POPC   C3A45353   4.110  34.386   7.093
 3419POPC   C4A45354   4.086  34.528   7.518
 3419POPC   C1B45355   4.657  34.605   6.077
 3419POPC   C2B45356   4.629  34.451   6.500
 3419POPC   C3B45357   4.689  34.460   6.934
 3419POPC   C4B45358   4.551  34.367   7.358
 3420POPC   NC345359  38.016  21.854   5.489
 3420POPC   PO445360  37.714  22.521   5.500
 3420POPC   GL145361  37.670  22.483   5.884
 3420POPC   GL245362  37.651  22.113   5.829
 3420POPC   C1A45363  37.771  22.331   6.261
 3420POPC   D2A45364  37.533  22.191   6.568
 3420POPC   C3A45365  37.664  22.303   6.957
 3420POPC   C4A45366  37.835  22.003   7.163
 3420POPC   C1B45367  37.326  21.982   6.120
 3420POPC   C2B45368  37.285  21.736   6.490
 3420POPC   C3B45369  37.473  21.779   6.868
 3420POPC   C4B45370  37.381  21.742   7.261
 3421POPC   NC345371  26.124  17.909   5.382
 3421POPC   PO445372  25.906  17.305   5.385
 3421POPC   GL145373  25.929  17.534   5.766
 3421POPC   GL245374  25.697  17.777   5.665
 3421POPC   C1A45375  26.239  17.657   6.111
 3421POPC   D2A45376  26.392  17.694   6.549
 3421POPC   C3A45377  26.151  17.453   6.863
 3421POPC   C4A45378  26.057  17.406   7.300
 3421POPC   C1B45379  25.632  17.807   6.107
 3421POPC   C2B45380  25.842  17.661   6.489
 3421POPC   C3B45381  25.716  17.706   6.915
 3421POPC   C4B45382  25.587  17.652   7.352
 3422POPC   NC345383  35.737  34.019   5.513
 3422POPC   PO445384  36.338  33.701   5.252
 3422POPC   GL145385  36.145  33.688   5.700
 3422POPC   GL245386  35.927  33.888   5.943
 3422POPC   C1A45387  36.257  33.585   6.149
 3422POPC   D2A45388  36.140  33.801   6.548
 3422POPC   C3A45389  36.234  33.579   6.933
 3422POPC   C4A45390  36.447  33.622   7.303
 3422POPC   C1B45391  35.830  34.139   6.297
 3422POPC   C2B45392  35.782  34.198   6.748
 3422POPC   C3B45393  35.855  34.270   7.155
 3422POPC   C4B45394  36.091  33.966   7.373
 3423POPC   NC345395  11.950  37.220   5.539
 3423POPC   PO445396  12.463  36.706   5.550
 3423POPC   GL145397  12.294  36.822   5.917
 3423POPC   GL245398  11.966  36.804   5.881
 3423POPC   C1A45399  12.140  36.693   6.334
 3423POPC   D2A45400  12.330  36.739   6.736
 3423POPC   C3A45401  12.132  36.636   7.098
 3423POPC   C4A45402  12.168  37.031   7.311
 3423POPC   C1B45403  11.870  37.096   6.207
 3423POPC   C2B45404  11.704  36.936   6.613
 3423POPC   C3B45405  11.692  36.953   7.084
 3423POPC   C4B45406  11.769  36.691   7.456
 3424POPC   NC345407  13.537  27.933   5.490
 3424POPC   PO445408  14.038  27.708   5.049
 3424POPC   GL145409  13.828  27.523   5.570
 3424POPC   GL245410  13.666  27.260   5.863
 3424POPC   C1A45411  13.782  27.709   6.069
 3424POPC   D2A45412  13.838  27.500   6.468
 3424POPC   C3A45413  13.735  27.633   6.871
 3424POPC   C4A45414  13.595  27.633   7.291
 3424POPC   C1B45415  13.375  27.370   6.251
 3424POPC   C2B45416  13.320  27.683   6.550
 3424POPC   C3B45417  13.209  27.572   6.963
 3424POPC   C4B45418  13.236  27.191   7.244
 3425POPC   NC345419  12.617  20.154   5.469
 3425POPC   PO445420  13.109  19.738   5.513
 3425POPC   GL145421  12.869  19.953   5.862
 3425POPC   GL245422  12.522  19.879   5.888
 3425POPC   C1A45423  12.687  20.155   6.269
 3425POPC   D2A45424  12.557  20.023   6.642
 3425POPC   C3A45425  12.871  19.748   6.799
 3425POPC   C4A45426  12.934  19.731   7.213
 3425POPC   C1B45427  12.704  19.639   6.271
 3425POPC   C2B45428  12.447  19.511   6.633
 3425POPC   C3B45429  12.383  19.690   7.038
 3425POPC   C4B45430  12.472  19.678   7.466
 3426POPC   NC345431   3.251  40.330   5.385
 3426POPC   PO445432   2.603  40.566   5.240
 3426POPC   GL145433   2.637  40.689   5.681
 3426POPC   GL245434   2.990  40.769   5.673
 3426POPC   C1A45435   2.597  40.867   6.101
 3426POPC   D2A45436   2.575  40.713   6.524
 3426POPC   C3A45437   2.576  40.940   6.933
 3426POPC   C4A45438   2.671  40.794   7.344
 3426POPC   C1B45439   3.030  40.594   6.100
 3426POPC   C2B45440   3.124  40.688   6.526
 3426POPC   C3B45441   2.916  40.566   6.898
 3426POPC   C4B45442   3.009  40.451   7.281
 3427POPC   NC345443  43.309  12.122   5.397
 3427POPC   PO445444  42.698  12.382   5.358
 3427POPC   GL145445  42.868  12.238   5.765
 3427POPC   GL245446  42.901  11.889   5.677
 3427POPC   C1A45447  42.949  12.341   6.251
 3427POPC   D2A45448  43.007  12.398   6.740
 3427POPC   C3A45449  43.003  12.257   7.183
 3427POPC   C4A45450  42.775  12.369   7.599
 3427POPC   C1B45451  43.146  11.885   6.068
 3427POPC   C2B45452  43.113  11.924   6.523
 3427POPC   C3B45453  42.979  11.797   6.935
 3427POPC   C4B45454  43.144  11.780   7.349
 3428POPC   NC345455  14.845   4.907   5.495
 3428POPC   PO445456  15.511   5.024   5.364
 3428POPC   GL145457  15.456   5.083   5.803
 3428POPC   GL245458  15.220   4.803   5.823
 3428POPC   C1A45459  15.413   4.990   6.260
 3428POPC   D2A45460  15.158   5.189   6.599
 3428POPC   C3A45461  15.369   5.341   6.972
 3428POPC   C4A45462  15.196   5.331   7.395
 3428POPC   C1B45463  14.968   4.738   6.204
 3428POPC   C2B45464  15.082   4.686   6.666
 3428POPC   C3B45465  15.186   4.859   7.115
 3428POPC   C4B45466  15.278   4.864   7.601
 3429POPC   NC345467   7.113  42.646   5.364
 3429POPC   PO445468   7.840  42.535   5.456
 3429POPC   GL145469   7.507  42.465   5.748
 3429POPC   GL245470   7.419  42.154   5.671
 3429POPC   C1A45471   7.265  42.567   6.132
 3429POPC   D2A45472   7.090  42.716   6.550
 3429POPC   C3A45473   7.247  42.559   6.953
 3429POPC   C4A45474   7.599  42.397   7.182
 3429POPC   C1B45475   7.242  42.064   6.067
 3429POPC   C2B45476   7.199  42.207   6.510
 3429POPC   C3B45477   7.292  42.056   6.926
 3429POPC   C4B45478   7.371  41.962   7.341
 3430POPC   NC345479  43.424  34.718   5.524
 3430POPC   PO445480  42.745  34.975   5.565
 3430POPC   GL145481  42.876  34.669   5.870
 3430POPC   GL245482  42.732  34.344   5.750
 3430POPC   C1A45483  43.035  34.700   6.297
 3430POPC   D2A45484  43.144  34.388   6.623
 3430POPC   C3A45485  43.210  34.510   7.039
 3430POPC   C4A45486  43.172  34.911   7.195
 3430POPC   C1B45487  42.763  34.252   6.186
 3430POPC   C2B45488  42.825  34.002   6.541
 3430POPC   C3B45489  42.807  34.168   6.966
 3430POPC   C4B45490  42.998  34.200   7.393
 3431POPC   NC345491  10.394  26.705   5.443
 3431POPC   PO445492  10.468  27.239   5.842
 3431POPC   GL145493  10.363  26.819   5.943
 3431POPC   GL245494  10.654  26.623   5.883
 3431POPC   C1A45495  10.432  26.638   6.337
 3431POPC   D2A45496  10.484  27.001   6.615
 3431POPC   C3A45497  10.312  26.929   7.009
 3431POPC   C4A45498  10.311  26.738   7.426
 3431POPC   C1B45499  10.922  26.750   6.256
 3431POPC   C2B45500  10.856  26.672   6.695
 3431POPC   C3B45501  10.766  26.709   7.132
 3431POPC   C4B45502  10.851  26.423   7.486
 3432POPC   NC345503  39.820  22.057   5.435
 3432POPC   PO445504  40.377  21.776   5.771
 3432POPC   GL145505  40.278  22.181   5.952
 3432POPC   GL245506  39.994  22.285   5.854
 3432POPC   C1A45507  40.131  22.238   6.384
 3432POPC   D2A45508  40.032  21.839   6.596
 3432POPC   C3A45509  40.127  21.873   7.021
 3432POPC   C4A45510  40.183  22.225   7.175
 3432POPC   C1B45511  39.685  22.224   6.109
 3432POPC   C2B45512  39.637  22.469   6.449
 3432POPC   C3B45513  39.794  22.332   6.820
 3432POPC   C4B45514  39.681  22.230   7.206
 3433POPC   NC345515  43.182   5.928   5.393
 3433POPC   PO445516  42.722   6.404   5.382
 3433POPC   GL145517  42.794   6.097   5.801
 3433POPC   GL245518  43.063   5.816   5.860
 3433POPC   C1A45519  42.900   6.000   6.283
 3433POPC   D2A45520  43.211   6.096   6.610
 3433POPC   C3A45521  43.012   6.194   7.003
 3433POPC   C4A45522  42.894   5.829   7.235
 3433POPC   C1B45523  43.438   5.900   6.167
 3433POPC   C2B45524  43.584   5.719   6.596
 3433POPC   C3B45525  43.379   5.684   7.027
 3433POPC   C4B45526  43.348   6.018   7.365
 3434POPC   NC345527  41.432  35.479   5.340
 3434POPC   PO445528  41.906  35.057   5.550
 3434POPC   GL145529  41.668  35.270   5.862
 3434POPC   GL245530  41.452  35.574   5.857
 3434POPC   C1A45531  41.496  35.207   6.264
 3434POPC   D2A45532  41.428  35.448   6.622
 3434POPC   C3A45533  41.540  35.295   7.013
 3434POPC   C4A45534  41.282  35.290   7.351
 3434POPC   C1B45535  41.750  35.644   6.228
 3434POPC   C2B45536  41.979  35.773   6.585
 3434POPC   C3B45537  41.797  35.768   6.988
 3434POPC   C4B45538  41.873  35.541   7.348
 3435POPC   NC345539  15.624  12.488   5.143
 3435POPC   PO445540  16.173  12.972   5.160
 3435POPC   GL145541  16.139  12.867   5.736
 3435POPC   GL245542  15.865  13.100   5.938
 3435POPC   C1A45543  16.033  12.744   6.236
 3435POPC   D2A45544  15.828  12.439   6.509
 3435POPC   C3A45545  15.652  12.515   6.938
 3435POPC   C4A45546  15.690  12.378   7.368
 3435POPC   C1B45547  15.600  13.095   6.304
 3435POPC   C2B45548  15.780  12.946   6.667
 3435POPC   C3B45549  16.132  12.711   6.840
 3435POPC   C4B45550  15.986  12.774   7.230
 3436POPC   NC345551  41.251  11.357   5.388
 3436POPC   PO445552  40.630  11.127   5.404
 3436POPC   GL145553  40.737  11.302   5.818
 3436POPC   GL245554  41.001  11.548   5.806
 3436POPC   C1A45555  40.656  11.411   6.238
 3436POPC   D2A45556  40.663  11.174   6.597
 3436POPC   C3A45557  40.586  11.417   6.937
 3436POPC   C4A45558  40.788  11.178   7.187
 3436POPC   C1B45559  41.175  11.450   6.203
 3436POPC   C2B45560  41.068  11.504   6.634
 3436POPC   C3B45561  41.254  11.289   6.986
 3436POPC   C4B45562  41.155  11.482   7.367
 3437POPC   NC345563  30.642  22.644   5.169
 3437POPC   PO445564  31.070  22.111   5.359
 3437POPC   GL145565  30.868  21.967   5.755
 3437POPC   GL245566  30.478  22.009   5.738
 3437POPC   C1A45567  30.842  22.099   6.207
 3437POPC   D2A45568  30.831  21.870   6.600
 3437POPC   C3A45569  30.979  22.015   6.994
 3437POPC   C4A45570  30.787  21.941   7.366
 3437POPC   C1B45571  30.299  22.222   6.134
 3437POPC   C2B45572  30.418  22.270   6.563
 3437POPC   C3B45573  30.486  22.153   6.984
 3437POPC   C4B45574  30.447  22.312   7.413
 3438POPC   NC345575  19.031  18.582   5.480
 3438POPC   PO445576  19.482  18.021   5.487
 3438POPC   GL145577  19.348  18.335   5.791
 3438POPC   GL245578  19.057  18.170   5.819
 3438POPC   C1A45579  19.220  18.470   6.245
 3438POPC   D2A45580  19.196  18.334   6.712
 3438POPC   C3A45581  19.030  18.522   7.103
 3438POPC   C4A45582  18.930  18.559   7.589
 3438POPC   C1B45583  18.913  18.058   6.198
 3438POPC   C2B45584  18.720  18.150   6.586
 3438POPC   C3B45585  18.828  18.049   7.001
 3438POPC   C4B45586  19.037  18.098   7.384
 3439POPC   NC345587  42.271  44.858   5.361
 3439POPC   PO445588  42.743  44.474   5.549
 3439POPC   GL145589  42.417  44.559   5.848
 3439POPC   GL245590  42.071  44.532   5.698
 3439POPC   C1A45591  42.384  44.718   6.282
 3439POPC   D2A45592  42.199  44.965   6.636
 3439POPC   C3A45593  42.243  44.782   7.052
 3439POPC   C4A45594  42.627  44.772   7.287
 3439POPC   C1B45595  41.961  44.461   6.143
 3439POPC   C2B45596  42.059  44.431   6.606
 3439POPC   C3B45597  42.011  44.326   7.049
 3439POPC   C4B45598  42.218  44.425   7.443
 3440POPC   NC345599   2.642  18.987   5.223
 3440POPC   PO445600   1.965  19.058   5.334
 3440POPC   GL145601   2.145  19.128   5.790
 3440POPC   GL245602   2.331  18.870   5.965
 3440POPC   C1A45603   1.917  19.088   6.225
 3440POPC   D2A45604   1.728  19.322   6.599
 3440POPC   C3A45605   1.890  19.212   7.025
 3440POPC   C4A45606   1.869  19.070   7.452
 3440POPC   C1B45607   2.141  18.648   6.312
 3440POPC   C2B45608   1.982  18.759   6.734
 3440POPC   C3B45609   2.178  18.777   7.148
 3440POPC   C4B45610   2.275  18.849   7.618
 3441POPC   NC345611  26.510  22.778   5.584
 3441POPC   PO445612  27.163  23.101   5.556
 3441POPC   GL145613  26.897  22.941   5.873
 3441POPC   GL245614  26.968  22.634   5.823
 3441POPC   C1A45615  26.666  22.905   6.304
 3441POPC   D2A45616  26.563  22.731   6.723
 3441POPC   C3A45617  26.636  23.029   7.089
 3441POPC   C4A45618  26.680  23.269   7.500
 3441POPC   C1B45619  26.969  22.480   6.239
 3441POPC   C2B45620  27.083  22.555   6.677
 3441POPC   C3B45621  26.898  22.560   7.083
 3441POPC   C4B45622  26.971  22.819   7.425
 3442POPC   NC345623  34.459   6.533   5.163
 3442POPC   PO445624  34.953   6.208   5.581
 3442POPC   GL145625  34.536   6.410   5.791
 3442POPC   GL245626  34.386   6.758   5.690
 3442POPC   C1A45627  34.549   6.678   6.188
 3442POPC   D2A45628  34.583   6.394   6.500
 3442POPC   C3A45629  34.664   6.405   6.919
 3442POPC   C4A45630  34.569   6.132   7.233
 3442POPC   C1B45631  34.072   6.747   6.033
 3442POPC   C2B45632  34.049   6.735   6.461
 3442POPC   C3B45633  34.370   6.783   6.753
 3442POPC   C4B45634  34.519   6.823   7.165
 3443POPC   NC345635  11.898  28.005   5.491
 3443POPC   PO445636  12.007  28.661   5.532
 3443POPC   GL145637  12.048  28.339   5.890
 3443POPC   GL245638  12.292  28.039   5.833
 3443POPC   C1A45639  12.109  28.482   6.338
 3443POPC   D2A45640  11.921  28.692   6.701
 3443POPC   C3A45641  12.208  28.633   7.047
 3443POPC   C4A45642  12.402  28.267   7.116
 3443POPC   C1B45643  12.249  27.979   6.268
 3443POPC   C2B45644  12.218  28.104   6.688
 3443POPC   C3B45645  11.962  27.969   7.064
 3443POPC   C4B45646  11.659  28.042   7.405
 3444POPC   NC345647  20.518  36.595   5.530
 3444POPC   PO445648  20.463  37.145   5.127
 3444POPC   GL145649  20.495  37.079   5.646
 3444POPC   GL245650  20.792  36.939   5.783
 3444POPC   C1A45651  20.440  36.890   6.134
 3444POPC   D2A45652  20.637  36.581   6.490
 3444POPC   C3A45653  20.563  36.709   6.942
 3444POPC   C4A45654  20.393  37.090   7.129
 3444POPC   C1B45655  20.951  36.891   6.213
 3444POPC   C2B45656  21.015  36.913   6.665
 3444POPC   C3B45657  20.896  37.127   7.048
 3444POPC   C4B45658  20.909  37.320   7.480
 3445POPC   NC345659  43.321  24.198   5.184
 3445POPC   PO445660  42.911  23.644   5.414
 3445POPC   GL145661  43.136  23.698   5.821
 3445POPC   GL245662  43.133  24.033   5.787
 3445POPC   C1A45663  43.154  23.442   6.218
 3445POPC   D2A45664  42.878  23.414   6.584
 3445POPC   C3A45665  43.043  23.560   6.954
 3445POPC   C4A45666  43.228  23.393   7.306
 3445POPC   C1B45667  43.166  24.008   6.229
 3445POPC   C2B45668  43.046  24.276   6.561
 3445POPC   C3B45669  43.131  24.196   6.970
 3445POPC   C4B45670  42.844  23.968   7.190
 3446POPC   NC345671  37.855  11.236   5.344
 3446POPC   PO445672  37.206  11.468   5.461
 3446POPC   GL145673  37.420  11.271   5.860
 3446POPC   GL245674  37.797  11.245   5.844
 3446POPC   C1A45675  37.625  11.229   6.306
 3446POPC   D2A45676  37.583  11.144   6.727
 3446POPC   C3A45677  37.487  11.505   7.023
 3446POPC   C4A45678  37.447  11.496   7.517
 3446POPC   C1B45679  37.985  10.900   6.109
 3446POPC   C2B45680  38.005  10.826   6.563
 3446POPC   C3B45681  38.011  11.044   6.964
 3446POPC   C4B45682  37.609  11.073   7.254
 3447POPC   NC345683  13.438  26.187   5.314
 3447POPC   PO445684  14.059  26.085   5.254
 3447POPC   GL145685  13.809  26.052   5.662
 3447POPC   GL245686  13.967  25.724   5.772
 3447POPC   C1A45687  13.521  26.150   6.048
 3447POPC   D2A45688  13.305  26.368   6.434
 3447POPC   C3A45689  13.385  26.194   6.880
 3447POPC   C4A45690  13.543  26.165   7.336
 3447POPC   C1B45691  13.756  25.698   6.166
 3447POPC   C2B45692  13.697  25.970   6.528
 3447POPC   C3B45693  13.751  25.792   6.944
 3447POPC   C4B45694  13.928  25.833   7.339
 3448POPC   NC345695   8.563   4.244   5.561
 3448POPC   PO445696   9.240   4.554   5.611
 3448POPC   GL145697   8.976   4.384   5.844
 3448POPC   GL245698   9.038   4.036   5.704
 3448POPC   C1A45699   9.013   4.555   6.261
 3448POPC   D2A45700   9.247   4.531   6.647
 3448POPC   C3A45701   8.961   4.669   6.914
 3448POPC   C4A45702   8.814   4.503   7.265
 3448POPC   C1B45703   9.060   4.029   6.171
 3448POPC   C2B45704   8.865   4.167   6.565
 3448POPC   C3B45705   9.014   4.153   6.949
 3448POPC   C4B45706   9.035   3.957   7.342
 3449POPC   NC345707  36.594   6.414   5.638
 3449POPC   PO445708  37.212   6.192   5.551
 3449POPC   GL145709  37.145   6.500   5.857
 3449POPC   GL245710  37.011   6.832   5.733
 3449POPC   C1A45711  36.959   6.494   6.275
 3449POPC   D2A45712  36.792   6.518   6.716
 3449POPC   C3A45713  37.109   6.552   7.044
 3449POPC   C4A45714  37.112   6.940   7.270
 3449POPC   C1B45715  36.780   6.945   6.114
 3449POPC   C2B45716  36.840   6.999   6.535
 3449POPC   C3B45717  36.700   6.977   6.952
 3449POPC   C4B45718  36.649   7.203   7.314
 3450POPC   NC345719   3.794  37.538   5.350
 3450POPC   PO445720   3.487  38.164   5.434
 3450POPC   GL145721   3.528  37.826   5.740
 3450POPC   GL245722   3.682  38.053   5.952
 3450POPC   C1A45723   3.567  37.558   6.144
 3450POPC   D2A45724   3.439  37.509   6.612
 3450POPC   C3A45725   3.558  37.478   7.083
 3450POPC   C4A45726   3.738  37.303   7.487
 3450POPC   C1B45727   3.631  37.979   6.414
 3450POPC   C2B45728   3.278  38.011   6.697
 3450POPC   C3B45729   3.268  37.988   7.108
 3450POPC   C4B45730   3.622  38.152   7.185
 3451POPC   NC345731   5.402  10.973   5.342
 3451POPC   PO445732   5.129  11.609   5.398
 3451POPC   GL145733   5.043  11.479   5.801
 3451POPC   GL245734   5.197  11.159   5.767
 3451POPC   C1A45735   4.841  11.441   6.188
 3451POPC   D2A45736   5.096  11.407   6.555
 3451POPC   C3A45737   4.902  11.326   6.949
 3451POPC   C4A45738   4.981  11.568   7.313
 3451POPC   C1B45739   5.121  10.988   6.156
 3451POPC   C2B45740   5.298  10.919   6.539
 3451POPC   C3B45741   5.370  10.864   6.941
 3451POPC   C4B45742   5.225  11.066   7.284
 3452POPC   NC345743   3.575  43.695   5.528
 3452POPC   PO445744   3.297  44.264   5.347
 3452POPC   GL145745   3.480  44.153   5.784
 3452POPC   GL245746   3.820  44.125   5.804
 3452POPC   C1A45747   3.483  43.912   6.215
 3452POPC   D2A45748   3.259  43.656   6.547
 3452POPC   C3A45749   3.417  43.743   6.973
 3452POPC   C4A45750   3.414  43.863   7.413
 3452POPC   C1B45751   3.874  44.237   6.204
 3452POPC   C2B45752   3.789  44.078   6.606
 3452POPC   C3B45753   3.703  44.172   7.008
 3452POPC   C4B45754   3.888  43.939   7.305
 3453POPC   NC345755  37.651   6.336   5.500
 3453POPC   PO445756  37.834   7.013   5.397
 3453POPC   GL145757  37.638   6.799   5.777
 3453POPC   GL245758  37.891   6.542   5.910
 3453POPC   C1A45759  37.364   6.856   6.151
 3453POPC   D2A45760  37.292   6.732   6.581
 3453POPC   C3A45761  37.565   6.895   6.883
 3453POPC   C4A45762  37.574   6.711   7.287
 3453POPC   C1B45763  37.551   6.349   6.166
 3453POPC   C2B45764  37.496   6.229   6.587
 3453POPC   C3B45765  37.699   6.395   6.916
 3453POPC   C4B45766  37.921   6.270   7.281
 3454POPC   NC345767   9.940   6.842   5.419
 3454POPC   PO445768   9.498   6.273   5.377
 3454POPC   GL145769   9.629   6.551   5.735
 3454POPC   GL245770   9.484   6.872   5.740
 3454POPC   C1A45771   9.829   6.560   6.174
 3454POPC   D2A45772   9.967   6.425   6.576
 3454POPC   C3A45773  10.062   6.724   6.892
 3454POPC   C4A45774  10.014   6.682   7.344
 3454POPC   C1B45775   9.623   7.038   6.152
 3454POPC   C2B45776   9.827   7.034   6.567
 3454POPC   C3B45777   9.643   6.983   7.020
 3454POPC   C4B45778   9.600   6.999   7.483
 3455POPC   NC345779   0.068  29.515   5.343
 3455POPC   PO445780   0.511  29.055   5.264
 3455POPC   GL145781   0.460  28.960   5.720
 3455POPC   GL245782   0.150  28.743   5.740
 3455POPC   C1A45783   0.560  29.209   6.106
 3455POPC   D2A45784   0.754  29.186   6.527
 3455POPC   C3A45785   0.562  29.325   6.919
 3455POPC   C4A45786   0.767  29.277   7.319
 3455POPC   C1B45787   0.064  28.981   6.119
 3455POPC   C2B45788   0.239  29.120   6.508
 3455POPC   C3B45789   0.137  28.990   6.907
 3455POPC   C4B45790   0.433  28.895   7.163
 3456POPC   NC345791  19.224  24.987   5.091
 3456POPC   PO445792  18.871  25.528   5.365
 3456POPC   GL145793  18.929  25.339   5.751
 3456POPC   GL245794  19.260  25.253   5.755
 3456POPC   C1A45795  19.052  25.508   6.168
 3456POPC   D2A45796  18.901  25.383   6.581
 3456POPC   C3A45797  19.089  25.518   6.979
 3456POPC   C4A45798  18.994  25.634   7.415
 3456POPC   C1B45799  19.168  25.018   6.170
 3456POPC   C2B45800  19.386  24.890   6.521
 3456POPC   C3B45801  19.265  25.027   6.894
 3456POPC   C4B45802  19.057  25.087   7.263
 3457POPC   NC345803  28.750  21.440   5.625
 3457POPC   PO445804  28.122  21.189   5.422
 3457POPC   GL145805  28.306  21.212   5.840
 3457POPC   GL245806  28.629  21.023   5.926
 3457POPC   C1A45807  28.445  21.454   6.192
 3457POPC   D2A45808  28.275  21.440   6.600
 3457POPC   C3A45809  28.536  21.459   6.942
 3457POPC   C4A45810  28.446  21.606   7.331
 3457POPC   C1B45811  28.420  20.991   6.373
 3457POPC   C2B45812  28.157  20.975   6.789
 3457POPC   C3B45813  28.226  21.134   7.218
 3457POPC   C4B45814  28.426  20.927   7.617
 3458POPC   NC345815   5.505  24.068   5.425
 3458POPC   PO445816   5.759  24.629   5.171
 3458POPC   GL145817   5.730  24.468   5.663
 3458POPC   GL245818   5.719  24.151   5.869
 3458POPC   C1A45819   5.712  24.562   6.142
 3458POPC   D2A45820   5.500  24.302   6.465
 3458POPC   C3A45821   5.756  24.240   6.842
 3458POPC   C4A45822   5.874  24.572   7.140
 3458POPC   C1B45823   5.856  23.994   6.217
 3458POPC   C2B45824   6.109  23.967   6.553
 3458POPC   C3B45825   6.259  24.186   6.923
 3458POPC   C4B45826   6.160  24.144   7.351
 3459POPC   NC345827  23.237  15.245   5.496
 3459POPC   PO445828  22.585  15.515   5.446
 3459POPC   GL145829  22.757  15.237   5.756
 3459POPC   GL245830  22.749  14.882   5.660
 3459POPC   C1A45831  22.993  15.327   6.133
 3459POPC   D2A45832  22.930  15.304   6.580
 3459POPC   C3A45833  23.252  15.458   6.877
 3459POPC   C4A45834  23.291  15.216   7.239
 3459POPC   C1B45835  22.938  14.821   6.092
 3459POPC   C2B45836  22.956  14.723   6.555
 3459POPC   C3B45837  22.918  14.944   6.964
 3459POPC   C4B45838  22.734  15.075   7.367
 3460POPC   NC345839  43.079  24.925   5.319
 3460POPC   PO445840  43.154  25.632   5.108
 3460POPC   GL145841  43.129  25.426   5.603
 3460POPC   GL245842  43.280  25.103   5.736
 3460POPC   C1A45843  42.968  25.418   6.090
 3460POPC   D2A45844  42.686  25.267   6.469
 3460POPC   C3A45845  42.867  25.314   6.900
 3460POPC   C4A45846  43.124  25.474   7.270
 3460POPC   C1B45847  43.427  25.190   6.130
 3460POPC   C2B45848  43.220  25.166   6.507
 3460POPC   C3B45849  43.374  25.241   6.894
 3460POPC   C4B45850  43.424  25.036   7.268
 3461POPC   NC345851   2.590   1.706   5.192
 3461POPC   PO445852   2.918   1.131   5.152
 3461POPC   GL145853   2.799   1.219   5.622
 3461POPC   GL245854   3.077   1.280   5.867
 3461POPC   C1A45855   2.583   1.302   6.060
 3461POPC   D2A45856   2.574   1.161   6.534
 3461POPC   C3A45857   2.674   1.341   6.955
 3461POPC   C4A45858   3.032   1.161   7.188
 3461POPC   C1B45859   2.970   0.995   6.226
 3461POPC   C2B45860   3.053   0.994   6.669
 3461POPC   C3B45861   3.095   0.679   6.952
 3461POPC   C4B45862   3.116   0.680   7.364
 3462POPC   NC345863  43.732  40.497   5.485
 3462POPC   PO445864  44.155  40.972   5.213
 3462POPC   GL145865  43.878  40.944   5.704
 3462POPC   GL245866  43.912  40.629   5.936
 3462POPC   C1A45867  43.602  41.052   6.053
 3462POPC   D2A45868  43.483  41.004   6.504
 3462POPC   C3A45869  43.749  40.966   6.886
 3462POPC   C4A45870  43.740  40.783   7.320
 3462POPC   C1B45871  44.071  40.885   6.245
 3462POPC   C2B45872  44.115  40.728   6.643
 3462POPC   C3B45873  44.220  40.776   7.066
 3462POPC   C4B45874  44.200  40.637   7.487
 3463POPC   NC345875  11.786  29.728   5.383
 3463POPC   PO445876  11.875  30.373   5.518
 3463POPC   GL145877  12.162  30.210   5.816
 3463POPC   GL245878  12.191  29.852   5.775
 3463POPC   C1A45879  12.361  30.231   6.210
 3463POPC   D2A45880  12.364  29.980   6.562
 3463POPC   C3A45881  12.348  30.148   6.950
 3463POPC   C4A45882  12.491  29.943   7.295
 3463POPC   C1B45883  11.984  29.884   6.197
 3463POPC   C2B45884  11.917  29.712   6.599
 3463POPC   C3B45885  12.057  29.707   7.019
 3463POPC   C4B45886  11.772  29.929   7.287
 3464POPC   NC345887   2.630  21.101   5.397
 3464POPC   PO445888   3.081  21.577   5.128
 3464POPC   GL145889   3.044  21.465   5.677
 3464POPC   GL245890   2.707  21.434   5.816
 3464POPC   C1A45891   2.981  21.333   6.195
 3464POPC   D2A45892   2.759  21.045   6.497
 3464POPC   C3A45893   2.618  21.186   6.896
 3464POPC   C4A45894   2.911  21.271   7.185
 3464POPC   C1B45895   2.578  21.676   6.219
 3464POPC   C2B45896   2.584  21.763   6.661
 3464POPC   C3B45897   2.593  21.694   7.103
 3464POPC   C4B45898   2.625  21.783   7.570
 3465POPC   NC345899   3.906  20.126   5.342
 3465POPC   PO445900   3.580  19.595   5.386
 3465POPC   GL145901   3.561  19.868   5.761
 3465POPC   GL245902   3.613  19.604   6.005
 3465POPC   C1A45903   3.407  20.048   6.179
 3465POPC   D2A45904   3.593  19.915   6.592
 3465POPC   C3A45905   3.427  19.981   7.009
 3465POPC   C4A45906   3.342  19.637   7.309
 3465POPC   C1B45907   3.913  19.958   6.160
 3465POPC   C2B45908   4.024  20.186   6.572
 3465POPC   C3B45909   3.938  20.062   7.002
 3465POPC   C4B45910   3.848  19.674   7.222
 3466POPC   NC345911  37.591  14.246   5.456
 3466POPC   PO445912  38.025  13.700   5.356
 3466POPC   GL145913  37.969  13.944   5.723
 3466POPC   GL245914  37.619  13.826   5.755
 3466POPC   C1A45915  37.915  13.851   6.173
 3466POPC   D2A45916  37.661  13.673   6.488
 3466POPC   C3A45917  37.840  13.704   6.888
 3466POPC   C4A45918  37.661  13.418   7.180
 3466POPC   C1B45919  37.409  13.995   6.139
 3466POPC   C2B45920  37.201  13.922   6.563
 3466POPC   C3B45921  37.306  13.731   6.969
 3466POPC   C4B45922  37.602  13.913   7.303
 3467POPC   NC345923  29.653   0.376   5.508
 3467POPC   PO445924  30.003   1.011   5.455
 3467POPC   GL145925  29.826   0.775   5.786
 3467POPC   GL245926  30.122   0.639   5.873
 3467POPC   C1A45927  29.738   0.474   6.160
 3467POPC   D2A45928  29.596   0.569   6.587
 3467POPC   C3A45929  29.813   0.545   7.001
 3467POPC   C4A45930  29.621   0.330   7.356
 3467POPC   C1B45931  30.262   0.441   6.207
 3467POPC   C2B45932  30.094   0.387   6.590
 3467POPC   C3B45933  30.201   0.122   6.935
 3467POPC   C4B45934  30.400   0.228   7.309
 3468POPC   NC345935  37.103  25.105   5.236
 3468POPC   PO445936  37.013  25.712   5.550
 3468POPC   GL145937  37.036  25.296   5.752
 3468POPC   GL245938  36.736  25.084   5.760
 3468POPC   C1A45939  37.005  25.116   6.181
 3468POPC   D2A45940  36.796  25.089   6.563
 3468POPC   C3A45941  36.849  25.384   6.872
 3468POPC   C4A45942  36.908  25.080   7.178
 3468POPC   C1B45943  36.495  25.134   6.154
 3468POPC   C2B45944  36.344  25.303   6.567
 3468POPC   C3B45945  36.432  25.136   6.996
 3468POPC   C4B45946  36.294  25.277   7.412
 3469POPC   NC345947  13.286  22.506   5.594
 3469POPC   PO445948  13.738  22.031   5.366
 3469POPC   GL145949  13.632  22.067   5.806
 3469POPC   GL245950  13.295  22.102   5.892
 3469POPC   C1A45951  13.675  22.228   6.240
 3469POPC   D2A45952  13.847  22.478   6.581
 3469POPC   C3A45953  13.751  22.245   6.984
 3469POPC   C4A45954  13.706  21.851   7.255
 3469POPC   C1B45955  13.185  22.388   6.243
 3469POPC   C2B45956  13.331  22.459   6.675
 3469POPC   C3B45957  13.276  22.414   7.127
 3469POPC   C4B45958  13.567  22.294   7.466
 3470POPC   NC345959   9.881  23.377   5.508
 3470POPC   PO445960   9.802  24.050   5.373
 3470POPC   GL145961   9.768  23.846   5.776
 3470POPC   GL245962   9.495  23.581   5.765
 3470POPC   C1A45963  10.027  23.825   6.191
 3470POPC   D2A45964   9.888  23.674   6.588
 3470POPC   C3A45965   9.944  23.901   6.955
 3470POPC   C4A45966   9.876  23.852   7.413
 3470POPC   C1B45967   9.516  23.726   6.208
 3470POPC   C2B45968   9.372  23.590   6.622
 3470POPC   C3B45969   9.462  23.748   7.037
 3470POPC   C4B45970   9.493  24.151   7.273
 3471POPC   NC345971  22.253   5.551   5.567
 3471POPC   PO445972  21.910   5.009   5.338
 3471POPC   GL145973  22.010   5.122   5.768
 3471POPC   GL245974  22.266   4.841   5.832
 3471POPC   C1A45975  22.074   5.284   6.210
 3471POPC   D2A45976  22.269   5.252   6.642
 3471POPC   C3A45977  22.063   4.973   6.953
 3471POPC   C4A45978  21.741   5.106   7.248
 3471POPC   C1B45979  22.407   4.843   6.296
 3471POPC   C2B45980  22.552   4.663   6.720
 3471POPC   C3B45981  22.536   4.811   7.161
 3471POPC   C4B45982  22.385   5.131   7.449
 3472POPC   NC345983   0.379  22.455   5.368
 3472POPC   PO445984   0.391  23.131   5.272
 3472POPC   GL145985   0.512  22.884   5.646
 3472POPC   GL245986   0.870  22.906   5.689
 3472POPC   C1A45987   0.440  22.732   6.098
 3472POPC   D2A45988   0.438  22.967   6.525
 3472POPC   C3A45989   0.393  22.737   6.942
 3472POPC   C4A45990  44.961  22.600   7.139
 3472POPC   C1B45991   0.791  23.103   6.119
 3472POPC   C2B45992   0.812  23.327   6.530
 3472POPC   C3B45993   0.696  23.166   6.944
 3472POPC   C4B45994   0.268  23.217   7.137
 3473POPC   NC345995  14.289  30.973   5.481
 3473POPC   PO445996  14.222  30.316   5.390
 3473POPC   GL145997  14.388  30.537   5.764
 3473POPC   GL245998  14.737  30.604   5.779
 3473POPC   C1A45999  14.460  30.743   6.195
 3473POPC   D2A46000  14.429  30.849   6.621
 3473POPC   C3A46001  14.572  30.782   7.030
 3473POPC   C4A46002  14.204  30.851   7.246
 3473POPC   C1B46003  14.734  30.329   6.156
 3473POPC   C2B46004  14.831  30.515   6.548
 3473POPC   C3B46005  14.866  30.310   6.907
 3473POPC   C4B46006  14.686  30.272   7.272
 3474POPC   NC346007   4.216  13.863   5.214
 3474POPC   PO446008   4.535  13.235   5.433
 3474POPC   GL146009   4.484  13.441   5.835
 3474POPC   GL246010   4.191  13.634   5.868
 3474POPC   C1A46011   4.309  13.370   6.266
 3474POPC   D2A46012   4.042  13.469   6.610
 3474POPC   C3A46013   4.301  13.529   6.974
 3474POPC   C4A46014   4.685  13.568   7.258
 3474POPC   C1B46015   4.075  13.867   6.256
 3474POPC   C2B46016   4.272  13.964   6.658
 3474POPC   C3B46017   4.309  14.034   7.101
 3474POPC   C4B46018   4.070  14.090   7.483
 3475POPC   NC346019  30.300   0.638   5.407
 3475POPC   PO446020  30.880   0.286   5.386
 3475POPC   GL146021  30.978   0.480   5.768
 3475POPC   GL246022  30.627   0.480   5.839
 3475POPC   C1A46023  31.031   0.406   6.221
 3475POPC   D2A46024  30.676   0.376   6.537
 3475POPC   C3A46025  30.842   0.414   6.953
 3475POPC   C4A46026  30.948   0.324   7.385
 3475POPC   C1B46027  30.674   0.772   6.179
 3475POPC   C2B46028  30.435   0.812   6.558
 3475POPC   C3B46029  30.348   0.629   6.955
 3475POPC   C4B46030  30.586   0.698   7.296
 3476POPC   NC346031  34.602  22.577   5.414
 3476POPC   PO446032  34.730  21.915   5.295
 3476POPC   GL146033  34.548  22.053   5.771
 3476POPC   GL246034  34.716  22.348   5.869
 3476POPC   C1A46035  34.669  21.982   6.292
 3476POPC   D2A46036  34.932  22.023   6.713
 3476POPC   C3A46037  34.710  21.898   7.109
 3476POPC   C4A46038  34.263  21.835   7.130
 3476POPC   C1B46039  34.408  22.401   6.226
 3476POPC   C2B46040  34.491  22.305   6.686
 3476POPC   C3B46041  34.334  22.346   7.114
 3476POPC   C4B46042  34.455  22.194   7.491
 3477POPC   NC346043  28.768  18.566   5.452
 3477POPC   PO446044  28.038  18.561   5.519
 3477POPC   GL146045  28.288  18.475   5.890
 3477POPC   GL246046  28.529  18.258   5.803
 3477POPC   C1A46047  28.209  18.361   6.311
 3477POPC   D2A46048  27.994  18.121   6.609
 3477POPC   C3A46049  28.175  18.289   6.974
 3477POPC   C4A46050  28.399  18.590   7.178
 3477POPC   C1B46051  28.672  18.170   6.210
 3477POPC   C2B46052  28.527  18.074   6.635
 3477POPC   C3B46053  28.654  18.149   7.079
 3477POPC   C4B46054  28.559  18.209   7.508
 3478POPC   NC346055  12.035  35.681   5.128
 3478POPC   PO446056  12.382  35.200   5.515
 3478POPC   GL146057  12.225  35.415   5.859
 3478POPC   GL246058  11.919  35.472   5.688
 3478POPC   C1A46059  12.208  35.337   6.323
 3478POPC   D2A46060  12.058  34.995   6.626
 3478POPC   C3A46061  12.051  35.074   7.076
 3478POPC   C4A46062  12.257  35.424   7.281
 3478POPC   C1B46063  11.762  35.483   6.112
 3478POPC   C2B46064  11.737  35.386   6.529
 3478POPC   C3B46065  11.933  35.523   6.870
 3478POPC   C4B46066  11.710  35.438   7.222
 3479POPC   NC346067   1.946  28.980   5.346
 3479POPC   PO446068   2.524  28.710   5.615
 3479POPC   GL146069   2.187  28.972   5.811
 3479POPC   GL246070   1.949  29.258   5.760
 3479POPC   C1A46071   2.104  29.052   6.226
 3479POPC   D2A46072   2.048  28.831   6.581
 3479POPC   C3A46073   1.989  29.072   6.911
 3479POPC   C4A46074   2.089  28.844   7.264
 3479POPC   C1B46075   1.643  29.208   6.089
 3479POPC   C2B46076   1.607  29.108   6.495
 3479POPC   C3B46077   1.465  29.144   6.885
 3479POPC   C4B46078   1.656  29.113   7.285
 3480POPC   NC346079  19.913  13.086   5.427
 3480POPC   PO446080  19.730  12.406   5.386
 3480POPC   GL146081  19.856  12.673   5.766
 3480POPC   GL246082  20.156  12.914   5.830
 3480POPC   C1A46083  19.770  12.834   6.200
 3480POPC   D2A46084  19.620  13.052   6.591
 3480POPC   C3A46085  19.718  12.888   6.979
 3480POPC   C4A46086  19.660  12.587   7.298
 3480POPC   C1B46087  20.265  12.776   6.231
 3480POPC   C2B46088  20.102  12.802   6.628
 3480POPC   C3B46089  20.231  12.940   7.044
 3480POPC   C4B46090  19.951  13.104   7.374
 3481POPC   NC346091   8.279  26.337   5.392
 3481POPC   PO446092   8.198  27.006   5.409
 3481POPC   GL146093   8.157  26.726   5.752
 3481POPC   GL246094   7.859  26.463   5.698
 3481POPC   C1A46095   8.261  26.957   6.171
 3481POPC   D2A46096   8.169  27.098   6.611
 3481POPC   C3A46097   8.245  26.705   6.878
 3481POPC   C4A46098   8.516  26.660   7.255
 3481POPC   C1B46099   7.776  26.720   6.094
 3481POPC   C2B46100   7.827  26.743   6.553
 3481POPC   C3B46101   7.785  26.913   6.995
 3481POPC   C4B46102   7.989  26.662   7.335
 3482POPC   NC346103  23.651  44.931   5.393
 3482POPC   PO446104  23.976  44.249   5.362
 3482POPC   GL146105  23.881  44.554   5.731
 3482POPC   GL246106  24.012  44.912   5.791
 3482POPC   C1A46107  23.819  44.602   6.207
 3482POPC   D2A46108  23.770  44.391   6.626
 3482POPC   C3A46109  24.010  44.594   6.963
 3482POPC   C4A46110  23.946  44.826   7.387
 3482POPC   C1B46111  23.640   0.072   6.064
 3482POPC   C2B46112  23.434  44.927   6.448
 3482POPC   C3B46113  23.575  44.850   6.868
 3482POPC   C4B46114  23.435  44.998   7.250
 3483POPC   NC346115  11.128  18.259   5.385
 3483POPC   PO446116  11.828  18.079   5.350
 3483POPC   GL146117  11.604  18.278   5.728
 3483POPC   GL246118  11.265  18.445   5.831
 3483POPC   C1A46119  11.582  18.186   6.173
 3483POPC   D2A46120  11.372  18.273   6.529
 3483POPC   C3A46121  11.528  18.261   6.932
 3483POPC   C4A46122  11.314  18.404   7.289
 3483POPC   C1B46123  11.032  18.201   6.130
 3483POPC   C2B46124  10.856  18.256   6.539
 3483POPC   C3B46125  11.022  18.142   6.932
 3483POPC   C4B46126  11.034  17.987   7.334
 3484POPC   NC346127  41.397   6.680   5.462
 3484POPC   PO446128  42.060   6.676   5.499
 3484POPC   GL146129  41.947   6.499   5.871
 3484POPC   GL246130  41.656   6.670   5.977
 3484POPC   C1A46131  42.074   6.563   6.279
 3484POPC   D2A46132  41.863   6.740   6.604
 3484POPC   C3A46133  41.611   6.486   6.866
 3484POPC   C4A46134  41.449   6.759   7.149
 3484POPC   C1B46135  41.426   6.536   6.369
 3484POPC   C2B46136  41.153   6.716   6.681
 3484POPC   C3B46137  40.934   6.894   7.023
 3484POPC   C4B46138  41.084   6.883   7.473
 3485POPC   NC346139  31.843  20.825   5.173
 3485POPC   PO446140  31.466  21.344   5.370
 3485POPC   GL146141  31.495  21.298   5.800
 3485POPC   GL246142  31.233  21.528   5.843
 3485POPC   C1A46143  31.704  21.522   6.166
 3485POPC   D2A46144  31.663  21.682   6.611
 3485POPC   C3A46145  31.583  21.467   7.023
 3485POPC   C4A46146  31.839  21.415   7.415
 3485POPC   C1B46147  31.247  21.301   6.236
 3485POPC   C2B46148  31.191  21.500   6.604
 3485POPC   C3B46149  31.054  21.503   6.987
 3485POPC   C4B46150  31.065  21.290   7.360
 3486POPC   NC346151  31.109  36.989   5.124
 3486POPC   PO446152  31.729  36.738   5.364
 3486POPC   GL146153  31.531  36.805   5.775
 3486POPC   GL246154  31.227  36.915   5.717
 3486POPC   C1A46155  31.504  36.741   6.228
 3486POPC   D2A46156  31.611  36.987   6.608
 3486POPC   C3A46157  31.467  36.830   6.980
 3486POPC   C4A46158  31.655  36.826   7.390
 3486POPC   C1B46159  31.075  37.057   6.133
 3486POPC   C2B46160  31.123  36.892   6.563
 3486POPC   C3B46161  30.998  37.049   6.979
 3486POPC   C4B46162  31.171  36.977   7.400
 3487POPC   NC346163  27.947  29.448   5.409
 3487POPC   PO446164  27.618  28.895   5.522
 3487POPC   GL146165  27.556  29.052   5.885
 3487POPC   GL246166  27.455  29.407   5.749
 3487POPC   C1A46167  27.614  28.923   6.334
 3487POPC   D2A46168  27.828  28.869   6.754
 3487POPC   C3A46169  27.738  29.076   7.159
 3487POPC   C4A46170  27.366  29.120   7.411
 3487POPC   C1B46171  27.394  29.385   6.200
 3487POPC   C2B46172  27.570  29.363   6.588
 3487POPC   C3B46173  27.411  29.371   6.947
 3487POPC   C4B46174  27.582  29.586   7.279
 3488POPC   NC346175  24.175  40.246   5.404
 3488POPC   PO446176  23.570  40.132   5.277
 3488POPC   GL146177  23.779  39.936   5.681
 3488POPC   GL246178  24.156  39.801   5.696
 3488POPC   C1A46179  23.689  39.952   6.176
 3488POPC   D2A46180  23.582  40.149   6.619
 3488POPC   C3A46181  23.551  39.861   6.978
 3488POPC   C4A46182  23.580  39.757   7.427
 3488POPC   C1B46183  24.130  40.142   6.020
 3488POPC   C2B46184  24.046  40.234   6.440
 3488POPC   C3B46185  24.035  39.883   6.739
 3488POPC   C4B46186  24.024  39.898   7.193
 3489POPC   NC346187  16.784  38.303   5.445
 3489POPC   PO446188  16.655  38.962   5.543
 3489POPC   GL146189  16.993  38.722   5.829
 3489POPC   GL246190  17.026  38.320   5.867
 3489POPC   C1A46191  16.883  38.629   6.237
 3489POPC   D2A46192  16.784  38.479   6.635
 3489POPC   C3A46193  16.899  38.717   7.000
 3489POPC   C4A46194  16.825  38.692   7.436
 3489POPC   C1B46195  17.010  38.124   6.244
 3489POPC   C2B46196  17.144  38.125   6.678
 3489POPC   C3B46197  16.967  38.218   7.099
 3489POPC   C4B46198  17.200  38.246   7.488
 3490POPC   NC346199  26.387  29.028   5.428
 3490POPC   PO446200  25.998  29.476   5.414
 3490POPC   GL146201  26.162  29.367   5.795
 3490POPC   GL246202  26.164  29.008   5.898
 3490POPC   C1A46203  25.985  29.400   6.192
 3490POPC   D2A46204  25.937  29.024   6.444
 3490POPC   C3A46205  26.128  29.085   6.858
 3490POPC   C4A46206  26.149  29.307   7.282
 3490POPC   C1B46207  26.428  28.950   6.272
 3490POPC   C2B46208  26.637  28.992   6.691
 3490POPC   C3B46209  26.516  28.785   7.084
 3490POPC   C4B46210  26.093  28.803   7.287
 3491POPC   NC346211  41.406  21.555   5.445
 3491POPC   PO446212  41.862  21.040   5.437
 3491POPC   GL146213  41.637  21.170   5.776
 3491POPC   GL246214  41.259  21.169   5.782
 3491POPC   C1A46215  41.624  21.422   6.137
 3491POPC   D2A46216  41.420  21.309   6.501
 3491POPC   C3A46217  41.652  21.410   6.810
 3491POPC   C4A46218  41.589  21.403   7.193
 3491POPC   C1B46219  41.363  20.940   6.146
 3491POPC   C2B46220  41.274  20.828   6.569
 3491POPC   C3B46221  41.301  21.033   6.966
 3491POPC   C4B46222  41.235  21.088   7.419
 3492POPC   NC346223  11.730   7.772   5.402
 3492POPC   PO446224  12.376   7.367   5.352
 3492POPC   GL146225  12.111   7.439   5.772
 3492POPC   GL246226  11.859   7.169   5.897
 3492POPC   C1A46227  12.169   7.339   6.247
 3492POPC   D2A46228  12.237   7.149   6.636
 3492POPC   C3A46229  12.236   7.415   6.982
 3492POPC   C4A46230  12.380   7.262   7.334
 3492POPC   C1B46231  11.656   7.384   6.254
 3492POPC   C2B46232  11.799   7.456   6.674
 3492POPC   C3B46233  11.726   7.300   7.087
 3492POPC   C4B46234  11.593   7.341   7.501
 3493POPC   NC346235   1.336  12.881   5.282
 3493POPC   PO446236   1.521  12.360   5.602
 3493POPC   GL146237   1.326  12.695   5.806
 3493POPC   GL246238   1.362  13.061   5.779
 3493POPC   C1A46239   1.180  12.763   6.210
 3493POPC   D2A46240   1.108  12.486   6.536
 3493POPC   C3A46241   1.354  12.624   6.874
 3493POPC   C4A46242   1.097  12.477   7.187
 3493POPC   C1B46243   1.191  13.275   6.153
 3493POPC   C2B46244   1.288  13.239   6.569
 3493POPC   C3B46245   1.162  13.320   6.985
 3493POPC   C4B46246   1.175  12.956   7.241
 3494POPC   NC346247  12.562  24.007   5.605
 3494POPC   PO446248  11.936  23.691   5.417
 3494POPC   GL146249  12.085  23.766   5.829
 3494POPC   GL246250  11.888  24.067   5.858
 3494POPC   C1A46251  12.247  23.709   6.268
 3494POPC   D2A46252  12.503  23.839   6.622
 3494POPC   C3A46253  12.384  23.725   7.048
 3494POPC   C4A46254  12.045  23.967   7.223
 3494POPC   C1B46255  11.800  23.980   6.294
 3494POPC   C2B46256  11.977  23.844   6.714
 3494POPC   C3B46257  11.916  23.501   7.054
 3494POPC   C4B46258  11.814  23.404   7.508
 3495POPC   NC346259  43.443  39.637   5.192
 3495POPC   PO446260  43.268  39.093   5.460
 3495POPC   GL146261  43.081  39.102   5.837
 3495POPC   GL246262  42.948  39.456   5.901
 3495POPC   C1A46263  43.229  38.964   6.212
 3495POPC   D2A46264  43.089  39.181   6.529
 3495POPC   C3A46265  43.244  39.093   6.908
 3495POPC   C4A46266  43.049  39.327   7.244
 3495POPC   C1B46267  43.357  39.454   6.117
 3495POPC   C2B46268  43.517  39.464   6.531
 3495POPC   C3B46269  43.453  39.576   6.949
 3495POPC   C4B46270  43.615  39.303   7.243
 3496POPC   NC346271  40.327   9.104   5.495
 3496POPC   PO446272  40.913   8.778   5.385
 3496POPC   GL146273  40.807   8.956   5.738
 3496POPC   GL246274  40.849   9.282   5.616
 3496POPC   C1A46275  40.702   8.935   6.164
 3496POPC   D2A46276  40.769   8.705   6.532
 3496POPC   C3A46277  40.579   8.956   6.850
 3496POPC   C4A46278  40.667   8.882   7.261
 3496POPC   C1B46279  41.092   9.281   6.033
 3496POPC   C2B46280  41.135   9.421   6.470
 3496POPC   C3B46281  40.974   9.343   6.888
 3496POPC   C4B46282  40.650   9.390   7.190
 3497POPC   NC346283   7.764  16.171   5.337
 3497POPC   PO446284   7.297  15.840   5.208
 3497POPC   GL146285   7.447  15.901   5.684
 3497POPC   GL246286   7.675  15.674   5.844
 3497POPC   C1A46287   7.379  15.875   6.186
 3497POPC   D2A46288   7.549  15.722   6.619
 3497POPC   C3A46289   7.443  16.042   6.930
 3497POPC   C4A46290   7.171  16.051   7.316
 3497POPC   C1B46291   7.882  15.766   6.234
 3497POPC   C2B46292   7.905  16.115   6.578
 3497POPC   C3B46293   7.849  16.340   7.007
 3497POPC   C4B46294   7.534  16.426   7.358
 3498POPC   NC346295  14.866  35.741   5.666
 3498POPC   PO446296  15.266  36.096   5.274
 3498POPC   GL146297  15.287  36.098   5.745
 3498POPC   GL246298  15.517  36.355   5.813
 3498POPC   C1A46299  15.086  36.322   6.155
 3498POPC   D2A46300  14.815  36.174   6.499
 3498POPC   C3A46301  14.946  36.303   6.895
 3498POPC   C4A46302  15.119  36.225   7.275
 3498POPC   C1B46303  15.527  36.086   6.180
 3498POPC   C2B46304  15.327  36.040   6.557
 3498POPC   C3B46305  15.475  36.118   6.938
 3498POPC   C4B46306  15.632  36.267   7.301
 3499POPC   NC346307  22.161  42.914   5.460
 3499POPC   PO446308  21.966  43.518   5.267
 3499POPC   GL146309  22.038  43.440   5.747
 3499POPC   GL246310  21.849  43.165   5.904
 3499POPC   C1A46311  22.263  43.267   6.158
 3499POPC   D2A46312  22.185  43.082   6.583
 3499POPC   C3A46313  22.336  43.232   7.008
 3499POPC   C4A46314  22.508  42.875   7.241
 3499POPC   C1B46315  21.775  43.400   6.285
 3499POPC   C2B46316  21.825  43.404   6.704
 3499POPC   C3B46317  21.836  43.123   7.015
 3499POPC   C4B46318  21.857  43.301   7.376
 3500POPC   NC346319  25.443  39.100   5.291
 3500POPC   PO446320  24.968  39.488   5.330
 3500POPC   GL146321  25.210  39.447   5.753
 3500POPC   GL246322  25.455  39.149   5.798
 3500POPC   C1A46323  25.334  39.421   6.222
 3500POPC   D2A46324  25.246  39.170   6.609
 3500POPC   C3A46325  25.306  39.247   7.044
 3500POPC   C4A46326  25.439  39.295   7.452
 3500POPC   C1B46327  25.666  39.027   6.193
 3500POPC   C2B46328  25.583  38.801   6.547
 3500POPC   C3B46329  25.680  38.916   6.923
 3500POPC   C4B46330  25.850  39.053   7.300
 3501POPC   NC346331  23.227  32.317   5.440
 3501POPC   PO446332  22.570  32.154   5.522
 3501POPC   GL146333  22.923  32.109   5.804
 3501POPC   GL246334  22.994  32.454   5.867
 3501POPC   C1A46335  22.880  32.100   6.255
 3501POPC   D2A46336  22.547  32.268   6.536
 3501POPC   C3A46337  22.629  32.203   6.982
 3501POPC   C4A46338  22.955  32.110   7.288
 3501POPC   C1B46339  22.916  32.606   6.272
 3501POPC   C2B46340  23.012  32.396   6.683
 3501POPC   C3B46341  22.978  32.597   7.068
 3501POPC   C4B46342  23.263  32.531   7.381
 3502POPC   NC346343  18.058  33.185   5.471
 3502POPC   PO446344  18.491  33.669   5.447
 3502POPC   GL146345  18.444  33.340   5.808
 3502POPC   GL246346  18.072  33.393   5.931
 3502POPC   C1A46347  18.363  33.169   6.254
 3502POPC   D2A46348  18.015  33.225   6.533
 3502POPC   C3A46349  18.171  32.992   6.826
 3502POPC   C4A46350  18.269  33.007   7.213
 3502POPC   C1B46351  17.948  32.929   6.105
 3502POPC   C2B46352  18.119  32.656   6.429
 3502POPC   C3B46353  18.032  32.500   6.842
 3502POPC   C4B46354  17.822  32.736   7.119
 3503POPC   NC346355  41.139  40.157   5.448
 3503POPC   PO446356  41.871  40.206   5.368
 3503POPC   GL146357  41.570  40.047   5.709
 3503POPC   GL246358  41.357  40.274   5.913
 3503POPC   C1A46359  41.503  39.778   6.096
 3503POPC   D2A46360  41.384  39.760   6.523
 3503POPC   C3A46361  41.623  39.883   6.850
 3503POPC   C4A46362  41.433  40.128   7.135
 3503POPC   C1B46363  41.785  40.202   6.181
 3503POPC   C2B46364  41.950  40.269   6.652
 3503POPC   C3B46365  41.937  40.187   7.136
 3503POPC   C4B46366  41.992  40.031   7.563
 3504POPC   NC346367   4.310  28.076   5.460
 3504POPC   PO446368   4.634  27.482   5.493
 3504POPC   GL146369   4.199  27.517   5.682
 3504POPC   GL246370   4.197  27.809   5.924
 3504POPC   C1A46371   4.006  27.366   6.098
 3504POPC   D2A46372   4.150  27.603   6.468
 3504POPC   C3A46373   4.095  27.478   6.889
 3504POPC   C4A46374   4.218  27.691   7.267
 3504POPC   C1B46375   4.525  27.499   6.110
 3504POPC   C2B46376   4.781  27.462   6.470
 3504POPC   C3B46377   4.602  27.600   6.846
 3504POPC   C4B46378   4.634  27.416   7.206
 3505POPC   NC346379   6.621  31.156   5.400
 3505POPC   PO446380   6.510  31.793   5.395
 3505POPC   GL146381   6.760  31.660   5.764
 3505POPC   GL246382   6.724  31.350   5.901
 3505POPC   C1A46383   6.864  31.704   6.213
 3505POPC   D2A46384   6.913  31.775   6.626
 3505POPC   C3A46385   6.642  31.609   6.916
 3505POPC   C4A46386   6.712  31.590   7.340
 3505POPC   C1B46387   6.471  31.245   6.283
 3505POPC   C2B46388   6.287  31.303   6.719
 3505POPC   C3B46389   6.441  31.178   7.148
 3505POPC   C4B46390   6.342  31.273   7.602
 3506POPC   NC346391   0.571  24.988   5.394
 3506POPC   PO446392   0.603  25.641   5.431
 3506POPC   GL146393   0.675  25.378   5.786
 3506POPC   GL246394   0.362  25.347   5.853
 3506POPC   C1A46395   0.629  25.129   6.218
 3506POPC   D2A46396   0.774  24.969   6.643
 3506POPC   C3A46397   0.549  25.192   6.997
 3506POPC   C4A46398   0.701  25.406   7.345
 3506POPC   C1B46399   0.281  25.544   6.248
 3506POPC   C2B46400   0.091  25.502   6.659
 3506POPC   C3B46401   0.180  25.575   7.095
 3506POPC   C4B46402   0.237  25.443   7.533
 3507POPC   NC346403   2.390   2.157   5.620
 3507POPC   PO446404   2.970   1.993   5.282
 3507POPC   GL146405   2.861   1.808   5.679
 3507POPC   GL246406   3.139   2.014   5.786
 3507POPC   C1A46407   2.717   1.851   6.138
 3507POPC   D2A46408   2.482   2.057   6.496
 3507POPC   C3A46409   2.593   1.967   6.945
 3507POPC   C4A46410   2.657   2.319   7.247
 3507POPC   C1B46411   3.226   1.991   6.212
 3507POPC   C2B46412   3.000   2.035   6.608
 3507POPC   C3B46413   3.081   2.091   7.052
 3507POPC   C4B46414   3.055   1.687   7.227
 3508POPC   NC346415  17.904   3.648   5.424
 3508POPC   PO446416  17.378   3.235   5.518
 3508POPC   GL146417  17.674   3.381   5.819
 3508POPC   GL246418  17.574   3.765   5.882
 3508POPC   C1A46419  17.587   3.438   6.251
 3508POPC   D2A46420  17.482   3.749   6.543
 3508POPC   C3A46421  17.656   3.597   6.874
 3508POPC   C4A46422  17.658   3.231   7.136
 3508POPC   C1B46423  17.306   4.064   6.172
 3508POPC   C2B46424  17.180   4.165   6.624
 3508POPC   C3B46425  17.222   3.872   7.003
 3508POPC   C4B46426  17.580   3.752   7.333
 3509POPC   NC346427   0.919  38.926   5.546
 3509POPC   PO446428   1.370  39.257   5.173
 3509POPC   GL146429   1.149  39.355   5.654
 3509POPC   GL246430   1.435  39.324   5.886
 3509POPC   C1A46431   1.047  39.094   6.132
 3509POPC   D2A46432   1.332  39.119   6.489
 3509POPC   C3A46433   1.250  38.971   6.900
 3509POPC   C4A46434   1.362  39.147   7.296
 3509POPC   C1B46435   1.125  39.583   6.116
 3509POPC   C2B46436   1.006  39.568   6.540
 3509POPC   C3B46437   1.205  39.468   6.911
 3509POPC   C4B46438   1.029  39.535   7.300
 3510POPC   NC346439   0.810  24.302   5.248
 3510POPC   PO446440   0.208  24.643   5.422
 3510POPC   GL146441   0.444  24.503   5.774
 3510POPC   GL246442   0.210  24.220   5.785
 3510POPC   C1A46443   0.662  24.607   6.195
 3510POPC   D2A46444   0.518  24.507   6.630
 3510POPC   C3A46445   0.597  24.695   7.079
 3510POPC   C4A46446   0.586  24.907   7.515
 3510POPC   C1B46447   0.159  24.389   6.214
 3510POPC   C2B46448   0.045  24.306   6.634
 3510POPC   C3B46449   0.180  24.424   7.035
 3510POPC   C4B46450   0.214  24.569   7.473
 3511POPC   NC346451   5.149  42.067   5.411
 3511POPC   PO446452   5.217  42.668   5.343
 3511POPC   GL146453   5.169  42.463   5.792
 3511POPC   GL246454   4.900  42.159   5.835
 3511POPC   C1A46455   5.282  42.552   6.263
 3511POPC   D2A46456   5.486  42.527   6.690
 3511POPC   C3A46457   5.251  42.413   7.069
 3511POPC   C4A46458   5.205  42.575   7.481
 3511POPC   C1B46459   5.096  42.077   6.224
 3511POPC   C2B46460   5.226  42.078   6.662
 3511POPC   C3B46461   5.376  41.921   7.070
 3511POPC   C4B46462   5.198  42.049   7.485
 3512POPC   NC346463  13.383  31.734   5.377
 3512POPC   PO446464  13.921  31.267   5.491
 3512POPC   GL146465  13.757  31.316   5.912
 3512POPC   GL246466  13.392  31.448   5.917
 3512POPC   C1A46467  13.565  31.152   6.291
 3512POPC   D2A46468  13.465  30.918   6.642
 3512POPC   C3A46469  13.654  31.191   6.950
 3512POPC   C4A46470  13.417  31.526   7.098
 3512POPC   C1B46471  13.414  31.707   6.292
 3512POPC   C2B46472  13.312  31.895   6.700
 3512POPC   C3B46473  13.550  32.015   7.060
 3512POPC   C4B46474  13.975  31.885   7.223
 3513POPC   NC346475  36.785  13.829   5.451
 3513POPC   PO446476  37.393  13.404   5.498
 3513POPC   GL146477  37.134  13.638   5.804
 3513POPC   GL246478  36.899  13.394   5.741
 3513POPC   C1A46479  36.882  13.905   6.118
 3513POPC   D2A46480  36.754  14.150   6.496
 3513POPC   C3A46481  36.716  13.940   6.913
 3513POPC   C4A46482  36.834  13.696   7.293
 3513POPC   C1B46483  36.743  13.360   6.146
 3513POPC   C2B46484  36.737  13.601   6.523
 3513POPC   C3B46485  36.877  13.433   6.871
 3513POPC   C4B46486  37.176  13.253   7.137
 3514POPC   NC346487   0.432  20.043   5.212
 3514POPC   PO446488   0.908  19.664   5.551
 3514POPC   GL146489   0.492  19.784   5.702
 3514POPC   GL246490   0.273  19.570   5.523
 3514POPC   C1A46491   0.381  19.850   6.134
 3514POPC   D2A46492   0.278  19.962   6.553
 3514POPC   C3A46493   0.534  19.852   6.875
 3514POPC   C4A46494   0.519  19.929   7.270
 3514POPC   C1B46495   0.097  19.473   5.936
 3514POPC   C2B46496   0.074  19.510   6.390
 3514POPC   C3B46497   0.256  19.437   6.796
 3514POPC   C4B46498   0.118  19.492   7.224
 3515POPC   NC346499   0.832   6.205   5.519
 3515POPC   PO446500   1.393   6.074   5.473
 3515POPC   GL146501   1.396   5.874   5.878
 3515POPC   GL246502   1.055   5.879   5.862
 3515POPC   C1A46503   1.236   5.789   6.324
 3515POPC   D2A46504   1.035   5.665   6.700
 3515POPC   C3A46505   1.220   5.881   7.038
 3515POPC   C4A46506   1.191   5.884   7.471
 3515POPC   C1B46507   0.914   6.200   6.163
 3515POPC   C2B46508   0.832   6.144   6.577
 3515POPC   C3B46509   0.949   6.307   6.916
 3515POPC   C4B46510   0.950   6.274   7.303
 3516POPC   NC346511   0.238  11.535   5.636
 3516POPC   PO446512   0.573  11.184   5.178
 3516POPC   GL146513   0.629  11.191   5.675
 3516POPC   GL246514   0.336  11.131   5.933
 3516POPC   C1A46515   0.752  11.219   6.158
 3516POPC   D2A46516   0.512  11.182   6.561
 3516POPC   C3A46517   0.528  11.422   6.950
 3516POPC   C4A46518   0.748  11.477   7.338
 3516POPC   C1B46519   0.025  11.141   6.289
 3516POPC   C2B46520  44.955  11.094   6.744
 3516POPC   C3B46521   0.051  11.236   7.156
 3516POPC   C4B46522   0.259  11.496   7.497
 3517POPC   NC346523  35.421  42.604   5.482
 3517POPC   PO446524  35.754  41.984   5.366
 3517POPC   GL146525  35.547  42.168   5.762
 3517POPC   GL246526  35.657  42.524   5.920
 3517POPC   C1A46527  35.348  42.198   6.180
 3517POPC   D2A46528  35.456  42.434   6.552
 3517POPC   C3A46529  35.304  42.224   6.902
 3517POPC   C4A46530  35.196  42.235   7.310
 3517POPC   C1B46531  35.272  42.721   6.129
 3517POPC   C2B46532  34.995  42.671   6.505
 3517POPC   C3B46533  35.126  42.730   6.937
 3517POPC   C4B46534  34.903  42.703   7.330
 3518POPC   NC346535  18.784   4.477   5.322
 3518POPC   PO446536  19.297   4.077   5.451
 3518POPC   GL146537  19.004   4.262   5.764
 3518POPC   GL246538  19.034   4.623   5.783
 3518POPC   C1A46539  18.862   4.394   6.192
 3518POPC   D2A46540  19.039   4.533   6.558
 3518POPC   C3A46541  19.010   4.282   6.935
 3518POPC   C4A46542  18.746   4.465   7.244
 3518POPC   C1B46543  19.338   4.666   6.135
 3518POPC   C2B46544  19.531   4.694   6.560
 3518POPC   C3B46545  19.305   4.749   6.936
 3518POPC   C4B46546  19.254   4.579   7.303
 3519POPC   NC346547  21.475  26.347   5.229
 3519POPC   PO446548  21.564  25.747   5.438
 3519POPC   GL146549  21.599  26.139   5.707
 3519POPC   GL246550  21.213  26.219   5.680
 3519POPC   C1A46551  21.777  26.197   6.156
 3519POPC   D2A46552  21.610  26.152   6.581
 3519POPC   C3A46553  21.645  25.994   7.019
 3519POPC   C4A46554  21.321  25.703   7.138
 3519POPC   C1B46555  20.965  25.984   6.001
 3519POPC   C2B46556  20.865  26.035   6.451
 3519POPC   C3B46557  21.134  26.080   6.815
 3519POPC   C4B46558  21.093  26.220   7.205
 3520POPC   NC346559  21.975  24.863   5.408
 3520POPC   PO446560  22.533  24.582   5.578
 3520POPC   GL146561  22.365  24.326   5.879
 3520POPC   GL246562  22.008  24.363   5.764
 3520POPC   C1A46563  22.468  24.236   6.288
 3520POPC   D2A46564  22.304  24.473   6.601
 3520POPC   C3A46565  22.297  24.346   6.991
 3520POPC   C4A46566  22.205  24.644   7.311
 3520POPC   C1B46567  21.977  24.580   6.170
 3520POPC   C2B46568  21.811  24.408   6.557
 3520POPC   C3B46569  21.848  24.595   6.943
 3520POPC   C4B46570  21.719  24.458   7.348
 3521POPC   NC346571  26.480   8.394   5.472
 3521POPC   PO446572  26.907   7.881   5.351
 3521POPC   GL146573  26.844   8.105   5.692
 3521POPC   GL246574  26.499   8.008   5.807
 3521POPC   C1A46575  26.890   8.190   6.105
 3521POPC   D2A46576  26.996   8.135   6.529
 3521POPC   C3A46577  27.338   8.310   6.763
 3521POPC   C4A46578  27.184   8.188   7.166
 3521POPC   C1B46579  26.500   7.896   6.242
 3521POPC   C2B46580  26.477   8.181   6.592
 3521POPC   C3B46581  26.608   8.147   7.012
 3521POPC   C4B46582  26.445   7.736   7.137
 3522POPC   NC346583   5.967  21.882   5.170
 3522POPC   PO446584   5.629  21.398   5.576
 3522POPC   GL146585   5.706  21.416   6.000
 3522POPC   GL246586   5.708  21.078   6.051
 3522POPC   C1A46587   5.799  21.716   6.344
 3522POPC   D2A46588   5.808  21.835   6.782
 3522POPC   C3A46589   5.702  21.452   7.001
 3522POPC   C4A46590   5.768  21.222   7.373
 3522POPC   C1B46591   6.100  21.257   6.281
 3522POPC   C2B46592   6.146  21.466   6.690
 3522POPC   C3B46593   6.211  21.454   7.149
 3522POPC   C4B46594   6.421  21.155   7.461
 3523POPC   NC346595   8.986  38.926   5.474
 3523POPC   PO446596   8.890  39.633   5.281
 3523POPC   GL146597   8.968  39.410   5.676
 3523POPC   GL246598   8.696  39.191   5.825
 3523POPC   C1A46599   9.077  39.387   6.112
 3523POPC   D2A46600   9.022  39.364   6.560
 3523POPC   C3A46601   9.213  38.980   6.766
 3523POPC   C4A46602   9.219  38.883   7.204
 3523POPC   C1B46603   8.577  39.447   6.193
 3523POPC   C2B46604   8.530  39.326   6.650
 3523POPC   C3B46605   8.781  39.127   6.974
 3523POPC   C4B46606   8.756  38.949   7.398
 3524POPC   NC346607   5.240  38.214   5.498
 3524POPC   PO446608   5.030  38.869   5.626
 3524POPC   GL146609   4.973  38.611   6.011
 3524POPC   GL246610   5.122  38.281   5.994
 3524POPC   C1A46611   5.076  38.478   6.448
 3524POPC   D2A46612   5.374  38.623   6.737
 3524POPC   C3A46613   5.240  38.684   7.164
 3524POPC   C4A46614   4.840  38.823   7.355
 3524POPC   C1B46615   5.292  38.002   6.328
 3524POPC   C2B46616   5.426  38.057   6.742
 3524POPC   C3B46617   5.236  38.070   7.154
 3524POPC   C4B46618   5.001  38.334   7.451
 3525POPC   NC346619  24.523  30.154   5.363
 3525POPC   PO446620  24.457  29.598   5.738
 3525POPC   GL146621  24.431  30.032   5.856
 3525POPC   GL246622  24.798  30.040   5.802
 3525POPC   C1A46623  24.253  30.302   6.200
 3525POPC   D2A46624  24.433  30.330   6.632
 3525POPC   C3A46625  24.555  29.922   6.814
 3525POPC   C4A46626  24.289  29.857   7.133
 3525POPC   C1B46627  24.781  30.282   6.191
 3525POPC   C2B46628  24.925  30.439   6.590
 3525POPC   C3B46629  24.960  30.186   6.950
 3525POPC   C4B46630  24.710  30.101   7.327
 3526POPC   NC346631  17.916  44.529   5.557
 3526POPC   PO446632  17.374  44.546   5.211
 3526POPC   GL146633  17.461  44.792   5.606
 3526POPC   GL246634  17.470  44.497   5.801
 3526POPC   C1A46635  17.647  44.945   6.037
 3526POPC   D2A46636  17.543   0.134   6.466
 3526POPC   C3A46637  17.361  44.897   6.802
 3526POPC   C4A46638  17.669  44.755   7.071
 3526POPC   C1B46639  17.642  44.376   6.190
 3526POPC   C2B46640  17.790  44.542   6.575
 3526POPC   C3B46641  17.733  44.267   6.902
 3526POPC   C4B46642  17.391  44.339   7.152
 3527POPC   NC346643  33.379   6.575   5.338
 3527POPC   PO446644  34.040   6.553   5.364
 3527POPC   GL146645  33.703   6.657   5.716
 3527POPC   GL246646  33.627   6.309   5.678
 3527POPC   C1A46647  33.584   6.815   6.184
 3527POPC   D2A46648  33.673   7.054   6.609
 3527POPC   C3A46649  33.940   6.883   6.974
 3527POPC   C4A46650  34.113   6.514   7.238
 3527POPC   C1B46651  33.545   6.283   6.091
 3527POPC   C2B46652  33.682   6.374   6.484
 3527POPC   C3B46653  33.666   6.467   6.901
 3527POPC   C4B46654  33.667   6.221   7.259
 3528POPC   NC346655  32.886  38.218   5.139
 3528POPC   PO446656  33.397  38.499   5.294
 3528POPC   GL146657  33.096  38.315   5.650
 3528POPC   GL246658  32.753  38.170   5.687
 3528POPC   C1A46659  33.093  38.418   6.106
 3528POPC   D2A46660  33.130  38.717   6.469
 3528POPC   C3A46661  33.148  38.518   6.879
 3528POPC   C4A46662  33.009  38.413   7.278
 3528POPC   C1B46663  32.603  38.265   6.123
 3528POPC   C2B46664  32.718  38.318   6.582
 3528POPC   C3B46665  32.623  38.208   7.037
 3528POPC   C4B46666  32.554  38.240   7.519
 3529POPC   NC346667  32.219  44.889   5.512
 3529POPC   PO446668  32.066  44.250   5.369
 3529POPC   GL146669  32.233  44.446   5.784
 3529POPC   GL246670  32.548  44.694   5.822
 3529POPC   C1A46671  32.040  44.597   6.188
 3529POPC   D2A46672  31.965  44.380   6.606
 3529POPC   C3A46673  32.136  44.577   7.005
 3529POPC   C4A46674  32.055  44.540   7.454
 3529POPC   C1B46675  32.568  44.535   6.214
 3529POPC   C2B46676  32.477  44.513   6.609
 3529POPC   C3B46677  32.703  44.600   6.948
 3529POPC   C4B46678  32.536  44.712   7.315
 3530POPC   NC346679  25.533   6.687   5.377
 3530POPC   PO446680  24.889   7.103   5.440
 3530POPC   GL146681  25.180   6.842   5.719
 3530POPC   GL246682  25.514   6.981   5.820
 3530POPC   C1A46683  25.233   6.617   6.126
 3530POPC   D2A46684  25.213   6.754   6.567
 3530POPC   C3A46685  25.521   6.867   6.873
 3530POPC   C4A46686  25.426   6.861   7.306
 3530POPC   C1B46687  25.671   6.821   6.284
 3530POPC   C2B46688  25.625   6.454   6.577
 3530POPC   C3B46689  25.387   6.383   7.008
 3530POPC   C4B46690  25.414   6.411   7.522
 3531POPC   NC346691  29.727  37.503   5.469
 3531POPC   PO446692  30.231  37.944   5.602
 3531POPC   GL146693  30.318  37.575   5.834
 3531POPC   GL246694  29.964  37.552   5.910
 3531POPC   C1A46695  30.280  37.550   6.292
 3531POPC   D2A46696  29.980  37.631   6.638
 3531POPC   C3A46697  30.069  37.500   7.052
 3531POPC   C4A46698  30.417  37.502   7.332
 3531POPC   C1B46699  29.631  37.549   6.219
 3531POPC   C2B46700  29.450  37.767   6.591
 3531POPC   C3B46701  29.632  37.890   7.001
 3531POPC   C4B46702  29.633  37.888   7.460
 3532POPC   NC346703  27.617  17.627   5.303
 3532POPC   PO446704  27.260  17.081   5.632
 3532POPC   GL146705  27.502  17.357   5.921
 3532POPC   GL246706  27.751  17.655   5.864
 3532POPC   C1A46707  27.431  17.549   6.299
 3532POPC   D2A46708  27.307  17.335   6.655
 3532POPC   C3A46709  27.480  17.637   6.922
 3532POPC   C4A46710  27.353  17.813   7.313
 3532POPC   C1B46711  27.929  17.437   6.191
 3532POPC   C2B46712  27.813  17.384   6.604
 3532POPC   C3B46713  27.911  17.327   7.010
 3532POPC   C4B46714  27.898  17.629   7.324
 3533POPC   NC346715  42.089  17.954   5.546
 3533POPC   PO446716  41.654  18.390   5.166
 3533POPC   GL146717  41.501  18.393   5.661
 3533POPC   GL246718  41.235  18.173   5.844
 3533POPC   C1A46719  41.539  18.430   6.149
 3533POPC   D2A46720  41.629  18.136   6.483
 3533POPC   C3A46721  41.611  18.295   6.888
 3533POPC   C4A46722  41.573  18.539   7.260
 3533POPC   C1B46723  41.177  17.961   6.248
 3533POPC   C2B46724  41.299  17.778   6.650
 3533POPC   C3B46725  41.426  17.836   7.063
 3533POPC   C4B46726  41.214  18.177   7.208
 3534POPC   NC346727   3.714  24.878   5.555
 3534POPC   PO446728   3.376  25.522   5.470
 3534POPC   GL146729   3.406  25.562   5.894
 3534POPC   GL246730   3.415  25.189   5.918
 3534POPC   C1A46731   3.416  25.690   6.331
 3534POPC   D2A46732   3.596  25.405   6.562
 3534POPC   C3A46733   3.757  25.494   6.916
 3534POPC   C4A46734   3.595  25.307   7.236
 3534POPC   C1B46735   3.797  25.114   6.195
 3534POPC   C2B46736   3.883  24.969   6.646
 3534POPC   C3B46737   4.042  25.065   7.082
 3534POPC   C4B46738   3.971  25.118   7.541
 3535POPC   NC346739  20.327  29.450   5.500
 3535POPC   PO446740  20.833  29.786   5.464
 3535POPC   GL146741  20.549  29.800   5.792
 3535POPC   GL246742  20.692  30.068   5.911
 3535POPC   C1A46743  20.398  29.801   6.239
 3535POPC   D2A46744  20.650  29.985   6.572
 3535POPC   C3A46745  20.531  30.011   7.016
 3535POPC   C4A46746  20.508  30.055   7.468
 3535POPC   C1B46747  20.895  29.745   6.161
 3535POPC   C2B46748  21.050  29.642   6.570
 3535POPC   C3B46749  21.039  29.930   6.914
 3535POPC   C4B46750  20.972  29.852   7.341
 3536POPC   NC346751  14.906  14.052   5.515
 3536POPC   PO446752  15.420  14.542   5.572
 3536POPC   GL146753  15.426  14.373   5.911
 3536POPC   GL246754  15.060  14.341   5.939
 3536POPC   C1A46755  15.409  14.432   6.334
 3536POPC   D2A46756  15.177  14.623   6.654
 3536POPC   C3A46757  15.372  14.660   7.060
 3536POPC   C4A46758  15.295  14.647   7.519
 3536POPC   C1B46759  14.957  14.212   6.363
 3536POPC   C2B46760  14.754  14.330   6.760
 3536POPC   C3B46761  14.894  14.413   7.173
 3536POPC   C4B46762  14.959  14.238   7.583
 3537POPC   NC346763  19.081  26.713   5.412
 3537POPC   PO446764  18.524  27.037   5.545
 3537POPC   GL146765  18.778  26.720   5.835
 3537POPC   GL246766  18.680  26.365   5.862
 3537POPC   C1A46767  19.061  26.536   6.187
 3537POPC   D2A46768  18.975  26.435   6.650
 3537POPC   C3A46769  19.227  26.704   6.946
 3537POPC   C4A46770  19.336  26.955   7.330
 3537POPC   C1B46771  18.548  26.552   6.296
 3537POPC   C2B46772  18.589  26.797   6.685
 3537POPC   C3B46773  18.745  26.806   7.123
 3537POPC   C4B46774  18.477  26.726   7.525
 3538POPC   NC346775  14.134  43.753   5.464
 3538POPC   PO446776  14.336  44.277   5.577
 3538POPC   GL146777  14.149  44.056   5.885
 3538POPC   GL246778  14.442  43.816   5.917
 3538POPC   C1A46779  14.142  43.948   6.321
 3538POPC   D2A46780  14.389  43.758   6.610
 3538POPC   C3A46781  14.283  43.880   7.002
 3538POPC   C4A46782  14.119  43.580   7.228
 3538POPC   C1B46783  14.629  44.102   6.247
 3538POPC   C2B46784  14.470  44.275   6.656
 3538POPC   C3B46785  14.677  44.183   7.063
 3538POPC   C4B46786  14.774  44.299   7.505
 3539POPC   NC346787  41.416   0.244   5.014
 3539POPC   PO446788  41.701   0.877   5.193
 3539POPC   GL146789  41.763   0.577   5.619
 3539POPC   GL246790  41.901   0.211   5.594
 3539POPC   C1A46791  41.711   0.581   6.106
 3539POPC   D2A46792  41.681   0.708   6.578
 3539POPC   C3A46793  41.325   0.505   6.813
 3539POPC   C4A46794  41.211   0.508   7.246
 3539POPC   C1B46795  41.952   0.085   6.047
 3539POPC   C2B46796  41.777   0.198   6.470
 3539POPC   C3B46797  41.788   0.307   6.913
 3539POPC   C4B46798  41.954   0.162   7.272
 3540POPC   NC346799   4.992  43.055   5.413
 3540POPC   PO446800   5.656  43.046   5.280
 3540POPC   GL146801   5.403  42.984   5.706
 3540POPC   GL246802   5.301  43.336   5.746
 3540POPC   C1A46803   5.033  42.951   6.045
 3540POPC   D2A46804   4.878  43.026   6.484
 3540POPC   C3A46805   5.091  42.870   6.836
 3540POPC   C4A46806   5.403  42.910   7.121
 3540POPC   C1B46807   5.430  43.254   6.189
 3540POPC   C2B46808   5.258  43.385   6.599
 3540POPC   C3B46809   5.130  43.356   7.025
 3540POPC   C4B46810   5.340  43.518   7.383
 3541POPC   NC346811  44.796   9.343   5.460
 3541POPC   PO446812  44.506   8.795   5.249
 3541POPC   GL146813  44.512   8.969   5.679
 3541POPC   GL246814  44.200   8.839   5.741
 3541POPC   C1A46815  44.640   9.110   6.134
 3541POPC   D2A46816  44.649   8.873   6.545
 3541POPC   C3A46817  44.593   9.070   6.952
 3541POPC   C4A46818  44.856   9.031   7.325
 3541POPC   C1B46819  44.296   8.748   6.136
 3541POPC   C2B46820  44.372   8.442   6.396
 3541POPC   C3B46821  44.520   8.418   6.807
 3541POPC   C4B46822  44.562   8.607   7.173
 3542POPC   NC346823  36.010   6.571   5.143
 3542POPC   PO446824  36.470   6.863   5.565
 3542POPC   GL146825  36.115   6.605   5.738
 3542POPC   GL246826  35.927   6.760   5.917
 3542POPC   C1A46827  36.047   6.340   6.143
 3542POPC   D2A46828  35.903   6.505   6.538
 3542POPC   C3A46829  36.137   6.376   6.900
 3542POPC   C4A46830  36.024   6.444   7.325
 3542POPC   C1B46831  36.259   6.840   6.199
 3542POPC   C2B46832  36.354   6.776   6.612
 3542POPC   C3B46833  36.154   6.884   6.982
 3542POPC   C4B46834  36.206   6.917   7.422
 3543POPC   NC346835   2.520  41.009   5.317
 3543POPC   PO446836   3.018  41.545   5.235
 3543POPC   GL146837   2.862  41.513   5.671
 3543POPC   GL246838   2.718  41.217   5.742
 3543POPC   C1A46839   2.770  41.620   6.099
 3543POPC   D2A46840   2.953  41.658   6.495
 3543POPC   C3A46841   2.667  41.733   6.801
 3543POPC   C4A46842   2.575  41.563   7.198
 3543POPC   C1B46843   3.030  41.142   6.064
 3543POPC   C2B46844   2.909  41.145   6.506
 3543POPC   C3B46845   2.960  41.317   6.922
 3543POPC   C4B46846   2.923  41.227   7.376
 3544POPC   NC346847  13.759   3.074   5.347
 3544POPC   PO446848  13.478   2.522   5.404
 3544POPC   GL146849  13.745   2.708   5.702
 3544POPC   GL246850  13.464   2.936   5.758
 3544POPC   C1A46851  13.870   3.024   6.035
 3544POPC   D2A46852  13.705   3.071   6.454
 3544POPC   C3A46853  13.826   2.843   6.839
 3544POPC   C4A46854  13.807   3.096   7.202
 3544POPC   C1B46855  13.223   2.972   6.141
 3544POPC   C2B46856  13.206   3.165   6.540
 3544POPC   C3B46857  13.367   3.074   6.929
 3544POPC   C4B46858  13.396   2.692   7.154
 3545POPC   NC346859  24.789   7.610   5.478
 3545POPC   PO446860  24.191   8.042   5.443
 3545POPC   GL146861  24.364   7.670   5.741
 3545POPC   GL246862  24.376   7.265   5.732
 3545POPC   C1A46863  24.605   7.501   6.125
 3545POPC   D2A46864  24.503   7.327   6.533
 3545POPC   C3A46865  24.662   7.498   6.922
 3545POPC   C4A46866  24.686   7.824   7.217
 3545POPC   C1B46867  24.283   7.024   6.147
 3545POPC   C2B46868  24.243   6.909   6.630
 3545POPC   C3B46869  24.483   7.033   7.049
 3545POPC   C4B46870  24.419   7.050   7.513
 3546POPC   NC346871   6.800  44.143   5.317
 3546POPC   PO446872   6.395  43.653   5.501
 3546POPC   GL146873   6.608  43.853   5.841
 3546POPC   GL246874   6.451  44.138   5.987
 3546POPC   C1A46875   6.803  43.780   6.263
 3546POPC   D2A46876   6.785  43.574   6.672
 3546POPC   C3A46877   7.049  43.671   7.027
 3546POPC   C4A46878   6.780  43.862   7.270
 3546POPC   C1B46879   6.279  43.794   6.240
 3546POPC   C2B46880   6.102  43.824   6.642
 3546POPC   C3B46881   6.369  43.733   6.977
 3546POPC   C4B46882   6.328  43.575   7.373
 3547POPC   NC346883  28.156  25.708   5.362
 3547POPC   PO446884  28.543  26.317   5.244
 3547POPC   GL146885  28.571  26.074   5.700
 3547POPC   GL246886  28.307  25.833   5.810
 3547POPC   C1A46887  28.598  25.958   6.176
 3547POPC   D2A46888  28.395  25.862   6.580
 3547POPC   C3A46889  28.581  25.940   6.966
 3547POPC   C4A46890  28.587  26.364   7.116
 3547POPC   C1B46891  28.117  25.681   6.184
 3547POPC   C2B46892  27.927  25.658   6.599
 3547POPC   C3B46893  28.086  25.681   7.039
 3547POPC   C4B46894  28.386  25.795   7.412
 3548POPC   NC346895  43.393  27.869   5.492
 3548POPC   PO446896  44.060  27.820   5.280
 3548POPC   GL146897  44.069  27.653   5.757
 3548POPC   GL246898  43.996  27.273   5.855
 3548POPC   C1A46899  43.897  27.660   6.197
 3548POPC   D2A46900  44.035  27.620   6.635
 3548POPC   C3A46901  43.841  27.510   7.029
 3548POPC   C4A46902  43.982  27.542   7.471
 3548POPC   C1B46903  43.736  27.166   6.210
 3548POPC   C2B46904  43.816  27.137   6.650
 3548POPC   C3B46905  43.544  27.110   6.998
 3548POPC   C4B46906  43.584  27.208   7.444
 3549POPC   NC346907  37.945  39.165   5.377
 3549POPC   PO446908  37.215  38.967   5.465
 3549POPC   GL146909  37.562  39.115   5.738
 3549POPC   GL246910  37.338  39.326   5.882
 3549POPC   C1A46911  37.759  39.162   6.181
 3549POPC   D2A46912  37.677  39.301   6.636
 3549POPC   C3A46913  37.894  39.025   6.915
 3549POPC   C4A46914  38.018  39.116   7.337
 3549POPC   C1B46915  37.269  38.993   6.166
 3549POPC   C2B46916  37.472  38.829   6.523
 3549POPC   C3B46917  37.345  38.963   6.935
 3549POPC   C4B46918  37.251  39.058   7.390
 3550POPC   NC346919   1.594   9.832   5.396
 3550POPC   PO446920   0.927   9.686   5.401
 3550POPC   GL146921   1.154   9.872   5.709
 3550POPC   GL246922   1.329   9.565   5.755
 3550POPC   C1A46923   1.300   9.968   6.133
 3550POPC   D2A46924   1.094  10.027   6.553
 3550POPC   C3A46925   1.304   9.853   6.963
 3550POPC   C4A46926   1.479   9.941   7.389
 3550POPC   C1B46927   1.588   9.551   6.102
 3550POPC   C2B46928   1.453   9.631   6.509
 3550POPC   C3B46929   1.366   9.361   6.848
 3550POPC   C4B46930   1.554   9.429   7.238
 3551POPC   NC346931  39.651  39.585   5.549
 3551POPC   PO446932  38.988  39.863   5.340
 3551POPC   GL146933  39.257  39.918   5.739
 3551POPC   GL246934  39.569  39.939   5.893
 3551POPC   C1A46935  39.169  40.024   6.195
 3551POPC   D2A46936  39.145  40.175   6.638
 3551POPC   C3A46937  39.181  39.847   6.983
 3551POPC   C4A46938  39.064  39.783   7.413
 3551POPC   C1B46939  39.584  40.338   6.100
 3551POPC   C2B46940  39.610  40.432   6.537
 3551POPC   C3B46941  39.548  40.246   6.948
 3551POPC   C4B46942  39.438  40.101   7.341
 3552POPC   NC346943  34.903  40.985   5.629
 3552POPC   PO446944  34.462  40.507   5.466
 3552POPC   GL146945  34.496  40.748   5.821
 3552POPC   GL246946  34.304  41.076   5.806
 3552POPC   C1A46947  34.666  40.666   6.222
 3552POPC   D2A46948  34.371  40.578   6.538
 3552POPC   C3A46949  34.524  40.667   6.924
 3552POPC   C4A46950  34.725  40.511   7.268
 3552POPC   C1B46951  34.389  41.082   6.273
 3552POPC   C2B46952  34.735  41.050   6.577
 3552POPC   C3B46953  34.881  40.998   6.996
 3552POPC   C4B46954  34.530  41.052   7.282
 3553POPC   NC346955  19.247  32.693   5.358
 3553POPC   PO446956  18.831  32.222   5.302
 3553POPC   GL146957  19.059  32.159   5.707
 3553POPC   GL246958  19.224  32.491   5.825
 3553POPC   C1A46959  18.928  32.232   6.152
 3553POPC   D2A46960  19.016  32.415   6.540
 3553POPC   C3A46961  18.860  32.217   6.916
 3553POPC   C4A46962  18.671  31.896   7.208
 3553POPC   C1B46963  19.398  32.663   6.212
 3553POPC   C2B46964  19.288  32.837   6.615
 3553POPC   C3B46965  19.034  32.695   6.967
 3553POPC   C4B46966  19.187  32.655   7.326
 3554POPC   NC346967  36.598  24.270   5.455
 3554POPC   PO446968  37.159  24.724   5.492
 3554POPC   GL146969  37.028  24.658   5.906
 3554POPC   GL246970  36.624  24.608   5.852
 3554POPC   C1A46971  37.242  24.697   6.343
 3554POPC   D2A46972  37.069  24.720   6.776
 3554POPC   C3A46973  37.096  24.394   7.093
 3554POPC   C4A46974  37.305  24.362   7.532
 3554POPC   C1B46975  36.700  24.644   6.292
 3554POPC   C2B46976  36.634  24.428   6.672
 3554POPC   C3B46977  36.616  24.646   7.042
 3554POPC   C4B46978  36.496  24.810   7.423
 3555POPC   NC346979  27.015  19.176   5.335
 3555POPC   PO446980  27.039  18.564   5.470
 3555POPC   GL146981  26.862  18.875   5.760
 3555POPC   GL246982  26.752  19.228   5.796
 3555POPC   C1A46983  26.645  18.900   6.152
 3555POPC   D2A46984  26.779  19.162   6.494
 3555POPC   C3A46985  26.657  19.056   6.900
 3555POPC   C4A46986  26.789  19.168   7.303
 3555POPC   C1B46987  26.447  19.371   6.118
 3555POPC   C2B46988  26.419  19.557   6.537
 3555POPC   C3B46989  26.517  19.534   6.975
 3555POPC   C4B46990  26.537  19.563   7.425
 3556POPC   NC346991  11.500  25.581   5.385
 3556POPC   PO446992  10.904  25.262   5.341
 3556POPC   GL146993  11.184  25.362   5.748
 3556POPC   GL246994  11.577  25.435   5.853
 3556POPC   C1A46995  11.221  25.342   6.198
 3556POPC   D2A46996  11.411  25.354   6.615
 3556POPC   C3A46997  11.296  25.185   7.005
 3556POPC   C4A46998  11.313  25.517   7.304
 3556POPC   C1B46999  11.801  25.447   6.250
 3556POPC   C2B47000  11.873  25.145   6.597
 3556POPC   C3B47001  11.779  25.352   7.004
 3556POPC   C4B47002  11.717  25.240   7.439
 3557POPC   NC347003  25.507   5.969   5.176
 3557POPC   PO447004  25.123   5.675   5.708
 3557POPC   GL147005  25.087   6.076   5.906
 3557POPC   GL247006  25.315   6.314   5.727
 3557POPC   C1A47007  25.147   6.061   6.355
 3557POPC   D2A47008  25.240   5.713   6.635
 3557POPC   C3A47009  25.117   5.867   7.011
 3557POPC   C4A47010  25.018   6.160   7.288
 3557POPC   C1B47011  25.592   6.177   6.114
 3557POPC   C2B47012  25.690   5.935   6.513
 3557POPC   C3B47013  25.652   5.755   6.930
 3557POPC   C4B47014  25.532   5.979   7.304
 3558POPC   NC347015  27.129  31.799   5.481
 3558POPC   PO447016  27.037  31.170   5.199
 3558POPC   GL147017  26.806  31.491   5.677
 3558POPC   GL247018  27.043  31.337   5.893
 3558POPC   C1A47019  26.617  31.311   6.161
 3558POPC   D2A47020  26.638  31.166   6.654
 3558POPC   C3A47021  26.874  31.333   7.046
 3558POPC   C4A47022  26.800  31.718   7.277
 3558POPC   C1B47023  27.037  31.557   6.291
 3558POPC   C2B47024  27.021  31.681   6.728
 3558POPC   C3B47025  27.282  31.666   7.123
 3558POPC   C4B47026  27.220  31.737   7.581
 3559POPC   NC347027  28.563  16.444   5.596
 3559POPC   PO447028  28.251  17.093   5.498
 3559POPC   GL147029  28.425  16.897   5.845
 3559POPC   GL247030  28.162  16.626   5.879
 3559POPC   C1A47031  28.508  16.781   6.277
 3559POPC   D2A47032  28.304  16.636   6.681
 3559POPC   C3A47033  28.415  16.796   7.077
 3559POPC   C4A47034  28.550  16.815   7.479
 3559POPC   C1B47035  28.023  16.922   6.193
 3559POPC   C2B47036  27.854  16.885   6.583
 3559POPC   C3B47037  27.917  16.804   6.978
 3559POPC   C4B47038  27.824  16.940   7.347
 3560POPC   NC347039  13.125  23.690   5.350
 3560POPC   PO447040  12.570  23.559   5.708
 3560POPC   GL147041  12.941  23.484   5.865
 3560POPC   GL247042  13.006  23.817   5.876
 3560POPC   C1A47043  12.860  23.556   6.314
 3560POPC   D2A47044  12.749  23.347   6.683
 3560POPC   C3A47045  12.877  23.477   7.058
 3560POPC   C4A47046  12.665  23.383   7.428
 3560POPC   C1B47047  13.083  24.043   6.250
 3560POPC   C2B47048  12.995  23.888   6.685
 3560POPC   C3B47049  12.819  23.982   7.074
 3560POPC   C4B47050  13.140  23.987   7.340
 3561POPC   NC347051  16.179   2.491   5.349
 3561POPC   PO447052  15.699   2.072   5.410
 3561POPC   GL147053  15.814   1.933   5.820
 3561POPC   GL247054  16.042   2.196   5.802
 3561POPC   C1A47055  16.029   1.841   6.194
 3561POPC   D2A47056  16.063   2.048   6.604
 3561POPC   C3A47057  15.879   1.816   6.976
 3561POPC   C4A47058  15.899   1.998   7.403
 3561POPC   C1B47059  15.768   2.306   6.175
 3561POPC   C2B47060  15.555   2.195   6.573
 3561POPC   C3B47061  15.700   2.291   6.997
 3561POPC   C4B47062  16.079   2.433   7.229
 3562POPC   NC347063  44.378   5.842   5.319
 3562POPC   PO447064  43.673   5.942   5.348
 3562POPC   GL147065  43.890   5.884   5.750
 3562POPC   GL247066  44.250   5.892   5.807
 3562POPC   C1A47067  43.942   5.759   6.192
 3562POPC   D2A47068  44.124   5.858   6.569
 3562POPC   C3A47069  43.954   5.751   6.963
 3562POPC   C4A47070  43.788   5.756   7.342
 3562POPC   C1B47071  44.370   6.106   6.168
 3562POPC   C2B47072  44.307   6.317   6.545
 3562POPC   C3B47073  44.108   6.231   6.936
 3562POPC   C4B47074  44.257   6.015   7.327
 3563POPC   NC347075  44.839  21.353   5.305
 3563POPC   PO447076  44.495  21.011   5.755
 3563POPC   GL147077  44.668  21.402   5.925
 3563POPC   GL247078  44.968  21.542   5.792
 3563POPC   C1A47079  44.576  21.566   6.336
 3563POPC   D2A47080  44.579  21.409   6.763
 3563POPC   C3A47081  44.278  21.480   7.086
 3563POPC   C4A47082  44.507  21.377   7.483
 3563POPC   C1B47083   0.075  21.593   6.244
 3563POPC   C2B47084  44.956  21.768   6.658
 3563POPC   C3B47085   0.150  21.747   7.072
 3563POPC   C4B47086   0.005  21.525   7.469
 3564POPC   NC347087  14.161  31.734   5.533
 3564POPC   PO447088  14.647  31.217   5.306
 3564POPC   GL147089  14.446  31.383   5.716
 3564POPC   GL247090  14.689  31.629   5.684
 3564POPC   C1A47091  14.248  31.271   6.132
 3564POPC   D2A47092  14.018  31.148   6.538
 3564POPC   C3A47093  14.241  31.254   6.926
 3564POPC   C4A47094  14.118  31.416   7.334
 3564POPC   C1B47095  14.587  31.745   6.127
 3564POPC   C2B47096  14.606  31.748   6.597
 3564POPC   C3B47097  14.437  31.758   7.025
 3564POPC   C4B47098  14.507  31.775   7.470
 3565POPC   NC347099   8.482  37.877   5.431
 3565POPC   PO447100   8.054  37.307   5.302
 3565POPC   GL147101   8.170  37.555   5.647
 3565POPC   GL247102   8.043  37.871   5.759
 3565POPC   C1A47103   8.173  37.483   6.106
 3565POPC   D2A47104   8.036  37.731   6.447
 3565POPC   C3A47105   8.079  37.549   6.842
 3565POPC   C4A47106   8.038  37.771   7.235
 3565POPC   C1B47107   8.360  37.950   6.098
 3565POPC   C2B47108   8.556  37.769   6.455
 3565POPC   C3B47109   8.464  37.884   6.871
 3565POPC   C4B47110   8.566  37.758   7.265
 3566POPC   NC347111  10.484   5.609   5.446
 3566POPC   PO447112  10.443   6.193   5.062
 3566POPC   GL147113  10.496   6.125   5.604
 3566POPC   GL247114  10.239   5.927   5.776
 3566POPC   C1A47115  10.407   6.230   6.136
 3566POPC   D2A47116  10.533   5.993   6.551
 3566POPC   C3A47117  10.390   5.867   6.982
 3566POPC   C4A47118  10.484   5.945   7.441
 3566POPC   C1B47119  10.349   5.716   6.159
 3566POPC   C2B47120  10.214   5.442   6.489
 3566POPC   C3B47121  10.108   5.448   6.911
 3566POPC   C4B47122  10.334   5.469   7.295
 3567POPC   NC347123  22.515  31.704   5.538
 3567POPC   PO447124  22.915  31.146   5.494
 3567POPC   GL147125  23.127  31.261   5.861
 3567POPC   GL247126  23.015  31.597   5.841
 3567POPC   C1A47127  23.223  31.361   6.275
 3567POPC   D2A47128  23.000  31.340   6.675
 3567POPC   C3A47129  23.172  31.624   6.992
 3567POPC   C4A47130  23.340  31.400   7.311
 3567POPC   C1B47131  22.777  31.605   6.253
 3567POPC   C2B47132  22.779  31.808   6.684
 3567POPC   C3B47133  22.681  31.702   7.121
 3567POPC   C4B47134  22.645  31.790   7.576
 3568POPC   NC347135  33.508  38.955   5.404
 3568POPC   PO447136  33.933  39.532   5.297
 3568POPC   GL147137  33.680  39.394   5.655
 3568POPC   GL247138  33.837  39.085   5.812
 3568POPC   C1A47139  33.578  39.376   6.133
 3568POPC   D2A47140  33.418  39.404   6.566
 3568POPC   C3A47141  33.644  39.299   6.970
 3568POPC   C4A47142  33.459  39.263   7.388
 3568POPC   C1B47143  34.044  38.857   6.187
 3568POPC   C2B47144  34.231  38.893   6.616
 3568POPC   C3B47145  34.080  39.019   7.026
 3568POPC   C4B47146  33.907  38.809   7.397
 3569POPC   NC347147  25.564  29.579   5.293
 3569POPC   PO447148  25.171  29.037   5.458
 3569POPC   GL147149  25.356  29.038   5.833
 3569POPC   GL247150  25.664  29.221   5.830
 3569POPC   C1A47151  25.449  28.847   6.210
 3569POPC   D2A47152  25.222  28.797   6.589
 3569POPC   C3A47153  25.399  28.783   6.975
 3569POPC   C4A47154  25.224  29.090   7.229
 3569POPC   C1B47155  25.479  29.348   6.265
 3569POPC   C2B47156  25.551  29.227   6.708
 3569POPC   C3B47157  25.694  29.200   7.120
 3569POPC   C4B47158  25.577  29.332   7.525
 3570POPC   NC347159  12.807  16.166   5.474
 3570POPC   PO447160  12.818  15.570   5.225
 3570POPC   GL147161  12.877  15.717   5.697
 3570POPC   GL247162  13.162  15.968   5.804
 3570POPC   C1A47163  12.639  15.893   6.092
 3570POPC   D2A47164  12.396  15.701   6.479
 3570POPC   C3A47165  12.650  15.692   6.889
 3570POPC   C4A47166  12.666  15.621   7.351
 3570POPC   C1B47167  13.012  16.220   6.189
 3570POPC   C2B47168  12.734  16.107   6.562
 3570POPC   C3B47169  12.784  16.186   7.010
 3570POPC   C4B47170  12.892  16.096   7.451
 3571POPC   NC347171  10.202  35.055   5.503
 3571POPC   PO447172  10.735  35.452   5.374
 3571POPC   GL147173  10.511  35.404   5.769
 3571POPC   GL247174  10.563  35.053   5.869
 3571POPC   C1A47175  10.598  35.526   6.215
 3571POPC   D2A47176  10.796  35.409   6.607
 3571POPC   C3A47177  10.518  35.406   6.952
 3571POPC   C4A47178  10.670  35.558   7.298
 3571POPC   C1B47179  10.213  35.161   6.154
 3571POPC   C2B47180  10.164  35.323   6.564
 3571POPC   C3B47181  10.106  35.088   6.934
 3571POPC   C4B47182  10.331  34.962   7.281
 3572POPC   NC347183   9.966  19.770   5.419
 3572POPC   PO447184   9.412  20.118   5.580
 3572POPC   GL147185   9.752  20.006   5.806
 3572POPC   GL247186   9.601  19.707   5.874
 3572POPC   C1A47187   9.988  19.875   6.176
 3572POPC   D2A47188   9.806  19.900   6.587
 3572POPC   C3A47189  10.024  19.736   6.980
 3572POPC   C4A47190  10.219  19.716   7.389
 3572POPC   C1B47191   9.431  19.970   6.225
 3572POPC   C2B47192   9.303  19.987   6.679
 3572POPC   C3B47193   9.528  19.847   7.045
 3572POPC   C4B47194   9.504  19.688   7.475
 3573POPC   NC347195  21.310  12.968   5.048
 3573POPC   PO447196  21.797  13.268   5.522
 3573POPC   GL147197  21.445  13.113   5.784
 3573POPC   GL247198  21.199  12.838   5.662
 3573POPC   C1A47199  21.419  12.861   6.145
 3573POPC   D2A47200  21.518  12.735   6.561
 3573POPC   C3A47201  21.331  13.003   6.883
 3573POPC   C4A47202  21.264  13.053   7.333
 3573POPC   C1B47203  21.007  12.567   5.991
 3573POPC   C2B47204  20.997  12.475   6.447
 3573POPC   C3B47205  21.130  12.528   6.866
 3573POPC   C4B47206  21.062  12.584   7.279
 3574POPC   NC347207  21.217   5.992   5.428
 3574POPC   PO447208  21.757   6.273   5.491
 3574POPC   GL147209  21.534   5.971   5.844
 3574POPC   GL247210  21.376   5.628   5.778
 3574POPC   C1A47211  21.570   5.696   6.249
 3574POPC   D2A47212  21.768   5.446   6.607
 3574POPC   C3A47213  21.621   5.592   7.029
 3574POPC   C4A47214  21.556   6.066   7.113
 3574POPC   C1B47215  21.072   5.524   6.107
 3574POPC   C2B47216  21.134   5.603   6.549
 3574POPC   C3B47217  20.954   5.541   6.950
 3574POPC   C4B47218  21.183   5.749   7.245
 3575POPC   NC347219  30.296   3.893   5.487
 3575POPC   PO447220  30.846   3.577   5.239
 3575POPC   GL147221  30.674   3.532   5.673
 3575POPC   GL247222  30.714   3.858   5.790
 3575POPC   C1A47223  30.620   3.453   6.148
 3575POPC   D2A47224  30.790   3.266   6.545
 3575POPC   C3A47225  30.649   3.240   6.959
 3575POPC   C4A47226  30.852   3.360   7.318
 3575POPC   C1B47227  30.688   3.977   6.201
 3575POPC   C2B47228  30.955   3.759   6.482
 3575POPC   C3B47229  30.975   3.635   6.898
 3575POPC   C4B47230  30.867   3.846   7.259
 3576POPC   NC347231   4.067   8.017   5.447
 3576POPC   PO447232   4.362   8.622   5.510
 3576POPC   GL147233   4.353   8.278   5.807
 3576POPC   GL247234   4.680   8.159   5.912
 3576POPC   C1A47235   4.274   8.180   6.242
 3576POPC   D2A47236   4.395   7.986   6.638
 3576POPC   C3A47237   4.177   8.072   7.031
 3576POPC   C4A47238   4.082   8.332   7.401
 3576POPC   C1B47239   4.706   7.826   6.237
 3576POPC   C2B47240   4.800   7.685   6.659
 3576POPC   C3B47241   4.498   7.650   7.006
 3576POPC   C4B47242   4.412   7.791   7.416
 3577POPC   NC347243  28.305  15.665   5.024
 3577POPC   PO447244  28.244  16.097   5.474
 3577POPC   GL147245  28.236  16.058   5.887
 3577POPC   GL247246  27.896  16.176   5.899
 3577POPC   C1A47247  28.325  15.767   6.278
 3577POPC   D2A47248  28.599  15.647   6.630
 3577POPC   C3A47249  28.530  15.835   7.046
 3577POPC   C4A47250  28.496  16.276   7.201
 3577POPC   C1B47251  27.893  16.008   6.293
 3577POPC   C2B47252  28.147  16.002   6.705
 3577POPC   C3B47253  28.031  15.929   7.149
 3577POPC   C4B47254  28.204  15.714   7.511
 3578POPC   NC347255  14.430  42.303   5.380
 3578POPC   PO447256  14.304  42.914   5.525
 3578POPC   GL147257  14.298  42.615   5.778
 3578POPC   GL247258  14.652  42.616   5.780
 3578POPC   C1A47259  14.206  42.407   6.140
 3578POPC   D2A47260  14.336  42.240   6.534
 3578POPC   C3A47261  14.216  42.359   6.954
 3578POPC   C4A47262  14.199  42.057   7.299
 3578POPC   C1B47263  14.724  42.299   6.093
 3578POPC   C2B47264  14.835  42.066   6.471
 3578POPC   C3B47265  14.691  42.106   6.887
 3578POPC   C4B47266  14.649  42.311   7.276
 3579POPC   NC347267  40.602  39.851   5.395
 3579POPC   PO447268  41.247  39.677   5.472
 3579POPC   GL147269  41.058  39.830   5.839
 3579POPC   GL247270  40.794  40.043   5.812
 3579POPC   C1A47271  41.021  40.018   6.256
 3579POPC   D2A47272  40.791  39.982   6.636
 3579POPC   C3A47273  40.964  39.963   7.025
 3579POPC   C4A47274  41.140  39.729   7.323
 3579POPC   C1B47275  40.465  40.047   6.064
 3579POPC   C2B47276  40.405  40.234   6.450
 3579POPC   C3B47277  40.376  40.254   6.893
 3579POPC   C4B47278  40.620  40.256   7.249
 3580POPC   NC347279  19.011   9.857   5.394
 3580POPC   PO447280  18.950   9.271   5.508
 3580POPC   GL147281  18.984   9.585   5.843
 3580POPC   GL247282  19.245   9.809   5.870
 3580POPC   C1A47283  19.076   9.588   6.306
 3580POPC   D2A47284  18.852   9.568   6.740
 3580POPC   C3A47285  19.096   9.567   7.137
 3580POPC   C4A47286  19.098   9.692   7.588
 3580POPC   C1B47287  19.242  10.110   6.204
 3580POPC   C2B47288  19.029  10.265   6.565
 3580POPC   C3B47289  18.987  10.078   6.973
 3580POPC   C4B47290  19.375  10.023   7.195
 3581POPC   NC347291  17.345  34.188   5.390
 3581POPC   PO447292  17.718  33.592   5.566
 3581POPC   GL147293  17.580  33.953   5.792
 3581POPC   GL247294  17.206  34.007   5.845
 3581POPC   C1A47295  17.553  33.871   6.216
 3581POPC   D2A47296  17.667  34.046   6.582
 3581POPC   C3A47297  17.712  33.688   6.814
 3581POPC   C4A47298  17.684  33.709   7.242
 3581POPC   C1B47299  17.044  33.856   6.230
 3581POPC   C2B47300  17.205  33.744   6.635
 3581POPC   C3B47301  17.325  33.984   6.978
 3581POPC   C4B47302  17.179  34.063   7.360
 3582POPC   NC347303  15.691  36.247   5.328
 3582POPC   PO447304  16.215  35.895   5.521
 3582POPC   GL147305  15.956  36.105   5.747
 3582POPC   GL247306  15.709  35.828   5.688
 3582POPC   C1A47307  15.980  36.275   6.158
 3582POPC   D2A47308  15.783  36.333   6.578
 3582POPC   C3A47309  15.999  36.125   6.936
 3582POPC   C4A47310  16.147  36.263   7.341
 3582POPC   C1B47311  15.910  35.750   6.099
 3582POPC   C2B47312  15.882  35.847   6.511
 3582POPC   C3B47313  15.716  35.668   6.885
 3582POPC   C4B47314  15.794  35.786   7.283
 3583POPC   NC347315  17.355   5.146   5.237
 3583POPC   PO447316  17.813   4.814   5.463
 3583POPC   GL147317  17.470   5.021   5.747
 3583POPC   GL247318  17.417   5.386   5.701
 3583POPC   C1A47319  17.429   5.095   6.211
 3583POPC   D2A47320  17.687   4.989   6.579
 3583POPC   C3A47321  17.481   4.971   6.974
 3583POPC   C4A47322  17.591   4.643   7.199
 3583POPC   C1B47323  17.745   5.444   6.015
 3583POPC   C2B47324  17.642   5.494   6.468
 3583POPC   C3B47325  17.731   5.432   6.894
 3583POPC   C4B47326  17.533   5.442   7.265
 3584POPC   NC347327  30.074  17.712   5.333
 3584POPC   PO447328  29.622  17.378   5.583
 3584POPC   GL147329  29.998  17.440   5.829
 3584POPC   GL247330  30.063  17.822   5.827
 3584POPC   C1A47331  30.020  17.277   6.280
 3584POPC   D2A47332  30.087  17.519   6.678
 3584POPC   C3A47333  29.778  17.448   7.057
 3584POPC   C4A47334  29.836  17.201   7.468
 3584POPC   C1B47335  29.912  17.792   6.242
 3584POPC   C2B47336  29.877  17.978   6.639
 3584POPC   C3B47337  30.097  17.883   7.019
 3584POPC   C4B47338  30.047  17.669   7.418
 3585POPC   NC347339   3.359  18.307   5.419
 3585POPC   PO447340   3.888  18.720   5.349
 3585POPC   GL147341   3.745  18.583   5.805
 3585POPC   GL247342   3.684  18.232   5.829
 3585POPC   C1A47343   3.673  18.434   6.287
 3585POPC   D2A47344   3.856  18.143   6.614
 3585POPC   C3A47345   3.728  18.228   7.021
 3585POPC   C4A47346   3.486  18.539   7.260
 3585POPC   C1B47347   3.556  17.947   6.183
 3585POPC   C2B47348   3.347  18.016   6.568
 3585POPC   C3B47349   3.273  18.361   6.829
 3585POPC   C4B47350   3.022  18.286   7.190
 3586POPC   NC347351   0.822  12.028   5.373
 3586POPC   PO447352   0.167  11.995   5.599
 3586POPC   GL147353   0.503  11.989   5.890
 3586POPC   GL247354   0.718  11.681   5.905
 3586POPC   C1A47355   0.386  12.106   6.319
 3586POPC   D2A47356   0.509  11.917   6.709
 3586POPC   C3A47357   0.745  12.203   6.947
 3586POPC   C4A47358   0.600  12.468   7.293
 3586POPC   C1B47359   0.416  11.596   6.256
 3586POPC   C2B47360   0.137  11.554   6.603
 3586POPC   C3B47361   0.124  11.731   7.020
 3586POPC   C4B47362   0.461  11.885   7.242
 3587POPC   NC347363  38.883  27.020   5.318
 3587POPC   PO447364  39.350  26.563   5.534
 3587POPC   GL147365  39.143  26.906   5.756
 3587POPC   GL247366  38.845  26.764   5.822
 3587POPC   C1A47367  39.060  27.151   6.150
 3587POPC   D2A47368  39.234  27.219   6.585
 3587POPC   C3A47369  39.040  27.072   6.994
 3587POPC   C4A47370  39.236  26.933   7.424
 3587POPC   C1B47371  39.081  26.633   6.182
 3587POPC   C2B47372  39.066  26.731   6.601
 3587POPC   C3B47373  39.219  26.591   6.985
 3587POPC   C4B47374  39.142  26.452   7.403
 3588POPC   NC347375  10.284  12.866   5.428
 3588POPC   PO447376  10.793  12.291   5.605
 3588POPC   GL147377  10.733  12.658   5.864
 3588POPC   GL247378  10.425  12.823   5.890
 3588POPC   C1A47379  10.664  12.758   6.308
 3588POPC   D2A47380  10.409  12.762   6.632
 3588POPC   C3A47381  10.668  12.812   6.996
 3588POPC   C4A47382  10.353  12.698   7.268
 3588POPC   C1B47383  10.232  13.049   6.204
 3588POPC   C2B47384  10.125  13.214   6.590
 3588POPC   C3B47385  10.238  13.131   6.994
 3588POPC   C4B47386  10.481  13.246   7.331
 3589POPC   NC347387   8.740  10.844   5.531
 3589POPC   PO447388   9.271  10.503   5.662
 3589POPC   GL147389   8.939  10.351   5.915
 3589POPC   GL247390   8.720  10.620   5.985
 3589POPC   C1A47391   8.897  10.335   6.373
 3589POPC   D2A47392   8.842  10.516   6.747
 3589POPC   C3A47393   9.056  10.345   7.129
 3589POPC   C4A47394   9.063  10.575   7.545
 3589POPC   C1B47395   8.659  10.824   6.363
 3589POPC   C2B47396   8.794  11.079   6.694
 3589POPC   C3B47397   9.075  11.071   7.022
 3589POPC   C4B47398   9.125  11.079   7.460
 3590POPC   NC347399   1.374  20.374   5.259
 3590POPC   PO447400   0.826  20.652   5.621
 3590POPC   GL147401   1.118  20.473   5.896
 3590POPC   GL247402   1.490  20.460   5.778
 3590POPC   C1A47403   1.041  20.500   6.320
 3590POPC   D2A47404   0.914  20.666   6.710
 3590POPC   C3A47405   1.116  20.538   7.064
 3590POPC   C4A47406   1.214  20.809   7.345
 3590POPC   C1B47407   1.500  20.261   6.209
 3590POPC   C2B47408   1.408  20.304   6.673
 3590POPC   C3B47409   1.463  20.170   7.119
 3590POPC   C4B47410   1.341  20.349   7.539
 3591POPC   NC347411  28.174  14.661   5.342
 3591POPC   PO447412  28.305  14.074   5.477
 3591POPC   GL147413  28.253  14.281   5.855
 3591POPC   GL247414  27.968  14.515   5.806
 3591POPC   C1A47415  28.414  14.190   6.308
 3591POPC   D2A47416  28.616  14.271   6.738
 3591POPC   C3A47417  28.435  14.620   7.002
 3591POPC   C4A47418  28.254  14.903   7.336
 3591POPC   C1B47419  27.889  14.301   6.207
 3591POPC   C2B47420  28.019  14.321   6.657
 3591POPC   C3B47421  27.941  14.522   7.043
 3591POPC   C4B47422  27.927  14.479   7.477
 3592POPC   NC347423  19.592   8.381   5.472
 3592POPC   PO447424  19.176   8.762   5.532
 3592POPC   GL147425  19.029   8.852   5.906
 3592POPC   GL247426  19.139   9.122   5.950
 3592POPC   C1A47427  18.869   8.689   6.245
 3592POPC   D2A47428  19.109   8.573   6.580
 3592POPC   C3A47429  19.040   8.831   6.930
 3592POPC   C4A47430  19.051   8.745   7.346
 3592POPC   C1B47431  19.282   9.082   6.320
 3592POPC   C2B47432  19.253   9.256   6.691
 3592POPC   C3B47433  19.452   9.124   7.021
 3592POPC   C4B47434  19.342   9.171   7.397
 3593POPC   NC347435  11.687  20.066   5.491
 3593POPC   PO447436  11.260  19.523   5.430
 3593POPC   GL147437  11.205  19.549   5.864
 3593POPC   GL247438  11.301  19.884   5.845
 3593POPC   C1A47439  11.230  19.654   6.332
 3593POPC   D2A47440  10.959  19.589   6.685
 3593POPC   C3A47441  11.085  19.626   7.113
 3593POPC   C4A47442  11.081  20.020   7.357
 3593POPC   C1B47443  10.943  20.029   6.099
 3593POPC   C2B47444  11.035  20.092   6.552
 3593POPC   C3B47445  11.395  19.929   6.808
 3593POPC   C4B47446  11.573  20.085   7.217
 3594POPC   NC347447  39.592  41.172   5.500
 3594POPC   PO447448  38.961  41.582   5.414
 3594POPC   GL147449  39.183  41.451   5.766
 3594POPC   GL247450  39.492  41.632   5.797
 3594POPC   C1A47451  39.130  41.272   6.179
 3594POPC   D2A47452  39.363  41.285   6.531
 3594POPC   C3A47453  39.336  41.368   6.924
 3594POPC   C4A47454  39.142  41.158   7.278
 3594POPC   C1B47455  39.270  41.769   6.176
 3594POPC   C2B47456  39.427  41.806   6.583
 3594POPC   C3B47457  39.498  41.980   6.970
 3594POPC   C4B47458  39.368  41.745   7.307
 3595POPC   NC347459  16.495   4.686   5.019
 3595POPC   PO447460  16.961   4.500   5.394
 3595POPC   GL147461  16.906   4.364   5.836
 3595POPC   GL247462  16.629   4.610   5.834
 3595POPC   C1A47463  16.779   4.132   6.238
 3595POPC   D2A47464  16.708   3.947   6.670
 3595POPC   C3A47465  16.812   4.187   7.036
 3595POPC   C4A47466  16.778   4.176   7.476
 3595POPC   C1B47467  16.804   4.665   6.237
 3595POPC   C2B47468  16.737   4.506   6.633
 3595POPC   C3B47469  16.606   4.667   7.022
 3595POPC   C4B47470  16.710   4.681   7.453
 3596POPC   NC347471  41.148   2.874   5.407
 3596POPC   PO447472  40.551   2.611   5.288
 3596POPC   GL147473  40.636   2.773   5.713
 3596POPC   GL247474  40.904   2.604   5.768
 3596POPC   C1A47475  40.531   2.953   6.143
 3596POPC   D2A47476  40.665   3.233   6.481
 3596POPC   C3A47477  40.689   3.065   6.900
 3596POPC   C4A47478  40.572   2.910   7.300
 3596POPC   C1B47479  40.760   2.479   6.162
 3596POPC   C2B47480  40.812   2.700   6.544
 3596POPC   C3B47481  40.692   2.554   6.943
 3596POPC   C4B47482  40.758   2.422   7.370
 3597POPC   NC347483  43.466   2.542   5.347
 3597POPC   PO447484  42.808   2.727   5.353
 3597POPC   GL147485  42.952   2.776   5.770
 3597POPC   GL247486  42.802   2.498   5.898
 3597POPC   C1A47487  43.131   2.833   6.199
 3597POPC   D2A47488  43.095   2.773   6.680
 3597POPC   C3A47489  43.325   2.976   7.046
 3597POPC   C4A47490  43.344   2.897   7.506
 3597POPC   C1B47491  43.083   2.336   6.254
 3597POPC   C2B47492  43.286   2.306   6.691
 3597POPC   C3B47493  43.230   2.460   7.128
 3597POPC   C4B47494  43.389   2.395   7.566
 3598POPC   NC347495  13.701  15.477   5.388
 3598POPC   PO447496  13.269  14.973   5.596
 3598POPC   GL147497  13.598  15.203   5.823
 3598POPC   GL247498  13.941  15.062   5.806
 3598POPC   C1A47499  13.681  15.234   6.262
 3598POPC   D2A47500  13.680  15.501   6.627
 3598POPC   C3A47501  13.810  15.343   7.005
 3598POPC   C4A47502  13.534  15.084   7.233
 3598POPC   C1B47503  13.677  14.748   6.054
 3598POPC   C2B47504  13.581  14.771   6.501
 3598POPC   C3B47505  13.775  14.734   6.929
 3598POPC   C4B47506  14.021  14.932   7.246
 3599POPC   NC347507  22.239  32.472   5.465
 3599POPC   PO447508  21.590  32.283   5.368
 3599POPC   GL147509  21.843  32.306   5.740
 3599POPC   GL247510  21.846  31.998   5.805
 3599POPC   C1A47511  22.095  32.302   6.170
 3599POPC   D2A47512  22.053  32.229   6.634
 3599POPC   C3A47513  22.162  32.420   7.016
 3599POPC   C4A47514  22.500  32.608   7.281
 3599POPC   C1B47515  22.075  31.764   6.096
 3599POPC   C2B47516  22.323  31.808   6.444
 3599POPC   C3B47517  22.236  31.802   6.870
 3599POPC   C4B47518  22.263  31.973   7.262
 3600POPC   NC347519  29.290  21.595   5.242
 3600POPC   PO447520  29.019  21.061   5.522
 3600POPC   GL147521  29.249  21.300   5.807
 3600POPC   GL247522  29.421  21.624   5.741
 3600POPC   C1A47523  29.202  21.304   6.253
 3600POPC   D2A47524  29.378  21.060   6.594
 3600POPC   C3A47525  29.179  21.175   7.001
 3600POPC   C4A47526  28.774  21.071   7.235
 3600POPC   C1B47527  29.173  21.817   6.069
 3600POPC   C2B47528  29.094  21.884   6.508
 3600POPC   C3B47529  29.218  21.679   6.888
 3600POPC   C4B47530  28.980  21.549   7.283
 3601POPC   NC347531  19.182  11.890   5.322
 3601POPC   PO447532  18.856  12.441   5.225
 3601POPC   GL147533  18.948  12.264   5.725
 3601POPC   GL247534  19.128  12.010   5.819
 3601POPC   C1A47535  18.898  12.082   6.241
 3601POPC   D2A47536  19.114  12.237   6.592
 3601POPC   C3A47537  18.923  12.303   6.977
 3601POPC   C4A47538  18.692  11.970   7.116
 3601POPC   C1B47539  19.319  12.362   6.119
 3601POPC   C2B47540  19.541  12.509   6.533
 3601POPC   C3B47541  19.513  12.260   6.908
 3601POPC   C4B47542  19.324  11.866   7.045
 3602POPC   NC347543   7.076  10.088   5.542
 3602POPC   PO447544   7.345   9.581   5.161
 3602POPC   GL147545   7.408   9.701   5.636
 3602POPC   GL247546   7.175   9.640   5.914
 3602POPC   C1A47547   7.626   9.756   6.080
 3602POPC   D2A47548   7.412   9.727   6.493
 3602POPC   C3A47549   7.590   9.528   6.867
 3602POPC   C4A47550   7.478   9.789   7.181
 3602POPC   C1B47551   6.931   9.507   6.273
 3602POPC   C2B47552   6.918   9.659   6.687
 3602POPC   C3B47553   6.987   9.869   7.062
 3602POPC   C4B47554   7.023   9.696   7.498
 3603POPC   NC347555  25.531   8.163   5.479
 3603POPC   PO447556  24.984   8.389   5.181
 3603POPC   GL147557  24.945   8.287   5.677
 3603POPC   GL247558  25.224   8.371   5.842
 3603POPC   C1A47559  24.950   8.047   6.118
 3603POPC   D2A47560  25.225   8.074   6.511
 3603POPC   C3A47561  25.183   8.352   6.840
 3603POPC   C4A47562  25.074   8.150   7.207
 3603POPC   C1B47563  25.176   8.499   6.251
 3603POPC   C2B47564  25.565   8.502   6.497
 3603POPC   C3B47565  25.699   8.445   6.913
 3603POPC   C4B47566  25.456   8.477   7.269
 3604POPC   NC347567  39.612  18.785   5.459
 3604POPC   PO447568  39.114  19.102   5.373
 3604POPC   GL147569  39.203  19.214   5.798
 3604POPC   GL247570  39.221  18.892   5.840
 3604POPC   C1A47571  39.120  19.187   6.282
 3604POPC   D2A47572  38.832  19.064   6.650
 3604POPC   C3A47573  38.899  19.098   7.115
 3604POPC   C4A47574  39.207  19.165   7.434
 3604POPC   C1B47575  39.514  18.858   6.149
 3604POPC   C2B47576  39.575  18.992   6.531
 3604POPC   C3B47577  39.373  19.045   6.914
 3604POPC   C4B47578  39.308  18.719   7.218
 3605POPC   NC347579   5.411  24.865   5.378
 3605POPC   PO447580   5.024  24.293   5.441
 3605POPC   GL147581   5.156  24.624   5.775
 3605POPC   GL247582   5.275  24.370   5.931
 3605POPC   C1A47583   5.257  24.800   6.241
 3605POPC   D2A47584   5.438  24.945   6.683
 3605POPC   C3A47585   5.266  24.756   7.087
 3605POPC   C4A47586   4.879  24.518   7.182
 3605POPC   C1B47587   4.958  24.396   6.242
 3605POPC   C2B47588   5.061  24.487   6.681
 3605POPC   C3B47589   5.273  24.226   6.989
 3605POPC   C4B47590   5.517  24.308   7.339
 3606POPC   NC347591   8.999  32.063   5.622
 3606POPC   PO447592   8.758  32.692   5.359
 3606POPC   GL147593   8.864  32.528   5.793
 3606POPC   GL247594   9.221  32.554   5.825
 3606POPC   C1A47595   8.981  32.319   6.219
 3606POPC   D2A47596   9.009  32.486   6.619
 3606POPC   C3A47597   8.893  32.259   6.963
 3606POPC   C4A47598   8.819  32.375   7.366
 3606POPC   C1B47599   9.488  32.519   6.191
 3606POPC   C2B47600   9.520  32.614   6.628
 3606POPC   C3B47601   9.373  32.489   7.029
 3606POPC   C4B47602   9.234  32.690   7.407
 3607POPC   NC347603  19.839  31.570   5.489
 3607POPC   PO447604  19.968  30.890   5.606
 3607POPC   GL147605  20.117  31.257   5.836
 3607POPC   GL247606  20.220  31.625   5.837
 3607POPC   C1A47607  19.949  31.435   6.215
 3607POPC   D2A47608  20.163  31.594   6.574
 3607POPC   C3A47609  19.936  31.451   6.956
 3607POPC   C4A47610  19.748  31.185   7.299
 3607POPC   C1B47611  20.073  31.925   6.159
 3607POPC   C2B47612  19.739  31.862   6.467
 3607POPC   C3B47613  19.662  31.889   6.891
 3607POPC   C4B47614  19.559  31.671   7.249
 3608POPC   NC347615   3.714  19.148   5.425
 3608POPC   PO447616   3.243  18.689   5.640
 3608POPC   GL147617   3.457  19.049   5.879
 3608POPC   GL247618   3.814  19.095   5.936
 3608POPC   C1A47619   3.476  19.218   6.323
 3608POPC   D2A47620   3.406  18.918   6.654
 3608POPC   C3A47621   3.491  19.001   7.056
 3608POPC   C4A47622   3.694  19.224   7.383
 3608POPC   C1B47623   3.870  18.896   6.361
 3608POPC   C2B47624   3.832  18.657   6.762
 3608POPC   C3B47625   3.932  18.802   7.173
 3608POPC   C4B47626   3.994  18.796   7.606
 3609POPC   NC347627  32.828  20.931   5.035
 3609POPC   PO447628  32.938  21.402   5.526
 3609POPC   GL147629  33.265  21.393   5.772
 3609POPC   GL247630  33.209  21.733   5.926
 3609POPC   C1A47631  33.176  21.272   6.167
 3609POPC   D2A47632  33.117  21.486   6.530
 3609POPC   C3A47633  33.204  21.266   6.907
 3609POPC   C4A47634  33.123  21.248   7.322
 3609POPC   C1B47635  32.771  21.637   6.142
 3609POPC   C2B47636  32.556  21.447   6.506
 3609POPC   C3B47637  32.715  21.437   6.919
 3609POPC   C4B47638  32.793  21.657   7.289
 3610POPC   NC347639  16.085   1.849   5.416
 3610POPC   PO447640  15.896   1.277   5.315
 3610POPC   GL147641  15.931   1.441   5.728
 3610POPC   GL247642  16.308   1.497   5.751
 3610POPC   C1A47643  15.722   1.389   6.136
 3610POPC   D2A47644  15.815   1.145   6.526
 3610POPC   C3A47645  15.645   1.346   6.884
 3610POPC   C4A47646  15.452   1.389   7.265
 3610POPC   C1B47647  16.218   1.309   6.168
 3610POPC   C2B47648  16.161   1.511   6.577
 3610POPC   C3B47649  16.149   1.346   6.980
 3610POPC   C4B47650  16.046   1.515   7.383
 3611POPC   NC347651  17.075   5.922   5.445
 3611POPC   PO447652  17.693   6.226   5.535
 3611POPC   GL147653  17.582   5.907   5.780
 3611POPC   GL247654  17.263   5.968   5.910
 3611POPC   C1A47655  17.692   5.919   6.191
 3611POPC   D2A47656  17.396   5.981   6.466
 3611POPC   C3A47657  17.462   6.118   6.863
 3611POPC   C4A47658  17.629   5.948   7.201
 3611POPC   C1B47659  17.260   5.598   6.126
 3611POPC   C2B47660  17.108   5.529   6.501
 3611POPC   C3B47661  17.245   5.666   6.894
 3611POPC   C4B47662  17.109   5.961   7.224
 3612POPC   NC347663  38.571  41.868   5.455
 3612POPC   PO447664  38.173  41.260   5.378
 3612POPC   GL147665  38.312  41.512   5.704
 3612POPC   GL247666  38.656  41.493   5.817
 3612POPC   C1A47667  38.239  41.558   6.127
 3612POPC   D2A47668  38.367  41.778   6.490
 3612POPC   C3A47669  38.479  41.477   6.787
 3612POPC   C4A47670  38.413  41.561   7.222
 3612POPC   C1B47671  38.766  41.620   6.209
 3612POPC   C2B47672  38.955  41.595   6.606
 3612POPC   C3B47673  38.895  41.547   7.055
 3612POPC   C4B47674  38.853  41.596   7.482
 3613POPC   NC347675  11.939  26.008   5.338
 3613POPC   PO447676  12.587  26.144   5.377
 3613POPC   GL147677  12.234  26.111   5.755
 3613POPC   GL247678  11.939  25.837   5.815
 3613POPC   C1A47679  11.977  26.166   6.186
 3613POPC   D2A47680  12.064  25.990   6.599
 3613POPC   C3A47681  11.953  26.222   6.964
 3613POPC   C4A47682  12.108  26.610   7.145
 3613POPC   C1B47683  12.286  25.772   6.142
 3613POPC   C2B47684  12.567  25.836   6.511
 3613POPC   C3B47685  12.458  25.903   6.955
 3613POPC   C4B47686  12.064  25.742   7.131
 3614POPC   NC347687  19.284   0.410   5.164
 3614POPC   PO447688  18.729   0.700   5.368
 3614POPC   GL147689  19.017   0.473   5.682
 3614POPC   GL247690  18.750   0.493   5.913
 3614POPC   C1A47691  19.220   0.540   6.141
 3614POPC   D2A47692  19.244   0.449   6.636
 3614POPC   C3A47693  19.072   0.734   7.001
 3614POPC   C4A47694  18.984   0.680   7.466
 3614POPC   C1B47695  18.673   0.066   6.100
 3614POPC   C2B47696  18.663  44.902   6.541
 3614POPC   C3B47697  18.648  44.984   6.999
 3614POPC   C4B47698  18.676   0.429   7.110
 3615POPC   NC347699  24.193  10.056   5.456
 3615POPC   PO447700  24.757   9.670   5.375
 3615POPC   GL147701  24.540   9.789   5.763
 3615POPC   GL247702  24.609  10.163   5.758
 3615POPC   C1A47703  24.473   9.635   6.201
 3615POPC   D2A47704  24.455   9.373   6.582
 3615POPC   C3A47705  24.657   9.572   6.942
 3615POPC   C4A47706  24.609   9.798   7.320
 3615POPC   C1B47707  24.421  10.161   6.157
 3615POPC   C2B47708  24.517  10.029   6.565
 3615POPC   C3B47709  24.352  10.004   6.946
 3615POPC   C4B47710  24.123   9.725   7.197
 3616POPC   NC347711  39.956  33.271   5.302
 3616POPC   PO447712  40.362  32.807   5.446
 3616POPC   GL147713  40.172  33.007   5.786
 3616POPC   GL247714  39.818  33.028   5.762
 3616POPC   C1A47715  40.105  33.156   6.218
 3616POPC   D2A47716  39.937  33.112   6.634
 3616POPC   C3A47717  40.270  33.144   6.930
 3616POPC   C4A47718  40.351  32.894   7.284
 3616POPC   C1B47719  39.601  33.082   6.162
 3616POPC   C2B47720  39.443  33.252   6.531
 3616POPC   C3B47721  39.542  33.259   6.961
 3616POPC   C4B47722  39.837  33.061   7.180
 3617POPC   NC347723   5.465   8.788   5.205
 3617POPC   PO447724   5.972   9.287   5.324
 3617POPC   GL147725   5.896   9.037   5.706
 3617POPC   GL247726   6.217   8.985   5.860
 3617POPC   C1A47727   5.794   8.860   6.109
 3617POPC   D2A47728   5.729   9.023   6.536
 3617POPC   C3A47729   5.909   8.720   6.815
 3617POPC   C4A47730   5.909   8.688   7.252
 3617POPC   C1B47731   6.099   9.250   6.217
 3617POPC   C2B47732   6.185   9.243   6.661
 3617POPC   C3B47733   6.010   9.170   7.088
 3617POPC   C4B47734   6.226   9.040   7.471
 3618POPC   NC347735  20.203  27.824   5.476
 3618POPC   PO447736  20.769  28.136   5.313
 3618POPC   GL147737  20.774  28.295   5.731
 3618POPC   GL247738  20.472  28.128   5.873
 3618POPC   C1A47739  20.863  28.281   6.182
 3618POPC   D2A47740  20.668  28.270   6.580
 3618POPC   C3A47741  20.630  28.664   6.841
 3618POPC   C4A47742  20.509  28.721   7.276
 3618POPC   C1B47743  20.270  28.070   6.294
 3618POPC   C2B47744  20.371  27.856   6.696
 3618POPC   C3B47745  20.236  27.804   7.143
 3618POPC   C4B47746  20.462  28.002   7.507
 3619POPC   NC347747  33.941  31.605   5.352
 3619POPC   PO447748  33.338  31.457   5.135
 3619POPC   GL147749  33.499  31.524   5.667
 3619POPC   GL247750  33.823  31.686   5.825
 3619POPC   C1A47751  33.643  31.389   6.174
 3619POPC   D2A47752  33.968  31.182   6.512
 3619POPC   C3A47753  34.014  31.236   7.002
 3619POPC   C4A47754  33.757  31.089   7.386
 3619POPC   C1B47755  34.161  31.833   6.085
 3619POPC   C2B47756  34.077  31.697   6.484
 3619POPC   C3B47757  34.076  31.764   6.910
 3619POPC   C4B47758  33.942  31.905   7.302
 3620POPC   NC347759  40.078  18.667   5.209
 3620POPC   PO447760  39.783  19.303   5.361
 3620POPC   GL147761  39.735  19.178   5.802
 3620POPC   GL247762  39.984  18.928   5.956
 3620POPC   C1A47763  39.845  19.379   6.201
 3620POPC   D2A47764  39.996  19.473   6.626
 3620POPC   C3A47765  39.900  19.106   6.901
 3620POPC   C4A47766  39.721  19.029   7.298
 3620POPC   C1B47767  40.078  18.974   6.428
 3620POPC   C2B47768  40.181  18.624   6.750
 3620POPC   C3B47769  40.225  18.695   7.193
 3620POPC   C4B47770  40.270  19.118   7.245
 3621POPC   NC347771  27.337   8.049   5.413
 3621POPC   PO447772  27.910   8.436   5.472
 3621POPC   GL147773  27.704   8.400   5.875
 3621POPC   GL247774  27.330   8.448   5.815
 3621POPC   C1A47775  27.707   8.405   6.354
 3621POPC   D2A47776  27.884   8.112   6.669
 3621POPC   C3A47777  27.856   8.240   7.083
 3621POPC   C4A47778  27.564   8.459   7.303
 3621POPC   C1B47779  27.383   8.063   6.093
 3621POPC   C2B47780  27.443   7.869   6.488
 3621POPC   C3B47781  27.477   7.827   6.930
 3621POPC   C4B47782  27.604   7.891   7.344
 3622POPC   NC347783  33.996  16.125   5.428
 3622POPC   PO447784  33.475  15.645   5.525
 3622POPC   GL147785  33.764  15.836   5.777
 3622POPC   GL247786  34.099  15.690   5.739
 3622POPC   C1A47787  33.727  16.102   6.101
 3622POPC   D2A47788  33.717  15.990   6.525
 3622POPC   C3A47789  33.611  16.234   6.866
 3622POPC   C4A47790  33.721  16.218   7.293
 3622POPC   C1B47791  34.255  15.665   6.153
 3622POPC   C2B47792  34.136  15.678   6.589
 3622POPC   C3B47793  33.916  15.795   6.981
 3622POPC   C4B47794  34.003  15.794   7.462
 3623POPC   NC347795  43.680   0.996   5.478
 3623POPC   PO447796  44.113   1.446   5.252
 3623POPC   GL147797  44.094   1.189   5.687
 3623POPC   GL247798  43.776   1.268   5.906
 3623POPC   C1A47799  44.101   0.942   6.089
 3623POPC   D2A47800  44.040   1.195   6.478
 3623POPC   C3A47801  44.018   1.062   6.903
 3623POPC   C4A47802  44.057   1.209   7.313
 3623POPC   C1B47803  43.614   1.459   6.279
 3623POPC   C2B47804  43.596   1.299   6.716
 3623POPC   C3B47805  43.573   1.326   7.155
 3623POPC   C4B47806  43.361   1.534   7.521
 3624POPC   NC347807   8.882   4.845   5.612
 3624POPC   PO447808   9.144   5.339   5.328
 3624POPC   GL147809   9.218   5.307   5.785
 3624POPC   GL247810   9.316   4.982   5.862
 3624POPC   C1A47811   9.021   5.162   6.215
 3624POPC   D2A47812   8.793   5.087   6.603
 3624POPC   C3A47813   8.975   5.171   7.014
 3624POPC   C4A47814   8.629   5.208   7.255
 3624POPC   C1B47815   9.456   4.822   6.262
 3624POPC   C2B47816   9.328   5.025   6.655
 3624POPC   C3B47817   9.390   4.880   7.090
 3624POPC   C4B47818   9.222   4.807   7.515
 3625POPC   NC347819  35.196  17.133   5.414
 3625POPC   PO447820  35.373  16.466   5.465
 3625POPC   GL147821  35.412  16.816   5.770
 3625POPC   GL247822  35.047  16.899   5.864
 3625POPC   C1A47823  35.423  16.701   6.206
 3625POPC   D2A47824  35.251  16.807   6.630
 3625POPC   C3A47825  35.481  16.597   6.944
 3625POPC   C4A47826  35.562  16.653   7.332
 3625POPC   C1B47827  34.928  16.648   6.275
 3625POPC   C2B47828  34.916  16.431   6.712
 3625POPC   C3B47829  35.015  16.604   7.141
 3625POPC   C4B47830  34.911  16.735   7.580
 3626POPC   NC347831  35.122   8.389   5.502
 3626POPC   PO447832  34.401   8.176   5.424
 3626POPC   GL147833  34.417   7.992   5.794
 3626POPC   GL247834  34.774   7.990   5.806
 3626POPC   C1A47835  34.408   8.173   6.218
 3626POPC   D2A47836  34.641   8.112   6.584
 3626POPC   C3A47837  34.533   8.238   6.992
 3626POPC   C4A47838  34.631   8.078   7.392
 3626POPC   C1B47839  34.881   8.329   6.121
 3626POPC   C2B47840  34.797   8.572   6.512
 3626POPC   C3B47841  34.995   8.418   6.858
 3626POPC   C4B47842  34.886   8.510   7.243
 3627POPC   NC347843   8.432  30.689   5.287
 3627POPC   PO447844   7.802  30.528   5.394
 3627POPC   GL147845   8.024  30.380   5.771
 3627POPC   GL247846   8.201  30.683   5.780
 3627POPC   C1A47847   8.042  30.518   6.232
 3627POPC   D2A47848   8.295  30.750   6.568
 3627POPC   C3A47849   8.136  30.608   6.941
 3627POPC   C4A47850   8.304  30.422   7.299
 3627POPC   C1B47851   8.324  30.987   6.123
 3627POPC   C2B47852   8.497  31.254   6.455
 3627POPC   C3B47853   8.537  31.189   6.888
 3627POPC   C4B47854   8.395  30.929   7.226
 3628POPC   NC347855   0.913  25.965   5.416
 3628POPC   PO447856   1.578  25.836   5.418
 3628POPC   GL147857   1.291  26.004   5.788
 3628POPC   GL247858   0.949  25.885   5.904
 3628POPC   C1A47859   1.304  26.041   6.264
 3628POPC   D2A47860   1.454  26.241   6.682
 3628POPC   C3A47861   1.397  26.123   7.118
 3628POPC   C4A47862   1.447  25.836   7.473
 3628POPC   C1B47863   0.830  25.605   6.218
 3628POPC   C2B47864   0.758  25.505   6.647
 3628POPC   C3B47865   0.916  25.744   7.022
 3628POPC   C4B47866   0.883  26.173   7.180
 3629POPC   NC347867   4.315  32.738   4.922
 3629POPC   PO447868   4.419  32.736   5.593
 3629POPC   GL147869   4.333  33.040   5.894
 3629POPC   GL247870   4.003  33.111   5.856
 3629POPC   C1A47871   4.319  33.129   6.316
 3629POPC   D2A47872   4.166  32.953   6.667
 3629POPC   C3A47873   4.447  33.025   7.005
 3629POPC   C4A47874   4.490  32.921   7.434
 3629POPC   C1B47875   3.820  33.273   6.241
 3629POPC   C2B47876   3.872  33.424   6.654
 3629POPC   C3B47877   3.969  33.240   7.033
 3629POPC   C4B47878   3.896  33.117   7.455
 3630POPC   NC347879  28.586  17.388   5.367
 3630POPC   PO447880  28.046  17.632   5.461
 3630POPC   GL147881  28.295  17.496   5.803
 3630POPC   GL247882  28.546  17.747   5.775
 3630POPC   C1A47883  28.413  17.295   6.203
 3630POPC   D2A47884  28.270  17.157   6.620
 3630POPC   C3A47885  28.424  17.300   7.029
 3630POPC   C4A47886  28.305  17.268   7.485
 3630POPC   C1B47887  28.278  17.851   6.158
 3630POPC   C2B47888  28.234  17.666   6.544
 3630POPC   C3B47889  28.227  17.776   6.956
 3630POPC   C4B47890  28.422  17.743   7.342
 3631POPC   NC347891  13.371  41.145   5.518
 3631POPC   PO447892  13.711  40.556   5.299
 3631POPC   GL147893  13.758  40.634   5.745
 3631POPC   GL247894  13.441  40.695   5.767
 3631POPC   C1A47895  13.738  40.626   6.237
 3631POPC   D2A47896  13.886  40.882   6.650
 3631POPC   C3A47897  13.792  40.749   7.088
 3631POPC   C4A47898  13.763  40.800   7.519
 3631POPC   C1B47899  13.320  40.899   6.137
 3631POPC   C2B47900  13.385  40.785   6.571
 3631POPC   C3B47901  13.378  40.986   6.938
 3631POPC   C4B47902  13.293  40.885   7.326
 3632POPC   NC347903  36.656   5.078   5.315
 3632POPC   PO447904  36.020   5.136   5.239
 3632POPC   GL147905  36.069   5.165   5.677
 3632POPC   GL247906  36.397   5.089   5.819
 3632POPC   C1A47907  35.975   5.220   6.138
 3632POPC   D2A47908  35.962   4.884   6.457
 3632POPC   C3A47909  36.036   4.959   6.889
 3632POPC   C4A47910  35.754   4.944   7.218
 3632POPC   C1B47911  36.466   5.360   6.227
 3632POPC   C2B47912  36.237   5.564   6.591
 3632POPC   C3B47913  36.124   5.451   7.028
 3632POPC   C4B47914  36.305   5.222   7.323
 3633POPC   NC347915  21.882  11.155   5.346
 3633POPC   PO447916  22.425  11.547   5.512
 3633POPC   GL147917  22.157  11.283   5.808
 3633POPC   GL247918  21.787  11.302   5.829
 3633POPC   C1A47919  22.094  11.114   6.233
 3633POPC   D2A47920  22.141  10.953   6.679
 3633POPC   C3A47921  22.296  11.014   7.135
 3633POPC   C4A47922  22.338  11.083   7.602
 3633POPC   C1B47923  21.642  11.371   6.246
 3633POPC   C2B47924  21.888  11.400   6.617
 3633POPC   C3B47925  21.865  11.246   7.014
 3633POPC   C4B47926  21.848  11.094   7.427
 3634POPC   NC347927  10.921  40.968   5.409
 3634POPC   PO447928  11.480  40.588   5.527
 3634POPC   GL147929  11.255  40.843   5.798
 3634POPC   GL247930  11.421  40.653   6.053
 3634POPC   C1A47931  10.976  40.928   6.158
 3634POPC   D2A47932  11.027  41.096   6.584
 3634POPC   C3A47933  10.892  40.843   6.970
 3634POPC   C4A47934  11.107  40.754   7.409
 3634POPC   C1B47935  11.493  41.043   6.254
 3634POPC   C2B47936  11.607  41.131   6.661
 3634POPC   C3B47937  11.379  40.971   7.012
 3634POPC   C4B47938  11.377  41.180   7.424
 3635POPC   NC347939   1.367  24.748   5.454
 3635POPC   PO447940   0.875  24.732   5.115
 3635POPC   GL147941   0.957  24.539   5.663
 3635POPC   GL247942   1.193  24.744   5.938
 3635POPC   C1A47943   1.056  24.277   6.061
 3635POPC   D2A47944   0.930  24.161   6.506
 3635POPC   C3A47945   0.989  24.487   6.822
 3635POPC   C4A47946   1.055  24.524   7.227
 3635POPC   C1B47947   1.158  24.664   6.380
 3635POPC   C2B47948   1.408  24.317   6.581
 3635POPC   C3B47949   1.494  24.355   6.982
 3635POPC   C4B47950   1.433  24.832   7.097
 3636POPC   NC347951  11.246  17.097   5.556
 3636POPC   PO447952  11.596  16.656   5.220
 3636POPC   GL147953  11.530  16.652   5.706
 3636POPC   GL247954  11.187  16.587   5.794
 3636POPC   C1A47955  11.555  16.740   6.201
 3636POPC   D2A47956  11.333  16.837   6.612
 3636POPC   C3A47957  11.502  16.621   6.984
 3636POPC   C4A47958  11.881  16.450   7.136
 3636POPC   C1B47959  11.073  16.578   6.237
 3636POPC   C2B47960  11.023  16.395   6.663
 3636POPC   C3B47961  11.066  16.395   7.141
 3636POPC   C4B47962  11.119  16.334   7.614
 3637POPC   NC347963  19.024  35.863   5.203
 3637POPC   PO447964  18.958  35.289   5.439
 3637POPC   GL147965  18.964  35.391   5.851
 3637POPC   GL247966  18.840  35.073   5.980
 3637POPC   C1A47967  19.119  35.435   6.252
 3637POPC   D2A47968  18.993  35.341   6.650
 3637POPC   C3A47969  19.271  35.386   6.977
 3637POPC   C4A47970  19.422  35.615   7.329
 3637POPC   C1B47971  19.181  34.927   6.222
 3637POPC   C2B47972  19.371  34.887   6.618
 3637POPC   C3B47973  19.254  34.899   7.043
 3637POPC   C4B47974  19.271  35.146   7.455
 3638POPC   NC347975   5.340  30.018   5.488
 3638POPC   PO447976   4.696  30.277   5.509
 3638POPC   GL147977   4.927  30.087   5.816
 3638POPC   GL247978   5.191  30.308   5.872
 3638POPC   C1A47979   5.034  29.803   6.167
 3638POPC   D2A47980   4.890  29.704   6.581
 3638POPC   C3A47981   5.201  29.575   6.860
 3638POPC   C4A47982   5.384  29.725   7.250
 3638POPC   C1B47983   5.029  30.289   6.281
 3638POPC   C2B47984   5.221  30.081   6.640
 3638POPC   C3B47985   5.050  30.048   7.043
 3638POPC   C4B47986   4.770  30.352   7.230
 3639POPC   NC347987  34.935  16.393   5.644
 3639POPC   PO447988  34.745  16.977   5.338
 3639POPC   GL147989  34.529  17.005   5.722
 3639POPC   GL247990  34.493  16.641   5.776
 3639POPC   C1A47991  34.651  17.041   6.152
 3639POPC   D2A47992  34.915  17.181   6.513
 3639POPC   C3A47993  34.822  17.028   6.886
 3639POPC   C4A47994  34.728  17.109   7.290
 3639POPC   C1B47995  34.439  16.540   6.196
 3639POPC   C2B47996  34.517  16.746   6.582
 3639POPC   C3B47997  34.430  16.743   7.019
 3639POPC   C4B47998  34.562  16.487   7.320
 3640POPC   NC347999  39.559  33.788   5.226
 3640POPC   PO448000  39.020  34.053   5.573
 3640POPC   GL148001  39.115  33.699   5.853
 3640POPC   GL248002  38.806  33.823   5.992
 3640POPC   C1A48003  39.082  33.550   6.297
 3640POPC   D2A48004  39.269  33.754   6.620
 3640POPC   C3A48005  39.071  33.772   6.992
 3640POPC   C4A48006  39.397  33.682   7.235
 3640POPC   C1B48007  39.071  34.116   6.273
 3640POPC   C2B48008  39.079  34.267   6.732
 3640POPC   C3B48009  39.051  34.248   7.203
 3640POPC   C4B48010  39.072  33.929   7.531
 3641POPC   NC348011   7.157  39.366   5.524
 3641POPC   PO448012   6.461  39.165   5.475
 3641POPC   GL148013   6.745  39.174   5.790
 3641POPC   GL248014   6.956  38.877   5.779
 3641POPC   C1A48015   6.722  39.390   6.168
 3641POPC   D2A48016   6.603  39.248   6.540
 3641POPC   C3A48017   6.585  39.528   6.881
 3641POPC   C4A48018   6.587  39.370   7.280
 3641POPC   C1B48019   6.776  38.839   6.193
 3641POPC   C2B48020   6.704  38.764   6.640
 3641POPC   C3B48021   6.889  39.071   6.941
 3641POPC   C4B48022   7.016  39.114   7.332
 3642POPC   NC348023  34.876  13.519   5.649
 3642POPC   PO448024  35.482  13.849   5.421
 3642POPC   GL148025  35.433  13.552   5.746
 3642POPC   GL248026  35.240  13.798   5.881
 3642POPC   C1A48027  35.433  13.378   6.184
 3642POPC   D2A48028  35.722  13.349   6.569
 3642POPC   C3A48029  35.546  13.265   7.000
 3642POPC   C4A48030  35.219  13.389   7.333
 3642POPC   C1B48031  35.510  13.937   6.136
 3642POPC   C2B48032  35.330  13.758   6.505
 3642POPC   C3B48033  35.259  13.687   6.928
 3642POPC   C4B48034  35.436  13.894   7.311
 3643POPC   NC348035  24.705  19.798   5.372
 3643POPC   PO448036  24.191  20.112   5.430
 3643POPC   GL148037  24.495  20.011   5.781
 3643POPC   GL248038  24.875  20.008   5.827
 3643POPC   C1A48039  24.508  19.959   6.204
 3643POPC   D2A48040  24.349  19.955   6.602
 3643POPC   C3A48041  24.349  19.554   6.786
 3643POPC   C4A48042  24.452  19.684   7.174
 3643POPC   C1B48043  25.002  19.816   6.237
 3643POPC   C2B48044  24.828  19.738   6.638
 3643POPC   C3B48045  24.950  19.808   7.067
 3643POPC   C4B48046  24.768  20.101   7.331
 3644POPC   NC348047  10.279  18.524   5.470
 3644POPC   PO448048  10.702  18.067   5.326
 3644POPC   GL148049  10.680  18.248   5.747
 3644POPC   GL248050  10.720  18.596   5.750
 3644POPC   C1A48051  10.492  18.186   6.175
 3644POPC   D2A48052  10.301  18.143   6.602
 3644POPC   C3A48053  10.533  18.303   6.939
 3644POPC   C4A48054  10.622  18.259   7.343
 3644POPC   C1B48055  10.468  18.696   6.102
 3644POPC   C2B48056  10.529  18.675   6.534
 3644POPC   C3B48057  10.195  18.644   6.791
 3644POPC   C4B48058  10.119  18.543   7.200
 3645POPC   NC348059  31.634   2.300   5.420
 3645POPC   PO448060  31.216   1.690   5.495
 3645POPC   GL148061  31.504   1.916   5.764
 3645POPC   GL248062  31.439   2.265   5.890
 3645POPC   C1A48063  31.623   1.862   6.198
 3645POPC   D2A48064  31.526   2.093   6.578
 3645POPC   C3A48065  31.470   2.022   7.037
 3645POPC   C4A48066  31.382   2.193   7.487
 3645POPC   C1B48067  31.783   2.374   6.173
 3645POPC   C2B48068  31.949   2.380   6.577
 3645POPC   C3B48069  31.960   2.099   6.918
 3645POPC   C4B48070  31.916   2.169   7.350
 3646POPC   NC348071  35.383   6.254   5.424
 3646POPC   PO448072  35.455   5.619   5.393
 3646POPC   GL148073  35.438   5.899   5.779
 3646POPC   GL248074  35.666   6.236   5.829
 3646POPC   C1A48075  35.265   5.782   6.159
 3646POPC   D2A48076  35.466   5.772   6.516
 3646POPC   C3A48077  35.260   5.653   6.846
 3646POPC   C4A48078  35.407   5.856   7.205
 3646POPC   C1B48079  35.497   6.234   6.230
 3646POPC   C2B48080  35.450   6.286   6.643
 3646POPC   C3B48081  35.646   6.287   7.018
 3646POPC   C4B48082  35.546   6.284   7.433
 3647POPC   NC348083   7.236   1.856   5.421
 3647POPC   PO448084   7.792   2.272   5.516
 3647POPC   GL148085   7.468   2.119   5.801
 3647POPC   GL248086   7.151   2.309   5.652
 3647POPC   C1A48087   7.448   1.881   6.233
 3647POPC   D2A48088   7.621   1.755   6.658
 3647POPC   C3A48089   7.408   1.960   6.997
 3647POPC   C4A48090   7.556   2.320   7.258
 3647POPC   C1B48091   7.037   2.182   6.069
 3647POPC   C2B48092   7.146   2.212   6.492
 3647POPC   C3B48093   6.951   2.159   6.866
 3647POPC   C4B48094   7.065   2.209   7.270
 3648POPC   NC348095  12.236   8.582   5.170
 3648POPC   PO448096  11.889   9.035   5.559
 3648POPC   GL148097  11.991   8.982   5.934
 3648POPC   GL248098  12.276   9.145   5.940
 3648POPC   C1A48099  11.924   8.827   6.312
 3648POPC   D2A48100  11.652   8.919   6.599
 3648POPC   C3A48101  11.798   8.889   6.974
 3648POPC   C4A48102  12.002   8.548   7.147
 3648POPC   C1B48103  12.362   9.069   6.358
 3648POPC   C2B48104  12.247   8.810   6.717
 3648POPC   C3B48105  12.259   9.046   7.102
 3648POPC   C4B48106  12.360   9.263   7.480
 3649POPC   NC348107   4.629  10.486   5.544
 3649POPC   PO448108   4.084  10.229   5.476
 3649POPC   GL148109   4.194  10.414   5.824
 3649POPC   GL248110   3.925  10.634   5.864
 3649POPC   C1A48111   4.326  10.516   6.239
 3649POPC   D2A48112   4.180  10.466   6.650
 3649POPC   C3A48113   4.514  10.515   6.922
 3649POPC   C4A48114   4.604  10.298   7.311
 3649POPC   C1B48115   3.987  10.899   6.242
 3649POPC   C2B48116   3.830  10.833   6.646
 3649POPC   C3B48117   4.058  10.914   6.990
 3649POPC   C4B48118   4.172  10.588   7.280
 3650POPC   NC348119  31.088   6.228   5.529
 3650POPC   PO448120  31.656   5.853   5.431
 3650POPC   GL148121  31.540   5.770   5.814
 3650POPC   GL248122  31.425   6.106   5.888
 3650POPC   C1A48123  31.719   5.816   6.204
 3650POPC   D2A48124  31.901   5.757   6.568
 3650POPC   C3A48125  31.608   5.896   6.808
 3650POPC   C4A48126  31.628   5.970   7.186
 3650POPC   C1B48127  31.217   5.915   6.228
 3650POPC   C2B48128  31.139   5.785   6.648
 3650POPC   C3B48129  31.108   6.021   7.057
 3650POPC   C4B48130  31.018   6.158   7.496
 3651POPC   NC348131  35.960  10.394   5.470
 3651POPC   PO448132  36.534  10.740   5.468
 3651POPC   GL148133  36.259  10.636   5.804
 3651POPC   GL248134  36.395  10.320   5.830
 3651POPC   C1A48135  36.001  10.414   6.157
 3651POPC   D2A48136  35.937  10.515   6.604
 3651POPC   C3A48137  36.035  10.275   7.001
 3651POPC   C4A48138  36.090  10.522   7.373
 3651POPC   C1B48139  36.500  10.435   6.305
 3651POPC   C2B48140  36.443  10.469   6.784
 3651POPC   C3B48141  36.554  10.662   7.210
 3651POPC   C4B48142  36.514  10.574   7.693
 3652POPC   NC348143  16.572  35.814   5.226
 3652POPC   PO448144  17.131  36.145   5.209
 3652POPC   GL148145  16.969  36.131   5.634
 3652POPC   GL248146  16.599  36.226   5.655
 3652POPC   C1A48147  16.889  36.083   6.079
 3652POPC   D2A48148  16.803  36.264   6.489
 3652POPC   C3A48149  16.776  35.929   6.794
 3652POPC   C4A48150  17.012  35.707   7.096
 3652POPC   C1B48151  16.487  36.406   6.076
 3652POPC   C2B48152  16.316  36.402   6.517
 3652POPC   C3B48153  16.488  36.321   6.934
 3652POPC   C4B48154  16.612  36.582   7.254
 3653POPC   NC348155  11.524  10.935   5.335
 3653POPC   PO448156  11.281  10.288   5.337
 3653POPC   GL148157  11.469  10.532   5.732
 3653POPC   GL248158  11.437  10.882   5.829
 3653POPC   C1A48159  11.576  10.549   6.207
 3653POPC   D2A48160  11.705  10.291   6.587
 3653POPC   C3A48161  11.388  10.291   6.918
 3653POPC   C4A48162  11.279  10.597   7.234
 3653POPC   C1B48163  11.230  10.972   6.223
 3653POPC   C2B48164  11.232  10.827   6.649
 3653POPC   C3B48165  11.130  11.026   7.015
 3653POPC   C4B48166  10.770  10.979   7.265
 3654POPC   NC348167  14.996  12.686   5.456
 3654POPC   PO448168  15.558  12.951   5.183
 3654POPC   GL148169  15.517  12.823   5.615
 3654POPC   GL248170  15.374  13.116   5.780
 3654POPC   C1A48171  15.534  12.656   6.044
 3654POPC   D2A48172  15.362  12.656   6.478
 3654POPC   C3A48173  15.141  12.605   6.875
 3654POPC   C4A48174  15.279  12.723   7.284
 3654POPC   C1B48175  15.105  12.932   6.115
 3654POPC   C2B48176  15.007  13.015   6.551
 3654POPC   C3B48177  15.146  13.112   6.969
 3654POPC   C4B48178  14.900  13.311   7.251
 3655POPC   NC348179  43.488   0.250   5.308
 3655POPC   PO448180  44.094   0.643   5.363
 3655POPC   GL148181  43.943   0.419   5.745
 3655POPC   GL248182  43.566   0.324   5.808
 3655POPC   C1A48183  44.074   0.425   6.187
 3655POPC   D2A48184  44.194   0.689   6.548
 3655POPC   C3A48185  43.990   0.542   6.908
 3655POPC   C4A48186  44.062   0.716   7.303
 3655POPC   C1B48187  43.524   0.520   6.229
 3655POPC   C2B48188  43.647   0.796   6.601
 3655POPC   C3B48189  43.590   0.819   7.073
 3655POPC   C4B48190  43.622   0.528   7.444
 3656POPC   NC348191  16.498  41.623   5.501
 3656POPC   PO448192  16.915  41.253   5.097
 3656POPC   GL148193  17.017  41.501   5.575
 3656POPC   GL248194  16.883  41.849   5.706
 3656POPC   C1A48195  17.019  41.518   6.081
 3656POPC   D2A48196  17.021  41.391   6.543
 3656POPC   C3A48197  16.877  41.597   6.903
 3656POPC   C4A48198  16.562  41.681   7.173
 3656POPC   C1B48199  16.628  41.845   6.132
 3656POPC   C2B48200  16.533  41.764   6.584
 3656POPC   C3B48201  16.226  41.942   6.867
 3656POPC   C4B48202  16.095  41.989   7.248
 3657POPC   NC348203  34.961  33.732   5.274
 3657POPC   PO448204  35.611  33.569   5.596
 3657POPC   GL148205  35.285  33.808   5.830
 3657POPC   GL248206  35.365  33.544   6.080
 3657POPC   C1A48207  35.152  33.934   6.275
 3657POPC   D2A48208  35.435  33.841   6.608
 3657POPC   C3A48209  35.253  33.711   6.987
 3657POPC   C4A48210  34.993  33.976   7.230
 3657POPC   C1B48211  35.750  33.549   6.293
 3657POPC   C2B48212  35.776  33.476   6.719
 3657POPC   C3B48213  35.756  33.751   7.067
 3657POPC   C4B48214  35.756  33.595   7.497
 3658POPC   NC348215  28.987   0.189   5.385
 3658POPC   PO448216  29.339   0.749   5.531
 3658POPC   GL148217  29.230   0.416   5.801
 3658POPC   GL248218  28.922   0.585   5.848
 3658POPC   C1A48219  29.233   0.384   6.245
 3658POPC   D2A48220  29.269   0.166   6.621
 3658POPC   C3A48221  29.288   0.407   6.984
 3658POPC   C4A48222  29.071   0.314   7.366
 3658POPC   C1B48223  28.785   0.624   6.298
 3658POPC   C2B48224  28.860   0.561   6.746
 3658POPC   C3B48225  28.953   0.762   7.159
 3658POPC   C4B48226  28.804   0.695   7.613
 3659POPC   NC348227  18.069  18.309   5.510
 3659POPC   PO448228  18.705  18.036   5.487
 3659POPC   GL148229  18.455  18.158   5.813
 3659POPC   GL248230  18.168  17.936   5.842
 3659POPC   C1A48231  18.435  18.352   6.192
 3659POPC   D2A48232  18.246  18.429   6.586
 3659POPC   C3A48233  18.518  18.471   6.936
 3659POPC   C4A48234  18.556  18.321   7.340
 3659POPC   C1B48235  17.978  18.088   6.246
 3659POPC   C2B48236  17.858  18.118   6.711
 3659POPC   C3B48237  17.993  18.400   7.068
 3659POPC   C4B48238  17.815  18.482   7.486
 3660POPC   NC348239  37.063  30.599   5.304
 3660POPC   PO448240  36.430  30.388   5.459
 3660POPC   GL148241  36.693  30.682   5.731
 3660POPC   GL248242  37.027  30.545   5.803
 3660POPC   C1A48243  36.882  30.969   6.097
 3660POPC   D2A48244  36.847  31.197   6.526
 3660POPC   C3A48245  36.693  30.994   6.943
 3660POPC   C4A48246  36.815  30.865   7.383
 3660POPC   C1B48247  36.775  30.475   6.194
 3660POPC   C2B48248  36.838  30.671   6.578
 3660POPC   C3B48249  37.034  30.614   6.978
 3660POPC   C4B48250  36.983  30.399   7.363
 3661POPC   NC348251  21.307  29.542   5.327
 3661POPC   PO448252  21.168  28.851   5.346
 3661POPC   GL148253  21.340  29.058   5.746
 3661POPC   GL248254  21.477  29.405   5.796
 3661POPC   C1A48255  21.558  28.996   6.167
 3661POPC   D2A48256  21.585  28.765   6.556
 3661POPC   C3A48257  21.536  29.007   6.947
 3661POPC   C4A48258  21.337  29.009   7.363
 3661POPC   C1B48259  21.772  29.450   6.125
 3661POPC   C2B48260  21.697  29.327   6.542
 3661POPC   C3B48261  21.848  29.413   6.931
 3661POPC   C4B48262  21.730  29.339   7.332
 3662POPC   NC348263   6.916   2.468   4.989
 3662POPC   PO448264   6.470   2.759   5.396
 3662POPC   GL148265   6.672   2.760   5.768
 3662POPC   GL248266   6.385   2.968   5.877
 3662POPC   C1A48267   6.695   2.681   6.185
 3662POPC   D2A48268   6.622   2.828   6.586
 3662POPC   C3A48269   6.815   2.639   6.898
 3662POPC   C4A48270   6.673   2.516   7.288
 3662POPC   C1B48271   6.195   3.038   6.273
 3662POPC   C2B48272   6.198   3.064   6.711
 3662POPC   C3B48273   6.437   2.922   7.063
 3662POPC   C4B48274   6.533   2.955   7.500
 3663POPC   NC348275   9.208  19.728   5.465
 3663POPC   PO448276   8.747  20.127   5.423
 3663POPC   GL148277   8.978  19.973   5.854
 3663POPC   GL248278   9.107  19.620   5.955
 3663POPC   C1A48279   8.910  19.912   6.318
 3663POPC   D2A48280   8.602  20.020   6.650
 3663POPC   C3A48281   8.716  19.823   7.054
 3663POPC   C4A48282   9.083  19.876   7.289
 3663POPC   C1B48283   9.250  19.525   6.411
 3663POPC   C2B48284   9.131  19.550   6.866
 3663POPC   C3B48285   9.011  19.373   7.275
 3663POPC   C4B48286   8.920  18.983   7.527
 3664POPC   NC348287  30.264  28.572   5.410
 3664POPC   PO448288  29.629  28.288   5.399
 3664POPC   GL148289  29.896  28.383   5.742
 3664POPC   GL248290  29.791  28.708   5.803
 3664POPC   C1A48291  30.099  28.498   6.141
 3664POPC   D2A48292  30.068  28.631   6.554
 3664POPC   C3A48293  30.120  28.360   6.879
 3664POPC   C4A48294  30.191  28.509   7.268
 3664POPC   C1B48295  29.710  28.881   6.219
 3664POPC   C2B48296  29.574  28.741   6.645
 3664POPC   C3B48297  29.698  28.609   7.032
 3664POPC   C4B48298  29.691  28.814   7.419
 3665POPC   NC348299  15.157  36.511   5.474
 3665POPC   PO448300  14.905  37.132   5.329
 3665POPC   GL148301  15.049  37.083   5.768
 3665POPC   GL248302  15.368  36.881   5.826
 3665POPC   C1A48303  14.975  36.857   6.187
 3665POPC   D2A48304  14.781  36.679   6.569
 3665POPC   C3A48305  14.973  36.867   6.906
 3665POPC   C4A48306  15.275  37.121   7.213
 3665POPC   C1B48307  15.516  36.658   6.219
 3665POPC   C2B48308  15.320  36.562   6.626
 3665POPC   C3B48309  15.365  36.626   7.084
 3665POPC   C4B48310  15.014  36.705   7.411
 3666POPC   NC348311  15.452   3.884   5.473
 3666POPC   PO448312  15.055   3.391   5.454
 3666POPC   GL148313  15.324   3.462   5.805
 3666POPC   GL248314  15.037   3.637   5.930
 3666POPC   C1A48315  15.615   3.316   6.152
 3666POPC   D2A48316  15.638   3.144   6.598
 3666POPC   C3A48317  15.688   3.479   6.924
 3666POPC   C4A48318  15.433   3.756   7.185
 3666POPC   C1B48319  15.019   3.796   6.335
 3666POPC   C2B48320  15.132   3.794   6.758
 3666POPC   C3B48321  14.868   3.766   7.071
 3666POPC   C4B48322  14.576   3.614   7.336
 3667POPC   NC348323  12.319  28.992   5.480
 3667POPC   PO448324  12.956  28.923   5.352
 3667POPC   GL148325  12.845  29.211   5.713
 3667POPC   GL248326  12.570  29.458   5.814
 3667POPC   C1A48327  12.688  29.076   6.115
 3667POPC   D2A48328  12.763  29.209   6.505
 3667POPC   C3A48329  12.774  29.027   6.890
 3667POPC   C4A48330  13.054  29.101   7.227
 3667POPC   C1B48331  12.458  29.615   6.213
 3667POPC   C2B48332  12.373  29.480   6.652
 3667POPC   C3B48333  12.577  29.490   7.063
 3667POPC   C4B48334  12.309  29.468   7.439
 3668POPC   NC348335  40.253  43.497   5.218
 3668POPC   PO448336  39.928  43.796   5.742
 3668POPC   GL148337  40.005  43.512   6.019
 3668POPC   GL248338  40.264  43.373   5.766
 3668POPC   C1A48339  39.965  43.727   6.433
 3668POPC   D2A48340  40.019  44.182   6.561
 3668POPC   C3A48341  39.955  44.202   6.994
 3668POPC   C4A48342  39.800  43.780   7.064
 3668POPC   C1B48343  40.473  43.341   6.187
 3668POPC   C2B48344  40.337  43.423   6.623
 3668POPC   C3B48345  40.267  43.810   6.858
 3668POPC   C4B48346  40.382  43.941   7.290
 3669POPC   NC348347  23.511  40.588   4.944
 3669POPC   PO448348  23.750  41.116   5.267
 3669POPC   GL148349  23.913  40.942   5.718
 3669POPC   GL248350  23.732  41.128   5.964
 3669POPC   C1A48351  23.999  40.700   6.147
 3669POPC   D2A48352  23.837  40.701   6.604
 3669POPC   C3A48353  23.624  40.724   7.039
 3669POPC   C4A48354  23.814  40.687   7.484
 3669POPC   C1B48355  23.938  41.202   6.359
 3669POPC   C2B48356  23.890  41.198   6.818
 3669POPC   C3B48357  23.808  41.142   7.244
 3669POPC   C4B48358  23.422  41.036   7.452
 3670POPC   NC348359  38.694  14.613   5.302
 3670POPC   PO448360  38.084  14.429   5.383
 3670POPC   GL148361  38.416  14.368   5.738
 3670POPC   GL248362  38.748  14.539   5.784
 3670POPC   C1A48363  38.518  14.237   6.151
 3670POPC   D2A48364  38.325  14.019   6.501
 3670POPC   C3A48365  38.389  14.272   6.892
 3670POPC   C4A48366  38.263  14.193   7.323
 3670POPC   C1B48367  38.852  14.640   6.158
 3670POPC   C2B48368  38.674  14.534   6.547
 3670POPC   C3B48369  38.704  14.768   6.912
 3670POPC   C4B48370  38.781  14.702   7.340
 3671POPC   NC348371  12.964  17.092   5.568
 3671POPC   PO448372  13.159  16.451   5.563
 3671POPC   GL148373  12.781  16.636   5.788
 3671POPC   GL248374  12.492  16.862   5.644
 3671POPC   C1A48375  12.905  16.785   6.200
 3671POPC   D2A48376  12.941  16.579   6.578
 3671POPC   C3A48377  12.802  16.712   6.952
 3671POPC   C4A48378  12.932  16.595   7.331
 3671POPC   C1B48379  12.451  16.972   6.080
 3671POPC   C2B48380  12.534  16.951   6.546
 3671POPC   C3B48381  12.610  17.175   6.982
 3671POPC   C4B48382  13.016  17.088   7.239
 3672POPC   NC348383  15.957  34.757   5.502
 3672POPC   PO448384  16.186  34.207   5.210
 3672POPC   GL148385  16.067  34.281   5.684
 3672POPC   GL248386  15.740  34.438   5.811
 3672POPC   C1A48387  16.141  34.359   6.148
 3672POPC   D2A48388  15.968  34.354   6.582
 3672POPC   C3A48389  15.665  34.520   6.872
 3672POPC   C4A48390  15.897  34.348   7.198
 3672POPC   C1B48391  15.741  34.694   6.170
 3672POPC   C2B48392  15.895  34.859   6.549
 3672POPC   C3B48393  16.144  34.727   6.901
 3672POPC   C4B48394  16.170  34.948   7.272
 3673POPC   NC348395  28.836  41.357   5.504
 3673POPC   PO448396  29.472  41.717   5.417
 3673POPC   GL148397  29.209  41.623   5.714
 3673POPC   GL248398  29.297  41.286   5.790
 3673POPC   C1A48399  29.101  41.708   6.116
 3673POPC   D2A48400  29.246  41.637   6.506
 3673POPC   C3A48401  29.198  41.831   6.861
 3673POPC   C4A48402  29.104  41.861   7.269
 3673POPC   C1B48403  29.122  41.194   6.200
 3673POPC   C2B48404  29.238  41.145   6.629
 3673POPC   C3B48405  29.117  41.342   7.011
 3673POPC   C4B48406  28.850  41.399   7.370
 3674POPC   NC348407  43.271  20.888   5.517
 3674POPC   PO448408  43.119  20.249   5.317
 3674POPC   GL148409  43.188  20.424   5.765
 3674POPC   GL248410  42.922  20.682   5.834
 3674POPC   C1A48411  43.252  20.315   6.229
 3674POPC   D2A48412  43.069  20.112   6.596
 3674POPC   C3A48413  43.068  20.317   6.985
 3674POPC   C4A48414  42.727  20.484   7.199
 3674POPC   C1B48415  43.229  20.808   6.164
 3674POPC   C2B48416  43.210  20.684   6.613
 3674POPC   C3B48417  43.257  20.870   6.995
 3674POPC   C4B48418  42.999  20.925   7.303
 3675POPC   NC348419  11.988   9.326   5.212
 3675POPC   PO448420  12.197   9.923   5.500
 3675POPC   GL148421  11.924   9.819   5.799
 3675POPC   GL248422  11.902   9.481   5.785
 3675POPC   C1A48423  11.888   9.970   6.217
 3675POPC   D2A48424  11.897   9.765   6.600
 3675POPC   C3A48425  11.881   9.980   6.981
 3675POPC   C4A48426  12.148  10.129   7.311
 3675POPC   C1B48427  11.916   9.355   6.242
 3675POPC   C2B48428  12.004   9.263   6.660
 3675POPC   C3B48429  11.871   9.396   7.034
 3675POPC   C4B48430  12.019   9.634   7.353
 3676POPC   NC348431  28.824   5.693   5.651
 3676POPC   PO448432  28.344   6.017   5.329
 3676POPC   GL148433  28.345   5.918   5.783
 3676POPC   GL248434  28.063   5.709   5.802
 3676POPC   C1A48435  28.463   5.759   6.217
 3676POPC   D2A48436  28.638   5.524   6.595
 3676POPC   C3A48437  28.508   5.732   6.997
 3676POPC   C4A48438  28.681   6.109   7.257
 3676POPC   C1B48439  27.930   5.845   6.207
 3676POPC   C2B48440  28.019   5.675   6.630
 3676POPC   C3B48441  28.012   5.697   7.096
 3676POPC   C4B48442  28.187   6.008   7.398
 3677POPC   NC348443   1.825   8.234   5.219
 3677POPC   PO448444   2.206   7.819   5.708
 3677POPC   GL148445   2.041   8.216   5.860
 3677POPC   GL248446   1.721   8.308   5.712
 3677POPC   C1A48447   2.163   8.391   6.244
 3677POPC   D2A48448   1.983   8.383   6.648
 3677POPC   C3A48449   2.176   8.344   7.034
 3677POPC   C4A48450   2.227   8.005   7.271
 3677POPC   C1B48451   1.595   8.209   6.142
 3677POPC   C2B48452   1.485   8.208   6.591
 3677POPC   C3B48453   1.650   8.212   7.025
 3677POPC   C4B48454   1.750   8.139   7.454
 3678POPC   NC348455  17.849  13.059   5.390
 3678POPC   PO448456  17.953  12.293   5.286
 3678POPC   GL148457  17.821  12.460   5.768
 3678POPC   GL248458  17.989  12.770   5.779
 3678POPC   C1A48459  17.523  12.666   6.133
 3678POPC   D2A48460  17.177  12.580   6.497
 3678POPC   C3A48461  17.181  12.636   6.983
 3678POPC   C4A48462  17.371  12.977   7.229
 3678POPC   C1B48463  17.865  13.046   6.094
 3678POPC   C2B48464  17.629  13.033   6.469
 3678POPC   C3B48465  17.651  12.834   6.842
 3678POPC   C4B48466  17.853  12.859   7.218
 3679POPC   NC348467   4.519   3.469   5.511
 3679POPC   PO448468   3.903   3.569   5.423
 3679POPC   GL148469   4.130   3.627   5.803
 3679POPC   GL248470   4.371   3.903   5.738
 3679POPC   C1A48471   4.282   3.342   6.147
 3679POPC   D2A48472   4.388   3.492   6.570
 3679POPC   C3A48473   4.448   3.234   6.922
 3679POPC   C4A48474   4.404   3.483   7.278
 3679POPC   C1B48475   4.387   3.882   6.194
 3679POPC   C2B48476   4.103   3.948   6.552
 3679POPC   C3B48477   4.153   3.849   6.984
 3679POPC   C4B48478   4.521   3.992   7.183
 3680POPC   NC348479  40.960  36.361   5.334
 3680POPC   PO448480  40.453  35.964   5.583
 3680POPC   GL148481  40.779  36.126   5.784
 3680POPC   GL248482  41.021  35.941   5.641
 3680POPC   C1A48483  40.855  36.305   6.175
 3680POPC   D2A48484  40.657  36.397   6.527
 3680POPC   C3A48485  40.830  36.174   6.882
 3680POPC   C4A48486  40.783  36.432   7.287
 3680POPC   C1B48487  41.136  35.885   6.099
 3680POPC   C2B48488  41.043  35.778   6.556
 3680POPC   C3B48489  41.183  35.741   7.001
 3680POPC   C4B48490  41.132  36.079   7.285
 3681POPC   NC348491  24.585  34.185   5.456
 3681POPC   PO448492  24.144  34.754   5.271
 3681POPC   GL148493  24.253  34.574   5.694
 3681POPC   GL248494  24.598  34.605   5.796
 3681POPC   C1A48495  24.241  34.586   6.171
 3681POPC   D2A48496  24.320  34.875   6.515
 3681POPC   C3A48497  24.376  34.699   6.903
 3681POPC   C4A48498  24.251  34.244   6.954
 3681POPC   C1B48499  24.750  34.451   6.205
 3681POPC   C2B48500  24.664  34.325   6.642
 3681POPC   C3B48501  24.743  34.380   7.090
 3681POPC   C4B48502  24.753  34.767   7.285
 3682POPC   NC348503  36.389   2.873   5.437
 3682POPC   PO448504  35.781   2.938   5.689
 3682POPC   GL148505  36.133   2.982   5.957
 3682POPC   GL248506  36.520   3.053   5.907
 3682POPC   C1A48507  36.051   2.976   6.392
 3682POPC   D2A48508  35.768   2.839   6.716
 3682POPC   C3A48509  35.883   3.039   7.103
 3682POPC   C4A48510  36.056   2.821   7.479
 3682POPC   C1B48511  36.451   2.655   6.172
 3682POPC   C2B48512  36.479   2.575   6.619
 3682POPC   C3B48513  36.354   2.737   7.027
 3682POPC   C4B48514  36.368   3.125   7.232
 3683POPC   NC348515   6.117   5.511   5.368
 3683POPC   PO448516   5.709   4.982   5.155
 3683POPC   GL148517   5.862   5.090   5.622
 3683POPC   GL248518   6.018   5.348   5.817
 3683POPC   C1A48519   5.905   4.940   6.079
 3683POPC   D2A48520   5.758   4.895   6.516
 3683POPC   C3A48521   6.069   4.925   6.836
 3683POPC   C4A48522   6.104   4.971   7.264
 3683POPC   C1B48523   5.832   5.455   6.179
 3683POPC   C2B48524   6.005   5.361   6.559
 3683POPC   C3B48525   5.997   5.420   6.998
 3683POPC   C4B48526   6.343   5.458   7.223
 3684POPC   NC348527  43.436  14.840   5.457
 3684POPC   PO448528  42.924  15.324   5.364
 3684POPC   GL148529  42.973  15.228   5.778
 3684POPC   GL248530  43.318  15.125   5.870
 3684POPC   C1A48531  42.923  15.195   6.220
 3684POPC   D2A48532  42.936  14.983   6.621
 3684POPC   C3A48533  42.938  15.270   6.978
 3684POPC   C4A48534  43.116  15.578   7.260
 3684POPC   C1B48535  43.292  14.795   6.225
 3684POPC   C2B48536  43.355  14.724   6.682
 3684POPC   C3B48537  43.453  15.102   6.929
 3684POPC   C4B48538  43.381  15.166   7.355
 3685POPC   NC348539  28.612  40.699   5.415
 3685POPC   PO448540  27.872  40.601   5.567
 3685POPC   GL148541  28.132  40.841   5.837
 3685POPC   GL248542  28.484  40.750   5.890
 3685POPC   C1A48543  28.160  40.740   6.258
 3685POPC   D2A48544  28.354  40.628   6.621
 3685POPC   C3A48545  28.158  40.819   6.967
 3685POPC   C4A48546  28.158  40.650   7.364
 3685POPC   C1B48547  28.639  41.008   6.221
 3685POPC   C2B48548  28.784  40.913   6.655
 3685POPC   C3B48549  28.656  40.709   7.027
 3685POPC   C4B48550  28.591  40.957   7.357
 3686POPC   NC348551  16.427  33.784   5.282
 3686POPC   PO448552  17.071  33.810   5.392
 3686POPC   GL148553  16.749  33.726   5.731
 3686POPC   GL248554  16.509  34.016   5.782
 3686POPC   C1A48555  16.572  33.682   6.180
 3686POPC   D2A48556  16.672  33.876   6.621
 3686POPC   C3A48557  16.781  33.703   7.021
 3686POPC   C4A48558  17.153  33.540   7.242
 3686POPC   C1B48559  16.629  34.188   6.210
 3686POPC   C2B48560  16.499  34.364   6.610
 3686POPC   C3B48561  16.346  34.154   6.957
 3686POPC   C4B48562  16.520  34.026   7.373
 3687POPC   NC348563   1.787  38.936   5.332
 3687POPC   PO448564   2.272  38.498   5.418
 3687POPC   GL148565   1.958  38.530   5.731
 3687POPC   GL248566   1.926  38.191   5.790
 3687POPC   C1A48567   1.976  38.610   6.193
 3687POPC   D2A48568   1.885  38.830   6.576
 3687POPC   C3A48569   1.972  38.562   6.916
 3687POPC   C4A48570   2.084  38.447   7.334
 3687POPC   C1B48571   2.168  38.102   6.150
 3687POPC   C2B48572   2.136  38.258   6.549
 3687POPC   C3B48573   2.215  38.099   6.950
 3687POPC   C4B48574   2.468  38.120   7.312
 3688POPC   NC348575  29.466  23.907   5.415
 3688POPC   PO448576  28.948  23.525   5.552
 3688POPC   GL148577  29.126  23.807   5.818
 3688POPC   GL248578  29.458  23.735   5.910
 3688POPC   C1A48579  29.015  23.865   6.215
 3688POPC   D2A48580  28.943  23.629   6.570
 3688POPC   C3A48581  28.923  23.807   6.975
 3688POPC   C4A48582  29.108  23.705   7.382
 3688POPC   C1B48583  29.501  23.993   6.276
 3688POPC   C2B48584  29.563  23.818   6.666
 3688POPC   C3B48585  29.469  23.857   7.062
 3688POPC   C4B48586  29.682  23.825   7.452
 3689POPC   NC348587   3.797  29.710   5.297
 3689POPC   PO448588   3.336  30.189   5.352
 3689POPC   GL148589   3.512  30.032   5.749
 3689POPC   GL248590   3.670  29.703   5.775
 3689POPC   C1A48591   3.704  30.188   6.115
 3689POPC   D2A48592   3.893  29.982   6.423
 3689POPC   C3A48593   3.697  30.053   6.811
 3689POPC   C4A48594   3.850  29.908   7.182
 3689POPC   C1B48595   3.442  29.720   6.140
 3689POPC   C2B48596   3.538  29.616   6.540
 3689POPC   C3B48597   3.338  29.662   6.895
 3689POPC   C4B48598   3.371  29.718   7.298
 3690POPC   NC348599  14.605   3.357   5.405
 3690POPC   PO448600  14.142   3.747   5.650
 3690POPC   GL148601  14.198   3.410   5.877
 3690POPC   GL248602  14.544   3.462   5.916
 3690POPC   C1A48603  14.186   3.316   6.324
 3690POPC   D2A48604  14.293   3.076   6.697
 3690POPC   C3A48605  14.242   3.365   7.034
 3690POPC   C4A48606  14.106   3.454   7.445
 3690POPC   C1B48607  14.703   3.362   6.321
 3690POPC   C2B48608  14.713   3.376   6.774
 3690POPC   C3B48609  14.702   3.135   7.133
 3690POPC   C4B48610  14.550   3.124   7.571
 3691POPC   NC348611   8.595  36.066   5.264
 3691POPC   PO448612   8.032  35.729   5.475
 3691POPC   GL148613   8.122  36.107   5.770
 3691POPC   GL248614   7.894  36.157   6.051
 3691POPC   C1A48615   8.281  36.458   6.070
 3691POPC   D2A48616   8.218  36.453   6.517
 3691POPC   C3A48617   8.535  36.368   6.829
 3691POPC   C4A48618   8.426  36.253   7.238
 3691POPC   C1B48619   8.305  35.978   6.230
 3691POPC   C2B48620   8.391  35.894   6.636
 3691POPC   C3B48621   8.088  36.046   6.901
 3691POPC   C4B48622   7.928  35.824   7.236
 3692POPC   NC348623   6.320   1.456   5.421
 3692POPC   PO448624   6.852   1.074   5.451
 3692POPC   GL148625   6.935   0.953   5.863
 3692POPC   GL248626   6.608   1.019   5.895
 3692POPC   C1A48627   6.865   1.074   6.320
 3692POPC   D2A48628   6.611   0.962   6.685
 3692POPC   C3A48629   6.830   1.068   7.081
 3692POPC   C4A48630   6.705   1.399   7.347
 3692POPC   C1B48631   6.518   1.403   6.123
 3692POPC   C2B48632   6.626   1.499   6.557
 3692POPC   C3B48633   6.413   1.383   6.936
 3692POPC   C4B48634   6.237   1.595   7.280
 3693POPC   NC348635  42.889   0.275   5.339
 3693POPC   PO448636  43.354   0.680   5.499
 3693POPC   GL148637  43.039   0.507   5.789
 3693POPC   GL248638  42.780   0.231   5.823
 3693POPC   C1A48639  42.910   0.508   6.213
 3693POPC   D2A48640  43.129   0.296   6.537
 3693POPC   C3A48641  43.024   0.539   6.893
 3693POPC   C4A48642  43.151   0.666   7.303
 3693POPC   C1B48643  42.856  44.984   6.161
 3693POPC   C2B48644  42.819  44.814   6.543
 3693POPC   C3B48645  42.874   0.009   6.901
 3693POPC   C4B48646  42.837   0.259   7.260
 3694POPC   NC348647  35.653   3.339   5.506
 3694POPC   PO448648  35.235   3.772   5.362
 3694POPC   GL148649  35.190   3.695   5.777
 3694POPC   GL248650  35.492   3.887   5.851
 3694POPC   C1A48651  35.208   3.350   6.081
 3694POPC   D2A48652  35.466   3.231   6.438
 3694POPC   C3A48653  35.277   3.418   6.792
 3694POPC   C4A48654  35.339   3.370   7.230
 3694POPC   C1B48655  35.312   3.838   6.263
 3694POPC   C2B48656  35.505   3.918   6.651
 3694POPC   C3B48657  35.400   3.872   7.066
 3694POPC   C4B48658  35.163   3.806   7.409
 3695POPC   NC348659  44.129  42.858   5.465
 3695POPC   PO448660  43.533  43.219   5.416
 3695POPC   GL148661  43.791  43.113   5.760
 3695POPC   GL248662  43.670  42.777   5.812
 3695POPC   C1A48663  43.997  43.291   6.137
 3695POPC   D2A48664  44.187  43.426   6.551
 3695POPC   C3A48665  44.181  43.180   6.935
 3695POPC   C4A48666  44.048  43.386   7.288
 3695POPC   C1B48667  43.572  42.987   6.212
 3695POPC   C2B48668  43.785  43.093   6.588
 3695POPC   C3B48669  43.758  42.923   6.991
 3695POPC   C4B48670  43.575  43.210   7.242
 3696POPC   NC348671  22.718   6.720   5.127
 3696POPC   PO448672  23.263   6.389   5.408
 3696POPC   GL148673  23.019   6.610   5.784
 3696POPC   GL248674  22.643   6.509   5.977
 3696POPC   C1A48675  22.947   6.825   6.183
 3696POPC   D2A48676  22.682   6.704   6.487
 3696POPC   C3A48677  22.787   6.830   6.895
 3696POPC   C4A48678  22.645   6.759   7.282
 3696POPC   C1B48679  22.953   6.306   6.268
 3696POPC   C2B48680  23.008   6.118   6.686
 3696POPC   C3B48681  22.788   6.341   7.025
 3696POPC   C4B48682  22.872   6.338   7.478
 3697POPC   NC348683  39.286  15.235   5.293
 3697POPC   PO448684  39.909  15.239   5.396
 3697POPC   GL148685  39.486  15.195   5.745
 3697POPC   GL248686  39.187  14.907   5.683
 3697POPC   C1A48687  39.382  14.936   6.174
 3697POPC   D2A48688  39.409  15.040   6.639
 3697POPC   C3A48689  39.393  15.367   6.968
 3697POPC   C4A48690  39.242  15.239   7.384
 3697POPC   C1B48691  38.953  15.125   6.009
 3697POPC   C2B48692  38.911  15.035   6.468
 3697POPC   C3B48693  38.909  15.248   6.852
 3697POPC   C4B48694  38.724  15.214   7.236
 3698POPC   NC348695  41.229  23.263   5.317
 3698POPC   PO448696  41.663  23.812   5.107
 3698POPC   GL148697  41.468  23.752   5.571
 3698POPC   GL248698  41.600  23.482   5.732
 3698POPC   C1A48699  41.409  23.845   6.055
 3698POPC   D2A48700  41.676  23.780   6.452
 3698POPC   C3A48701  41.576  23.780   6.914
 3698POPC   C4A48702  41.475  24.026   7.305
 3698POPC   C1B48703  41.903  23.484   6.086
 3698POPC   C2B48704  41.887  23.285   6.502
 3698POPC   C3B48705  41.816  23.324   6.935
 3698POPC   C4B48706  41.933  23.631   7.270
 3699POPC   NC348707  10.039  22.609   5.511
 3699POPC   PO448708   9.513  23.095   5.440
 3699POPC   GL148709   9.740  23.001   5.843
 3699POPC   GL248710   9.588  23.208   6.114
 3699POPC   C1A48711   9.909  22.785   6.221
 3699POPC   D2A48712   9.952  22.859   6.654
 3699POPC   C3A48713  10.073  22.583   6.964
 3699POPC   C4A48714   9.825  22.613   7.336
 3699POPC   C1B48715  10.016  23.310   6.232
 3699POPC   C2B48716  10.205  23.289   6.662
 3699POPC   C3B48717   9.840  23.334   6.977
 3699POPC   C4B48718   9.692  23.263   7.420
 3700POPC   NC348719  37.306  22.266   5.431
 3700POPC   PO448720  36.668  22.069   5.296
 3700POPC   GL148721  36.847  22.231   5.718
 3700POPC   GL248722  37.157  22.406   5.901
 3700POPC   C1A48723  36.802  22.147   6.157
 3700POPC   D2A48724  37.007  22.144   6.534
 3700POPC   C3A48725  36.693  22.089   6.888
 3700POPC   C4A48726  36.733  21.913   7.320
 3700POPC   C1B48727  37.290  22.592   6.294
 3700POPC   C2B48728  37.236  22.567   6.744
 3700POPC   C3B48729  37.180  22.200   7.005
 3700POPC   C4B48730  37.072  22.333   7.349
 3701POPC   NC348731  17.175  24.106   5.425
 3701POPC   PO448732  17.465  23.566   5.105
 3701POPC   GL148733  17.475  23.666   5.589
 3701POPC   GL248734  17.202  23.530   5.792
 3701POPC   C1A48735  17.704  23.750   6.011
 3701POPC   D2A48736  17.726  23.918   6.464
 3701POPC   C3A48737  17.697  23.810   6.912
 3701POPC   C4A48738  17.757  23.366   7.045
 3701POPC   C1B48739  17.309  23.517   6.240
 3701POPC   C2B48740  17.392  23.491   6.676
 3701POPC   C3B48741  17.211  23.693   7.049
 3701POPC   C4B48742  16.875  24.017   7.073
 3702POPC   NC348743  32.193  36.795   5.427
 3702POPC   PO448744  32.689  37.168   5.502
 3702POPC   GL148745  32.388  36.964   5.858
 3702POPC   GL248746  31.994  37.062   5.825
 3702POPC   C1A48747  32.373  36.577   6.130
 3702POPC   D2A48748  32.430  36.353   6.530
 3702POPC   C3A48749  32.280  36.570   6.922
 3702POPC   C4A48750  32.135  36.846   7.252
 3702POPC   C1B48751  32.002  36.918   6.265
 3702POPC   C2B48752  32.101  37.033   6.719
 3702POPC   C3B48753  31.831  37.190   7.054
 3702POPC   C4B48754  31.922  37.223   7.544
 3703POPC   NC348755   7.925  22.304   5.399
 3703POPC   PO448756   7.326  21.976   5.399
 3703POPC   GL148757   7.498  22.235   5.683
 3703POPC   GL248758   7.664  21.961   5.808
 3703POPC   C1A48759   7.425  22.283   6.127
 3703POPC   D2A48760   7.435  22.048   6.523
 3703POPC   C3A48761   7.379  22.257   6.904
 3703POPC   C4A48762   7.146  22.086   7.233
 3703POPC   C1B48763   7.828  21.944   6.214
 3703POPC   C2B48764   7.857  21.785   6.657
 3703POPC   C3B48765   7.750  21.938   7.072
 3703POPC   C4B48766   7.539  21.830   7.449
 3704POPC   NC348767  35.425  20.834   5.305
 3704POPC   PO448768  35.299  20.191   5.394
 3704POPC   GL148769  35.276  20.484   5.771
 3704POPC   GL248770  35.569  20.721   5.826
 3704POPC   C1A48771  35.301  20.437   6.244
 3704POPC   D2A48772  35.421  20.582   6.678
 3704POPC   C3A48773  35.435  20.271   7.043
 3704POPC   C4A48774  35.202  20.271   7.445
 3704POPC   C1B48775  35.511  20.925   6.253
 3704POPC   C2B48776  35.438  21.120   6.668
 3704POPC   C3B48777  35.510  20.948   7.058
 3704POPC   C4B48778  35.131  20.668   7.116
 3705POPC   NC348779  34.865  20.272   5.501
 3705POPC   PO448780  34.964  20.948   5.401
 3705POPC   GL148781  34.763  20.722   5.724
 3705POPC   GL248782  34.436  20.527   5.721
 3705POPC   C1A48783  34.831  20.635   6.140
 3705POPC   D2A48784  34.790  20.343   6.467
 3705POPC   C3A48785  34.694  20.540   6.830
 3705POPC   C4A48786  34.703  20.398   7.287
 3705POPC   C1B48787  34.330  20.484   6.172
 3705POPC   C2B48788  34.170  20.515   6.606
 3705POPC   C3B48789  34.237  20.440   7.040
 3705POPC   C4B48790  34.235  20.385   7.482
 3706POPC   NC348791  12.493  25.635   5.279
 3706POPC   PO448792  13.101  25.919   5.487
 3706POPC   GL148793  13.026  25.858   5.915
 3706POPC   GL248794  12.705  26.022   5.988
 3706POPC   C1A48795  13.068  25.897   6.376
 3706POPC   D2A48796  12.870  26.193   6.700
 3706POPC   C3A48797  12.950  26.062   7.109
 3706POPC   C4A48798  13.296  25.758   7.161
 3706POPC   C1B48799  12.471  26.292   6.284
 3706POPC   C2B48800  12.389  26.403   6.736
 3706POPC   C3B48801  12.560  26.396   7.183
 3706POPC   C4B48802  12.618  26.196   7.594
 3707POPC   NC348803  39.424  14.409   5.461
 3707POPC   PO448804  38.817  14.178   5.417
 3707POPC   GL148805  39.101  14.161   5.807
 3707POPC   GL248806  39.476  14.066   5.838
 3707POPC   C1A48807  39.131  14.231   6.253
 3707POPC   D2A48808  39.184  14.563   6.556
 3707POPC   C3A48809  39.048  14.384   6.930
 3707POPC   C4A48810  39.198  14.387   7.308
 3707POPC   C1B48811  39.586  14.442   6.108
 3707POPC   C2B48812  39.689  14.649   6.489
 3707POPC   C3B48813  39.548  14.629   6.933
 3707POPC   C4B48814  39.190  14.856   7.073
 3708POPC   NC348815   4.605  32.298   5.611
 3708POPC   PO448816   4.099  32.399   5.129
 3708POPC   GL148817   4.083  32.322   5.651
 3708POPC   GL248818   4.041  32.585   5.923
 3708POPC   C1A48819   4.110  32.089   6.068
 3708POPC   D2A48820   4.435  31.870   6.348
 3708POPC   C3A48821   4.397  31.882   6.809
 3708POPC   C4A48822   4.304  32.133   7.153
 3708POPC   C1B48823   4.361  32.588   6.279
 3708POPC   C2B48824   4.402  32.502   6.759
 3708POPC   C3B48825   4.176  32.627   7.160
 3708POPC   C4B48826   4.048  32.646   7.620
 3709POPC   NC348827  44.182  12.456   5.603
 3709POPC   PO448828  43.750  12.096   5.244
 3709POPC   GL148829  43.799  12.087   5.698
 3709POPC   GL248830  44.095  12.083   5.937
 3709POPC   C1A48831  43.627  12.095   6.126
 3709POPC   D2A48832  43.786  11.956   6.539
 3709POPC   C3A48833  43.485  11.966   6.902
 3709POPC   C4A48834  43.590  12.072   7.330
 3709POPC   C1B48835  44.312  11.987   6.331
 3709POPC   C2B48836  44.269  11.960   6.782
 3709POPC   C3B48837  44.259  11.903   7.209
 3709POPC   C4B48838  44.055  12.165   7.539
 3710POPC   NC348839  31.480  37.464   5.292
 3710POPC   PO448840  31.214  38.116   5.536
 3710POPC   GL148841  31.349  37.687   5.754
 3710POPC   GL248842  31.519  37.351   5.772
 3710POPC   C1A48843  31.346  37.726   6.211
 3710POPC   D2A48844  31.450  37.950   6.634
 3710POPC   C3A48845  31.355  37.880   7.097
 3710POPC   C4A48846  31.705  37.849   7.407
 3710POPC   C1B48847  31.537  37.254   6.180
 3710POPC   C2B48848  31.249  37.372   6.549
 3710POPC   C3B48849  31.369  37.392   6.953
 3710POPC   C4B48850  31.488  37.389   7.372
 3711POPC   NC348851   5.810   6.206   5.376
 3711POPC   PO448852   5.661   5.546   5.487
 3711POPC   GL148853   5.897   5.856   5.778
 3711POPC   GL248854   5.684   6.162   5.856
 3711POPC   C1A48855   5.944   5.967   6.249
 3711POPC   D2A48856   5.806   5.829   6.680
 3711POPC   C3A48857   6.103   5.937   7.025
 3711POPC   C4A48858   6.428   5.931   7.345
 3711POPC   C1B48859   5.593   6.377   6.224
 3711POPC   C2B48860   5.417   6.233   6.614
 3711POPC   C3B48861   5.651   6.238   6.991
 3711POPC   C4B48862   5.652   6.028   7.361
 3712POPC   NC348863  34.136  14.034   5.504
 3712POPC   PO448864  33.494  14.302   5.378
 3712POPC   GL148865  33.833  14.425   5.669
 3712POPC   GL248866  33.624  14.492   5.922
 3712POPC   C1A48867  34.098  14.607   6.029
 3712POPC   D2A48868  34.006  14.698   6.462
 3712POPC   C3A48869  33.980  14.394   6.815
 3712POPC   C4A48870  34.141  14.470   7.240
 3712POPC   C1B48871  33.786  14.277   6.266
 3712POPC   C2B48872  33.551  14.461   6.556
 3712POPC   C3B48873  33.376  14.493   6.939
 3712POPC   C4B48874  33.640  14.366   7.211
 3713POPC   NC348875  40.525  25.627   5.445
 3713POPC   PO448876  40.907  26.206   5.212
 3713POPC   GL148877  40.902  26.126   5.674
 3713POPC   GL248878  41.086  25.812   5.696
 3713POPC   C1A48879  40.632  26.107   6.083
 3713POPC   D2A48880  40.513  26.026   6.552
 3713POPC   C3A48881  40.706  26.251   6.924
 3713POPC   C4A48882  41.154  26.311   7.084
 3713POPC   C1B48883  41.085  25.900   6.138
 3713POPC   C2B48884  41.059  26.041   6.572
 3713POPC   C3B48885  40.959  25.815   6.943
 3713POPC   C4B48886  41.093  25.850   7.340
 3714POPC   NC348887  18.229  38.677   5.012
 3714POPC   PO448888  18.060  38.210   5.441
 3714POPC   GL148889  18.267  38.346   5.820
 3714POPC   GL248890  17.975  38.422   5.970
 3714POPC   C1A48891  18.363  38.453   6.279
 3714POPC   D2A48892  18.161  38.315   6.659
 3714POPC   C3A48893  18.422  38.196   6.984
 3714POPC   C4A48894  18.568  38.440   7.323
 3714POPC   C1B48895  17.840  38.561   6.341
 3714POPC   C2B48896  17.802  38.681   6.766
 3714POPC   C3B48897  17.893  38.392   7.105
 3714POPC   C4B48898  18.135  38.169   7.411
 3715POPC   NC348899   9.290   2.647   5.510
 3715POPC   PO448900   9.406   3.366   5.548
 3715POPC   GL148901   9.240   3.058   5.885
 3715POPC   GL248902   8.990   2.784   5.892
 3715POPC   C1A48903   9.275   2.973   6.336
 3715POPC   D2A48904   9.358   2.669   6.695
 3715POPC   C3A48905   9.083   2.765   7.081
 3715POPC   C4A48906   9.103   3.000   7.484
 3715POPC   C1B48907   8.829   2.675   6.276
 3715POPC   C2B48908   8.876   2.525   6.685
 3715POPC   C3B48909   8.777   2.324   7.063
 3715POPC   C4B48910   8.769   2.409   7.464
 3716POPC   NC348911  11.086  27.853   5.282
 3716POPC   PO448912  11.321  28.388   5.350
 3716POPC   GL148913  11.275  28.197   5.732
 3716POPC   GL248914  11.556  28.021   5.860
 3716POPC   C1A48915  11.255  28.377   6.148
 3716POPC   D2A48916  11.388  28.599   6.509
 3716POPC   C3A48917  11.227  28.357   6.825
 3716POPC   C4A48918  11.233  28.346   7.261
 3716POPC   C1B48919  11.720  28.134   6.266
 3716POPC   C2B48920  11.712  28.229   6.709
 3716POPC   C3B48921  11.710  28.467   7.106
 3716POPC   C4B48922  11.643  28.566   7.539
 3717POPC   NC348923  37.944  32.058   5.596
 3717POPC   PO448924  37.390  31.776   5.534
 3717POPC   GL148925  37.579  32.002   5.944
 3717POPC   GL248926  37.672  32.349   5.920
 3717POPC   C1A48927  37.747  32.229   6.393
 3717POPC   D2A48928  37.714  32.487   6.826
 3717POPC   C3A48929  37.963  32.240   7.133
 3717POPC   C4A48930  37.866  31.801   7.202
 3717POPC   C1B48931  37.267  32.295   6.171
 3717POPC   C2B48932  37.268  32.441   6.559
 3717POPC   C3B48933  37.275  32.263   6.959
 3717POPC   C4B48934  37.250  32.508   7.341
 3718POPC   NC348935  35.014  39.476   5.407
 3718POPC   PO448936  35.647  39.264   5.176
 3718POPC   GL148937  35.457  39.043   5.631
 3718POPC   GL248938  35.706  38.975   5.889
 3718POPC   C1A48939  35.267  38.946   6.132
 3718POPC   D2A48940  35.455  38.950   6.594
 3718POPC   C3A48941  35.189  38.975   7.003
 3718POPC   C4A48942  35.280  39.152   7.431
 3718POPC   C1B48943  35.589  39.307   6.222
 3718POPC   C2B48944  35.477  39.510   6.605
 3718POPC   C3B48945  35.530  39.390   7.036
 3718POPC   C4B48946  35.501  39.607   7.426
 3719POPC   NC348947   4.219  38.903   5.302
 3719POPC   PO448948   4.340  39.505   5.280
 3719POPC   GL148949   4.223  39.266   5.674
 3719POPC   GL248950   4.519  39.053   5.748
 3719POPC   C1A48951   4.051  39.085   6.077
 3719POPC   D2A48952   4.175  39.238   6.502
 3719POPC   C3A48953   4.180  39.117   6.917
 3719POPC   C4A48954   4.548  39.208   7.130
 3719POPC   C1B48955   4.544  39.061   6.213
 3719POPC   C2B48956   4.403  38.778   6.569
 3719POPC   C3B48957   4.379  38.653   7.019
 3719POPC   C4B48958   4.287  38.870   7.401
 3720POPC   NC348959  39.096   9.656   5.274
 3720POPC   PO448960  39.582  10.070   5.513
 3720POPC   GL148961  39.547   9.750   5.877
 3720POPC   GL248962  39.418   9.394   5.887
 3720POPC   C1A48963  39.588   9.653   6.334
 3720POPC   D2A48964  39.373   9.764   6.701
 3720POPC   C3A48965  39.494  10.026   7.042
 3720POPC   C4A48966  39.371   9.972   7.494
 3720POPC   C1B48967  39.165   9.304   6.302
 3720POPC   C2B48968  39.087   9.368   6.782
 3720POPC   C3B48969  39.238   9.569   7.177
 3720POPC   C4B48970  39.094   9.573   7.638
 3721POPC   NC348971  34.774  12.676   5.472
 3721POPC   PO448972  34.417  13.250   5.588
 3721POPC   GL148973  34.689  13.070   5.863
 3721POPC   GL248974  34.709  12.727   5.969
 3721POPC   C1A48975  34.687  13.139   6.268
 3721POPC   D2A48976  34.788  12.838   6.543
 3721POPC   C3A48977  34.513  12.939   6.834
 3721POPC   C4A48978  34.675  12.835   7.195
 3721POPC   C1B48979  34.975  12.460   6.194
 3721POPC   C2B48980  34.983  12.341   6.592
 3721POPC   C3B48981  34.841  12.384   7.021
 3721POPC   C4B48982  35.026  12.515   7.422
 3722POPC   NC348983   4.263  33.130   5.404
 3722POPC   PO448984   4.334  33.916   5.315
 3722POPC   GL148985   4.354  33.880   5.699
 3722POPC   GL248986   4.492  33.532   5.697
 3722POPC   C1A48987   4.342  34.077   6.105
 3722POPC   D2A48988   4.124  34.156   6.492
 3722POPC   C3A48989   4.379  34.059   6.826
 3722POPC   C4A48990   4.304  33.926   7.274
 3722POPC   C1B48991   4.236  33.542   6.044
 3722POPC   C2B48992   4.283  33.662   6.483
 3722POPC   C3B48993   4.369  33.546   6.920
 3722POPC   C4B48994   4.337  33.401   7.354
 3723POPC   NC348995  13.297  19.320   5.560
 3723POPC   PO448996  12.673  19.017   5.536
 3723POPC   GL148997  12.821  19.290   5.848
 3723POPC   GL248998  12.488  19.372   5.903
 3723POPC   C1A48999  13.026  19.153   6.262
 3723POPC   D2A49000  13.170  18.838   6.621
 3723POPC   C3A49001  13.091  18.932   7.055
 3723POPC   C4A49002  12.773  18.896   7.382
 3723POPC   C1B49003  12.511  19.144   6.270
 3723POPC   C2B49004  12.713  19.064   6.670
 3723POPC   C3B49005  12.700  19.283   7.053
 3723POPC   C4B49006  12.374  19.206   7.361
 3724POPC   NC349007  27.339   0.462   5.165
 3724POPC   PO449008  27.802   0.179   5.564
 3724POPC   GL149009  27.664   0.475   5.843
 3724POPC   GL249010  27.343   0.577   5.713
 3724POPC   C1A49011  27.809   0.428   6.251
 3724POPC   D2A49012  27.959   0.580   6.628
 3724POPC   C3A49013  27.721   0.469   6.939
 3724POPC   C4A49014  27.620   0.481   7.359
 3724POPC   C1B49015  27.183   0.546   6.143
 3724POPC   C2B49016  27.364   0.525   6.565
 3724POPC   C3B49017  27.238   0.634   6.979
 3724POPC   C4B49018  27.227   0.824   7.389
 3725POPC   NC349019   8.005   3.508   5.372
 3725POPC   PO449020   8.591   3.875   5.269
 3725POPC   GL149021   8.401   3.651   5.690
 3725POPC   GL249022   8.272   3.301   5.783
 3725POPC   C1A49023   8.222   3.642   6.166
 3725POPC   D2A49024   8.336   3.389   6.566
 3725POPC   C3A49025   8.293   3.566   6.987
 3725POPC   C4A49026   7.999   3.791   7.221
 3725POPC   C1B49027   7.959   3.206   6.117
 3725POPC   C2B49028   7.809   3.372   6.534
 3725POPC   C3B49029   7.866   3.312   6.977
 3725POPC   C4B49030   8.186   3.088   7.228
 3726POPC   NC349031  24.821  18.153   5.652
 3726POPC   PO449032  24.282  18.617   5.416
 3726POPC   GL149033  24.413  18.424   5.822
 3726POPC   GL249034  24.363  18.040   5.883
 3726POPC   C1A49035  24.439  18.475   6.265
 3726POPC   D2A49036  24.469  18.357   6.712
 3726POPC   C3A49037  24.782  18.482   7.023
 3726POPC   C4A49038  24.710  18.415   7.492
 3726POPC   C1B49039  24.415  17.955   6.345
 3726POPC   C2B49040  24.347  17.867   6.785
 3726POPC   C3B49041  24.402  18.107   7.168
 3726POPC   C4B49042  24.389  18.017   7.596
 3727POPC   NC349043  26.123  20.300   5.367
 3727POPC   PO449044  25.666  20.792   5.320
 3727POPC   GL149045  25.848  20.838   5.720
 3727POPC   GL249046  26.179  20.708   5.687
 3727POPC   C1A49047  25.862  20.669   6.159
 3727POPC   D2A49048  25.660  20.633   6.561
 3727POPC   C3A49049  25.776  20.890   6.887
 3727POPC   C4A49050  25.863  20.738   7.275
 3727POPC   C1B49051  26.304  20.890   6.099
 3727POPC   C2B49052  26.208  20.813   6.568
 3727POPC   C3B49053  26.300  20.846   7.032
 3727POPC   C4B49054  26.584  20.769   7.383
 3728POPC   NC349055  33.530  39.740   5.220
 3728POPC   PO449056  33.434  40.333   5.628
 3728POPC   GL149057  33.212  40.227   6.039
 3728POPC   GL249058  32.855  39.999   6.014
 3728POPC   C1A49059  33.073  40.375   6.414
 3728POPC   D2A49060  32.748  40.139   6.560
 3728POPC   C3A49061  32.945  39.982   6.929
 3728POPC   C4A49062  33.294  40.226   7.099
 3728POPC   C1B49063  33.103  39.734   6.266
 3728POPC   C2B49064  33.325  39.927   6.580
 3728POPC   C3B49065  33.431  39.765   6.947
 3728POPC   C4B49066  33.229  39.732   7.299
 3729POPC   NC349067  11.446  11.635   5.533
 3729POPC   PO449068  11.187  12.140   5.044
 3729POPC   GL149069  11.243  12.091   5.552
 3729POPC   GL249070  11.036  11.836   5.773
 3729POPC   C1A49071  11.382  12.069   6.045
 3729POPC   D2A49072  11.675  11.966   6.395
 3729POPC   C3A49073  11.508  11.973   6.830
 3729POPC   C4A49074  11.439  12.134   7.243
 3729POPC   C1B49075  10.903  11.903   6.185
 3729POPC   C2B49076  10.988  12.047   6.604
 3729POPC   C3B49077  11.014  11.921   7.034
 3729POPC   C4B49078  11.004  12.030   7.500
 3730POPC   NC349079  14.584  13.580   5.280
 3730POPC   PO449080  13.942  13.436   5.287
 3730POPC   GL149081  14.185  13.562   5.678
 3730POPC   GL249082  14.562  13.621   5.801
 3730POPC   C1A49083  14.201  13.365   6.096
 3730POPC   D2A49084  14.360  13.527   6.484
 3730POPC   C3A49085  14.584  13.386   6.831
 3730POPC   C4A49086  14.483  13.596   7.204
 3730POPC   C1B49087  14.816  13.746   6.173
 3730POPC   C2B49088  14.900  13.782   6.644
 3730POPC   C3B49089  14.873  13.900   7.087
 3730POPC   C4B49090  14.898  13.747   7.519
 3731POPC   NC349091  27.506  21.933   5.451
 3731POPC   PO449092  27.758  22.484   5.589
 3731POPC   GL149093  27.692  22.380   5.918
 3731POPC   GL249094  27.362  22.293   5.914
 3731POPC   C1A49095  27.782  22.506   6.300
 3731POPC   D2A49096  27.837  22.153   6.508
 3731POPC   C3A49097  27.652  22.111   6.869
 3731POPC   C4A49098  27.847  22.252   7.201
 3731POPC   C1B49099  27.554  21.927   6.152
 3731POPC   C2B49100  27.351  21.759   6.552
 3731POPC   C3B49101  27.447  21.642   6.971
 3731POPC   C4B49102  27.553  21.849   7.322
 3732POPC   NC349103  21.742   7.323   5.440
 3732POPC   PO449104  21.240   7.718   5.300
 3732POPC   GL149105  21.457   7.548   5.802
 3732POPC   GL249106  21.740   7.717   5.871
 3732POPC   C1A49107  21.248   7.281   6.219
 3732POPC   D2A49108  21.217   7.035   6.649
 3732POPC   C3A49109  21.173   7.303   7.028
 3732POPC   C4A49110  21.386   7.354   7.393
 3732POPC   C1B49111  21.668   7.524   6.290
 3732POPC   C2B49112  21.582   7.384   6.691
 3732POPC   C3B49113  21.838   7.463   7.037
 3732POPC   C4B49114  21.799   7.622   7.392
 3733POPC   NC349115  24.248  12.045   5.471
 3733POPC   PO449116  24.837  12.374   5.515
 3733POPC   GL149117  24.665  12.081   5.808
 3733POPC   GL249118  24.765  11.735   5.794
 3733POPC   C1A49119  24.385  11.979   6.157
 3733POPC   D2A49120  24.069  12.036   6.477
 3733POPC   C3A49121  24.234  12.058   6.884
 3733POPC   C4A49122  24.050  12.048   7.262
 3733POPC   C1B49123  24.897  11.859   6.222
 3733POPC   C2B49124  24.716  11.924   6.623
 3733POPC   C3B49125  24.760  12.131   7.017
 3733POPC   C4B49126  24.759  12.135   7.471
 3734POPC   NC349127  11.386  28.802   5.176
 3734POPC   PO449128  11.546  29.349   5.513
 3734POPC   GL149129  11.277  29.162   5.830
 3734POPC   GL249130  11.270  28.746   5.789
 3734POPC   C1A49131  11.167  29.335   6.240
 3734POPC   D2A49132  11.336  29.257   6.649
 3734POPC   C3A49133  11.553  29.531   6.931
 3734POPC   C4A49134  11.336  29.344   7.265
 3734POPC   C1B49135  11.064  28.852   6.173
 3734POPC   C2B49136  10.937  28.914   6.606
 3734POPC   C3B49137  11.000  29.062   7.009
 3734POPC   C4B49138  11.304  28.838   7.252
 3735POPC   NC349139  19.823  17.043   5.288
 3735POPC   PO449140  19.834  16.421   5.447
 3735POPC   GL149141  19.829  16.706   5.786
 3735POPC   GL249142  20.083  16.969   5.727
 3735POPC   C1A49143  19.645  16.738   6.218
 3735POPC   D2A49144  19.861  16.813   6.610
 3735POPC   C3A49145  19.685  16.844   7.033
 3735POPC   C4A49146  19.549  16.542   7.342
 3735POPC   C1B49147  20.171  16.816   6.162
 3735POPC   C2B49148  20.363  16.886   6.578
 3735POPC   C3B49149  20.220  16.837   6.999
 3735POPC   C4B49150  20.191  17.136   7.343
 3736POPC   NC349151  22.391  43.687   5.405
 3736POPC   PO449152  22.371  44.378   5.577
 3736POPC   GL149153  22.149  44.031   5.785
 3736POPC   GL249154  21.876  44.211   5.962
 3736POPC   C1A49155  22.111  43.766   6.163
 3736POPC   D2A49156  22.335  43.588   6.540
 3736POPC   C3A49157  22.207  43.732   6.926
 3736POPC   C4A49158  22.188  43.671   7.338
 3736POPC   C1B49159  22.211  44.263   6.257
 3736POPC   C2B49160  22.173  44.175   6.681
 3736POPC   C3B49161  22.424  44.213   7.009
 3736POPC   C4B49162  22.501  44.062   7.385
 3737POPC   NC349163  29.748  41.336   5.474
 3737POPC   PO449164  30.348  41.720   5.540
 3737POPC   GL149165  30.071  41.772   5.906
 3737POPC   GL249166  29.704  41.662   5.895
 3737POPC   C1A49167  30.038  41.701   6.374
 3737POPC   D2A49168  30.222  41.418   6.703
 3737POPC   C3A49169  30.051  41.427   7.115
 3737POPC   C4A49170  29.991  41.860   7.089
 3737POPC   C1B49171  29.626  41.398   6.272
 3737POPC   C2B49172  29.668  41.480   6.743
 3737POPC   C3B49173  29.555  41.595   7.184
 3737POPC   C4B49174  29.699  41.338   7.547
 3738POPC   NC349175  34.328  27.396   5.411
 3738POPC   PO449176  34.934  27.662   5.355
 3738POPC   GL149177  34.790  27.545   5.740
 3738POPC   GL249178  34.516  27.736   5.854
 3738POPC   C1A49179  34.830  27.544   6.186
 3738POPC   D2A49180  34.699  27.628   6.591
 3738POPC   C3A49181  34.933  27.584   6.972
 3738POPC   C4A49182  34.575  27.501   7.227
 3738POPC   C1B49183  34.281  27.726   6.268
 3738POPC   C2B49184  34.272  27.916   6.717
 3738POPC   C3B49185  34.199  27.862   7.184
 3738POPC   C4B49186  34.019  27.948   7.582
 3739POPC   NC349187  18.770  21.471   5.413
 3739POPC   PO449188  18.148  21.115   5.522
 3739POPC   GL149189  18.195  21.333   5.938
 3739POPC   GL249190  18.462  21.592   5.989
 3739POPC   C1A49191  18.317  21.257   6.370
 3739POPC   D2A49192  18.391  21.402   6.786
 3739POPC   C3A49193  18.023  21.563   6.996
 3739POPC   C4A49194  17.891  21.462   7.395
 3739POPC   C1B49195  18.360  21.790   6.431
 3739POPC   C2B49196  18.367  21.933   6.870
 3739POPC   C3B49197  18.469  21.679   7.232
 3739POPC   C4B49198  18.824  21.533   7.413
 3740POPC   NC349199   1.778   2.374   5.248
 3740POPC   PO449200   2.179   1.798   5.417
 3740POPC   GL149201   1.937   1.957   5.815
 3740POPC   GL249202   2.167   2.106   6.077
 3740POPC   C1A49203   1.721   1.918   6.248
 3740POPC   D2A49204   1.729   2.103   6.673
 3740POPC   C3A49205   2.121   2.173   6.898
 3740POPC   C4A49206   2.230   2.038   7.321
 3740POPC   C1B49207   2.194   1.675   6.218
 3740POPC   C2B49208   2.311   1.572   6.635
 3740POPC   C3B49209   2.185   1.624   7.039
 3740POPC   C4B49210   1.802   1.821   7.111
 3741POPC   NC349211  32.593  18.441   5.332
 3741POPC   PO449212  33.215  18.039   5.345
 3741POPC   GL149213  33.261  18.246   5.673
 3741POPC   GL249214  33.138  18.564   5.566
 3741POPC   C1A49215  33.312  18.135   6.083
 3741POPC   D2A49216  33.032  18.150   6.418
 3741POPC   C3A49217  33.114  18.217   6.838
 3741POPC   C4A49218  32.905  18.196   7.228
 3741POPC   C1B49219  33.032  18.589   6.035
 3741POPC   C2B49220  33.086  18.667   6.514
 3741POPC   C3B49221  32.930  18.695   6.987
 3741POPC   C4B49222  32.906  18.636   7.465
 3742POPC   NC349223  41.877  31.243   5.403
 3742POPC   PO449224  41.332  31.593   5.173
 3742POPC   GL149225  41.419  31.543   5.709
 3742POPC   GL249226  41.640  31.268   5.904
 3742POPC   C1A49227  41.391  31.590   6.206
 3742POPC   D2A49228  41.589  31.441   6.638
 3742POPC   C3A49229  41.332  31.488   7.024
 3742POPC   C4A49230  41.411  31.709   7.444
 3742POPC   C1B49231  41.992  31.086   6.144
 3742POPC   C2B49232  42.106  31.196   6.589
 3742POPC   C3B49233  41.895  31.167   6.986
 3742POPC   C4B49234  41.817  31.491   7.246
 3743POPC   NC349235  34.866  35.095   5.488
 3743POPC   PO449236  34.817  34.402   5.214
 3743POPC   GL149237  34.578  34.607   5.532
 3743POPC   GL249238  34.876  34.629   5.696
 3743POPC   C1A49239  34.467  34.519   5.982
 3743POPC   D2A49240  34.650  34.446   6.407
 3743POPC   C3A49241  34.551  34.619   6.826
 3743POPC   C4A49242  34.821  34.437   7.136
 3743POPC   C1B49243  34.865  34.817   6.095
 3743POPC   C2B49244  34.856  34.974   6.498
 3743POPC   C3B49245  34.991  34.896   6.882
 3743POPC   C4B49246  34.779  34.923   7.244
 3744POPC   NC349247  21.843  14.512   5.504
 3744POPC   PO449248  21.184  14.657   5.530
 3744POPC   GL149249  21.383  14.300   5.758
 3744POPC   GL249250  21.740  14.295   5.946
 3744POPC   C1A49251  21.274  14.246   6.178
 3744POPC   D2A49252  21.476  14.276   6.572
 3744POPC   C3A49253  21.203  14.297   6.929
 3744POPC   C4A49254  21.127  13.987   7.235
 3744POPC   C1B49255  21.573  14.675   6.167
 3744POPC   C2B49256  21.526  14.817   6.582
 3744POPC   C3B49257  21.612  14.592   6.976
 3744POPC   C4B49258  21.426  14.686   7.377
 3745POPC   NC349259  24.794  14.383   5.563
 3745POPC   PO449260  24.134  14.297   5.195
 3745POPC   GL149261  24.276  14.180   5.697
 3745POPC   GL249262  24.581  14.066   5.910
 3745POPC   C1A49263  24.265  14.390   6.153
 3745POPC   D2A49264  24.129  14.281   6.603
 3745POPC   C3A49265  24.351  14.426   6.980
 3745POPC   C4A49266  24.345  14.578   7.402
 3745POPC   C1B49267  24.470  13.957   6.366
 3745POPC   C2B49268  24.467  13.951   6.836
 3745POPC   C3B49269  24.590  14.094   7.280
 3745POPC   C4B49270  24.590  14.256   7.709
 3746POPC   NC349271  27.442  42.382   5.427
 3746POPC   PO449272  28.061  42.195   5.347
 3746POPC   GL149273  27.865  42.308   5.735
 3746POPC   GL249274  27.829  42.677   5.803
 3746POPC   C1A49275  27.648  42.150   6.108
 3746POPC   D2A49276  27.468  42.362   6.482
 3746POPC   C3A49277  27.441  42.169   6.884
 3746POPC   C4A49278  27.343  42.293   7.302
 3746POPC   C1B49279  27.969  42.537   6.227
 3746POPC   C2B49280  28.113  42.382   6.635
 3746POPC   C3B49281  27.910  42.395   7.050
 3746POPC   C4B49282  27.667  42.719   7.253
 3747POPC   NC349283  19.518  16.170   5.668
 3747POPC   PO449284  19.749  15.874   5.028
 3747POPC   GL149285  19.954  15.897   5.567
 3747POPC   GL249286  20.065  16.141   5.791
 3747POPC   C1A49287  19.875  15.828   6.137
 3747POPC   D2A49288  19.796  15.989   6.613
 3747POPC   C3A49289  19.759  15.712   7.038
 3747POPC   C4A49290  19.848  15.615   7.476
 3747POPC   C1B49291  19.973  16.335   6.189
 3747POPC   C2B49292  20.199  16.404   6.565
 3747POPC   C3B49293  20.177  16.159   6.913
 3747POPC   C4B49294  19.904  16.132   7.268
 3748POPC   NC349295  22.384  12.014   5.450
 3748POPC   PO449296  21.789  12.316   5.448
 3748POPC   GL149297  21.911  12.112   5.833
 3748POPC   GL249298  21.992  11.775   5.740
 3748POPC   C1A49299  22.216  12.172   6.175
 3748POPC   D2A49300  22.501  12.341   6.517
 3748POPC   C3A49301  22.324  12.385   6.950
 3748POPC   C4A49302  21.923  12.239   7.158
 3748POPC   C1B49303  22.091  11.655   6.173
 3748POPC   C2B49304  22.052  11.886   6.569
 3748POPC   C3B49305  22.246  11.855   6.963
 3748POPC   C4B49306  22.225  11.506   7.253
 3749POPC   NC349307   2.086  10.901   5.501
 3749POPC   PO449308   1.733  10.277   5.354
 3749POPC   GL149309   1.963  10.462   5.730
 3749POPC   GL249310   2.171  10.244   5.944
 3749POPC   C1A49311   2.060  10.677   6.159
 3749POPC   D2A49312   1.968  10.473   6.561
 3749POPC   C3A49313   2.097  10.614   6.970
 3749POPC   C4A49314   2.196  10.320   7.254
 3749POPC   C1B49315   1.723  10.272   6.144
 3749POPC   C2B49316   1.592  10.131   6.571
 3749POPC   C3B49317   1.743  10.193   6.998
 3749POPC   C4B49318   1.654  10.453   7.356
 3750POPC   NC349319   1.861   1.415   5.490
 3750POPC   PO449320   2.189   0.869   5.430
 3750POPC   GL149321   2.166   1.046   5.828
 3750POPC   GL249322   1.819   1.060   5.855
 3750POPC   C1A49323   2.122   1.138   6.271
 3750POPC   D2A49324   2.176   0.857   6.607
 3750POPC   C3A49325   2.128   1.135   6.904
 3750POPC   C4A49326   2.270   1.183   7.302
 3750POPC   C1B49327   1.688   1.398   6.168
 3750POPC   C2B49328   1.770   1.519   6.611
 3750POPC   C3B49329   1.515   1.432   6.982
 3750POPC   C4B49330   1.350   1.624   7.352
 3751POPC   NC349331  43.884  17.253   5.316
 3751POPC   PO449332  44.213  17.865   5.336
 3751POPC   GL149333  44.246  17.598   5.708
 3751POPC   GL249334  43.876  17.575   5.726
 3751POPC   C1A49335  44.185  17.385   6.127
 3751POPC   D2A49336  43.973  17.262   6.517
 3751POPC   C3A49337  44.175  17.351   6.916
 3751POPC   C4A49338  44.088  17.390   7.349
 3751POPC   C1B49339  43.535  17.734   6.018
 3751POPC   C2B49340  43.519  17.606   6.447
 3751POPC   C3B49341  43.709  17.610   6.841
 3751POPC   C4B49342  43.599  17.509   7.229
 3752POPC   NC349343  28.990  39.773   5.392
 3752POPC   PO449344  29.592  40.093   5.545
 3752POPC   GL149345  29.321  40.240   5.863
 3752POPC   GL249346  29.119  39.946   5.842
 3752POPC   C1A49347  29.187  40.177   6.294
 3752POPC   D2A49348  28.969  40.135   6.663
 3752POPC   C3A49349  29.301  40.182   6.969
 3752POPC   C4A49350  29.319  40.257   7.402
 3752POPC   C1B49351  29.348  39.704   6.122
 3752POPC   C2B49352  29.210  39.690   6.532
 3752POPC   C3B49353  29.394  39.678   6.912
 3752POPC   C4B49354  29.153  39.758   7.249
 3753POPC   NC349355  20.516  16.973   5.350
 3753POPC   PO449356  20.707  16.297   5.354
 3753POPC   GL149357  20.685  16.598   5.691
 3753POPC   GL249358  20.345  16.548   5.696
 3753POPC   C1A49359  20.673  16.859   6.100
 3753POPC   D2A49360  20.846  17.003   6.529
 3753POPC   C3A49361  20.746  16.909   6.992
 3753POPC   C4A49362  20.524  16.770   7.399
 3753POPC   C1B49363  20.475  16.375   6.108
 3753POPC   C2B49364  20.717  16.454   6.500
 3753POPC   C3B49365  20.636  16.412   6.971
 3753POPC   C4B49366  20.395  16.251   7.353
 3754POPC   NC349367   4.014  36.154   5.352
 3754POPC   PO449368   4.560  36.493   5.298
 3754POPC   GL149369   4.321  36.446   5.721
 3754POPC   GL249370   4.203  36.075   5.855
 3754POPC   C1A49371   4.298  36.460   6.189
 3754POPC   D2A49372   4.339  36.134   6.473
 3754POPC   C3A49373   4.206  36.069   6.861
 3754POPC   C4A49374   4.212  36.283   7.219
 3754POPC   C1B49375   4.628  35.991   6.099
 3754POPC   C2B49376   4.820  35.975   6.555
 3754POPC   C3B49377   4.664  35.893   6.982
 3754POPC   C4B49378   4.316  35.788   7.280
 3755POPC   NC349379  19.156   2.943   5.440
 3755POPC   PO449380  19.253   2.281   5.401
 3755POPC   GL149381  19.072   2.501   5.790
 3755POPC   GL249382  19.133   2.872   5.933
 3755POPC   C1A49383  19.100   2.462   6.247
 3755POPC   D2A49384  18.800   2.501   6.592
 3755POPC   C3A49385  19.068   2.541   6.923
 3755POPC   C4A49386  19.106   2.586   7.349
 3755POPC   C1B49387  18.960   2.964   6.348
 3755POPC   C2B49388  19.001   3.235   6.715
 3755POPC   C3B49389  19.023   3.052   7.101
 3755POPC   C4B49390  18.912   3.073   7.499
 3756POPC   NC349391  23.330  39.755   5.386
 3756POPC   PO449392  23.328  39.142   5.457
 3756POPC   GL149393  23.171  39.026   5.908
 3756POPC   GL249394  22.914  38.786   5.883
 3756POPC   C1A49395  22.914  39.034   6.344
 3756POPC   D2A49396  22.610  39.143   6.704
 3756POPC   C3A49397  22.748  39.448   7.035
 3756POPC   C4A49398  23.148  39.592   7.202
 3756POPC   C1B49399  23.163  38.586   6.237
 3756POPC   C2B49400  23.264  38.771   6.647
 3756POPC   C3B49401  23.116  39.138   6.893
 3756POPC   C4B49402  23.027  39.120   7.368
 3757POPC   NC349403  23.743  20.058   5.285
 3757POPC   PO449404  23.246  20.185   5.746
 3757POPC   GL149405  23.501  19.858   5.867
 3757POPC   GL249406  23.799  20.062   5.799
 3757POPC   C1A49407  23.397  19.537   6.204
 3757POPC   D2A49408  23.341  19.365   6.646
 3757POPC   C3A49409  23.549  19.607   7.006
 3757POPC   C4A49410  23.973  19.494   7.163
 3757POPC   C1B49411  23.961  19.939   6.217
 3757POPC   C2B49412  23.895  19.756   6.651
 3757POPC   C3B49413  24.008  19.979   7.048
 3757POPC   C4B49414  23.632  20.142   7.227
 3758POPC   NC349415   1.161  44.232   5.462
 3758POPC   PO449416   1.001  43.599   5.388
 3758POPC   GL149417   1.062  43.612   5.816
 3758POPC   GL249418   1.243  43.910   5.876
 3758POPC   C1A49419   1.304  43.548   6.220
 3758POPC   D2A49420   1.100  43.559   6.572
 3758POPC   C3A49421   1.262  43.750   6.902
 3758POPC   C4A49422   1.166  43.694   7.308
 3758POPC   C1B49423   1.198  44.026   6.333
 3758POPC   C2B49424   1.147  44.229   6.746
 3758POPC   C3B49425   0.960  44.153   7.162
 3758POPC   C4B49426   1.012  44.125   7.602
 3759POPC   NC349427  40.458   2.186   5.467
 3759POPC   PO449428  41.195   2.254   5.498
 3759POPC   GL149429  40.877   2.095   5.790
 3759POPC   GL249430  41.157   2.135   5.991
 3759POPC   C1A49431  40.683   1.971   6.205
 3759POPC   D2A49432  40.769   1.637   6.521
 3759POPC   C3A49433  40.953   1.748   6.911
 3759POPC   C4A49434  40.797   1.927   7.277
 3759POPC   C1B49435  41.156   2.005   6.383
 3759POPC   C2B49436  40.921   2.192   6.647
 3759POPC   C3B49437  41.105   2.251   7.011
 3759POPC   C4B49438  41.230   2.176   7.396
 3760POPC   NC349439  39.615  23.034   5.376
 3760POPC   PO449440  39.987  22.522   5.419
 3760POPC   GL149441  40.030  22.832   5.727
 3760POPC   GL249442  40.302  23.053   5.746
 3760POPC   C1A49443  40.019  22.700   6.154
 3760POPC   D2A49444  39.955  22.876   6.562
 3760POPC   C3A49445  40.178  22.665   6.883
 3760POPC   C4A49446  39.978  22.669   7.264
 3760POPC   C1B49447  40.148  23.199   6.152
 3760POPC   C2B49448  40.352  23.218   6.560
 3760POPC   C3B49449  40.375  23.121   6.997
 3760POPC   C4B49450  40.335  23.311   7.386
 3761POPC   NC349451  40.214   2.870   5.442
 3761POPC   PO449452  39.925   2.265   5.537
 3761POPC   GL149453  39.814   2.502   5.951
 3761POPC   GL249454  39.829   2.879   5.873
 3761POPC   C1A49455  39.926   2.553   6.387
 3761POPC   D2A49456  40.278   2.800   6.570
 3761POPC   C3A49457  40.210   2.786   6.981
 3761POPC   C4A49458  40.274   2.403   7.194
 3761POPC   C1B49459  39.942   3.069   6.283
 3761POPC   C2B49460  39.793   3.005   6.710
 3761POPC   C3B49461  39.781   3.019   7.148
 3761POPC   C4B49462  39.879   2.649   7.406
 3762POPC   NC349463  25.743  14.097   5.427
 3762POPC   PO449464  26.008  14.769   5.373
 3762POPC   GL149465  26.069  14.528   5.804
 3762POPC   GL249466  25.914  14.273   5.895
 3762POPC   C1A49467  26.123  14.568   6.280
 3762POPC   D2A49468  25.893  14.303   6.591
 3762POPC   C3A49469  25.899  14.465   7.010
 3762POPC   C4A49470  25.687  14.712   7.309
 3762POPC   C1B49471  26.186  14.084   6.197
 3762POPC   C2B49472  26.360  14.064   6.599
 3762POPC   C3B49473  26.281  13.875   6.945
 3762POPC   C4B49474  26.086  14.081   7.293
 3763POPC   NC349475  18.790  33.293   5.400
 3763POPC   PO449476  19.402  33.082   5.154
 3763POPC   GL149477  19.298  33.092   5.680
 3763POPC   GL249478  18.964  33.129   5.852
 3763POPC   C1A49479  19.353  33.165   6.196
 3763POPC   D2A49480  19.221  33.358   6.608
 3763POPC   C3A49481  19.242  33.156   7.027
 3763POPC   C4A49482  19.201  33.101   7.501
 3763POPC   C1B49483  18.859  33.161   6.302
 3763POPC   C2B49484  18.801  33.064   6.732
 3763POPC   C3B49485  18.767  33.092   7.190
 3763POPC   C4B49486  18.565  33.454   7.331
 3764POPC   NC349487   5.599  10.235   5.572
 3764POPC   PO449488   5.053  10.685   5.490
 3764POPC   GL149489   4.989  10.572   5.888
 3764POPC   GL249490   5.192  10.284   5.905
 3764POPC   C1A49491   4.852  10.507   6.290
 3764POPC   D2A49492   5.014  10.522   6.707
 3764POPC   C3A49493   4.931  10.670   7.159
 3764POPC   C4A49494   5.057  10.673   7.606
 3764POPC   C1B49495   5.362  10.496   6.259
 3764POPC   C2B49496   5.545  10.462   6.673
 3764POPC   C3B49497   5.314  10.358   7.069
 3764POPC   C4B49498   5.406  10.300   7.461
 3765POPC   NC349499  19.677  36.448   5.568
 3765POPC   PO449500  19.795  35.816   5.288
 3765POPC   GL149501  19.806  35.936   5.696
 3765POPC   GL249502  20.121  35.855   5.838
 3765POPC   C1A49503  19.654  36.077   6.073
 3765POPC   D2A49504  19.607  36.128   6.470
 3765POPC   C3A49505  19.826  36.111   6.808
 3765POPC   C4A49506  19.610  36.062   7.177
 3765POPC   C1B49507  20.124  36.077   6.271
 3765POPC   C2B49508  20.151  36.433   6.577
 3765POPC   C3B49509  20.080  36.480   7.027
 3765POPC   C4B49510  20.097  36.122   7.319
 3766POPC   NC349511  31.581  27.493   5.325
 3766POPC   PO449512  31.274  27.872   5.422
 3766POPC   GL149513  31.415  27.669   5.829
 3766POPC   GL249514  31.559  27.336   5.864
 3766POPC   C1A49515  31.191  27.570   6.248
 3766POPC   D2A49516  31.162  27.274   6.630
 3766POPC   C3A49517  31.172  27.475   7.083
 3766POPC   C4A49518  31.466  27.803   7.260
 3766POPC   C1B49519  31.632  27.351   6.343
 3766POPC   C2B49520  31.947  27.434   6.682
 3766POPC   C3B49521  31.896  27.525   7.148
 3766POPC   C4B49522  31.935  27.636   7.612
 3767POPC   NC349523  35.598  27.767   5.407
 3767POPC   PO449524  35.410  27.089   5.556
 3767POPC   GL149525  35.323  27.491   5.786
 3767POPC   GL249526  35.217  27.851   5.735
 3767POPC   C1A49527  35.329  27.539   6.241
 3767POPC   D2A49528  35.574  27.483   6.638
 3767POPC   C3A49529  35.447  27.648   7.065
 3767POPC   C4A49530  35.486  27.678   7.531
 3767POPC   C1B49531  35.087  27.988   6.118
 3767POPC   C2B49532  35.263  27.968   6.529
 3767POPC   C3B49533  35.161  28.093   6.919
 3767POPC   C4B49534  35.130  27.972   7.319
 3768POPC   NC349535   1.826   7.239   5.120
 3768POPC   PO449536   2.067   7.845   5.183
 3768POPC   GL149537   1.929   7.437   5.591
 3768POPC   GL249538   1.693   7.351   5.877
 3768POPC   C1A49539   2.125   7.299   6.084
 3768POPC   D2A49540   1.933   7.137   6.479
 3768POPC   C3A49541   1.945   7.361   6.849
 3768POPC   C4A49542   1.874   7.151   7.217
 3768POPC   C1B49543   1.720   7.697   6.169
 3768POPC   C2B49544   1.765   7.793   6.587
 3768POPC   C3B49545   1.555   7.712   6.956
 3768POPC   C4B49546   1.845   7.668   7.275
 3769POPC   NC349547  14.760  17.265   5.199
 3769POPC   PO449548  14.124  17.506   5.365
 3769POPC   GL149549  14.239  17.431   5.776
 3769POPC   GL249550  14.591  17.356   5.702
 3769POPC   C1A49551  14.191  17.658   6.183
 3769POPC   D2A49552  14.485  17.742   6.529
 3769POPC   C3A49553  14.329  17.675   6.919
 3769POPC   C4A49554  14.464  17.472   7.271
 3769POPC   C1B49555  14.668  17.522   6.106
 3769POPC   C2B49556  14.921  17.407   6.479
 3769POPC   C3B49557  14.807  17.320   6.924
 3769POPC   C4B49558  14.911  17.202   7.370
 3770POPC   NC349559   4.935   5.841   5.422
 3770POPC   PO449560   5.191   6.341   5.186
 3770POPC   GL149561   5.185   6.212   5.679
 3770POPC   GL249562   5.270   5.829   5.810
 3770POPC   C1A49563   5.121   6.189   6.160
 3770POPC   D2A49564   4.939   6.033   6.582
 3770POPC   C3A49565   5.121   6.020   7.024
 3770POPC   C4A49566   4.960   6.043   7.463
 3770POPC   C1B49567   5.076   5.658   6.214
 3770POPC   C2B49568   5.101   5.558   6.689
 3770POPC   C3B49569   5.191   5.507   7.139
 3770POPC   C4B49570   4.882   5.532   7.458
 3771POPC   NC349571  12.415  32.252   5.203
 3771POPC   PO449572  11.797  32.391   5.535
 3771POPC   GL149573  12.008  32.349   5.919
 3771POPC   GL249574  12.185  32.039   5.905
 3771POPC   C1A49575  12.256  32.339   6.326
 3771POPC   D2A49576  12.468  32.206   6.722
 3771POPC   C3A49577  12.206  32.274   7.102
 3771POPC   C4A49578  11.821  32.543   7.100
 3771POPC   C1B49579  11.845  31.964   6.241
 3771POPC   C2B49580  11.674  31.813   6.663
 3771POPC   C3B49581  11.885  31.737   7.042
 3771POPC   C4B49582  11.908  31.963   7.412
 3772POPC   NC349583  13.097   2.855   5.402
 3772POPC   PO449584  12.462   2.521   5.393
 3772POPC   GL149585  12.708   2.719   5.737
 3772POPC   GL249586  13.077   2.571   5.814
 3772POPC   C1A49587  12.750   2.751   6.183
 3772POPC   D2A49588  12.623   2.737   6.602
 3772POPC   C3A49589  12.942   2.797   6.858
 3772POPC   C4A49590  12.930   2.875   7.265
 3772POPC   C1B49591  13.122   2.392   6.224
 3772POPC   C2B49592  12.934   2.328   6.632
 3772POPC   C3B49593  12.959   2.323   7.103
 3772POPC   C4B49594  13.094   2.455   7.527
 3773POPC   NC349595  24.254  36.875   5.315
 3773POPC   PO449596  24.744  36.444   5.578
 3773POPC   GL149597  24.372  36.644   5.792
 3773POPC   GL249598  24.249  37.012   5.801
 3773POPC   C1A49599  24.300  36.678   6.236
 3773POPC   D2A49600  24.133  36.560   6.622
 3773POPC   C3A49601  24.401  36.706   6.970
 3773POPC   C4A49602  24.256  36.916   7.323
 3773POPC   C1B49603  24.485  37.160   6.171
 3773POPC   C2B49604  24.530  37.120   6.614
 3773POPC   C3B49605  24.293  37.263   6.960
 3773POPC   C4B49606  24.465  37.352   7.356
 3774POPC   NC349607  26.510   6.531   5.522
 3774POPC   PO449608  26.985   6.969   5.307
 3774POPC   GL149609  26.868   6.842   5.728
 3774POPC   GL249610  26.950   6.501   5.825
 3774POPC   C1A49611  26.639   6.786   6.135
 3774POPC   D2A49612  26.542   6.509   6.484
 3774POPC   C3A49613  26.574   6.696   6.871
 3774POPC   C4A49614  26.556   6.922   7.235
 3774POPC   C1B49615  26.954   6.311   6.212
 3774POPC   C2B49616  27.058   6.455   6.607
 3774POPC   C3B49617  26.928   6.299   6.974
 3774POPC   C4B49618  26.802   6.477   7.313
 3775POPC   NC349619  38.895  36.799   5.237
 3775POPC   PO449620  39.384  37.204   5.124
 3775POPC   GL149621  39.313  37.019   5.633
 3775POPC   GL249622  39.208  36.664   5.674
 3775POPC   C1A49623  39.100  36.973   6.098
 3775POPC   D2A49624  39.186  36.798   6.532
 3775POPC   C3A49625  39.203  37.062   6.923
 3775POPC   C4A49626  38.986  37.103   7.319
 3775POPC   C1B49627  39.544  36.760   6.030
 3775POPC   C2B49628  39.694  36.828   6.472
 3775POPC   C3B49629  39.589  36.697   6.902
 3775POPC   C4B49630  39.591  36.604   7.364
 3776POPC   NC349631  42.830   4.994   5.455
 3776POPC   PO449632  43.259   5.480   5.476
 3776POPC   GL149633  42.974   5.304   5.834
 3776POPC   GL249634  42.622   5.383   5.735
 3776POPC   C1A49635  42.978   4.917   6.122
 3776POPC   D2A49636  43.154   4.744   6.523
 3776POPC   C3A49637  43.327   5.041   6.830
 3776POPC   C4A49638  43.186   5.170   7.213
 3776POPC   C1B49639  42.512   5.333   6.160
 3776POPC   C2B49640  42.813   5.249   6.496
 3776POPC   C3B49641  42.889   5.429   6.891
 3776POPC   C4B49642  42.719   5.351   7.291
 3777POPC   NC349643  13.622  39.466   5.475
 3777POPC   PO449644  13.953  38.936   5.381
 3777POPC   GL149645  13.714  39.024   5.783
 3777POPC   GL249646  13.946  38.969   6.023
 3777POPC   C1A49647  13.446  39.222   6.151
 3777POPC   D2A49648  13.254  39.484   6.515
 3777POPC   C3A49649  13.420  39.413   6.890
 3777POPC   C4A49650  13.420  39.172   7.227
 3777POPC   C1B49651  13.938  39.411   6.107
 3777POPC   C2B49652  13.769  39.614   6.466
 3777POPC   C3B49653  13.914  39.518   6.883
 3777POPC   C4B49654  13.856  39.400   7.293
 3778POPC   NC349655  37.949  12.489   5.477
 3778POPC   PO449656  37.792  11.841   5.314
 3778POPC   GL149657  37.806  12.034   5.722
 3778POPC   GL249658  37.588  11.755   5.794
 3778POPC   C1A49659  37.610  12.214   6.115
 3778POPC   D2A49660  37.598  12.037   6.537
 3778POPC   C3A49661  37.388  12.084   6.919
 3778POPC   C4A49662  37.636  12.384   7.129
 3778POPC   C1B49663  37.749  11.697   6.185
 3778POPC   C2B49664  37.852  11.598   6.627
 3778POPC   C3B49665  37.847  11.876   6.995
 3778POPC   C4B49666  37.592  11.935   7.357
 3779POPC   NC349667  21.002  31.270   5.410
 3779POPC   PO449668  20.358  31.427   5.355
 3779POPC   GL149669  20.620  31.344   5.748
 3779POPC   GL249670  20.946  31.434   5.888
 3779POPC   C1A49671  20.538  31.484   6.199
 3779POPC   D2A49672  20.685  31.317   6.592
 3779POPC   C3A49673  20.462  31.465   6.960
 3779POPC   C4A49674  20.242  31.881   7.021
 3779POPC   C1B49675  21.007  31.701   6.250
 3779POPC   C2B49676  20.788  31.816   6.647
 3779POPC   C3B49677  20.788  31.819   7.101
 3779POPC   C4B49678  20.978  31.814   7.550
 3780POPC   NC349679  30.263  43.125   5.299
 3780POPC   PO449680  29.652  43.275   5.346
 3780POPC   GL149681  29.725  43.241   5.779
 3780POPC   GL249682  29.672  43.555   5.941
 3780POPC   C1A49683  29.980  43.206   6.150
 3780POPC   D2A49684  29.948  43.337   6.565
 3780POPC   C3A49685  29.980  42.991   6.857
 3780POPC   C4A49686  30.131  43.148   7.227
 3780POPC   C1B49687  29.487  43.427   6.332
 3780POPC   C2B49688  29.487  43.175   6.716
 3780POPC   C3B49689  29.632  43.267   7.138
 3780POPC   C4B49690  29.730  43.388   7.582
 3781POPC   NC349691  11.051  39.522   5.416
 3781POPC   PO449692  11.007  38.783   5.307
 3781POPC   GL149693  11.130  39.004   5.680
 3781POPC   GL249694  11.423  39.157   5.605
 3781POPC   C1A49695  11.379  38.972   6.095
 3781POPC   D2A49696  11.567  38.991   6.507
 3781POPC   C3A49697  11.241  38.937   6.825
 3781POPC   C4A49698  11.200  39.117   7.235
 3781POPC   C1B49699  11.396  39.463   5.974
 3781POPC   C2B49700  11.467  39.511   6.416
 3781POPC   C3B49701  11.451  39.409   6.857
 3781POPC   C4B49702  11.389  39.611   7.260
 3782POPC   NC349703  35.562   5.137   5.359
 3782POPC   PO449704  34.884   5.266   5.307
 3782POPC   GL149705  34.996   5.188   5.757
 3782POPC   GL249706  35.306   5.369   5.843
 3782POPC   C1A49707  35.240   4.880   6.040
 3782POPC   D2A49708  35.434   4.771   6.457
 3782POPC   C3A49709  35.374   5.020   6.837
 3782POPC   C4A49710  35.229   4.933   7.264
 3782POPC   C1B49711  35.467   5.293   6.285
 3782POPC   C2B49712  35.743   5.347   6.658
 3782POPC   C3B49713  35.617   5.403   7.097
 3782POPC   C4B49714  35.290   5.423   7.425
 3783POPC   NC349715  18.059  33.942   5.533
 3783POPC   PO449716  18.505  34.500   5.430
 3783POPC   GL149717  18.389  34.196   5.808
 3783POPC   GL249718  18.471  33.860   5.897
 3783POPC   C1A49719  18.075  34.049   6.173
 3783POPC   D2A49720  18.152  33.833   6.563
 3783POPC   C3A49721  18.057  34.003   6.971
 3783POPC   C4A49722  18.300  33.894   7.325
 3783POPC   C1B49723  18.578  33.645   6.279
 3783POPC   C2B49724  18.470  33.446   6.682
 3783POPC   C3B49725  18.161  33.489   7.005
 3783POPC   C4B49726  18.060  33.422   7.446
 3784POPC   NC349727  36.600  19.792   5.156
 3784POPC   PO449728  37.189  20.052   5.431
 3784POPC   GL149729  36.988  19.811   5.757
 3784POPC   GL249730  37.265  19.562   5.829
 3784POPC   C1A49731  36.733  19.880   6.145
 3784POPC   D2A49732  36.813  19.730   6.550
 3784POPC   C3A49733  36.703  19.828   6.978
 3784POPC   C4A49734  36.846  19.537   7.288
 3784POPC   C1B49735  37.244  19.764   6.228
 3784POPC   C2B49736  37.200  20.072   6.518
 3784POPC   C3B49737  37.193  19.878   6.887
 3784POPC   C4B49738  37.089  19.992   7.299
 3785POPC   NC349739  36.871  17.116   5.325
 3785POPC   PO449740  37.003  16.459   5.311
 3785POPC   GL149741  36.819  16.690   5.723
 3785POPC   GL249742  36.622  17.026   5.760
 3785POPC   C1A49743  36.983  16.765   6.143
 3785POPC   D2A49744  37.054  16.488   6.492
 3785POPC   C3A49745  36.941  16.711   6.845
 3785POPC   C4A49746  37.133  16.639   7.206
 3785POPC   C1B49747  36.490  16.785   6.118
 3785POPC   C2B49748  36.598  16.928   6.527
 3785POPC   C3B49749  36.431  16.850   6.952
 3785POPC   C4B49750  36.592  16.619   7.301
 3786POPC   NC349751  39.089  34.690   5.327
 3786POPC   PO449752  39.738  34.536   5.422
 3786POPC   GL149753  39.512  34.616   5.850
 3786POPC   GL249754  39.160  34.523   5.826
 3786POPC   C1A49755  39.387  34.606   6.316
 3786POPC   D2A49756  39.211  34.774   6.736
 3786POPC   C3A49757  39.423  34.623   7.158
 3786POPC   C4A49758  39.428  34.344   7.550
 3786POPC   C1B49759  38.905  34.725   6.166
 3786POPC   C2B49760  38.692  34.589   6.541
 3786POPC   C3B49761  38.718  34.747   6.948
 3786POPC   C4B49762  38.828  34.690   7.351
 3787POPC   NC349763  23.020   4.911   5.538
 3787POPC   PO449764  22.727   5.553   5.529
 3787POPC   GL149765  23.030   5.390   5.846
 3787POPC   GL249766  23.364   5.386   5.746
 3787POPC   C1A49767  23.015   5.333   6.299
 3787POPC   D2A49768  22.779   5.117   6.621
 3787POPC   C3A49769  22.993   4.976   6.997
 3787POPC   C4A49770  22.912   5.102   7.449
 3787POPC   C1B49771  23.509   5.311   6.168
 3787POPC   C2B49772  23.395   5.117   6.563
 3787POPC   C3B49773  23.376   5.326   6.927
 3787POPC   C4B49774  23.623   5.458   7.245
 3788POPC   NC349775  29.785  44.593   5.291
 3788POPC   PO449776  30.093   0.229   5.481
 3788POPC   GL149777  29.976   0.049   5.871
 3788POPC   GL249778  29.732  44.813   5.745
 3788POPC   C1A49779  29.945  44.659   6.177
 3788POPC   D2A49780  30.193  44.462   6.534
 3788POPC   C3A49781  30.020  44.570   6.948
 3788POPC   C4A49782  30.174  44.764   7.331
 3788POPC   C1B49783  29.545  44.996   6.111
 3788POPC   C2B49784  29.742   0.034   6.498
 3788POPC   C3B49785  29.696   0.044   6.932
 3788POPC   C4B49786  29.667  44.781   7.296
 3789POPC   NC349787  37.354  31.308   5.613
 3789POPC   PO449788  37.928  31.648   5.393
 3789POPC   GL149789  37.798  31.563   5.823
 3789POPC   GL249790  37.701  31.264   5.973
 3789POPC   C1A49791  37.736  31.675   6.282
 3789POPC   D2A49792  37.585  31.826   6.670
 3789POPC   C3A49793  37.730  31.471   6.855
 3789POPC   C4A49794  37.659  31.236   7.217
 3789POPC   C1B49795  37.347  31.190   6.280
 3789POPC   C2B49796  37.295  31.257   6.739
 3789POPC   C3B49797  37.149  31.170   7.152
 3789POPC   C4B49798  37.317  31.160   7.613
 3790POPC   NC349799  38.905   8.100   5.236
 3790POPC   PO449800  38.338   8.411   5.384
 3790POPC   GL149801  38.280   8.415   5.799
 3790POPC   GL249802  38.048   8.157   5.794
 3790POPC   C1A49803  38.479   8.593   6.164
 3790POPC   D2A49804  38.701   8.437   6.512
 3790POPC   C3A49805  38.432   8.237   6.787
 3790POPC   C4A49806  38.451   8.327   7.195
 3790POPC   C1B49807  37.856   7.953   6.144
 3790POPC   C2B49808  38.044   7.995   6.547
 3790POPC   C3B49809  38.036   7.757   6.917
 3790POPC   C4B49810  38.194   7.916   7.291
 3791POPC   NC349811  11.252  36.087   5.278
 3791POPC   PO449812  11.182  36.703   5.332
 3791POPC   GL149813  11.346  36.463   5.719
 3791POPC   GL249814  11.357  36.085   5.762
 3791POPC   C1A49815  11.197  36.351   6.150
 3791POPC   D2A49816  11.328  36.173   6.536
 3791POPC   C3A49817  11.152  36.282   6.892
 3791POPC   C4A49818  11.168  36.112   7.253
 3791POPC   C1B49819  11.496  35.906   6.132
 3791POPC   C2B49820  11.740  35.886   6.520
 3791POPC   C3B49821  11.532  35.851   6.963
 3791POPC   C4B49822  11.528  35.850   7.481
 3792POPC   NC349823  38.737  33.634   5.503
 3792POPC   PO449824  38.257  34.090   5.564
 3792POPC   GL149825  38.269  33.807   5.888
 3792POPC   GL249826  38.300  33.471   5.771
 3792POPC   C1A49827  38.422  33.796   6.304
 3792POPC   D2A49828  38.745  33.881   6.595
 3792POPC   C3A49829  38.615  34.063   7.002
 3792POPC   C4A49830  38.592  34.101   7.472
 3792POPC   C1B49831  38.607  33.363   6.092
 3792POPC   C2B49832  38.661  33.352   6.527
 3792POPC   C3B49833  38.623  33.515   6.931
 3792POPC   C4B49834  38.470  33.647   7.293
 3793POPC   NC349835  12.339  17.705   5.461
 3793POPC   PO449836  12.040  17.213   5.291
 3793POPC   GL149837  12.171  17.296   5.759
 3793POPC   GL249838  12.084  17.618   5.889
 3793POPC   C1A49839  12.059  17.243   6.244
 3793POPC   D2A49840  12.199  17.294   6.665
 3793POPC   C3A49841  12.051  17.436   7.041
 3793POPC   C4A49842  11.692  17.472   7.274
 3793POPC   C1B49843  11.919  17.739   6.279
 3793POPC   C2B49844  12.117  17.818   6.654
 3793POPC   C3B49845  11.991  17.984   7.000
 3793POPC   C4B49846  12.006  17.841   7.386
 3794POPC   NC349847  20.345  43.891   5.455
 3794POPC   PO449848  21.056  43.825   5.490
 3794POPC   GL149849  20.710  43.753   5.779
 3794POPC   GL249850  20.785  44.082   5.889
 3794POPC   C1A49851  20.452  43.702   6.177
 3794POPC   D2A49852  20.271  43.859   6.570
 3794POPC   C3A49853  20.582  43.968   6.890
 3794POPC   C4A49854  20.574  44.161   7.274
 3794POPC   C1B49855  20.960  43.779   6.212
 3794POPC   C2B49856  20.784  43.601   6.560
 3794POPC   C3B49857  20.921  43.552   6.960
 3794POPC   C4B49858  20.850  43.751   7.335
 3795POPC   NC349859  39.720   3.709   5.372
 3795POPC   PO449860  40.268   3.303   5.584
 3795POPC   GL149861  40.090   3.688   5.811
 3795POPC   GL249862  39.890   3.443   5.930
 3795POPC   C1A49863  39.874   3.827   6.254
 3795POPC   D2A49864  40.059   3.743   6.684
 3795POPC   C3A49865  39.952   3.718   7.126
 3795POPC   C4A49866  40.114   3.617   7.560
 3795POPC   C1B49867  40.247   3.471   6.277
 3795POPC   C2B49868  40.231   3.281   6.726
 3795POPC   C3B49869  40.253   3.292   7.173
 3795POPC   C4B49870  40.108   3.087   7.543
 3796POPC   NC349871  39.813  20.378   5.480
 3796POPC   PO449872  40.063  20.964   5.536
 3796POPC   GL149873  40.025  20.702   5.878
 3796POPC   GL249874  40.325  20.530   6.003
 3796POPC   C1A49875  39.987  20.805   6.318
 3796POPC   D2A49876  40.278  20.943   6.621
 3796POPC   C3A49877  40.310  20.773   7.038
 3796POPC   C4A49878  39.960  20.655   7.305
 3796POPC   C1B49879  40.079  20.313   6.279
 3796POPC   C2B49880  40.032  20.443   6.693
 3796POPC   C3B49881  39.986  20.222   7.036
 3796POPC   C4B49882  40.244  20.169   7.382
 3797POPC   NC349883   7.028  14.643   5.624
 3797POPC   PO449884   6.362  14.474   5.339
 3797POPC   GL149885   6.372  14.280   5.735
 3797POPC   GL249886   6.679  14.047   5.773
 3797POPC   C1A49887   6.561  14.414   6.125
 3797POPC   D2A49888   6.657  14.669   6.471
 3797POPC   C3A49889   6.694  14.596   6.897
 3797POPC   C4A49890   6.447  14.489   7.261
 3797POPC   C1B49891   6.814  13.979   6.245
 3797POPC   C2B49892   6.900  14.153   6.699
 3797POPC   C3B49893   6.863  14.199   7.180
 3797POPC   C4B49894   6.820  13.869   7.521
 3798POPC   NC349895  42.621  14.968   5.364
 3798POPC   PO449896  42.316  15.630   5.324
 3798POPC   GL149897  42.470  15.365   5.687
 3798POPC   GL249898  42.493  15.013   5.861
 3798POPC   C1A49899  42.490  15.470   6.134
 3798POPC   D2A49900  42.483  15.215   6.510
 3798POPC   C3A49901  42.332  15.326   6.930
 3798POPC   C4A49902  42.549  15.308   7.301
 3798POPC   C1B49903  42.300  14.760   6.199
 3798POPC   C2B49904  42.487  14.722   6.603
 3798POPC   C3B49905  42.583  14.880   6.971
 3798POPC   C4B49906  42.294  14.848   7.218
 3799POPC   NC349907  38.875  39.036   5.684
 3799POPC   PO449908  38.389  39.248   5.200
 3799POPC   GL149909  38.376  39.106   5.638
 3799POPC   GL249910  38.431  39.436   5.797
 3799POPC   C1A49911  38.280  39.079   6.125
 3799POPC   D2A49912  38.194  39.265   6.570
 3799POPC   C3A49913  38.416  39.147   7.007
 3799POPC   C4A49914  38.547  39.112   7.465
 3799POPC   C1B49915  38.104  39.587   6.145
 3799POPC   C2B49916  37.967  39.752   6.571
 3799POPC   C3B49917  38.030  39.552   6.984
 3799POPC   C4B49918  38.284  39.536   7.364
 3800POPC   NC349919   4.814  15.393   5.506
 3800POPC   PO449920   5.258  14.993   5.237
 3800POPC   GL149921   5.114  15.018   5.684
 3800POPC   GL249922   5.456  14.969   5.775
 3800POPC   C1A49923   5.053  15.206   6.145
 3800POPC   D2A49924   4.927  15.178   6.614
 3800POPC   C3A49925   5.242  15.243   6.966
 3800POPC   C4A49926   5.346  15.571   7.269
 3800POPC   C1B49927   5.246  14.735   6.102
 3800POPC   C2B49928   5.319  14.835   6.532
 3800POPC   C3B49929   5.544  14.697   6.885
 3800POPC   C4B49930   5.420  14.847   7.260
 3801POPC   NC349931  29.083   4.962   5.241
 3801POPC   PO449932  28.607   5.243   5.685
 3801POPC   GL149933  28.980   5.209   5.876
 3801POPC   GL249934  29.295   5.072   5.799
 3801POPC   C1A49935  29.081   5.239   6.264
 3801POPC   D2A49936  29.139   5.063   6.622
 3801POPC   C3A49937  28.965   5.274   6.948
 3801POPC   C4A49938  29.126   5.216   7.327
 3801POPC   C1B49939  29.526   5.018   6.195
 3801POPC   C2B49940  29.696   5.143   6.575
 3801POPC   C3B49941  29.499   5.120   6.966
 3801POPC   C4B49942  29.624   5.229   7.346
 3802POPC   NC349943  22.299  29.339   5.335
 3802POPC   PO449944  21.662  29.234   5.376
 3802POPC   GL149945  21.908  29.061   5.773
 3802POPC   GL249946  22.295  29.161   5.811
 3802POPC   C1A49947  22.052  29.022   6.243
 3802POPC   D2A49948  22.196  29.183   6.635
 3802POPC   C3A49949  22.051  28.926   6.982
 3802POPC   C4A49950  21.829  28.829   7.364
 3802POPC   C1B49951  22.492  28.829   6.068
 3802POPC   C2B49952  22.483  28.773   6.513
 3802POPC   C3B49953  22.584  28.979   6.897
 3802POPC   C4B49954  22.458  28.863   7.291
 3803POPC   NC349955  41.246  24.934   5.422
 3803POPC   PO449956  40.880  25.456   5.171
 3803POPC   GL149957  40.913  25.322   5.640
 3803POPC   GL249958  40.888  24.975   5.794
 3803POPC   C1A49959  40.772  25.425   6.078
 3803POPC   D2A49960  40.898  25.544   6.509
 3803POPC   C3A49961  40.781  25.317   6.912
 3803POPC   C4A49962  40.730  25.516   7.307
 3803POPC   C1B49963  41.126  24.868   6.191
 3803POPC   C2B49964  41.249  24.745   6.644
 3803POPC   C3B49965  41.051  24.856   7.057
 3803POPC   C4B49966  40.639  24.654   7.200
 3804POPC   NC349967  15.379  27.667   5.412
 3804POPC   PO449968  14.828  27.400   5.215
 3804POPC   GL149969  15.025  27.427   5.695
 3804POPC   GL249970  15.357  27.261   5.738
 3804POPC   C1A49971  15.033  27.657   6.123
 3804POPC   D2A49972  14.948  27.859   6.543
 3804POPC   C3A49973  15.128  27.730   6.938
 3804POPC   C4A49974  15.279  27.511   7.299
 3804POPC   C1B49975  15.138  27.149   6.148
 3804POPC   C2B49976  15.068  27.231   6.627
 3804POPC   C3B49977  15.243  27.084   7.042
 3804POPC   C4B49978  15.288  27.081   7.543
 3805POPC   NC349979  12.232  14.228   5.504
 3805POPC   PO449980  12.464  14.888   5.480
 3805POPC   GL149981  12.294  14.630   5.864
 3805POPC   GL249982  11.953  14.664   5.975
 3805POPC   C1A49983  12.216  14.352   6.262
 3805POPC   D2A49984  11.974  14.291   6.662
 3805POPC   C3A49985  12.196  14.287   7.060
 3805POPC   C4A49986  12.533  13.982   7.197
 3805POPC   C1B49987  12.006  14.846   6.320
 3805POPC   C2B49988  11.855  14.782   6.726
 3805POPC   C3B49989  12.035  14.888   7.093
 3805POPC   C4B49990  12.272  14.700   7.404
 3806POPC   NC349991  14.780  24.615   5.075
 3806POPC   PO449992  14.209  24.408   5.454
 3806POPC   GL149993  14.344  24.267   5.839
 3806POPC   GL249994  14.707  24.243   5.867
 3806POPC   C1A49995  14.134  24.312   6.241
 3806POPC   D2A49996  14.168  24.602   6.579
 3806POPC   C3A49997  14.085  24.456   7.004
 3806POPC   C4A49998  14.273  24.475   7.412
 3806POPC   C1B49999  14.628  24.503   6.231
 3806POPC   C2B50000  14.710  24.671   6.622
 3806POPC   C3B50001  14.586  24.583   7.010
 3806POPC   C4B50002  14.720  24.701   7.389
 3807POPC   NC350003  34.667  15.574   5.592
 3807POPC   PO450004  34.902  14.955   5.453
 3807POPC   GL150005  34.680  15.109   5.795
 3807POPC   GL250006  34.313  15.178   5.756
 3807POPC   C1A50007  34.636  15.322   6.205
 3807POPC   D2A50008  34.662  15.508   6.625
 3807POPC   C3A50009  34.768  15.204   6.973
 3807POPC   C4A50010  34.999  14.882   7.276
 3807POPC   C1B50011  34.126  15.136   6.172
 3807POPC   C2B50012  33.956  15.179   6.597
 3807POPC   C3B50013  34.138  15.326   6.969
 3807POPC   C4B50014  34.416  15.651   7.054
 3808POPC   NC350015   3.711  26.548   5.200
 3808POPC   PO450016   3.707  27.108   5.447
 3808POPC   GL150017   3.599  26.936   5.845
 3808POPC   GL250018   3.485  26.577   5.838
 3808POPC   C1A50019   3.695  26.912   6.260
 3808POPC   D2A50020   3.910  27.062   6.635
 3808POPC   C3A50021   3.794  26.949   7.067
 3808POPC   C4A50022   3.663  27.075   7.516
 3808POPC   C1B50023   3.212  26.737   6.203
 3808POPC   C2B50024   3.370  26.915   6.641
 3808POPC   C3B50025   3.279  26.962   7.081
 3808POPC   C4B50026   3.452  26.631   7.371
 3809POPC   NC350027   6.915  22.173   5.307
 3809POPC   PO450028   6.328  21.921   5.443
 3809POPC   GL150029   6.616  22.103   5.769
 3809POPC   GL250030   7.001  22.159   5.815
 3809POPC   C1A50031   6.540  22.270   6.199
 3809POPC   D2A50032   6.353  22.105   6.609
 3809POPC   C3A50033   6.586  22.258   6.992
 3809POPC   C4A50034   6.681  22.214   7.436
 3809POPC   C1B50035   6.991  21.999   6.257
 3809POPC   C2B50036   6.949  21.985   6.741
 3809POPC   C3B50037   6.750  21.777   7.123
 3809POPC   C4B50038   6.581  21.650   7.535
 3810POPC   NC350039  18.845  16.927   5.461
 3810POPC   PO450040  19.155  16.371   5.472
 3810POPC   GL150041  19.006  16.482   5.868
 3810POPC   GL250042  18.954  16.837   5.947
 3810POPC   C1A50043  19.182  16.473   6.285
 3810POPC   D2A50044  19.399  16.566   6.688
 3810POPC   C3A50045  19.157  16.723   7.047
 3810POPC   C4A50046  18.910  16.622   7.393
 3810POPC   C1B50047  18.759  16.843   6.331
 3810POPC   C2B50048  18.852  16.591   6.643
 3810POPC   C3B50049  18.684  16.475   6.966
 3810POPC   C4B50050  18.591  16.898   7.088
 3811POPC   NC350051   9.444  42.004   5.293
 3811POPC   PO450052   9.830  41.484   5.426
 3811POPC   GL150053   9.802  41.326   5.838
 3811POPC   GL250054   9.922  41.658   5.936
 3811POPC   C1A50055   9.875  41.246   6.272
 3811POPC   D2A50056   9.803  41.564   6.576
 3811POPC   C3A50057   9.878  41.451   7.024
 3811POPC   C4A50058   9.934  41.434   7.476
 3811POPC   C1B50059   9.564  41.833   6.145
 3811POPC   C2B50060   9.552  42.056   6.543
 3811POPC   C3B50061   9.547  41.835   6.923
 3811POPC   C4B50062   9.459  41.597   7.282
 3812POPC   NC350063   0.419   7.032   5.578
 3812POPC   PO450064   0.758   7.553   5.355
 3812POPC   GL150065   0.484   7.534   5.748
 3812POPC   GL250066   0.242   7.818   5.822
 3812POPC   C1A50067   0.407   7.357   6.161
 3812POPC   D2A50068   0.379   7.147   6.553
 3812POPC   C3A50069   0.511   7.367   6.922
 3812POPC   C4A50070   0.589   7.239   7.302
 3812POPC   C1B50071   0.102   7.744   6.243
 3812POPC   C2B50072   0.130   7.595   6.652
 3812POPC   C3B50073   0.168   7.768   7.055
 3812POPC   C4B50074   0.008   7.723   7.429
 3813POPC   NC350075  25.943  19.102   5.020
 3813POPC   PO450076  26.542  19.081   5.353
 3813POPC   GL150077  26.298  19.001   5.712
 3813POPC   GL250078  26.129  19.324   5.696
 3813POPC   C1A50079  26.102  18.969   6.125
 3813POPC   D2A50080  26.291  19.045   6.516
 3813POPC   C3A50081  26.207  18.823   6.867
 3813POPC   C4A50082  25.869  18.877   7.135
 3813POPC   C1B50083  25.853  19.429   6.031
 3813POPC   C2B50084  25.849  19.320   6.463
 3813POPC   C3B50085  26.033  19.337   6.868
 3813POPC   C4B50086  26.252  19.182   7.243
 3814POPC   NC350087  25.201   9.665   5.211
 3814POPC   PO450088  25.363  10.304   5.391
 3814POPC   GL150089  25.375   9.963   5.730
 3814POPC   GL250090  25.270   9.585   5.719
 3814POPC   C1A50091  25.207   9.834   6.154
 3814POPC   D2A50092  24.928   9.742   6.479
 3814POPC   C3A50093  25.162   9.702   6.827
 3814POPC   C4A50094  25.103   9.788   7.236
 3814POPC   C1B50095  25.503   9.362   6.074
 3814POPC   C2B50096  25.459   9.436   6.504
 3814POPC   C3B50097  25.582   9.309   6.901
 3814POPC   C4B50098  25.596   9.323   7.328
 3815POPC   NC350099  12.080  36.417   5.550
 3815POPC   PO450100  12.413  35.934   5.238
 3815POPC   GL150101  12.180  35.895   5.648
 3815POPC   GL250102  11.849  35.996   5.738
 3815POPC   C1A50103  12.124  35.853   6.134
 3815POPC   D2A50104  12.260  35.788   6.570
 3815POPC   C3A50105  12.048  36.040   6.894
 3815POPC   C4A50106  12.232  35.928   7.263
 3815POPC   C1B50107  11.788  36.317   6.105
 3815POPC   C2B50108  11.798  36.400   6.536
 3815POPC   C3B50109  11.625  36.486   6.890
 3815POPC   C4B50110  11.679  36.257   7.216
 3816POPC   NC350111   8.747   7.345   5.305
 3816POPC   PO450112   9.205   7.788   5.302
 3816POPC   GL150113   9.038   7.537   5.702
 3816POPC   GL250114   9.015   7.160   5.793
 3816POPC   C1A50115   8.847   7.530   6.133
 3816POPC   D2A50116   8.884   7.408   6.567
 3816POPC   C3A50117   8.781   7.605   6.954
 3816POPC   C4A50118   8.765   7.465   7.383
 3816POPC   C1B50119   9.108   7.051   6.257
 3816POPC   C2B50120   9.348   7.229   6.648
 3816POPC   C3B50121   9.216   7.298   7.106
 3816POPC   C4B50122   9.251   7.361   7.577
 3817POPC   NC350123  12.283  15.678   5.360
 3817POPC   PO450124  12.389  16.365   5.431
 3817POPC   GL150125  12.269  16.042   5.720
 3817POPC   GL250126  11.921  15.985   5.592
 3817POPC   C1A50127  12.159  16.053   6.158
 3817POPC   D2A50128  12.015  16.196   6.549
 3817POPC   C3A50129  12.264  16.033   6.868
 3817POPC   C4A50130  12.091  15.989   7.232
 3817POPC   C1B50131  11.761  15.809   5.970
 3817POPC   C2B50132  11.802  15.737   6.414
 3817POPC   C3B50133  11.978  15.599   6.798
 3817POPC   C4B50134  11.915  15.518   7.228
 3818POPC   NC350135  18.358  37.772   5.418
 3818POPC   PO450136  17.922  37.218   5.606
 3818POPC   GL150137  18.139  37.532   5.825
 3818POPC   GL250138  18.032  37.880   5.834
 3818POPC   C1A50139  18.349  37.545   6.217
 3818POPC   D2A50140  18.601  37.496   6.589
 3818POPC   C3A50141  18.464  37.589   7.004
 3818POPC   C4A50142  18.549  37.856   7.343
 3818POPC   C1B50143  18.092  38.006   6.239
 3818POPC   C2B50144  18.192  37.821   6.621
 3818POPC   C3B50145  18.026  37.879   6.997
 3818POPC   C4B50146  18.078  37.665   7.371
 3819POPC   NC350147  40.079  27.241   5.189
 3819POPC   PO450148  39.770  27.656   5.591
 3819POPC   GL150149  39.961  27.343   5.821
 3819POPC   GL250150  40.271  27.406   5.743
 3819POPC   C1A50151  39.909  27.289   6.245
 3819POPC   D2A50152  39.836  27.583   6.577
 3819POPC   C3A50153  39.891  27.439   6.992
 3819POPC   C4A50154  39.778  27.565   7.363
 3819POPC   C1B50155  40.290  27.607   6.187
 3819POPC   C2B50156  40.390  27.734   6.594
 3819POPC   C3B50157  40.135  27.884   6.887
 3819POPC   C4B50158  40.223  27.786   7.270
 3820POPC   NC350159  19.338  37.959   5.348
 3820POPC   PO450160  18.806  37.612   5.355
 3820POPC   GL150161  18.678  37.586   5.801
 3820POPC   GL250162  18.541  37.903   5.898
 3820POPC   C1A50163  18.913  37.634   6.195
 3820POPC   D2A50164  19.084  37.665   6.619
 3820POPC   C3A50165  18.975  37.396   6.963
 3820POPC   C4A50166  19.365  37.197   7.090
 3820POPC   C1B50167  18.580  37.989   6.337
 3820POPC   C2B50168  18.808  38.089   6.673
 3820POPC   C3B50169  18.953  37.934   7.052
 3820POPC   C4B50170  19.250  37.690   7.278
 3821POPC   NC350171  21.390   1.034   5.596
 3821POPC   PO450172  21.020   1.619   5.478
 3821POPC   GL150173  21.196   1.424   5.833
 3821POPC   GL250174  20.997   1.159   5.873
 3821POPC   C1A50175  21.447   1.240   6.205
 3821POPC   D2A50176  21.693   1.130   6.567
 3821POPC   C3A50177  21.519   0.985   6.961
 3821POPC   C4A50178  21.535   1.223   7.358
 3821POPC   C1B50179  21.026   0.981   6.218
 3821POPC   C2B50180  21.078   1.065   6.596
 3821POPC   C3B50181  20.975   0.802   6.886
 3821POPC   C4B50182  21.104   0.982   7.264
 3822POPC   NC350183  39.055  11.910   5.387
 3822POPC   PO450184  39.066  12.559   5.225
 3822POPC   GL150185  38.974  12.374   5.649
 3822POPC   GL250186  39.190  12.110   5.826
 3822POPC   C1A50187  38.892  12.382   6.106
 3822POPC   D2A50188  39.068  12.122   6.427
 3822POPC   C3A50189  39.029  12.217   6.858
 3822POPC   C4A50190  39.251  12.163   7.249
 3822POPC   C1B50191  39.456  11.904   6.143
 3822POPC   C2B50192  39.389  11.663   6.478
 3822POPC   C3B50193  39.365  11.821   6.866
 3822POPC   C4B50194  39.569  11.743   7.245
 3823POPC   NC350195  23.150  30.754   5.387
 3823POPC   PO450196  22.544  30.414   5.552
 3823POPC   GL150197  22.906  30.454   5.776
 3823POPC   GL250198  22.942  30.783   5.863
 3823POPC   C1A50199  23.111  30.422   6.184
 3823POPC   D2A50200  23.258  30.532   6.582
 3823POPC   C3A50201  22.959  30.511   6.913
 3823POPC   C4A50202  23.094  30.562   7.346
 3823POPC   C1B50203  22.884  30.971   6.250
 3823POPC   C2B50204  22.661  30.895   6.615
 3823POPC   C3B50205  22.534  30.767   7.005
 3823POPC   C4B50206  22.869  30.986   7.136
 3824POPC   NC350207  28.707  28.932   5.018
 3824POPC   PO450208  29.260  29.215   5.469
 3824POPC   GL150209  29.266  28.983   5.849
 3824POPC   GL250210  28.949  29.086   5.981
 3824POPC   C1A50211  29.221  28.824   6.286
 3824POPC   D2A50212  29.029  28.904   6.674
 3824POPC   C3A50213  29.237  28.868   7.057
 3824POPC   C4A50214  29.280  29.104   7.434
 3824POPC   C1B50215  29.044  29.327   6.338
 3824POPC   C2B50216  29.074  29.436   6.761
 3824POPC   C3B50217  29.178  29.513   7.150
 3824POPC   C4B50218  28.893  29.406   7.502
 3825POPC   NC350219  41.324   9.060   5.443
 3825POPC   PO450220  41.899   8.649   5.491
 3825POPC   GL150221  41.597   8.751   5.817
 3825POPC   GL250222  41.274   8.619   5.698
 3825POPC   C1A50223  41.620   8.923   6.263
 3825POPC   D2A50224  41.917   9.006   6.632
 3825POPC   C3A50225  41.737   9.146   7.029
 3825POPC   C4A50226  41.681   8.858   7.365
 3825POPC   C1B50227  41.157   8.722   6.101
 3825POPC   C2B50228  41.300   8.585   6.507
 3825POPC   C3B50229  41.454   8.733   6.886
 3825POPC   C4B50230  41.204   8.984   7.191
 3826POPC   NC350231  12.734  29.660   5.382
 3826POPC   PO450232  12.631  30.294   5.607
 3826POPC   GL150233  12.678  29.981   5.888
 3826POPC   GL250234  12.956  29.810   5.812
 3826POPC   C1A50235  12.825  30.006   6.305
 3826POPC   D2A50236  13.073  30.125   6.666
 3826POPC   C3A50237  12.976  29.957   7.084
 3826POPC   C4A50238  12.939  29.949   7.552
 3826POPC   C1B50239  12.979  29.535   6.142
 3826POPC   C2B50240  13.035  29.618   6.578
 3826POPC   C3B50241  13.254  29.494   6.929
 3826POPC   C4B50242  13.226  29.591   7.352
 3827POPC   NC350243  40.329  12.698   5.518
 3827POPC   PO450244  40.990  12.855   5.473
 3827POPC   GL150245  40.854  12.842   5.887
 3827POPC   GL250246  41.082  12.609   6.040
 3827POPC   C1A50247  40.579  12.605   6.163
 3827POPC   D2A50248  40.650  12.420   6.570
 3827POPC   C3A50249  40.722  12.587   6.972
 3827POPC   C4A50250  40.791  12.396   7.360
 3827POPC   C1B50251  40.981  12.832   6.443
 3827POPC   C2B50252  40.763  13.075   6.771
 3827POPC   C3B50253  40.523  13.023   7.160
 3827POPC   C4B50254  40.884  12.891   7.386
 3828POPC   NC350255   0.865   8.446   5.402
 3828POPC   PO450256   1.385   7.999   5.267
 3828POPC   GL150257   1.230   8.113   5.720
 3828POPC   GL250258   1.194   8.494   5.809
 3828POPC   C1A50259   1.155   7.930   6.156
 3828POPC   D2A50260   1.177   7.763   6.582
 3828POPC   C3A50261   1.141   8.022   6.934
 3828POPC   C4A50262   1.266   8.036   7.363
 3828POPC   C1B50263   0.861   8.358   6.105
 3828POPC   C2B50264   0.838   8.184   6.524
 3828POPC   C3B50265   0.751   8.350   6.935
 3828POPC   C4B50266   0.789   8.212   7.370
 3829POPC   NC350267  38.285  25.583   5.560
 3829POPC   PO450268  38.594  25.114   5.178
 3829POPC   GL150269  38.734  25.227   5.647
 3829POPC   GL250270  38.389  25.194   5.858
 3829POPC   C1A50271  38.792  25.166   6.125
 3829POPC   D2A50272  38.455  25.039   6.402
 3829POPC   C3A50273  38.426  25.156   6.834
 3829POPC   C4A50274  38.632  25.237   7.218
 3829POPC   C1B50275  38.442  25.529   6.204
 3829POPC   C2B50276  38.305  25.606   6.622
 3829POPC   C3B50277  38.362  25.642   7.091
 3829POPC   C4B50278  38.284  25.477   7.541
 3830POPC   NC350279  32.024  40.981   5.006
 3830POPC   PO450280  32.320  40.583   5.559
 3830POPC   GL150281  32.194  40.818   5.894
 3830POPC   GL250282  31.872  40.982   5.822
 3830POPC   C1A50283  32.178  40.561   6.245
 3830POPC   D2A50284  32.256  40.283   6.556
 3830POPC   C3A50285  32.329  40.516   6.894
 3830POPC   C4A50286  32.047  40.768   7.106
 3830POPC   C1B50287  31.914  41.020   6.285
 3830POPC   C2B50288  32.210  40.941   6.610
 3830POPC   C3B50289  32.492  41.027   6.940
 3830POPC   C4B50290  32.344  41.152   7.350
 3831POPC   NC350291  42.652  33.049   5.462
 3831POPC   PO450292  41.976  33.025   5.568
 3831POPC   GL150293  42.262  32.864   5.823
 3831POPC   GL250294  42.432  33.186   5.892
 3831POPC   C1A50295  42.237  32.889   6.251
 3831POPC   D2A50296  42.289  33.156   6.584
 3831POPC   C3A50297  42.175  32.962   6.954
 3831POPC   C4A50298  42.170  33.142   7.317
 3831POPC   C1B50299  42.714  32.948   6.172
 3831POPC   C2B50300  42.780  32.918   6.610
 3831POPC   C3B50301  42.643  33.155   6.983
 3831POPC   C4B50302  42.633  32.952   7.384
 3832POPC   NC350303  16.108  35.515   5.270
 3832POPC   PO450304  15.425  35.345   5.250
 3832POPC   GL150305  15.744  35.264   5.591
 3832POPC   GL250306  15.550  35.008   5.780
 3832POPC   C1A50307  15.884  35.248   6.058
 3832POPC   D2A50308  15.792  35.356   6.487
 3832POPC   C3A50309  16.082  35.288   6.847
 3832POPC   C4A50310  16.163  35.448   7.280
 3832POPC   C1B50311  15.425  35.085   6.245
 3832POPC   C2B50312  15.440  35.057   6.708
 3832POPC   C3B50313  15.712  34.995   7.046
 3832POPC   C4B50314  15.737  35.142   7.455
 3833POPC   NC350315  18.825  44.410   5.346
 3833POPC   PO450316  19.229  44.979   5.334
 3833POPC   GL150317  19.145  44.972   5.759
 3833POPC   GL250318  18.962  44.668   5.779
 3833POPC   C1A50319  19.184   0.021   6.192
 3833POPC   D2A50320  19.159  44.763   6.546
 3833POPC   C3A50321  19.348  44.899   6.907
 3833POPC   C4A50322  19.124   0.029   7.273
 3833POPC   C1B50323  19.186  44.450   6.108
 3833POPC   C2B50324  19.296  44.280   6.527
 3833POPC   C3B50325  19.174  44.401   6.956
 3833POPC   C4B50326  19.025  44.305   7.372
 3834POPC   NC350327  14.852  22.211   4.981
 3834POPC   PO450328  14.565  22.593   5.337
 3834POPC   GL150329  14.289  22.565   5.760
 3834POPC   GL250330  14.119  22.230   5.848
 3834POPC   C1A50331  14.298  22.494   6.253
 3834POPC   D2A50332  14.588  22.514   6.628
 3834POPC   C3A50333  14.586  22.293   7.046
 3834POPC   C4A50334  14.730  21.884   7.225
 3834POPC   C1B50335  14.133  22.011   6.295
 3834POPC   C2B50336  14.201  22.143   6.746
 3834POPC   C3B50337  14.206  21.957   7.185
 3834POPC   C4B50338  14.381  21.711   7.564
 3835POPC   NC350339  33.999  41.592   5.332
 3835POPC   PO450340  33.428  42.008   5.182
 3835POPC   GL150341  33.718  41.849   5.638
 3835POPC   GL250342  33.777  41.496   5.789
 3835POPC   C1A50343  33.816  41.837   6.143
 3835POPC   D2A50344  34.106  41.856   6.529
 3835POPC   C3A50345  33.953  41.660   6.898
 3835POPC   C4A50346  34.037  41.319   7.235
 3835POPC   C1B50347  33.907  41.221   6.131
 3835POPC   C2B50348  34.003  41.303   6.549
 3835POPC   C3B50349  33.689  41.234   6.889
 3835POPC   C4B50350  33.593  41.569   7.258
 3836POPC   NC350351  23.124  13.511   5.157
 3836POPC   PO450352  22.736  13.986   5.516
 3836POPC   GL150353  22.945  13.905   5.934
 3836POPC   GL250354  22.923  13.542   6.036
 3836POPC   C1A50355  23.249  13.860   6.297
 3836POPC   D2A50356  23.345  13.618   6.656
 3836POPC   C3A50357  23.193  13.807   7.029
 3836POPC   C4A50358  22.884  13.731   7.307
 3836POPC   C1B50359  23.271  13.326   6.256
 3836POPC   C2B50360  23.220  13.110   6.652
 3836POPC   C3B50361  23.030  13.290   7.014
 3836POPC   C4B50362  23.133  13.316   7.437
 3837POPC   NC350363  39.685  43.450   5.528
 3837POPC   PO450364  40.152  43.011   5.186
 3837POPC   GL150365  40.084  42.893   5.639
 3837POPC   GL250366  39.766  42.719   5.750
 3837POPC   C1A50367  40.072  42.998   6.102
 3837POPC   D2A50368  39.802  43.017   6.499
 3837POPC   C3A50369  39.887  43.310   6.862
 3837POPC   C4A50370  40.185  43.430   7.197
 3837POPC   C1B50371  39.799  42.567   6.204
 3837POPC   C2B50372  40.180  42.607   6.468
 3837POPC   C3B50373  40.259  42.929   6.794
 3837POPC   C4B50374  40.039  42.904   7.170
 3838POPC   NC350375  31.253  42.419   5.255
 3838POPC   PO450376  30.586  42.394   5.495
 3838POPC   GL150377  30.564  42.223   5.876
 3838POPC   GL250378  30.932  42.264   5.872
 3838POPC   C1A50379  30.451  42.055   6.263
 3838POPC   D2A50380  30.597  42.271   6.628
 3838POPC   C3A50381  30.863  42.126   6.918
 3838POPC   C4A50382  30.576  42.259   7.243
 3838POPC   C1B50383  30.859  42.487   6.247
 3838POPC   C2B50384  30.880  42.760   6.614
 3838POPC   C3B50385  30.975  42.621   7.046
 3838POPC   C4B50386  30.730  42.714   7.421
 3839POPC   NC350387  38.220   3.189   5.322
 3839POPC   PO450388  38.818   3.508   5.395
 3839POPC   GL150389  38.469   3.492   5.678
 3839POPC   GL250390  38.192   3.748   5.724
 3839POPC   C1A50391  38.352   3.364   6.083
 3839POPC   D2A50392  38.258   3.416   6.526
 3839POPC   C3A50393  38.557   3.336   6.811
 3839POPC   C4A50394  38.405   3.383   7.190
 3839POPC   C1B50395  38.284   3.885   6.193
 3839POPC   C2B50396  38.543   3.862   6.608
 3839POPC   C3B50397  38.562   3.839   7.079
 3839POPC   C4B50398  38.742   3.748   7.494
 3840POPC   NC350399  13.932   3.656   5.262
 3840POPC   PO450400  13.354   3.289   5.310
 3840POPC   GL150401  13.607   3.446   5.707
 3840POPC   GL250402  13.655   3.827   5.814
 3840POPC   C1A50403  13.447   3.462   6.155
 3840POPC   D2A50404  13.558   3.554   6.585
 3840POPC   C3A50405  13.345   3.770   6.891
 3840POPC   C4A50406  13.315   3.489   7.217
 3840POPC   C1B50407  13.887   3.757   6.234
 3840POPC   C2B50408  14.042   3.710   6.674
 3840POPC   C3B50409  13.816   3.681   7.085
 3840POPC   C4B50410  13.769   3.832   7.519
 3841POPC   NC350411   9.321  43.834   5.421
 3841POPC   PO450412   9.801  43.690   5.161
 3841POPC   GL150413   9.886  43.534   5.659
 3841POPC   GL250414  10.247  43.490   5.792
 3841POPC   C1A50415   9.896  43.400   6.154
 3841POPC   D2A50416   9.683  43.647   6.516
 3841POPC   C3A50417   9.709  43.559   6.962
 3841POPC   C4A50418   9.628  43.813   7.373
 3841POPC   C1B50419  10.295  43.695   6.243
 3841POPC   C2B50420  10.156  43.704   6.695
 3841POPC   C3B50421  10.027  43.956   7.080
 3841POPC   C4B50422   9.966  44.168   7.505
 3842POPC   NC350423  44.908  42.810   5.502
 3842POPC   PO450424  44.451  43.316   5.337
 3842POPC   GL150425  44.590  43.122   5.737
 3842POPC   GL250426  44.331  42.975   5.917
 3842POPC   C1A50427  44.766  43.081   6.177
 3842POPC   D2A50428  44.526  43.032   6.584
 3842POPC   C3A50429  44.732  43.112   6.994
 3842POPC   C4A50430  44.971  43.445   7.221
 3842POPC   C1B50431  44.143  42.818   6.287
 3842POPC   C2B50432  44.141  42.704   6.715
 3842POPC   C3B50433  44.377  42.700   7.090
 3842POPC   C4B50434  44.520  42.935   7.445
 3843POPC   NC350435  24.587  42.979   5.361
 3843POPC   PO450436  24.035  42.679   5.648
 3843POPC   GL150437  24.310  43.035   5.850
 3843POPC   GL250438  24.695  43.079   5.845
 3843POPC   C1A50439  24.405  43.280   6.251
 3843POPC   D2A50440  24.698  43.362   6.635
 3843POPC   C3A50441  24.565  43.214   6.990
 3843POPC   C4A50442  24.387  42.942   7.237
 3843POPC   C1B50443  24.657  42.743   6.156
 3843POPC   C2B50444  24.715  42.675   6.608
 3843POPC   C3B50445  24.821  42.754   7.039
 3843POPC   C4B50446  24.850  43.067   7.394
 3844POPC   NC350447  13.533  10.826   4.929
 3844POPC   PO450448  13.659  11.029   5.546
 3844POPC   GL150449  13.588  10.794   5.912
 3844POPC   GL250450  13.417  10.481   5.880
 3844POPC   C1A50451  13.562  10.760   6.360
 3844POPC   D2A50452  13.294  10.934   6.684
 3844POPC   C3A50453  13.522  10.747   7.001
 3844POPC   C4A50454  13.873  10.574   7.195
 3844POPC   C1B50455  13.538  10.245   6.288
 3844POPC   C2B50456  13.641  10.311   6.750
 3844POPC   C3B50457  13.572  10.172   7.209
 3844POPC   C4B50458  13.400  10.071   7.645
 3845POPC   NC350459  31.272  19.842   5.362
 3845POPC   PO450460  31.828  19.423   5.522
 3845POPC   GL150461  31.513  19.621   5.781
 3845POPC   GL250462  31.414  19.977   5.839
 3845POPC   C1A50463  31.302  19.574   6.160
 3845POPC   D2A50464  31.436  19.783   6.526
 3845POPC   C3A50465  31.275  19.670   6.918
 3845POPC   C4A50466  31.354  19.726   7.327
 3845POPC   C1B50467  31.687  20.106   6.189
 3845POPC   C2B50468  31.820  20.159   6.623
 3845POPC   C3B50469  31.723  19.953   7.018
 3845POPC   C4B50470  31.972  20.002   7.387
 3846POPC   NC350471  23.921   5.288   5.387
 3846POPC   PO450472  23.452   4.767   5.440
 3846POPC   GL150473  23.666   4.962   5.765
 3846POPC   GL250474  23.325   4.897   5.956
 3846POPC   C1A50475  23.984   5.164   6.089
 3846POPC   D2A50476  23.877   5.360   6.540
 3846POPC   C3A50477  23.991   5.255   6.989
 3846POPC   C4A50478  24.076   5.318   7.466
 3846POPC   C1B50479  23.658   4.815   6.241
 3846POPC   C2B50480  23.861   4.856   6.614
 3846POPC   C3B50481  23.636   4.884   6.969
 3846POPC   C4B50482  23.390   4.989   7.322
 3847POPC   NC350483  42.845  18.386   5.430
 3847POPC   PO450484  43.568  18.658   5.466
 3847POPC   GL150485  43.447  18.488   5.861
 3847POPC   GL250486  43.176  18.300   5.810
 3847POPC   C1A50487  43.287  18.454   6.311
 3847POPC   D2A50488  42.920  18.423   6.553
 3847POPC   C3A50489  43.003  18.318   6.969
 3847POPC   C4A50490  43.241  18.347   7.316
 3847POPC   C1B50491  43.070  18.030   6.152
 3847POPC   C2B50492  43.175  17.963   6.589
 3847POPC   C3B50493  43.259  17.887   7.028
 3847POPC   C4B50494  42.850  17.816   7.185
 3848POPC   NC350495  38.183  26.362   5.469
 3848POPC   PO450496  38.649  25.852   5.471
 3848POPC   GL150497  38.463  26.007   5.848
 3848POPC   GL250498  38.557  26.340   5.852
 3848POPC   C1A50499  38.501  26.067   6.310
 3848POPC   D2A50500  38.557  26.013   6.761
 3848POPC   C3A50501  38.321  26.149   7.095
 3848POPC   C4A50502  38.236  25.993   7.491
 3848POPC   C1B50503  38.568  26.591   6.257
 3848POPC   C2B50504  38.595  26.564   6.716
 3848POPC   C3B50505  38.792  26.341   7.046
 3848POPC   C4B50506  38.659  26.273   7.461
 3849POPC   NC350507  42.242   3.872   5.441
 3849POPC   PO450508  42.154   3.277   5.320
 3849POPC   GL150509  42.020   3.486   5.696
 3849POPC   GL250510  42.354   3.561   5.828
 3849POPC   C1A50511  41.894   3.597   6.117
 3849POPC   D2A50512  42.020   3.480   6.534
 3849POPC   C3A50513  42.126   3.827   6.785
 3849POPC   C4A50514  42.221   3.794   7.207
 3849POPC   C1B50515  42.290   3.248   6.134
 3849POPC   C2B50516  42.511   3.374   6.485
 3849POPC   C3B50517  42.453   3.440   6.894
 3849POPC   C4B50518  42.738   3.682   7.107
 3850POPC   NC350519  18.868  31.768   5.352
 3850POPC   PO450520  19.375  31.538   5.498
 3850POPC   GL150521  18.987  31.441   5.789
 3850POPC   GL250522  18.774  31.726   5.872
 3850POPC   C1A50523  18.958  31.360   6.291
 3850POPC   D2A50524  19.283  31.451   6.636
 3850POPC   C3A50525  19.213  31.323   7.079
 3850POPC   C4A50526  18.817  31.286   7.320
 3850POPC   C1B50527  19.169  31.788   6.129
 3850POPC   C2B50528  19.229  31.954   6.558
 3850POPC   C3B50529  19.157  31.819   6.981
 3850POPC   C4B50530  19.090  31.700   7.434
 3851POPC   NC350531  33.382  32.371   5.471
 3851POPC   PO450532  32.740  32.232   5.340
 3851POPC   GL150533  32.965  32.174   5.772
 3851POPC   GL250534  33.325  32.015   5.826
 3851POPC   C1A50535  32.799  32.307   6.206
 3851POPC   D2A50536  32.824  32.476   6.627
 3851POPC   C3A50537  32.805  32.167   6.960
 3851POPC   C4A50538  32.993  32.203   7.387
 3851POPC   C1B50539  33.295  32.276   6.194
 3851POPC   C2B50540  33.201  32.123   6.618
 3851POPC   C3B50541  33.221  31.887   7.022
 3851POPC   C4B50542  33.460  32.018   7.387
 3852POPC   NC350543  17.087  44.222   5.088
 3852POPC   PO450544  16.737  43.744   5.356
 3852POPC   GL150545  16.829  43.982   5.723
 3852POPC   GL250546  17.113  44.185   5.611
 3852POPC   C1A50547  16.747  43.845   6.171
 3852POPC   D2A50548  16.825  43.577   6.572
 3852POPC   C3A50549  16.722  43.810   6.951
 3852POPC   C4A50550  16.532  44.144   7.171
 3852POPC   C1B50551  17.132  44.213   6.082
 3852POPC   C2B50552  17.159  43.958   6.473
 3852POPC   C3B50553  17.281  43.878   6.914
 3852POPC   C4B50554  17.069  43.967   7.298
 3853POPC   NC350555  14.157  36.077   5.565
 3853POPC   PO450556  14.831  36.188   5.572
 3853POPC   GL150557  14.567  36.101   5.933
 3853POPC   GL250558  14.294  36.349   5.963
 3853POPC   C1A50559  14.534  35.801   6.281
 3853POPC   D2A50560  14.764  35.667   6.660
 3853POPC   C3A50561  14.571  35.868   7.023
 3853POPC   C4A50562  14.119  35.864   7.143
 3853POPC   C1B50563  14.305  36.278   6.387
 3853POPC   C2B50564  14.388  36.318   6.815
 3853POPC   C3B50565  14.157  36.375   7.190
 3853POPC   C4B50566  14.251  36.619   7.536
 3854POPC   NC350567  21.909  20.132   5.384
 3854POPC   PO450568  21.314  19.655   5.384
 3854POPC   GL150569  21.466  19.547   5.797
 3854POPC   GL250570  21.573  19.882   5.787
 3854POPC   C1A50571  21.456  19.579   6.260
 3854POPC   D2A50572  21.764  19.515   6.594
 3854POPC   C3A50573  21.639  19.707   6.964
 3854POPC   C4A50574  21.289  19.761   7.234
 3854POPC   C1B50575  21.421  20.087   6.151
 3854POPC   C2B50576  21.567  20.075   6.587
 3854POPC   C3B50577  21.417  20.208   6.991
 3854POPC   C4B50578  21.508  20.201   7.436
 3855POPC   NC350579  28.739  23.943   5.503
 3855POPC   PO450580  28.094  24.005   5.351
 3855POPC   GL150581  28.250  23.911   5.764
 3855POPC   GL250582  28.431  23.597   5.744
 3855POPC   C1A50583  28.195  23.897   6.220
 3855POPC   D2A50584  28.491  23.876   6.574
 3855POPC   C3A50585  28.333  23.714   6.941
 3855POPC   C4A50586  28.278  23.942   7.353
 3855POPC   C1B50587  28.604  23.575   6.153
 3855POPC   C2B50588  28.510  23.348   6.529
 3855POPC   C3B50589  28.706  23.332   6.915
 3855POPC   C4B50590  28.630  23.517   7.297
 3856POPC   NC350591  27.873   4.084   5.518
 3856POPC   PO450592  27.215   4.111   5.551
 3856POPC   GL150593  27.477   4.051   5.875
 3856POPC   GL250594  27.565   4.369   5.876
 3856POPC   C1A50595  27.641   4.107   6.294
 3856POPC   D2A50596  27.725   4.105   6.719
 3856POPC   C3A50597  27.471   4.292   7.059
 3856POPC   C4A50598  27.207   4.181   7.433
 3856POPC   C1B50599  27.836   4.584   6.136
 3856POPC   C2B50600  27.962   4.542   6.545
 3856POPC   C3B50601  28.054   4.762   6.911
 3856POPC   C4B50602  27.825   4.797   7.289
 3857POPC   NC350603  21.806   2.822   5.486
 3857POPC   PO450604  22.480   2.482   5.335
 3857POPC   GL150605  22.276   2.748   5.670
 3857POPC   GL250606  22.051   2.525   5.883
 3857POPC   C1A50607  22.111   3.012   6.037
 3857POPC   D2A50608  21.944   2.896   6.444
 3857POPC   C3A50609  22.210   2.946   6.789
 3857POPC   C4A50610  22.009   3.050   7.164
 3857POPC   C1B50611  21.663   2.588   6.141
 3857POPC   C2B50612  21.489   2.578   6.559
 3857POPC   C3B50613  21.629   2.511   6.999
 3857POPC   C4B50614  22.075   2.469   7.138
 3858POPC   NC350615  41.693  25.264   5.000
 3858POPC   PO450616  41.901  25.031   5.644
 3858POPC   GL150617  41.712  25.372   5.848
 3858POPC   GL250618  41.427  25.422   5.646
 3858POPC   C1A50619  41.828  25.459   6.261
 3858POPC   D2A50620  41.893  25.214   6.643
 3858POPC   C3A50621  41.817  25.414   7.051
 3858POPC   C4A50622  41.647  25.332   7.473
 3858POPC   C1B50623  41.288  25.425   6.104
 3858POPC   C2B50624  41.345  25.268   6.535
 3858POPC   C3B50625  41.296  25.404   6.980
 3858POPC   C4B50626  41.148  25.262   7.371
 3859POPC   NC350627  44.775  10.005   5.293
 3859POPC   PO450628  44.239   9.491   5.346
 3859POPC   GL150629  44.564   9.730   5.709
 3859POPC   GL250630  44.952   9.770   5.745
 3859POPC   C1A50631  44.717   9.647   6.174
 3859POPC   D2A50632  44.708   9.402   6.565
 3859POPC   C3A50633  44.840   9.541   6.980
 3859POPC   C4A50634  44.571   9.462   7.324
 3859POPC   C1B50635   0.044  10.035   6.165
 3859POPC   C2B50636  44.862   9.968   6.614
 3859POPC   C3B50637  44.958  10.047   7.062
 3859POPC   C4B50638  44.971  10.229   7.501
 3860POPC   NC350639  31.760   8.014   5.399
 3860POPC   PO450640  31.147   8.251   5.244
 3860POPC   GL150641  31.412   8.284   5.654
 3860POPC   GL250642  31.630   8.537   5.736
 3860POPC   C1A50643  31.406   8.207   6.130
 3860POPC   D2A50644  31.346   8.321   6.587
 3860POPC   C3A50645  31.429   8.086   6.969
 3860POPC   C4A50646  31.220   7.995   7.339
 3860POPC   C1B50647  31.837   8.472   6.163
 3860POPC   C2B50648  31.871   8.369   6.610
 3860POPC   C3B50649  31.656   8.535   6.980
 3860POPC   C4B50650  31.627   8.335   7.370
 3861POPC   NC350651  33.297  44.191   5.024
 3861POPC   PO450652  32.960  43.810   5.459
 3861POPC   GL150653  32.957  43.943   5.822
 3861POPC   GL250654  32.692  44.190   5.826
 3861POPC   C1A50655  33.201  43.809   6.175
 3861POPC   D2A50656  33.104  43.537   6.539
 3861POPC   C3A50657  33.105  43.812   6.907
 3861POPC   C4A50658  33.125  43.890   7.347
 3861POPC   C1B50659  32.740  44.039   6.258
 3861POPC   C2B50660  32.860  44.170   6.651
 3861POPC   C3B50661  32.686  44.089   7.039
 3861POPC   C4B50662  32.487  43.778   7.261
 3862POPC   NC350663   4.035  18.287   5.454
 3862POPC   PO450664   4.599  18.143   5.750
 3862POPC   GL150665   4.205  18.307   5.966
 3862POPC   GL250666   4.072  18.038   6.160
 3862POPC   C1A50667   4.177  18.485   6.398
 3862POPC   D2A50668   4.322  18.414   6.818
 3862POPC   C3A50669   4.171  18.369   7.212
 3862POPC   C4A50670   3.864  18.277   7.519
 3862POPC   C1B50671   4.449  18.026   6.488
 3862POPC   C2B50672   4.713  18.104   6.904
 3862POPC   C3B50673   4.677  18.450   7.228
 3862POPC   C4B50674   4.437  18.829   7.304
 3863POPC   NC350675  30.355   5.757   5.732
 3863POPC   PO450676  29.650   5.889   5.454
 3863POPC   GL150677  29.847   5.977   5.809
 3863POPC   GL250678  29.819   5.642   5.863
 3863POPC   C1A50679  29.916   5.937   6.258
 3863POPC   D2A50680  30.161   5.920   6.628
 3863POPC   C3A50681  29.971   5.910   7.049
 3863POPC   C4A50682  30.177   5.996   7.440
 3863POPC   C1B50683  29.562   5.548   6.236
 3863POPC   C2B50684  29.694   5.652   6.660
 3863POPC   C3B50685  29.524   5.658   7.090
 3863POPC   C4B50686  29.771   5.677   7.505
 3864POPC   NC350687  35.989  21.037   5.586
 3864POPC   PO450688  36.301  21.517   5.351
 3864POPC   GL150689  36.149  21.482   5.780
 3864POPC   GL250690  36.310  21.185   5.954
 3864POPC   C1A50691  36.017  21.476   6.220
 3864POPC   D2A50692  36.290  21.348   6.545
 3864POPC   C3A50693  35.989  21.468   6.852
 3864POPC   C4A50694  35.978  21.402   7.271
 3864POPC   C1B50695  36.047  20.952   6.231
 3864POPC   C2B50696  35.923  20.994   6.628
 3864POPC   C3B50697  36.175  21.003   6.968
 3864POPC   C4B50698  35.977  20.901   7.324
 3865POPC   NC350699  11.060  24.812   5.236
 3865POPC   PO450700  11.661  24.631   5.233
 3865POPC   GL150701  11.409  24.387   5.629
 3865POPC   GL250702  11.036  24.425   5.728
 3865POPC   C1A50703  11.359  24.231   6.097
 3865POPC   D2A50704  11.272  24.478   6.507
 3865POPC   C3A50705  11.145  24.340   6.924
 3865POPC   C4A50706  11.221  24.492   7.338
 3865POPC   C1B50707  10.874  24.481   6.193
 3865POPC   C2B50708  10.753  24.595   6.670
 3865POPC   C3B50709  10.855  24.773   7.116
 3865POPC   C4B50710  10.783  24.598   7.563
 3866POPC   NC350711  25.556   0.588   5.428
 3866POPC   PO450712  26.160   0.360   5.079
 3866POPC   GL150713  26.079   0.358   5.577
 3866POPC   GL250714  25.961   0.688   5.730
 3866POPC   C1A50715  26.150   0.292   6.072
 3866POPC   D2A50716  26.373   0.391   6.491
 3866POPC   C3A50717  26.178   0.358   6.905
 3866POPC   C4A50718  26.154   0.018   7.196
 3866POPC   C1B50719  25.693   0.558   6.098
 3866POPC   C2B50720  25.847   0.489   6.515
 3866POPC   C3B50721  25.753   0.717   6.893
 3866POPC   C4B50722  25.733   0.922   7.290
 3867POPC   NC350723  34.682  31.324   5.410
 3867POPC   PO450724  34.327  31.893   5.318
 3867POPC   GL150725  34.420  31.647   5.707
 3867POPC   GL250726  34.316  31.279   5.802
 3867POPC   C1A50727  34.589  31.544   6.135
 3867POPC   D2A50728  34.495  31.378   6.541
 3867POPC   C3A50729  34.736  31.525   6.878
 3867POPC   C4A50730  34.473  31.636   7.216
 3867POPC   C1B50731  34.649  31.034   6.058
 3867POPC   C2B50732  34.766  30.950   6.512
 3867POPC   C3B50733  34.588  30.998   6.948
 3867POPC   C4B50734  34.738  31.207   7.306
 3868POPC   NC350735  15.727  14.155   5.522
 3868POPC   PO450736  16.050  14.660   5.202
 3868POPC   GL150737  15.949  14.598   5.665
 3868POPC   GL250738  16.116  14.301   5.830
 3868POPC   C1A50739  15.845  14.655   6.113
 3868POPC   D2A50740  15.703  14.823   6.518
 3868POPC   C3A50741  15.885  14.711   6.929
 3868POPC   C4A50742  15.779  14.527   7.343
 3868POPC   C1B50743  15.812  14.140   6.183
 3868POPC   C2B50744  15.800  14.293   6.628
 3868POPC   C3B50745  16.115  14.211   6.974
 3868POPC   C4B50746  16.291  14.081   7.415
 3869POPC   NC350747  21.229  10.938   5.406
 3869POPC   PO450748  21.484  11.531   5.251
 3869POPC   GL150749  21.267  11.423   5.686
 3869POPC   GL250750  21.320  11.101   5.900
 3869POPC   C1A50751  21.155  11.557   6.126
 3869POPC   D2A50752  21.154  11.333   6.528
 3869POPC   C3A50753  21.162  11.532   6.948
 3869POPC   C4A50754  21.464  11.420   7.270
 3869POPC   C1B50755  21.604  10.869   6.245
 3869POPC   C2B50756  21.622  10.955   6.674
 3869POPC   C3B50757  21.457  10.928   7.091
 3869POPC   C4B50758  21.532  10.685   7.465
 3870POPC   NC350759  37.098   2.227   5.456
 3870POPC   PO450760  36.943   1.584   5.393
 3870POPC   GL150761  36.907   1.856   5.759
 3870POPC   GL250762  36.576   2.001   5.718
 3870POPC   C1A50763  37.081   2.137   6.100
 3870POPC   D2A50764  36.951   2.347   6.470
 3870POPC   C3A50765  37.045   2.063   6.797
 3870POPC   C4A50766  37.040   2.075   7.242
 3870POPC   C1B50767  36.572   2.143   6.148
 3870POPC   C2B50768  36.553   2.055   6.594
 3870POPC   C3B50769  36.622   2.252   7.005
 3870POPC   C4B50770  36.435   1.909   7.190
 3871POPC   NC350771  21.432  17.300   5.117
 3871POPC   PO450772  21.468  17.720   5.498
 3871POPC   GL150773  21.362  17.549   5.838
 3871POPC   GL250774  21.463  17.238   5.749
 3871POPC   C1A50775  21.504  17.580   6.249
 3871POPC   D2A50776  21.794  17.644   6.569
 3871POPC   C3A50777  21.519  17.684   6.910
 3871POPC   C4A50778  21.473  17.533   7.287
 3871POPC   C1B50779  21.156  17.199   6.138
 3871POPC   C2B50780  21.146  17.402   6.578
 3871POPC   C3B50781  21.202  17.195   6.992
 3871POPC   C4B50782  21.446  17.043   7.355
 3872POPC   NC350783   7.639  20.657   5.156
 3872POPC   PO450784   8.224  20.864   5.405
 3872POPC   GL150785   8.426  20.973   5.783
 3872POPC   GL250786   8.141  21.066   5.964
 3872POPC   C1A50787   8.596  20.901   6.203
 3872POPC   D2A50788   8.529  20.624   6.584
 3872POPC   C3A50789   8.348  20.827   6.934
 3872POPC   C4A50790   8.248  20.759   7.359
 3872POPC   C1B50791   8.169  20.631   6.208
 3872POPC   C2B50792   8.043  20.466   6.646
 3872POPC   C3B50793   7.979  20.402   7.115
 3872POPC   C4B50794   8.000  20.382   7.600
 3873POPC   NC350795   3.621  21.027   5.508
 3873POPC   PO450796   3.397  20.291   5.472
 3873POPC   GL150797   3.682  20.388   5.787
 3873POPC   GL250798   3.504  20.689   5.873
 3873POPC   C1A50799   3.750  20.434   6.228
 3873POPC   D2A50800   3.506  20.414   6.576
 3873POPC   C3A50801   3.611  20.482   6.992
 3873POPC   C4A50802   3.312  20.428   7.319
 3873POPC   C1B50803   3.633  20.913   6.264
 3873POPC   C2B50804   3.531  20.939   6.698
 3873POPC   C3B50805   3.353  20.935   7.094
 3873POPC   C4B50806   3.329  21.222   7.470
 3874POPC   NC350807   6.888  44.859   5.455
 3874POPC   PO450808   6.422  44.405   5.489
 3874POPC   GL150809   6.603  44.606   5.835
 3874POPC   GL250810   6.921  44.438   5.825
 3874POPC   C1A50811   6.646  44.512   6.288
 3874POPC   D2A50812   6.529  44.139   6.529
 3874POPC   C3A50813   6.528  44.232   6.939
 3874POPC   C4A50814   6.664  44.604   7.159
 3874POPC   C1B50815   7.104  44.713   6.154
 3874POPC   C2B50816   6.993  44.878   6.555
 3874POPC   C3B50817   7.163  44.764   6.942
 3874POPC   C4B50818   7.137  44.665   7.373
 3875POPC   NC350819  27.827   7.028   5.438
 3875POPC   PO450820  27.639   7.696   5.515
 3875POPC   GL150821  27.702   7.400   5.887
 3875POPC   GL250822  28.040   7.239   5.849
 3875POPC   C1A50823  27.560   7.367   6.366
 3875POPC   D2A50824  27.190   7.459   6.676
 3875POPC   C3A50825  27.268   7.386   7.110
 3875POPC   C4A50826  27.492   7.090   7.159
 3875POPC   C1B50827  28.100   7.564   6.162
 3875POPC   C2B50828  28.087   7.380   6.552
 3875POPC   C3B50829  27.794   7.380   6.866
 3875POPC   C4B50830  27.956   7.426   7.268
 3876POPC   NC350831  21.128  35.368   5.422
 3876POPC   PO450832  21.794  35.209   5.332
 3876POPC   GL150833  21.475  35.232   5.781
 3876POPC   GL250834  21.140  35.245   5.910
 3876POPC   C1A50835  21.529  35.356   6.235
 3876POPC   D2A50836  21.873  35.409   6.550
 3876POPC   C3A50837  21.735  35.382   7.002
 3876POPC   C4A50838  21.523  35.283   7.395
 3876POPC   C1B50839  21.020  35.040   6.279
 3876POPC   C2B50840  21.172  35.215   6.643
 3876POPC   C3B50841  21.174  35.420   7.039
 3876POPC   C4B50842  20.781  35.368   7.189
 3877POPC   NC350843  44.051  30.332   5.280
 3877POPC   PO450844  43.854  29.689   5.347
 3877POPC   GL150845  43.807  29.877   5.752
 3877POPC   GL250846  44.119  30.029   5.745
 3877POPC   C1A50847  43.903  29.704   6.180
 3877POPC   D2A50848  44.095  29.797   6.575
 3877POPC   C3A50849  43.951  29.618   6.950
 3877POPC   C4A50850  44.157  29.793   7.294
 3877POPC   C1B50851  44.047  30.187   6.156
 3877POPC   C2B50852  43.800  30.202   6.541
 3877POPC   C3B50853  43.868  30.142   6.985
 3877POPC   C4B50854  44.193  30.342   7.206
 3878POPC   NC350855  42.020  41.706   5.384
 3878POPC   PO450856  42.617  41.371   5.315
 3878POPC   GL150857  42.666  41.513   5.784
 3878POPC   GL250858  42.518  41.841   5.906
 3878POPC   C1A50859  42.600  41.380   6.228
 3878POPC   D2A50860  42.603  41.551   6.678
 3878POPC   C3A50861  42.568  41.296   7.056
 3878POPC   C4A50862  42.259  41.496   7.344
 3878POPC   C1B50863  42.309  41.806   6.327
 3878POPC   C2B50864  42.201  41.857   6.793
 3878POPC   C3B50865  42.157  42.008   7.231
 3878POPC   C4B50866  42.133  41.877   7.666
 3879POPC   NC350867  39.971  44.160   5.468
 3879POPC   PO450868  39.971  44.859   5.310
 3879POPC   GL150869  40.028  44.707   5.729
 3879POPC   GL250870  39.714  44.559   5.758
 3879POPC   C1A50871  40.023  44.688   6.211
 3879POPC   D2A50872  40.254  44.623   6.623
 3879POPC   C3A50873  40.124  44.693   7.058
 3879POPC   C4A50874  40.116  44.518   7.470
 3879POPC   C1B50875  39.630  44.350   6.167
 3879POPC   C2B50876  39.495  44.338   6.602
 3879POPC   C3B50877  39.618  44.595   6.959
 3879POPC   C4B50878  39.609  44.462   7.364
 3880POPC   NC350879  33.162  12.518   5.368
 3880POPC   PO450880  32.678  13.011   5.456
 3880POPC   GL150881  32.888  12.866   5.807
 3880POPC   GL250882  33.063  13.199   5.777
 3880POPC   C1A50883  33.203  12.863   6.166
 3880POPC   D2A50884  33.440  12.882   6.576
 3880POPC   C3A50885  33.251  12.669   6.931
 3880POPC   C4A50886  33.060  12.750   7.332
 3880POPC   C1B50887  32.899  13.298   6.179
 3880POPC   C2B50888  33.000  13.134   6.581
 3880POPC   C3B50889  32.809  13.030   6.964
 3880POPC   C4B50890  32.806  13.198   7.360
 3881POPC   NC350891   8.911  30.192   5.273
 3881POPC   PO450892   8.985  29.567   5.372
 3881POPC   GL150893   8.993  29.824   5.735
 3881POPC   GL250894   9.268  29.636   5.844
 3881POPC   C1A50895   8.844  30.064   6.136
 3881POPC   D2A50896   8.811  29.904   6.583
 3881POPC   C3A50897   8.893  30.062   7.029
 3881POPC   C4A50898   8.890  29.821   7.443
 3881POPC   C1B50899   9.250  29.767   6.271
 3881POPC   C2B50900   9.294  29.696   6.700
 3881POPC   C3B50901   9.294  29.734   7.141
 3881POPC   C4B50902   9.416  29.827   7.566
 3882POPC   NC350903  18.656  11.415   5.600
 3882POPC   PO450904  19.263  11.167   5.367
 3882POPC   GL150905  19.290  11.215   5.800
 3882POPC   GL250906  19.365  11.566   5.711
 3882POPC   C1A50907  19.136  11.123   6.235
 3882POPC   D2A50908  19.097  11.196   6.690
 3882POPC   C3A50909  19.184  10.937   7.075
 3882POPC   C4A50910  19.141  10.941   7.553
 3882POPC   C1B50911  19.210  11.632   6.158
 3882POPC   C2B50912  19.059  11.712   6.605
 3882POPC   C3B50913  18.933  11.535   7.027
 3882POPC   C4B50914  19.221  11.388   7.314
 3883POPC   NC350915   2.994  10.286   5.386
 3883POPC   PO450916   2.423  10.585   5.475
 3883POPC   GL150917   2.670  10.406   5.775
 3883POPC   GL250918   2.891  10.673   5.872
 3883POPC   C1A50919   2.599  10.414   6.200
 3883POPC   D2A50920   2.451  10.614   6.539
 3883POPC   C3A50921   2.566  10.424   6.915
 3883POPC   C4A50922   2.730  10.306   7.304
 3883POPC   C1B50923   2.992  10.887   6.251
 3883POPC   C2B50924   2.939  10.761   6.664
 3883POPC   C3B50925   2.895  10.779   7.103
 3883POPC   C4B50926   2.963  10.741   7.510
 3884POPC   NC350927  18.804  24.127   5.380
 3884POPC   PO450928  19.206  23.557   5.330
 3884POPC   GL150929  18.905  23.532   5.663
 3884POPC   GL250930  19.048  23.815   5.832
 3884POPC   C1A50931  18.750  23.511   6.101
 3884POPC   D2A50932  18.965  23.665   6.474
 3884POPC   C3A50933  18.803  23.491   6.854
 3884POPC   C4A50934  18.576  23.705   7.190
 3884POPC   C1B50935  19.308  23.964   6.204
 3884POPC   C2B50936  19.354  23.955   6.653
 3884POPC   C3B50937  18.991  23.957   6.981
 3884POPC   C4B50938  18.965  23.855   7.467
 3885POPC   NC350939   3.294   1.254   5.404
 3885POPC   PO450940   3.869   0.887   5.341
 3885POPC   GL150941   3.660   1.006   5.733
 3885POPC   GL250942   3.666   1.345   5.784
 3885POPC   C1A50943   3.471   1.089   6.179
 3885POPC   D2A50944   3.527   1.270   6.618
 3885POPC   C3A50945   3.502   1.006   7.004
 3885POPC   C4A50946   3.441   1.035   7.458
 3885POPC   C1B50947   3.729   1.546   6.176
 3885POPC   C2B50948   3.966   1.546   6.555
 3885POPC   C3B50949   4.037   1.721   6.963
 3885POPC   C4B50950   3.948   1.712   7.398
 3886POPC   NC350951  16.717  34.800   5.202
 3886POPC   PO450952  16.336  34.923   5.722
 3886POPC   GL150953  16.545  34.586   5.913
 3886POPC   GL250954  16.859  34.427   5.792
 3886POPC   C1A50955  16.750  34.698   6.312
 3886POPC   D2A50956  16.966  34.750   6.707
 3886POPC   C3A50957  16.648  34.699   7.020
 3886POPC   C4A50958  16.367  34.501   7.329
 3886POPC   C1B50959  17.106  34.379   6.179
 3886POPC   C2B50960  17.049  34.245   6.600
 3886POPC   C3B50961  16.858  34.240   7.012
 3886POPC   C4B50962  16.850  34.445   7.450
 3887POPC   NC350963   4.028  43.308   5.007
 3887POPC   PO450964   4.536  43.091   5.476
 3887POPC   GL150965   4.395  43.065   5.887
 3887POPC   GL250966   4.158  43.305   5.854
 3887POPC   C1A50967   4.431  42.887   6.293
 3887POPC   D2A50968   4.462  42.807   6.744
 3887POPC   C3A50969   4.666  43.081   7.052
 3887POPC   C4A50970   4.517  43.161   7.475
 3887POPC   C1B50971   4.075  43.257   6.286
 3887POPC   C2B50972   4.254  43.343   6.680
 3887POPC   C3B50973   4.151  43.141   7.051
 3887POPC   C4B50974   4.276  42.755   7.248
 3888POPC   NC350975  36.510  29.123   5.453
 3888POPC   PO450976  35.774  28.969   5.367
 3888POPC   GL150977  35.816  29.116   5.807
 3888POPC   GL250978  36.179  29.212   5.831
 3888POPC   C1A50979  35.875  29.414   6.178
 3888POPC   D2A50980  36.039  29.386   6.587
 3888POPC   C3A50981  35.906  29.135   6.905
 3888POPC   C4A50982  36.141  28.943   7.193
 3888POPC   C1B50983  36.193  29.006   6.254
 3888POPC   C2B50984  36.358  28.955   6.672
 3888POPC   C3B50985  36.482  28.629   6.937
 3888POPC   C4B50986  36.393  28.541   7.327
 3889POPC   NC350987  31.019  10.929   5.559
 3889POPC   PO450988  30.797  11.510   5.242
 3889POPC   GL150989  30.909  11.390   5.680
 3889POPC   GL250990  30.935  11.574   5.924
 3889POPC   C1A50991  30.841  11.126   6.121
 3889POPC   D2A50992  30.635  10.976   6.465
 3889POPC   C3A50993  30.914  10.930   6.795
 3889POPC   C4A50994  30.692  11.017   7.156
 3889POPC   C1B50995  30.764  11.570   6.351
 3889POPC   C2B50996  30.696  11.399   6.762
 3889POPC   C3B50997  30.860  11.499   7.154
 3889POPC   C4B50998  30.709  11.689   7.511
 3890POPC   NC350999  10.186  16.744   5.402
 3890POPC   PO451000  10.867  16.829   5.431
 3890POPC   GL151001  10.554  16.827   5.794
 3890POPC   GL251002  10.252  17.058   5.811
 3890POPC   C1A51003  10.559  16.672   6.226
 3890POPC   D2A51004  10.797  16.843   6.579
 3890POPC   C3A51005  10.652  16.663   6.960
 3890POPC   C4A51006  10.668  16.752   7.389
 3890POPC   C1B51007  10.434  17.174   6.234
 3890POPC   C2B51008  10.350  17.044   6.662
 3890POPC   C3B51009  10.465  17.124   7.092
 3890POPC   C4B51010  10.205  17.013   7.489
 3891POPC   NC351011  32.664   8.220   5.252
 3891POPC   PO451012  32.023   8.416   5.405
 3891POPC   GL151013  32.051   8.215   5.779
 3891POPC   GL251014  32.198   7.903   5.719
 3891POPC   C1A51015  32.260   8.148   6.188
 3891POPC   D2A51016  32.344   7.923   6.563
 3891POPC   C3A51017  32.477   8.148   6.922
 3891POPC   C4A51018  32.092   8.300   7.109
 3891POPC   C1B51019  31.881   7.824   6.062
 3891POPC   C2B51020  31.706   7.887   6.467
 3891POPC   C3B51021  31.899   7.902   6.867
 3891POPC   C4B51022  31.775   7.780   7.282
 3892POPC   NC351023  37.632  20.149   5.432
 3892POPC   PO451024  37.652  20.788   5.387
 3892POPC   GL151025  37.600  20.551   5.778
 3892POPC   GL251026  37.908  20.328   5.826
 3892POPC   C1A51027  37.645  20.651   6.229
 3892POPC   D2A51028  37.805  20.932   6.569
 3892POPC   C3A51029  37.665  20.806   6.974
 3892POPC   C4A51030  37.733  20.773   7.405
 3892POPC   C1B51031  38.098  20.406   6.222
 3892POPC   C2B51032  37.922  20.438   6.633
 3892POPC   C3B51033  38.023  20.445   7.045
 3892POPC   C4B51034  38.102  20.102   7.251
 3893POPC   NC351035   1.631  30.715   5.365
 3893POPC   PO451036   2.263  30.908   5.371
 3893POPC   GL151037   2.132  30.860   5.780
 3893POPC   GL251038   2.352  31.139   5.867
 3893POPC   C1A51039   1.943  30.601   6.116
 3893POPC   D2A51040   2.140  30.436   6.507
 3893POPC   C3A51041   1.999  30.559   6.920
 3893POPC   C4A51042   1.790  30.698   7.307
 3893POPC   C1B51043   2.366  31.007   6.293
 3893POPC   C2B51044   2.391  30.863   6.722
 3893POPC   C3B51045   2.301  30.927   7.150
 3893POPC   C4B51046   2.267  30.585   7.416
 3894POPC   NC351047  28.809  10.856   5.641
 3894POPC   PO451048  29.306  10.376   5.475
 3894POPC   GL151049  29.062  10.419   5.862
 3894POPC   GL251050  29.148  10.745   5.995
 3894POPC   C1A51051  29.181  10.344   6.294
 3894POPC   D2A51052  29.258  10.645   6.601
 3894POPC   C3A51053  29.431  10.561   7.021
 3894POPC   C4A51054  29.220  10.434   7.435
 3894POPC   C1B51055  28.773  10.817   6.282
 3894POPC   C2B51056  28.823  10.947   6.692
 3894POPC   C3B51057  28.967  10.778   7.082
 3894POPC   C4B51058  28.761  10.686   7.476
 3895POPC   NC351059  35.200  40.089   5.301
 3895POPC   PO451060  35.416  39.555   5.614
 3895POPC   GL151061  35.306  39.926   5.805
 3895POPC   GL251062  35.582  40.156   5.675
 3895POPC   C1A51063  35.266  39.878   6.259
 3895POPC   D2A51064  35.124  40.173   6.568
 3895POPC   C3A51065  35.123  39.975   6.983
 3895POPC   C4A51066  35.251  40.033   7.407
 3895POPC   C1B51067  35.552  40.271   6.127
 3895POPC   C2B51068  35.642  40.274   6.591
 3895POPC   C3B51069  35.595  40.286   7.054
 3895POPC   C4B51070  35.783  40.029   7.362
 3896POPC   NC351071  36.517  39.852   5.528
 3896POPC   PO451072  37.098  39.924   5.268
 3896POPC   GL151073  37.062  40.110   5.709
 3896POPC   GL251074  36.725  40.210   5.836
 3896POPC   C1A51075  37.153  40.118   6.177
 3896POPC   D2A51076  36.965  40.302   6.530
 3896POPC   C3A51077  37.165  40.154   6.917
 3896POPC   C4A51078  37.190  40.084   7.354
 3896POPC   C1B51079  36.655  39.990   6.229
 3896POPC   C2B51080  36.858  39.817   6.608
 3896POPC   C3B51081  36.667  40.118   6.905
 3896POPC   C4B51082  36.717  40.252   7.291
 3897POPC   NC351083  30.867  43.773   5.226
 3897POPC   PO451084  30.749  44.324   5.626
 3897POPC   GL151085  30.621  44.053   5.958
 3897POPC   GL251086  30.672  43.775   5.729
 3897POPC   C1A51087  30.540  44.037   6.375
 3897POPC   D2A51088  30.740  44.080   6.758
 3897POPC   C3A51089  30.456  44.079   7.098
 3897POPC   C4A51090  30.433  43.929   7.518
 3897POPC   C1B51091  30.886  43.642   6.105
 3897POPC   C2B51092  30.758  43.586   6.517
 3897POPC   C3B51093  30.740  43.599   6.961
 3897POPC   C4B51094  31.086  43.552   7.244
 3898POPC   NC351095  37.012   4.145   5.252
 3898POPC   PO451096  36.621   4.665   5.544
 3898POPC   GL151097  36.775   4.428   5.884
 3898POPC   GL251098  36.812   4.093   5.757
 3898POPC   C1A51099  36.818   4.457   6.335
 3898POPC   D2A51100  36.969   4.672   6.737
 3898POPC   C3A51101  37.204   4.384   7.046
 3898POPC   C4A51102  37.131   4.184   7.475
 3898POPC   C1B51103  36.492   4.037   6.127
 3898POPC   C2B51104  36.439   3.798   6.545
 3898POPC   C3B51105  36.483   3.989   6.978
 3898POPC   C4B51106  36.685   4.363   7.076
 3899POPC   NC351107  34.898  43.983   5.197
 3899POPC   PO451108  34.405  43.544   5.446
 3899POPC   GL151109  34.656  43.739   5.739
 3899POPC   GL251110  34.542  44.066   5.793
 3899POPC   C1A51111  34.824  43.655   6.150
 3899POPC   D2A51112  34.575  43.593   6.532
 3899POPC   C3A51113  34.707  43.778   6.910
 3899POPC   C4A51114  34.788  43.643   7.308
 3899POPC   C1B51115  34.396  43.929   6.171
 3899POPC   C2B51116  34.508  44.105   6.547
 3899POPC   C3B51117  34.311  44.097   6.928
 3899POPC   C4B51118  34.278  43.847   7.289
 3900POPC   NC351119  27.481  13.006   5.428
 3900POPC   PO451120  27.840  12.516   5.481
 3900POPC   GL151121  27.712  12.668   5.891
 3900POPC   GL251122  27.394  12.735   5.835
 3900POPC   C1A51123  27.614  12.803   6.338
 3900POPC   D2A51124  27.423  13.081   6.687
 3900POPC   C3A51125  27.595  12.944   7.082
 3900POPC   C4A51126  28.020  12.774   7.204
 3900POPC   C1B51127  27.199  13.003   6.117
 3900POPC   C2B51128  27.057  12.799   6.486
 3900POPC   C3B51129  27.169  12.643   6.895
 3900POPC   C4B51130  27.501  12.430   7.132
 3901POPC   NC351131  29.889  22.707   5.471
 3901POPC   PO451132  30.498  22.911   5.535
 3901POPC   GL151133  30.207  22.989   5.900
 3901POPC   GL251134  30.096  22.662   5.939
 3901POPC   C1A51135  30.065  23.100   6.366
 3901POPC   D2A51136  29.830  23.326   6.744
 3901POPC   C3A51137  29.993  23.540   7.146
 3901POPC   C4A51138  30.044  23.532   7.653
 3901POPC   C1B51139  29.695  22.879   6.092
 3901POPC   C2B51140  29.506  22.843   6.503
 3901POPC   C3B51141  29.582  22.571   6.871
 3901POPC   C4B51142  29.769  22.696   7.261
 3902POPC   NC351143  11.275   5.211   5.418
 3902POPC   PO451144  11.636   4.659   5.478
 3902POPC   GL151145  11.411   4.883   5.786
 3902POPC   GL251146  11.050   4.853   5.670
 3902POPC   C1A51147  11.347   5.146   6.146
 3902POPC   D2A51148  11.180   5.301   6.546
 3902POPC   C3A51149  11.446   5.269   6.910
 3902POPC   C4A51150  11.425   4.931   7.191
 3902POPC   C1B51151  10.912   4.861   6.065
 3902POPC   C2B51152  10.834   4.843   6.484
 3902POPC   C3B51153  10.990   4.938   6.873
 3902POPC   C4B51154  10.905   4.800   7.283
 3903POPC   NC351155  13.202  36.342   5.702
 3903POPC   PO451156  13.699  35.990   5.404
 3903POPC   GL151157  13.557  35.973   5.817
 3903POPC   GL251158  13.770  36.230   5.951
 3903POPC   C1A51159  13.530  35.937   6.279
 3903POPC   D2A51160  13.877  35.973   6.611
 3903POPC   C3A51161  13.725  36.190   6.984
 3903POPC   C4A51162  13.430  36.082   7.267
 3903POPC   C1B51163  13.468  36.435   6.288
 3903POPC   C2B51164  13.303  36.440   6.711
 3903POPC   C3B51165  13.384  36.568   7.137
 3903POPC   C4B51166  13.711  36.505   7.464
 3904POPC   NC351167  40.392  33.718   5.472
 3904POPC   PO451168  40.712  34.335   5.317
 3904POPC   GL151169  40.690  34.053   5.735
 3904POPC   GL251170  40.460  34.207   5.925
 3904POPC   C1A51171  40.597  33.785   6.176
 3904POPC   D2A51172  40.374  33.707   6.617
 3904POPC   C3A51173  40.555  33.685   7.050
 3904POPC   C4A51174  40.969  33.687   7.296
 3904POPC   C1B51175  40.817  34.240   6.239
 3904POPC   C2B51176  40.836  34.077   6.680
 3904POPC   C3B51177  40.637  34.195   7.081
 3904POPC   C4B51178  40.675  34.085   7.506
 3905POPC   NC351179   0.366  18.434   5.120
 3905POPC   PO451180   0.784  18.083   5.592
 3905POPC   GL151181   0.691  18.534   5.690
 3905POPC   GL251182   0.322  18.542   5.718
 3905POPC   C1A51183   0.627  18.752   6.105
 3905POPC   D2A51184   0.412  18.654   6.544
 3905POPC   C3A51185   0.579  18.510   6.976
 3905POPC   C4A51186   0.778  18.130   7.165
 3905POPC   C1B51187   0.362  18.292   6.133
 3905POPC   C2B51188   0.440  18.003   6.518
 3905POPC   C3B51189   0.329  18.006   6.957
 3905POPC   C4B51190   0.010  18.283   7.100
 3906POPC   NC351191   0.466  38.195   5.094
 3906POPC   PO451192   0.112  37.758   5.461
 3906POPC   GL151193   0.481  37.700   5.726
 3906POPC   GL251194   0.751  37.450   5.761
 3906POPC   C1A51195   0.428  37.622   6.147
 3906POPC   D2A51196   0.175  37.684   6.492
 3906POPC   C3A51197   0.461  37.864   6.799
 3906POPC   C4A51198   0.652  38.052   7.178
 3906POPC   C1B51199   0.767  37.239   6.170
 3906POPC   C2B51200   0.552  37.345   6.579
 3906POPC   C3B51201   0.740  37.482   7.004
 3906POPC   C4B51202   0.778  37.586   7.443
 3907POPC   NC351203  36.623  41.278   5.429
 3907POPC   PO451204  37.274  41.674   5.308
 3907POPC   GL151205  37.092  41.524   5.710
 3907POPC   GL251206  36.736  41.602   5.821
 3907POPC   C1A51207  37.183  41.623   6.159
 3907POPC   D2A51208  36.973  41.569   6.555
 3907POPC   C3A51209  37.176  41.639   6.952
 3907POPC   C4A51210  36.938  41.563   7.327
 3907POPC   C1B51211  36.821  41.235   6.128
 3907POPC   C2B51212  36.831  41.067   6.566
 3907POPC   C3B51213  36.714  41.315   6.922
 3907POPC   C4B51214  36.523  41.251   7.305
 3908POPC   NC351215  25.806  26.564   5.544
 3908POPC   PO451216  26.228  27.043   5.292
 3908POPC   GL151217  26.111  26.981   5.733
 3908POPC   GL251218  26.400  27.131   5.859
 3908POPC   C1A51219  25.903  26.843   6.138
 3908POPC   D2A51220  25.823  27.061   6.525
 3908POPC   C3A51221  25.857  26.884   6.954
 3908POPC   C4A51222  26.019  27.038   7.317
 3908POPC   C1B51223  26.332  27.061   6.314
 3908POPC   C2B51224  26.306  27.042   6.765
 3908POPC   C3B51225  26.501  26.935   7.153
 3908POPC   C4B51226  26.446  26.905   7.596
 3909POPC   NC351227   6.920   8.205   5.334
 3909POPC   PO451228   6.340   7.883   5.284
 3909POPC   GL151229   6.521   8.038   5.733
 3909POPC   GL251230   6.733   8.368   5.783
 3909POPC   C1A51231   6.680   8.019   6.185
 3909POPC   D2A51232   6.818   8.258   6.579
 3909POPC   C3A51233   6.804   8.021   6.952
 3909POPC   C4A51234   6.387   7.960   7.111
 3909POPC   C1B51235   6.705   8.590   6.195
 3909POPC   C2B51236   6.452   8.725   6.588
 3909POPC   C3B51237   6.367   8.540   7.016
 3909POPC   C4B51238   6.667   8.368   7.314
 3910POPC   NC351239  10.515   9.253   5.348
 3910POPC   PO451240  10.934   8.775   5.419
 3910POPC   GL151241  10.601   8.869   5.757
 3910POPC   GL251242  10.503   9.216   5.852
 3910POPC   C1A51243  10.315   8.828   6.150
 3910POPC   D2A51244  10.126   8.990   6.539
 3910POPC   C3A51245  10.288   8.877   6.971
 3910POPC   C4A51246  10.350   9.138   7.368
 3910POPC   C1B51247  10.739   9.086   6.208
 3910POPC   C2B51248  10.658   8.965   6.606
 3910POPC   C3B51249  10.685   9.191   6.973
 3910POPC   C4B51250  10.990   9.228   7.257
 3911POPC   NC351251  42.126   0.847   5.384
 3911POPC   PO451252  42.424   0.284   5.466
 3911POPC   GL151253  42.290   0.444   5.837
 3911POPC   GL251254  42.508   0.711   5.921
 3911POPC   C1A51255  42.418   0.241   6.232
 3911POPC   D2A51256  42.618   0.331   6.613
 3911POPC   C3A51257  42.405   0.261   7.018
 3911POPC   C4A51258  42.367   0.374   7.468
 3911POPC   C1B51259  42.177   0.673   6.271
 3911POPC   C2B51260  42.159   0.547   6.675
 3911POPC   C3B51261  42.099   0.660   7.118
 3911POPC   C4B51262  41.909   0.628   7.486
 3912POPC   NC351263   6.117  26.107   5.392
 3912POPC   PO451264   5.631  25.619   5.227
 3912POPC   GL151265   5.702  25.872   5.676
 3912POPC   GL251266   6.040  25.867   5.834
 3912POPC   C1A51267   5.704  25.991   6.181
 3912POPC   D2A51268   5.701  25.880   6.657
 3912POPC   C3A51269   5.754  26.127   7.064
 3912POPC   C4A51270   5.784  26.197   7.565
 3912POPC   C1B51271   6.226  26.008   6.231
 3912POPC   C2B51272   6.145  26.132   6.677
 3912POPC   C3B51273   6.246  26.177   7.130
 3912POPC   C4B51274   6.231  25.928   7.524
 3913POPC   NC351275   0.948  15.370   5.448
 3913POPC   PO451276   1.587  15.112   5.352
 3913POPC   GL151277   1.302  15.119   5.707
 3913POPC   GL251278   1.412  15.450   5.754
 3913POPC   C1A51279   1.047  14.931   6.045
 3913POPC   D2A51280   1.085  15.036   6.477
 3913POPC   C3A51281   0.846  15.024   6.854
 3913POPC   C4A51282   1.178  15.033   7.178
 3913POPC   C1B51283   1.486  15.314   6.175
 3913POPC   C2B51284   1.296  15.487   6.542
 3913POPC   C3B51285   1.098  15.479   6.929
 3913POPC   C4B51286   1.223  15.548   7.323
 3914POPC   NC351287  37.930  27.858   5.343
 3914POPC   PO451288  37.569  27.286   5.212
 3914POPC   GL151289  37.745  27.461   5.643
 3914POPC   GL251290  37.479  27.456   5.923
 3914POPC   C1A51291  37.959  27.413   6.079
 3914POPC   D2A51292  37.799  27.314   6.512
 3914POPC   C3A51293  37.742  27.570   6.888
 3914POPC   C4A51294  37.839  27.469   7.312
 3914POPC   C1B51295  37.536  27.766   6.331
 3914POPC   C2B51296  37.659  28.083   6.716
 3914POPC   C3B51297  37.677  27.988   7.214
 3914POPC   C4B51298  37.435  28.020   7.624
 3915POPC   NC351299  24.804   5.354   5.496
 3915POPC   PO451300  24.222   4.862   5.413
 3915POPC   GL151301  24.450   5.025   5.771
 3915POPC   GL251302  24.819   4.937   5.813
 3915POPC   C1A51303  24.413   4.874   6.210
 3915POPC   D2A51304  24.520   5.090   6.586
 3915POPC   C3A51305  24.336   4.912   6.920
 3915POPC   C4A51306  24.416   4.736   7.296
 3915POPC   C1B51307  24.781   5.208   6.138
 3915POPC   C2B51308  24.825   5.525   6.425
 3915POPC   C3B51309  24.841   5.452   6.854
 3915POPC   C4B51310  24.780   5.076   7.085
 3916POPC   NC351311  33.082   3.836   5.367
 3916POPC   PO451312  33.348   3.243   5.513
 3916POPC   GL151313  32.879   3.298   5.678
 3916POPC   GL251314  32.745   3.655   5.726
 3916POPC   C1A51315  32.807   3.384   6.146
 3916POPC   D2A51316  33.208   3.520   6.392
 3916POPC   C3A51317  33.284   3.527   6.853
 3916POPC   C4A51318  32.967   3.568   7.163
 3916POPC   C1B51319  32.749   3.894   6.163
 3916POPC   C2B51320  33.048   4.018   6.504
 3916POPC   C3B51321  33.128   4.049   6.955
 3916POPC   C4B51322  33.373   3.858   7.263
 3917POPC   NC351323  44.582   4.957   5.344
 3917POPC   PO451324  44.553   5.540   5.602
 3917POPC   GL151325  44.549   5.137   5.820
 3917POPC   GL251326  44.869   4.928   5.797
 3917POPC   C1A51327  44.541   4.971   6.229
 3917POPC   D2A51328  44.382   5.039   6.610
 3917POPC   C3A51329  44.568   4.940   6.949
 3917POPC   C4A51330  44.258   4.855   7.249
 3917POPC   C1B51331  44.941   5.268   6.121
 3917POPC   C2B51332  44.873   5.245   6.578
 3917POPC   C3B51333   0.105   5.138   6.970
 3917POPC   C4B51334   0.058   4.896   7.344
 3918POPC   NC351335  27.996   0.680   5.492
 3918POPC   PO451336  28.636   0.494   5.392
 3918POPC   GL151337  28.416   0.673   5.782
 3918POPC   GL251338  28.185   0.369   5.846
 3918POPC   C1A51339  28.294   0.631   6.244
 3918POPC   D2A51340  28.409   0.339   6.585
 3918POPC   C3A51341  28.356   0.588   6.955
 3918POPC   C4A51342  28.058   0.742   7.235
 3918POPC   C1B51343  28.590   0.248   6.022
 3918POPC   C2B51344  28.815   0.114   6.381
 3918POPC   C3B51345  28.814   0.058   6.837
 3918POPC   C4B51346  28.600   0.220   7.179
 3919POPC   NC351347  36.460  44.737   5.509
 3919POPC   PO451348  35.707  44.579   5.497
 3919POPC   GL151349  35.979  44.773   5.767
 3919POPC   GL251350  36.133  44.442   5.762
 3919POPC   C1A51351  35.997  44.960   6.176
 3919POPC   D2A51352  36.234  44.920   6.565
 3919POPC   C3A51353  36.038  44.937   6.957
 3919POPC   C4A51354  36.170  44.859   7.363
 3919POPC   C1B51355  36.093  44.445   6.191
 3919POPC   C2B51356  36.283  44.405   6.580
 3919POPC   C3B51357  36.182  44.451   6.985
 3919POPC   C4B51358  36.100  44.223   7.332
 3920POPC   NC351359  29.499  28.805   5.397
 3920POPC   PO451360  30.122  29.035   5.404
 3920POPC   GL151361  30.072  29.126   5.823
 3920POPC   GL251362  29.723  29.226   5.753
 3920POPC   C1A51363  30.170  29.031   6.246
 3920POPC   D2A51364  30.003  29.166   6.624
 3920POPC   C3A51365  30.087  28.934   6.979
 3920POPC   C4A51366  30.079  29.140   7.345
 3920POPC   C1B51367  29.518  29.344   6.131
 3920POPC   C2B51368  29.494  29.229   6.572
 3920POPC   C3B51369  29.634  29.162   7.011
 3920POPC   C4B51370  29.689  29.461   7.334
 3921POPC   NC351371  32.125  22.542   5.632
 3921POPC   PO451372  32.151  21.872   5.489
 3921POPC   GL151373  31.964  21.973   5.860
 3921POPC   GL251374  32.272  22.149   5.943
 3921POPC   C1A51375  31.853  22.052   6.300
 3921POPC   D2A51376  32.089  22.317   6.616
 3921POPC   C3A51377  32.228  22.311   7.058
 3921POPC   C4A51378  32.233  22.641   7.371
 3921POPC   C1B51379  32.470  22.092   6.329
 3921POPC   C2B51380  32.661  21.930   6.680
 3921POPC   C3B51381  32.753  22.136   7.094
 3921POPC   C4B51382  32.525  22.220   7.484
 3922POPC   NC351383   7.053  10.868   5.128
 3922POPC   PO451384   7.521  11.256   5.344
 3922POPC   GL151385   7.623  11.258   5.769
 3922POPC   GL251386   7.348  11.408   5.922
 3922POPC   C1A51387   7.589  11.000   6.142
 3922POPC   D2A51388   7.315  10.983   6.490
 3922POPC   C3A51389   7.390  11.213   6.843
 3922POPC   C4A51390   7.553  11.365   7.194
 3922POPC   C1B51391   7.362  11.468   6.340
 3922POPC   C2B51392   7.588  11.759   6.525
 3922POPC   C3B51393   7.798  11.702   6.884
 3922POPC   C4B51394   7.768  11.836   7.283
 3923POPC   NC351395  37.237  40.540   5.434
 3923POPC   PO451396  36.664  40.800   5.477
 3923POPC   GL151397  36.998  40.839   5.778
 3923POPC   GL251398  37.277  41.030   5.589
 3923POPC   C1A51399  37.143  40.700   6.211
 3923POPC   D2A51400  37.202  40.718   6.666
 3923POPC   C3A51401  36.809  40.638   6.905
 3923POPC   C4A51402  36.527  40.726   7.249
 3923POPC   C1B51403  37.318  41.141   6.009
 3923POPC   C2B51404  37.302  41.199   6.453
 3923POPC   C3B51405  37.229  41.149   6.902
 3923POPC   C4B51406  36.985  41.030   7.232
 3924POPC   NC351407   4.797  23.153   5.346
 3924POPC   PO451408   5.246  22.700   5.372
 3924POPC   GL151409   5.027  22.690   5.732
 3924POPC   GL251410   5.024  23.052   5.782
 3924POPC   C1A51411   5.208  22.604   6.139
 3924POPC   D2A51412   5.407  22.684   6.559
 3924POPC   C3A51413   5.077  22.813   6.868
 3924POPC   C4A51414   4.981  22.875   7.301
 3924POPC   C1B51415   4.811  22.976   6.143
 3924POPC   C2B51416   4.837  23.146   6.552
 3924POPC   C3B51417   4.768  23.226   6.992
 3924POPC   C4B51418   4.740  23.528   7.332
 3925POPC   NC351419  19.174  24.744   5.610
 3925POPC   PO451420  19.306  24.150   5.363
 3925POPC   GL151421  19.303  24.261   5.780
 3925POPC   GL251422  18.981  24.324   5.866
 3925POPC   C1A51423  19.330  24.484   6.191
 3925POPC   D2A51424  19.100  24.403   6.550
 3925POPC   C3A51425  19.297  24.367   6.934
 3925POPC   C4A51426  19.064  24.334   7.311
 3925POPC   C1B51427  18.816  24.643   6.159
 3925POPC   C2B51428  18.875  24.864   6.564
 3925POPC   C3B51429  18.881  24.685   6.964
 3925POPC   C4B51430  18.642  24.613   7.312
 3926POPC   NC351431   5.449  29.286   5.222
 3926POPC   PO451432   5.010  29.674   5.519
 3926POPC   GL151433   5.127  29.357   5.845
 3926POPC   GL251434   4.948  29.027   5.836
 3926POPC   C1A51435   5.029  29.306   6.300
 3926POPC   D2A51436   5.095  29.071   6.683
 3926POPC   C3A51437   4.850  29.202   7.027
 3926POPC   C4A51438   5.012  29.379   7.385
 3926POPC   C1B51439   4.855  28.829   6.260
 3926POPC   C2B51440   4.654  28.845   6.676
 3926POPC   C3B51441   4.766  28.682   7.069
 3926POPC   C4B51442   5.147  28.826   7.290
 3927POPC   NC351443  26.102   4.033   5.254
 3927POPC   PO451444  25.884   4.670   5.458
 3927POPC   GL151445  26.056   4.358   5.745
 3927POPC   GL251446  26.372   4.176   5.669
 3927POPC   C1A51447  25.945   4.197   6.160
 3927POPC   D2A51448  25.671   4.222   6.524
 3927POPC   C3A51449  25.902   4.178   6.896
 3927POPC   C4A51450  25.855   4.419   7.261
 3927POPC   C1B51451  26.441   4.025   6.089
 3927POPC   C2B51452  26.284   4.015   6.536
 3927POPC   C3B51453  26.421   4.026   6.957
 3927POPC   C4B51454  26.311   3.917   7.420
 3928POPC   NC351455  11.916  40.433   5.630
 3928POPC   PO451456  12.170  41.011   5.373
 3928POPC   GL151457  12.107  40.935   5.803
 3928POPC   GL251458  11.762  40.960   5.820
 3928POPC   C1A51459  12.346  41.005   6.234
 3928POPC   D2A51460  12.568  41.090   6.636
 3928POPC   C3A51461  12.413  40.885   7.005
 3928POPC   C4A51462  12.123  40.508   7.033
 3928POPC   C1B51463  11.905  40.748   6.224
 3928POPC   C2B51464  12.056  40.843   6.636
 3928POPC   C3B51465  11.889  40.957   7.058
 3928POPC   C4B51466  11.660  40.744   7.359
 3929POPC   NC351467  34.422  13.593   5.283
 3929POPC   PO451468  34.811  13.994   5.713
 3929POPC   GL151469  34.427  13.854   5.888
 3929POPC   GL251470  34.453  13.526   6.000
 3929POPC   C1A51471  34.283  13.847   6.335
 3929POPC   D2A51472  34.434  13.499   6.637
 3929POPC   C3A51473  34.739  13.701   6.923
 3929POPC   C4A51474  34.921  13.837   7.328
 3929POPC   C1B51475  34.792  13.661   6.296
 3929POPC   C2B51476  35.007  13.385   6.567
 3929POPC   C3B51477  34.958  13.201   6.930
 3929POPC   C4B51478  34.714  13.332   7.274
 3930POPC   NC351479  38.957  25.554   5.271
 3930POPC   PO451480  39.350  25.074   5.498
 3930POPC   GL151481  39.229  25.109   5.873
 3930POPC   GL251482  39.254  25.454   5.828
 3930POPC   C1A51483  39.250  25.248   6.304
 3930POPC   D2A51484  38.912  25.221   6.626
 3930POPC   C3A51485  39.070  25.075   7.013
 3930POPC   C4A51486  39.467  25.048   7.219
 3930POPC   C1B51487  38.933  25.637   6.059
 3930POPC   C2B51488  38.862  25.713   6.506
 3930POPC   C3B51489  38.885  25.612   6.978
 3930POPC   C4B51490  39.089  25.436   7.396
 3931POPC   NC351491  10.831  23.344   5.479
 3931POPC   PO451492  10.438  22.826   5.411
 3931POPC   GL151493  10.435  23.113   5.783
 3931POPC   GL251494  10.761  23.026   5.878
 3931POPC   C1A51495  10.426  23.024   6.251
 3931POPC   D2A51496  10.446  22.731   6.575
 3931POPC   C3A51497  10.493  22.904   6.993
 3931POPC   C4A51498  10.127  23.009   7.241
 3931POPC   C1B51499  10.872  22.767   6.239
 3931POPC   C2B51500  10.939  22.785   6.701
 3931POPC   C3B51501  10.963  22.636   7.137
 3931POPC   C4B51502  10.842  22.590   7.584
 3932POPC   NC351503  42.091  28.664   5.154
 3932POPC   PO451504  42.394  28.065   5.260
 3932POPC   GL151505  42.326  28.251   5.674
 3932POPC   GL251506  42.121  28.552   5.757
 3932POPC   C1A51507  42.310  28.184   6.115
 3932POPC   D2A51508  42.349  28.363   6.522
 3932POPC   C3A51509  42.364  28.152   6.883
 3932POPC   C4A51510  42.265  28.122   7.273
 3932POPC   C1B51511  41.970  28.572   6.182
 3932POPC   C2B51512  42.079  28.781   6.577
 3932POPC   C3B51513  42.047  28.559   6.980
 3932POPC   C4B51514  42.123  28.596   7.428
 3933POPC   NC351515  44.438  36.937   5.440
 3933POPC   PO451516   0.077  36.888   5.506
 3933POPC   GL151517  44.749  37.050   5.857
 3933POPC   GL251518  44.338  37.075   5.904
 3933POPC   C1A51519  44.650  36.782   6.239
 3933POPC   D2A51520  44.725  36.672   6.680
 3933POPC   C3A51521  44.647  36.623   7.127
 3933POPC   C4A51522  44.910  36.540   7.490
 3933POPC   C1B51523  44.438  37.232   6.279
 3933POPC   C2B51524  44.453  37.102   6.694
 3933POPC   C3B51525  44.677  37.136   7.065
 3933POPC   C4B51526  44.458  37.268   7.420
 3934POPC   NC351527  43.954  25.409   5.278
 3934POPC   PO451528  43.585  24.804   5.424
 3934POPC   GL151529  43.804  25.073   5.755
 3934POPC   GL251530  43.681  25.419   5.715
 3934POPC   C1A51531  43.886  24.961   6.228
 3934POPC   D2A51532  43.750  24.929   6.680
 3934POPC   C3A51533  43.856  25.214   7.019
 3934POPC   C4A51534  43.978  25.150   7.432
 3934POPC   C1B51535  43.866  25.466   6.119
 3934POPC   C2B51536  43.692  25.426   6.511
 3934POPC   C3B51537  43.751  25.690   6.830
 3934POPC   C4B51538  43.787  25.705   7.261
 3935POPC   NC351539   1.901  12.392   5.353
 3935POPC   PO451540   1.805  13.060   5.249
 3935POPC   GL151541   1.801  12.817   5.618
 3935POPC   GL251542   2.145  12.898   5.657
 3935POPC   C1A51543   1.829  12.753   6.072
 3935POPC   D2A51544   1.638  12.833   6.478
 3935POPC   C3A51545   1.881  12.744   6.844
 3935POPC   C4A51546   1.705  12.760   7.258
 3935POPC   C1B51547   2.228  13.139   6.035
 3935POPC   C2B51548   2.154  13.062   6.470
 3935POPC   C3B51549   2.231  13.106   6.928
 3935POPC   C4B51550   2.210  12.814   7.281
 3936POPC   NC351551  41.567  24.204   5.337
 3936POPC   PO451552  41.630  24.837   5.174
 3936POPC   GL151553  41.561  24.615   5.663
 3936POPC   GL251554  41.812  24.458   5.886
 3936POPC   C1A51555  41.353  24.390   6.086
 3936POPC   D2A51556  41.262  24.136   6.494
 3936POPC   C3A51557  41.483  24.277   6.847
 3936POPC   C4A51558  41.602  24.539   7.172
 3936POPC   C1B51559  41.976  24.556   6.303
 3936POPC   C2B51560  41.821  24.670   6.707
 3936POPC   C3B51561  41.940  24.911   7.059
 3936POPC   C4B51562  41.895  24.879   7.477
 3937POPC   NC351563  29.862   7.875   5.461
 3937POPC   PO451564  30.340   8.321   5.296
 3937POPC   GL151565  30.095   8.347   5.731
 3937POPC   GL251566  29.828   8.120   5.919
 3937POPC   C1A51567  30.254   8.307   6.175
 3937POPC   D2A51568  30.094   8.175   6.568
 3937POPC   C3A51569  30.225   8.380   6.966
 3937POPC   C4A51570  30.134   8.111   7.311
 3937POPC   C1B51571  29.519   8.239   6.273
 3937POPC   C2B51572  29.504   8.403   6.672
 3937POPC   C3B51573  29.747   8.177   6.960
 3937POPC   C4B51574  29.629   7.966   7.326
 3938POPC   NC351575   7.746  27.182   5.348
 3938POPC   PO451576   7.309  26.695   5.074
 3938POPC   GL151577   7.422  26.732   5.561
 3938POPC   GL251578   7.435  27.072   5.764
 3938POPC   C1A51579   7.260  26.684   6.020
 3938POPC   D2A51580   7.372  26.901   6.403
 3938POPC   C3A51581   7.350  26.702   6.796
 3938POPC   C4A51582   7.294  26.750   7.227
 3938POPC   C1B51583   7.138  27.245   6.109
 3938POPC   C2B51584   7.094  27.284   6.590
 3938POPC   C3B51585   7.288  27.210   7.005
 3938POPC   C4B51586   7.316  27.197   7.461
 3939POPC   NC351587   7.979  12.360   5.021
 3939POPC   PO451588   8.133  11.812   5.334
 3939POPC   GL151589   8.061  12.017   5.750
 3939POPC   GL251590   8.066  12.369   5.781
 3939POPC   C1A51591   8.115  11.976   6.210
 3939POPC   D2A51592   8.245  12.174   6.611
 3939POPC   C3A51593   8.252  11.938   6.997
 3939POPC   C4A51594   8.486  11.706   7.259
 3939POPC   C1B51595   7.861  12.414   6.166
 3939POPC   C2B51596   7.744  12.264   6.578
 3939POPC   C3B51597   7.890  12.304   7.042
 3939POPC   C4B51598   7.812  12.273   7.515
 3940POPC   NC351599   3.418  38.616   5.292
 3940POPC   PO451600   4.076  38.563   5.575
 3940POPC   GL151601   3.639  38.560   5.775
 3940POPC   GL251602   3.251  38.476   5.770
 3940POPC   C1A51603   3.623  38.737   6.172
 3940POPC   D2A51604   3.895  38.819   6.503
 3940POPC   C3A51605   3.786  38.786   6.909
 3940POPC   C4A51606   3.835  38.586   7.270
 3940POPC   C1B51607   3.331  38.331   6.199
 3940POPC   C2B51608   3.538  38.438   6.592
 3940POPC   C3B51609   3.322  38.509   6.955
 3940POPC   C4B51610   3.324  38.676   7.339
 3941POPC   NC351611  36.555  20.627   5.208
 3941POPC   PO451612  35.902  20.605   5.442
 3941POPC   GL151613  36.097  20.591   5.814
 3941POPC   GL251614  36.406  20.750   5.690
 3941POPC   C1A51615  35.962  20.442   6.208
 3941POPC   D2A51616  36.150  20.543   6.596
 3941POPC   C3A51617  35.880  20.560   6.947
 3941POPC   C4A51618  36.034  20.356   7.302
 3941POPC   C1B51619  36.503  20.712   6.141
 3941POPC   C2B51620  36.527  20.883   6.562
 3941POPC   C3B51621  36.611  20.734   7.002
 3941POPC   C4B51622  36.433  20.697   7.429
 3942POPC   NC351623  16.121   6.433   5.574
 3942POPC   PO451624  16.617   5.980   5.493
 3942POPC   GL151625  16.705   5.831   5.840
 3942POPC   GL251626  16.864   5.573   5.814
 3942POPC   C1A51627  16.855   5.897   6.248
 3942POPC   D2A51628  16.953   6.095   6.656
 3942POPC   C3A51629  16.668   6.142   6.987
 3942POPC   C4A51630  16.608   5.921   7.376
 3942POPC   C1B51631  16.514   5.479   6.147
 3942POPC   C2B51632  16.404   5.464   6.589
 3942POPC   C3B51633  16.716   5.640   6.883
 3942POPC   C4B51634  16.912   5.501   7.246
 3943POPC   NC351635  15.802  41.930   5.084
 3943POPC   PO451636  16.202  41.400   5.228
 3943POPC   GL151637  15.948  41.386   5.610
 3943POPC   GL251638  15.789  41.721   5.646
 3943POPC   C1A51639  16.077  41.415   6.052
 3943POPC   D2A51640  16.068  41.683   6.411
 3943POPC   C3A51641  16.110  41.462   6.787
 3943POPC   C4A51642  16.095  41.469   7.211
 3943POPC   C1B51643  15.678  41.857   6.098
 3943POPC   C2B51644  15.569  41.652   6.498
 3943POPC   C3B51645  15.682  41.690   6.930
 3943POPC   C4B51646  15.425  41.820   7.243
 3944POPC   NC351647  41.974  15.922   5.450
 3944POPC   PO451648  42.589  16.178   5.593
 3944POPC   GL151649  42.438  16.171   5.964
 3944POPC   GL251650  42.108  16.242   5.821
 3944POPC   C1A51651  42.510  15.962   6.335
 3944POPC   D2A51652  42.273  15.685   6.573
 3944POPC   C3A51653  42.180  15.844   6.979
 3944POPC   C4A51654  42.266  15.761   7.394
 3944POPC   C1B51655  42.023  15.950   6.150
 3944POPC   C2B51656  42.049  16.143   6.533
 3944POPC   C3B51657  42.032  16.337   6.902
 3944POPC   C4B51658  42.119  16.249   7.332
 3945POPC   NC351659  33.209   1.921   5.481
 3945POPC   PO451660  33.396   2.532   5.516
 3945POPC   GL151661  33.128   2.334   5.809
 3945POPC   GL251662  32.796   2.220   5.630
 3945POPC   C1A51663  33.269   2.130   6.199
 3945POPC   D2A51664  33.330   2.151   6.659
 3945POPC   C3A51665  33.156   1.791   6.839
 3945POPC   C4A51666  33.181   1.576   7.222
 3945POPC   C1B51667  32.668   2.084   6.047
 3945POPC   C2B51668  32.830   1.943   6.439
 3945POPC   C3B51669  32.825   2.189   6.790
 3945POPC   C4B51670  32.887   2.108   7.170
 3946POPC   NC351671  27.994  22.804   5.392
 3946POPC   PO451672  28.643  22.630   5.358
 3946POPC   GL151673  28.501  22.890   5.708
 3946POPC   GL251674  28.221  23.115   5.719
 3946POPC   C1A51675  28.597  23.058   6.106
 3946POPC   D2A51676  28.525  22.833   6.464
 3946POPC   C3A51677  28.633  22.775   6.868
 3946POPC   C4A51678  28.634  22.979   7.258
 3946POPC   C1B51679  28.081  22.883   6.095
 3946POPC   C2B51680  28.045  22.968   6.546
 3946POPC   C3B51681  28.224  23.137   6.920
 3946POPC   C4B51682  28.158  23.138   7.354
 3947POPC   NC351683  25.529  31.887   5.404
 3947POPC   PO451684  25.233  31.276   5.416
 3947POPC   GL151685  25.350  31.512   5.784
 3947POPC   GL251686  25.688  31.459   5.739
 3947POPC   C1A51687  25.278  31.470   6.251
 3947POPC   D2A51688  25.130  31.164   6.571
 3947POPC   C3A51689  24.984  31.265   7.005
 3947POPC   C4A51690  25.076  31.424   7.422
 3947POPC   C1B51691  25.730  31.688   6.127
 3947POPC   C2B51692  25.631  31.689   6.587
 3947POPC   C3B51693  25.446  31.539   6.990
 3947POPC   C4B51694  25.539  31.620   7.433
 3948POPC   NC351695  34.591   0.692   5.419
 3948POPC   PO451696  34.317   0.162   5.202
 3948POPC   GL151697  34.599   0.273   5.692
 3948POPC   GL251698  34.439   0.630   5.886
 3948POPC   C1A51699  34.743   0.415   6.187
 3948POPC   D2A51700  34.559   0.641   6.568
 3948POPC   C3A51701  34.440   0.356   6.893
 3948POPC   C4A51702  34.566   0.168   7.275
 3948POPC   C1B51703  34.146   0.687   6.249
 3948POPC   C2B51704  34.081   0.885   6.623
 3948POPC   C3B51705  34.282   0.855   7.018
 3948POPC   C4B51706  34.364   0.875   7.457
 3949POPC   NC351707   3.081  44.709   5.345
 3949POPC   PO451708   2.535  44.291   5.452
 3949POPC   GL151709   2.619  44.505   5.869
 3949POPC   GL251710   2.652  44.888   5.877
 3949POPC   C1A51711   2.800  44.622   6.303
 3949POPC   D2A51712   3.043  44.777   6.686
 3949POPC   C3A51713   3.003  44.449   6.997
 3949POPC   C4A51714   2.768  44.547   7.361
 3949POPC   C1B51715   2.331  44.834   6.188
 3949POPC   C2B51716   2.349  44.639   6.571
 3949POPC   C3B51717   2.560  44.730   6.926
 3949POPC   C4B51718   2.480  44.949   7.297
 3950POPC   NC351719   7.347  30.483   5.266
 3950POPC   PO451720   7.500  29.793   5.186
 3950POPC   GL151721   7.317  29.976   5.597
 3950POPC   GL251722   7.530  30.224   5.796
 3950POPC   C1A51723   7.247  29.890   6.050
 3950POPC   D2A51724   7.400  29.690   6.409
 3950POPC   C3A51725   7.324  29.813   6.831
 3950POPC   C4A51726   7.280  29.720   7.260
 3950POPC   C1B51727   7.758  29.997   6.148
 3950POPC   C2B51728   7.832  29.894   6.598
 3950POPC   C3B51729   7.775  29.767   7.048
 3950POPC   C4B51730   7.600  30.117   7.245
 3951POPC   NC351731  39.729   5.117   5.258
 3951POPC   PO451732  39.091   5.142   5.316
 3951POPC   GL151733  39.089   5.037   5.744
 3951POPC   GL251734  39.289   4.754   5.731
 3951POPC   C1A51735  39.283   5.097   6.142
 3951POPC   D2A51736  39.374   5.159   6.576
 3951POPC   C3A51737  39.118   5.206   6.951
 3951POPC   C4A51738  39.131   4.989   7.366
 3951POPC   C1B51739  39.397   4.587   6.152
 3951POPC   C2B51740  39.528   4.644   6.599
 3951POPC   C3B51741  39.500   4.810   7.037
 3951POPC   C4B51742  39.621   4.862   7.523
 3952POPC   NC351743  44.649  17.656   5.365
 3952POPC   PO451744  44.452  17.026   5.462
 3952POPC   GL151745  44.694  17.267   5.777
 3952POPC   GL251746  44.848  17.607   5.831
 3952POPC   C1A51747  44.698  17.285   6.226
 3952POPC   D2A51748  44.489  17.114   6.577
 3952POPC   C3A51749  44.676  17.215   6.980
 3952POPC   C4A51750  44.640  17.462   7.362
 3952POPC   C1B51751  44.535  17.763   6.161
 3952POPC   C2B51752  44.531  17.637   6.634
 3952POPC   C3B51753  44.381  17.792   7.067
 3952POPC   C4B51754  44.313  17.803   7.544
 3953POPC   NC351755  25.714   1.744   5.541
 3953POPC   PO451756  25.618   1.059   5.512
 3953POPC   GL151757  25.430   1.239   5.891
 3953POPC   GL251758  25.061   1.418   5.849
 3953POPC   C1A51759  25.432   1.001   6.296
 3953POPC   D2A51760  25.088   1.032   6.622
 3953POPC   C3A51761  25.014   1.056   7.083
 3953POPC   C4A51762  25.298   1.141   7.439
 3953POPC   C1B51763  25.159   1.435   6.285
 3953POPC   C2B51764  25.520   1.431   6.562
 3953POPC   C3B51765  25.443   1.345   6.987
 3953POPC   C4B51766  25.102   1.575   7.156
 3954POPC   NC351767  10.203  11.134   5.359
 3954POPC   PO451768   9.613  11.330   5.216
 3954POPC   GL151769   9.862  11.479   5.612
 3954POPC   GL251770   9.842  11.150   5.765
 3954POPC   C1A51771   9.916  11.529   6.102
 3954POPC   D2A51772   9.709  11.623   6.524
 3954POPC   C3A51773   9.900  11.496   6.930
 3954POPC   C4A51774   9.929  11.320   7.311
 3954POPC   C1B51775   9.744  11.055   6.208
 3954POPC   C2B51776   9.837  11.083   6.646
 3954POPC   C3B51777   9.588  11.077   7.020
 3954POPC   C4B51778   9.409  10.722   7.205
 3955POPC   NC351779  41.719  22.427   5.070
 3955POPC   PO451780  41.533  21.973   5.583
 3955POPC   GL151781  41.654  22.163   5.952
 3955POPC   GL251782  41.565  22.518   5.871
 3955POPC   C1A51783  41.788  22.003   6.338
 3955POPC   D2A51784  41.483  21.814   6.501
 3955POPC   C3A51785  41.420  21.872   6.889
 3955POPC   C4A51786  41.505  21.930   7.267
 3955POPC   C1B51787  41.699  22.501   6.314
 3955POPC   C2B51788  41.548  22.334   6.682
 3955POPC   C3B51789  41.757  22.323   7.037
 3955POPC   C4B51790  42.150  22.489   7.220
 3956POPC   NC351791  38.923  29.422   5.235
 3956POPC   PO451792  38.369  29.024   5.425
 3956POPC   GL151793  38.545  29.131   5.799
 3956POPC   GL251794  38.773  29.366   5.738
 3956POPC   C1A51795  38.390  29.225   6.222
 3956POPC   D2A51796  38.593  29.113   6.604
 3956POPC   C3A51797  38.461  28.926   6.989
 3956POPC   C4A51798  38.288  28.800   7.377
 3956POPC   C1B51799  38.798  29.534   6.167
 3956POPC   C2B51800  38.868  29.560   6.632
 3956POPC   C3B51801  38.638  29.429   7.041
 3956POPC   C4B51802  38.503  29.258   7.449
 3957POPC   NC351803   1.709  42.402   5.119
 3957POPC   PO451804   2.349  42.277   5.363
 3957POPC   GL151805   2.135  42.293   5.783
 3957POPC   GL251806   1.917  41.998   5.890
 3957POPC   C1A51807   1.995  42.358   6.225
 3957POPC   D2A51808   1.894  42.519   6.618
 3957POPC   C3A51809   2.215  42.494   6.874
 3957POPC   C4A51810   2.441  42.383   7.215
 3957POPC   C1B51811   1.634  41.964   6.246
 3957POPC   C2B51812   1.686  41.855   6.668
 3957POPC   C3B51813   1.740  42.177   6.957
 3957POPC   C4B51814   1.929  42.228   7.322
 3958POPC   NC351815  25.161  36.462   5.396
 3958POPC   PO451816  25.500  37.017   5.260
 3958POPC   GL151817  25.440  36.883   5.712
 3958POPC   GL251818  25.566  36.553   5.779
 3958POPC   C1A51819  25.345  36.967   6.184
 3958POPC   D2A51820  25.099  36.822   6.583
 3958POPC   C3A51821  25.202  36.950   7.034
 3958POPC   C4A51822  25.231  37.312   7.314
 3958POPC   C1B51823  25.748  36.653   6.214
 3958POPC   C2B51824  25.635  36.870   6.631
 3958POPC   C3B51825  25.645  36.692   7.043
 3958POPC   C4B51826  25.611  36.659   7.480
 3959POPC   NC351827  19.841  26.397   5.339
 3959POPC   PO451828  19.788  25.727   5.388
 3959POPC   GL151829  19.839  25.925   5.783
 3959POPC   GL251830  20.070  25.669   5.904
 3959POPC   C1A51831  20.024  26.113   6.187
 3959POPC   D2A51832  19.959  26.316   6.580
 3959POPC   C3A51833  20.153  26.231   6.948
 3959POPC   C4A51834  19.854  26.271   7.271
 3959POPC   C1B51835  19.739  25.705   6.233
 3959POPC   C2B51836  19.677  25.867   6.639
 3959POPC   C3B51837  19.867  25.814   7.039
 3959POPC   C4B51838  20.069  25.444   7.118
 3960POPC   NC351839  37.800   8.662   5.627
 3960POPC   PO451840  37.653   9.176   5.210
 3960POPC   GL151841  37.562   9.115   5.689
 3960POPC   GL251842  37.390   9.374   5.821
 3960POPC   C1A51843  37.641   9.013   6.159
 3960POPC   D2A51844  37.546   8.730   6.524
 3960POPC   C3A51845  37.729   8.857   6.920
 3960POPC   C4A51846  37.637   8.855   7.355
 3960POPC   C1B51847  37.214   9.291   6.222
 3960POPC   C2B51848  37.347   9.189   6.604
 3960POPC   C3B51849  37.345   9.413   6.952
 3960POPC   C4B51850  37.458   9.324   7.349
 3961POPC   NC351851  30.162  21.771   5.251
 3961POPC   PO451852  30.263  22.411   5.403
 3961POPC   GL151853  29.948  22.197   5.734
 3961POPC   GL251854  29.649  22.395   5.816
 3961POPC   C1A51855  29.685  21.959   6.120
 3961POPC   D2A51856  29.552  22.079   6.595
 3961POPC   C3A51857  29.710  21.850   6.998
 3961POPC   C4A51858  29.781  21.843   7.480
 3961POPC   C1B51859  29.794  22.424   6.277
 3961POPC   C2B51860  30.043  22.642   6.590
 3961POPC   C3B51861  30.187  22.570   7.013
 3961POPC   C4B51862  29.977  22.241   7.216
 3962POPC   NC351863  20.224  35.065   5.085
 3962POPC   PO451864  20.733  35.478   5.213
 3962POPC   GL151865  20.724  35.501   5.710
 3962POPC   GL251866  21.002  35.751   5.834
 3962POPC   C1A51867  20.584  35.281   6.118
 3962POPC   D2A51868  20.596  35.147   6.588
 3962POPC   C3A51869  20.269  35.261   6.914
 3962POPC   C4A51870  20.296  35.295   7.363
 3962POPC   C1B51871  20.989  35.568   6.268
 3962POPC   C2B51872  20.818  35.613   6.672
 3962POPC   C3B51873  20.939  35.891   6.990
 3962POPC   C4B51874  20.969  35.831   7.425
 3963POPC   NC351875  20.945  20.396   5.413
 3963POPC   PO451876  21.643  20.599   5.360
 3963POPC   GL151877  21.497  20.666   5.762
 3963POPC   GL251878  21.159  20.837   5.747
 3963POPC   C1A51879  21.447  20.758   6.184
 3963POPC   D2A51880  21.276  20.514   6.509
 3963POPC   C3A51881  21.333  20.717   6.881
 3963POPC   C4A51882  21.346  20.638   7.287
 3963POPC   C1B51883  20.955  20.797   6.184
 3963POPC   C2B51884  20.837  20.782   6.655
 3963POPC   C3B51885  20.888  20.813   7.113
 3963POPC   C4B51886  21.006  20.913   7.548
 3964POPC   NC351887  40.027  36.006   5.388
 3964POPC   PO451888  39.540  36.450   5.325
 3964POPC   GL151889  39.744  36.361   5.757
 3964POPC   GL251890  40.092  36.230   5.827
 3964POPC   C1A51891  39.750  36.114   6.187
 3964POPC   D2A51892  39.601  35.885   6.570
 3964POPC   C3A51893  39.825  36.045   6.896
 3964POPC   C4A51894  39.640  36.051   7.273
 3964POPC   C1B51895  40.301  36.161   6.233
 3964POPC   C2B51896  40.367  36.027   6.695
 3964POPC   C3B51897  40.354  36.313   7.009
 3964POPC   C4B51898  40.018  36.441   7.195
 3965POPC   NC351899  42.827  12.842   5.429
 3965POPC   PO451900  43.548  12.752   5.429
 3965POPC   GL151901  43.262  12.938   5.761
 3965POPC   GL251902  43.009  12.713   5.892
 3965POPC   C1A51903  43.163  13.077   6.205
 3965POPC   D2A51904  43.233  12.861   6.601
 3965POPC   C3A51905  43.053  13.020   6.962
 3965POPC   C4A51906  42.837  12.752   7.219
 3965POPC   C1B51907  43.395  12.596   6.158
 3965POPC   C2B51908  43.478  12.364   6.546
 3965POPC   C3B51909  43.452  12.508   6.972
 3965POPC   C4B51910  43.516  12.912   7.136
 3966POPC   NC351911  19.396  15.207   5.427
 3966POPC   PO451912  18.802  14.865   5.369
 3966POPC   GL151913  19.013  15.028   5.730
 3966POPC   GL251914  19.018  15.381   5.736
 3966POPC   C1A51915  19.096  15.019   6.161
 3966POPC   D2A51916  18.824  15.081   6.513
 3966POPC   C3A51917  19.052  15.038   6.850
 3966POPC   C4A51918  18.979  15.091   7.249
 3966POPC   C1B51919  19.017  15.523   6.175
 3966POPC   C2B51920  19.112  15.519   6.612
 3966POPC   C3B51921  19.243  15.666   6.991
 3966POPC   C4B51922  18.991  15.604   7.322
 3967POPC   NC351923   6.225  25.390   5.264
 3967POPC   PO451924   5.821  24.954   5.601
 3967POPC   GL151925   5.865  25.372   5.797
 3967POPC   GL251926   5.538  25.479   5.972
 3967POPC   C1A51927   6.004  25.528   6.219
 3967POPC   D2A51928   5.984  25.425   6.650
 3967POPC   C3A51929   6.059  25.707   6.988
 3967POPC   C4A51930   5.794  25.700   7.350
 3967POPC   C1B51931   5.670  25.113   6.221
 3967POPC   C2B51932   5.923  24.890   6.503
 3967POPC   C3B51933   6.032  24.993   6.912
 3967POPC   C4B51934   5.771  25.213   7.156
 3968POPC   NC351935   5.003  36.511   5.413
 3968POPC   PO451936   5.454  36.073   5.452
 3968POPC   GL151937   5.304  35.920   5.830
 3968POPC   GL251938   5.550  35.716   5.929
 3968POPC   C1A51939   5.133  36.108   6.170
 3968POPC   D2A51940   5.284  36.291   6.527
 3968POPC   C3A51941   5.082  36.241   6.908
 3968POPC   C4A51942   4.859  36.247   7.287
 3968POPC   C1B51943   5.595  35.899   6.309
 3968POPC   C2B51944   5.283  35.768   6.541
 3968POPC   C3B51945   5.134  35.732   6.911
 3968POPC   C4B51946   5.219  35.876   7.291
 3969POPC   NC351947   0.347  10.820   5.357
 3969POPC   PO451948   0.186  10.140   5.451
 3969POPC   GL151949   0.367  10.363   5.774
 3969POPC   GL251950   0.569  10.683   5.813
 3969POPC   C1A51951   0.631  10.262   6.119
 3969POPC   D2A51952   0.691  10.401   6.530
 3969POPC   C3A51953   0.314  10.275   6.766
 3969POPC   C4A51954   0.366  10.376   7.188
 3969POPC   C1B51955   0.261  10.674   6.160
 3969POPC   C2B51956   0.281  10.738   6.589
 3969POPC   C3B51957   0.590  10.772   6.915
 3969POPC   C4B51958   0.443  10.944   7.283
 3970POPC   NC351959  30.767  44.754   5.391
 3970POPC   PO451960  30.217  44.389   5.205
 3970POPC   GL151961  30.271  44.654   5.644
 3970POPC   GL251962  30.472  44.984   5.731
 3970POPC   C1A51963  30.444  44.619   6.101
 3970POPC   D2A51964  30.726  44.502   6.446
 3970POPC   C3A51965  30.577  44.559   6.889
 3970POPC   C4A51966  30.857  44.407   7.205
 3970POPC   C1B51967  30.813  44.982   6.043
 3970POPC   C2B51968  30.940  44.956   6.501
 3970POPC   C3B51969  30.961  44.896   6.968
 3970POPC   C4B51970  30.709  44.856   7.361
 3971POPC   NC351971  38.284  29.498   5.383
 3971POPC   PO451972  37.642  29.218   5.332
 3971POPC   GL151973  37.819  29.447   5.693
 3971POPC   GL251974  38.041  29.191   5.786
 3971POPC   C1A51975  37.730  29.352   6.162
 3971POPC   D2A51976  37.506  29.115   6.486
 3971POPC   C3A51977  37.567  29.250   6.894
 3971POPC   C4A51978  37.477  28.956   7.234
 3971POPC   C1B51979  37.988  28.913   6.144
 3971POPC   C2B51980  38.108  28.833   6.576
 3971POPC   C3B51981  37.945  28.922   7.007
 3971POPC   C4B51982  37.999  29.234   7.347
 3972POPC   NC351983  43.339   8.605   5.526
 3972POPC   PO451984  42.766   8.160   5.400
 3972POPC   GL151985  42.898   8.284   5.824
 3972POPC   GL251986  43.003   8.614   5.902
 3972POPC   C1A51987  43.143   8.265   6.253
 3972POPC   D2A51988  43.401   8.393   6.631
 3972POPC   C3A51989  43.292   8.142   7.013
 3972POPC   C4A51990  43.226   7.862   7.387
 3972POPC   C1B51991  42.700   8.560   6.240
 3972POPC   C2B51992  42.748   8.395   6.651
 3972POPC   C3B51993  42.811   8.290   7.088
 3972POPC   C4B51994  43.077   8.376   7.434
 3973POPC   NC351995   7.698  33.626   5.456
 3973POPC   PO451996   8.036  33.048   5.264
 3973POPC   GL151997   8.311  33.017   5.695
 3973POPC   GL251998   8.488  33.341   5.762
 3973POPC   C1A51999   8.260  32.851   6.181
 3973POPC   D2A52000   8.043  32.602   6.559
 3973POPC   C3A52001   7.924  32.768   6.994
 3973POPC   C4A52002   8.128  32.860   7.432
 3973POPC   C1B52003   8.388  33.351   6.240
 3973POPC   C2B52004   8.190  33.124   6.642
 3973POPC   C3B52005   8.117  33.236   7.094
 3973POPC   C4B52006   8.273  33.598   7.322
 3974POPC   NC352007  42.942  34.610   5.372
 3974POPC   PO452008  42.283  34.454   5.320
 3974POPC   GL152009  42.359  34.681   5.751
 3974POPC   GL252010  42.107  34.802   5.933
 3974POPC   C1A52011  42.519  34.737   6.217
 3974POPC   D2A52012  42.634  34.507   6.611
 3974POPC   C3A52013  42.712  34.671   7.022
 3974POPC   C4A52014  42.465  34.895   7.305
 3974POPC   C1B52015  42.111  34.440   6.191
 3974POPC   C2B52016  41.962  34.439   6.625
 3974POPC   C3B52017  42.181  34.499   7.002
 3974POPC   C4B52018  42.066  34.584   7.430
 3975POPC   NC352019   8.511  13.223   5.494
 3975POPC   PO452020   8.201  12.668   5.266
 3975POPC   GL152021   8.273  12.827   5.739
 3975POPC   GL252022   8.536  12.944   5.916
 3975POPC   C1A52023   8.083  12.881   6.167
 3975POPC   D2A52024   8.058  12.666   6.567
 3975POPC   C3A52025   7.965  12.865   6.943
 3975POPC   C4A52026   8.164  12.709   7.306
 3975POPC   C1B52027   8.519  13.138   6.299
 3975POPC   C2B52028   8.370  13.075   6.694
 3975POPC   C3B52029   8.353  13.166   7.118
 3975POPC   C4B52030   8.414  13.131   7.543
 3976POPC   NC352031  21.410   9.161   5.364
 3976POPC   PO452032  21.668   8.533   5.234
 3976POPC   GL152033  21.482   8.727   5.661
 3976POPC   GL252034  21.557   9.064   5.857
 3976POPC   C1A52035  21.207   8.769   6.079
 3976POPC   D2A52036  21.145   8.621   6.546
 3976POPC   C3A52037  21.374   8.779   6.941
 3976POPC   C4A52038  21.331   8.792   7.432
 3976POPC   C1B52039  21.471   9.164   6.325
 3976POPC   C2B52040  21.391   9.298   6.782
 3976POPC   C3B52041  21.258   9.248   7.228
 3976POPC   C4B52042  21.528   9.281   7.609
 3977POPC   NC352043  23.543   1.624   5.569
 3977POPC   PO452044  23.936   1.138   5.225
 3977POPC   GL152045  24.043   1.156   5.669
 3977POPC   GL252046  24.009   1.503   5.774
 3977POPC   C1A52047  23.793   1.081   6.055
 3977POPC   D2A52048  23.872   1.038   6.522
 3977POPC   C3A52049  23.591   1.248   6.832
 3977POPC   C4A52050  23.443   1.243   7.251
 3977POPC   C1B52051  24.225   1.336   6.162
 3977POPC   C2B52052  24.348   1.244   6.573
 3977POPC   C3B52053  24.131   1.276   6.967
 3977POPC   C4B52054  23.898   1.037   7.209
 3978POPC   NC352055  12.818  39.539   5.412
 3978POPC   PO452056  13.294  39.102   5.495
 3978POPC   GL152057  13.021  39.269   5.831
 3978POPC   GL252058  12.661  39.238   5.796
 3978POPC   C1A52059  12.843  39.330   6.266
 3978POPC   D2A52060  12.764  39.400   6.711
 3978POPC   C3A52061  12.942  39.163   7.045
 3978POPC   C4A52062  13.011  39.214   7.508
 3978POPC   C1B52063  12.546  39.663   6.012
 3978POPC   C2B52064  12.331  39.707   6.427
 3978POPC   C3B52065  12.307  39.587   6.864
 3978POPC   C4B52066  12.588  39.533   7.214
 3979POPC   NC352067  22.187   6.215   5.335
 3979POPC   PO452068  21.817   5.670   5.499
 3979POPC   GL152069  22.036   5.970   5.785
 3979POPC   GL252070  22.373   6.025   5.770
 3979POPC   C1A52071  22.014   5.948   6.204
 3979POPC   D2A52072  22.191   5.796   6.566
 3979POPC   C3A52073  22.041   5.861   6.972
 3979POPC   C4A52074  22.140   5.465   7.161
 3979POPC   C1B52075  22.500   6.070   6.179
 3979POPC   C2B52076  22.514   6.196   6.588
 3979POPC   C3B52077  22.547   5.907   6.948
 3979POPC   C4B52078  22.419   5.958   7.372
 3980POPC   NC352079  41.969  26.200   5.409
 3980POPC   PO452080  42.462  25.852   5.538
 3980POPC   GL152081  42.670  26.202   5.758
 3980POPC   GL252082  42.532  26.002   6.032
 3980POPC   C1A52083  42.755  26.442   6.148
 3980POPC   D2A52084  42.510  26.245   6.483
 3980POPC   C3A52085  42.557  26.297   6.914
 3980POPC   C4A52086  42.421  25.996   7.241
 3980POPC   C1B52087  42.089  25.997   6.222
 3980POPC   C2B52088  41.948  26.076   6.660
 3980POPC   C3B52089  41.962  25.916   7.074
 3980POPC   C4B52090  42.076  25.630   7.436
 3981POPC   NC352091  13.058  28.512   5.160
 3981POPC   PO452092  13.106  27.884   5.258
 3981POPC   GL152093  13.108  28.166   5.680
 3981POPC   GL252094  13.121  28.562   5.698
 3981POPC   C1A52095  12.821  28.271   6.062
 3981POPC   D2A52096  12.730  28.627   6.366
 3981POPC   C3A52097  12.699  28.508   6.780
 3981POPC   C4A52098  12.769  28.615   7.200
 3981POPC   C1B52099  13.212  28.584   6.144
 3981POPC   C2B52100  13.146  28.336   6.545
 3981POPC   C3B52101  13.202  28.488   6.992
 3981POPC   C4B52102  13.144  28.433   7.484
 3982POPC   NC352103  26.707  40.925   5.485
 3982POPC   PO452104  26.949  40.311   5.313
 3982POPC   GL152105  26.940  40.566   5.762
 3982POPC   GL252106  26.651  40.775   5.963
 3982POPC   C1A52107  27.091  40.665   6.207
 3982POPC   D2A52108  26.727  40.655   6.503
 3982POPC   C3A52109  26.875  40.596   6.891
 3982POPC   C4A52110  27.290  40.585   7.084
 3982POPC   C1B52111  26.835  41.097   6.274
 3982POPC   C2B52112  27.129  40.998   6.638
 3982POPC   C3B52113  27.056  41.049   7.092
 3982POPC   C4B52114  26.634  41.199   7.222
 3983POPC   NC352115  42.593  11.887   5.247
 3983POPC   PO452116  42.421  11.166   5.333
 3983POPC   GL152117  42.416  11.025   5.766
 3983POPC   GL252118  42.150  10.750   5.771
 3983POPC   C1A52119  42.511  11.268   6.196
 3983POPC   D2A52120  42.723  11.507   6.577
 3983POPC   C3A52121  42.597  11.399   7.025
 3983POPC   C4A52122  42.237  11.539   7.311
 3983POPC   C1B52123  42.309  10.799   6.208
 3983POPC   C2B52124  42.353  10.990   6.639
 3983POPC   C3B52125  42.176  11.065   7.055
 3983POPC   C4B52126  42.084  10.794   7.397
 3984POPC   NC352127   1.495  25.368   5.344
 3984POPC   PO452128   1.015  25.023   5.565
 3984POPC   GL152129   1.170  25.268   5.883
 3984POPC   GL252130   1.390  25.516   5.816
 3984POPC   C1A52131   1.132  25.187   6.297
 3984POPC   D2A52132   1.322  25.108   6.653
 3984POPC   C3A52133   1.090  25.257   6.959
 3984POPC   C4A52134   0.981  25.007   7.233
 3984POPC   C1B52135   1.489  25.552   6.238
 3984POPC   C2B52136   1.268  25.635   6.603
 3984POPC   C3B52137   1.438  25.634   6.992
 3984POPC   C4B52138   1.503  25.336   7.271
 3985POPC   NC352139   4.744   8.341   5.429
 3985POPC   PO452140   5.357   8.069   5.289
 3985POPC   GL152141   5.117   8.059   5.649
 3985POPC   GL252142   5.156   8.424   5.740
 3985POPC   C1A52143   5.172   8.038   6.108
 3985POPC   D2A52144   5.384   8.163   6.509
 3985POPC   C3A52145   5.139   8.027   6.876
 3985POPC   C4A52146   4.727   8.095   7.088
 3985POPC   C1B52147   4.969   8.515   6.166
 3985POPC   C2B52148   4.912   8.388   6.610
 3985POPC   C3B52149   5.010   8.524   7.064
 3985POPC   C4B52150   5.019   8.509   7.533
 3986POPC   NC352151  29.904  39.770   5.480
 3986POPC   PO452152  30.005  40.452   5.372
 3986POPC   GL152153  29.924  40.309   5.854
 3986POPC   GL252154  30.097  39.996   5.895
 3986POPC   C1A52155  29.690  40.108   6.208
 3986POPC   D2A52156  29.740  39.759   6.494
 3986POPC   C3A52157  29.913  39.872   6.878
 3986POPC   C4A52158  29.737  40.009   7.238
 3986POPC   C1B52159  30.193  40.104   6.313
 3986POPC   C2B52160  30.206  40.255   6.689
 3986POPC   C3B52161  30.103  40.365   7.079
 3986POPC   C4B52162  30.342  40.305   7.435
 3987POPC   NC352163  10.876  44.132   4.950
 3987POPC   PO452164  11.162  43.770   5.301
 3987POPC   GL152165  11.038  43.842   5.759
 3987POPC   GL252166  11.183  44.218   5.836
 3987POPC   C1A52167  10.940  43.653   6.223
 3987POPC   D2A52168  11.196  43.782   6.625
 3987POPC   C3A52169  11.482  43.536   6.936
 3987POPC   C4A52170  11.277  43.653   7.330
 3987POPC   C1B52171  11.591  44.310   6.113
 3987POPC   C2B52172  11.600  44.071   6.508
 3987POPC   C3B52173  11.511  44.017   6.989
 3987POPC   C4B52174  11.461  44.123   7.415
 3988POPC   NC352175  34.851  29.875   5.175
 3988POPC   PO452176  35.448  30.216   5.377
 3988POPC   GL152177  35.451  29.854   5.754
 3988POPC   GL252178  35.101  29.720   5.921
 3988POPC   C1A52179  35.501  29.767   6.219
 3988POPC   D2A52180  35.739  29.787   6.584
 3988POPC   C3A52181  35.515  29.922   6.924
 3988POPC   C4A52182  35.613  29.824   7.321
 3988POPC   C1B52183  35.005  29.919   6.318
 3988POPC   C2B52184  35.044  29.731   6.733
 3988POPC   C3B52185  35.086  29.754   7.156
 3988POPC   C4B52186  35.190  30.137   7.320
 3989POPC   NC352187   7.595   9.254   5.355
 3989POPC   PO452188   8.233   9.187   5.432
 3989POPC   GL152189   8.193   8.939   5.858
 3989POPC   GL252190   7.814   8.872   5.872
 3989POPC   C1A52191   8.140   8.909   6.329
 3989POPC   D2A52192   7.994   9.117   6.725
 3989POPC   C3A52193   8.289   9.074   7.082
 3989POPC   C4A52194   8.608   8.974   7.378
 3989POPC   C1B52195   7.883   8.498   6.147
 3989POPC   C2B52196   8.000   8.457   6.600
 3989POPC   C3B52197   8.005   8.627   7.034
 3989POPC   C4B52198   7.905   8.905   7.385
 3990POPC   NC352199  11.779  17.533   5.482
 3990POPC   PO452200  11.120  17.542   5.507
 3990POPC   GL152201  11.240  17.425   5.946
 3990POPC   GL252202  11.135  17.053   6.037
 3990POPC   C1A52203  11.375  17.704   6.289
 3990POPC   D2A52204  11.593  17.828   6.670
 3990POPC   C3A52205  11.346  17.744   7.037
 3990POPC   C4A52206  11.193  17.534   7.455
 3990POPC   C1B52207  11.053  17.264   6.402
 3990POPC   C2B52208  11.361  17.360   6.695
 3990POPC   C3B52209  11.392  17.140   7.054
 3990POPC   C4B52210  11.143  16.877   7.273
 3991POPC   NC352211  23.470  37.190   5.340
 3991POPC   PO452212  23.619  36.598   5.272
 3991POPC   GL152213  23.712  36.827   5.684
 3991POPC   GL252214  23.385  36.954   5.800
 3991POPC   C1A52215  23.874  36.917   6.111
 3991POPC   D2A52216  24.034  37.092   6.508
 3991POPC   C3A52217  23.933  36.913   6.928
 3991POPC   C4A52218  23.786  37.115   7.314
 3991POPC   C1B52219  23.384  36.761   6.194
 3991POPC   C2B52220  23.564  36.904   6.571
 3991POPC   C3B52221  23.462  36.778   6.999
 3991POPC   C4B52222  23.246  36.500   7.242
 3992POPC   NC352223  15.742  34.084   5.212
 3992POPC   PO452224  16.029  33.594   5.146
 3992POPC   GL152225  15.974  33.766   5.586
 3992POPC   GL252226  15.657  33.943   5.719
 3992POPC   C1A52227  16.068  33.805   6.038
 3992POPC   D2A52228  16.197  33.933   6.452
 3992POPC   C3A52229  16.018  33.759   6.839
 3992POPC   C4A52230  16.052  33.857   7.255
 3992POPC   C1B52231  15.687  34.118   6.189
 3992POPC   C2B52232  15.523  34.105   6.618
 3992POPC   C3B52233  15.567  33.969   7.044
 3992POPC   C4B52234  15.565  34.040   7.495
 3993POPC   NC352235  12.856   7.825   4.962
 3993POPC   PO452236  12.591   8.344   5.357
 3993POPC   GL152237  12.770   8.235   5.713
 3993POPC   GL252238  12.707   7.882   5.695
 3993POPC   C1A52239  12.858   8.381   6.148
 3993POPC   D2A52240  12.650   8.505   6.531
 3993POPC   C3A52241  12.839   8.262   6.883
 3993POPC   C4A52242  12.677   8.229   7.306
 3993POPC   C1B52243  12.984   7.898   6.031
 3993POPC   C2B52244  12.902   7.950   6.447
 3993POPC   C3B52245  13.053   7.759   6.800
 3993POPC   C4B52246  13.020   7.864   7.238
 3994POPC   NC352247  33.505  35.799   5.542
 3994POPC   PO452248  33.951  35.257   5.339
 3994POPC   GL152249  33.819  35.353   5.747
 3994POPC   GL252250  33.873  35.039   5.911
 3994POPC   C1A52251  33.827  35.673   6.098
 3994POPC   D2A52252  33.658  35.713   6.524
 3994POPC   C3A52253  33.884  35.508   6.861
 3994POPC   C4A52254  34.071  35.467   7.258
 3994POPC   C1B52255  33.940  35.207   6.318
 3994POPC   C2B52256  33.982  35.011   6.700
 3994POPC   C3B52257  33.810  35.048   7.132
 3994POPC   C4B52258  33.832  35.112   7.594
 3995POPC   NC352259  13.587  40.168   5.523
 3995POPC   PO452260  14.100  39.648   5.456
 3995POPC   GL152261  13.740  39.794   5.835
 3995POPC   GL252262  13.609  40.158   6.012
 3995POPC   C1A52263  13.379  39.733   6.099
 3995POPC   D2A52264  13.353  39.987   6.474
 3995POPC   C3A52265  13.582  39.919   6.855
 3995POPC   C4A52266  13.635  39.874   7.298
 3995POPC   C1B52267  13.847  40.128   6.371
 3995POPC   C2B52268  13.794  40.377   6.735
 3995POPC   C3B52269  13.931  40.275   7.164
 3995POPC   C4B52270  14.021  40.190   7.594
 3996POPC   NC352271   6.657  30.460   5.579
 3996POPC   PO452272   7.057  30.960   5.319
 3996POPC   GL152273   6.864  30.892   5.766
 3996POPC   GL252274   6.484  30.899   5.847
 3996POPC   C1A52275   6.879  30.915   6.235
 3996POPC   D2A52276   6.646  30.950   6.665
 3996POPC   C3A52277   6.741  30.734   7.043
 3996POPC   C4A52278   6.495  30.492   7.301
 3996POPC   C1B52279   6.393  30.720   6.269
 3996POPC   C2B52280   6.548  30.439   6.621
 3996POPC   C3B52281   6.400  30.147   6.928
 3996POPC   C4B52282   6.435  29.986   7.347
 3997POPC   NC352283   7.208  24.051   5.498
 3997POPC   PO452284   7.539  23.502   5.337
 3997POPC   GL152285   7.346  23.590   5.714
 3997POPC   GL252286   7.660  23.760   5.799
 3997POPC   C1A52287   7.245  23.704   6.133
 3997POPC   D2A52288   6.975  23.821   6.456
 3997POPC   C3A52289   7.148  23.707   6.859
 3997POPC   C4A52290   7.177  23.383   7.137
 3997POPC   C1B52291   7.663  24.012   6.163
 3997POPC   C2B52292   7.474  23.964   6.557
 3997POPC   C3B52293   7.646  23.818   6.945
 3997POPC   C4B52294   7.910  24.060   7.183
 3998POPC   NC352295  33.700  11.415   5.492
 3998POPC   PO452296  33.228  11.059   5.753
 3998POPC   GL152297  33.622  11.172   5.924
 3998POPC   GL252298  34.000  11.130   5.797
 3998POPC   C1A52299  33.799  11.224   6.297
 3998POPC   D2A52300  33.822  11.503   6.606
 3998POPC   C3A52301  33.855  11.311   6.980
 3998POPC   C4A52302  33.596  10.956   7.172
 3998POPC   C1B52303  34.273  11.073   6.165
 3998POPC   C2B52304  34.234  11.202   6.608
 3998POPC   C3B52305  34.232  10.985   7.021
 3998POPC   C4B52306  34.001  11.086   7.433
 3999POPC   NC352307  35.220  33.323   5.656
 3999POPC   PO452308  35.291  32.700   5.520
 3999POPC   GL152309  35.214  32.853   5.906
 3999POPC   GL252310  34.868  32.990   5.858
 3999POPC   C1A52311  35.546  32.718   6.190
 3999POPC   D2A52312  35.766  32.818   6.557
 3999POPC   C3A52313  35.516  32.913   6.911
 3999POPC   C4A52314  35.567  33.280   7.145
 3999POPC   C1B52315  35.008  33.214   6.255
 3999POPC   C2B52316  34.998  33.342   6.684
 3999POPC   C3B52317  35.066  33.225   7.125
 3999POPC   C4B52318  35.220  32.846   7.351
 4000POPC   NC352319  23.844  36.178   5.336
 4000POPC   PO452320  23.221  36.052   5.638
 4000POPC   GL152321  23.620  36.279   5.799
 4000POPC   GL252322  23.873  36.004   5.829
 4000POPC   C1A52323  23.796  36.435   6.207
 4000POPC   D2A52324  23.583  36.402   6.604
 4000POPC   C3A52325  23.730  36.302   7.017
 4000POPC   C4A52326  23.462  36.025   7.260
 4000POPC   C1B52327  23.744  35.937   6.246
 4000POPC   C2B52328  23.802  35.624   6.557
 4000POPC   C3B52329  23.666  35.623   6.954
 4000POPC   C4B52330  23.702  35.589   7.362
 4001POPC   NC352331   2.659  43.803   5.395
 4001POPC   PO452332   3.184  43.586   5.742
 4001POPC   GL152333   2.733  43.611   5.863
 4001POPC   GL252334   2.491  43.921   5.851
 4001POPC   C1A52335   2.573  43.541   6.260
 4001POPC   D2A52336   2.649  43.593   6.682
 4001POPC   C3A52337   2.916  43.849   6.901
 4001POPC   C4A52338   2.729  43.684   7.244
 4001POPC   C1B52339   2.648  44.063   6.247
 4001POPC   C2B52340   2.506  44.108   6.668
 4001POPC   C3B52341   2.566  44.159   7.108
 4001POPC   C4B52342   2.471  44.149   7.570
 4002POPC   NC352343  16.063  40.003   5.153
 4002POPC   PO452344  15.945  39.366   5.477
 4002POPC   GL152345  15.856  39.190   5.865
 4002POPC   GL252346  15.781  39.457   6.106
 4002POPC   C1A52347  15.631  38.983   6.216
 4002POPC   D2A52348  15.901  39.025   6.585
 4002POPC   C3A52349  15.856  39.332   6.901
 4002POPC   C4A52350  15.615  39.336   7.276
 4002POPC   C1B52351  16.219  39.499   6.267
 4002POPC   C2B52352  16.513  39.381   6.603
 4002POPC   C3B52353  16.486  39.540   7.038
 4002POPC   C4B52354  16.103  39.587   7.276
 4003POPC   NC352355  28.069  24.439   5.505
 4003POPC   PO452356  28.635  24.754   5.490
 4003POPC   GL152357  28.507  24.375   5.775
 4003POPC   GL252358  28.173  24.369   5.990
 4003POPC   C1A52359  28.613  24.196   6.182
 4003POPC   D2A52360  28.707  24.383   6.599
 4003POPC   C3A52361  28.570  24.202   6.993
 4003POPC   C4A52362  28.805  24.115   7.374
 4003POPC   C1B52363  28.365  24.698   6.210
 4003POPC   C2B52364  28.310  24.833   6.631
 4003POPC   C3B52365  28.077  24.650   6.956
 4003POPC   C4B52366  28.106  24.448   7.384
 4004POPC   NC352367  11.423  37.066   5.167
 4004POPC   PO452368  11.920  36.793   5.374
 4004POPC   GL152369  11.534  36.953   5.681
 4004POPC   GL252370  11.166  36.972   5.762
 4004POPC   C1A52371  11.481  36.782   6.135
 4004POPC   D2A52372  11.241  36.679   6.529
 4004POPC   C3A52373  11.207  36.803   6.947
 4004POPC   C4A52374  11.282  36.594   7.297
 4004POPC   C1B52375  10.999  36.993   6.188
 4004POPC   C2B52376  10.784  36.949   6.593
 4004POPC   C3B52377  10.765  37.186   6.966
 4004POPC   C4B52378  10.934  37.120   7.390
 4005POPC   NC352379  13.135  11.649   5.335
 4005POPC   PO452380  12.715  12.186   5.413
 4005POPC   GL152381  12.673  12.359   5.817
 4005POPC   GL252382  12.589  12.030   5.936
 4005POPC   C1A52383  12.603  12.387   6.266
 4005POPC   D2A52384  12.733  12.021   6.524
 4005POPC   C3A52385  12.772  12.099   6.969
 4005POPC   C4A52386  12.532  12.424   7.165
 4005POPC   C1B52387  13.039  12.054   6.115
 4005POPC   C2B52388  13.213  11.888   6.529
 4005POPC   C3B52389  13.253  11.919   6.931
 4005POPC   C4B52390  13.163  11.797   7.354
 4006POPC   NC352391  20.319  30.960   5.342
 4006POPC   PO452392  20.950  30.779   5.450
 4006POPC   GL152393  20.752  30.614   5.807
 4006POPC   GL252394  20.463  30.853   5.837
 4006POPC   C1A52395  20.685  30.451   6.233
 4006POPC   D2A52396  20.995  30.371   6.580
 4006POPC   C3A52397  20.831  30.431   7.006
 4006POPC   C4A52398  20.562  30.618   7.338
 4006POPC   C1B52399  20.730  31.001   6.167
 4006POPC   C2B52400  20.705  30.806   6.603
 4006POPC   C3B52401  20.686  30.991   7.011
 4006POPC   C4B52402  20.243  31.024   7.159
 4007POPC   NC352403  38.335  35.243   5.309
 4007POPC   PO452404  38.760  35.704   5.496
 4007POPC   GL152405  38.533  35.475   5.757
 4007POPC   GL252406  38.690  35.129   5.713
 4007POPC   C1A52407  38.283  35.619   6.126
 4007POPC   D2A52408  38.276  35.455   6.536
 4007POPC   C3A52409  38.209  35.647   6.924
 4007POPC   C4A52410  38.373  35.593   7.317
 4007POPC   C1B52411  38.571  35.140   6.145
 4007POPC   C2B52412  38.677  35.115   6.562
 4007POPC   C3B52413  38.473  35.200   6.947
 4007POPC   C4B52414  38.429  35.043   7.322
 4008POPC   NC352415  26.822  17.260   5.685
 4008POPC   PO452416  27.314  17.717   5.629
 4008POPC   GL152417  27.044  17.627   5.978
 4008POPC   GL252418  27.034  17.271   6.147
 4008POPC   C1A52419  26.920  17.691   6.406
 4008POPC   D2A52420  26.809  17.429   6.728
 4008POPC   C3A52421  27.010  17.508   7.095
 4008POPC   C4A52422  26.931  17.528   7.538
 4008POPC   C1B52423  26.581  17.243   6.304
 4008POPC   C2B52424  26.440  17.073   6.717
 4008POPC   C3B52425  26.549  17.283   7.142
 4008POPC   C4B52426  26.517  17.248   7.584
 4009POPC   NC352427  35.031  21.391   5.545
 4009POPC   PO452428  35.619  21.235   5.420
 4009POPC   GL152429  35.434  21.232   5.842
 4009POPC   GL252430  35.139  21.024   5.894
 4009POPC   C1A52431  35.318  21.429   6.264
 4009POPC   D2A52432  35.167  21.557   6.711
 4009POPC   C3A52433  35.497  21.503   7.032
 4009POPC   C4A52434  35.487  21.367   7.437
 4009POPC   C1B52435  34.898  21.133   6.271
 4009POPC   C2B52436  34.905  21.020   6.722
 4009POPC   C3B52437  35.072  21.200   7.094
 4009POPC   C4B52438  34.983  21.517   7.359
 4010POPC   NC352439  42.022  26.869   5.222
 4010POPC   PO452440  42.629  27.132   5.468
 4010POPC   GL152441  42.274  26.884   5.675
 4010POPC   GL252442  42.319  26.557   5.546
 4010POPC   C1A52443  42.209  26.916   6.148
 4010POPC   D2A52444  42.529  26.757   6.501
 4010POPC   C3A52445  42.537  26.858   6.948
 4010POPC   C4A52446  42.231  27.174   7.097
 4010POPC   C1B52447  42.253  26.434   5.991
 4010POPC   C2B52448  42.067  26.500   6.402
 4010POPC   C3B52449  42.098  26.633   6.816
 4010POPC   C4B52450  42.153  26.442   7.204
 4011POPC   NC352451  33.694  29.130   5.465
 4011POPC   PO452452  34.312  29.404   5.401
 4011POPC   GL152453  34.091  29.539   5.784
 4011POPC   GL252454  33.811  29.324   5.921
 4011POPC   C1A52455  34.182  29.554   6.208
 4011POPC   D2A52456  33.892  29.308   6.454
 4011POPC   C3A52457  33.916  29.243   6.881
 4011POPC   C4A52458  33.947  29.118   7.283
 4011POPC   C1B52459  33.468  29.153   6.201
 4011POPC   C2B52460  33.235  29.151   6.607
 4011POPC   C3B52461  33.412  29.186   7.021
 4011POPC   C4B52462  33.481  29.091   7.475
 4012POPC   NC352463  35.007  26.423   5.460
 4012POPC   PO452464  34.572  26.985   5.357
 4012POPC   GL152465  34.703  27.033   5.798
 4012POPC   GL252466  34.814  26.677   5.903
 4012POPC   C1A52467  34.766  27.033   6.273
 4012POPC   D2A52468  34.683  26.709   6.579
 4012POPC   C3A52469  34.559  26.812   6.995
 4012POPC   C4A52470  34.182  26.751   7.233
 4012POPC   C1B52471  34.842  26.341   6.259
 4012POPC   C2B52472  35.011  26.340   6.720
 4012POPC   C3B52473  34.948  26.508   7.166
 4012POPC   C4B52474  34.822  26.254   7.592
 4013POPC   NC352475   9.619  20.948   5.332
 4013POPC   PO452476   9.939  21.549   5.189
 4013POPC   GL152477   9.743  21.466   5.605
 4013POPC   GL252478   9.413  21.618   5.718
 4013POPC   C1A52479   9.801  21.517   6.067
 4013POPC   D2A52480   9.641  21.332   6.442
 4013POPC   C3A52481   9.735  21.421   6.867
 4013POPC   C4A52482   9.840  21.454   7.320
 4013POPC   C1B52483   9.311  21.652   6.196
 4013POPC   C2B52484   9.378  21.758   6.675
 4013POPC   C3B52485   9.308  21.548   7.129
 4013POPC   C4B52486   9.433  21.611   7.597
 4014POPC   NC352487  40.523  31.020   5.677
 4014POPC   PO452488  40.939  30.741   5.270
 4014POPC   GL152489  40.884  30.598   5.676
 4014POPC   GL252490  40.576  30.451   5.771
 4014POPC   C1A52491  40.978  30.639   6.110
 4014POPC   D2A52492  40.830  30.762   6.525
 4014POPC   C3A52493  41.079  30.625   6.878
 4014POPC   C4A52494  40.993  30.739   7.291
 4014POPC   C1B52495  40.509  30.441   6.199
 4014POPC   C2B52496  40.391  30.497   6.627
 4014POPC   C3B52497  40.572  30.678   7.001
 4014POPC   C4B52498  40.565  30.476   7.438
 4015POPC   NC352499  11.328  20.869   5.126
 4015POPC   PO452500  10.942  20.429   5.461
 4015POPC   GL152501  11.255  20.379   5.759
 4015POPC   GL252502  11.469  20.661   5.818
 4015POPC   C1A52503  11.317  20.361   6.195
 4015POPC   D2A52504  11.226  20.600   6.556
 4015POPC   C3A52505  11.272  20.404   6.933
 4015POPC   C4A52506  11.334  20.558   7.334
 4015POPC   C1B52507  11.445  20.915   6.182
 4015POPC   C2B52508  11.565  20.993   6.579
 4015POPC   C3B52509  11.389  20.914   6.967
 4015POPC   C4B52510  11.658  20.980   7.317
 4016POPC   NC352511   8.304  44.870   4.862
 4016POPC   PO452512   8.202  44.401   5.350
 4016POPC   GL152513   8.014  44.561   5.842
 4016POPC   GL252514   8.294  44.752   6.014
 4016POPC   C1A52515   8.049  44.498   6.354
 4016POPC   D2A52516   8.396  44.633   6.618
 4016POPC   C3A52517   8.309  44.963   6.915
 4016POPC   C4A52518   7.984  44.970   7.257
 4016POPC   C1B52519   8.028   0.006   6.355
 4016POPC   C2B52520   7.991   0.320   6.712
 4016POPC   C3B52521   8.181   0.418   7.125
 4016POPC   C4B52522   8.479   0.143   7.369
 4017POPC   NC352523  18.738  13.174   5.539
 4017POPC   PO452524  18.850  13.859   5.379
 4017POPC   GL152525  18.955  13.595   5.743
 4017POPC   GL252526  19.115  13.878   5.828
 4017POPC   C1A52527  19.112  13.515   6.193
 4017POPC   D2A52528  19.143  13.275   6.601
 4017POPC   C3A52529  18.988  13.506   6.976
 4017POPC   C4A52530  19.067  13.670   7.388
 4017POPC   C1B52531  18.828  14.037   6.107
 4017POPC   C2B52532  18.823  14.065   6.554
 4017POPC   C3B52533  19.006  14.077   6.965
 4017POPC   C4B52534  19.181  14.151   7.341
 4018POPC   NC352535  14.902  18.598   5.331
 4018POPC   PO452536  15.493  18.339   5.305
 4018POPC   GL152537  15.333  18.117   5.729
 4018POPC   GL252538  14.956  18.032   5.800
 4018POPC   C1A52539  15.463  18.133   6.191
 4018POPC   D2A52540  15.411  18.050   6.639
 4018POPC   C3A52541  15.578  18.265   7.030
 4018POPC   C4A52542  15.434  18.445   7.446
 4018POPC   C1B52543  14.975  17.903   6.267
 4018POPC   C2B52544  14.856  18.047   6.693
 4018POPC   C3B52545  15.070  18.160   7.069
 4018POPC   C4B52546  15.004  18.174   7.493
 4019POPC   NC352547   1.222  41.451   5.276
 4019POPC   PO452548   1.588  42.038   5.386
 4019POPC   GL152549   1.440  41.792   5.771
 4019POPC   GL252550   1.096  41.656   5.728
 4019POPC   C1A52551   1.359  41.534   6.171
 4019POPC   D2A52552   1.432  41.283   6.552
 4019POPC   C3A52553   1.271  41.444   6.929
 4019POPC   C4A52554   1.371  41.838   7.099
 4019POPC   C1B52555   0.850  41.498   6.071
 4019POPC   C2B52556   0.924  41.544   6.496
 4019POPC   C3B52557   0.774  41.501   6.910
 4019POPC   C4B52558   0.880  41.257   7.273
 4020POPC   NC352559  39.686  25.477   5.512
 4020POPC   PO452560  40.122  24.942   5.574
 4020POPC   GL152561  39.754  25.085   5.858
 4020POPC   GL252562  39.752  25.460   6.016
 4020POPC   C1A52563  39.729  25.051   6.312
 4020POPC   D2A52564  39.916  25.284   6.658
 4020POPC   C3A52565  40.145  25.031   6.972
 4020POPC   C4A52566  39.975  25.151   7.351
 4020POPC   C1B52567  40.173  25.509   6.248
 4020POPC   C2B52568  40.360  25.556   6.689
 4020POPC   C3B52569  40.263  25.508   7.136
 4020POPC   C4B52570  40.338  25.546   7.617
 4021POPC   NC352571   8.675   5.468   5.356
 4021POPC   PO452572   8.505   4.696   5.378
 4021POPC   GL152573   8.386   5.091   5.653
 4021POPC   GL252574   8.041   5.114   5.857
 4021POPC   C1A52575   8.466   5.174   6.133
 4021POPC   D2A52576   8.242   4.977   6.500
 4021POPC   C3A52577   8.447   4.773   6.859
 4021POPC   C4A52578   8.353   4.730   7.288
 4021POPC   C1B52579   7.966   5.345   6.217
 4021POPC   C2B52580   8.255   5.496   6.539
 4021POPC   C3B52581   8.257   5.300   6.915
 4021POPC   C4B52582   7.952   5.333   7.255
 4022POPC   NC352583  39.222   5.604   5.290
 4022POPC   PO452584  39.374   6.186   5.574
 4022POPC   GL152585  39.216   5.978   5.886
 4022POPC   GL252586  39.202   5.606   5.798
 4022POPC   C1A52587  39.211   6.092   6.315
 4022POPC   D2A52588  38.946   6.143   6.647
 4022POPC   C3A52589  39.142   5.995   7.002
 4022POPC   C4A52590  39.000   5.653   7.178
 4022POPC   C1B52591  39.374   5.601   6.204
 4022POPC   C2B52592  39.279   5.678   6.624
 4022POPC   C3B52593  39.486   5.620   6.991
 4022POPC   C4B52594  39.539   5.282   7.242
 4023POPC   NC352595  31.956  17.388   5.559
 4023POPC   PO452596  31.300  17.624   5.412
 4023POPC   GL152597  31.327  17.817   5.798
 4023POPC   GL252598  31.642  17.661   5.847
 4023POPC   C1A52599  31.184  17.840   6.241
 4023POPC   D2A52600  31.341  17.888   6.677
 4023POPC   C3A52601  31.322  17.559   6.978
 4023POPC   C4A52602  31.215  17.180   7.169
 4023POPC   C1B52603  31.627  17.503   6.290
 4023POPC   C2B52604  31.615  17.239   6.684
 4023POPC   C3B52605  31.718  17.256   7.115
 4023POPC   C4B52606  31.622  17.563   7.428
 4024POPC   NC352607  20.312  10.544   5.166
 4024POPC   PO452608  20.850  10.766   5.138
 4024POPC   GL152609  20.644  10.480   5.546
 4024POPC   GL252610  20.300  10.483   5.730
 4024POPC   C1A52611  20.742  10.422   6.000
 4024POPC   D2A52612  20.855  10.406   6.446
 4024POPC   C3A52613  20.632  10.319   6.827
 4024POPC   C4A52614  20.658  10.509   7.246
 4024POPC   C1B52615  20.312  10.594   6.218
 4024POPC   C2B52616  20.174  10.568   6.666
 4024POPC   C3B52617  20.290  10.795   7.041
 4024POPC   C4B52618  20.454  10.872   7.518
 4025POPC   NC352619  11.654  12.467   5.450
 4025POPC   PO452620  12.220  12.871   5.370
 4025POPC   GL152621  11.968  12.847   5.759
 4025POPC   GL252622  11.748  13.177   5.843
 4025POPC   C1A52623  12.170  12.672   6.178
 4025POPC   D2A52624  11.975  12.593   6.576
 4025POPC   C3A52625  12.149  12.741   6.984
 4025POPC   C4A52626  12.097  12.652   7.453
 4025POPC   C1B52627  11.732  12.922   6.241
 4025POPC   C2B52628  11.646  12.976   6.697
 4025POPC   C3B52629  11.732  12.976   7.165
 4025POPC   C4B52630  11.720  13.039   7.642
 4026POPC   NC352631  32.335  41.805   5.503
 4026POPC   PO452632  32.087  41.243   5.394
 4026POPC   GL152633  32.230  41.388   5.828
 4026POPC   GL252634  32.536  41.613   5.963
 4026POPC   C1A52635  32.124  41.536   6.255
 4026POPC   D2A52636  32.371  41.447   6.610
 4026POPC   C3A52637  32.091  41.356   6.943
 4026POPC   C4A52638  32.017  41.544   7.324
 4026POPC   C1B52639  32.447  41.982   6.203
 4026POPC   C2B52640  32.280  42.022   6.603
 4026POPC   C3B52641  32.346  41.821   6.963
 4026POPC   C4B52642  32.514  41.634   7.325
 4027POPC   NC352643  37.605  15.547   5.525
 4027POPC   PO452644  38.209  15.309   5.421
 4027POPC   GL152645  37.961  15.148   5.816
 4027POPC   GL252646  37.581  15.123   5.827
 4027POPC   C1A52647  37.903  14.952   6.254
 4027POPC   D2A52648  37.831  15.158   6.695
 4027POPC   C3A52649  37.777  14.952   7.126
 4027POPC   C4A52650  37.959  14.957   7.560
 4027POPC   C1B52651  37.606  15.391   6.231
 4027POPC   C2B52652  37.396  15.444   6.672
 4027POPC   C3B52653  37.618  15.471   7.092
 4027POPC   C4B52654  37.565  15.263   7.492
 4028POPC   NC352655  38.703  37.563   5.624
 4028POPC   PO452656  38.064  37.814   5.545
 4028POPC   GL152657  38.284  37.728   5.904
 4028POPC   GL252658  38.282  37.362   5.874
 4028POPC   C1A52659  38.244  37.613   6.340
 4028POPC   D2A52660  38.252  37.384   6.734
 4028POPC   C3A52661  38.308  37.722   7.030
 4028POPC   C4A52662  38.590  38.054   7.182
 4028POPC   C1B52663  38.592  37.191   6.175
 4028POPC   C2B52664  38.833  37.153   6.533
 4028POPC   C3B52665  38.746  37.336   6.905
 4028POPC   C4B52666  38.732  37.544   7.276
 4029POPC   NC352667  38.470  39.753   5.385
 4029POPC   PO452668  38.986  39.491   5.739
 4029POPC   GL152669  38.742  39.906   5.819
 4029POPC   GL252670  38.364  39.956   5.843
 4029POPC   C1A52671  38.695  40.248   6.155
 4029POPC   D2A52672  38.501  40.210   6.569
 4029POPC   C3A52673  38.715  40.108   6.944
 4029POPC   C4A52674  38.679  39.675   7.080
 4029POPC   C1B52675  38.172  40.248   6.143
 4029POPC   C2B52676  38.025  40.346   6.584
 4029POPC   C3B52677  38.174  40.131   6.990
 4029POPC   C4B52678  37.963  39.913   7.346
 4030POPC   NC352679  13.621  23.209   5.343
 4030POPC   PO452680  13.651  23.845   5.371
 4030POPC   GL152681  13.489  23.657   5.727
 4030POPC   GL252682  13.824  23.513   5.749
 4030POPC   C1A52683  13.349  23.615   6.173
 4030POPC   D2A52684  13.476  23.858   6.553
 4030POPC   C3A52685  13.386  23.671   6.972
 4030POPC   C4A52686  13.581  23.740   7.378
 4030POPC   C1B52687  13.804  23.812   6.124
 4030POPC   C2B52688  14.007  23.875   6.510
 4030POPC   C3B52689  13.904  23.773   6.925
 4030POPC   C4B52690  14.036  23.544   7.286
 4031POPC   NC352691  33.944   3.327   5.379
 4031POPC   PO452692  33.777   3.896   5.122
 4031POPC   GL152693  33.618   3.722   5.561
 4031POPC   GL252694  33.958   3.703   5.737
 4031POPC   C1A52695  33.583   3.731   6.071
 4031POPC   D2A52696  33.740   3.517   6.482
 4031POPC   C3A52697  33.804   3.607   6.929
 4031POPC   C4A52698  33.649   3.400   7.289
 4031POPC   C1B52699  34.011   3.363   6.056
 4031POPC   C2B52700  34.220   3.305   6.466
 4031POPC   C3B52701  34.366   3.332   6.902
 4031POPC   C4B52702  34.184   3.391   7.297
 4032POPC   NC352703   9.684  25.080   5.276
 4032POPC   PO452704   9.538  25.661   5.535
 4032POPC   GL152705   9.682  25.294   5.736
 4032POPC   GL252706   9.371  25.097   5.701
 4032POPC   C1A52707   9.810  25.172   6.151
 4032POPC   D2A52708   9.926  25.423   6.498
 4032POPC   C3A52709   9.842  25.291   6.905
 4032POPC   C4A52710   9.860  25.381   7.322
 4032POPC   C1B52711   9.301  25.295   6.115
 4032POPC   C2B52712   9.451  25.179   6.545
 4032POPC   C3B52713   9.325  25.304   6.965
 4032POPC   C4B52714   9.397  25.183   7.383
 4033POPC   NC352715   0.140  27.776   5.437
 4033POPC   PO452716   0.403  27.150   5.397
 4033POPC   GL152717   0.315  27.372   5.755
 4033POPC   GL252718   0.557  27.667   5.766
 4033POPC   C1A52719   0.317  27.477   6.184
 4033POPC   D2A52720   0.140  27.568   6.556
 4033POPC   C3A52721   0.231  27.337   6.919
 4033POPC   C4A52722   0.187  27.587   7.261
 4033POPC   C1B52723   0.798  27.400   6.069
 4033POPC   C2B52724   0.715  27.457   6.525
 4033POPC   C3B52725   0.678  27.614   6.948
 4033POPC   C4B52726   0.776  27.458   7.345
 4034POPC   NC352727   9.013   3.598   5.374
 4034POPC   PO452728   8.957   2.956   5.415
 4034POPC   GL152729   8.790   3.253   5.792
 4034POPC   GL252730   9.006   3.546   5.896
 4034POPC   C1A52731   8.822   3.238   6.285
 4034POPC   D2A52732   8.809   3.181   6.780
 4034POPC   C3A52733   9.161   3.327   7.092
 4034POPC   C4A52734   9.134   3.502   7.559
 4034POPC   C1B52735   9.214   3.575   6.320
 4034POPC   C2B52736   9.119   3.706   6.709
 4034POPC   C3B52737   8.773   3.710   6.924
 4034POPC   C4B52738   8.708   3.455   7.262
 4035POPC   NC352739  12.647   4.663   4.979
 4035POPC   PO452740  12.769   4.087   5.369
 4035POPC   GL152741  12.840   4.216   5.803
 4035POPC   GL252742  13.191   4.112   5.791
 4035POPC   C1A52743  12.771   4.360   6.242
 4035POPC   D2A52744  12.559   4.188   6.627
 4035POPC   C3A52745  12.618   4.307   7.074
 4035POPC   C4A52746  12.518   4.170   7.508
 4035POPC   C1B52747  13.272   3.992   6.209
 4035POPC   C2B52748  13.112   4.157   6.607
 4035POPC   C3B52749  13.145   4.245   7.036
 4035POPC   C4B52750  12.992   4.328   7.452
 4036POPC   NC352751  26.862  38.992   5.482
 4036POPC   PO452752  26.471  39.434   5.291
 4036POPC   GL152753  26.760  39.419   5.773
 4036POPC   GL252754  26.742  39.110   5.936
 4036POPC   C1A52755  27.046  39.298   6.245
 4036POPC   D2A52756  27.085  39.001   6.590
 4036POPC   C3A52757  27.004  39.239   6.928
 4036POPC   C4A52758  26.939  39.526   7.265
 4036POPC   C1B52759  26.688  38.865   6.293
 4036POPC   C2B52760  26.638  38.711   6.691
 4036POPC   C3B52761  26.789  38.809   7.085
 4036POPC   C4B52762  26.815  39.059   7.428
 4037POPC   NC352763  24.462  35.041   5.529
 4037POPC   PO452764  24.794  35.591   5.328
 4037POPC   GL152765  24.573  35.529   5.770
 4037POPC   GL252766  24.226  35.562   5.737
 4037POPC   C1A52767  24.492  35.259   6.190
 4037POPC   D2A52768  24.700  35.192   6.636
 4037POPC   C3A52769  24.465  35.247   7.032
 4037POPC   C4A52770  24.363  35.100   7.476
 4037POPC   C1B52771  24.186  35.662   6.171
 4037POPC   C2B52772  24.309  35.547   6.601
 4037POPC   C3B52773  24.174  35.682   7.018
 4037POPC   C4B52774  24.206  35.595   7.454
 4038POPC   NC352775  18.080  36.455   5.499
 4038POPC   PO452776  18.651  36.097   5.338
 4038POPC   GL152777  18.419  36.162   5.748
 4038POPC   GL252778  18.293  35.844   5.953
 4038POPC   C1A52779  18.254  36.307   6.153
 4038POPC   D2A52780  18.257  36.038   6.531
 4038POPC   C3A52781  18.182  36.223   6.919
 4038POPC   C4A52782  18.089  36.434   7.299
 4038POPC   C1B52783  17.883  35.947   6.189
 4038POPC   C2B52784  17.712  36.042   6.604
 4038POPC   C3B52785  17.812  35.888   7.026
 4038POPC   C4B52786  18.239  35.712   7.116
 4039POPC   NC352787  12.294  30.585   5.478
 4039POPC   PO452788  12.042  31.247   5.453
 4039POPC   GL152789  12.114  30.930   5.778
 4039POPC   GL252790  11.817  30.721   5.911
 4039POPC   C1A52791  12.317  30.750   6.132
 4039POPC   D2A52792  12.198  30.655   6.542
 4039POPC   C3A52793  12.416  30.833   6.874
 4039POPC   C4A52794  12.359  30.600   7.236
 4039POPC   C1B52795  11.891  30.411   6.207
 4039POPC   C2B52796  11.913  30.234   6.622
 4039POPC   C3B52797  11.916  30.394   7.058
 4039POPC   C4B52798  11.729  30.505   7.460
 4040POPC   NC352799   0.337  36.501   5.501
 4040POPC   PO452800   0.318  35.923   5.606
 4040POPC   GL152801   0.492  36.222   5.900
 4040POPC   GL252802   0.850  36.227   5.895
 4040POPC   C1A52803   0.235  36.167   6.261
 4040POPC   D2A52804  44.829  36.043   6.450
 4040POPC   C3A52805  44.914  35.895   6.858
 4040POPC   C4A52806   0.172  36.102   7.154
 4040POPC   C1B52807   0.728  36.050   6.334
 4040POPC   C2B52808   0.502  35.994   6.756
 4040POPC   C3B52809   0.704  36.121   7.180
 4040POPC   C4B52810   0.879  36.133   7.638
 4041POPC   NC352811  11.244  21.724   5.193
 4041POPC   PO452812  11.291  22.313   5.321
 4041POPC   GL152813  11.299  22.022   5.690
 4041POPC   GL252814  11.562  21.746   5.674
 4041POPC   C1A52815  11.237  22.127   6.160
 4041POPC   D2A52816  11.095  21.922   6.552
 4041POPC   C3A52817  11.101  22.158   6.946
 4041POPC   C4A52818  11.532  22.309   7.088
 4041POPC   C1B52819  11.691  21.892   6.094
 4041POPC   C2B52820  11.729  22.038   6.521
 4041POPC   C3B52821  11.617  21.849   6.900
 4041POPC   C4B52822  11.353  21.849   7.257
 4042POPC   NC352823  36.555  27.480   5.386
 4042POPC   PO452824  35.914  27.433   5.358
 4042POPC   GL152825  35.831  27.326   5.783
 4042POPC   GL252826  36.161  27.164   5.797
 4042POPC   C1A52827  35.831  27.533   6.166
 4042POPC   D2A52828  36.090  27.521   6.521
 4042POPC   C3A52829  35.963  27.664   6.949
 4042POPC   C4A52830  36.252  27.642   7.300
 4042POPC   C1B52831  36.053  27.062   6.224
 4042POPC   C2B52832  36.136  27.026   6.653
 4042POPC   C3B52833  36.189  27.212   7.038
 4042POPC   C4B52834  35.864  27.330   7.387
 4043POPC   NC352835  13.509  34.120   5.614
 4043POPC   PO452836  13.621  33.685   5.160
 4043POPC   GL152837  13.791  33.659   5.610
 4043POPC   GL252838  13.496  33.587   5.777
 4043POPC   C1A52839  13.852  33.751   6.109
 4043POPC   D2A52840  13.666  33.733   6.580
 4043POPC   C3A52841  13.942  33.746   6.990
 4043POPC   C4A52842  13.927  33.700   7.485
 4043POPC   C1B52843  13.342  33.803   6.157
 4043POPC   C2B52844  13.238  34.047   6.526
 4043POPC   C3B52845  13.236  33.861   6.926
 4043POPC   C4B52846  13.499  33.817   7.272
 4044POPC   NC352847   5.564  37.199   5.281
 4044POPC   PO452848   4.922  36.997   5.358
 4044POPC   GL152849   5.185  36.900   5.706
 4044POPC   GL252850   5.372  37.185   5.780
 4044POPC   C1A52851   5.245  36.644   6.104
 4044POPC   D2A52852   5.303  36.798   6.538
 4044POPC   C3A52853   4.985  36.749   6.848
 4044POPC   C4A52854   5.144  36.660   7.255
 4044POPC   C1B52855   5.097  37.145   6.171
 4044POPC   C2B52856   5.193  37.298   6.618
 4044POPC   C3B52857   5.299  37.118   7.041
 4044POPC   C4B52858   5.338  37.087   7.496
 4045POPC   NC352859   9.832  30.610   5.345
 4045POPC   PO452860   9.402  31.119   5.302
 4045POPC   GL152861   9.603  30.933   5.700
 4045POPC   GL252862   9.480  30.571   5.784
 4045POPC   C1A52863   9.909  30.741   6.021
 4045POPC   D2A52864   9.793  30.476   6.384
 4045POPC   C3A52865   9.700  30.621   6.824
 4045POPC   C4A52866   9.964  30.538   7.203
 4045POPC   C1B52867   9.432  30.816   6.198
 4045POPC   C2B52868   9.582  31.091   6.536
 4045POPC   C3B52869   9.675  31.201   6.967
 4045POPC   C4B52870   9.671  30.922   7.321
 4046POPC   NC352871   0.943   7.001   5.220
 4046POPC   PO452872   1.611   7.049   5.485
 4046POPC   GL152873   1.246   6.774   5.701
 4046POPC   GL252874   1.232   6.412   5.809
 4046POPC   C1A52875   0.980   6.726   6.111
 4046POPC   D2A52876   1.133   6.563   6.511
 4046POPC   C3A52877   1.171   6.765   6.923
 4046POPC   C4A52878   1.054   7.064   7.228
 4046POPC   C1B52879   1.429   6.261   6.202
 4046POPC   C2B52880   1.420   6.160   6.655
 4046POPC   C3B52881   1.461   6.347   7.078
 4046POPC   C4B52882   1.429   6.330   7.527
 4047POPC   NC352883  27.048  15.622   5.545
 4047POPC   PO452884  26.742  14.953   5.424
 4047POPC   GL152885  26.758  14.982   5.853
 4047POPC   GL252886  26.886  15.323   5.937
 4047POPC   C1A52887  26.687  15.024   6.302
 4047POPC   D2A52888  26.889  15.300   6.580
 4047POPC   C3A52889  26.763  15.112   6.926
 4047POPC   C4A52890  26.533  15.414   7.143
 4047POPC   C1B52891  27.206  15.119   6.215
 4047POPC   C2B52892  27.171  14.886   6.629
 4047POPC   C3B52893  27.250  14.977   7.058
 4047POPC   C4B52894  27.393  15.280   7.383
 4048POPC   NC352895   1.066   1.719   5.501
 4048POPC   PO452896   1.347   2.373   5.434
 4048POPC   GL152897   1.170   2.137   5.834
 4048POPC   GL252898   1.315   1.786   5.942
 4048POPC   C1A52899   1.247   2.145   6.304
 4048POPC   D2A52900   1.306   1.813   6.636
 4048POPC   C3A52901   1.336   2.035   7.037
 4048POPC   C4A52902   1.056   2.383   7.128
 4048POPC   C1B52903   0.931   1.743   6.217
 4048POPC   C2B52904   0.800   1.632   6.624
 4048POPC   C3B52905   0.934   1.724   7.018
 4048POPC   C4B52906   0.707   1.736   7.389
 4049POPC   NC352907  13.575  40.933   5.072
 4049POPC   PO452908  13.686  41.515   5.472
 4049POPC   GL152909  13.693  41.443   5.883
 4049POPC   GL252910  13.734  41.117   5.916
 4049POPC   C1A52911  13.717  41.701   6.258
 4049POPC   D2A52912  13.807  41.987   6.560
 4049POPC   C3A52913  13.568  41.900   6.920
 4049POPC   C4A52914  13.691  41.729   7.297
 4049POPC   C1B52915  13.654  41.205   6.353
 4049POPC   C2B52916  13.594  41.408   6.745
 4049POPC   C3B52917  13.787  41.253   7.131
 4049POPC   C4B52918  13.681  41.290   7.575
 4050POPC   NC352919   3.294  33.083   5.463
 4050POPC   PO452920   2.770  33.449   5.508
 4050POPC   GL152921   3.001  33.698   5.828
 4050POPC   GL252922   3.250  33.432   5.905
 4050POPC   C1A52923   2.858  33.935   6.235
 4050POPC   D2A52924   2.982  33.862   6.690
 4050POPC   C3A52925   2.628  33.775   6.995
 4050POPC   C4A52926   2.710  33.661   7.446
 4050POPC   C1B52927   2.930  33.424   6.254
 4050POPC   C2B52928   2.787  33.357   6.679
 4050POPC   C3B52929   2.998  33.432   7.055
 4050POPC   C4B52930   3.031  33.229   7.446
 4051POPC   NC352931  40.584   3.647   5.553
 4051POPC   PO452932  41.218   3.338   5.445
 4051POPC   GL152933  41.020   3.527   5.777
 4051POPC   GL252934  40.774   3.266   5.830
 4051POPC   C1A52935  40.800   3.658   6.188
 4051POPC   D2A52936  40.586   3.783   6.575
 4051POPC   C3A52937  40.644   3.573   6.959
 4051POPC   C4A52938  40.597   3.692   7.391
 4051POPC   C1B52939  41.062   3.153   6.149
 4051POPC   C2B52940  41.156   3.333   6.554
 4051POPC   C3B52941  41.193   3.211   6.971
 4051POPC   C4B52942  40.947   3.271   7.332
 4052POPC   NC352943   2.198  24.945   5.725
 4052POPC   PO452944   1.916  25.240   5.189
 4052POPC   GL152945   1.871  25.353   5.725
 4052POPC   GL252946   1.673  25.110   6.006
 4052POPC   C1A52947   1.996  25.441   6.198
 4052POPC   D2A52948   1.796  25.300   6.621
 4052POPC   C3A52949   1.955  25.467   7.021
 4052POPC   C4A52950   2.347  25.673   7.162
 4052POPC   C1B52951   2.020  24.934   6.322
 4052POPC   C2B52952   2.227  24.834   6.708
 4052POPC   C3B52953   2.236  25.043   7.129
 4052POPC   C4B52954   2.405  25.000   7.581
 4053POPC   NC352955  26.536  18.556   5.514
 4053POPC   PO452956  25.910  18.308   5.302
 4053POPC   GL152957  25.938  18.250   5.761
 4053POPC   GL252958  26.185  18.498   5.884
 4053POPC   C1A52959  26.035  18.120   6.205
 4053POPC   D2A52960  25.874  18.153   6.633
 4053POPC   C3A52961  26.153  17.942   6.947
 4053POPC   C4A52962  25.994  17.951   7.352
 4053POPC   C1B52963  26.333  18.535   6.321
 4053POPC   C2B52964  26.353  18.350   6.733
 4053POPC   C3B52965  26.013  18.404   7.082
 4053POPC   C4B52966  26.141  18.593   7.487
 4054POPC   NC352967  41.581  27.256   5.423
 4054POPC   PO452968  41.781  26.606   5.533
 4054POPC   GL152969  41.717  26.940   5.790
 4054POPC   GL252970  41.364  26.823   5.833
 4054POPC   C1A52971  41.619  27.071   6.202
 4054POPC   D2A52972  41.664  26.806   6.553
 4054POPC   C3A52973  41.732  27.014   6.933
 4054POPC   C4A52974  41.875  26.861   7.307
 4054POPC   C1B52975  41.229  26.680   6.278
 4054POPC   C2B52976  41.194  26.714   6.754
 4054POPC   C3B52977  41.338  26.799   7.177
 4054POPC   C4B52978  41.158  26.635   7.549
 4055POPC   NC352979  44.741  20.292   4.796
 4055POPC   PO452980  44.590  20.805   5.251
 4055POPC   GL152981  44.490  20.526   5.704
 4055POPC   GL252982  44.658  20.273   5.718
 4055POPC   C1A52983  44.702  20.578   6.178
 4055POPC   D2A52984   0.013  20.810   6.458
 4055POPC   C3A52985  44.924  20.790   6.912
 4055POPC   C4A52986  44.803  20.490   7.239
 4055POPC   C1B52987  44.424  20.169   6.094
 4055POPC   C2B52988  44.442  20.292   6.498
 4055POPC   C3B52989  44.534  20.193   6.893
 4055POPC   C4B52990  44.445  20.068   7.272
 4056POPC   NC352991  21.228  23.851   5.222
 4056POPC   PO452992  21.522  23.436   5.601
 4056POPC   GL152993  21.338  23.727   5.828
 4056POPC   GL252994  21.639  23.929   5.856
 4056POPC   C1A52995  21.370  23.768   6.260
 4056POPC   D2A52996  21.619  23.819   6.598
 4056POPC   C3A52997  21.379  23.815   6.982
 4056POPC   C4A52998  21.205  23.690   7.388
 4056POPC   C1B52999  21.861  23.596   6.149
 4056POPC   C2B53000  21.957  23.436   6.569
 4056POPC   C3B53001  21.716  23.429   6.917
 4056POPC   C4B53002  21.744  23.658   7.307
 4057POPC   NC353003  35.498  17.799   5.223
 4057POPC   PO453004  35.731  17.137   5.386
 4057POPC   GL153005  35.662  17.384   5.761
 4057POPC   GL253006  35.328  17.374   5.844
 4057POPC   C1A53007  35.661  17.556   6.204
 4057POPC   D2A53008  35.306  17.725   6.463
 4057POPC   C3A53009  35.400  17.762   6.903
 4057POPC   C4A53010  35.234  17.612   7.293
 4057POPC   C1B53011  35.306  17.194   6.213
 4057POPC   C2B53012  35.490  17.275   6.609
 4057POPC   C3B53013  35.284  17.216   6.957
 4057POPC   C4B53014  35.248  17.047   7.337
 4058POPC   NC353015  24.220  18.150   5.404
 4058POPC   PO453016  23.515  18.524   5.476
 4058POPC   GL153017  23.580  18.292   5.846
 4058POPC   GL253018  23.912  18.362   5.763
 4058POPC   C1A53019  23.550  18.403   6.301
 4058POPC   D2A53020  23.653  18.361   6.735
 4058POPC   C3A53021  23.432  18.574   7.061
 4058POPC   C4A53022  23.437  18.348   7.446
 4058POPC   C1B53023  23.980  18.176   6.178
 4058POPC   C2B53024  23.896  17.932   6.560
 4058POPC   C3B53025  23.891  17.944   7.014
 4058POPC   C4B53026  23.906  18.311   7.218
 4059POPC   NC353027  17.550  36.233   5.063
 4059POPC   PO453028  17.932  35.920   5.541
 4059POPC   GL153029  17.546  36.028   5.757
 4059POPC   GL253030  17.437  36.347   5.664
 4059POPC   C1A53031  17.386  36.098   6.171
 4059POPC   D2A53032  17.205  35.953   6.525
 4059POPC   C3A53033  17.321  36.073   6.935
 4059POPC   C4A53034  17.405  35.968   7.370
 4059POPC   C1B53035  17.725  36.439   6.047
 4059POPC   C2B53036  17.639  36.542   6.505
 4059POPC   C3B53037  17.672  36.441   6.980
 4059POPC   C4B53038  17.592  36.437   7.466
 4060POPC   NC353039  17.540  39.531   5.215
 4060POPC   PO453040  17.629  38.928   5.319
 4060POPC   GL153041  17.572  39.007   5.748
 4060POPC   GL253042  17.426  39.307   5.744
 4060POPC   C1A53043  17.505  38.945   6.188
 4060POPC   D2A53044  17.358  39.154   6.549
 4060POPC   C3A53045  17.463  39.031   6.951
 4060POPC   C4A53046  17.443  39.255   7.327
 4060POPC   C1B53047  17.627  39.433   6.136
 4060POPC   C2B53048  17.590  39.620   6.513
 4060POPC   C3B53049  17.656  39.543   6.934
 4060POPC   C4B53050  17.573  39.756   7.318
 4061POPC   NC353051  43.591  41.943   5.493
 4061POPC   PO453052  43.781  42.574   5.347
 4061POPC   GL153053  44.024  42.397   5.725
 4061POPC   GL253054  43.724  42.251   5.877
 4061POPC   C1A53055  44.211  42.283   6.177
 4061POPC   D2A53056  43.964  42.246   6.629
 4061POPC   C3A53057  44.143  42.046   7.022
 4061POPC   C4A53058  44.240  42.280   7.415
 4061POPC   C1B53059  43.757  42.491   6.232
 4061POPC   C2B53060  43.567  42.632   6.597
 4061POPC   C3B53061  43.468  42.462   6.965
 4061POPC   C4B53062  43.844  42.439   7.157
 4062POPC   NC353063   8.451  25.614   5.531
 4062POPC   PO453064   7.928  26.038   5.332
 4062POPC   GL153065   8.091  25.925   5.754
 4062POPC   GL253066   8.242  26.214   5.922
 4062POPC   C1A53067   7.917  25.933   6.190
 4062POPC   D2A53068   8.049  26.163   6.574
 4062POPC   C3A53069   8.011  25.954   6.988
 4062POPC   C4A53070   8.010  26.067   7.430
 4062POPC   C1B53071   8.493  26.105   6.285
 4062POPC   C2B53072   8.543  26.355   6.668
 4062POPC   C3B53073   8.460  26.187   7.085
 4062POPC   C4B53074   8.626  25.824   7.284
 4063POPC   NC353075   5.583   0.796   5.428
 4063POPC   PO453076   5.844   0.217   5.410
 4063POPC   GL153077   5.904   0.381   5.779
 4063POPC   GL253078   6.208   0.523   5.730
 4063POPC   C1A53079   5.800   0.412   6.211
 4063POPC   D2A53080   5.974   0.205   6.585
 4063POPC   C3A53081   5.669   0.264   6.927
 4063POPC   C4A53082   5.655   0.682   7.080
 4063POPC   C1B53083   6.291   0.342   6.149
 4063POPC   C2B53084   6.391   0.510   6.577
 4063POPC   C3B53085   6.186   0.474   6.992
 4063POPC   C4B53086   6.059   0.083   7.213
 4064POPC   NC353087  37.864   5.310   5.549
 4064POPC   PO453088  37.523   4.737   5.494
 4064POPC   GL153089  37.684   4.961   5.875
 4064POPC   GL253090  37.588   5.356   5.972
 4064POPC   C1A53091  37.749   4.932   6.302
 4064POPC   D2A53092  37.616   4.706   6.664
 4064POPC   C3A53093  37.778   4.915   7.017
 4064POPC   C4A53094  37.679   5.094   7.423
 4064POPC   C1B53095  37.561   5.397   6.416
 4064POPC   C2B53096  37.641   5.383   6.881
 4064POPC   C3B53097  37.590   5.570   7.292
 4064POPC   C4B53098  37.559   5.448   7.769
 4065POPC   NC353099   5.010  14.598   5.310
 4065POPC   PO453100   4.807  14.017   5.163
 4065POPC   GL153101   4.828  14.246   5.634
 4065POPC   GL253102   4.794  14.596   5.766
 4065POPC   C1A53103   4.974  14.273   6.098
 4065POPC   D2A53104   5.299  14.330   6.423
 4065POPC   C3A53105   5.167  14.330   6.853
 4065POPC   C4A53106   5.227  14.379   7.314
 4065POPC   C1B53107   4.710  14.794   6.161
 4065POPC   C2B53108   4.844  14.656   6.562
 4065POPC   C3B53109   5.005  14.788   6.964
 4065POPC   C4B53110   4.845  14.768   7.382
 4066POPC   NC353111  10.712  38.365   5.393
 4066POPC   PO453112  10.176  38.699   5.474
 4066POPC   GL153113  10.443  38.527   5.817
 4066POPC   GL253114  10.790  38.656   5.864
 4066POPC   C1A53115  10.553  38.371   6.257
 4066POPC   D2A53116  10.700  38.063   6.600
 4066POPC   C3A53117  10.668  38.198   7.051
 4066POPC   C4A53118  10.387  38.204   7.393
 4066POPC   C1B53119  10.968  38.684   6.286
 4066POPC   C2B53120  10.841  38.586   6.720
 4066POPC   C3B53121  11.013  38.609   7.153
 4066POPC   C4B53122  10.892  38.510   7.594
 4067POPC   NC353123  19.945  17.791   5.421
 4067POPC   PO453124  19.423  17.331   5.396
 4067POPC   GL153125  19.770  17.375   5.677
 4067POPC   GL253126  19.702  17.668   5.855
 4067POPC   C1A53127  19.829  17.212   6.089
 4067POPC   D2A53128  19.735  17.406   6.473
 4067POPC   C3A53129  19.943  17.283   6.855
 4067POPC   C4A53130  19.636  17.381   7.173
 4067POPC   C1B53131  20.067  17.666   6.126
 4067POPC   C2B53132  20.088  17.775   6.559
 4067POPC   C3B53133  19.900  17.802   6.947
 4067POPC   C4B53134  20.095  17.614   7.248
 4068POPC   NC353135   8.308  33.750   5.280
 4068POPC   PO453136   7.891  33.899   5.768
 4068POPC   GL153137   8.159  33.726   5.971
 4068POPC   GL253138   8.402  33.853   5.778
 4068POPC   C1A53139   8.115  33.774   6.403
 4068POPC   D2A53140   8.149  33.624   6.771
 4068POPC   C3A53141   7.984  33.894   7.037
 4068POPC   C4A53142   7.754  33.784   7.427
 4068POPC   C1B53143   8.565  33.919   6.202
 4068POPC   C2B53144   8.620  33.719   6.569
 4068POPC   C3B53145   8.532  33.906   6.948
 4068POPC   C4B53146   8.559  34.007   7.349
 4069POPC   NC353147  34.844   9.613   5.320
 4069POPC   PO453148  34.221   9.820   5.363
 4069POPC   GL153149  34.484   9.682   5.748
 4069POPC   GL253150  34.822   9.545   5.806
 4069POPC   C1A53151  34.468   9.459   6.161
 4069POPC   D2A53152  34.432   9.651   6.559
 4069POPC   C3A53153  34.696   9.573   6.906
 4069POPC   C4A53154  34.523   9.832   7.158
 4069POPC   C1B53155  34.844   9.797   6.178
 4069POPC   C2B53156  34.842   9.988   6.581
 4069POPC   C3B53157  34.828  10.191   6.984
 4069POPC   C4B53158  34.878  10.086   7.452
 4070POPC   NC353159  40.057  14.780   5.464
 4070POPC   PO453160  39.816  14.182   5.474
 4070POPC   GL153161  40.019  14.374   5.774
 4070POPC   GL253162  40.223  14.094   5.803
 4070POPC   C1A53163  40.117  14.567   6.165
 4070POPC   D2A53164  40.128  14.912   6.470
 4070POPC   C3A53165  40.064  14.686   6.837
 4070POPC   C4A53166  39.986  14.633   7.245
 4070POPC   C1B53167  39.936  14.073   6.171
 4070POPC   C2B53168  39.900  14.206   6.564
 4070POPC   C3B53169  39.860  14.217   6.974
 4070POPC   C4B53170  40.268  14.213   7.156
 4071POPC   NC353171  43.545  22.557   5.447
 4071POPC   PO453172  43.630  23.221   5.606
 4071POPC   GL153173  43.849  22.866   5.807
 4071POPC   GL253174  43.596  22.661   5.952
 4071POPC   C1A53175  44.029  22.787   6.237
 4071POPC   D2A53176  43.794  22.760   6.626
 4071POPC   C3A53177  44.018  22.870   6.973
 4071POPC   C4A53178  43.965  23.027   7.408
 4071POPC   C1B53179  43.558  23.035   6.242
 4071POPC   C2B53180  43.376  23.128   6.657
 4071POPC   C3B53181  43.541  23.052   7.086
 4071POPC   C4B53182  43.465  22.933   7.529
 4072POPC   NC353183   3.350  14.289   5.474
 4072POPC   PO453184   3.861  14.600   5.508
 4072POPC   GL153185   3.579  14.564   5.885
 4072POPC   GL253186   3.450  14.242   5.960
 4072POPC   C1A53187   3.595  14.530   6.337
 4072POPC   D2A53188   3.880  14.282   6.553
 4072POPC   C3A53189   3.654  14.269   6.905
 4072POPC   C4A53190   3.650  14.295   7.329
 4072POPC   C1B53191   3.158  14.219   6.320
 4072POPC   C2B53192   3.024  14.344   6.740
 4072POPC   C3B53193   3.200  14.437   7.132
 4072POPC   C4B53194   3.204  14.262   7.557
 4073POPC   NC353195  20.397   4.266   5.426
 4073POPC   PO453196  20.985   3.949   5.373
 4073POPC   GL153197  20.802   4.244   5.738
 4073POPC   GL253198  20.633   4.035   5.918
 4073POPC   C1A53199  20.521   4.505   6.084
 4073POPC   D2A53200  20.646   4.676   6.491
 4073POPC   C3A53201  20.482   4.504   6.869
 4073POPC   C4A53202  20.641   4.462   7.261
 4073POPC   C1B53203  20.934   4.264   6.235
 4073POPC   C2B53204  21.119   4.136   6.632
 4073POPC   C3B53205  20.942   4.061   7.027
 4073POPC   C4B53206  21.024   4.198   7.446
 4074POPC   NC353207  22.743  37.351   5.486
 4074POPC   PO453208  22.636  36.730   5.398
 4074POPC   GL153209  22.887  36.771   5.797
 4074POPC   GL253210  22.896  37.090   5.889
 4074POPC   C1A53211  22.863  36.691   6.245
 4074POPC   D2A53212  23.060  36.817   6.641
 4074POPC   C3A53213  22.850  36.682   6.999
 4074POPC   C4A53214  22.759  36.871   7.353
 4074POPC   C1B53215  23.081  37.175   6.277
 4074POPC   C2B53216  23.267  37.299   6.699
 4074POPC   C3B53217  23.113  37.126   7.092
 4074POPC   C4B53218  23.078  37.257   7.538
 4075POPC   NC353219   7.509  30.981   5.537
 4075POPC   PO453220   7.105  30.462   5.650
 4075POPC   GL153221   7.316  30.730   5.942
 4075POPC   GL253222   7.669  30.706   5.945
 4075POPC   C1A53223   7.398  30.902   6.366
 4075POPC   D2A53224   7.490  31.075   6.773
 4075POPC   C3A53225   7.218  30.923   7.098
 4075POPC   C4A53226   7.179  30.689   7.498
 4075POPC   C1B53227   7.474  30.391   6.277
 4075POPC   C2B53228   7.155  30.256   6.604
 4075POPC   C3B53229   7.219  30.401   7.040
 4075POPC   C4B53230   7.643  30.630   7.142
 4076POPC   NC353231  17.687  41.022   5.562
 4076POPC   PO453232  17.318  40.383   5.383
 4076POPC   GL153233  17.258  40.458   5.832
 4076POPC   GL253234  17.472  40.755   5.936
 4076POPC   C1A53235  17.242  40.514   6.307
 4076POPC   D2A53236  17.628  40.629   6.525
 4076POPC   C3A53237  17.603  40.533   6.950
 4076POPC   C4A53238  17.328  40.752   7.214
 4076POPC   C1B53239  17.786  41.015   6.197
 4076POPC   C2B53240  17.881  41.114   6.583
 4076POPC   C3B53241  17.579  41.076   6.876
 4076POPC   C4B53242  17.573  41.291   7.251
 4077POPC   NC353243   6.334  14.004   5.293
 4077POPC   PO453244   6.835  13.586   5.301
 4077POPC   GL153245   6.719  13.520   5.738
 4077POPC   GL253246   6.366  13.605   5.734
 4077POPC   C1A53247   6.814  13.442   6.189
 4077POPC   D2A53248   7.006  13.611   6.592
 4077POPC   C3A53249   6.771  13.507   6.966
 4077POPC   C4A53250   6.469  13.189   7.117
 4077POPC   C1B53251   6.277  13.916   6.070
 4077POPC   C2B53252   6.331  14.102   6.455
 4077POPC   C3B53253   6.322  14.181   6.868
 4077POPC   C4B53254   6.463  13.883   7.149
 4078POPC   NC353255  15.349  26.231   5.327
 4078POPC   PO453256  15.996  25.987   5.233
 4078POPC   GL153257  15.897  26.029   5.652
 4078POPC   GL253258  15.858  25.690   5.702
 4078POPC   C1A53259  16.090  26.016   6.065
 4078POPC   D2A53260  15.976  26.080   6.482
 4078POPC   C3A53261  16.126  26.052   6.869
 4078POPC   C4A53262  16.108  26.441   7.110
 4078POPC   C1B53263  15.749  25.640   6.134
 4078POPC   C2B53264  15.730  25.623   6.572
 4078POPC   C3B53265  15.744  25.751   7.007
 4078POPC   C4B53266  15.804  25.554   7.406
 4079POPC   NC353267  18.108  24.464   5.398
 4079POPC   PO453268  18.787  24.606   5.416
 4079POPC   GL153269  18.514  24.407   5.723
 4079POPC   GL253270  18.260  24.539   5.860
 4079POPC   C1A53271  18.513  24.235   6.174
 4079POPC   D2A53272  18.575  24.452   6.595
 4079POPC   C3A53273  18.538  24.221   6.996
 4079POPC   C4A53274  18.311  24.203   7.405
 4079POPC   C1B53275  18.300  24.741   6.220
 4079POPC   C2B53276  18.092  24.648   6.584
 4079POPC   C3B53277  18.286  24.772   6.918
 4079POPC   C4B53278  18.136  24.650   7.253
 4080POPC   NC353279  24.248  38.546   5.359
 4080POPC   PO453280  24.702  38.192   5.240
 4080POPC   GL153281  24.574  38.315   5.676
 4080POPC   GL253282  24.312  38.112   5.764
 4080POPC   C1A53283  24.474  38.633   6.006
 4080POPC   D2A53284  24.607  38.572   6.422
 4080POPC   C3A53285  24.584  38.691   6.847
 4080POPC   C4A53286  24.773  38.626   7.240
 4080POPC   C1B53287  24.377  38.167   6.211
 4080POPC   C2B53288  24.486  38.042   6.617
 4080POPC   C3B53289  24.519  38.218   7.023
 4080POPC   C4B53290  24.269  38.121   7.400
 4081POPC   NC353291  13.441  35.582   5.449
 4081POPC   PO453292  13.875  35.009   5.322
 4081POPC   GL153293  13.618  35.139   5.709
 4081POPC   GL253294  13.812  35.460   5.798
 4081POPC   C1A53295  13.616  35.125   6.195
 4081POPC   D2A53296  13.891  35.170   6.603
 4081POPC   C3A53297  13.627  35.162   6.997
 4081POPC   C4A53298  13.279  35.204   7.311
 4081POPC   C1B53299  13.871  35.563   6.246
 4081POPC   C2B53300  13.555  35.548   6.600
 4081POPC   C3B53301  13.633  35.679   7.009
 4081POPC   C4B53302  13.573  35.611   7.433
 4082POPC   NC353303  11.944   8.584   5.644
 4082POPC   PO453304  12.073   8.119   5.203
 4082POPC   GL153305  12.212   8.133   5.654
 4082POPC   GL253306  11.960   7.980   5.867
 4082POPC   C1A53307  12.428   8.122   6.066
 4082POPC   D2A53308  12.392   8.020   6.499
 4082POPC   C3A53309  12.318   8.270   6.858
 4082POPC   C4A53310  12.189   8.060   7.227
 4082POPC   C1B53311  11.986   8.302   6.239
 4082POPC   C2B53312  11.853   8.428   6.659
 4082POPC   C3B53313  11.744   8.095   6.972
 4082POPC   C4B53314  11.587   7.828   7.327
 4083POPC   NC353315  13.084   4.493   5.445
 4083POPC   PO453316  13.760   4.203   5.319
 4083POPC   GL153317  13.641   4.369   5.745
 4083POPC   GL253318  13.386   4.622   5.852
 4083POPC   C1A53319  13.745   4.298   6.187
 4083POPC   D2A53320  13.641   4.073   6.568
 4083POPC   C3A53321  13.892   4.178   6.906
 4083POPC   C4A53322  13.694   4.269   7.267
 4083POPC   C1B53323  13.292   4.514   6.302
 4083POPC   C2B53324  13.477   4.551   6.747
 4083POPC   C3B53325  13.818   4.711   7.051
 4083POPC   C4B53326  13.882   4.699   7.524
 4084POPC   NC353327  18.863  14.362   5.386
 4084POPC   PO453328  19.458  14.117   5.465
 4084POPC   GL153329  19.228  14.377   5.805
 4084POPC   GL253330  18.895  14.536   5.845
 4084POPC   C1A53331  19.194  14.374   6.269
 4084POPC   D2A53332  19.385  14.323   6.689
 4084POPC   C3A53333  19.220  14.576   7.026
 4084POPC   C4A53334  19.112  14.635   7.456
 4084POPC   C1B53335  18.749  14.662   6.208
 4084POPC   C2B53336  18.892  14.586   6.629
 4084POPC   C3B53337  18.707  14.663   7.030
 4084POPC   C4B53338  18.659  14.324   7.316
 4085POPC   NC353339  16.533  15.346   5.373
 4085POPC   PO453340  16.859  14.850   5.179
 4085POPC   GL153341  16.741  15.015   5.681
 4085POPC   GL253342  16.870  14.832   5.957
 4085POPC   C1A53343  16.754  15.331   6.065
 4085POPC   D2A53344  16.993  15.564   6.404
 4085POPC   C3A53345  16.808  15.522   6.826
 4085POPC   C4A53346  16.559  15.259   7.143
 4085POPC   C1B53347  17.151  15.020   6.256
 4085POPC   C2B53348  16.892  15.085   6.577
 4085POPC   C3B53349  16.882  14.901   6.940
 4085POPC   C4B53350  16.774  14.783   7.306
 4086POPC   NC353351  16.875  12.857   5.370
 4086POPC   PO453352  17.516  12.728   5.498
 4086POPC   GL153353  17.123  12.774   5.836
 4086POPC   GL253354  16.790  12.620   5.798
 4086POPC   C1A53355  16.894  12.954   6.277
 4086POPC   D2A53356  16.712  12.909   6.753
 4086POPC   C3A53357  16.895  13.071   7.135
 4086POPC   C4A53358  16.838  13.233   7.583
 4086POPC   C1B53359  16.516  12.648   6.102
 4086POPC   C2B53360  16.627  12.500   6.484
 4086POPC   C3B53361  16.706  12.413   6.901
 4086POPC   C4B53362  16.419  12.492   7.235
 4087POPC   NC353363  20.760  19.581   5.052
 4087POPC   PO453364  20.477  20.201   5.398
 4087POPC   GL153365  20.396  19.932   5.771
 4087POPC   GL253366  20.622  19.633   5.722
 4087POPC   C1A53367  20.431  19.996   6.244
 4087POPC   D2A53368  20.418  19.826   6.682
 4087POPC   C3A53369  20.797  19.868   6.980
 4087POPC   C4A53370  20.975  20.168   7.295
 4087POPC   C1B53371  20.327  19.485   6.070
 4087POPC   C2B53372  20.230  19.336   6.530
 4087POPC   C3B53373  20.172  19.452   6.993
 4087POPC   C4B53374  20.419  19.693   7.280
 4088POPC   NC353375  32.059  18.382   5.521
 4088POPC   PO453376  32.510  17.954   5.297
 4088POPC   GL153377  32.453  18.095   5.746
 4088POPC   GL253378  32.762  18.236   5.790
 4088POPC   C1A53379  32.137  18.199   6.127
 4088POPC   D2A53380  32.124  18.424   6.514
 4088POPC   C3A53381  32.223  18.175   6.875
 4088POPC   C4A53382  32.140  18.070   7.278
 4088POPC   C1B53383  32.612  18.309   6.204
 4088POPC   C2B53384  32.630  18.448   6.628
 4088POPC   C3B53385  32.386  18.672   6.917
 4088POPC   C4B53386  32.452  18.463   7.284
 4089POPC   NC353387  18.603   6.942   5.073
 4089POPC   PO453388  18.144   6.581   5.241
 4089POPC   GL153389  18.279   6.501   5.685
 4089POPC   GL253390  17.962   6.533   5.859
 4089POPC   C1A53391  18.521   6.541   6.117
 4089POPC   D2A53392  18.707   6.498   6.571
 4089POPC   C3A53393  18.493   6.560   7.024
 4089POPC   C4A53394  18.072   6.721   7.208
 4089POPC   C1B53395  18.062   6.689   6.293
 4089POPC   C2B53396  18.214   6.828   6.693
 4089POPC   C3B53397  18.035   7.162   6.967
 4089POPC   C4B53398  17.819   7.186   7.351
 4090POPC   NC353399   9.459  29.532   5.364
 4090POPC   PO453400   9.706  30.170   5.389
 4090POPC   GL153401   9.810  29.845   5.724
 4090POPC   GL253402   9.580  30.044   5.946
 4090POPC   C1A53403   9.996  29.861   6.173
 4090POPC   D2A53404   9.685  29.994   6.481
 4090POPC   C3A53405   9.734  29.896   6.905
 4090POPC   C4A53406   9.818  30.046   7.294
 4090POPC   C1B53407   9.312  30.291   6.258
 4090POPC   C2B53408   9.278  30.231   6.717
 4090POPC   C3B53409   9.397  30.318   7.157
 4090POPC   C4B53410   9.607  30.411   7.583
 4091POPC   NC353411  27.083  43.229   5.605
 4091POPC   PO453412  26.510  42.929   5.592
 4091POPC   GL153413  26.675  42.924   5.990
 4091POPC   GL253414  26.995  42.826   5.961
 4091POPC   C1A53415  26.684  43.115   6.401
 4091POPC   D2A53416  26.346  43.136   6.744
 4091POPC   C3A53417  26.542  43.150   7.143
 4091POPC   C4A53418  26.960  43.176   7.141
 4091POPC   C1B53419  27.052  42.668   6.373
 4091POPC   C2B53420  27.187  42.731   6.812
 4091POPC   C3B53421  27.169  42.757   7.276
 4091POPC   C4B53422  27.101  43.054   7.646
 4092POPC   NC353423   9.964  25.802   5.431
 4092POPC   PO453424   9.524  26.158   5.115
 4092POPC   GL153425   9.615  26.174   5.597
 4092POPC   GL253426   9.507  26.431   5.823
 4092POPC   C1A53427   9.845  26.087   6.030
 4092POPC   D2A53428   9.926  26.154   6.504
 4092POPC   C3A53429   9.942  25.827   6.860
 4092POPC   C4A53430   9.567  25.719   7.108
 4092POPC   C1B53431   9.409  26.252   6.250
 4092POPC   C2B53432   9.313  26.169   6.687
 4092POPC   C3B53433   9.493  26.216   7.090
 4092POPC   C4B53434   9.871  26.202   7.241
 4093POPC   NC353435  25.944  24.183   5.336
 4093POPC   PO453436  26.309  24.726   5.430
 4093POPC   GL153437  26.257  24.362   5.698
 4093POPC   GL253438  25.882  24.423   5.797
 4093POPC   C1A53439  26.227  24.159   6.124
 4093POPC   D2A53440  26.084  24.410   6.484
 4093POPC   C3A53441  26.137  24.325   6.923
 4093POPC   C4A53442  25.983  24.584   7.257
 4093POPC   C1B53443  25.695  24.209   6.185
 4093POPC   C2B53444  25.681  24.116   6.649
 4093POPC   C3B53445  25.619  24.292   7.065
 4093POPC   C4B53446  25.530  24.332   7.528
 4094POPC   NC353447  27.055  29.744   5.358
 4094POPC   PO453448  26.620  30.257   5.367
 4094POPC   GL153449  26.715  30.011   5.718
 4094POPC   GL253450  27.041  30.054   5.814
 4094POPC   C1A53451  26.541  29.913   6.112
 4094POPC   D2A53452  26.683  29.808   6.509
 4094POPC   C3A53453  26.905  30.000   6.820
 4094POPC   C4A53454  26.735  29.874   7.178
 4094POPC   C1B53455  26.986  29.683   6.066
 4094POPC   C2B53456  26.931  29.372   6.429
 4094POPC   C3B53457  26.936  29.480   6.850
 4094POPC   C4B53458  27.070  29.526   7.288
 4095POPC   NC353459  31.868   3.014   5.337
 4095POPC   PO453460  31.262   2.670   5.301
 4095POPC   GL153461  31.480   2.763   5.674
 4095POPC   GL253462  31.495   3.129   5.694
 4095POPC   C1A53463  31.440   2.758   6.118
 4095POPC   D2A53464  31.563   2.788   6.549
 4095POPC   C3A53465  31.442   2.524   6.852
 4095POPC   C4A53466  31.404   2.663   7.245
 4095POPC   C1B53467  31.650   3.237   6.101
 4095POPC   C2B53468  31.807   3.283   6.509
 4095POPC   C3B53469  31.681   3.135   6.904
 4095POPC   C4B53470  31.770   3.074   7.298
 4096POPC   NC353471  29.755   4.365   5.375
 4096POPC   PO453472  30.400   4.613   5.061
 4096POPC   GL153473  30.141   4.628   5.565
 4096POPC   GL253474  29.803   4.668   5.775
 4096POPC   C1A53475  30.119   4.438   6.064
 4096POPC   D2A53476  29.976   4.463   6.524
 4096POPC   C3A53477  30.250   4.422   6.884
 4096POPC   C4A53478  30.072   4.050   7.063
 4096POPC   C1B53479  29.597   4.519   6.166
 4096POPC   C2B53480  29.494   4.663   6.601
 4096POPC   C3B53481  29.513   4.488   7.020
 4096POPC   C4B53482  29.629   4.362   7.455
 4097POPC   NC353483  44.976   5.709   5.563
 4097POPC   PO453484  44.624   6.251   5.332
 4097POPC   GL153485  44.746   6.130   5.802
 4097POPC   GL253486  44.739   5.799   5.984
 4097POPC   C1A53487  44.872   6.155   6.285
 4097POPC   D2A53488  44.793   6.318   6.684
 4097POPC   C3A53489  44.585   6.042   6.920
 4097POPC   C4A53490  44.762   5.938   7.286
 4097POPC   C1B53491  44.537   5.604   6.302
 4097POPC   C2B53492  44.497   5.561   6.719
 4097POPC   C3B53493  44.712   5.469   7.062
 4097POPC   C4B53494  44.636   5.169   7.382
 4098POPC   NC353495  22.022  25.830   5.492
 4098POPC   PO453496  21.841  26.574   5.432
 4098POPC   GL153497  22.110  26.336   5.813
 4098POPC   GL253498  22.212  25.965   5.932
 4098POPC   C1A53499  22.275  26.341   6.260
 4098POPC   D2A53500  22.043  26.447   6.649
 4098POPC   C3A53501  22.132  26.211   7.014
 4098POPC   C4A53502  22.059  26.111   7.427
 4098POPC   C1B53503  21.965  25.735   6.254
 4098POPC   C2B53504  22.023  25.829   6.697
 4098POPC   C3B53505  22.080  25.681   7.140
 4098POPC   C4B53506  22.159  25.625   7.614
 4099POPC   NC353507  28.694   9.291   5.407
 4099POPC   PO453508  28.419  10.003   5.412
 4099POPC   GL153509  28.436   9.816   5.796
 4099POPC   GL253510  28.344   9.497   5.733
 4099POPC   C1A53511  28.339   9.944   6.218
 4099POPC   D2A53512  28.367  10.137   6.629
 4099POPC   C3A53513  28.192   9.941   7.008
 4099POPC   C4A53514  28.500   9.910   7.317
 4099POPC   C1B53515  28.582   9.406   6.069
 4099POPC   C2B53516  28.579   9.553   6.477
 4099POPC   C3B53517  28.636   9.665   6.892
 4099POPC   C4B53518  28.611   9.425   7.256
 4100POPC   NC353519  21.124  23.162   5.516
 4100POPC   PO453520  21.748  23.127   5.184
 4100POPC   GL153521  21.624  22.928   5.641
 4100POPC   GL253522  21.740  23.127   5.941
 4100POPC   C1A53523  21.404  22.770   6.078
 4100POPC   D2A53524  21.202  22.886   6.509
 4100POPC   C3A53525  21.428  22.896   6.908
 4100POPC   C4A53526  21.291  22.781   7.329
 4100POPC   C1B53527  21.533  23.244   6.332
 4100POPC   C2B53528  21.263  23.406   6.655
 4100POPC   C3B53529  21.193  23.306   7.080
 4100POPC   C4B53530  21.561  23.190   7.328
 4101POPC   NC353531  38.940   6.280   5.438
 4101POPC   PO453532  39.451   6.748   5.343
 4101POPC   GL153533  39.190   6.657   5.726
 4101POPC   GL253534  38.890   6.450   5.903
 4101POPC   C1A53535  39.341   6.540   6.121
 4101POPC   D2A53536  39.426   6.614   6.507
 4101POPC   C3A53537  39.503   6.291   6.743
 4101POPC   C4A53538  39.360   6.446   7.098
 4101POPC   C1B53539  38.890   6.674   6.307
 4101POPC   C2B53540  38.965   6.634   6.754
 4101POPC   C3B53541  38.870   6.388   7.131
 4101POPC   C4B53542  38.738   6.408   7.561
 4102POPC   NC353543  44.473  26.454   5.501
 4102POPC   PO453544  44.692  25.814   5.330
 4102POPC   GL153545  44.712  25.923   5.752
 4102POPC   GL253546  44.892  25.629   5.827
 4102POPC   C1A53547  44.581  26.102   6.165
 4102POPC   D2A53548  44.470  26.187   6.602
 4102POPC   C3A53549  44.465  26.361   7.015
 4102POPC   C4A53550  44.669  26.220   7.399
 4102POPC   C1B53551  44.758  25.570   6.246
 4102POPC   C2B53552  44.568  25.678   6.635
 4102POPC   C3B53553  44.649  25.847   7.028
 4102POPC   C4B53554  44.808  25.722   7.424
 4103POPC   NC353555  34.607   7.782   5.290
 4103POPC   PO453556  34.696   7.101   5.427
 4103POPC   GL153557  34.605   7.470   5.703
 4103POPC   GL253558  34.226   7.505   5.730
 4103POPC   C1A53559  34.560   7.635   6.127
 4103POPC   D2A53560  34.412   7.668   6.548
 4103POPC   C3A53561  34.644   7.738   6.930
 4103POPC   C4A53562  34.539   7.590   7.311
 4103POPC   C1B53563  34.355   7.176   6.054
 4103POPC   C2B53564  34.231   7.205   6.497
 4103POPC   C3B53565  34.405   7.277   6.911
 4103POPC   C4B53566  34.212   7.197   7.302
 4104POPC   NC353567  39.501  28.744   5.381
 4104POPC   PO453568  39.009  28.258   5.482
 4104POPC   GL153569  39.260  28.466   5.779
 4104POPC   GL253570  39.624  28.345   5.723
 4104POPC   C1A53571  39.038  28.518   6.175
 4104POPC   D2A53572  38.953  28.207   6.509
 4104POPC   C3A53573  39.232  28.217   6.844
 4104POPC   C4A53574  39.188  28.355   7.249
 4104POPC   C1B53575  39.679  28.580   6.105
 4104POPC   C2B53576  39.447  28.592   6.501
 4104POPC   C3B53577  39.357  28.701   6.924
 4104POPC   C4B53578  39.664  28.511   7.197
 4105POPC   NC353579  31.550  12.273   5.431
 4105POPC   PO453580  31.616  11.557   5.382
 4105POPC   GL153581  31.385  11.727   5.781
 4105POPC   GL253582  31.495  12.034   5.896
 4105POPC   C1A53583  31.194  11.820   6.260
 4105POPC   D2A53584  31.321  11.837   6.697
 4105POPC   C3A53585  31.270  11.819   7.134
 4105POPC   C4A53586  31.474  12.044   7.491
 4105POPC   C1B53587  31.562  12.131   6.353
 4105POPC   C2B53588  31.691  12.276   6.717
 4105POPC   C3B53589  31.557  12.400   7.102
 4105POPC   C4B53590  31.572  12.794   7.305
 4106POPC   NC353591   9.121   8.272   5.338
 4106POPC   PO453592   8.574   8.654   5.406
 4106POPC   GL153593   8.776   8.381   5.734
 4106POPC   GL253594   8.922   8.043   5.760
 4106POPC   C1A53595   8.932   8.412   6.150
 4106POPC   D2A53596   8.948   8.131   6.526
 4106POPC   C3A53597   8.944   8.329   6.919
 4106POPC   C4A53598   8.971   8.603   7.265
 4106POPC   C1B53599   8.624   7.998   6.130
 4106POPC   C2B53600   8.521   7.861   6.580
 4106POPC   C3B53601   8.528   8.059   7.002
 4106POPC   C4B53602   8.767   8.118   7.398
 4107POPC   NC353603  41.369   1.232   5.158
 4107POPC   PO453604  41.734   1.426   5.652
 4107POPC   GL153605  41.676   1.056   5.865
 4107POPC   GL253606  42.011   0.946   5.885
 4107POPC   C1A53607  41.402   1.006   6.251
 4107POPC   D2A53608  41.252   1.001   6.687
 4107POPC   C3A53609  41.286   1.321   7.015
 4107POPC   C4A53610  41.531   1.295   7.413
 4107POPC   C1B53611  41.899   1.104   6.316
 4107POPC   C2B53612  41.646   1.349   6.595
 4107POPC   C3B53613  41.779   1.177   6.969
 4107POPC   C4B53614  41.599   0.817   7.121
 4108POPC   NC353615  33.422  44.117   5.551
 4108POPC   PO453616  33.011  44.531   5.196
 4108POPC   GL153617  33.026  44.605   5.669
 4108POPC   GL253618  33.197  44.388   5.916
 4108POPC   C1A53619  32.995  44.807   6.102
 4108POPC   D2A53620  33.018  44.630   6.506
 4108POPC   C3A53621  33.211  44.779   6.883
 4108POPC   C4A53622  33.057  44.749   7.310
 4108POPC   C1B53623  33.460  44.297   6.277
 4108POPC   C2B53624  33.368  44.291   6.712
 4108POPC   C3B53625  33.145  44.312   7.092
 4108POPC   C4B53626  33.264  44.355   7.561
 4109POPC   NC353627  42.136  36.851   5.492
 4109POPC   PO453628  42.765  37.086   5.487
 4109POPC   GL153629  42.575  36.815   5.810
 4109POPC   GL253630  42.375  37.085   5.915
 4109POPC   C1A53631  42.537  36.744   6.299
 4109POPC   D2A53632  42.467  37.056   6.698
 4109POPC   C3A53633  42.572  36.938   7.132
 4109POPC   C4A53634  42.599  36.492   7.252
 4109POPC   C1B53635  42.118  37.045   6.309
 4109POPC   C2B53636  42.097  36.654   6.573
 4109POPC   C3B53637  42.182  36.659   6.963
 4109POPC   C4B53638  42.079  37.075   7.108
 4110POPC   NC353639  30.477  41.203   5.543
 4110POPC   PO453640  30.734  40.520   5.384
 4110POPC   GL153641  30.753  40.624   5.870
 4110POPC   GL253642  30.899  40.977   5.844
 4110POPC   C1A53643  30.502  40.559   6.317
 4110POPC   D2A53644  30.503  40.655   6.779
 4110POPC   C3A53645  30.816  40.788   7.080
 4110POPC   C4A53646  30.784  40.630   7.524
 4110POPC   C1B53647  30.650  41.044   6.199
 4110POPC   C2B53648  30.662  41.132   6.634
 4110POPC   C3B53649  30.552  41.216   7.048
 4110POPC   C4B53650  30.643  41.096   7.504
 4111POPC   NC353651   0.753  42.287   5.389
 4111POPC   PO453652   0.160  42.530   5.222
 4111POPC   GL153653   0.382  42.517   5.687
 4111POPC   GL253654   0.248  42.216   5.871
 4111POPC   C1A53655   0.705  42.344   6.037
 4111POPC   D2A53656   0.810  42.299   6.485
 4111POPC   C3A53657   0.543  42.357   6.848
 4111POPC   C4A53658   0.625  42.326   7.274
 4111POPC   C1B53659   0.252  42.333   6.331
 4111POPC   C2B53660   0.071  42.197   6.739
 4111POPC   C3B53661   0.063  42.169   7.204
 4111POPC   C4B53662  44.955  42.039   7.656
 4112POPC   NC353663  39.508  37.581   5.348
 4112POPC   PO453664  38.972  37.942   5.616
 4112POPC   GL153665  39.226  37.581   5.796
 4112POPC   GL253666  39.571  37.407   5.831
 4112POPC   C1A53667  39.102  37.474   6.196
 4112POPC   D2A53668  38.822  37.659   6.482
 4112POPC   C3A53669  39.078  37.697   6.839
 4112POPC   C4A53670  39.239  37.549   7.216
 4112POPC   C1B53671  39.580  37.296   6.286
 4112POPC   C2B53672  39.539  37.429   6.752
 4112POPC   C3B53673  39.736  37.445   7.194
 4112POPC   C4B53674  39.547  37.548   7.616
 4113POPC   NC353675  40.424  22.675   5.393
 4113POPC   PO453676  40.795  23.223   5.516
 4113POPC   GL153677  40.785  23.061   5.897
 4113POPC   GL253678  40.907  22.749   5.854
 4113POPC   C1A53679  40.526  22.832   6.193
 4113POPC   D2A53680  40.619  22.754   6.615
 4113POPC   C3A53681  40.842  23.122   6.775
 4113POPC   C4A53682  40.870  23.175   7.229
 4113POPC   C1B53683  41.067  22.817   6.277
 4113POPC   C2B53684  41.138  22.679   6.710
 4113POPC   C3B53685  40.887  22.686   7.075
 4113POPC   C4B53686  40.953  22.672   7.543
 4114POPC   NC353687  24.801  35.990   5.553
 4114POPC   PO453688  24.281  36.330   5.248
 4114POPC   GL153689  24.348  36.130   5.729
 4114POPC   GL253690  24.655  36.194   5.987
 4114POPC   C1A53691  24.222  36.160   6.217
 4114POPC   D2A53692  24.050  36.056   6.643
 4114POPC   C3A53693  24.303  36.187   6.977
 4114POPC   C4A53694  24.741  36.280   7.023
 4114POPC   C1B53695  24.677  35.839   6.211
 4114POPC   C2B53696  24.582  35.973   6.593
 4114POPC   C3B53697  24.672  35.776   6.933
 4114POPC   C4B53698  24.680  35.697   7.320
 4115POPC   NC353699  31.864   6.299   5.323
 4115POPC   PO453700  31.165   6.603   5.267
 4115POPC   GL153701  31.276   6.718   5.718
 4115POPC   GL253702  31.631   6.888   5.741
 4115POPC   C1A53703  31.327   6.934   6.144
 4115POPC   D2A53704  31.481   6.735   6.522
 4115POPC   C3A53705  31.585   6.911   6.917
 4115POPC   C4A53706  31.560   6.729   7.331
 4115POPC   C1B53707  31.653   6.528   6.055
 4115POPC   C2B53708  31.713   6.283   6.458
 4115POPC   C3B53709  31.738   6.405   6.914
 4115POPC   C4B53710  31.956   6.389   7.330
 4116POPC   NC353711  28.490  22.184   5.352
 4116POPC   PO453712  27.898  21.920   5.192
 4116POPC   GL153713  28.055  22.088   5.610
 4116POPC   GL253714  28.237  22.445   5.686
 4116POPC   C1A53715  28.088  22.091   6.059
 4116POPC   D2A53716  28.338  21.910   6.376
 4116POPC   C3A53717  28.246  21.993   6.780
 4116POPC   C4A53718  28.328  22.095   7.180
 4116POPC   C1B53719  28.422  22.517   6.059
 4116POPC   C2B53720  28.274  22.408   6.442
 4116POPC   C3B53721  28.085  22.501   6.804
 4116POPC   C4B53722  28.227  22.655   7.169
 4117POPC   NC353723   6.611  38.742   5.382
 4117POPC   PO453724   6.866  38.204   5.488
 4117POPC   GL153725   6.640  38.464   5.837
 4117POPC   GL253726   6.397  38.771   5.833
 4117POPC   C1A53727   6.429  38.467   6.253
 4117POPC   D2A53728   6.529  38.296   6.636
 4117POPC   C3A53729   6.323  38.465   6.964
 4117POPC   C4A53730   6.460  38.218   7.289
 4117POPC   C1B53731   6.267  39.020   6.186
 4117POPC   C2B53732   6.218  38.859   6.588
 4117POPC   C3B53733   6.404  38.991   6.969
 4117POPC   C4B53734   6.640  38.763   7.271
 4118POPC   NC353735  40.368   4.462   5.526
 4118POPC   PO453736  40.827   4.036   5.397
 4118POPC   GL153737  40.948   4.300   5.718
 4118POPC   GL253738  40.625   4.174   5.874
 4118POPC   C1A53739  40.967   4.399   6.168
 4118POPC   D2A53740  40.704   4.283   6.446
 4118POPC   C3A53741  40.776   4.321   6.886
 4118POPC   C4A53742  41.036   4.309   7.267
 4118POPC   C1B53743  40.343   4.024   6.188
 4118POPC   C2B53744  40.252   4.186   6.607
 4118POPC   C3B53745  40.352   4.032   7.014
 4118POPC   C4B53746  40.547   4.242   7.352
 4119POPC   NC353747  26.562   4.908   5.104
 4119POPC   PO453748  27.091   5.104   5.418
 4119POPC   GL153749  26.906   5.233   5.815
 4119POPC   GL253750  26.615   5.165   5.720
 4119POPC   C1A53751  26.992   5.190   6.227
 4119POPC   D2A53752  27.059   4.962   6.607
 4119POPC   C3A53753  27.007   5.219   6.986
 4119POPC   C4A53754  26.783   5.404   7.358
 4119POPC   C1B53755  26.494   5.040   6.134
 4119POPC   C2B53756  26.546   4.873   6.510
 4119POPC   C3B53757  26.516   5.058   6.884
 4119POPC   C4B53758  26.603   4.936   7.273
 4120POPC   NC353759   3.066  37.986   5.403
 4120POPC   PO453760   2.454  37.578   5.409
 4120POPC   GL153761   2.687  37.779   5.754
 4120POPC   GL253762   3.036  37.676   5.833
 4120POPC   C1A53763   2.600  37.779   6.203
 4120POPC   D2A53764   2.594  38.032   6.568
 4120POPC   C3A53765   2.626  37.787   6.955
 4120POPC   C4A53766   2.499  37.619   7.349
 4120POPC   C1B53767   3.138  37.820   6.231
 4120POPC   C2B53768   2.951  37.650   6.588
 4120POPC   C3B53769   3.064  37.540   7.015
 4120POPC   C4B53770   2.984  37.672   7.446
 4121POPC   NC353771  23.824  27.621   5.577
 4121POPC   PO453772  23.314  27.435   5.211
 4121POPC   GL153773  23.500  27.206   5.644
 4121POPC   GL253774  23.889  27.164   5.748
 4121POPC   C1A53775  23.549  27.347   6.118
 4121POPC   D2A53776  23.755  27.682   6.417
 4121POPC   C3A53777  23.665  27.631   6.852
 4121POPC   C4A53778  23.596  27.713   7.272
 4121POPC   C1B53779  24.068  27.360   6.151
 4121POPC   C2B53780  24.062  27.324   6.633
 4121POPC   C3B53781  24.056  27.433   7.108
 4121POPC   C4B53782  23.794  27.278   7.475
 4122POPC   NC353783  25.761  15.954   5.361
 4122POPC   PO453784  26.413  15.678   5.315
 4122POPC   GL153785  26.146  15.766   5.764
 4122POPC   GL253786  25.914  16.100   5.830
 4122POPC   C1A53787  26.203  15.774   6.273
 4122POPC   D2A53788  26.253  16.062   6.677
 4122POPC   C3A53789  26.120  15.970   7.121
 4122POPC   C4A53790  26.167  16.026   7.591
 4122POPC   C1B53791  25.870  16.158   6.284
 4122POPC   C2B53792  25.768  15.872   6.620
 4122POPC   C3B53793  25.650  16.087   6.976
 4122POPC   C4B53794  25.689  16.148   7.392
 4123POPC   NC353795  33.764  34.839   5.438
 4123POPC   PO453796  34.206  34.291   5.302
 4123POPC   GL153797  34.011  34.487   5.745
 4123POPC   GL253798  33.643  34.567   5.876
 4123POPC   C1A53799  34.032  34.628   6.214
 4123POPC   D2A53800  34.126  34.412   6.598
 4123POPC   C3A53801  34.050  34.571   7.023
 4123POPC   C4A53802  33.743  34.337   7.247
 4123POPC   C1B53803  33.566  34.799   6.312
 4123POPC   C2B53804  33.589  34.730   6.796
 4123POPC   C3B53805  33.424  34.737   7.259
 4123POPC   C4B53806  33.413  34.793   7.717
 4124POPC   NC353807   3.686   6.873   5.197
 4124POPC   PO453808   3.837   7.582   5.375
 4124POPC   GL153809   3.739   7.325   5.725
 4124POPC   GL253810   3.399   7.361   5.777
 4124POPC   C1A53811   3.698   7.493   6.159
 4124POPC   D2A53812   3.461   7.648   6.510
 4124POPC   C3A53813   3.573   7.415   6.878
 4124POPC   C4A53814   3.563   7.462   7.306
 4124POPC   C1B53815   3.287   7.191   6.237
 4124POPC   C2B53816   3.127   7.269   6.676
 4124POPC   C3B53817   3.200   7.148   7.132
 4124POPC   C4B53818   3.454   6.775   7.233
 4125POPC   NC353819  43.963  28.264   5.446
 4125POPC   PO453820  43.303  28.430   5.515
 4125POPC   GL153821  43.637  28.407   5.828
 4125POPC   GL253822  43.728  28.057   5.878
 4125POPC   C1A53823  43.796  28.659   6.166
 4125POPC   D2A53824  43.758  28.728   6.578
 4125POPC   C3A53825  43.954  28.486   6.883
 4125POPC   C4A53826  43.861  28.446   7.317
 4125POPC   C1B53827  43.733  28.145   6.340
 4125POPC   C2B53828  43.744  28.022   6.784
 4125POPC   C3B53829  43.796  27.968   7.225
 4125POPC   C4B53830  44.097  28.062   7.582
 4126POPC   NC353831  23.445  20.517   5.498
 4126POPC   PO453832  22.850  20.767   5.187
 4126POPC   GL153833  22.968  20.672   5.648
 4126POPC   GL253834  23.247  20.878   5.803
 4126POPC   C1A53835  22.809  20.659   6.100
 4126POPC   D2A53836  22.687  20.577   6.563
 4126POPC   C3A53837  22.668  20.805   6.944
 4126POPC   C4A53838  22.907  20.584   7.255
 4126POPC   C1B53839  23.271  20.848   6.262
 4126POPC   C2B53840  23.143  20.806   6.721
 4126POPC   C3B53841  23.120  21.020   7.141
 4126POPC   C4B53842  23.250  21.041   7.598
 4127POPC   NC353843  34.178  32.366   5.338
 4127POPC   PO453844  33.659  31.985   5.450
 4127POPC   GL153845  33.885  32.188   5.794
 4127POPC   GL253846  34.074  32.510   5.849
 4127POPC   C1A53847  33.767  32.105   6.232
 4127POPC   D2A53848  33.660  32.392   6.548
 4127POPC   C3A53849  33.654  32.192   6.933
 4127POPC   C4A53850  33.700  32.478   7.277
 4127POPC   C1B53851  34.231  32.334   6.237
 4127POPC   C2B53852  34.132  32.199   6.634
 4127POPC   C3B53853  34.143  32.290   7.055
 4127POPC   C4B53854  34.148  32.347   7.508
 4128POPC   NC353855   9.721  28.758   5.395
 4128POPC   PO453856   9.932  29.393   5.393
 4128POPC   GL153857   9.906  29.126   5.726
 4128POPC   GL253858   9.572  29.220   5.770
 4128POPC   C1A53859   9.876  28.942   6.125
 4128POPC   D2A53860   9.682  29.034   6.511
 4128POPC   C3A53861   9.955  28.974   6.865
 4128POPC   C4A53862  10.043  28.748   7.232
 4128POPC   C1B53863   9.673  29.469   6.125
 4128POPC   C2B53864   9.810  29.516   6.547
 4128POPC   C3B53865   9.653  29.384   6.918
 4128POPC   C4B53866   9.733  29.535   7.314
 4129POPC   NC353867   6.882   4.885   5.518
 4129POPC   PO453868   6.563   5.397   5.356
 4129POPC   GL153869   6.500   5.157   5.755
 4129POPC   GL253870   6.841   5.171   5.942
 4129POPC   C1A53871   6.420   5.110   6.227
 4129POPC   D2A53872   6.757   5.076   6.575
 4129POPC   C3A53873   6.602   5.099   7.007
 4129POPC   C4A53874   6.573   5.100   7.493
 4129POPC   C1B53875   7.128   4.916   6.209
 4129POPC   C2B53876   7.243   4.784   6.605
 4129POPC   C3B53877   6.969   4.745   6.955
 4129POPC   C4B53878   7.005   4.973   7.315
 4130POPC   NC353879   4.057   3.980   5.302
 4130POPC   PO453880   4.588   4.311   5.388
 4130POPC   GL153881   4.369   4.415   5.752
 4130POPC   GL253882   4.030   4.343   5.670
 4130POPC   C1A53883   4.474   4.423   6.204
 4130POPC   D2A53884   4.495   4.294   6.664
 4130POPC   C3A53885   4.476   4.517   7.080
 4130POPC   C4A53886   4.131   4.418   7.368
 4130POPC   C1B53887   4.002   4.231   6.096
 4130POPC   C2B53888   4.039   4.515   6.447
 4130POPC   C3B53889   4.006   4.461   6.868
 4130POPC   C4B53890   3.740   4.165   7.073
 4131POPC   NC353891  10.245  40.321   5.198
 4131POPC   PO453892  10.449  41.102   5.361
 4131POPC   GL153893  10.520  40.922   5.762
 4131POPC   GL253894  10.238  40.740   5.765
 4131POPC   C1A53895  10.369  41.016   6.208
 4131POPC   D2A53896  10.523  41.076   6.636
 4131POPC   C3A53897  10.400  41.086   7.082
 4131POPC   C4A53898  10.604  40.825   7.420
 4131POPC   C1B53899  10.482  40.530   6.094
 4131POPC   C2B53900  10.372  40.485   6.504
 4131POPC   C3B53901  10.447  40.589   6.913
 4131POPC   C4B53902  10.178  40.624   7.242
 4132POPC   NC353903   3.661  12.560   5.212
 4132POPC   PO453904   3.195  13.026   5.431
 4132POPC   GL153905   3.369  12.651   5.628
 4132POPC   GL253906   3.744  12.687   5.721
 4132POPC   C1A53907   3.305  12.590   6.053
 4132POPC   D2A53908   3.426  12.621   6.477
 4132POPC   C3A53909   3.332  12.942   6.754
 4132POPC   C4A53910   3.222  12.839   7.142
 4132POPC   C1B53911   3.737  12.905   6.133
 4132POPC   C2B53912   3.877  12.947   6.561
 4132POPC   C3B53913   3.789  12.795   6.977
 4132POPC   C4B53914   3.925  13.047   7.301
 4133POPC   NC353915  41.278  30.442   5.368
 4133POPC   PO453916  41.442  31.088   5.489
 4133POPC   GL153917  41.400  30.748   5.786
 4133POPC   GL253918  41.682  30.480   5.787
 4133POPC   C1A53919  41.497  30.672   6.227
 4133POPC   D2A53920  41.734  30.847   6.551
 4133POPC   C3A53921  41.594  30.731   6.937
 4133POPC   C4A53922  41.391  31.017   7.178
 4133POPC   C1B53923  41.907  30.344   6.209
 4133POPC   C2B53924  41.846  30.325   6.694
 4133POPC   C3B53925  41.894  30.382   7.181
 4133POPC   C4B53926  41.757  30.390   7.659
 4134POPC   NC353927  37.277   1.225   5.497
 4134POPC   PO453928  37.904   1.454   5.636
 4134POPC   GL153929  37.821   1.057   5.853
 4134POPC   GL253930  37.478   0.966   5.899
 4134POPC   C1A53931  37.838   1.057   6.284
 4134POPC   D2A53932  37.959   1.457   6.442
 4134POPC   C3A53933  37.871   1.545   6.875
 4134POPC   C4A53934  37.522   1.425   7.121
 4134POPC   C1B53935  37.382   1.281   6.232
 4134POPC   C2B53936  37.524   1.203   6.653
 4134POPC   C3B53937  37.675   0.940   6.968
 4134POPC   C4B53938  37.472   0.937   7.341
 4135POPC   NC353939  35.354  23.967   5.309
 4135POPC   PO453940  35.525  23.317   5.411
 4135POPC   GL153941  35.265  23.501   5.788
 4135POPC   GL253942  35.235  23.871   5.849
 4135POPC   C1A53943  35.173  23.563   6.260
 4135POPC   D2A53944  35.109  23.891   6.568
 4135POPC   C3A53945  35.296  23.821   6.984
 4135POPC   C4A53946  35.412  23.395   7.021
 4135POPC   C1B53947  35.463  24.039   6.244
 4135POPC   C2B53948  35.699  24.103   6.656
 4135POPC   C3B53949  35.705  24.141   7.137
 4135POPC   C4B53950  35.458  23.999   7.525
 4136POPC   NC353951  17.008  44.885   5.333
 4136POPC   PO453952  16.653  44.327   5.174
 4136POPC   GL153953  16.684  44.509   5.618
 4136POPC   GL253954  16.978  44.660   5.797
 4136POPC   C1A53955  16.619  44.428   6.089
 4136POPC   D2A53956  16.772  44.669   6.471
 4136POPC   C3A53957  16.622  44.668   6.899
 4136POPC   C4A53958  16.490  44.986   7.157
 4136POPC   C1B53959  17.218  44.713   6.203
 4136POPC   C2B53960  17.271  44.444   6.570
 4136POPC   C3B53961  16.966  44.285   6.863
 4136POPC   C4B53962  16.924  44.475   7.268
 4137POPC   NC353963  15.839  32.553   5.083
 4137POPC   PO453964  15.865  32.034   5.595
 4137POPC   GL153965  15.756  32.156   5.960
 4137POPC   GL253966  16.070  32.359   5.973
 4137POPC   C1A53967  15.683  32.468   6.282
 4137POPC   D2A53968  15.751  32.641   6.676
 4137POPC   C3A53969  15.651  32.300   6.956
 4137POPC   C4A53970  15.803  31.934   7.208
 4137POPC   C1B53971  16.036  32.044   6.339
 4137POPC   C2B53972  16.053  32.026   6.757
 4137POPC   C3B53973  16.224  32.185   7.122
 4137POPC   C4B53974  16.384  31.866   7.372
 4138POPC   NC353975  44.104   9.036   5.267
 4138POPC   PO453976  43.810   8.532   5.546
 4138POPC   GL153977  43.706   8.774   5.892
 4138POPC   GL253978  43.788   9.131   5.741
 4138POPC   C1A53979  43.821   8.677   6.334
 4138POPC   D2A53980  44.151   8.866   6.619
 4138POPC   C3A53981  44.100   8.792   7.041
 4138POPC   C4A53982  43.913   8.754   7.450
 4138POPC   C1B53983  43.939   9.145   6.182
 4138POPC   C2B53984  43.705   9.101   6.614
 4138POPC   C3B53985  43.663   9.089   7.069
 4138POPC   C4B53986  43.680   9.435   7.357
 4139POPC   NC353987  34.041  20.156   5.416
 4139POPC   PO453988  33.719  19.542   5.385
 4139POPC   GL153989  33.711  19.867   5.683
 4139POPC   GL253990  34.077  19.812   5.788
 4139POPC   C1A53991  33.738  20.067   6.087
 4139POPC   D2A53992  33.881  19.881   6.470
 4139POPC   C3A53993  33.865  20.091   6.843
 4139POPC   C4A53994  33.671  19.896   7.189
 4139POPC   C1B53995  34.177  19.586   6.145
 4139POPC   C2B53996  34.257  19.555   6.561
 4139POPC   C3B53997  34.083  19.627   6.958
 4139POPC   C4B53998  34.220  19.949   7.208
 4140POPC   NC353999   6.980  34.635   5.365
 4140POPC   PO454000   6.366  34.853   5.352
 4140POPC   GL154001   6.614  34.737   5.716
 4140POPC   GL254002   6.913  34.987   5.747
 4140POPC   C1A54003   6.535  34.449   6.095
 4140POPC   D2A54004   6.484  34.550   6.552
 4140POPC   C3A54005   6.657  34.317   6.902
 4140POPC   C4A54006   6.876  34.442   7.284
 4140POPC   C1B54007   6.850  34.854   6.158
 4140POPC   C2B54008   6.980  34.568   6.472
 4140POPC   C3B54009   6.921  34.752   6.872
 4140POPC   C4B54010   6.828  35.060   7.182
 4141POPC   NC354011   0.986  32.202   5.350
 4141POPC   PO454012   1.045  31.619   5.327
 4141POPC   GL154013   1.122  31.895   5.747
 4141POPC   GL254014   1.233  32.274   5.809
 4141POPC   C1A54015   1.147  31.977   6.226
 4141POPC   D2A54016   1.319  32.160   6.609
 4141POPC   C3A54017   1.613  32.052   6.919
 4141POPC   C4A54018   1.487  32.040   7.338
 4141POPC   C1B54019   1.293  32.514   6.243
 4141POPC   C2B54020   1.442  32.640   6.704
 4141POPC   C3B54021   1.636  32.545   7.097
 4141POPC   C4B54022   1.705  32.900   7.382
 4142POPC   NC354023  14.034   5.034   5.401
 4142POPC   PO454024  14.561   4.779   5.159
 4142POPC   GL154025  14.367   4.760   5.646
 4142POPC   GL254026  14.048   4.680   5.826
 4142POPC   C1A54027  14.448   4.896   6.090
 4142POPC   D2A54028  14.586   4.813   6.523
 4142POPC   C3A54029  14.664   5.162   6.803
 4142POPC   C4A54030  14.723   5.149   7.250
 4142POPC   C1B54031  13.985   4.798   6.290
 4142POPC   C2B54032  14.161   5.067   6.633
 4142POPC   C3B54033  14.271   4.943   7.059
 4142POPC   C4B54034  14.271   4.506   7.265
 4143POPC   NC354035  36.540   7.303   5.446
 4143POPC   PO454036  37.143   7.589   5.421
 4143POPC   GL154037  36.984   7.450   5.799
 4143POPC   GL254038  36.677   7.632   5.793
 4143POPC   C1A54039  37.107   7.314   6.209
 4143POPC   D2A54040  37.411   7.241   6.514
 4143POPC   C3A54041  37.162   7.246   6.874
 4143POPC   C4A54042  37.107   7.467   7.252
 4143POPC   C1B54043  36.618   7.448   6.186
 4143POPC   C2B54044  36.798   7.504   6.606
 4143POPC   C3B54045  36.741   7.713   7.002
 4143POPC   C4B54046  36.658   7.684   7.467
 4144POPC   NC354047  26.725   2.914   5.357
 4144POPC   PO454048  26.938   2.247   5.287
 4144POPC   GL154049  27.108   2.559   5.635
 4144POPC   GL254050  27.024   2.911   5.788
 4144POPC   C1A54051  27.096   2.538   6.121
 4144POPC   D2A54052  26.821   2.606   6.501
 4144POPC   C3A54053  26.944   2.728   6.906
 4144POPC   C4A54054  27.084   2.574   7.278
 4144POPC   C1B54055  26.658   2.924   6.128
 4144POPC   C2B54056  26.443   2.948   6.584
 4144POPC   C3B54057  26.365   3.029   7.040
 4144POPC   C4B54058  26.687   2.910   7.320
 4145POPC   NC354059   8.651  44.540   5.324
 4145POPC   PO454060   8.840  43.841   5.390
 4145POPC   GL154061   8.930  43.800   5.866
 4145POPC   GL254062   9.237  43.992   5.940
 4145POPC   C1A54063   8.877  43.956   6.324
 4145POPC   D2A54064   8.584  44.158   6.581
 4145POPC   C3A54065   8.757  44.158   6.986
 4145POPC   C4A54066   8.828  43.797   7.265
 4145POPC   C1B54067   9.379  44.055   6.374
 4145POPC   C2B54068   9.133  44.304   6.655
 4145POPC   C3B54069   9.182  44.455   7.051
 4145POPC   C4B54070   9.218  44.100   7.283
 4146POPC   NC354071  38.669   2.138   5.101
 4146POPC   PO454072  38.253   2.383   5.523
 4146POPC   GL154073  38.418   2.072   5.868
 4146POPC   GL254074  38.763   1.909   5.849
 4146POPC   C1A54075  38.472   1.888   6.272
 4146POPC   D2A54076  38.295   1.778   6.636
 4146POPC   C3A54077  38.442   1.941   6.992
 4146POPC   C4A54078  38.223   1.790   7.306
 4146POPC   C1B54079  38.863   2.193   6.227
 4146POPC   C2B54080  38.815   2.040   6.623
 4146POPC   C3B54081  38.950   1.900   6.996
 4146POPC   C4B54082  38.755   1.620   7.262
 4147POPC   NC354083  40.264  15.096   5.142
 4147POPC   PO454084  39.594  14.824   5.382
 4147POPC   GL154085  39.809  14.854   5.877
 4147POPC   GL254086  40.178  15.023   5.898
 4147POPC   C1A54087  39.801  15.214   6.190
 4147POPC   D2A54088  39.767  15.428   6.598
 4147POPC   C3A54089  39.866  15.146   6.950
 4147POPC   C4A54090  40.275  15.055   7.150
 4147POPC   C1B54091  40.296  15.337   6.242
 4147POPC   C2B54092  40.272  15.403   6.714
 4147POPC   C3B54093  40.315  15.660   7.104
 4147POPC   C4B54094  40.406  15.626   7.587
 4148POPC   NC354095  36.205  42.168   5.380
 4148POPC   PO454096  35.876  42.800   5.476
 4148POPC   GL154097  36.152  42.518   5.764
 4148POPC   GL254098  36.052  42.158   5.869
 4148POPC   C1A54099  36.324  42.454   6.194
 4148POPC   D2A54100  36.518  42.467   6.601
 4148POPC   C3A54101  36.338  42.175   6.874
 4148POPC   C4A54102  36.170  42.282   7.268
 4148POPC   C1B54103  35.871  42.232   6.282
 4148POPC   C2B54104  35.981  42.479   6.635
 4148POPC   C3B54105  35.749  42.523   6.996
 4148POPC   C4B54106  35.681  42.214   7.299
 4149POPC   NC354107  26.151  16.909   5.375
 4149POPC   PO454108  25.708  16.437   5.362
 4149POPC   GL154109  25.824  16.666   5.790
 4149POPC   GL254110  26.168  16.866   5.885
 4149POPC   C1A54111  25.828  16.689   6.268
 4149POPC   D2A54112  25.697  16.583   6.705
 4149POPC   C3A54113  26.004  16.458   7.037
 4149POPC   C4A54114  26.026  16.503   7.492
 4149POPC   C1B54115  25.997  17.189   6.179
 4149POPC   C2B54116  25.849  17.119   6.604
 4149POPC   C3B54117  25.996  16.973   6.995
 4149POPC   C4B54118  26.346  16.830   7.199
 4150POPC   NC354119   7.191  34.009   5.251
 4150POPC   PO454120   7.871  33.995   5.234
 4150POPC   GL154121   7.431  33.998   5.682
 4150POPC   GL254122   7.390  33.674   5.841
 4150POPC   C1A54123   7.412  33.964   6.222
 4150POPC   D2A54124   7.557  33.692   6.583
 4150POPC   C3A54125   7.482  33.901   6.971
 4150POPC   C4A54126   7.368  34.117   7.347
 4150POPC   C1B54127   7.087  33.536   6.150
 4150POPC   C2B54128   7.181  33.334   6.540
 4150POPC   C3B54129   7.195  33.473   6.955
 4150POPC   C4B54130   7.244  33.606   7.356
 4151POPC   NC354131  36.154  24.870   5.025
 4151POPC   PO454132  35.883  24.192   5.321
 4151POPC   GL154133  36.148  24.247   5.690
 4151POPC   GL254134  36.037  24.521   5.835
 4151POPC   C1A54135  36.390  24.243   6.112
 4151POPC   D2A54136  36.141  24.322   6.473
 4151POPC   C3A54137  36.168  24.220   6.887
 4151POPC   C4A54138  36.223  24.378   7.291
 4151POPC   C1B54139  36.180  24.739   6.172
 4151POPC   C2B54140  36.301  24.803   6.590
 4151POPC   C3B54141  36.103  24.751   6.962
 4151POPC   C4B54142  35.991  24.891   7.349
 4152POPC   NC354143  17.937  38.672   5.536
 4152POPC   PO454144  17.223  38.506   5.420
 4152POPC   GL154145  17.492  38.502   5.771
 4152POPC   GL254146  17.573  38.167   5.806
 4152POPC   C1A54147  17.368  38.471   6.213
 4152POPC   D2A54148  17.277  38.649   6.609
 4152POPC   C3A54149  17.387  38.507   7.023
 4152POPC   C4A54150  17.328  38.746   7.393
 4152POPC   C1B54151  17.593  38.031   6.220
 4152POPC   C2B54152  17.653  38.192   6.626
 4152POPC   C3B54153  17.536  38.018   6.982
 4152POPC   C4B54154  17.649  37.988   7.351
 4153POPC   NC354155  44.058  32.344   4.840
 4153POPC   PO454156  43.831  32.204   5.411
 4153POPC   GL154157  43.862  31.994   5.822
 4153POPC   GL254158  43.818  32.325   5.956
 4153POPC   C1A54159  43.824  31.930   6.280
 4153POPC   D2A54160  43.953  32.214   6.614
 4153POPC   C3A54161  43.911  32.072   7.039
 4153POPC   C4A54162  44.030  32.145   7.481
 4153POPC   C1B54163  43.593  32.670   6.197
 4153POPC   C2B54164  43.616  32.733   6.633
 4153POPC   C3B54165  43.715  32.550   7.037
 4153POPC   C4B54166  44.060  32.638   7.332
 4154POPC   NC354167  43.355  31.466   5.546
 4154POPC   PO454168  42.740  31.638   5.341
 4154POPC   GL154169  42.809  31.457   5.808
 4154POPC   GL254170  43.022  31.687   5.913
 4154POPC   C1A54171  42.983  31.277   6.207
 4154POPC   D2A54172  43.047  31.441   6.610
 4154POPC   C3A54173  43.263  31.250   6.966
 4154POPC   C4A54174  42.953  31.145   7.275
 4154POPC   C1B54175  43.343  31.695   6.250
 4154POPC   C2B54176  43.412  31.753   6.717
 4154POPC   C3B54177  43.299  31.695   7.195
 4154POPC   C4B54178  43.242  31.765   7.687
 4155POPC   NC354179   0.599  26.556   5.451
 4155POPC   PO454180  44.922  26.575   5.575
 4155POPC   GL154181   0.262  26.812   5.777
 4155POPC   GL254182   0.631  26.941   5.802
 4155POPC   C1A54183   0.298  26.859   6.185
 4155POPC   D2A54184   0.397  27.064   6.513
 4155POPC   C3A54185   0.226  26.818   6.836
 4155POPC   C4A54186   0.283  26.923   7.269
 4155POPC   C1B54187   0.821  26.818   6.199
 4155POPC   C2B54188   0.662  26.642   6.590
 4155POPC   C3B54189   0.713  26.840   6.989
 4155POPC   C4B54190   0.880  26.681   7.399
 4156POPC   NC354191  43.171  21.619   5.484
 4156POPC   PO454192  42.795  21.085   5.420
 4156POPC   GL154193  42.997  21.229   5.823
 4156POPC   GL254194  42.940  21.576   5.922
 4156POPC   C1A54195  43.146  21.294   6.265
 4156POPC   D2A54196  43.084  21.223   6.678
 4156POPC   C3A54197  43.362  21.461   6.961
 4156POPC   C4A54198  43.363  21.300   7.379
 4156POPC   C1B54199  42.978  21.806   6.317
 4156POPC   C2B54200  42.908  21.694   6.759
 4156POPC   C3B54201  42.902  21.414   7.163
 4156POPC   C4B54202  43.025  21.619   7.591
 4157POPC   NC354203  13.579  36.563   5.315
 4157POPC   PO454204  13.958  37.150   5.280
 4157POPC   GL154205  13.737  37.004   5.706
 4157POPC   GL254206  13.567  36.686   5.824
 4157POPC   C1A54207  13.579  37.042   6.162
 4157POPC   D2A54208  13.548  36.878   6.566
 4157POPC   C3A54209  13.631  37.209   6.814
 4157POPC   C4A54210  13.319  37.435   7.073
 4157POPC   C1B54211  13.911  36.657   6.191
 4157POPC   C2B54212  13.893  36.499   6.616
 4157POPC   C3B54213  13.851  36.736   7.000
 4157POPC   C4B54214  13.591  37.010   7.255
 4158POPC   NC354215  37.509  40.024   5.429
 4158POPC   PO454216  38.027  39.629   5.488
 4158POPC   GL154217  37.816  39.892   5.841
 4158POPC   GL254218  37.453  39.821   5.880
 4158POPC   C1A54219  37.704  40.088   6.260
 4158POPC   D2A54220  37.503  40.335   6.543
 4158POPC   C3A54221  37.672  40.213   6.928
 4158POPC   C4A54222  37.646  40.327   7.330
 4158POPC   C1B54223  37.537  39.623   6.255
 4158POPC   C2B54224  37.446  39.812   6.651
 4158POPC   C3B54225  37.541  39.757   7.081
 4158POPC   C4B54226  37.602  39.345   7.187
 4159POPC   NC354227  34.288  18.556   5.530
 4159POPC   PO454228  34.841  18.227   5.287
 4159POPC   GL154229  34.684  18.209   5.707
 4159POPC   GL254230  34.938  18.504   5.766
 4159POPC   C1A54231  34.532  17.988   6.104
 4159POPC   D2A54232  34.546  18.158   6.531
 4159POPC   C3A54233  34.500  17.948   6.926
 4159POPC   C4A54234  34.363  18.175   7.267
 4159POPC   C1B54235  34.718  18.495   6.159
 4159POPC   C2B54236  34.499  18.666   6.526
 4159POPC   C3B54237  34.623  18.496   6.927
 4159POPC   C4B54238  34.954  18.576   7.197
 4160POPC   NC354239  27.739  20.965   5.546
 4160POPC   PO454240  27.131  20.762   5.254
 4160POPC   GL154241  27.360  20.664   5.686
 4160POPC   GL254242  27.357  20.970   5.885
 4160POPC   C1A54243  27.596  20.453   6.072
 4160POPC   D2A54244  27.513  20.205   6.481
 4160POPC   C3A54245  27.559  20.416   6.873
 4160POPC   C4A54246  27.746  20.640   7.210
 4160POPC   C1B54247  27.432  20.879   6.294
 4160POPC   C2B54248  27.259  20.823   6.680
 4160POPC   C3B54249  27.270  20.760   7.114
 4160POPC   C4B54250  27.433  20.984   7.431
 4161POPC   NC354251  29.446  39.085   5.055
 4161POPC   PO454252  28.788  39.334   5.327
 4161POPC   GL154253  29.009  39.410   5.750
 4161POPC   GL254254  29.350  39.265   5.825
 4161POPC   C1A54255  28.918  39.418   6.182
 4161POPC   D2A54256  28.983  39.210   6.563
 4161POPC   C3A54257  28.970  39.365   6.952
 4161POPC   C4A54258  29.121  39.164   7.315
 4161POPC   C1B54259  29.220  38.975   6.173
 4161POPC   C2B54260  29.322  38.803   6.592
 4161POPC   C3B54261  29.470  38.964   6.997
 4161POPC   C4B54262  29.514  38.870   7.450
 4162POPC   NC354263  32.495  12.584   5.539
 4162POPC   PO454264  31.898  12.495   5.217
 4162POPC   GL154265  32.022  12.715   5.700
 4162POPC   GL254266  32.311  12.967   5.816
 4162POPC   C1A54267  32.062  12.763   6.227
 4162POPC   D2A54268  31.820  12.794   6.652
 4162POPC   C3A54269  32.026  12.657   7.032
 4162POPC   C4A54270  32.491  12.608   7.130
 4162POPC   C1B54271  32.557  12.901   6.232
 4162POPC   C2B54272  32.381  12.897   6.688
 4162POPC   C3B54273  32.302  13.089   7.123
 4162POPC   C4B54274  32.345  13.314   7.524
 4163POPC   NC354275  38.798   4.774   5.383
 4163POPC   PO454276  38.231   5.159   5.331
 4163POPC   GL154277  38.589   5.190   5.657
 4163POPC   GL254278  38.578   4.855   5.839
 4163POPC   C1A54279  38.755   5.245   6.110
 4163POPC   D2A54280  38.620   5.061   6.527
 4163POPC   C3A54281  38.445   5.274   6.880
 4163POPC   C4A54282  38.672   5.134   7.220
 4163POPC   C1B54283  38.267   4.893   6.177
 4163POPC   C2B54284  38.148   4.843   6.620
 4163POPC   C3B54285  38.304   4.790   7.027
 4163POPC   C4B54286  38.179   5.061   7.328
 4164POPC   NC354287  29.178  28.109   5.335
 4164POPC   PO454288  29.101  28.770   5.187
 4164POPC   GL154289  29.028  28.549   5.630
 4164POPC   GL254290  29.333  28.474   5.776
 4164POPC   C1A54291  28.965  28.403   6.111
 4164POPC   D2A54292  29.152  28.396   6.580
 4164POPC   C3A54293  28.931  28.462   7.033
 4164POPC   C4A54294  28.987  28.681   7.465
 4164POPC   C1B54295  29.532  28.415   6.188
 4164POPC   C2B54296  29.654  28.241   6.610
 4164POPC   C3B54297  29.388  28.190   6.994
 4164POPC   C4B54298  29.384  28.409   7.383
 4165POPC   NC354299  31.789  36.280   5.311
 4165POPC   PO454300  32.465  36.395   5.386
 4165POPC   GL154301  32.236  36.316   5.727
 4165POPC   GL254302  31.963  36.538   5.804
 4165POPC   C1A54303  32.272  36.040   6.108
 4165POPC   D2A54304  32.117  35.948   6.539
 4165POPC   C3A54305  32.273  36.052   6.942
 4165POPC   C4A54306  32.371  35.862   7.358
 4165POPC   C1B54307  31.901  36.381   6.231
 4165POPC   C2B54308  31.703  36.405   6.638
 4165POPC   C3B54309  31.804  36.419   7.089
 4165POPC   C4B54310  32.132  36.322   7.380
 4166POPC   NC354311  35.066   7.392   5.442
 4166POPC   PO454312  35.708   7.497   5.550
 4166POPC   GL154313  35.443   7.248   5.859
 4166POPC   GL254314  35.100   7.065   5.841
 4166POPC   C1A54315  35.371   7.409   6.298
 4166POPC   D2A54316  35.559   7.734   6.591
 4166POPC   C3A54317  35.517   7.669   7.047
 4166POPC   C4A54318  35.424   7.298   7.306
 4166POPC   C1B54319  34.869   7.183   6.222
 4166POPC   C2B54320  34.898   7.382   6.635
 4166POPC   C3B54321  34.972   7.394   7.092
 4166POPC   C4B54322  34.814   7.162   7.468
 4167POPC   NC354323  22.066  35.558   5.132
 4167POPC   PO454324  21.865  36.198   5.198
 4167POPC   GL154325  21.895  36.205   5.670
 4167POPC   GL254326  22.149  36.062   5.808
 4167POPC   C1A54327  21.838  36.319   6.145
 4167POPC   D2A54328  21.685  36.185   6.572
 4167POPC   C3A54329  21.952  36.295   6.914
 4167POPC   C4A54330  22.058  36.305   7.326
 4167POPC   C1B54331  21.978  35.844   6.206
 4167POPC   C2B54332  22.221  35.770   6.545
 4167POPC   C3B54333  22.040  35.789   6.901
 4167POPC   C4B54334  22.198  35.805   7.264
 4168POPC   NC354335   1.098  28.049   5.345
 4168POPC   PO454336   0.905  28.590   5.426
 4168POPC   GL154337   1.187  28.472   5.769
 4168POPC   GL254338   1.443  28.224   5.690
 4168POPC   C1A54339   1.054  28.390   6.199
 4168POPC   D2A54340   1.207  28.240   6.583
 4168POPC   C3A54341   1.205  28.486   6.949
 4168POPC   C4A54342   1.154  28.392   7.400
 4168POPC   C1B54343   1.437  28.052   6.105
 4168POPC   C2B54344   1.687  28.062   6.472
 4168POPC   C3B54345   1.570  27.966   6.865
 4168POPC   C4B54346   1.568  28.204   7.182
 4169POPC   NC354347  20.145  19.099   5.389
 4169POPC   PO454348  19.467  18.786   5.449
 4169POPC   GL154349  19.801  18.975   5.744
 4169POPC   GL254350  20.171  18.842   5.817
 4169POPC   C1A54351  19.938  19.118   6.153
 4169POPC   D2A54352  19.751  19.051   6.534
 4169POPC   C3A54353  19.940  19.004   6.908
 4169POPC   C4A54354  19.733  19.085   7.296
 4169POPC   C1B54355  20.171  18.584   6.172
 4169POPC   C2B54356  20.190  18.715   6.554
 4169POPC   C3B54357  20.379  18.698   6.942
 4169POPC   C4B54358  20.233  18.895   7.311
 4170POPC   NC354359   3.735   0.402   5.377
 4170POPC   PO454360   3.174   0.834   5.597
 4170POPC   GL154361   3.441   0.544   5.774
 4170POPC   GL254362   3.326   0.196   5.697
 4170POPC   C1A54363   3.699   0.622   6.141
 4170POPC   D2A54364   3.488   0.723   6.540
 4170POPC   C3A54365   3.703   0.552   6.872
 4170POPC   C4A54366   3.587   0.531   7.283
 4170POPC   C1B54367   3.299   0.232   6.161
 4170POPC   C2B54368   3.150   0.319   6.587
 4170POPC   C3B54369   3.278   0.203   7.018
 4170POPC   C4B54370   3.139  44.874   7.258
 4171POPC   NC354371  36.906  18.767   5.538
 4171POPC   PO454372  36.852  19.363   5.134
 4171POPC   GL154373  36.858  19.302   5.614
 4171POPC   GL254374  36.606  19.078   5.788
 4171POPC   C1A54375  36.875  19.381   6.093
 4171POPC   D2A54376  36.784  19.227   6.507
 4171POPC   C3A54377  37.033  19.348   6.861
 4171POPC   C4A54378  37.143  19.119   7.249
 4171POPC   C1B54379  36.787  18.850   6.158
 4171POPC   C2B54380  36.674  18.710   6.560
 4171POPC   C3B54381  36.772  18.895   6.940
 4171POPC   C4B54382  36.736  18.734   7.327
 4172POPC   NC354383  14.272  16.123   5.433
 4172POPC   PO454384  14.162  15.404   5.468
 4172POPC   GL154385  14.234  15.731   5.789
 4172POPC   GL254386  14.566  15.840   5.808
 4172POPC   C1A54387  14.225  16.090   6.109
 4172POPC   D2A54388  14.214  16.291   6.532
 4172POPC   C3A54389  14.412  16.129   6.926
 4172POPC   C4A54390  14.198  16.048   7.305
 4172POPC   C1B54391  14.529  15.706   6.241
 4172POPC   C2B54392  14.697  15.854   6.628
 4172POPC   C3B54393  14.891  15.801   7.020
 4172POPC   C4B54394  14.875  15.405   7.149
 4173POPC   NC354395  37.069   5.770   5.428
 4173POPC   PO454396  36.519   5.473   5.507
 4173POPC   GL154397  36.736   5.638   5.871
 4173POPC   GL254398  37.103   5.590   5.908
 4173POPC   C1A54399  36.841   5.965   6.182
 4173POPC   D2A54400  36.996   6.081   6.583
 4173POPC   C3A54401  36.798   6.077   6.983
 4173POPC   C4A54402  36.934   6.174   7.380
 4173POPC   C1B54403  36.980   5.469   6.324
 4173POPC   C2B54404  36.841   5.585   6.744
 4173POPC   C3B54405  37.095   5.532   7.154
 4173POPC   C4B54406  37.203   5.771   7.560
 4174POPC   NC354407  36.013  36.254   5.590
 4174POPC   PO454408  36.647  36.305   5.412
 4174POPC   GL154409  36.458  36.112   5.786
 4174POPC   GL254410  36.272  35.808   5.798
 4174POPC   C1A54411  36.216  36.155   6.195
 4174POPC   D2A54412  35.984  36.052   6.565
 4174POPC   C3A54413  36.092  36.327   6.859
 4174POPC   C4A54414  36.066  36.325   7.282
 4174POPC   C1B54415  36.099  35.643   6.236
 4174POPC   C2B54416  36.075  35.559   6.703
 4174POPC   C3B54417  36.079  35.841   7.039
 4174POPC   C4B54418  36.125  35.843   7.471
 4175POPC   NC354419   6.857  40.185   5.351
 4175POPC   PO454420   6.129  40.016   5.303
 4175POPC   GL154421   6.452  40.069   5.666
 4175POPC   GL254422   6.461  39.748   5.851
 4175POPC   C1A54423   6.827  40.104   6.009
 4175POPC   D2A54424   6.884  39.899   6.444
 4175POPC   C3A54425   6.995  40.040   6.887
 4175POPC   C4A54426   6.808  39.907   7.297
 4175POPC   C1B54427   6.360  40.050   6.182
 4175POPC   C2B54428   6.449  40.204   6.568
 4175POPC   C3B54429   6.479  40.047   6.953
 4175POPC   C4B54430   6.321  40.213   7.360
 4176POPC   NC354431  23.092  43.255   5.324
 4176POPC   PO454432  22.482  43.249   5.547
 4176POPC   GL154433  22.852  43.232   5.835
 4176POPC   GL254434  22.929  42.912   6.011
 4176POPC   C1A54435  22.755  43.343   6.268
 4176POPC   D2A54436  22.698  43.161   6.653
 4176POPC   C3A54437  22.875  43.301   7.032
 4176POPC   C4A54438  23.274  43.216   7.246
 4176POPC   C1B54439  23.201  43.095   6.326
 4176POPC   C2B54440  23.201  42.999   6.761
 4176POPC   C3B54441  22.998  42.812   7.135
 4176POPC   C4B54442  23.223  42.810   7.553
 4177POPC   NC354443   1.193  17.148   5.455
 4177POPC   PO454444   1.089  16.496   5.495
 4177POPC   GL154445   1.171  16.664   5.890
 4177POPC   GL254446   1.079  17.005   5.917
 4177POPC   C1A54447   0.963  16.721   6.298
 4177POPC   D2A54448   1.017  16.968   6.599
 4177POPC   C3A54449   1.205  16.843   6.950
 4177POPC   C4A54450   1.001  16.694   7.317
 4177POPC   C1B54451   1.443  16.952   6.226
 4177POPC   C2B54452   1.777  17.011   6.537
 4177POPC   C3B54453   1.686  17.120   6.989
 4177POPC   C4B54454   1.484  16.905   7.367
 4178POPC   NC354455   9.592   7.809   5.038
 4178POPC   PO454456   9.946   7.347   5.312
 4178POPC   GL154457   9.883   7.249   5.746
 4178POPC   GL254458   9.542   7.382   5.750
 4178POPC   C1A54459  10.074   7.317   6.174
 4178POPC   D2A54460   9.974   7.525   6.594
 4178POPC   C3A54461  10.085   7.264   6.962
 4178POPC   C4A54462  10.091   7.179   7.416
 4178POPC   C1B54463   9.355   7.511   6.154
 4178POPC   C2B54464   9.292   7.737   6.557
 4178POPC   C3B54465   9.555   7.681   6.906
 4178POPC   C4B54466   9.698   7.476   7.253
 4179POPC   NC354467  22.413  19.392   5.469
 4179POPC   PO454468  21.956  18.889   5.370
 4179POPC   GL154469  21.919  19.092   5.777
 4179POPC   GL254470  22.235  18.888   5.871
 4179POPC   C1A54471  22.038  19.235   6.211
 4179POPC   D2A54472  22.331  19.100   6.556
 4179POPC   C3A54473  22.363  19.339   6.948
 4179POPC   C4A54474  22.041  19.482   7.224
 4179POPC   C1B54475  22.126  18.693   6.276
 4179POPC   C2B54476  22.041  18.678   6.721
 4179POPC   C3B54477  21.958  19.010   7.017
 4179POPC   C4B54478  22.070  19.045   7.467
 4180POPC   NC354479  18.180  20.668   5.495
 4180POPC   PO454480  18.750  20.320   5.462
 4180POPC   GL154481  18.539  20.505   5.836
 4180POPC   GL254482  18.192  20.422   5.943
 4180POPC   C1A54483  18.502  20.760   6.232
 4180POPC   D2A54484  18.629  20.912   6.652
 4180POPC   C3A54485  18.418  20.748   7.041
 4180POPC   C4A54486  18.068  20.514   7.205
 4180POPC   C1B54487  18.432  20.245   6.277
 4180POPC   C2B54488  18.570  20.387   6.679
 4180POPC   C3B54489  18.544  20.246   7.103
 4180POPC   C4B54490  18.339  20.197   7.487
 4181POPC   NC354491  44.019  23.498   5.492
 4181POPC   PO454492  43.761  24.099   5.272
 4181POPC   GL154493  43.925  23.975   5.708
 4181POPC   GL254494  43.714  23.677   5.892
 4181POPC   C1A54495  44.017  23.960   6.179
 4181POPC   D2A54496  43.794  23.806   6.571
 4181POPC   C3A54497  44.053  23.821   6.942
 4181POPC   C4A54498  44.122  23.935   7.348
 4181POPC   C1B54499  43.929  23.413   6.274
 4181POPC   C2B54500  43.828  23.339   6.758
 4181POPC   C3B54501  43.726  23.518   7.214
 4181POPC   C4B54502  43.598  23.389   7.662
 4182POPC   NC354503  40.537  37.142   4.877
 4182POPC   PO454504  40.986  36.826   5.307
 4182POPC   GL154505  40.655  36.681   5.626
 4182POPC   GL254506  40.947  36.609   5.783
 4182POPC   C1A54507  40.522  36.711   6.099
 4182POPC   D2A54508  40.657  37.054   6.432
 4182POPC   C3A54509  40.590  37.091   6.887
 4182POPC   C4A54510  40.421  36.802   7.216
 4182POPC   C1B54511  41.010  36.859   6.102
 4182POPC   C2B54512  41.064  36.709   6.493
 4182POPC   C3B54513  40.870  36.689   6.878
 4182POPC   C4B54514  40.919  36.924   7.264
 4183POPC   NC354515   1.752   5.814   5.497
 4183POPC   PO454516   2.175   6.307   5.462
 4183POPC   GL154517   2.114   5.984   5.829
 4183POPC   GL254518   2.030   5.594   5.867
 4183POPC   C1A54519   2.265   5.829   6.254
 4183POPC   D2A54520   2.116   5.606   6.611
 4183POPC   C3A54521   2.238   5.788   6.994
 4183POPC   C4A54522   2.137   5.713   7.440
 4183POPC   C1B54523   1.749   5.712   6.249
 4183POPC   C2B54524   1.610   5.672   6.715
 4183POPC   C3B54525   1.746   5.909   7.105
 4183POPC   C4B54526   1.686   5.890   7.604
 4184POPC   NC354527  15.377  43.800   5.458
 4184POPC   PO454528  15.144  44.391   5.482
 4184POPC   GL154529  15.040  44.054   5.838
 4184POPC   GL254530  14.991  43.654   5.805
 4184POPC   C1A54531  15.214  43.927   6.259
 4184POPC   D2A54532  15.439  44.124   6.635
 4184POPC   C3A54533  15.531  43.979   7.078
 4184POPC   C4A54534  15.284  44.134   7.451
 4184POPC   C1B54535  14.816  43.594   6.233
 4184POPC   C2B54536  14.888  43.789   6.639
 4184POPC   C3B54537  14.733  43.632   7.012
 4184POPC   C4B54538  14.602  43.801   7.394
 4185POPC   NC354539  32.222  29.397   5.444
 4185POPC   PO454540  32.670  29.000   5.489
 4185POPC   GL154541  32.411  29.130   5.860
 4185POPC   GL254542  32.424  29.501   5.889
 4185POPC   C1A54543  32.385  28.946   6.293
 4185POPC   D2A54544  32.259  28.938   6.751
 4185POPC   C3A54545  32.472  28.903   7.158
 4185POPC   C4A54546  32.309  28.592   7.489
 4185POPC   C1B54547  32.569  29.419   6.277
 4185POPC   C2B54548  32.670  29.223   6.624
 4185POPC   C3B54549  32.443  29.409   6.909
 4185POPC   C4B54550  32.143  29.410   7.206
 4186POPC   NC354551   7.511  26.233   5.262
 4186POPC   PO454552   7.234  25.730   5.324
 4186POPC   GL154553   7.274  25.829   5.766
 4186POPC   GL254554   7.590  25.974   5.726
 4186POPC   C1A54555   7.405  25.804   6.229
 4186POPC   D2A54556   7.640  25.816   6.628
 4186POPC   C3A54557   7.398  26.043   6.929
 4186POPC   C4A54558   7.123  25.934   7.245
 4186POPC   C1B54559   7.541  26.261   6.055
 4186POPC   C2B54560   7.546  26.315   6.503
 4186POPC   C3B54561   7.756  26.400   6.927
 4186POPC   C4B54562   7.593  26.340   7.331
 4187POPC   NC354563   2.387   2.956   5.395
 4187POPC   PO454564   3.069   2.988   5.273
 4187POPC   GL154565   2.867   2.879   5.701
 4187POPC   GL254566   3.105   2.590   5.751
 4187POPC   C1A54567   2.655   2.834   6.154
 4187POPC   D2A54568   2.435   2.673   6.587
 4187POPC   C3A54569   2.497   2.791   7.063
 4187POPC   C4A54570   2.588   2.745   7.545
 4187POPC   C1B54571   2.906   2.378   6.080
 4187POPC   C2B54572   2.932   2.526   6.481
 4187POPC   C3B54573   2.981   2.591   6.907
 4187POPC   C4B54574   3.046   2.647   7.338
 4188POPC   NC354575  12.287  10.967   5.012
 4188POPC   PO454576  12.145  10.560   5.530
 4188POPC   GL154577  11.963  10.670   5.873
 4188POPC   GL254578  11.956  11.013   5.810
 4188POPC   C1A54579  12.085  10.464   6.247
 4188POPC   D2A54580  12.253  10.244   6.603
 4188POPC   C3A54581  12.052  10.466   6.932
 4188POPC   C4A54582  11.753  10.437   7.242
 4188POPC   C1B54583  12.237  10.977   6.187
 4188POPC   C2B54584  12.251  10.808   6.609
 4188POPC   C3B54585  12.183  10.957   7.037
 4188POPC   C4B54586  12.195  10.663   7.385
 4189POPC   NC354587   9.455  14.616   5.472
 4189POPC   PO454588  10.139  14.621   5.326
 4189POPC   GL154589   9.899  14.489   5.719
 4189POPC   GL254590   9.650  14.206   5.744
 4189POPC   C1A54591   9.794  14.506   6.183
 4189POPC   D2A54592   9.949  14.527   6.641
 4189POPC   C3A54593   9.963  14.484   7.107
 4189POPC   C4A54594   9.783  14.338   7.529
 4189POPC   C1B54595   9.404  14.169   6.120
 4189POPC   C2B54596   9.404  14.401   6.504
 4189POPC   C3B54597   9.492  14.375   6.917
 4189POPC   C4B54598   9.334  14.206   7.295
 4190POPC   NC354599  14.636  15.462   5.465
 4190POPC   PO454600  14.659  14.777   5.679
 4190POPC   GL154601  14.424  14.940   5.969
 4190POPC   GL254602  14.445  15.272   5.893
 4190POPC   C1A54603  14.120  14.857   6.269
 4190POPC   D2A54604  14.020  15.070   6.627
 4190POPC   C3A54605  14.375  15.124   6.884
 4190POPC   C4A54606  14.441  15.200   7.301
 4190POPC   C1B54607  14.158  15.372   6.199
 4190POPC   C2B54608  14.180  15.602   6.595
 4190POPC   C3B54609  14.324  15.625   7.004
 4190POPC   C4B54610  14.081  15.553   7.371
 4191POPC   NC354611   1.890  41.014   5.556
 4191POPC   PO454612   2.139  40.444   5.488
 4191POPC   GL154613   2.148  40.676   5.851
 4191POPC   GL254614   1.794  40.665   5.935
 4191POPC   C1A54615   2.111  40.961   6.202
 4191POPC   D2A54616   2.038  40.685   6.496
 4191POPC   C3A54617   2.061  40.828   6.856
 4191POPC   C4A54618   2.173  40.743   7.241
 4191POPC   C1B54619   1.534  40.777   6.299
 4191POPC   C2B54620   1.538  40.822   6.748
 4191POPC   C3B54621   1.664  40.751   7.170
 4191POPC   C4B54622   1.818  40.571   7.561
 4192POPC   NC354623  44.075  20.821   5.670
 4192POPC   PO454624  43.568  21.331   5.507
 4192POPC   GL154625  43.478  21.464   5.898
 4192POPC   GL254626  43.441  21.829   5.883
 4192POPC   C1A54627  43.684  21.283   6.277
 4192POPC   D2A54628  43.967  21.402   6.645
 4192POPC   C3A54629  43.823  21.244   7.055
 4192POPC   C4A54630  44.091  21.086   7.373
 4192POPC   C1B54631  43.795  21.786   6.177
 4192POPC   C2B54632  43.903  21.909   6.603
 4192POPC   C3B54633  43.826  21.784   7.029
 4192POPC   C4B54634  43.757  21.607   7.432
 4193POPC   NC354635   8.210  42.598   5.728
 4193POPC   PO454636   8.574  42.114   5.379
 4193POPC   GL154637   8.305  42.093   5.743
 4193POPC   GL254638   7.932  42.110   5.737
 4193POPC   C1A54639   8.207  42.110   6.168
 4193POPC   D2A54640   8.059  42.406   6.484
 4193POPC   C3A54641   8.155  42.275   6.902
 4193POPC   C4A54642   8.156  42.417   7.331
 4193POPC   C1B54643   7.710  42.210   6.157
 4193POPC   C2B54644   7.700  42.077   6.620
 4193POPC   C3B54645   7.805  41.941   7.055
 4193POPC   C4B54646   7.850  42.069   7.512
 4194POPC   NC354647  12.863  22.786   5.206
 4194POPC   PO454648  12.776  23.390   5.206
 4194POPC   GL154649  12.706  23.072   5.608
 4194POPC   GL254650  13.022  22.962   5.722
 4194POPC   C1A54651  12.697  22.841   6.070
 4194POPC   D2A54652  12.895  22.758   6.508
 4194POPC   C3A54653  12.721  22.891   6.940
 4194POPC   C4A54654  12.430  22.720   7.288
 4194POPC   C1B54655  13.123  23.115   6.185
 4194POPC   C2B54656  13.243  23.324   6.582
 4194POPC   C3B54657  13.250  23.120   6.968
 4194POPC   C4B54658  13.028  23.039   7.324
 4195POPC   NC354659  13.856  37.595   5.298
 4195POPC   PO454660  13.407  37.966   5.104
 4195POPC   GL154661  13.478  37.748   5.584
 4195POPC   GL254662  13.768  37.951   5.786
 4195POPC   C1A54663  13.659  37.501   5.971
 4195POPC   D2A54664  13.476  37.487   6.420
 4195POPC   C3A54665  13.666  37.723   6.789
 4195POPC   C4A54666  13.813  37.544   7.176
 4195POPC   C1B54667  13.444  37.924   6.159
 4195POPC   C2B54668  13.357  38.068   6.572
 4195POPC   C3B54669  13.258  38.003   7.014
 4195POPC   C4B54670  13.436  37.829   7.380
 4196POPC   NC354671  10.897  19.193   5.467
 4196POPC   PO454672  10.257  18.986   5.494
 4196POPC   GL154673  10.458  19.154   5.854
 4196POPC   GL254674  10.815  19.062   5.944
 4196POPC   C1A54675  10.492  19.183   6.303
 4196POPC   D2A54676  10.824  19.110   6.565
 4196POPC   C3A54677  10.658  19.264   6.944
 4196POPC   C4A54678  10.228  19.247   7.089
 4196POPC   C1B54679  10.971  18.720   6.203
 4196POPC   C2B54680  11.143  18.713   6.614
 4196POPC   C3B54681  10.944  18.643   6.984
 4196POPC   C4B54682  10.559  18.789   7.132
 4197POPC   NC354683   0.105  14.981   5.445
 4197POPC   PO454684  44.615  15.396   5.435
 4197POPC   GL154685  44.763  15.206   5.796
 4197POPC   GL254686   0.110  15.348   5.821
 4197POPC   C1A54687  44.635  15.270   6.218
 4197POPC   D2A54688  44.614  15.449   6.608
 4197POPC   C3A54689  44.749  15.256   6.984
 4197POPC   C4A54690  44.563  15.236   7.407
 4197POPC   C1B54691   0.090  15.014   6.153
 4197POPC   C2B54692  44.866  14.961   6.564
 4197POPC   C3B54693  44.872  14.764   6.968
 4197POPC   C4B54694  44.943  14.919   7.361
 4198POPC   NC354695  14.899  32.368   5.345
 4198POPC   PO454696  14.237  32.215   5.446
 4198POPC   GL154697  14.389  32.160   5.861
 4198POPC   GL254698  14.742  32.128   5.766
 4198POPC   C1A54699  14.360  32.174   6.345
 4198POPC   D2A54700  14.314  32.462   6.720
 4198POPC   C3A54701  14.313  32.284   7.176
 4198POPC   C4A54702  14.200  32.164   7.630
 4198POPC   C1B54703  14.809  32.332   6.128
 4198POPC   C2B54704  14.783  32.421   6.532
 4198POPC   C3B54705  14.724  32.183   6.884
 4198POPC   C4B54706  14.841  32.154   7.301
 4199POPC   NC354707  33.629  21.072   5.239
 4199POPC   PO454708  33.647  20.400   5.377
 4199POPC   GL154709  33.887  20.487   5.786
 4199POPC   GL254710  33.987  20.849   5.832
 4199POPC   C1A54711  33.800  20.555   6.234
 4199POPC   D2A54712  33.495  20.634   6.556
 4199POPC   C3A54713  33.751  20.590   6.911
 4199POPC   C4A54714  33.771  20.389   7.274
 4199POPC   C1B54715  33.586  20.984   6.064
 4199POPC   C2B54716  33.545  21.156   6.504
 4199POPC   C3B54717  33.683  21.073   6.914
 4199POPC   C4B54718  33.796  20.931   7.341
 4200POPC   NC354719  36.236   1.793   5.373
 4200POPC   PO454720  35.829   2.264   5.274
 4200POPC   GL154721  36.002   2.099   5.729
 4200POPC   GL254722  36.101   1.738   5.864
 4200POPC   C1A54723  36.060   2.119   6.204
 4200POPC   D2A54724  36.037   1.948   6.626
 4200POPC   C3A54725  36.124   2.259   6.930
 4200POPC   C4A54726  36.226   2.362   7.359
 4200POPC   C1B54727  35.818   1.632   6.243
 4200POPC   C2B54728  35.874   1.415   6.653
 4200POPC   C3B54729  36.048   1.599   7.027
 4200POPC   C4B54730  35.918   1.943   7.313
 4201POPC   NC354731  25.793  25.716   5.439
 4201POPC   PO454732  26.206  26.288   5.596
 4201POPC   GL154733  25.914  26.045   5.866
 4201POPC   GL254734  26.046  25.727   5.878
 4201POPC   C1A54735  25.954  25.929   6.333
 4201POPC   D2A54736  26.287  26.134   6.597
 4201POPC   C3A54737  26.089  26.394   6.884
 4201POPC   C4A54738  25.834  26.090   7.050
 4201POPC   C1B54739  26.263  25.527   6.188
 4201POPC   C2B54740  26.249  25.567   6.637
 4201POPC   C3B54741  26.267  25.732   7.070
 4201POPC   C4B54742  26.300  25.582   7.522
 4202POPC   NC354743  13.878  42.881   5.341
 4202POPC   PO454744  13.253  43.190   5.219
 4202POPC   GL154745  13.491  42.986   5.665
 4202POPC   GL254746  13.797  42.776   5.813
 4202POPC   C1A54747  13.479  42.854   6.177
 4202POPC   D2A54748  13.681  42.954   6.582
 4202POPC   C3A54749  13.487  43.073   6.951
 4202POPC   C4A54750  13.643  43.406   7.200
 4202POPC   C1B54751  14.027  42.902   6.194
 4202POPC   C2B54752  14.198  42.834   6.648
 4202POPC   C3B54753  13.948  42.820   7.072
 4202POPC   C4B54754  13.968  42.666   7.533
 4203POPC   NC354755  31.042  18.951   5.497
 4203POPC   PO454756  30.416  19.080   5.361
 4203POPC   GL154757  30.590  19.086   5.795
 4203POPC   GL254758  30.923  19.237   5.918
 4203POPC   C1A54759  30.457  19.249   6.205
 4203POPC   D2A54760  30.625  19.216   6.622
 4203POPC   C3A54761  30.391  18.995   6.949
 4203POPC   C4A54762  30.302  19.276   7.224
 4203POPC   C1B54763  30.821  18.855   6.207
 4203POPC   C2B54764  30.747  18.710   6.653
 4203POPC   C3B54765  30.888  18.960   7.026
 4203POPC   C4B54766  30.949  19.396   7.219
 4204POPC   NC354767   5.355   0.031   5.403
 4204POPC   PO454768   5.109   0.717   5.421
 4204POPC   GL154769   5.117   0.446   5.725
 4204POPC   GL254770   4.822   0.203   5.646
 4204POPC   C1A54771   5.320   0.587   6.118
 4204POPC   D2A54772   5.463   0.609   6.564
 4204POPC   C3A54773   5.194   0.806   6.861
 4204POPC   C4A54774   5.124   0.648   7.285
 4204POPC   C1B54775   4.881   0.185   6.085
 4204POPC   C2B54776   5.143   0.222   6.450
 4204POPC   C3B54777   5.078   0.320   6.875
 4204POPC   C4B54778   4.900   0.184   7.268
 4205POPC   NC354779  30.735   1.862   5.384
 4205POPC   PO454780  30.591   2.481   5.358
 4205POPC   GL154781  30.556   2.203   5.741
 4205POPC   GL254782  30.938   2.105   5.792
 4205POPC   C1A54783  30.586   1.869   6.082
 4205POPC   D2A54784  30.768   1.707   6.489
 4205POPC   C3A54785  30.677   1.944   6.875
 4205POPC   C4A54786  30.386   1.988   7.225
 4205POPC   C1B54787  31.094   2.065   6.231
 4205POPC   C2B54788  31.033   2.308   6.622
 4205POPC   C3B54789  31.021   2.294   7.080
 4205POPC   C4B54790  31.029   1.874   7.258
 4206POPC   NC354791  27.618  16.142   5.474
 4206POPC   PO454792  27.397  15.521   5.239
 4206POPC   GL154793  27.499  15.570   5.753
 4206POPC   GL254794  27.442  15.891   5.907
 4206POPC   C1A54795  27.599  15.576   6.266
 4206POPC   D2A54796  27.665  15.818   6.689
 4206POPC   C3A54797  27.580  15.652   7.074
 4206POPC   C4A54798  27.570  15.737   7.482
 4206POPC   C1B54799  27.392  16.079   6.310
 4206POPC   C2B54800  27.328  16.223   6.723
 4206POPC   C3B54801  27.250  16.044   7.105
 4206POPC   C4B54802  27.361  16.179   7.491
 4207POPC   NC354803  20.982  30.228   5.501
 4207POPC   PO454804  21.362  29.953   5.133
 4207POPC   GL154805  21.264  29.872   5.704
 4207POPC   GL254806  21.176  30.183   5.967
 4207POPC   C1A54807  21.394  29.782   6.142
 4207POPC   D2A54808  21.634  29.848   6.469
 4207POPC   C3A54809  21.499  29.747   6.827
 4207POPC   C4A54810  21.494  29.796   7.251
 4207POPC   C1B54811  21.453  30.318   6.324
 4207POPC   C2B54812  21.459  30.258   6.792
 4207POPC   C3B54813  21.279  30.259   7.218
 4207POPC   C4B54814  20.945  30.320   7.509
 4208POPC   NC354815   4.669  28.870   5.255
 4208POPC   PO454816   4.187  29.429   5.364
 4208POPC   GL154817   4.342  29.248   5.774
 4208POPC   GL254818   4.022  29.275   5.914
 4208POPC   C1A54819   4.388  29.056   6.235
 4208POPC   D2A54820   4.171  29.012   6.642
 4208POPC   C3A54821   4.342  29.025   7.054
 4208POPC   C4A54822   4.140  29.162   7.437
 4208POPC   C1B54823   4.057  29.471   6.325
 4208POPC   C2B54824   4.024  29.586   6.745
 4208POPC   C3B54825   3.874  29.397   7.078
 4208POPC   C4B54826   3.781  29.503   7.488
 4209POPC   NC354827   0.391  37.240   5.463
 4209POPC   PO454828   0.778  36.655   5.460
 4209POPC   GL154829   0.505  36.807   5.878
 4209POPC   GL254830   0.299  37.131   5.945
 4209POPC   C1A54831   0.197  36.681   6.247
 4209POPC   D2A54832   0.156  36.425   6.682
 4209POPC   C3A54833   0.227  36.616   7.083
 4209POPC   C4A54834   0.654  36.631   7.234
 4209POPC   C1B54835   0.030  37.177   6.311
 4209POPC   C2B54836   0.155  36.975   6.686
 4209POPC   C3B54837   0.504  37.019   6.955
 4209POPC   C4B54838   0.315  37.229   7.261
 4210POPC   NC354839  31.552  32.215   5.345
 4210POPC   PO454840  30.869  32.311   5.427
 4210POPC   GL154841  31.215  32.135   5.766
 4210POPC   GL254842  31.583  32.276   5.841
 4210POPC   C1A54843  31.305  32.159   6.237
 4210POPC   D2A54844  31.311  32.325   6.674
 4210POPC   C3A54845  31.134  32.207   7.089
 4210POPC   C4A54846  31.266  32.413   7.503
 4210POPC   C1B54847  31.783  32.399   6.256
 4210POPC   C2B54848  31.815  32.224   6.694
 4210POPC   C3B54849  31.635  32.358   7.109
 4210POPC   C4B54850  31.759  32.323   7.549
 4211POPC   NC354851   2.478  40.148   5.395
 4211POPC   PO454852   3.151  39.860   5.259
 4211POPC   GL154853   2.907  39.935   5.660
 4211POPC   GL254854   2.880  40.258   5.740
 4211POPC   C1A54855   2.940  39.974   6.152
 4211POPC   D2A54856   2.844  40.240   6.521
 4211POPC   C3A54857   2.821  40.058   6.973
 4211POPC   C4A54858   2.884  39.946   7.438
 4211POPC   C1B54859   2.545  40.345   6.084
 4211POPC   C2B54860   2.322  40.256   6.503
 4211POPC   C3B54861   2.404  40.410   6.921
 4211POPC   C4B54862   2.514  40.295   7.340
 4212POPC   NC354863   7.121  20.854   5.564
 4212POPC   PO454864   7.360  20.364   5.346
 4212POPC   GL154865   7.491  20.555   5.738
 4212POPC   GL254866   7.748  20.824   5.643
 4212POPC   C1A54867   7.300  20.590   6.198
 4212POPC   D2A54868   7.201  20.492   6.651
 4212POPC   C3A54869   7.370  20.637   7.066
 4212POPC   C4A54870   7.414  20.443   7.528
 4212POPC   C1B54871   7.726  20.826   6.097
 4212POPC   C2B54872   7.649  20.788   6.553
 4212POPC   C3B54873   7.841  20.879   6.954
 4212POPC   C4B54874   7.734  20.792   7.377
 4213POPC   NC354875   4.483  21.278   5.452
 4213POPC   PO454876   3.943  21.612   5.137
 4213POPC   GL154877   3.958  21.463   5.656
 4213POPC   GL254878   4.282  21.539   5.858
 4213POPC   C1A54879   3.911  21.355   6.148
 4213POPC   D2A54880   3.967  21.247   6.627
 4213POPC   C3A54881   4.322  21.331   6.965
 4213POPC   C4A54882   4.417  21.501   7.441
 4213POPC   C1B54883   4.406  21.298   6.276
 4213POPC   C2B54884   4.454  20.983   6.629
 4213POPC   C3B54885   4.569  20.904   7.082
 4213POPC   C4B54886   4.669  21.076   7.511
 4214POPC   NC354887  35.494  11.256   5.440
 4214POPC   PO454888  34.858  11.379   5.426
 4214POPC   GL154889  35.130  11.446   5.807
 4214POPC   GL254890  35.515  11.536   5.861
 4214POPC   C1A54891  35.201  11.537   6.250
 4214POPC   D2A54892  35.396  11.348   6.593
 4214POPC   C3A54893  35.382  11.559   6.943
 4214POPC   C4A54894  35.041  11.525   7.219
 4214POPC   C1B54895  35.591  11.164   6.162
 4214POPC   C2B54896  35.825  11.100   6.585
 4214POPC   C3B54897  35.609  11.111   7.010
 4214POPC   C4B54898  35.499  11.354   7.401
 4215POPC   NC354899  24.727   0.302   5.313
 4215POPC   PO454900  24.003   0.247   5.388
 4215POPC   GL154901  24.359   0.360   5.671
 4215POPC   GL254902  24.310   0.711   5.683
 4215POPC   C1A54903  24.597   0.433   6.074
 4215POPC   D2A54904  24.540   0.232   6.477
 4215POPC   C3A54905  24.517   0.380   6.910
 4215POPC   C4A54906  24.745   0.474   7.297
 4215POPC   C1B54907  24.229   0.805   6.114
 4215POPC   C2B54908  24.180   0.620   6.517
 4215POPC   C3B54909  23.999   0.633   6.908
 4215POPC   C4B54910  24.212   0.608   7.294
 4216POPC   NC354911  38.923  23.236   5.620
 4216POPC   PO454912  39.216  22.720   5.343
 4216POPC   GL154913  39.281  22.866   5.761
 4216POPC   GL254914  39.569  22.652   5.838
 4216POPC   C1A54915  39.068  22.876   6.177
 4216POPC   D2A54916  38.922  23.128   6.546
 4216POPC   C3A54917  39.029  22.928   6.959
 4216POPC   C4A54918  39.161  23.006   7.377
 4216POPC   C1B54919  39.584  22.974   6.170
 4216POPC   C2B54920  39.414  22.924   6.590
 4216POPC   C3B54921  39.586  22.863   7.002
 4216POPC   C4B54922  39.888  23.177   7.195
 4217POPC   NC354923  22.580  27.356   5.627
 4217POPC   PO454924  22.453  27.908   5.188
 4217POPC   GL154925  22.305  27.805   5.681
 4217POPC   GL254926  21.945  27.685   5.736
 4217POPC   C1A54927  22.316  27.657   6.154
 4217POPC   D2A54928  22.464  27.496   6.578
 4217POPC   C3A54929  22.336  27.708   6.981
 4217POPC   C4A54930  22.351  27.458   7.387
 4217POPC   C1B54931  21.814  27.553   6.169
 4217POPC   C2B54932  21.954  27.591   6.609
 4217POPC   C3B54933  22.014  27.333   6.999
 4217POPC   C4B54934  21.850  27.474   7.396
 4218POPC   NC354935  42.899   6.882   5.292
 4218POPC   PO454936  43.522   6.779   5.527
 4218POPC   GL154937  43.126   6.635   5.720
 4218POPC   GL254938  43.053   6.924   5.940
 4218POPC   C1A54939  43.042   6.471   6.155
 4218POPC   D2A54940  43.052   6.577   6.612
 4218POPC   C3A54941  43.120   6.878   6.974
 4218POPC   C4A54942  43.019   6.767   7.434
 4218POPC   C1B54943  43.411   6.832   6.306
 4218POPC   C2B54944  43.543   6.643   6.761
 4218POPC   C3B54945  43.386   6.510   7.208
 4218POPC   C4B54946  43.461   6.425   7.683
 4219POPC   NC354947  40.621   7.608   5.531
 4219POPC   PO454948  41.131   7.072   5.420
 4219POPC   GL154949  40.980   7.272   5.777
 4219POPC   GL254950  40.666   7.112   5.851
 4219POPC   C1A54951  41.080   7.407   6.197
 4219POPC   D2A54952  41.056   7.234   6.627
 4219POPC   C3A54953  40.983   7.603   6.913
 4219POPC   C4A54954  40.635   7.749   7.203
 4219POPC   C1B54955  40.645   7.192   6.271
 4219POPC   C2B54956  40.577   7.373   6.658
 4219POPC   C3B54957  40.458   7.246   7.045
 4219POPC   C4B54958  40.288   7.373   7.412
 4220POPC   NC354959  12.049  16.753   5.359
 4220POPC   PO454960  11.659  17.177   5.748
 4220POPC   GL154961  11.978  16.847   5.898
 4220POPC   GL254962  12.167  16.528   5.869
 4220POPC   C1A54963  12.071  16.717   6.331
 4220POPC   D2A54964  11.901  16.841   6.695
 4220POPC   C3A54965  12.164  16.894   7.030
 4220POPC   C4A54966  11.823  16.965   7.283
 4220POPC   C1B54967  12.493  16.453   6.236
 4220POPC   C2B54968  12.408  16.494   6.716
 4220POPC   C3B54969  12.391  16.441   7.197
 4220POPC   C4B54970  12.402  16.203   7.609
 4221POPC   NC354971  15.412  15.807   5.467
 4221POPC   PO454972  14.808  16.167   5.494
 4221POPC   GL154973  15.082  15.954   5.819
 4221POPC   GL254974  14.992  15.786   6.105
 4221POPC   C1A54975  15.399  16.060   6.145
 4221POPC   D2A54976  15.183  16.005   6.542
 4221POPC   C3A54977  15.409  16.077   6.917
 4221POPC   C4A54978  15.284  16.012   7.335
 4221POPC   C1B54979  14.780  16.159   6.231
 4221POPC   C2B54980  14.797  16.372   6.627
 4221POPC   C3B54981  14.943  16.305   7.046
 4221POPC   C4B54982  14.834  16.164   7.490
 4222POPC   NC354983  28.413   8.498   5.388
 4222POPC   PO454984  28.190   9.159   5.393
 4222POPC   GL154985  28.434   8.975   5.730
 4222POPC   GL254986  28.182   9.025   5.974
 4222POPC   C1A54987  28.732   8.919   6.083
 4222POPC   D2A54988  28.844   9.018   6.505
 4222POPC   C3A54989  28.644   8.754   6.805
 4222POPC   C4A54990  28.605   8.914   7.237
 4222POPC   C1B54991  28.329   9.086   6.397
 4222POPC   C2B54992  28.392   9.193   6.825
 4222POPC   C3B54993  28.175   9.170   7.203
 4222POPC   C4B54994  28.061   9.040   7.604
 4223POPC   NC354995  35.964  38.937   5.292
 4223POPC   PO454996  36.374  38.449   5.618
 4223POPC   GL154997  36.061  38.558   5.961
 4223POPC   GL254998  35.765  38.343   6.011
 4223POPC   C1A54999  35.828  38.731   6.297
 4223POPC   D2A55000  35.825  38.605   6.672
 4223POPC   C3A55001  36.160  38.746   6.870
 4223POPC   C4A55002  36.456  38.702   7.192
 4223POPC   C1B55003  35.984  38.212   6.359
 4223POPC   C2B55004  35.917  38.112   6.759
 4223POPC   C3B55005  35.873  38.343   7.136
 4223POPC   C4B55006  35.924  38.185   7.557
 4224POPC   NC355007  21.295  15.094   5.559
 4224POPC   PO455008  21.502  15.703   5.474
 4224POPC   GL155009  21.481  15.454   5.857
 4224POPC   GL255010  21.119  15.360   5.944
 4224POPC   C1A55011  21.528  15.229   6.247
 4224POPC   D2A55012  21.739  15.434   6.577
 4224POPC   C3A55013  21.544  15.435   6.940
 4224POPC   C4A55014  21.425  15.169   7.235
 4224POPC   C1B55015  21.088  14.953   6.212
 4224POPC   C2B55016  21.027  14.750   6.648
 4224POPC   C3B55017  21.019  14.886   7.111
 4224POPC   C4B55018  21.001  14.837   7.623
 4225POPC   NC355019   5.007  37.433   5.502
 4225POPC   PO455020   4.868  38.023   5.291
 4225POPC   GL155021   4.918  37.855   5.765
 4225POPC   GL255022   5.264  37.807   5.869
 4225POPC   C1A55023   4.915  37.681   6.227
 4225POPC   D2A55024   4.936  37.855   6.684
 4225POPC   C3A55025   4.981  37.559   7.044
 4225POPC   C4A55026   5.029  37.484   7.491
 4225POPC   C1B55027   5.437  37.519   6.178
 4225POPC   C2B55028   5.635  37.578   6.565
 4225POPC   C3B55029   5.696  37.421   6.972
 4225POPC   C4B55030   5.460  37.593   7.278
 4226POPC   NC355031  44.031  18.913   5.430
 4226POPC   PO455032  43.783  19.508   5.354
 4226POPC   GL155033  43.691  19.284   5.777
 4226POPC   GL255034  43.769  18.928   5.849
 4226POPC   C1A55035  43.885  19.255   6.225
 4226POPC   D2A55036  44.115  19.341   6.622
 4226POPC   C3A55037  44.077  19.221   7.087
 4226POPC   C4A55038  44.089  19.181   7.587
 4226POPC   C1B55039  43.536  18.873   6.194
 4226POPC   C2B55040  43.714  18.656   6.533
 4226POPC   C3B55041  43.843  18.767   6.922
 4226POPC   C4B55042  43.616  19.015   7.198
 4227POPC   NC355043   2.154  20.263   5.357
 4227POPC   PO455044   1.741  20.769   5.234
 4227POPC   GL155045   1.955  20.744   5.639
 4227POPC   GL255046   2.011  20.426   5.810
 4227POPC   C1A55047   2.045  20.868   6.081
 4227POPC   D2A55048   2.287  20.833   6.506
 4227POPC   C3A55049   2.021  20.834   6.895
 4227POPC   C4A55050   1.764  20.576   7.177
 4227POPC   C1B55051   2.240  20.406   6.194
 4227POPC   C2B55052   2.367  20.329   6.614
 4227POPC   C3B55053   2.424  20.547   6.982
 4227POPC   C4B55054   2.247  20.502   7.388
 4228POPC   NC355055   2.232  38.042   5.380
 4228POPC   PO455056   1.729  37.676   5.251
 4228POPC   GL155057   1.893  37.692   5.688
 4228POPC   GL255058   1.569  37.691   5.814
 4228POPC   C1A55059   2.092  37.562   6.101
 4228POPC   D2A55060   2.144  37.750   6.531
 4228POPC   C3A55061   2.151  37.583   6.954
 4228POPC   C4A55062   2.017  37.767   7.374
 4228POPC   C1B55063   1.688  37.899   6.167
 4228POPC   C2B55064   1.612  37.783   6.556
 4228POPC   C3B55065   1.668  37.766   6.966
 4228POPC   C4B55066   1.739  38.144   7.130
 4229POPC   NC355067   1.499  29.772   5.423
 4229POPC   PO455068   0.984  30.143   5.305
 4229POPC   GL155069   1.189  30.040   5.730
 4229POPC   GL255070   1.170  29.674   5.785
 4229POPC   C1A55071   1.105  29.930   6.200
 4229POPC   D2A55072   1.354  30.042   6.542
 4229POPC   C3A55073   1.231  30.099   6.986
 4229POPC   C4A55074   0.951  29.820   7.216
 4229POPC   C1B55075   1.543  29.699   6.083
 4229POPC   C2B55076   1.726  29.643   6.506
 4229POPC   C3B55077   1.535  29.676   6.912
 4229POPC   C4B55078   1.682  29.737   7.329
 4230POPC   NC355079  17.892   8.694   5.332
 4230POPC   PO455080  17.295   8.978   5.495
 4230POPC   GL155081  17.672   8.854   5.801
 4230POPC   GL255082  17.724   8.490   5.790
 4230POPC   C1A55083  17.784   8.869   6.286
 4230POPC   D2A55084  17.653   9.083   6.708
 4230POPC   C3A55085  17.818   8.966   7.118
 4230POPC   C4A55086  17.725   9.113   7.531
 4230POPC   C1B55087  17.440   8.504   6.157
 4230POPC   C2B55088  17.360   8.669   6.597
 4230POPC   C3B55089  17.334   8.820   7.045
 4230POPC   C4B55090  17.169   8.760   7.465
 4231POPC   NC355091  28.244  29.728   4.972
 4231POPC   PO455092  28.023  29.839   5.625
 4231POPC   GL155093  28.200  30.114   5.888
 4231POPC   GL255094  28.539  30.063   5.818
 4231POPC   C1A55095  28.181  30.009   6.320
 4231POPC   D2A55096  28.014  29.939   6.729
 4231POPC   C3A55097  28.331  29.954   7.030
 4231POPC   C4A55098  28.530  29.699   7.310
 4231POPC   C1B55099  28.653  30.241   6.209
 4231POPC   C2B55100  28.540  30.204   6.623
 4231POPC   C3B55101  28.639  30.377   6.989
 4231POPC   C4B55102  28.592  30.224   7.401
 4232POPC   NC355103  37.777  37.424   5.475
 4232POPC   PO455104  37.338  37.977   5.529
 4232POPC   GL155105  37.572  37.814   5.887
 4232POPC   GL255106  37.807  37.539   5.968
 4232POPC   C1A55107  37.528  37.764   6.334
 4232POPC   D2A55108  37.766  37.436   6.537
 4232POPC   C3A55109  37.802  37.546   6.968
 4232POPC   C4A55110  37.489  37.822   7.142
 4232POPC   C1B55111  37.389  37.356   6.048
 4232POPC   C2B55112  37.252  37.341   6.464
 4232POPC   C3B55113  37.397  37.181   6.834
 4232POPC   C4B55114  37.415  37.331   7.223
 4233POPC   NC355115  42.302   6.394   5.146
 4233POPC   PO455116  42.417   5.810   5.556
 4233POPC   GL155117  42.187   5.713   5.898
 4233POPC   GL255118  42.193   6.036   6.049
 4233POPC   C1A55119  41.896   5.663   6.226
 4233POPC   D2A55120  41.970   5.799   6.656
 4233POPC   C3A55121  42.292   5.585   6.923
 4233POPC   C4A55122  42.312   5.618   7.367
 4233POPC   C1B55123  42.420   5.804   6.364
 4233POPC   C2B55124  42.674   5.876   6.730
 4233POPC   C3B55125  42.482   6.077   7.067
 4233POPC   C4B55126  42.527   6.047   7.520
 4234POPC   NC355127  44.177  20.612   5.194
 4234POPC   PO455128  43.659  20.653   5.585
 4234POPC   GL155129  43.717  20.623   5.989
 4234POPC   GL255130  44.018  20.427   5.958
 4234POPC   C1A55131  43.664  20.586   6.409
 4234POPC   D2A55132  43.527  20.269   6.718
 4234POPC   C3A55133  43.568  20.475   7.099
 4234POPC   C4A55134  43.617  20.860   7.345
 4234POPC   C1B55135  44.180  20.669   6.295
 4234POPC   C2B55136  44.488  20.791   6.620
 4234POPC   C3B55137  44.395  20.729   7.053
 4234POPC   C4B55138  44.044  20.566   7.280
 4235POPC   NC355139  36.171  17.351   5.446
 4235POPC   PO455140  35.809  17.985   5.504
 4235POPC   GL155141  36.051  17.723   5.846
 4235POPC   GL255142  36.373  17.508   5.879
 4235POPC   C1A55143  36.132  17.708   6.312
 4235POPC   D2A55144  35.864  17.918   6.642
 4235POPC   C3A55145  35.907  17.783   7.075
 4235POPC   C4A55146  35.693  17.404   7.182
 4235POPC   C1B55147  36.263  17.221   6.208
 4235POPC   C2B55148  36.145  17.182   6.639
 4235POPC   C3B55149  36.198  17.340   7.063
 4235POPC   C4B55150  36.533  17.508   7.328
 4236POPC   NC355151  25.422  33.653   5.585
 4236POPC   PO455152  24.945  33.286   5.313
 4236POPC   GL155153  24.907  33.517   5.747
 4236POPC   GL255154  25.100  33.785   5.946
 4236POPC   C1A55155  24.922  33.419   6.224
 4236POPC   D2A55156  25.269  33.300   6.507
 4236POPC   C3A55157  25.183  33.523   6.884
 4236POPC   C4A55158  25.039  33.575   7.304
 4236POPC   C1B55159  25.368  33.779   6.322
 4236POPC   C2B55160  25.480  33.986   6.709
 4236POPC   C3B55161  25.257  33.988   7.108
 4236POPC   C4B55162  25.301  33.961   7.545
 4237POPC   NC355163  40.111  12.068   5.356
 4237POPC   PO455164  39.497  11.885   5.496
 4237POPC   GL155165  39.796  12.084   5.809
 4237POPC   GL255166  40.127  12.254   5.828
 4237POPC   C1A55167  39.967  11.881   6.195
 4237POPC   D2A55168  39.867  11.759   6.624
 4237POPC   C3A55169  39.865  12.062   6.972
 4237POPC   C4A55170  39.977  12.059   7.393
 4237POPC   C1B55171  39.949  12.398   6.218
 4237POPC   C2B55172  39.940  12.601   6.619
 4237POPC   C3B55173  40.206  12.562   6.954
 4237POPC   C4B55174  40.292  12.518   7.377
 4238POPC   NC355175  26.748  24.527   5.458
 4238POPC   PO455176  26.693  23.920   5.421
 4238POPC   GL155177  26.948  24.185   5.764
 4238POPC   GL255178  27.140  24.507   5.829
 4238POPC   C1A55179  26.760  24.374   6.149
 4238POPC   D2A55180  26.559  24.244   6.530
 4238POPC   C3A55181  26.702  24.286   6.955
 4238POPC   C4A55182  26.488  24.557   7.232
 4238POPC   C1B55183  27.112  24.754   6.195
 4238POPC   C2B55184  26.953  24.618   6.593
 4238POPC   C3B55185  26.785  24.838   6.936
 4238POPC   C4B55186  26.914  24.800   7.359
 4239POPC   NC355187   7.658  43.427   5.642
 4239POPC   PO455188   7.206  43.117   5.270
 4239POPC   GL155189   7.395  42.962   5.716
 4239POPC   GL255190   7.771  42.934   5.798
 4239POPC   C1A55191   7.366  43.057   6.214
 4239POPC   D2A55192   7.253  43.405   6.524
 4239POPC   C3A55193   7.493  43.389   6.917
 4239POPC   C4A55194   7.509  42.994   7.122
 4239POPC   C1B55195   7.750  42.716   6.197
 4239POPC   C2B55196   7.635  42.629   6.634
 4239POPC   C3B55197   7.923  42.734   7.000
 4239POPC   C4B55198   7.819  42.761   7.471
 4240POPC   NC355199   7.367  32.933   5.231
 4240POPC   PO455200   7.182  33.554   5.382
 4240POPC   GL155201   7.292  33.211   5.679
 4240POPC   GL255202   7.100  32.915   5.686
 4240POPC   C1A55203   7.542  33.172   6.082
 4240POPC   D2A55204   7.578  32.956   6.504
 4240POPC   C3A55205   7.638  33.216   6.867
 4240POPC   C4A55206   7.528  33.174   7.300
 4240POPC   C1B55207   7.073  33.005   6.143
 4240POPC   C2B55208   7.066  32.841   6.592
 4240POPC   C3B55209   7.250  32.852   7.021
 4240POPC   C4B55210   7.181  32.749   7.487
 4241POPC   NC355211   9.285  18.047   5.467
 4241POPC   PO455212   8.819  18.453   5.546
 4241POPC   GL155213   9.076  18.356   5.918
 4241POPC   GL255214   9.136  18.016   5.949
 4241POPC   C1A55215   9.211  18.302   6.366
 4241POPC   D2A55216   9.317  18.101   6.755
 4241POPC   C3A55217   9.012  18.249   7.025
 4241POPC   C4A55218   8.959  18.653   7.153
 4241POPC   C1B55219   8.854  17.935   6.295
 4241POPC   C2B55220   8.679  18.124   6.665
 4241POPC   C3B55221   8.535  17.986   7.057
 4241POPC   C4B55222   8.795  17.972   7.385
 4242POPC   NC355223  22.834  27.425   5.146
 4242POPC   PO455224  22.788  27.967   5.596
 4242POPC   GL155225  22.966  27.680   5.842
 4242POPC   GL255226  23.318  27.697   5.731
 4242POPC   C1A55227  22.829  27.749   6.269
 4242POPC   D2A55228  22.744  27.918   6.689
 4242POPC   C3A55229  22.823  27.569   6.974
 4242POPC   C4A55230  23.220  27.427   7.085
 4242POPC   C1B55231  23.343  27.835   6.169
 4242POPC   C2B55232  23.237  27.726   6.592
 4242POPC   C3B55233  23.206  27.913   6.980
 4242POPC   C4B55234  23.123  27.894   7.390
 4243POPC   NC355235  40.330  41.433   5.382
 4243POPC   PO455236  39.796  41.874   5.449
 4243POPC   GL155237  40.055  41.704   5.796
 4243POPC   GL255238  39.962  41.359   5.820
 4243POPC   C1A55239  40.200  41.550   6.232
 4243POPC   D2A55240  40.297  41.262   6.596
 4243POPC   C3A55241  40.283  41.568   6.945
 4243POPC   C4A55242  40.188  41.642   7.393
 4243POPC   C1B55243  39.703  41.369   6.179
 4243POPC   C2B55244  39.826  41.469   6.606
 4243POPC   C3B55245  39.789  41.560   7.040
 4243POPC   C4B55246  39.637  41.281   7.336
 4244POPC   NC355247  30.137   2.465   5.409
 4244POPC   PO455248  29.560   2.721   5.580
 4244POPC   GL155249  29.860   2.778   5.875
 4244POPC   GL255250  29.976   3.098   5.924
 4244POPC   C1A55251  29.936   2.620   6.273
 4244POPC   D2A55252  30.023   2.571   6.695
 4244POPC   C3A55253  29.721   2.722   7.018
 4244POPC   C4A55254  29.815   2.693   7.485
 4244POPC   C1B55255  30.249   3.044   6.240
 4244POPC   C2B55256  30.395   2.938   6.631
 4244POPC   C3B55257  30.220   2.927   7.028
 4244POPC   C4B55258  29.902   3.125   7.277
 4245POPC   NC355259  20.147   2.949   5.697
 4245POPC   PO455260  19.662   3.193   5.347
 4245POPC   GL155261  19.667   3.132   5.822
 4245POPC   GL255262  19.762   3.475   5.876
 4245POPC   C1A55263  19.839   3.207   6.293
 4245POPC   D2A55264  20.059   3.550   6.517
 4245POPC   C3A55265  19.881   3.633   6.906
 4245POPC   C4A55266  19.996   3.457   7.292
 4245POPC   C1B55267  19.698   3.780   6.211
 4245POPC   C2B55268  19.600   3.993   6.608
 4245POPC   C3B55269  19.388   3.842   6.967
 4245POPC   C4B55270  19.615   3.798   7.340
 4246POPC   NC355271  32.869  17.796   5.541
 4246POPC   PO455272  33.288  17.340   5.423
 4246POPC   GL155273  32.954  17.322   5.770
 4246POPC   GL255274  32.593  17.458   5.822
 4246POPC   C1A55275  32.907  17.304   6.234
 4246POPC   D2A55276  33.020  17.631   6.576
 4246POPC   C3A55277  32.993  17.573   7.040
 4246POPC   C4A55278  33.268  17.471   7.385
 4246POPC   C1B55279  32.695  17.793   6.186
 4246POPC   C2B55280  32.624  17.934   6.668
 4246POPC   C3B55281  32.571  17.841   7.143
 4246POPC   C4B55282  32.882  17.781   7.542
 4247POPC   NC355283  22.731   2.959   5.356
 4247POPC   PO455284  23.402   2.859   5.429
 4247POPC   GL155285  23.075   3.010   5.753
 4247POPC   GL255286  22.677   3.015   5.858
 4247POPC   C1A55287  23.019   2.724   6.093
 4247POPC   D2A55288  23.146   2.579   6.479
 4247POPC   C3A55289  22.912   2.788   6.769
 4247POPC   C4A55290  22.988   2.700   7.170
 4247POPC   C1B55291  22.553   2.876   6.299
 4247POPC   C2B55292  22.555   2.474   6.532
 4247POPC   C3B55293  22.571   2.440   6.958
 4247POPC   C4B55294  22.481   2.779   7.208
 4248POPC   NC355295   2.410  26.561   5.415
 4248POPC   PO455296   1.775  26.814   5.481
 4248POPC   GL155297   1.972  26.636   5.877
 4248POPC   GL255298   2.337  26.570   5.907
 4248POPC   C1A55299   1.923  26.756   6.313
 4248POPC   D2A55300   1.650  26.738   6.689
 4248POPC   C3A55301   1.661  26.986   7.046
 4248POPC   C4A55302   1.795  26.902   7.477
 4248POPC   C1B55303   2.315  26.398   6.302
 4248POPC   C2B55304   2.332  26.688   6.635
 4248POPC   C3B55305   2.180  26.900   6.977
 4248POPC   C4B55306   2.399  26.808   7.334
 4249POPC   NC355307   1.877  43.312   5.498
 4249POPC   PO455308   1.879  42.655   5.475
 4249POPC   GL155309   2.110  42.812   5.841
 4249POPC   GL255310   2.012  43.160   5.943
 4249POPC   C1A55311   2.105  42.845   6.303
 4249POPC   D2A55312   1.860  43.038   6.621
 4249POPC   C3A55313   2.068  42.987   6.985
 4249POPC   C4A55314   2.076  42.709   7.319
 4249POPC   C1B55315   1.798  43.415   6.233
 4249POPC   C2B55316   1.619  43.476   6.648
 4249POPC   C3B55317   1.848  43.454   7.019
 4249POPC   C4B55318   1.786  43.590   7.404
 4250POPC   NC355319  40.195  31.627   5.241
 4250POPC   PO455320  40.269  31.013   5.295
 4250POPC   GL155321  40.110  31.379   5.684
 4250POPC   GL255322  40.163  31.759   5.743
 4250POPC   C1A55323  39.761  31.555   6.031
 4250POPC   D2A55324  39.582  31.574   6.493
 4250POPC   C3A55325  39.843  31.359   6.815
 4250POPC   C4A55326  39.990  31.234   7.218
 4250POPC   C1B55327  40.268  31.568   6.165
 4250POPC   C2B55328  40.290  31.510   6.619
 4250POPC   C3B55329  40.196  31.662   7.029
 4250POPC   C4B55330  40.065  31.714   7.461
 4251POPC   NC355331  12.666  35.609   5.494
 4251POPC   PO455332  13.153  35.152   5.403
 4251POPC   GL155333  13.054  35.403   5.779
 4251POPC   GL255334  13.328  35.530   5.974
 4251POPC   C1A55335  12.721  35.374   6.118
 4251POPC   D2A55336  12.632  35.090   6.474
 4251POPC   C3A55337  12.432  35.317   6.811
 4251POPC   C4A55338  12.726  35.262   7.143
 4251POPC   C1B55339  13.045  35.756   6.258
 4251POPC   C2B55340  12.764  35.615   6.589
 4251POPC   C3B55341  12.706  35.767   7.023
 4251POPC   C4B55342  13.089  35.688   7.266
 4252POPC   NC355343   0.162  39.072   5.204
 4252POPC   PO455344   0.606  39.537   5.390
 4252POPC   GL155345   0.668  39.422   5.842
 4252POPC   GL255346   0.550  39.076   5.860
 4252POPC   C1A55347   0.616  39.310   6.307
 4252POPC   D2A55348   0.809  39.003   6.617
 4252POPC   C3A55349   0.779  39.130   7.059
 4252POPC   C4A55350   0.496  39.415   7.298
 4252POPC   C1B55351   0.207  38.979   6.146
 4252POPC   C2B55352   0.189  38.736   6.529
 4252POPC   C3B55353   0.297  38.933   6.927
 4252POPC   C4B55354   0.139  39.039   7.342
 4253POPC   NC355355  44.004  30.897   5.483
 4253POPC   PO455356  43.579  30.341   5.348
 4253POPC   GL155357  43.819  30.461   5.722
 4253POPC   GL255358  43.638  30.760   5.811
 4253POPC   C1A55359  44.033  30.685   6.095
 4253POPC   D2A55360  43.841  30.776   6.469
 4253POPC   C3A55361  44.138  30.727   6.827
 4253POPC   C4A55362  44.128  30.880   7.246
 4253POPC   C1B55363  43.560  30.454   6.166
 4253POPC   C2B55364  43.407  30.512   6.615
 4253POPC   C3B55365  43.633  30.760   6.927
 4253POPC   C4B55366  43.729  30.604   7.299
 4254POPC   NC355367   2.048  17.077   5.504
 4254POPC   PO455368   1.979  16.434   5.241
 4254POPC   GL155369   1.964  16.612   5.697
 4254POPC   GL255370   1.637  16.844   5.738
 4254POPC   C1A55371   2.073  16.719   6.165
 4254POPC   D2A55372   2.204  16.537   6.597
 4254POPC   C3A55373   2.253  16.630   7.040
 4254POPC   C4A55374   1.997  16.854   7.291
 4254POPC   C1B55375   1.623  16.488   6.053
 4254POPC   C2B55376   1.721  16.485   6.476
 4254POPC   C3B55377   1.697  16.627   6.897
 4254POPC   C4B55378   1.701  16.444   7.299
 4255POPC   NC355379   4.089  28.307   4.960
 4255POPC   PO455380   4.656  28.385   5.321
 4255POPC   GL155381   4.599  28.368   5.775
 4255POPC   GL255382   4.660  28.046   5.889
 4255POPC   C1A55383   4.263  28.323   6.106
 4255POPC   D2A55384   4.314  28.548   6.472
 4255POPC   C3A55385   4.261  28.526   6.920
 4255POPC   C4A55386   4.174  28.216   7.241
 4255POPC   C1B55387   4.537  27.954   6.333
 4255POPC   C2B55388   4.371  28.053   6.726
 4255POPC   C3B55389   4.635  28.178   7.056
 4255POPC   C4B55390   4.621  28.337   7.483
 4256POPC   NC355391  44.861  31.043   5.288
 4256POPC   PO455392  44.687  31.687   5.432
 4256POPC   GL155393  44.633  31.392   5.764
 4256POPC   GL255394  44.297  31.293   5.672
 4256POPC   C1A55395  44.714  31.365   6.245
 4256POPC   D2A55396  44.616  31.433   6.694
 4256POPC   C3A55397  44.912  31.497   7.076
 4256POPC   C4A55398   0.148  31.552   7.476
 4256POPC   C1B55399  44.293  31.132   6.075
 4256POPC   C2B55400  44.169  31.163   6.486
 4256POPC   C3B55401  44.177  31.260   6.902
 4256POPC   C4B55402  44.515  31.180   7.124
 4257POPC   NC355403  42.760  22.236   5.371
 4257POPC   PO455404  43.459  22.076   5.326
 4257POPC   GL155405  43.224  22.248   5.673
 4257POPC   GL255406  42.974  22.053   5.786
 4257POPC   C1A55407  43.262  22.315   6.116
 4257POPC   D2A55408  43.105  22.378   6.538
 4257POPC   C3A55409  43.320  22.053   6.832
 4257POPC   C4A55410  43.371  21.901   7.265
 4257POPC   C1B55411  42.742  22.234   6.118
 4257POPC   C2B55412  42.618  22.148   6.537
 4257POPC   C3B55413  42.829  22.190   6.915
 4257POPC   C4B55414  42.871  21.924   7.217
 4258POPC   NC355415  27.082  12.157   5.304
 4258POPC   PO455416  26.396  12.216   5.380
 4258POPC   GL155417  26.714  12.012   5.727
 4258POPC   GL255418  26.990  12.208   5.819
 4258POPC   C1A55419  26.892  11.916   6.211
 4258POPC   D2A55420  26.666  12.047   6.597
 4258POPC   C3A55421  26.619  11.813   6.965
 4258POPC   C4A55422  26.652  11.609   7.335
 4258POPC   C1B55423  26.810  12.425   6.212
 4258POPC   C2B55424  26.638  12.554   6.627
 4258POPC   C3B55425  26.661  12.372   7.016
 4258POPC   C4B55426  27.007  12.286   7.245
 4259POPC   NC355427  14.738  26.502   5.247
 4259POPC   PO455428  15.023  25.864   5.400
 4259POPC   GL155429  15.313  25.718   5.748
 4259POPC   GL255430  15.394  26.044   5.802
 4259POPC   C1A55431  15.246  25.726   6.246
 4259POPC   D2A55432  15.007  26.001   6.560
 4259POPC   C3A55433  15.142  26.051   7.004
 4259POPC   C4A55434  15.000  26.010   7.462
 4259POPC   C1B55435  15.572  26.127   6.186
 4259POPC   C2B55436  15.499  26.073   6.632
 4259POPC   C3B55437  15.640  26.241   7.022
 4259POPC   C4B55438  15.435  26.245   7.370
 4260POPC   NC355439   3.548  42.180   5.495
 4260POPC   PO455440   3.616  42.835   5.507
 4260POPC   GL155441   3.699  42.496   5.851
 4260POPC   GL255442   3.369  42.310   5.960
 4260POPC   C1A55443   3.814  42.250   6.242
 4260POPC   D2A55444   3.696  42.181   6.684
 4260POPC   C3A55445   3.925  42.330   7.064
 4260POPC   C4A55446   3.819  42.173   7.480
 4260POPC   C1B55447   3.316  42.015   6.318
 4260POPC   C2B55448   3.174  42.019   6.767
 4260POPC   C3B55449   3.425  42.051   7.104
 4260POPC   C4B55450   3.462  42.468   7.206
 4261POPC   NC355451  35.017   5.687   5.539
 4261POPC   PO455452  34.601   6.093   5.178
 4261POPC   GL155453  34.557   5.873   5.699
 4261POPC   GL255454  34.773   5.658   5.957
 4261POPC   C1A55455  34.345   5.804   6.155
 4261POPC   D2A55456  34.417   5.922   6.602
 4261POPC   C3A55457  34.553   5.651   6.934
 4261POPC   C4A55458  34.911   5.743   7.202
 4261POPC   C1B55459  34.819   6.034   6.223
 4261POPC   C2B55460  34.984   6.083   6.656
 4261POPC   C3B55461  35.120   6.251   7.077
 4261POPC   C4B55462  35.083   6.116   7.529
 4262POPC   NC355463   8.658  26.973   5.520
 4262POPC   PO455464   9.081  26.537   5.375
 4262POPC   GL155465   9.067  26.721   5.797
 4262POPC   GL255466   9.108  27.075   5.800
 4262POPC   C1A55467   8.856  26.904   6.191
 4262POPC   D2A55468   8.666  27.069   6.535
 4262POPC   C3A55469   8.751  26.887   6.880
 4262POPC   C4A55470   9.009  26.913   7.207
 4262POPC   C1B55471   9.241  27.264   6.177
 4262POPC   C2B55472   9.208  27.080   6.597
 4262POPC   C3B55473   9.490  27.150   6.931
 4262POPC   C4B55474   9.497  27.030   7.333
 4263POPC   NC355475  18.026  44.320   5.051
 4263POPC   PO455476  18.228  44.913   5.420
 4263POPC   GL155477  18.328  44.754   5.811
 4263POPC   GL255478  18.486  44.449   5.747
 4263POPC   C1A55479  18.143  44.547   6.175
 4263POPC   D2A55480  18.309  44.553   6.574
 4263POPC   C3A55481  18.157  44.774   6.908
 4263POPC   C4A55482  18.273  44.717   7.313
 4263POPC   C1B55483  18.672  44.527   6.175
 4263POPC   C2B55484  18.788  44.374   6.600
 4263POPC   C3B55485  18.646  44.449   7.049
 4263POPC   C4B55486  18.497  44.298   7.493
 4264POPC   NC355487  15.838  38.042   5.527
 4264POPC   PO455488  16.088  37.441   5.404
 4264POPC   GL155489  15.988  37.622   5.803
 4264POPC   GL255490  16.188  37.928   5.890
 4264POPC   C1A55491  15.936  37.647   6.243
 4264POPC   D2A55492  16.208  37.784   6.577
 4264POPC   C3A55493  15.996  37.671   6.936
 4264POPC   C4A55494  16.122  37.543   7.314
 4264POPC   C1B55495  15.983  38.142   6.252
 4264POPC   C2B55496  15.806  38.092   6.693
 4264POPC   C3B55497  15.989  38.155   7.110
 4264POPC   C4B55498  16.118  38.149   7.546
 4265POPC   NC355499  41.678   3.255   5.351
 4265POPC   PO455500  41.780   3.911   5.420
 4265POPC   GL155501  41.526   3.688   5.754
 4265POPC   GL255502  41.538   3.335   5.834
 4265POPC   C1A55503  41.319   3.629   6.162
 4265POPC   D2A55504  41.545   3.682   6.518
 4265POPC   C3A55505  41.374   3.693   6.905
 4265POPC   C4A55506  41.708   3.878   7.155
 4265POPC   C1B55507  41.578   3.201   6.257
 4265POPC   C2B55508  41.630   3.202   6.691
 4265POPC   C3B55509  41.760   3.386   7.039
 4265POPC   C4B55510  41.452   3.472   7.365
 4266POPC   NC355511  17.085  14.668   5.538
 4266POPC   PO455512  17.655  14.431   5.259
 4266POPC   GL155513  17.553  14.249   5.724
 4266POPC   GL255514  17.208  14.288   5.837
 4266POPC   C1A55515  17.468  14.053   6.184
 4266POPC   D2A55516  17.281  14.146   6.609
 4266POPC   C3A55517  17.581  14.269   6.930
 4266POPC   C4A55518  17.542  14.430   7.351
 4266POPC   C1B55519  17.142  14.496   6.238
 4266POPC   C2B55520  17.255  14.664   6.659
 4266POPC   C3B55521  17.125  14.462   7.052
 4266POPC   C4B55522  17.085  14.457   7.556
 4267POPC   NC355523   3.893   8.802   5.499
 4267POPC   PO455524   3.257   9.007   5.630
 4267POPC   GL155525   3.611   8.994   5.908
 4267POPC   GL255526   3.642   8.621   5.948
 4267POPC   C1A55527   3.642   8.965   6.386
 4267POPC   D2A55528   3.478   8.714   6.769
 4267POPC   C3A55529   3.550   8.993   7.115
 4267POPC   C4A55530   3.908   9.268   7.040
 4267POPC   C1B55531   3.902   8.524   6.343
 4267POPC   C2B55532   3.944   8.479   6.803
 4267POPC   C3B55533   3.988   8.751   7.144
 4267POPC   C4B55534   3.797   8.756   7.560
 4268POPC   NC355535  10.224  42.562   5.527
 4268POPC   PO455536   9.520  42.435   5.409
 4268POPC   GL155537   9.651  42.250   5.815
 4268POPC   GL255538  10.017  42.203   5.848
 4268POPC   C1A55539   9.689  42.456   6.245
 4268POPC   D2A55540   9.688  42.743   6.605
 4268POPC   C3A55541   9.418  42.601   6.921
 4268POPC   C4A55542   9.510  42.257   7.176
 4268POPC   C1B55543  10.018  42.048   6.278
 4268POPC   C2B55544  10.073  41.980   6.709
 4268POPC   C3B55545   9.969  42.074   7.120
 4268POPC   C4B55546   9.791  41.919   7.493
 4269POPC   NC355547   0.508  17.463   5.265
 4269POPC   PO455548   0.412  16.765   5.367
 4269POPC   GL155549   0.335  16.674   5.766
 4269POPC   GL255550   0.672  16.659   5.834
 4269POPC   C1A55551   0.254  16.773   6.188
 4269POPC   D2A55552   0.500  16.763   6.566
 4269POPC   C3A55553   0.315  16.616   6.962
 4269POPC   C4A55554   0.459  16.786   7.364
 4269POPC   C1B55555   0.600  16.395   6.156
 4269POPC   C2B55556   0.744  16.317   6.533
 4269POPC   C3B55557   0.804  16.484   6.901
 4269POPC   C4B55558   0.631  16.295   7.246
 4270POPC   NC355559  22.774  33.227   5.465
 4270POPC   PO455560  23.334  32.765   5.475
 4270POPC   GL155561  23.080  32.960   5.794
 4270POPC   GL255562  22.726  32.901   5.863
 4270POPC   C1A55563  23.074  33.122   6.199
 4270POPC   D2A55564  22.888  33.030   6.581
 4270POPC   C3A55565  23.174  33.133   6.906
 4270POPC   C4A55566  23.127  33.038   7.324
 4270POPC   C1B55567  22.528  33.194   6.170
 4270POPC   C2B55568  22.327  33.128   6.569
 4270POPC   C3B55569  22.507  32.994   6.941
 4270POPC   C4B55570  22.704  33.293   7.184
 4271POPC   NC355571  35.128  10.335   5.307
 4271POPC   PO455572  35.692  10.800   5.427
 4271POPC   GL155573  35.566  10.524   5.803
 4271POPC   GL255574  35.325  10.226   5.762
 4271POPC   C1A55575  35.442  10.661   6.223
 4271POPC   D2A55576  35.486  10.760   6.655
 4271POPC   C3A55577  35.659  10.609   7.086
 4271POPC   C4A55578  35.614  10.490   7.571
 4271POPC   C1B55579  35.072  10.253   6.131
 4271POPC   C2B55580  35.047  10.464   6.534
 4271POPC   C3B55581  35.146  10.575   6.945
 4271POPC   C4B55582  35.264  10.328   7.246
 4272POPC   NC355583  36.152  37.242   5.534
 4272POPC   PO455584  35.833  36.656   5.713
 4272POPC   GL155585  36.170  36.843   5.931
 4272POPC   GL255586  35.890  36.968   6.131
 4272POPC   C1A55587  36.380  37.021   6.302
 4272POPC   D2A55588  36.324  37.296   6.658
 4272POPC   C3A55589  36.412  37.164   7.103
 4272POPC   C4A55590  36.312  37.000   7.526
 4272POPC   C1B55591  36.051  36.627   6.405
 4272POPC   C2B55592  36.186  36.817   6.775
 4272POPC   C3B55593  35.999  36.854   7.170
 4272POPC   C4B55594  35.913  36.706   7.587
 4273POPC   NC355595  27.152  14.680   5.410
 4273POPC   PO455596  27.762  14.481   5.331
 4273POPC   GL155597  27.491  14.381   5.685
 4273POPC   GL255598  27.429  14.696   5.867
 4273POPC   C1A55599  27.376  14.235   6.104
 4273POPC   D2A55600  27.527  14.163   6.549
 4273POPC   C3A55601  27.466  14.451   6.840
 4273POPC   C4A55602  27.485  14.558   7.251
 4273POPC   C1B55603  27.531  14.668   6.347
 4273POPC   C2B55604  27.701  14.881   6.755
 4273POPC   C3B55605  27.763  14.978   7.217
 4273POPC   C4B55606  27.713  14.867   7.692
 4274POPC   NC355607  39.369  18.096   5.535
 4274POPC   PO455608  39.935  18.522   5.632
 4274POPC   GL155609  39.558  18.438   5.871
 4274POPC   GL255610  39.150  18.401   5.891
 4274POPC   C1A55611  39.440  18.310   6.275
 4274POPC   D2A55612  39.371  18.073   6.618
 4274POPC   C3A55613  39.293  18.272   6.970
 4274POPC   C4A55614  39.545  18.123   7.251
 4274POPC   C1B55615  38.951  18.168   6.264
 4274POPC   C2B55616  38.813  18.092   6.696
 4274POPC   C3B55617  38.925  17.932   7.072
 4274POPC   C4B55618  39.132  17.943   7.484
 4275POPC   NC355619  14.814  11.709   5.565
 4275POPC   PO455620  15.106  12.263   5.302
 4275POPC   GL155621  14.931  12.232   5.706
 4275POPC   GL255622  15.168  12.008   5.864
 4275POPC   C1A55623  14.996  12.419   6.124
 4275POPC   D2A55624  14.878  12.355   6.534
 4275POPC   C3A55625  14.963  12.049   6.866
 4275POPC   C4A55626  15.169  12.228   7.240
 4275POPC   C1B55627  15.441  12.189   6.227
 4275POPC   C2B55628  15.397  12.181   6.660
 4275POPC   C3B55629  15.568  11.979   7.025
 4275POPC   C4B55630  15.508  11.917   7.493
 4276POPC   NC355631  44.388  13.431   5.509
 4276POPC   PO455632   0.009  13.531   5.289
 4276POPC   GL155633  44.832  13.715   5.719
 4276POPC   GL255634  44.514  13.681   5.922
 4276POPC   C1A55635  44.906  13.816   6.192
 4276POPC   D2A55636  44.574  13.841   6.534
 4276POPC   C3A55637  44.741  13.707   6.946
 4276POPC   C4A55638  44.540  13.703   7.348
 4276POPC   C1B55639  44.294  13.361   6.199
 4276POPC   C2B55640  44.145  13.341   6.632
 4276POPC   C3B55641  44.379  13.343   7.023
 4276POPC   C4B55642  44.361  13.269   7.522
 4277POPC   NC355643  25.704  13.098   5.394
 4277POPC   PO455644  25.066  13.230   5.404
 4277POPC   GL155645  25.278  12.961   5.734
 4277POPC   GL255646  25.243  12.624   5.721
 4277POPC   C1A55647  25.356  12.875   6.184
 4277POPC   D2A55648  25.319  13.121   6.564
 4277POPC   C3A55649  25.358  12.953   6.963
 4277POPC   C4A55650  25.133  12.993   7.271
 4277POPC   C1B55651  25.137  12.413   6.123
 4277POPC   C2B55652  24.952  12.574   6.497
 4277POPC   C3B55653  24.880  12.799   6.853
 4277POPC   C4B55654  24.840  12.597   7.256
 4278POPC   NC355655  10.384  21.466   5.314
 4278POPC   PO455656  10.854  21.944   5.200
 4278POPC   GL155657  10.755  21.686   5.606
 4278POPC   GL255658  10.414  21.805   5.707
 4278POPC   C1A55659  10.650  21.463   6.041
 4278POPC   D2A55660  10.776  21.511   6.515
 4278POPC   C3A55661  10.668  21.327   6.955
 4278POPC   C4A55662  10.290  21.192   7.193
 4278POPC   C1B55663  10.240  21.827   6.129
 4278POPC   C2B55664  10.000  21.766   6.514
 4278POPC   C3B55665  10.217  21.586   6.868
 4278POPC   C4B55666  10.334  21.710   7.278
 4279POPC   NC355667   7.266  38.444   5.456
 4279POPC   PO455668   7.905  38.123   5.313
 4279POPC   GL155669   7.698  38.260   5.716
 4279POPC   GL255670   7.560  38.594   5.840
 4279POPC   C1A55671   7.684  38.237   6.173
 4279POPC   D2A55672   7.535  38.540   6.496
 4279POPC   C3A55673   7.467  38.336   6.897
 4279POPC   C4A55674   7.450  38.468   7.327
 4279POPC   C1B55675   7.173  38.436   6.113
 4279POPC   C2B55676   7.043  38.393   6.552
 4279POPC   C3B55677   6.981  38.510   6.995
 4279POPC   C4B55678   6.946  38.312   7.411
 4280POPC   NC355679  38.754  10.986   5.150
 4280POPC   PO455680  38.682  11.623   5.377
 4280POPC   GL155681  38.501  11.492   5.800
 4280POPC   GL255682  38.145  11.633   5.842
 4280POPC   C1A55683  38.665  11.318   6.228
 4280POPC   D2A55684  38.486  11.013   6.527
 4280POPC   C3A55685  38.550  11.109   6.977
 4280POPC   C4A55686  38.611  11.442   7.296
 4280POPC   C1B55687  38.165  11.401   6.231
 4280POPC   C2B55688  38.382  11.518   6.612
 4280POPC   C3B55689  38.225  11.529   6.993
 4280POPC   C4B55690  37.927  11.457   7.293
 4281POPC   NC355691   2.436   9.146   5.302
 4281POPC   PO455692   2.080   8.583   5.398
 4281POPC   GL155693   2.033   8.935   5.713
 4281POPC   GL255694   1.887   8.726   5.971
 4281POPC   C1A55695   1.972   9.207   6.119
 4281POPC   D2A55696   1.668   9.168   6.471
 4281POPC   C3A55697   1.833   9.148   6.886
 4281POPC   C4A55698   2.144   9.310   7.100
 4281POPC   C1B55699   1.653   8.669   6.369
 4281POPC   C2B55700   1.624   8.693   6.830
 4281POPC   C3B55701   1.832   8.678   7.251
 4281POPC   C4B55702   1.803   8.800   7.706
 4282POPC   NC355703  38.330  35.919   5.475
 4282POPC   PO455704  38.754  36.427   5.485
 4282POPC   GL155705  38.456  36.314   5.815
 4282POPC   GL255706  38.595  35.976   5.905
 4282POPC   C1A55707  38.259  36.175   6.228
 4282POPC   D2A55708  38.445  36.050   6.657
 4282POPC   C3A55709  38.218  36.141   7.064
 4282POPC   C4A55710  38.369  36.064   7.504
 4282POPC   C1B55711  38.772  36.161   6.262
 4282POPC   C2B55712  38.849  36.425   6.640
 4282POPC   C3B55713  38.693  36.340   7.040
 4282POPC   C4B55714  38.696  35.952   7.138
 4283POPC   NC355715  12.574  32.384   5.665
 4283POPC   PO455716  13.064  32.002   5.538
 4283POPC   GL155717  12.969  32.150   5.903
 4283POPC   GL255718  13.033  32.503   5.924
 4283POPC   C1A55719  12.759  32.218   6.271
 4283POPC   D2A55720  12.888  32.482   6.564
 4283POPC   C3A55721  12.980  32.235   6.887
 4283POPC   C4A55722  12.703  32.122   7.175
 4283POPC   C1B55723  12.669  32.720   6.167
 4283POPC   C2B55724  12.459  32.769   6.564
 4283POPC   C3B55725  12.579  32.636   6.984
 4283POPC   C4B55726  12.930  32.578   7.260
 4284POPC   NC355727   5.196  33.037   5.289
 4284POPC   PO455728   4.622  33.022   5.083
 4284POPC   GL155729   4.786  33.087   5.602
 4284POPC   GL255730   5.153  33.005   5.780
 4284POPC   C1A55731   4.780  32.930   6.096
 4284POPC   D2A55732   4.711  32.880   6.545
 4284POPC   C3A55733   4.920  33.124   6.866
 4284POPC   C4A55734   4.938  32.818   7.213
 4284POPC   C1B55735   5.288  32.854   6.209
 4284POPC   C2B55736   5.229  32.794   6.649
 4284POPC   C3B55737   5.387  33.004   7.043
 4284POPC   C4B55738   5.214  33.203   7.411
 4285POPC   NC355739   9.069  24.845   5.364
 4285POPC   PO455740   8.868  25.449   5.375
 4285POPC   GL155741   8.900  25.318   5.779
 4285POPC   GL255742   8.876  24.956   5.843
 4285POPC   C1A55743   8.787  25.401   6.200
 4285POPC   D2A55744   9.017  25.454   6.569
 4285POPC   C3A55745   8.839  25.465   6.960
 4285POPC   C4A55746   8.991  25.482   7.372
 4285POPC   C1B55747   8.696  24.894   6.263
 4285POPC   C2B55748   8.665  25.040   6.713
 4285POPC   C3B55749   8.963  24.955   7.090
 4285POPC   C4B55750   8.954  24.986   7.557
 4286POPC   NC355751   1.125  43.159   5.415
 4286POPC   PO455752   1.532  43.583   5.608
 4286POPC   GL155753   1.414  43.237   5.837
 4286POPC   GL255754   1.513  42.914   5.717
 4286POPC   C1A55755   1.021  43.152   6.101
 4286POPC   D2A55756   0.732  43.206   6.508
 4286POPC   C3A55757   0.945  43.230   6.929
 4286POPC   C4A55758   1.382  43.275   7.092
 4286POPC   C1B55759   1.590  42.923   6.177
 4286POPC   C2B55760   1.324  43.082   6.503
 4286POPC   C3B55761   1.280  42.839   6.828
 4286POPC   C4B55762   1.648  42.689   7.045
 4287POPC   NC355763  40.431  23.505   5.479
 4287POPC   PO455764  41.033  23.698   5.305
 4287POPC   GL155765  40.849  23.679   5.750
 4287POPC   GL255766  41.081  23.486   5.861
 4287POPC   C1A55767  40.540  23.624   6.132
 4287POPC   D2A55768  40.405  23.728   6.586
 4287POPC   C3A55769  40.636  23.576   7.016
 4287POPC   C4A55770  40.759  23.602   7.510
 4287POPC   C1B55771  40.934  23.344   6.284
 4287POPC   C2B55772  40.905  23.649   6.580
 4287POPC   C3B55773  41.063  23.864   6.924
 4287POPC   C4B55774  41.187  23.605   7.246
 4288POPC   NC355775   2.945   3.410   5.463
 4288POPC   PO455776   2.339   3.304   5.705
 4288POPC   GL155777   2.658   3.598   5.927
 4288POPC   GL255778   3.045   3.536   5.923
 4288POPC   C1A55779   2.857   3.819   6.313
 4288POPC   D2A55780   3.019   3.616   6.700
 4288POPC   C3A55781   2.803   3.599   7.104
 4288POPC   C4A55782   2.896   3.663   7.541
 4288POPC   C1B55783   2.887   3.303   6.273
 4288POPC   C2B55784   2.863   3.026   6.610
 4288POPC   C3B55785   2.898   3.107   7.029
 4288POPC   C4B55786   2.850   3.149   7.449
 4289POPC   NC355787   4.758  40.287   5.511
 4289POPC   PO455788   5.469  40.334   5.322
 4289POPC   GL155789   5.191  40.366   5.739
 4289POPC   GL255790   4.971  40.056   5.903
 4289POPC   C1A55791   4.975  40.458   6.165
 4289POPC   D2A55792   4.964  40.151   6.469
 4289POPC   C3A55793   5.102  40.172   6.859
 4289POPC   C4A55794   5.261  40.105   7.261
 4289POPC   C1B55795   4.792  39.735   6.223
 4289POPC   C2B55796   4.609  39.520   6.601
 4289POPC   C3B55797   4.748  39.748   6.954
 4289POPC   C4B55798   4.741  40.104   7.207
 4290POPC   NC355799  22.922  36.367   5.492
 4290POPC   PO455800  22.527  35.760   5.495
 4290POPC   GL155801  22.695  36.040   5.812
 4290POPC   GL255802  22.549  36.381   5.851
 4290POPC   C1A55803  22.918  36.180   6.203
 4290POPC   D2A55804  22.942  36.321   6.644
 4290POPC   C3A55805  23.021  36.029   6.990
 4290POPC   C4A55806  23.174  35.579   7.134
 4290POPC   C1B55807  22.416  36.132   6.234
 4290POPC   C2B55808  22.414  36.235   6.672
 4290POPC   C3B55809  22.516  36.215   7.094
 4290POPC   C4B55810  22.798  36.346   7.385
 4291POPC   NC355811  17.272  13.876   5.362
 4291POPC   PO455812  17.902  13.540   5.393
 4291POPC   GL155813  17.692  13.417   5.792
 4291POPC   GL255814  17.362  13.241   5.718
 4291POPC   C1A55815  17.732  13.540   6.266
 4291POPC   D2A55816  17.718  13.874   6.600
 4291POPC   C3A55817  17.555  13.742   6.987
 4291POPC   C4A55818  17.709  13.353   7.167
 4291POPC   C1B55819  17.250  13.594   6.029
 4291POPC   C2B55820  17.248  13.638   6.484
 4291POPC   C3B55821  17.275  13.342   6.848
 4291POPC   C4B55822  17.201  13.463   7.274
 4292POPC   NC355823   5.786  38.957   5.616
 4292POPC   PO455824   5.878  38.353   5.505
 4292POPC   GL155825   5.615  38.321   5.869
 4292POPC   GL255826   5.476  38.665   5.914
 4292POPC   C1A55827   5.613  38.374   6.323
 4292POPC   D2A55828   5.865  38.498   6.672
 4292POPC   C3A55829   5.686  38.391   7.054
 4292POPC   C4A55830   5.954  38.271   7.310
 4292POPC   C1B55831   5.736  38.856   6.273
 4292POPC   C2B55832   5.745  38.988   6.706
 4292POPC   C3B55833   5.946  38.844   7.066
 4292POPC   C4B55834   6.193  38.962   7.448
 4293POPC   NC355835  40.125   5.430   5.598
 4293POPC   PO455836  40.017   4.781   5.427
 4293POPC   GL155837  39.758   4.949   5.786
 4293POPC   GL255838  39.610   5.279   5.780
 4293POPC   C1A55839  39.847   4.878   6.236
 4293POPC   D2A55840  40.265   5.063   6.400
 4293POPC   C3A55841  40.295   5.072   6.859
 4293POPC   C4A55842  39.971   4.981   7.171
 4293POPC   C1B55843  39.827   5.375   6.188
 4293POPC   C2B55844  39.858   5.241   6.629
 4293POPC   C3B55845  39.962   5.444   6.962
 4293POPC   C4B55846  39.910   5.652   7.294
 4294POPC   NC355847   3.654  10.266   5.572
 4294POPC   PO455848   3.207  10.705   5.458
 4294POPC   GL155849   3.394  10.585   5.849
 4294POPC   GL255850   3.228  10.261   5.842
 4294POPC   C1A55851   3.626  10.489   6.246
 4294POPC   D2A55852   3.447  10.476   6.639
 4294POPC   C3A55853   3.742  10.441   6.984
 4294POPC   C4A55854   3.711  10.773   7.303
 4294POPC   C1B55855   3.114  10.371   6.235
 4294POPC   C2B55856   2.914  10.239   6.581
 4294POPC   C3B55857   3.074  10.348   6.947
 4294POPC   C4B55858   3.297  10.483   7.244
 4295POPC   NC355859  43.572   1.867   5.429
 4295POPC   PO455860  43.096   2.326   5.523
 4295POPC   GL155861  43.425   2.140   5.871
 4295POPC   GL255862  43.462   1.761   5.894
 4295POPC   C1A55863  43.407   1.957   6.342
 4295POPC   D2A55864  42.965   1.906   6.541
 4295POPC   C3A55865  42.951   2.027   6.985
 4295POPC   C4A55866  43.325   1.959   7.248
 4295POPC   C1B55867  43.115   1.598   6.114
 4295POPC   C2B55868  43.153   1.423   6.516
 4295POPC   C3B55869  43.155   1.558   6.946
 4295POPC   C4B55870  42.896   1.632   7.331
 4296POPC   NC355871  17.293  43.722   5.417
 4296POPC   PO455872  17.770  44.108   5.385
 4296POPC   GL155873  17.621  43.989   5.773
 4296POPC   GL255874  17.353  43.776   5.920
 4296POPC   C1A55875  17.815  43.866   6.140
 4296POPC   D2A55876  17.645  43.842   6.545
 4296POPC   C3A55877  17.825  43.747   6.933
 4296POPC   C4A55878  17.642  43.922   7.302
 4296POPC   C1B55879  17.289  43.485   6.281
 4296POPC   C2B55880  17.381  43.405   6.726
 4296POPC   C3B55881  17.052  43.425   7.045
 4296POPC   C4B55882  17.042  43.510   7.487
 4297POPC   NC355883  33.689  28.360   5.450
 4297POPC   PO455884  34.216  27.852   5.466
 4297POPC   GL155885  34.195  28.143   5.864
 4297POPC   GL255886  33.962  28.420   5.894
 4297POPC   C1A55887  34.138  28.255   6.350
 4297POPC   D2A55888  34.034  28.431   6.787
 4297POPC   C3A55889  33.816  28.206   7.136
 4297POPC   C4A55890  33.624  27.824   7.288
 4297POPC   C1B55891  33.913  28.750   6.237
 4297POPC   C2B55892  33.668  28.858   6.619
 4297POPC   C3B55893  33.508  28.688   7.011
 4297POPC   C4B55894  33.766  28.652   7.365
 4298POPC   NC355895   4.002  40.844   5.470
 4298POPC   PO455896   4.488  40.456   5.175
 4298POPC   GL155897   4.346  40.573   5.685
 4298POPC   GL255898   4.376  40.969   5.757
 4298POPC   C1A55899   4.336  40.627   6.143
 4298POPC   D2A55900   4.636  40.718   6.466
 4298POPC   C3A55901   4.662  40.453   6.832
 4298POPC   C4A55902   4.485  40.528   7.280
 4298POPC   C1B55903   4.111  41.094   6.099
 4298POPC   C2B55904   4.262  41.086   6.520
 4298POPC   C3B55905   4.356  40.871   6.880
 4298POPC   C4B55906   4.351  41.051   7.243
 4299POPC   NC355907   9.063  15.431   5.510
 4299POPC   PO455908   8.604  14.978   5.466
 4299POPC   GL155909   8.918  15.052   5.857
 4299POPC   GL255910   9.248  15.281   5.949
 4299POPC   C1A55911   8.984  15.051   6.332
 4299POPC   D2A55912   9.012  15.291   6.712
 4299POPC   C3A55913   9.195  15.157   7.104
 4299POPC   C4A55914   8.781  15.057   7.266
 4299POPC   C1B55915   9.083  15.568   6.257
 4299POPC   C2B55916   9.270  15.724   6.644
 4299POPC   C3B55917   9.120  15.660   7.062
 4299POPC   C4B55918   9.029  15.473   7.497
 4300POPC   NC355919  36.655  16.272   5.010
 4300POPC   PO455920  36.051  16.176   5.429
 4300POPC   GL155921  36.248  15.959   5.769
 4300POPC   GL255922  35.960  15.821   5.937
 4300POPC   C1A55923  36.392  15.928   6.188
 4300POPC   D2A55924  36.464  15.754   6.573
 4300POPC   C3A55925  36.356  15.948   6.942
 4300POPC   C4A55926  36.035  15.764   7.211
 4300POPC   C1B55927  35.958  15.776   6.416
 4300POPC   C2B55928  35.819  16.027   6.795
 4300POPC   C3B55929  35.741  16.185   7.230
 4300POPC   C4B55930  35.931  16.182   7.657
 4301POPC   NC355931  20.516  34.860   5.530
 4301POPC   PO455932  20.731  34.166   5.274
 4301POPC   GL155933  20.772  34.130   5.741
 4301POPC   GL255934  20.859  34.456   5.811
 4301POPC   C1A55935  20.540  34.235   6.158
 4301POPC   D2A55936  20.413  34.505   6.536
 4301POPC   C3A55937  20.442  34.322   6.946
 4301POPC   C4A55938  20.660  34.207   7.310
 4301POPC   C1B55939  21.087  34.434   6.242
 4301POPC   C2B55940  21.183  34.667   6.646
 4301POPC   C3B55941  20.895  34.895   6.950
 4301POPC   C4B55942  20.493  34.831   7.147
 4302POPC   NC355943  36.480   9.376   5.483
 4302POPC   PO455944  36.201   9.992   5.398
 4302POPC   GL155945  36.185   9.714   5.747
 4302POPC   GL255946  36.537   9.821   5.764
 4302POPC   C1A55947  36.011   9.648   6.168
 4302POPC   D2A55948  35.977   9.971   6.496
 4302POPC   C3A55949  36.082   9.785   6.873
 4302POPC   C4A55950  36.041   9.732   7.289
 4302POPC   C1B55951  36.395   9.959   6.173
 4302POPC   C2B55952  36.480   9.981   6.596
 4302POPC   C3B55953  36.540  10.002   7.022
 4302POPC   C4B55954  36.461  10.166   7.399
 4303POPC   NC355955   7.668  39.599   5.349
 4303POPC   PO455956   7.340  38.939   5.440
 4303POPC   GL155957   7.432  39.091   5.831
 4303POPC   GL255958   7.554  39.425   5.842
 4303POPC   C1A55959   7.335  38.908   6.180
 4303POPC   D2A55960   7.148  38.931   6.532
 4303POPC   C3A55961   7.350  38.854   6.910
 4303POPC   C4A55962   7.491  38.990   7.313
 4303POPC   C1B55963   7.240  39.414   6.206
 4303POPC   C2B55964   7.077  39.449   6.636
 4303POPC   C3B55965   7.086  39.543   7.073
 4303POPC   C4B55966   7.396  39.480   7.397
 4304POPC   NC355967  19.325  25.711   5.405
 4304POPC   PO455968  19.015  26.258   5.354
 4304POPC   GL155969  19.140  26.151   5.783
 4304POPC   GL255970  19.325  25.831   5.889
 4304POPC   C1A55971  18.967  26.032   6.215
 4304POPC   D2A55972  19.137  25.879   6.615
 4304POPC   C3A55973  18.967  26.059   7.021
 4304POPC   C4A55974  18.690  26.323   7.280
 4304POPC   C1B55975  19.519  26.179   6.111
 4304POPC   C2B55976  19.437  26.295   6.500
 4304POPC   C3B55977  19.454  26.226   6.941
 4304POPC   C4B55978  19.378  26.425   7.351
 4305POPC   NC355979   2.754  10.936   5.465
 4305POPC   PO455980   2.678  11.487   5.128
 4305POPC   GL155981   2.871  11.427   5.632
 4305POPC   GL255982   2.750  11.210   5.889
 4305POPC   C1A55983   3.098  11.504   6.106
 4305POPC   D2A55984   3.234  11.555   6.564
 4305POPC   C3A55985   2.984  11.255   6.839
 4305POPC   C4A55986   2.830  11.243   7.256
 4305POPC   C1B55987   2.504  10.944   6.125
 4305POPC   C2B55988   2.553  11.115   6.523
 4305POPC   C3B55989   2.483  10.966   6.906
 4305POPC   C4B55990   2.304  11.110   7.230
 4306POPC   NC355991  18.214  34.808   5.226
 4306POPC   PO455992  17.802  34.351   5.472
 4306POPC   GL155993  17.983  34.499   5.835
 4306POPC   GL255994  18.201  34.783   5.754
 4306POPC   C1A55995  18.290  34.500   6.204
 4306POPC   D2A55996  18.391  34.678   6.633
 4306POPC   C3A55997  18.363  34.399   6.945
 4306POPC   C4A55998  18.124  34.382   7.299
 4306POPC   C1B55999  18.336  34.999   6.128
 4306POPC   C2B56000  18.225  35.152   6.540
 4306POPC   C3B56001  18.387  35.122   6.947
 4306POPC   C4B56002  18.418  34.793   7.244
 4307POPC   NC356003  13.407  28.923   5.434
 4307POPC   PO456004  13.913  29.340   5.525
 4307POPC   GL156005  13.671  29.245   5.904
 4307POPC   GL256006  13.340  29.087   5.893
 4307POPC   C1A56007  13.670  29.268   6.352
 4307POPC   D2A56008  13.894  28.985   6.608
 4307POPC   C3A56009  13.884  29.189   6.978
 4307POPC   C4A56010  13.605  29.299   7.260
 4307POPC   C1B56011  13.192  29.082   6.268
 4307POPC   C2B56012  13.163  28.853   6.606
 4307POPC   C3B56013  13.425  28.954   6.916
 4307POPC   C4B56014  13.471  28.809   7.344
 4308POPC   NC356015  26.048  12.328   5.667
 4308POPC   PO456016  26.142  12.934   5.293
 4308POPC   GL156017  26.124  12.860   5.736
 4308POPC   GL256018  25.779  12.945   5.880
 4308POPC   C1A56019  26.193  13.103   6.124
 4308POPC   D2A56020  25.866  13.272   6.455
 4308POPC   C3A56021  25.819  13.020   6.799
 4308POPC   C4A56022  25.893  12.997   7.231
 4308POPC   C1B56023  25.844  12.785   6.320
 4308POPC   C2B56024  25.967  12.553   6.689
 4308POPC   C3B56025  25.798  12.518   7.054
 4308POPC   C4B56026  25.531  12.652   7.346
 4309POPC   NC356027  27.916  30.249   5.422
 4309POPC   PO456028  27.470  29.795   5.113
 4309POPC   GL156029  27.504  29.933   5.596
 4309POPC   GL256030  27.463  30.307   5.671
 4309POPC   C1A56031  27.453  29.901   6.084
 4309POPC   D2A56032  27.245  29.766   6.497
 4309POPC   C3A56033  27.446  29.880   6.854
 4309POPC   C4A56034  27.323  30.027   7.240
 4309POPC   C1B56035  27.739  30.319   6.046
 4309POPC   C2B56036  27.740  30.300   6.482
 4309POPC   C3B56037  27.706  30.313   6.936
 4309POPC   C4B56038  27.858  30.017   7.219
 4310POPC   NC356039  27.055  37.230   5.284
 4310POPC   PO456040  26.813  36.676   5.513
 4310POPC   GL156041  27.075  36.892   5.795
 4310POPC   GL256042  26.895  37.160   5.783
 4310POPC   C1A56043  27.067  36.913   6.238
 4310POPC   D2A56044  27.099  37.037   6.658
 4310POPC   C3A56045  26.821  36.905   6.957
 4310POPC   C4A56046  26.923  36.843   7.367
 4310POPC   C1B56047  26.584  37.091   6.058
 4310POPC   C2B56048  26.606  37.048   6.500
 4310POPC   C3B56049  26.401  37.209   6.870
 4310POPC   C4B56050  26.484  37.103   7.293
 4311POPC   NC356051  27.164  11.332   5.427
 4311POPC   PO456052  26.503  11.232   5.235
 4311POPC   GL156053  26.683  11.257   5.676
 4311POPC   GL256054  26.801  10.965   5.868
 4311POPC   C1A56055  26.858  11.421   6.097
 4311POPC   D2A56056  26.770  11.522   6.552
 4311POPC   C3A56057  27.012  11.346   6.903
 4311POPC   C4A56058  27.147  11.482   7.299
 4311POPC   C1B56059  26.705  10.970   6.306
 4311POPC   C2B56060  26.432  11.132   6.623
 4311POPC   C3B56061  26.513  11.252   7.027
 4311POPC   C4B56062  26.830  11.110   7.388
 4312POPC   NC356063  31.417  34.075   5.217
 4312POPC   PO456064  31.998  33.852   5.376
 4312POPC   GL156065  31.682  33.819   5.711
 4312POPC   GL256066  31.792  34.038   6.004
 4312POPC   C1A56067  31.632  33.573   6.122
 4312POPC   D2A56068  31.675  33.659   6.578
 4312POPC   C3A56069  31.499  33.404   6.891
 4312POPC   C4A56070  31.254  33.551   7.214
 4312POPC   C1B56071  31.388  33.994   6.303
 4312POPC   C2B56072  31.218  33.882   6.756
 4312POPC   C3B56073  31.399  34.023   7.159
 4312POPC   C4B56074  31.354  34.171   7.579
 4313POPC   NC356075  13.991  18.614   5.414
 4313POPC   PO456076  13.541  18.151   5.266
 4313POPC   GL156077  13.401  18.055   5.712
 4313POPC   GL256078  13.626  17.827   5.879
 4313POPC   C1A56079  13.470  18.276   6.136
 4313POPC   D2A56080  13.800  18.474   6.440
 4313POPC   C3A56081  13.676  18.504   6.885
 4313POPC   C4A56082  13.338  18.468   7.168
 4313POPC   C1B56083  13.672  17.799   6.298
 4313POPC   C2B56084  13.528  18.075   6.615
 4313POPC   C3B56085  13.520  18.006   7.029
 4313POPC   C4B56086  13.896  17.805   7.175
 4314POPC   NC356087   6.481   0.793   5.374
 4314POPC   PO456088   6.837   0.287   5.316
 4314POPC   GL156089   6.721   0.428   5.722
 4314POPC   GL256090   6.516   0.116   5.728
 4314POPC   C1A56091   6.732   0.584   6.158
 4314POPC   D2A56092   6.870   0.387   6.535
 4314POPC   C3A56093   6.741   0.547   6.975
 4314POPC   C4A56094   6.724   0.515   7.445
 4314POPC   C1B56095   6.682   0.020   6.127
 4314POPC   C2B56096   6.494   0.019   6.513
 4314POPC   C3B56097   6.525   0.066   6.940
 4314POPC   C4B56098   6.887   0.097   7.207
 4315POPC   NC356099  21.637  27.061   5.504
 4315POPC   PO456100  21.077  26.617   5.360
 4315POPC   GL156101  21.301  26.720   5.730
 4315POPC   GL256102  21.182  27.047   5.785
 4315POPC   C1A56103  21.405  26.526   6.137
 4315POPC   D2A56104  21.578  26.659   6.533
 4315POPC   C3A56105  21.477  26.485   6.941
 4315POPC   C4A56106  21.344  26.630   7.332
 4315POPC   C1B56107  21.121  26.930   6.220
 4315POPC   C2B56108  21.245  27.058   6.616
 4315POPC   C3B56109  21.377  27.019   7.030
 4315POPC   C4B56110  21.166  27.046   7.521
 4316POPC   NC356111  32.873   9.287   5.295
 4316POPC   PO456112  33.007   8.542   5.229
 4316POPC   GL156113  32.950   8.867   5.609
 4316POPC   GL256114  33.207   8.816   5.890
 4316POPC   C1A56115  32.787   9.101   6.000
 4316POPC   D2A56116  32.719   9.230   6.450
 4316POPC   C3A56117  32.748   8.946   6.763
 4316POPC   C4A56118  32.893   8.975   7.169
 4316POPC   C1B56119  33.154   8.927   6.343
 4316POPC   C2B56120  33.223   8.739   6.764
 4316POPC   C3B56121  33.421   8.956   7.117
 4316POPC   C4B56122  33.502   8.860   7.561
 4317POPC   NC356123  14.126   4.201   5.646
 4317POPC   PO456124  14.767   4.470   5.607
 4317POPC   GL156125  14.537   4.324   5.923
 4317POPC   GL256126  14.581   3.976   5.804
 4317POPC   C1A56127  14.319   4.402   6.307
 4317POPC   D2A56128  14.352   4.426   6.767
 4317POPC   C3A56129  14.692   4.665   7.011
 4317POPC   C4A56130  14.809   4.671   7.437
 4317POPC   C1B56131  14.454   3.875   6.222
 4317POPC   C2B56132  14.579   3.839   6.619
 4317POPC   C3B56133  14.399   3.952   6.976
 4317POPC   C4B56134  14.180   3.998   7.308
 4318POPC   NC356135  26.282   7.503   5.466
 4318POPC   PO456136  25.755   7.096   5.319
 4318POPC   GL156137  25.806   7.385   5.720
 4318POPC   GL256138  25.814   7.773   5.747
 4318POPC   C1A56139  25.724   7.337   6.205
 4318POPC   D2A56140  25.833   7.235   6.674
 4318POPC   C3A56141  26.258   7.239   6.913
 4318POPC   C4A56142  26.293   7.318   7.389
 4318POPC   C1B56143  26.028   7.743   6.179
 4318POPC   C2B56144  26.158   7.679   6.648
 4318POPC   C3B56145  25.949   7.628   7.091
 4318POPC   C4B56146  25.642   7.682   7.459
 4319POPC   NC356147  32.005  11.293   5.465
 4319POPC   PO456148  32.609  11.384   5.353
 4319POPC   GL156149  32.393  11.475   5.763
 4319POPC   GL256150  32.408  11.135   5.858
 4319POPC   C1A56151  32.178  11.452   6.184
 4319POPC   D2A56152  32.355  11.370   6.602
 4319POPC   C3A56153  32.108  11.481   6.963
 4319POPC   C4A56154  32.148  11.324   7.355
 4319POPC   C1B56155  32.358  10.957   6.283
 4319POPC   C2B56156  32.225  10.843   6.723
 4319POPC   C3B56157  32.268  10.864   7.200
 4319POPC   C4B56158  32.443  10.983   7.627
 4320POPC   NC356159  18.659   6.120   5.520
 4320POPC   PO456160  19.310   5.820   5.375
 4320POPC   GL156161  19.183   5.980   5.784
 4320POPC   GL256162  19.273   6.352   5.804
 4320POPC   C1A56163  18.971   5.773   6.164
 4320POPC   D2A56164  18.756   5.821   6.588
 4320POPC   C3A56165  18.921   5.590   6.974
 4320POPC   C4A56166  19.209   5.620   7.326
 4320POPC   C1B56167  19.065   6.268   6.213
 4320POPC   C2B56168  19.152   6.152   6.639
 4320POPC   C3B56169  19.069   6.083   7.065
 4320POPC   C4B56170  19.319   6.090   7.460
 4321POPC   NC356171  22.605   6.848   5.614
 4321POPC   PO456172  22.228   6.642   5.150
 4321POPC   GL156173  22.185   6.531   5.729
 4321POPC   GL256174  22.184   6.827   5.912
 4321POPC   C1A56175  22.191   6.467   6.244
 4321POPC   D2A56176  22.237   6.630   6.698
 4321POPC   C3A56177  22.264   6.327   7.022
 4321POPC   C4A56178  21.978   6.239   7.345
 4321POPC   C1B56179  22.249   7.005   6.312
 4321POPC   C2B56180  22.490   7.166   6.665
 4321POPC   C3B56181  22.283   7.093   7.030
 4321POPC   C4B56182  22.104   6.754   7.212
 4322POPC   NC356183  16.768  40.672   5.385
 4322POPC   PO456184  17.240  41.046   5.569
 4322POPC   GL156185  16.986  41.033   5.913
 4322POPC   GL256186  16.849  40.729   5.895
 4322POPC   C1A56187  16.756  40.996   6.332
 4322POPC   D2A56188  16.551  41.237   6.679
 4322POPC   C3A56189  16.581  41.167   7.123
 4322POPC   C4A56190  16.850  40.881   7.352
 4322POPC   C1B56191  16.609  40.495   6.168
 4322POPC   C2B56192  16.484  40.616   6.582
 4322POPC   C3B56193  16.587  40.673   6.971
 4322POPC   C4B56194  16.368  40.730   7.339
 4323POPC   NC356195  12.535  26.609   5.236
 4323POPC   PO456196  11.883  26.776   5.391
 4323POPC   GL156197  12.067  26.895   5.772
 4323POPC   GL256198  12.028  26.577   5.886
 4323POPC   C1A56199  12.060  27.084   6.202
 4323POPC   D2A56200  12.075  27.268   6.613
 4323POPC   C3A56201  11.946  27.068   6.981
 4323POPC   C4A56202  11.606  27.092   7.256
 4323POPC   C1B56203  11.805  26.636   6.255
 4323POPC   C2B56204  11.896  26.659   6.661
 4323POPC   C3B56205  11.640  26.651   7.005
 4323POPC   C4B56206  11.695  26.405   7.375
 4324POPC   NC356207  42.731  42.429   5.481
 4324POPC   PO456208  42.149  42.483   5.352
 4324POPC   GL156209  42.259  42.547   5.779
 4324POPC   GL256210  42.602  42.528   5.944
 4324POPC   C1A56211  42.182  42.289   6.142
 4324POPC   D2A56212  42.352  42.288   6.550
 4324POPC   C3A56213  42.224  42.467   6.962
 4324POPC   C4A56214  42.186  42.503   7.438
 4324POPC   C1B56215  42.812  42.210   6.178
 4324POPC   C2B56216  42.781  42.022   6.579
 4324POPC   C3B56217  42.617  42.124   6.971
 4324POPC   C4B56218  42.645  41.781   7.184
 4325POPC   NC356219  26.119   6.843   5.158
 4325POPC   PO456220  26.271   6.277   5.219
 4325POPC   GL156221  26.039   6.630   5.611
 4325POPC   GL256222  25.780   6.554   5.846
 4325POPC   C1A56223  26.097   6.918   6.015
 4325POPC   D2A56224  26.245   6.936   6.462
 4325POPC   C3A56225  26.042   6.732   6.821
 4325POPC   C4A56226  25.935   6.971   7.204
 4325POPC   C1B56227  26.097   6.411   6.158
 4325POPC   C2B56228  26.116   6.221   6.569
 4325POPC   C3B56229  25.879   6.204   6.940
 4325POPC   C4B56230  25.824   6.481   7.238
 4326POPC   NC356231  11.703  32.841   5.549
 4326POPC   PO456232  12.376  32.706   5.362
 4326POPC   GL156233  12.262  32.798   5.776
 4326POPC   GL256234  12.137  33.146   5.794
 4326POPC   C1A56235  12.091  32.815   6.185
 4326POPC   D2A56236  11.875  32.830   6.575
 4326POPC   C3A56237  12.136  32.960   6.904
 4326POPC   C4A56238  12.195  32.827   7.294
 4326POPC   C1B56239  11.995  33.371   6.210
 4326POPC   C2B56240  11.961  33.398   6.685
 4326POPC   C3B56241  12.217  33.451   7.090
 4326POPC   C4B56242  12.195  33.287   7.533
 4327POPC   NC356243  29.139  44.364   5.490
 4327POPC   PO456244  29.418  44.967   5.367
 4327POPC   GL156245  29.202  44.803   5.793
 4327POPC   GL256246  29.363  44.487   5.935
 4327POPC   C1A56247  29.149  44.747   6.303
 4327POPC   D2A56248  29.392  44.673   6.713
 4327POPC   C3A56249  29.228  44.902   7.090
 4327POPC   C4A56250  28.877  44.836   7.351
 4327POPC   C1B56251  29.035  44.251   6.181
 4327POPC   C2B56252  28.907  44.382   6.594
 4327POPC   C3B56253  29.039  44.444   7.018
 4327POPC   C4B56254  28.786  44.346   7.369
 4328POPC   NC356255  10.031  28.212   5.559
 4328POPC   PO456256   9.404  28.425   5.429
 4328POPC   GL156257   9.619  28.390   5.824
 4328POPC   GL256258   9.495  28.729   5.857
 4328POPC   C1A56259   9.820  28.182   6.233
 4328POPC   D2A56260   9.937  27.973   6.672
 4328POPC   C3A56261   9.858  28.262   7.049
 4328POPC   C4A56262   9.863  28.373   7.527
 4328POPC   C1B56263   9.479  28.617   6.277
 4328POPC   C2B56264   9.638  28.554   6.696
 4328POPC   C3B56265   9.555  28.673   7.124
 4328POPC   C4B56266   9.607  28.841   7.543
 4329POPC   NC356267   5.197  13.863   5.409
 4329POPC   PO456268   5.892  13.916   5.353
 4329POPC   GL156269   5.845  13.661   5.735
 4329POPC   GL256270   5.517  13.576   5.867
 4329POPC   C1A56271   5.996  13.490   6.123
 4329POPC   D2A56272   5.966  13.710   6.541
 4329POPC   C3A56273   6.107  13.559   6.948
 4329POPC   C4A56274   6.047  13.702   7.379
 4329POPC   C1B56275   5.542  13.401   6.324
 4329POPC   C2B56276   5.655  13.329   6.774
 4329POPC   C3B56277   5.620  13.556   7.161
 4329POPC   C4B56278   5.634  13.524   7.624
 4330POPC   NC356279  27.966   8.002   5.615
 4330POPC   PO456280  28.621   8.047   5.431
 4330POPC   GL156281  28.390   8.196   5.814
 4330POPC   GL256282  28.225   8.516   5.863
 4330POPC   C1A56283  28.158   8.129   6.215
 4330POPC   D2A56284  28.416   8.114   6.552
 4330POPC   C3A56285  28.347   8.199   6.973
 4330POPC   C4A56286  28.609   8.413   7.219
 4330POPC   C1B56287  28.402   8.577   6.265
 4330POPC   C2B56288  28.171   8.568   6.628
 4330POPC   C3B56289  28.184   8.689   7.037
 4330POPC   C4B56290  28.057   8.577   7.426
 4331POPC   NC356291  18.525  15.303   5.369
 4331POPC   PO456292  17.828  15.078   5.275
 4331POPC   GL156293  18.083  15.082   5.709
 4331POPC   GL256294  18.441  14.915   5.752
 4331POPC   C1A56295  18.147  15.321   6.131
 4331POPC   D2A56296  18.255  15.202   6.572
 4331POPC   C3A56297  17.913  15.181   6.844
 4331POPC   C4A56298  17.888  15.229   7.280
 4331POPC   C1B56299  18.628  15.230   6.063
 4331POPC   C2B56300  18.614  15.546   6.477
 4331POPC   C3B56301  18.662  15.416   6.926
 4331POPC   C4B56302  18.417  15.114   7.167
 4332POPC   NC356303  41.480  10.385   5.322
 4332POPC   PO456304  41.623  11.041   5.315
 4332POPC   GL156305  41.613  10.699   5.698
 4332POPC   GL256306  41.789  10.350   5.729
 4332POPC   C1A56307  41.421  10.691   6.152
 4332POPC   D2A56308  41.294  10.899   6.569
 4332POPC   C3A56309  41.379  10.671   6.971
 4332POPC   C4A56310  41.199  10.438   7.319
 4332POPC   C1B56311  41.901  10.494   6.146
 4332POPC   C2B56312  42.063  10.527   6.566
 4332POPC   C3B56313  41.898  10.522   6.961
 4332POPC   C4B56314  41.727  10.433   7.321
 4333POPC   NC356315   3.293   6.857   5.655
 4333POPC   PO456316   3.701   6.400   5.344
 4333POPC   GL156317   3.595   6.436   5.771
 4333POPC   GL256318   3.752   6.756   5.865
 4333POPC   C1A56319   3.356   6.470   6.171
 4333POPC   D2A56320   3.365   6.731   6.535
 4333POPC   C3A56321   3.418   6.444   6.859
 4333POPC   C4A56322   3.632   6.271   7.202
 4333POPC   C1B56323   3.992   7.055   6.128
 4333POPC   C2B56324   3.908   7.189   6.529
 4333POPC   C3B56325   3.781   6.935   6.859
 4333POPC   C4B56326   3.902   7.059   7.262
 4334POPC   NC356327  40.858  32.842   5.350
 4334POPC   PO456328  40.833  33.560   5.453
 4334POPC   GL156329  40.681  33.178   5.707
 4334POPC   GL256330  40.998  33.010   5.834
 4334POPC   C1A56331  40.576  32.978   6.117
 4334POPC   D2A56332  40.592  33.137   6.537
 4334POPC   C3A56333  40.702  32.862   6.904
 4334POPC   C4A56334  40.609  32.490   7.131
 4334POPC   C1B56335  40.974  33.413   6.102
 4334POPC   C2B56336  40.920  33.567   6.538
 4334POPC   C3B56337  40.899  33.334   6.908
 4334POPC   C4B56338  40.700  33.245   7.288
 4335POPC   NC356339  34.543   4.916   5.349
 4335POPC   PO456340  34.772   4.272   5.286
 4335POPC   GL156341  34.590   4.461   5.654
 4335POPC   GL256342  34.884   4.686   5.661
 4335POPC   C1A56343  34.434   4.346   6.100
 4335POPC   D2A56344  34.612   4.116   6.471
 4335POPC   C3A56345  34.516   4.320   6.864
 4335POPC   C4A56346  34.280   4.332   7.233
 4335POPC   C1B56347  34.754   4.738   6.074
 4335POPC   C2B56348  34.734   4.625   6.496
 4335POPC   C3B56349  34.959   4.689   6.882
 4335POPC   C4B56350  34.872   4.558   7.311
 4336POPC   NC356351   2.494  11.740   5.470
 4336POPC   PO456352   1.851  11.914   5.247
 4336POPC   GL156353   1.911  12.012   5.713
 4336POPC   GL256354   2.204  11.850   5.855
 4336POPC   C1A56355   2.021  12.248   6.108
 4336POPC   D2A56356   2.377  12.192   6.404
 4336POPC   C3A56357   2.240  12.220   6.822
 4336POPC   C4A56358   2.179  11.860   7.066
 4336POPC   C1B56359   1.912  11.712   6.164
 4336POPC   C2B56360   1.921  11.787   6.607
 4336POPC   C3B56361   1.679  11.758   6.978
 4336POPC   C4B56362   1.805  11.880   7.418
 4337POPC   NC356363  33.926  37.141   5.132
 4337POPC   PO456364  33.583  37.078   5.679
 4337POPC   GL156365  33.841  36.810   5.921
 4337POPC   GL256366  33.636  36.960   6.149
 4337POPC   C1A56367  34.082  36.809   6.329
 4337POPC   D2A56368  34.217  37.145   6.586
 4337POPC   C3A56369  34.087  37.148   6.994
 4337POPC   C4A56370  33.997  36.777   7.258
 4337POPC   C1B56371  33.592  36.607   6.339
 4337POPC   C2B56372  33.746  36.612   6.718
 4337POPC   C3B56373  33.555  36.492   7.075
 4337POPC   C4B56374  33.498  36.687   7.423
 4338POPC   NC356375   3.058  11.763   5.209
 4338POPC   PO456376   2.587  12.241   5.484
 4338POPC   GL156377   2.673  12.180   5.915
 4338POPC   GL256378   2.891  11.906   5.807
 4338POPC   C1A56379   2.830  12.465   6.274
 4338POPC   D2A56380   2.966  12.483   6.729
 4338POPC   C3A56381   2.763  12.102   6.913
 4338POPC   C4A56382   2.880  11.737   7.108
 4338POPC   C1B56383   2.625  11.699   6.131
 4338POPC   C2B56384   2.704  11.626   6.575
 4338POPC   C3B56385   2.498  11.478   6.934
 4338POPC   C4B56386   2.429  11.575   7.392
 4339POPC   NC356387  39.515  10.543   5.468
 4339POPC   PO456388  38.769  10.629   5.451
 4339POPC   GL156389  39.020  10.665   5.834
 4339POPC   GL256390  39.363  10.746   5.902
 4339POPC   C1A56391  39.070  10.340   6.149
 4339POPC   D2A56392  39.279  10.229   6.530
 4339POPC   C3A56393  39.095  10.375   6.916
 4339POPC   C4A56394  38.824  10.689   7.110
 4339POPC   C1B56395  39.317  10.748   6.346
 4339POPC   C2B56396  39.544  10.622   6.700
 4339POPC   C3B56397  39.530  10.551   7.119
 4339POPC   C4B56398  39.469  10.864   7.417
 4340POPC   NC356399   8.331  28.363   5.433
 4340POPC   PO456400   7.625  28.325   5.542
 4340POPC   GL156401   7.988  28.288   5.816
 4340POPC   GL256402   8.106  28.619   5.797
 4340POPC   C1A56403   8.179  28.359   6.236
 4340POPC   D2A56404   8.451  28.243   6.584
 4340POPC   C3A56405   8.289  28.173   6.991
 4340POPC   C4A56406   8.170  28.376   7.391
 4340POPC   C1B56407   8.466  28.738   6.041
 4340POPC   C2B56408   8.451  28.748   6.497
 4340POPC   C3B56409   8.564  28.626   6.920
 4340POPC   C4B56410   8.445  28.800   7.318
 4341POPC   NC356411  36.739  21.608   5.254
 4341POPC   PO456412  36.843  20.953   5.343
 4341POPC   GL156413  36.756  21.172   5.723
 4341POPC   GL256414  36.670  21.517   5.754
 4341POPC   C1A56415  36.769  21.169   6.182
 4341POPC   D2A56416  37.033  21.252   6.536
 4341POPC   C3A56417  36.728  21.234   6.865
 4341POPC   C4A56418  36.561  21.194   7.270
 4341POPC   C1B56419  36.921  21.648   6.112
 4341POPC   C2B56420  36.776  21.687   6.538
 4341POPC   C3B56421  36.982  21.667   6.933
 4341POPC   C4B56422  37.078  21.329   7.229
 4342POPC   NC356423  24.516  39.495   5.306
 4342POPC   PO456424  24.112  38.979   5.422
 4342POPC   GL156425  24.296  39.286   5.746
 4342POPC   GL256426  24.626  39.496   5.790
 4342POPC   C1A56427  24.361  39.163   6.180
 4342POPC   D2A56428  24.231  38.937   6.548
 4342POPC   C3A56429  24.273  39.082   6.972
 4342POPC   C4A56430  24.475  39.042   7.355
 4342POPC   C1B56431  24.807  39.413   6.200
 4342POPC   C2B56432  24.745  39.082   6.519
 4342POPC   C3B56433  24.797  39.140   6.949
 4342POPC   C4B56434  24.878  39.515   7.161
 4343POPC   NC356435  17.110  36.592   5.318
 4343POPC   PO456436  16.676  37.055   5.395
 4343POPC   GL156437  16.698  36.923   5.825
 4343POPC   GL256438  16.888  36.619   5.808
 4343POPC   C1A56439  16.644  36.867   6.283
 4343POPC   D2A56440  16.459  36.909   6.698
 4343POPC   C3A56441  16.766  37.009   7.024
 4343POPC   C4A56442  16.746  37.030   7.487
 4343POPC   C1B56443  17.133  36.551   6.172
 4343POPC   C2B56444  17.134  36.667   6.613
 4343POPC   C3B56445  17.111  36.555   7.052
 4343POPC   C4B56446  16.917  36.186   7.234
 4344POPC   NC356447  39.578   9.150   5.463
 4344POPC   PO456448  39.002   8.886   5.242
 4344POPC   GL156449  39.142   8.870   5.713
 4344POPC   GL256450  39.498   8.840   5.857
 4344POPC   C1A56451  39.070   8.684   6.145
 4344POPC   D2A56452  38.965   8.876   6.542
 4344POPC   C3A56453  39.241   8.882   6.882
 4344POPC   C4A56454  39.146   8.873   7.304
 4344POPC   C1B56455  39.651   9.087   6.223
 4344POPC   C2B56456  39.546   9.232   6.638
 4344POPC   C3B56457  39.600   9.190   7.089
 4344POPC   C4B56458  39.439   9.228   7.524
 4345POPC   NC356459  43.606  18.193   5.434
 4345POPC   PO456460  44.032  18.562   5.144
 4345POPC   GL156461  44.002  18.466   5.655
 4345POPC   GL256462  44.040  18.125   5.721
 4345POPC   C1A56463  43.871  18.412   6.108
 4345POPC   D2A56464  43.660  18.116   6.410
 4345POPC   C3A56465  43.519  18.275   6.819
 4345POPC   C4A56466  43.724  18.361   7.206
 4345POPC   C1B56467  44.027  17.892   6.092
 4345POPC   C2B56468  44.066  17.802   6.504
 4345POPC   C3B56469  43.986  18.054   6.851
 4345POPC   C4B56470  43.926  17.895   7.234
 4346POPC   NC356471  14.072  26.502   5.481
 4346POPC   PO456472  14.531  26.936   5.308
 4346POPC   GL156473  14.367  26.824   5.779
 4346POPC   GL256474  14.127  27.049   5.845
 4346POPC   C1A56475  14.318  26.617   6.230
 4346POPC   D2A56476  14.181  26.667   6.674
 4346POPC   C3A56477  14.468  26.489   6.965
 4346POPC   C4A56478  14.627  26.577   7.361
 4346POPC   C1B56479  14.071  27.061   6.289
 4346POPC   C2B56480  14.209  27.208   6.695
 4346POPC   C3B56481  14.316  27.134   7.112
 4346POPC   C4B56482  14.001  27.190   7.402
 4347POPC   NC356483  43.691  37.078   5.425
 4347POPC   PO456484  44.163  36.650   5.175
 4347POPC   GL156485  44.013  36.734   5.637
 4347POPC   GL256486  43.694  36.697   5.806
 4347POPC   C1A56487  44.119  36.647   6.092
 4347POPC   D2A56488  44.225  36.645   6.526
 4347POPC   C3A56489  43.985  36.775   6.877
 4347POPC   C4A56490  44.187  36.852   7.249
 4347POPC   C1B56491  43.828  37.061   6.075
 4347POPC   C2B56492  43.858  37.144   6.509
 4347POPC   C3B56493  43.688  37.191   6.933
 4347POPC   C4B56494  43.993  37.314   7.196
 4348POPC   NC356495  10.578  24.976   5.494
 4348POPC   PO456496  10.129  25.380   5.281
 4348POPC   GL156497  10.266  25.341   5.699
 4348POPC   GL256498  10.656  25.372   5.798
 4348POPC   C1A56499  10.283  25.484   6.119
 4348POPC   D2A56500  10.612  25.509   6.416
 4348POPC   C3A56501  10.356  25.408   6.768
 4348POPC   C4A56502  10.331  25.308   7.182
 4348POPC   C1B56503  10.824  25.024   6.085
 4348POPC   C2B56504  11.012  24.986   6.495
 4348POPC   C3B56505  10.828  25.216   6.809
 4348POPC   C4B56506  10.838  25.317   7.220
 4349POPC   NC356507  34.882   6.675   5.546
 4349POPC   PO456508  35.567   6.663   5.325
 4349POPC   GL156509  35.454   6.707   5.746
 4349POPC   GL256510  35.218   6.498   5.890
 4349POPC   C1A56511  35.518   6.764   6.199
 4349POPC   D2A56512  35.330   6.956   6.541
 4349POPC   C3A56513  35.462   6.743   6.896
 4349POPC   C4A56514  35.695   6.830   7.250
 4349POPC   C1B56515  35.050   6.543   6.314
 4349POPC   C2B56516  34.858   6.821   6.637
 4349POPC   C3B56517  35.005   6.877   7.064
 4349POPC   C4B56518  35.213   6.659   7.403
 4350POPC   NC356519  22.311  13.868   5.409
 4350POPC   PO456520  22.290  14.570   5.304
 4350POPC   GL156521  22.327  14.545   5.740
 4350POPC   GL256522  22.284  14.208   5.800
 4350POPC   C1A56523  22.106  14.627   6.131
 4350POPC   D2A56524  21.937  14.513   6.542
 4350POPC   C3A56525  21.931  14.143   6.805
 4350POPC   C4A56526  22.153  14.157   7.200
 4350POPC   C1B56527  22.167  14.113   6.232
 4350POPC   C2B56528  22.400  14.189   6.620
 4350POPC   C3B56529  22.613  14.015   6.966
 4350POPC   C4B56530  22.643  14.170   7.391
 4351POPC   NC356531  40.327  32.353   5.397
 4351POPC   PO456532  39.860  31.924   5.338
 4351POPC   GL156533  39.771  32.169   5.719
 4351POPC   GL256534  39.901  32.516   5.752
 4351POPC   C1A56535  39.865  32.141   6.145
 4351POPC   D2A56536  39.975  31.891   6.505
 4351POPC   C3A56537  39.952  32.103   6.904
 4351POPC   C4A56538  39.686  32.240   7.249
 4351POPC   C1B56539  40.016  32.663   6.179
 4351POPC   C2B56540  40.252  32.703   6.579
 4351POPC   C3B56541  40.051  32.613   6.983
 4351POPC   C4B56542  39.961  32.634   7.432
 4352POPC   NC356543   7.254  35.590   5.472
 4352POPC   PO456544   7.692  34.989   5.437
 4352POPC   GL156545   7.420  35.164   5.746
 4352POPC   GL256546   7.637  35.422   5.814
 4352POPC   C1A56547   7.257  35.279   6.152
 4352POPC   D2A56548   7.090  35.108   6.532
 4352POPC   C3A56549   7.252  35.165   6.925
 4352POPC   C4A56550   7.385  35.188   7.321
 4352POPC   C1B56551   7.767  35.161   6.174
 4352POPC   C2B56552   7.645  35.075   6.604
 4352POPC   C3B56553   7.712  34.896   7.054
 4352POPC   C4B56554   7.713  34.952   7.598
 4353POPC   NC356555   2.238  10.114   5.455
 4353POPC   PO456556   1.878   9.473   5.456
 4353POPC   GL156557   1.944   9.801   5.778
 4353POPC   GL256558   2.307   9.752   5.820
 4353POPC   C1A56559   1.983   9.842   6.233
 4353POPC   D2A56560   2.022   9.545   6.546
 4353POPC   C3A56561   1.811   9.684   6.885
 4353POPC   C4A56562   1.946   9.744   7.298
 4353POPC   C1B56563   2.490   9.913   6.200
 4353POPC   C2B56564   2.342  10.097   6.564
 4353POPC   C3B56565   2.284   9.909   6.951
 4353POPC   C4B56566   2.427   9.887   7.377
 4354POPC   NC356567  23.231  13.604   5.640
 4354POPC   PO456568  23.614  13.876   5.130
 4354POPC   GL156569  23.746  13.550   5.622
 4354POPC   GL256570  23.589  13.632   5.974
 4354POPC   C1A56571  24.079  13.654   6.012
 4354POPC   D2A56572  23.857  13.803   6.405
 4354POPC   C3A56573  23.912  13.677   6.826
 4354POPC   C4A56574  23.719  13.815   7.220
 4354POPC   C1B56575  23.782  13.312   6.231
 4354POPC   C2B56576  23.744  13.217   6.644
 4354POPC   C3B56577  23.556  13.348   7.022
 4354POPC   C4B56578  23.640  13.355   7.422
 4355POPC   NC356579  15.045  40.726   5.532
 4355POPC   PO456580  15.685  40.489   5.518
 4355POPC   GL156581  15.395  40.583   5.863
 4355POPC   GL256582  15.311  40.937   5.942
 4355POPC   C1A56583  15.157  40.596   6.267
 4355POPC   D2A56584  15.198  40.813   6.646
 4355POPC   C3A56585  15.126  40.498   6.946
 4355POPC   C4A56586  15.138  40.491   7.385
 4355POPC   C1B56587  14.972  41.116   6.205
 4355POPC   C2B56588  14.607  41.168   6.502
 4355POPC   C3B56589  14.822  41.155   6.894
 4355POPC   C4B56590  15.124  40.966   7.157
 4356POPC   NC356591  39.887   7.719   5.506
 4356POPC   PO456592  40.326   7.216   5.467
 4356POPC   GL156593  40.241   7.441   5.843
 4356POPC   GL256594  40.021   7.189   5.904
 4356POPC   C1A56595  40.361   7.647   6.264
 4356POPC   D2A56596  40.319   7.814   6.725
 4356POPC   C3A56597  39.926   7.761   6.951
 4356POPC   C4A56598  39.664   7.617   7.300
 4356POPC   C1B56599  40.142   7.175   6.310
 4356POPC   C2B56600  40.072   7.314   6.708
 4356POPC   C3B56601  39.920   7.217   7.103
 4356POPC   C4B56602  39.827   7.197   7.542
 4357POPC   NC356603   0.454  28.597   5.352
 4357POPC   PO456604   0.627  27.915   5.281
 4357POPC   GL156605   0.465  28.190   5.685
 4357POPC   GL256606   0.655  28.476   5.845
 4357POPC   C1A56607   0.220  28.385   6.092
 4357POPC   D2A56608   0.143  28.617   6.512
 4357POPC   C3A56609   0.236  28.440   6.944
 4357POPC   C4A56610   0.481  28.061   7.151
 4357POPC   C1B56611   0.631  28.720   6.240
 4357POPC   C2B56612   0.640  28.670   6.697
 4357POPC   C3B56613   0.736  28.508   7.128
 4357POPC   C4B56614   0.788  28.779   7.513
 4358POPC   NC356615  40.388  37.153   5.547
 4358POPC   PO456616  40.696  37.780   5.385
 4358POPC   GL156617  40.812  37.899   5.792
 4358POPC   GL256618  40.515  38.091   5.789
 4358POPC   C1A56619  40.909  37.640   6.201
 4358POPC   D2A56620  40.760  37.559   6.625
 4358POPC   C3A56621  40.971  37.427   6.999
 4358POPC   C4A56622  40.739  37.371   7.365
 4358POPC   C1B56623  40.555  38.060   6.234
 4358POPC   C2B56624  40.538  38.214   6.660
 4358POPC   C3B56625  40.644  37.912   7.003
 4358POPC   C4B56626  40.663  37.862   7.456
 4359POPC   NC356627  29.734  25.658   5.478
 4359POPC   PO456628  29.478  25.101   5.431
 4359POPC   GL156629  29.627  25.235   5.843
 4359POPC   GL256630  29.446  25.546   5.891
 4359POPC   C1A56631  29.783  25.041   6.274
 4359POPC   D2A56632  29.788  24.966   6.744
 4359POPC   C3A56633  30.064  24.735   7.044
 4359POPC   C4A56634  30.008  24.682   7.477
 4359POPC   C1B56635  29.798  25.567   6.193
 4359POPC   C2B56636  29.739  25.465   6.627
 4359POPC   C3B56637  29.943  25.470   7.038
 4359POPC   C4B56638  29.759  25.515   7.465
 4360POPC   NC356639  23.127  22.281   5.364
 4360POPC   PO456640  22.617  22.124   5.670
 4360POPC   GL156641  23.043  21.979   5.791
 4360POPC   GL256642  23.237  22.288   5.869
 4360POPC   C1A56643  23.068  21.975   6.228
 4360POPC   D2A56644  22.907  22.170   6.582
 4360POPC   C3A56645  22.924  22.054   7.008
 4360POPC   C4A56646  22.831  22.293   7.377
 4360POPC   C1B56647  23.312  22.456   6.298
 4360POPC   C2B56648  23.350  22.361   6.744
 4360POPC   C3B56649  23.269  22.446   7.173
 4360POPC   C4B56650  23.240  22.576   7.638
 4361POPC   NC356651  41.155  37.675   5.455
 4361POPC   PO456652  41.770  37.297   5.417
 4361POPC   GL156653  41.666  37.557   5.780
 4361POPC   GL256654  41.347  37.719   5.911
 4361POPC   C1A56655  41.698  37.531   6.211
 4361POPC   D2A56656  41.393  37.731   6.466
 4361POPC   C3A56657  41.637  37.774   6.803
 4361POPC   C4A56658  41.704  37.428   7.075
 4361POPC   C1B56659  41.157  38.068   6.125
 4361POPC   C2B56660  40.994  38.035   6.569
 4361POPC   C3B56661  41.167  37.892   6.972
 4361POPC   C4B56662  41.555  37.917   7.281
 4362POPC   NC356663  18.332  41.382   5.385
 4362POPC   PO456664  18.265  41.950   5.723
 4362POPC   GL156665  18.326  41.551   5.867
 4362POPC   GL256666  18.041  41.294   5.841
 4362POPC   C1A56667  18.492  41.488   6.267
 4362POPC   D2A56668  18.278  41.501   6.645
 4362POPC   C3A56669  18.421  41.688   7.017
 4362POPC   C4A56670  18.765  41.809   7.271
 4362POPC   C1B56671  17.950  41.529   6.229
 4362POPC   C2B56672  17.880  41.828   6.583
 4362POPC   C3B56673  17.892  41.568   6.953
 4362POPC   C4B56674  18.050  41.461   7.352
 4363POPC   NC356675  26.136  27.228   4.873
 4363POPC   PO456676  26.231  27.784   5.275
 4363POPC   GL156677  26.082  27.496   5.620
 4363POPC   GL256678  26.073  27.770   5.798
 4363POPC   C1A56679  25.959  27.354   6.067
 4363POPC   D2A56680  26.036  27.540   6.485
 4363POPC   C3A56681  25.983  27.412   6.899
 4363POPC   C4A56682  26.135  27.527   7.287
 4363POPC   C1B56683  25.837  27.882   6.149
 4363POPC   C2B56684  25.725  27.948   6.562
 4363POPC   C3B56685  25.995  27.953   6.923
 4363POPC   C4B56686  25.705  27.781   7.172
 4364POPC   NC356687   0.232   0.910   5.307
 4364POPC   PO456688   0.683   1.445   5.516
 4364POPC   GL156689   0.720   1.195   5.871
 4364POPC   GL256690   0.466   0.987   5.767
 4364POPC   C1A56691   0.706   1.239   6.319
 4364POPC   D2A56692   0.417   1.257   6.641
 4364POPC   C3A56693   0.504   1.409   7.045
 4364POPC   C4A56694   0.190   1.533   7.326
 4364POPC   C1B56695   0.406   0.846   6.182
 4364POPC   C2B56696   0.259   0.782   6.612
 4364POPC   C3B56697   0.462   0.894   7.016
 4364POPC   C4B56698   0.319   1.031   7.406
 4365POPC   NC356699  28.085  18.084   5.572
 4365POPC   PO456700  27.488  18.085   5.237
 4365POPC   GL156701  27.586  18.142   5.705
 4365POPC   GL256702  27.346  18.388   5.856
 4365POPC   C1A56703  27.740  18.228   6.143
 4365POPC   D2A56704  27.745  18.594   6.449
 4365POPC   C3A56705  27.695  18.454   6.871
 4365POPC   C4A56706  27.744  18.047   7.079
 4365POPC   C1B56707  27.238  18.077   6.203
 4365POPC   C2B56708  27.393  18.075   6.651
 4365POPC   C3B56709  27.240  18.264   7.065
 4365POPC   C4B56710  27.147  18.629   7.362
 4366POPC   NC356711   6.801   3.125   5.441
 4366POPC   PO456712   6.566   3.741   5.324
 4366POPC   GL156713   6.687   3.719   5.788
 4366POPC   GL256714   6.690   3.383   5.857
 4366POPC   C1A56715   6.756   3.699   6.262
 4366POPC   D2A56716   6.595   3.958   6.596
 4366POPC   C3A56717   6.598   3.801   6.984
 4366POPC   C4A56718   6.595   3.381   7.202
 4366POPC   C1B56719   6.711   3.197   6.250
 4366POPC   C2B56720   6.734   3.326   6.696
 4366POPC   C3B56721   7.009   3.138   6.964
 4366POPC   C4B56722   7.002   3.135   7.383
 4367POPC   NC356723   2.229   3.742   5.608
 4367POPC   PO456724   1.951   3.159   5.302
 4367POPC   GL156725   1.852   3.332   5.769
 4367POPC   GL256726   1.734   3.672   5.831
 4367POPC   C1A56727   1.794   3.300   6.230
 4367POPC   D2A56728   1.756   3.415   6.668
 4367POPC   C3A56729   2.139   3.227   6.857
 4367POPC   C4A56730   2.389   3.278   7.236
 4367POPC   C1B56731   1.922   3.792   6.224
 4367POPC   C2B56732   1.944   3.907   6.661
 4367POPC   C3B56733   2.193   3.741   7.003
 4367POPC   C4B56734   2.419   3.779   7.376
 4368POPC   NC356735  18.311  11.936   5.344
 4368POPC   PO456736  18.285  11.163   5.433
 4368POPC   GL156737  18.249  11.222   5.855
 4368POPC   GL256738  18.287  11.564   5.918
 4368POPC   C1A56739  18.407  11.220   6.278
 4368POPC   D2A56740  18.255  11.261   6.685
 4368POPC   C3A56741  18.618  11.128   6.874
 4368POPC   C4A56742  18.737  11.115   7.270
 4368POPC   C1B56743  18.278  11.690   6.350
 4368POPC   C2B56744  18.538  11.686   6.717
 4368POPC   C3B56745  18.401  11.525   7.135
 4368POPC   C4B56746  18.067  11.595   7.451
 4369POPC   NC356747  42.709  29.415   5.470
 4369POPC   PO456748  42.392  28.836   5.442
 4369POPC   GL156749  42.436  29.113   5.815
 4369POPC   GL256750  42.150  29.022   6.051
 4369POPC   C1A56751  42.477  29.396   6.185
 4369POPC   D2A56752  42.326  29.246   6.582
 4369POPC   C3A56753  42.526  29.371   6.964
 4369POPC   C4A56754  42.372  29.441   7.348
 4369POPC   C1B56755  42.476  28.708   6.141
 4369POPC   C2B56756  42.753  28.677   6.491
 4369POPC   C3B56757  42.567  28.666   6.917
 4369POPC   C4B56758  42.496  28.926   7.285
 4370POPC   NC356759  38.129   1.094   5.438
 4370POPC   PO456760  38.481   1.763   5.444
 4370POPC   GL156761  38.357   1.566   5.882
 4370POPC   GL256762  38.332   1.231   5.867
 4370POPC   C1A56763  38.542   1.385   6.307
 4370POPC   D2A56764  38.700   1.522   6.741
 4370POPC   C3A56765  38.363   1.393   7.026
 4370POPC   C4A56766  37.983   1.242   7.264
 4370POPC   C1B56767  38.294   0.928   6.122
 4370POPC   C2B56768  38.307   0.936   6.544
 4370POPC   C3B56769  38.343   0.885   6.980
 4370POPC   C4B56770  38.545   0.793   7.379
 4371POPC   NC356771  43.509  13.458   5.034
 4371POPC   PO456772  42.985  13.570   5.315
 4371POPC   GL156773  43.030  13.407   5.738
 4371POPC   GL256774  42.764  13.176   5.830
 4371POPC   C1A56775  43.277  13.569   6.095
 4371POPC   D2A56776  43.478  13.830   6.431
 4371POPC   C3A56777  43.507  13.778   6.908
 4371POPC   C4A56778  43.288  13.927   7.289
 4371POPC   C1B56779  42.770  13.452   6.197
 4371POPC   C2B56780  43.034  13.576   6.546
 4371POPC   C3B56781  42.977  13.791   6.915
 4371POPC   C4B56782  42.933  13.473   7.208
 4372POPC   NC356783  26.168  13.433   5.426
 4372POPC   PO456784  26.208  14.108   5.470
 4372POPC   GL156785  26.103  13.809   5.769
 4372POPC   GL256786  25.756  13.796   5.850
 4372POPC   C1A56787  26.126  13.594   6.165
 4372POPC   D2A56788  26.335  13.436   6.563
 4372POPC   C3A56789  26.141  13.376   6.965
 4372POPC   C4A56790  26.201  13.588   7.366
 4372POPC   C1B56791  25.705  13.923   6.249
 4372POPC   C2B56792  25.913  13.781   6.605
 4372POPC   C3B56793  25.784  13.760   7.017
 4372POPC   C4B56794  25.699  13.447   7.300
 4373POPC   NC356795  41.244  43.373   5.263
 4373POPC   PO456796  41.877  43.088   5.387
 4373POPC   GL156797  41.581  42.993   5.721
 4373POPC   GL256798  41.560  43.313   5.866
 4373POPC   C1A56799  41.411  42.918   6.147
 4373POPC   D2A56800  41.569  43.087   6.528
 4373POPC   C3A56801  41.331  43.125   6.904
 4373POPC   C4A56802  41.416  43.389   7.245
 4373POPC   C1B56803  41.916  43.092   6.119
 4373POPC   C2B56804  42.074  43.145   6.577
 4373POPC   C3B56805  41.852  43.241   7.002
 4373POPC   C4B56806  41.795  43.126   7.467
 4374POPC   NC356807  18.828  34.859   5.494
 4374POPC   PO456808  19.172  34.314   5.389
 4374POPC   GL156809  19.037  34.482   5.778
 4374POPC   GL256810  18.712  34.569   5.889
 4374POPC   C1A56811  19.173  34.404   6.169
 4374POPC   D2A56812  19.068  34.381   6.588
 4374POPC   C3A56813  19.312  34.133   6.843
 4374POPC   C4A56814  19.246  34.304   7.217
 4374POPC   C1B56815  18.754  34.676   6.291
 4374POPC   C2B56816  18.857  34.855   6.674
 4374POPC   C3B56817  18.842  34.615   7.021
 4374POPC   C4B56818  18.998  34.685   7.438
 4375POPC   NC356819  25.589  19.884   5.454
 4375POPC   PO456820  25.021  19.559   5.608
 4375POPC   GL156821  25.363  19.634   5.884
 4375POPC   GL256822  25.393  19.997   5.918
 4375POPC   C1A56823  25.502  19.683   6.323
 4375POPC   D2A56824  25.331  19.742   6.726
 4375POPC   C3A56825  25.576  19.752   7.096
 4375POPC   C4A56826  25.730  19.344   7.297
 4375POPC   C1B56827  25.638  20.178   6.268
 4375POPC   C2B56828  25.664  20.137   6.707
 4375POPC   C3B56829  25.517  20.412   6.998
 4375POPC   C4B56830  25.276  20.203   7.217
 4376POPC   NC356831  35.758  26.251   5.640
 4376POPC   PO456832  35.200  25.979   5.405
 4376POPC   GL156833  35.282  26.143   5.851
 4376POPC   GL256834  35.349  25.791   6.007
 4376POPC   C1A56835  35.320  26.183   6.330
 4376POPC   D2A56836  35.239  25.846   6.668
 4376POPC   C3A56837  35.386  25.904   7.105
 4376POPC   C4A56838  35.294  26.217   7.424
 4376POPC   C1B56839  34.942  25.816   6.243
 4376POPC   C2B56840  34.733  25.916   6.659
 4376POPC   C3B56841  34.876  26.021   7.118
 4376POPC   C4B56842  35.006  25.779   7.501
 4377POPC   NC356843   6.952   7.378   5.288
 4377POPC   PO456844   7.340   7.878   5.293
 4377POPC   GL156845   7.278   7.501   5.679
 4377POPC   GL256846   7.567   7.428   5.894
 4377POPC   C1A56847   7.214   7.595   6.191
 4377POPC   D2A56848   7.232   7.380   6.635
 4377POPC   C3A56849   7.175   7.633   7.004
 4377POPC   C4A56850   7.426   7.585   7.370
 4377POPC   C1B56851   7.487   7.165   6.256
 4377POPC   C2B56852   7.666   7.073   6.663
 4377POPC   C3B56853   7.471   7.162   7.071
 4377POPC   C4B56854   7.347   7.129   7.534
 4378POPC   NC356855   2.488  42.741   5.424
 4378POPC   PO456856   2.805  43.337   5.320
 4378POPC   GL156857   2.737  43.107   5.738
 4378POPC   GL256858   3.023  43.162   6.000
 4378POPC   C1A56859   2.545  43.045   6.152
 4378POPC   D2A56860   2.391  43.146   6.603
 4378POPC   C3A56861   2.565  43.219   7.044
 4378POPC   C4A56862   2.901  42.990   7.284
 4378POPC   C1B56863   2.949  43.198   6.482
 4378POPC   C2B56864   3.069  43.335   6.922
 4378POPC   C3B56865   3.161  43.426   7.364
 4378POPC   C4B56866   3.242  43.560   7.790
 4379POPC   NC356867   9.095  23.277   5.428
 4379POPC   PO456868   8.706  22.658   5.575
 4379POPC   GL156869   8.888  22.971   5.825
 4379POPC   GL256870   9.224  22.971   5.838
 4379POPC   C1A56871   8.929  22.980   6.260
 4379POPC   D2A56872   8.684  23.018   6.595
 4379POPC   C3A56873   8.964  23.130   6.880
 4379POPC   C4A56874   8.788  23.086   7.275
 4379POPC   C1B56875   9.370  22.727   6.186
 4379POPC   C2B56876   9.431  22.899   6.560
 4379POPC   C3B56877   9.532  22.810   6.958
 4379POPC   C4B56878   9.296  22.996   7.257
 4380POPC   NC356879  20.811  27.035   5.389
 4380POPC   PO456880  20.286  26.593   5.410
 4380POPC   GL156881  20.431  26.790   5.769
 4380POPC   GL256882  20.782  26.705   5.787
 4380POPC   C1A56883  20.563  26.851   6.215
 4380POPC   D2A56884  20.739  26.971   6.594
 4380POPC   C3A56885  20.519  26.838   6.947
 4380POPC   C4A56886  20.474  27.064   7.335
 4380POPC   C1B56887  20.911  26.472   6.144
 4380POPC   C2B56888  21.066  26.525   6.551
 4380POPC   C3B56889  21.010  26.678   6.939
 4380POPC   C4B56890  20.829  26.690   7.338
 4381POPC   NC356891  11.012  19.963   5.409
 4381POPC   PO456892  10.382  19.972   5.383
 4381POPC   GL156893  10.493  20.023   5.809
 4381POPC   GL256894  10.223  20.255   5.834
 4381POPC   C1A56895  10.516  19.738   6.209
 4381POPC   D2A56896  10.387  19.581   6.638
 4381POPC   C3A56897  10.585  19.785   7.029
 4381POPC   C4A56898  10.714  19.693   7.487
 4381POPC   C1B56899  10.355  20.229   6.269
 4381POPC   C2B56900  10.265  20.089   6.672
 4381POPC   C3B56901  10.267  20.194   7.091
 4381POPC   C4B56902  10.489  20.150   7.458
 4382POPC   NC356903  33.081   7.502   5.565
 4382POPC   PO456904  33.499   7.019   5.339
 4382POPC   GL156905  33.304   7.057   5.774
 4382POPC   GL256906  32.953   7.176   5.917
 4382POPC   C1A56907  33.366   7.336   6.158
 4382POPC   D2A56908  33.283   7.580   6.526
 4382POPC   C3A56909  33.358   7.398   6.906
 4382POPC   C4A56910  33.134   7.288   7.279
 4382POPC   C1B56911  32.851   7.359   6.299
 4382POPC   C2B56912  32.850   7.366   6.750
 4382POPC   C3B56913  32.660   7.450   7.143
 4382POPC   C4B56914  32.614   7.492   7.549
 4383POPC   NC356915  22.774  44.452   5.375
 4383POPC   PO456916  22.872  43.786   5.275
 4383POPC   GL156917  22.840  43.725   5.697
 4383POPC   GL256918  23.188  43.618   5.686
 4383POPC   C1A56919  22.621  43.825   6.099
 4383POPC   D2A56920  22.618  44.014   6.519
 4383POPC   C3A56921  22.742  43.811   6.908
 4383POPC   C4A56922  22.981  44.046   7.217
 4383POPC   C1B56923  23.121  43.654   6.126
 4383POPC   C2B56924  23.107  43.548   6.593
 4383POPC   C3B56925  23.252  43.662   7.008
 4383POPC   C4B56926  23.220  43.673   7.475
 4384POPC   NC356927   1.838  40.258   5.201
 4384POPC   PO456928   2.171  39.667   5.315
 4384POPC   GL156929   1.969  39.970   5.637
 4384POPC   GL256930   1.686  40.223   5.696
 4384POPC   C1A56931   2.042  40.123   6.075
 4384POPC   D2A56932   1.907  39.923   6.469
 4384POPC   C3A56933   2.164  39.788   6.797
 4384POPC   C4A56934   2.161  39.949   7.211
 4384POPC   C1B56935   1.562  40.272   6.160
 4384POPC   C2B56936   1.673  40.356   6.587
 4384POPC   C3B56937   1.880  40.324   6.972
 4384POPC   C4B56938   1.678  40.123   7.321
 4385POPC   NC356939  27.989   9.782   5.485
 4385POPC   PO456940  27.409   9.461   5.373
 4385POPC   GL156941  27.519   9.535   5.781
 4385POPC   GL256942  27.839   9.370   5.785
 4385POPC   C1A56943  27.353   9.623   6.192
 4385POPC   D2A56944  27.500   9.531   6.617
 4385POPC   C3A56945  27.577   9.870   6.958
 4385POPC   C4A56946  27.451   9.778   7.397
 4385POPC   C1B56947  28.079   9.512   6.179
 4385POPC   C2B56948  28.027   9.517   6.662
 4385POPC   C3B56949  27.758   9.411   7.061
 4385POPC   C4B56950  27.672   9.329   7.516
 4386POPC   NC356951  28.296  26.812   5.341
 4386POPC   PO456952  28.727  27.138   5.739
 4386POPC   GL156953  28.332  26.899   5.845
 4386POPC   GL256954  28.269  26.500   5.849
 4386POPC   C1A56955  27.972  26.861   6.102
 4386POPC   D2A56956  27.914  26.739   6.542
 4386POPC   C3A56957  28.333  26.849   6.710
 4386POPC   C4A56958  28.486  26.893   7.127
 4386POPC   C1B56959  28.124  26.202   6.221
 4386POPC   C2B56960  27.993  26.227   6.679
 4386POPC   C3B56961  28.068  26.568   7.019
 4386POPC   C4B56962  28.258  26.564   7.452
 4387POPC   NC356963  42.568  31.879   5.701
 4387POPC   PO456964  42.261  32.400   5.374
 4387POPC   GL156965  42.396  32.345   5.840
 4387POPC   GL256966  42.279  32.053   6.080
 4387POPC   C1A56967  42.567  32.461   6.252
 4387POPC   D2A56968  42.358  32.590   6.643
 4387POPC   C3A56969  42.596  32.635   6.988
 4387POPC   C4A56970  42.622  32.361   7.271
 4387POPC   C1B56971  42.040  32.399   6.281
 4387POPC   C2B56972  41.852  32.293   6.682
 4387POPC   C3B56973  42.094  32.307   7.033
 4387POPC   C4B56974  42.188  32.612   7.324
 4388POPC   NC356975  36.111   5.594   5.330
 4388POPC   PO456976  36.225   6.257   5.401
 4388POPC   GL156977  36.053   5.931   5.726
 4388POPC   GL256978  36.197   5.621   5.864
 4388POPC   C1A56979  35.819   5.830   6.130
 4388POPC   D2A56980  35.928   6.003   6.528
 4388POPC   C3A56981  35.818   5.828   6.890
 4388POPC   C4A56982  35.902   5.918   7.322
 4388POPC   C1B56983  36.335   5.904   6.180
 4388POPC   C2B56984  36.443   6.081   6.585
 4388POPC   C3B56985  36.325   5.913   6.992
 4388POPC   C4B56986  36.603   5.628   7.189
 4389POPC   NC356987  25.840  35.963   5.254
 4389POPC   PO456988  26.414  35.788   5.617
 4389POPC   GL156989  26.170  36.066   5.865
 4389POPC   GL256990  25.859  36.138   5.728
 4389POPC   C1A56991  26.086  36.235   6.282
 4389POPC   D2A56992  26.328  36.378   6.618
 4389POPC   C3A56993  26.250  36.213   7.015
 4389POPC   C4A56994  26.002  36.389   7.297
 4389POPC   C1B56995  25.633  36.139   6.095
 4389POPC   C2B56996  25.677  35.974   6.492
 4389POPC   C3B56997  25.774  36.238   6.840
 4389POPC   C4B56998  25.560  36.195   7.233
 4390POPC   NC356999  37.290  27.001   5.458
 4390POPC   PO457000  37.853  26.682   5.510
 4390POPC   GL157001  37.755  26.962   5.817
 4390POPC   GL257002  37.443  26.833   5.923
 4390POPC   C1A57003  37.927  26.915   6.226
 4390POPC   D2A57004  38.188  26.872   6.571
 4390POPC   C3A57005  38.033  27.116   6.951
 4390POPC   C4A57006  37.959  26.973   7.397
 4390POPC   C1B57007  37.581  26.542   6.251
 4390POPC   C2B57008  37.723  26.573   6.675
 4390POPC   C3B57009  37.631  26.802   7.038
 4390POPC   C4B57010  37.455  27.110   7.340
 4391POPC   NC357011   0.702  23.390   5.514
 4391POPC   PO457012   0.215  23.707   5.347
 4391POPC   GL157013   0.490  23.794   5.725
 4391POPC   GL257014   0.741  24.056   5.699
 4391POPC   C1A57015   0.554  23.601   6.142
 4391POPC   D2A57016   0.306  23.459   6.474
 4391POPC   C3A57017   0.446  23.603   6.857
 4391POPC   C4A57018   0.442  23.727   7.280
 4391POPC   C1B57019   0.577  24.108   6.122
 4391POPC   C2B57020   0.445  23.992   6.527
 4391POPC   C3B57021   0.575  24.098   6.932
 4391POPC   C4B57022   0.623  24.243   7.341
 4392POPC   NC357023  40.151  19.627   5.480
 4392POPC   PO457024  40.246  20.264   5.541
 4392POPC   GL157025  40.065  20.012   5.833
 4392POPC   GL257026  39.708  19.896   5.715
 4392POPC   C1A57027  40.152  19.806   6.226
 4392POPC   D2A57028  40.345  19.956   6.613
 4392POPC   C3A57029  40.257  19.806   6.991
 4392POPC   C4A57030  40.025  19.536   7.146
 4392POPC   C1B57031  39.675  20.013   6.162
 4392POPC   C2B57032  39.816  19.974   6.589
 4392POPC   C3B57033  39.629  19.827   6.937
 4392POPC   C4B57034  39.527  19.479   7.189
 4393POPC   NC357035  32.075  31.811   5.524
 4393POPC   PO457036  32.605  31.473   5.451
 4393POPC   GL157037  32.351  31.406   5.805
 4393POPC   GL257038  32.406  31.035   5.822
 4393POPC   C1A57039  32.120  31.568   6.186
 4393POPC   D2A57040  32.008  31.746   6.606
 4393POPC   C3A57041  32.334  31.757   6.934
 4393POPC   C4A57042  32.174  31.593   7.304
 4393POPC   C1B57043  32.397  31.139   6.235
 4393POPC   C2B57044  32.376  31.377   6.598
 4393POPC   C3B57045  32.354  31.238   6.982
 4393POPC   C4B57046  32.352  31.108   7.382
 4394POPC   NC357047  16.328  17.527   5.452
 4394POPC   PO457048  16.975  17.546   5.205
 4394POPC   GL157049  16.844  17.410   5.646
 4394POPC   GL257050  16.578  17.157   5.723
 4394POPC   C1A57051  16.680  17.563   6.054
 4394POPC   D2A57052  16.820  17.679   6.493
 4394POPC   C3A57053  16.733  17.385   6.823
 4394POPC   C4A57054  16.626  17.518   7.272
 4394POPC   C1B57055  16.316  17.165   6.109
 4394POPC   C2B57056  16.321  17.465   6.470
 4394POPC   C3B57057  16.243  17.474   6.928
 4394POPC   C4B57058  16.174  17.209   7.295
 4395POPC   NC357059   4.825  16.065   5.428
 4395POPC   PO457060   5.217  15.638   5.557
 4395POPC   GL157061   4.844  15.735   5.893
 4395POPC   GL257062   4.630  16.063   5.903
 4395POPC   C1A57063   4.908  15.791   6.367
 4395POPC   D2A57064   4.854  15.675   6.817
 4395POPC   C3A57065   5.100  15.964   7.090
 4395POPC   C4A57066   5.469  16.045   7.410
 4395POPC   C1B57067   4.725  16.270   6.308
 4395POPC   C2B57068   4.812  16.248   6.752
 4395POPC   C3B57069   4.890  16.408   7.210
 4395POPC   C4B57070   5.229  16.488   7.541
 4396POPC   NC357071   9.907  33.437   5.292
 4396POPC   PO457072   9.721  32.909   5.515
 4396POPC   GL157073   9.887  32.976   5.884
 4396POPC   GL257074   9.907  33.331   5.790
 4396POPC   C1A57075   9.805  32.931   6.325
 4396POPC   D2A57076   9.611  33.199   6.635
 4396POPC   C3A57077   9.558  32.987   7.040
 4396POPC   C4A57078   9.733  32.738   7.390
 4396POPC   C1B57079  10.083  33.337   6.186
 4396POPC   C2B57080   9.984  33.577   6.524
 4396POPC   C3B57081  10.009  33.405   6.906
 4396POPC   C4B57082   9.942  33.553   7.300
 4397POPC   NC357083  20.776  41.407   4.871
 4397POPC   PO457084  20.474  41.741   5.206
 4397POPC   GL157085  20.472  41.778   5.703
 4397POPC   GL257086  20.752  41.981   5.861
 4397POPC   C1A57087  20.353  41.624   6.140
 4397POPC   D2A57088  20.335  41.615   6.614
 4397POPC   C3A57089  20.633  41.478   6.974
 4397POPC   C4A57090  20.656  41.130   7.316
 4397POPC   C1B57091  20.725  41.913   6.344
 4397POPC   C2B57092  20.631  41.998   6.810
 4397POPC   C3B57093  20.673  41.937   7.251
 4397POPC   C4B57094  20.679  42.005   7.707
 4398POPC   NC357095   0.742  27.466   5.339
 4398POPC   PO457096   1.397  27.686   5.352
 4398POPC   GL157097   1.140  27.717   5.761
 4398POPC   GL257098   0.943  28.019   5.837
 4398POPC   C1A57099   1.292  27.557   6.176
 4398POPC   D2A57100   1.607  27.563   6.511
 4398POPC   C3A57101   1.495  27.463   6.920
 4398POPC   C4A57102   1.257  27.592   7.222
 4398POPC   C1B57103   0.921  27.881   6.278
 4398POPC   C2B57104   1.117  27.757   6.688
 4398POPC   C3B57105   1.032  28.011   7.067
 4398POPC   C4B57106   0.966  27.915   7.514
 4399POPC   NC357107  40.874  14.209   5.389
 4399POPC   PO457108  40.576  14.796   5.299
 4399POPC   GL157109  40.480  14.630   5.718
 4399POPC   GL257110  40.804  14.688   5.785
 4399POPC   C1A57111  40.585  14.307   6.054
 4399POPC   D2A57112  40.913  14.374   6.327
 4399POPC   C3A57113  40.860  14.286   6.778
 4399POPC   C4A57114  41.056  14.583   7.038
 4399POPC   C1B57115  40.584  14.790   6.199
 4399POPC   C2B57116  40.464  14.525   6.560
 4399POPC   C3B57117  40.533  14.602   7.021
 4399POPC   C4B57118  40.457  14.651   7.472
 4400POPC   NC357119  31.021  28.309   5.462
 4400POPC   PO457120  30.326  28.115   5.503
 4400POPC   GL157121  30.609  28.366   5.795
 4400POPC   GL257122  30.898  28.606   5.854
 4400POPC   C1A57123  30.813  28.290   6.234
 4400POPC   D2A57124  30.532  28.348   6.584
 4400POPC   C3A57125  30.653  28.239   7.036
 4400POPC   C4A57126  30.802  28.140   7.472
 4400POPC   C1B57127  30.564  28.722   6.161
 4400POPC   C2B57128  30.544  28.875   6.560
 4400POPC   C3B57129  30.545  28.725   6.946
 4400POPC   C4B57130  30.546  28.934   7.295
 4401POPC   NC357131  36.774  33.477   5.229
 4401POPC   PO457132  37.305  33.897   5.413
 4401POPC   GL157133  37.068  33.995   5.788
 4401POPC   GL257134  36.926  33.665   5.702
 4401POPC   C1A57135  37.059  34.079   6.262
 4401POPC   D2A57136  37.282  33.876   6.634
 4401POPC   C3A57137  37.196  33.852   7.072
 4401POPC   C4A57138  36.820  33.988   7.313
 4401POPC   C1B57139  36.832  33.629   6.132
 4401POPC   C2B57140  36.613  33.571   6.520
 4401POPC   C3B57141  36.753  33.663   6.904
 4401POPC   C4B57142  36.926  33.470   7.262
 4402POPC   NC357143  26.288  15.180   5.362
 4402POPC   PO457144  25.699  15.437   5.375
 4402POPC   GL157145  25.900  15.286   5.798
 4402POPC   GL257146  26.164  15.015   5.817
 4402POPC   C1A57147  26.121  15.249   6.249
 4402POPC   D2A57148  26.366  15.335   6.632
 4402POPC   C3A57149  26.064  15.501   6.906
 4402POPC   C4A57150  25.643  15.583   7.065
 4402POPC   C1B57151  25.770  14.864   6.064
 4402POPC   C2B57152  25.677  14.804   6.538
 4402POPC   C3B57153  25.853  15.007   6.925
 4402POPC   C4B57154  26.280  14.968   7.088
 4403POPC   NC357155   1.908  15.382   5.564
 4403POPC   PO457156   2.209  14.761   5.566
 4403POPC   GL157157   2.106  15.017   5.880
 4403POPC   GL257158   1.768  14.989   5.850
 4403POPC   C1A57159   2.038  15.204   6.276
 4403POPC   D2A57160   2.255  15.413   6.605
 4403POPC   C3A57161   2.078  15.187   6.958
 4403POPC   C4A57162   2.178  15.193   7.399
 4403POPC   C1B57163   1.687  14.827   6.254
 4403POPC   C2B57164   1.617  15.068   6.617
 4403POPC   C3B57165   1.570  15.299   6.976
 4403POPC   C4B57166   1.684  15.050   7.312
 4404POPC   NC357167   0.653  16.325   5.417
 4404POPC   PO457168   0.183  15.793   5.316
 4404POPC   GL157169   0.209  15.930   5.745
 4404POPC   GL257170   0.535  16.033   5.820
 4404POPC   C1A57171   0.099  16.243   6.087
 4404POPC   D2A57172   0.202  16.355   6.529
 4404POPC   C3A57173   0.404  16.065   6.827
 4404POPC   C4A57174   0.318  15.890   7.226
 4404POPC   C1B57175   0.781  15.910   6.204
 4404POPC   C2B57176   1.048  15.924   6.581
 4404POPC   C3B57177   0.925  15.953   6.999
 4404POPC   C4B57178   0.783  15.789   7.398
 4405POPC   NC357179  37.666  36.612   5.329
 4405POPC   PO457180  38.143  37.082   5.456
 4405POPC   GL157181  37.829  37.026   5.815
 4405POPC   GL257182  37.571  36.757   5.811
 4405POPC   C1A57183  37.676  36.980   6.262
 4405POPC   D2A57184  37.924  36.940   6.634
 4405POPC   C3A57185  37.744  36.857   7.013
 4405POPC   C4A57186  37.901  37.160   7.293
 4405POPC   C1B57187  37.244  36.677   6.099
 4405POPC   C2B57188  37.228  36.819   6.515
 4405POPC   C3B57189  37.125  36.685   6.933
 4405POPC   C4B57190  37.277  36.838   7.333
 4406POPC   NC357191  20.394  35.754   5.368
 4406POPC   PO457192  20.841  36.273   5.443
 4406POPC   GL157193  20.849  36.352   5.885
 4406POPC   GL257194  20.513  36.228   5.933
 4406POPC   C1A57195  20.876  36.138   6.288
 4406POPC   D2A57196  20.552  36.049   6.568
 4406POPC   C3A57197  20.516  36.210   6.966
 4406POPC   C4A57198  20.773  36.284   7.312
 4406POPC   C1B57199  20.542  35.794   6.106
 4406POPC   C2B57200  20.313  35.594   6.451
 4406POPC   C3B57201  20.225  35.777   6.851
 4406POPC   C4B57202  20.470  35.771   7.223
 4407POPC   NC357203  32.595   6.431   5.406
 4407POPC   PO457204  32.022   6.783   5.395
 4407POPC   GL157205  32.184   6.564   5.774
 4407POPC   GL257206  32.545   6.451   5.910
 4407POPC   C1A57207  32.135   6.592   6.215
 4407POPC   D2A57208  32.402   6.646   6.533
 4407POPC   C3A57209  32.228   6.551   6.890
 4407POPC   C4A57210  32.470   6.542   7.226
 4407POPC   C1B57211  32.540   6.906   6.088
 4407POPC   C2B57212  32.439   7.142   6.501
 4407POPC   C3B57213  32.574   6.976   6.942
 4407POPC   C4B57214  32.565   7.007   7.404
 4408POPC   NC357215  34.032   1.422   5.321
 4408POPC   PO457216  33.459   1.080   5.516
 4408POPC   GL157217  33.831   1.237   5.764
 4408POPC   GL257218  34.045   0.948   5.801
 4408POPC   C1A57219  34.020   1.255   6.202
 4408POPC   D2A57220  33.769   1.283   6.561
 4408POPC   C3A57221  33.960   1.260   6.977
 4408POPC   C4A57222  33.647   1.338   7.353
 4408POPC   C1B57223  33.684   0.871   6.120
 4408POPC   C2B57224  33.568   0.747   6.520
 4408POPC   C3B57225  33.607   0.900   6.930
 4408POPC   C4B57226  33.866   0.880   7.314
 4409POPC   NC357227   3.092   9.439   5.564
 4409POPC   PO457228   2.675   9.958   5.460
 4409POPC   GL157229   2.848   9.907   5.846
 4409POPC   GL257230   2.766   9.548   5.938
 4409POPC   C1A57231   3.016   9.833   6.266
 4409POPC   D2A57232   3.025   9.432   6.495
 4409POPC   C3A57233   3.054   9.580   6.898
 4409POPC   C4A57234   2.810   9.929   6.996
 4409POPC   C1B57235   2.455   9.391   6.247
 4409POPC   C2B57236   2.467   9.325   6.698
 4409POPC   C3B57237   2.601   9.485   7.098
 4409POPC   C4B57238   2.479   9.368   7.510
 4410POPC   NC357239  34.678  41.938   5.411
 4410POPC   PO457240  34.650  41.293   5.400
 4410POPC   GL157241  34.381  41.597   5.694
 4410POPC   GL257242  34.507  41.924   5.876
 4410POPC   C1A57243  34.283  41.568   6.137
 4410POPC   D2A57244  34.549  41.547   6.506
 4410POPC   C3A57245  34.412  41.385   6.904
 4410POPC   C4A57246  34.474  41.556   7.364
 4410POPC   C1B57247  34.856  41.882   6.172
 4410POPC   C2B57248  34.893  41.948   6.605
 4410POPC   C3B57249  34.569  41.884   6.908
 4410POPC   C4B57250  34.850  41.868   7.231
 4411POPC   NC357251  13.776  33.259   5.182
 4411POPC   PO457252  13.721  32.701   5.305
 4411POPC   GL157253  13.676  32.742   5.729
 4411POPC   GL257254  13.735  33.119   5.717
 4411POPC   C1A57255  13.520  32.693   6.155
 4411POPC   D2A57256  13.404  32.961   6.493
 4411POPC   C3A57257  13.576  32.900   6.874
 4411POPC   C4A57258  13.725  32.847   7.272
 4411POPC   C1B57259  13.666  33.267   6.170
 4411POPC   C2B57260  13.824  33.260   6.616
 4411POPC   C3B57261  13.555  33.394   6.978
 4411POPC   C4B57262  13.565  33.322   7.429
 4412POPC   NC357263   4.309   5.493   5.522
 4412POPC   PO457264   4.584   6.145   5.526
 4412POPC   GL157265   4.357   5.933   5.817
 4412POPC   GL257266   4.662   5.702   5.854
 4412POPC   C1A57267   4.105   6.033   6.206
 4412POPC   D2A57268   4.315   6.182   6.593
 4412POPC   C3A57269   4.157   6.075   7.046
 4412POPC   C4A57270   4.061   6.175   7.522
 4412POPC   C1B57271   4.588   5.851   6.268
 4412POPC   C2B57272   4.536   5.706   6.694
 4412POPC   C3B57273   4.587   5.803   7.140
 4412POPC   C4B57274   4.445   5.822   7.567
 4413POPC   NC357275  23.860   4.536   5.462
 4413POPC   PO457276  23.347   4.150   5.373
 4413POPC   GL157277  23.472   4.080   5.827
 4413POPC   GL257278  23.542   4.431   5.861
 4413POPC   C1A57279  23.768   3.876   6.180
 4413POPC   D2A57280  23.983   4.089   6.496
 4413POPC   C3A57281  23.713   4.175   6.824
 4413POPC   C4A57282  23.808   4.109   7.245
 4413POPC   C1B57283  23.569   4.332   6.295
 4413POPC   C2B57284  23.401   4.558   6.629
 4413POPC   C3B57285  23.340   4.480   7.046
 4413POPC   C4B57286  23.538   4.508   7.432
 4414POPC   NC357287  19.112  17.713   5.502
 4414POPC   PO457288  18.667  17.324   5.290
 4414POPC   GL157289  18.962  17.316   5.754
 4414POPC   GL257290  19.296  17.357   5.882
 4414POPC   C1A57291  18.967  17.306   6.246
 4414POPC   D2A57292  19.170  17.041   6.608
 4414POPC   C3A57293  19.034  17.237   7.012
 4414POPC   C4A57294  18.701  17.557   6.959
 4414POPC   C1B57295  19.311  17.713   6.194
 4414POPC   C2B57296  19.125  17.806   6.616
 4414POPC   C3B57297  19.238  17.728   7.047
 4414POPC   C4B57298  19.444  17.795   7.439
 4415POPC   NC357299  19.622  34.254   5.310
 4415POPC   PO457300  20.070  34.753   5.401
 4415POPC   GL157301  19.891  34.475   5.719
 4415POPC   GL257302  19.538  34.590   5.691
 4415POPC   C1A57303  20.047  34.448   6.156
 4415POPC   D2A57304  19.971  34.784   6.466
 4415POPC   C3A57305  20.059  34.748   6.907
 4415POPC   C4A57306  20.027  34.422   7.248
 4415POPC   C1B57307  19.598  34.658   6.119
 4415POPC   C2B57308  19.580  34.434   6.500
 4415POPC   C3B57309  19.608  34.539   6.957
 4415POPC   C4B57310  19.565  34.739   7.398
 4416POPC   NC357311  33.298  21.648   5.315
 4416POPC   PO457312  33.925  21.428   5.362
 4416POPC   GL157313  33.789  21.346   5.759
 4416POPC   GL257314  34.115  21.374   5.884
 4416POPC   C1A57315  33.646  21.528   6.149
 4416POPC   D2A57316  33.826  21.738   6.509
 4416POPC   C3A57317  33.609  21.579   6.855
 4416POPC   C4A57318  33.587  21.416   7.265
 4416POPC   C1B57319  34.020  21.164   6.270
 4416POPC   C2B57320  34.077  21.325   6.675
 4416POPC   C3B57321  34.073  21.356   7.108
 4416POPC   C4B57322  34.276  21.079   7.400
 4417POPC   NC357323  23.548   2.389   5.445
 4417POPC   PO457324  23.902   2.833   5.033
 4417POPC   GL157325  23.919   2.746   5.538
 4417POPC   GL257326  24.003   2.403   5.741
 4417POPC   C1A57327  23.812   2.779   6.020
 4417POPC   D2A57328  23.879   2.766   6.474
 4417POPC   C3A57329  23.542   2.754   6.788
 4417POPC   C4A57330  23.567   2.638   7.233
 4417POPC   C1B57331  24.097   2.360   6.229
 4417POPC   C2B57332  24.122   2.367   6.733
 4417POPC   C3B57333  24.054   2.727   7.030
 4417POPC   C4B57334  24.024   2.755   7.499
 4418POPC   NC357335  12.579  40.999   5.140
 4418POPC   PO457336  13.134  40.753   5.318
 4418POPC   GL157337  12.936  40.818   5.702
 4418POPC   GL257338  12.581  40.777   5.673
 4418POPC   C1A57339  12.837  41.006   6.084
 4418POPC   D2A57340  12.907  40.782   6.428
 4418POPC   C3A57341  12.920  40.764   6.892
 4418POPC   C4A57342  12.778  40.795   7.353
 4418POPC   C1B57343  12.547  40.558   6.109
 4418POPC   C2B57344  12.509  40.542   6.609
 4418POPC   C3B57345  12.617  40.386   7.051
 4418POPC   C4B57346  12.471  40.406   7.511
 4419POPC   NC357347  44.839   3.252   5.355
 4419POPC   PO457348  44.344   3.661   5.242
 4419POPC   GL157349  44.639   3.619   5.673
 4419POPC   GL257350  44.587   3.264   5.809
 4419POPC   C1A57351  44.989   3.626   6.078
 4419POPC   D2A57352   0.190   3.708   6.515
 4419POPC   C3A57353  44.996   3.534   6.911
 4419POPC   C4A57354  44.614   3.662   7.145
 4419POPC   C1B57355  44.503   3.551   6.157
 4419POPC   C2B57356  44.501   3.710   6.591
 4419POPC   C3B57357  44.188   3.546   6.884
 4419POPC   C4B57358  44.174   3.457   7.327
 4420POPC   NC357359  41.986  20.256   5.562
 4420POPC   PO457360  42.335  19.658   5.506
 4420POPC   GL157361  42.321  19.753   5.883
 4420POPC   GL257362  42.464  20.075   5.837
 4420POPC   C1A57363  42.246  19.910   6.271
 4420POPC   D2A57364  42.001  19.804   6.596
 4420POPC   C3A57365  42.238  19.628   6.916
 4420POPC   C4A57366  41.964  19.750   7.243
 4420POPC   C1B57367  42.712  20.198   6.219
 4420POPC   C2B57368  42.618  20.369   6.665
 4420POPC   C3B57369  42.404  20.121   7.032
 4420POPC   C4B57370  42.461  19.779   7.375
 4421POPC   NC357371  41.259  28.202   5.461
 4421POPC   PO457372  41.673  28.750   5.367
 4421POPC   GL157373  41.602  28.517   5.756
 4421POPC   GL257374  41.759  28.200   5.619
 4421POPC   C1A57375  41.468  28.443   6.214
 4421POPC   D2A57376  41.604  28.605   6.632
 4421POPC   C3A57377  41.413  28.390   6.977
 4421POPC   C4A57378  41.138  28.000   7.021
 4421POPC   C1B57379  41.797  28.075   6.041
 4421POPC   C2B57380  41.874  28.154   6.473
 4421POPC   C3B57381  41.849  28.091   6.896
 4421POPC   C4B57382  41.770  28.191   7.319
 4422POPC   NC357383  26.582  12.882   5.428
 4422POPC   PO457384  27.186  12.608   5.372
 4422POPC   GL157385  26.887  12.693   5.774
 4422POPC   GL257386  26.533  12.512   5.800
 4422POPC   C1A57387  26.690  12.930   6.123
 4422POPC   D2A57388  26.800  13.259   6.415
 4422POPC   C3A57389  26.718  13.085   6.807
 4422POPC   C4A57390  26.799  12.871   7.162
 4422POPC   C1B57391  26.312  12.600   6.219
 4422POPC   C2B57392  26.289  12.917   6.588
 4422POPC   C3B57393  26.304  12.763   7.037
 4422POPC   C4B57394  26.495  12.605   7.452
 4423POPC   NC357395  40.140  27.918   5.672
 4423POPC   PO457396  39.968  28.513   5.359
 4423POPC   GL157397  40.151  28.506   5.788
 4423POPC   GL257398  40.186  28.256   6.035
 4423POPC   C1A57399  40.178  28.729   6.181
 4423POPC   D2A57400  39.956  28.574   6.560
 4423POPC   C3A57401  40.122  28.392   6.946
 4423POPC   C4A57402  40.427  28.453   7.281
 4423POPC   C1B57403  40.012  28.043   6.378
 4423POPC   C2B57404  39.707  28.111   6.684
 4423POPC   C3B57405  39.649  27.996   7.096
 4423POPC   C4B57406  39.881  28.107   7.429
 4424POPC   NC357407  14.170  40.506   5.409
 4424POPC   PO457408  14.016  41.092   5.132
 4424POPC   GL157409  14.146  40.995   5.631
 4424POPC   GL257410  14.455  40.761   5.752
 4424POPC   C1A57411  14.155  40.886   6.135
 4424POPC   D2A57412  14.211  40.519   6.450
 4424POPC   C3A57413  14.248  40.613   6.884
 4424POPC   C4A57414  14.284  41.066   7.011
 4424POPC   C1B57415  14.644  40.701   6.197
 4424POPC   C2B57416  14.707  40.686   6.665
 4424POPC   C3B57417  14.684  40.711   7.135
 4424POPC   C4B57418  14.692  40.707   7.582
 4425POPC   NC357419   0.843   2.612   5.479
 4425POPC   PO457420   1.336   3.136   5.471
 4425POPC   GL157421   1.189   2.841   5.788
 4425POPC   GL257422   1.437   2.573   5.891
 4425POPC   C1A57423   1.035   2.641   6.173
 4425POPC   D2A57424   0.982   2.599   6.598
 4425POPC   C3A57425   0.899   2.971   6.750
 4425POPC   C4A57426   1.010   3.016   7.148
 4425POPC   C1B57427   1.502   2.885   6.188
 4425POPC   C2B57428   1.365   3.089   6.538
 4425POPC   C3B57429   1.518   3.032   6.949
 4425POPC   C4B57430   1.439   2.821   7.337
 4426POPC   NC357431  21.102   1.242   5.230
 4426POPC   PO457432  20.436   1.126   5.209
 4426POPC   GL157433  20.523   1.224   5.738
 4426POPC   GL257434  20.667   1.549   5.849
 4426POPC   C1A57435  20.603   1.246   6.248
 4426POPC   D2A57436  20.521   1.066   6.663
 4426POPC   C3A57437  20.719   1.210   7.040
 4426POPC   C4A57438  20.836   1.483   7.359
 4426POPC   C1B57439  20.265   1.573   6.066
 4426POPC   C2B57440  20.202   1.543   6.497
 4426POPC   C3B57441  20.361   1.552   6.907
 4426POPC   C4B57442  20.376   1.772   7.280
 4427POPC   NC357443   8.549  16.766   5.125
 4427POPC   PO457444   8.160  16.384   5.398
 4427POPC   GL157445   8.125  16.514   5.851
 4427POPC   GL257446   8.344  16.795   5.926
 4427POPC   C1A57447   8.052  16.573   6.321
 4427POPC   D2A57448   8.265  16.629   6.725
 4427POPC   C3A57449   8.128  16.746   7.152
 4427POPC   C4A57450   8.038  16.516   7.551
 4427POPC   C1B57451   8.354  17.013   6.357
 4427POPC   C2B57452   8.266  17.143   6.793
 4427POPC   C3B57453   8.576  17.008   7.091
 4427POPC   C4B57454   8.687  17.168   7.491
 4428POPC   NC357455  11.415  30.388   5.481
 4428POPC   PO457456  11.108  31.005   5.467
 4428POPC   GL157457  11.301  30.983   5.841
 4428POPC   GL257458  11.293  30.639   5.920
 4428POPC   C1A57459  11.448  30.999   6.263
 4428POPC   D2A57460  11.690  30.747   6.546
 4428POPC   C3A57461  11.689  30.846   6.973
 4428POPC   C4A57462  11.350  30.794   7.238
 4428POPC   C1B57463  10.962  30.359   6.117
 4428POPC   C2B57464  10.877  30.114   6.494
 4428POPC   C3B57465  10.961  30.300   6.894
 4428POPC   C4B57466  10.871  30.507   7.292
 4429POPC   NC357467  31.874  35.474   5.129
 4429POPC   PO457468  32.459  35.307   5.433
 4429POPC   GL157469  32.436  35.552   5.787
 4429POPC   GL257470  32.085  35.612   5.751
 4429POPC   C1A57471  32.633  35.490   6.191
 4429POPC   D2A57472  32.473  35.283   6.588
 4429POPC   C3A57473  32.351  35.508   6.968
 4429POPC   C4A57474  32.001  35.521   7.278
 4429POPC   C1B57475  32.119  35.523   6.215
 4429POPC   C2B57476  31.948  35.473   6.649
 4429POPC   C3B57477  31.894  35.150   6.950
 4429POPC   C4B57478  31.637  35.038   7.295
 4430POPC   NC357479  16.336  26.283   5.342
 4430POPC   PO457480  16.945  26.143   5.551
 4430POPC   GL157481  16.552  26.193   5.785
 4430POPC   GL257482  16.393  25.846   5.689
 4430POPC   C1A57483  16.408  26.405   6.177
 4430POPC   D2A57484  16.283  26.485   6.609
 4430POPC   C3A57485  16.569  26.294   6.923
 4430POPC   C4A57486  16.900  26.106   7.133
 4430POPC   C1B57487  16.583  25.852   6.138
 4430POPC   C2B57488  16.734  25.809   6.575
 4430POPC   C3B57489  16.875  25.591   6.933
 4430POPC   C4B57490  16.735  25.661   7.346
 4431POPC   NC357491   4.673   4.770   5.488
 4431POPC   PO457492   4.095   5.097   5.564
 4431POPC   GL157493   4.307   4.905   5.850
 4431POPC   GL257494   4.556   5.140   5.839
 4431POPC   C1A57495   4.336   4.926   6.271
 4431POPC   D2A57496   4.255   5.250   6.541
 4431POPC   C3A57497   4.322   5.047   6.899
 4431POPC   C4A57498   4.151   4.914   7.243
 4431POPC   C1B57499   4.659   5.336   6.215
 4431POPC   C2B57500   4.772   5.172   6.603
 4431POPC   C3B57501   4.726   5.338   6.995
 4431POPC   C4B57502   4.427   5.350   7.314
 4432POPC   NC357503   2.635   6.237   5.473
 4432POPC   PO457504   2.819   5.556   5.367
 4432POPC   GL157505   2.936   5.864   5.717
 4432POPC   GL257506   2.612   5.880   5.859
 4432POPC   C1A57507   2.967   6.121   6.133
 4432POPC   D2A57508   3.023   6.293   6.570
 4432POPC   C3A57509   3.152   5.995   6.884
 4432POPC   C4A57510   2.954   5.931   7.290
 4432POPC   C1B57511   2.470   6.273   6.095
 4432POPC   C2B57512   2.463   6.280   6.527
 4432POPC   C3B57513   2.631   6.139   6.921
 4432POPC   C4B57514   2.440   6.136   7.317
 4433POPC   NC357515  21.648  34.824   5.562
 4433POPC   PO457516  20.984  34.918   5.561
 4433POPC   GL157517  21.270  34.742   5.878
 4433POPC   GL257518  21.383  34.389   5.794
 4433POPC   C1A57519  21.481  34.839   6.256
 4433POPC   D2A57520  21.622  34.989   6.647
 4433POPC   C3A57521  21.400  34.950   7.032
 4433POPC   C4A57522  21.161  34.931   7.401
 4433POPC   C1B57523  21.646  34.374   6.164
 4433POPC   C2B57524  21.777  34.512   6.596
 4433POPC   C3B57525  21.571  34.480   6.993
 4433POPC   C4B57526  21.118  34.450   7.125
 4434POPC   NC357527  21.005   7.518   5.637
 4434POPC   PO457528  20.433   7.201   5.484
 4434POPC   GL157529  20.525   7.513   5.837
 4434POPC   GL257530  20.688   7.862   5.798
 4434POPC   C1A57531  20.717   7.325   6.225
 4434POPC   D2A57532  20.821   7.371   6.668
 4434POPC   C3A57533  20.508   7.449   7.024
 4434POPC   C4A57534  20.478   7.389   7.498
 4434POPC   C1B57535  20.845   7.811   6.223
 4434POPC   C2B57536  20.797   7.870   6.642
 4434POPC   C3B57537  20.913   7.789   7.044
 4434POPC   C4B57538  20.729   8.006   7.365
 4435POPC   NC357539  31.646   1.570   5.384
 4435POPC   PO457540  31.622   0.953   5.458
 4435POPC   GL157541  31.523   1.049   5.883
 4435POPC   GL257542  31.552   1.402   5.863
 4435POPC   C1A57543  31.339   1.195   6.290
 4435POPC   D2A57544  31.457   1.434   6.681
 4435POPC   C3A57545  31.438   1.245   7.118
 4435POPC   C4A57546  31.316   1.181   7.567
 4435POPC   C1B57547  31.835   1.379   6.236
 4435POPC   C2B57548  31.928   1.658   6.601
 4435POPC   C3B57549  31.824   1.602   7.030
 4435POPC   C4B57550  31.644   1.733   7.425
 4436POPC   NC357551  20.062   7.502   5.554
 4436POPC   PO457552  19.722   7.059   5.211
 4436POPC   GL157553  19.655   7.137   5.651
 4436POPC   GL257554  19.963   7.054   5.792
 4436POPC   C1A57555  19.621   7.385   6.063
 4436POPC   D2A57556  19.885   7.404   6.441
 4436POPC   C3A57557  19.790   7.410   6.852
 4436POPC   C4A57558  19.590   7.289   7.215
 4436POPC   C1B57559  20.213   7.231   6.120
 4436POPC   C2B57560  20.346   7.198   6.549
 4436POPC   C3B57561  20.207   7.024   6.896
 4436POPC   C4B57562  20.072   7.222   7.265
 4437POPC   NC357563   4.454  44.875   5.307
 4437POPC   PO457564   4.209  44.255   5.478
 4437POPC   GL157565   4.310  44.434   5.874
 4437POPC   GL257566   4.430  44.782   5.802
 4437POPC   C1A57567   4.354  44.344   6.334
 4437POPC   D2A57568   4.467  44.521   6.725
 4437POPC   C3A57569   4.296  44.955   6.708
 4437POPC   C4A57570   4.060   0.195   7.049
 4437POPC   C1B57571   4.693  44.661   6.121
 4437POPC   C2B57572   4.787  44.845   6.467
 4437POPC   C3B57573   4.805  44.887   6.858
 4437POPC   C4B57574   4.497  44.879   7.170
 4438POPC   NC357575  41.005  14.981   5.392
 4438POPC   PO457576  40.447  15.370   5.464
 4438POPC   GL157577  40.692  15.200   5.852
 4438POPC   GL257578  41.073  15.218   5.853
 4438POPC   C1A57579  40.791  15.228   6.325
 4438POPC   D2A57580  40.584  15.006   6.712
 4438POPC   C3A57581  40.774  15.019   7.146
 4438POPC   C4A57582  40.745  15.437   7.217
 4438POPC   C1B57583  41.113  14.849   6.135
 4438POPC   C2B57584  41.027  14.835   6.562
 4438POPC   C3B57585  41.077  15.206   6.810
 4438POPC   C4B57586  41.298  15.022   7.156
 4439POPC   NC357587   4.136  23.618   5.470
 4439POPC   PO457588   4.591  23.466   5.084
 4439POPC   GL157589   4.603  23.763   5.605
 4439POPC   GL257590   4.327  23.682   5.925
 4439POPC   C1A57591   4.740  23.930   6.044
 4439POPC   D2A57592   4.582  23.828   6.471
 4439POPC   C3A57593   4.311  24.064   6.766
 4439POPC   C4A57594   4.406  23.872   7.165
 4439POPC   C1B57595   4.456  23.373   6.258
 4439POPC   C2B57596   4.338  23.262   6.689
 4439POPC   C3B57597   4.290  23.369   7.139
 4439POPC   C4B57598   4.173  23.506   7.558
 4440POPC   NC357599  38.952   3.114   5.607
 4440POPC   PO457600  39.368   3.463   5.179
 4440POPC   GL157601  39.293   3.515   5.633
 4440POPC   GL257602  39.451   3.225   5.744
 4440POPC   C1A57603  39.080   3.634   6.041
 4440POPC   D2A57604  38.932   3.457   6.460
 4440POPC   C3A57605  38.995   3.591   6.910
 4440POPC   C4A57606  39.184   3.878   7.184
 4440POPC   C1B57607  39.477   3.344   6.193
 4440POPC   C2B57608  39.640   3.480   6.571
 4440POPC   C3B57609  39.508   3.487   6.987
 4440POPC   C4B57610  39.290   3.187   7.226
 4441POPC   NC357611  37.223   3.119   5.281
 4441POPC   PO457612  36.769   2.568   5.429
 4441POPC   GL157613  36.997   2.815   5.722
 4441POPC   GL257614  37.214   2.574   5.828
 4441POPC   C1A57615  36.927   2.837   6.168
 4441POPC   D2A57616  36.671   3.056   6.424
 4441POPC   C3A57617  36.776   2.989   6.837
 4441POPC   C4A57618  36.827   2.940   7.259
 4441POPC   C1B57619  37.344   2.579   6.221
 4441POPC   C2B57620  37.212   2.754   6.609
 4441POPC   C3B57621  37.072   2.561   6.974
 4441POPC   C4B57622  37.304   2.800   7.244
 4442POPC   NC357623   8.995  30.946   5.029
 4442POPC   PO457624   8.791  30.544   5.543
 4442POPC   GL157625   8.687  30.787   5.836
 4442POPC   GL257626   8.984  30.805   5.974
 4442POPC   C1A57627   8.555  30.514   6.177
 4442POPC   D2A57628   8.789  30.404   6.555
 4442POPC   C3A57629   8.722  30.684   6.893
 4442POPC   C4A57630   8.801  30.538   7.290
 4442POPC   C1B57631   8.845  30.870   6.384
 4442POPC   C2B57632   9.181  30.742   6.648
 4442POPC   C3B57633   9.255  30.851   7.045
 4442POPC   C4B57634   9.230  30.722   7.466
 4443POPC   NC357635  20.856   3.458   5.410
 4443POPC   PO457636  20.123   3.514   5.477
 4443POPC   GL157637  20.425   3.487   5.826
 4443POPC   GL257638  20.781   3.538   5.893
 4443POPC   C1A57639  20.485   3.327   6.255
 4443POPC   D2A57640  20.314   3.095   6.587
 4443POPC   C3A57641  20.350   3.326   6.955
 4443POPC   C4A57642  20.479   3.266   7.392
 4443POPC   C1B57643  20.830   3.747   6.276
 4443POPC   C2B57644  20.616   3.681   6.670
 4443POPC   C3B57645  20.783   3.568   7.079
 4443POPC   C4B57646  20.703   3.822   7.414
 4444POPC   NC357647  41.981  18.116   5.004
 4444POPC   PO457648  42.372  18.338   5.519
 4444POPC   GL157649  42.362  18.317   5.921
 4444POPC   GL257650  42.699  18.422   6.014
 4444POPC   C1A57651  42.084  18.239   6.259
 4444POPC   D2A57652  42.116  18.134   6.696
 4444POPC   C3A57653  42.070  18.485   7.016
 4444POPC   C4A57654  42.295  18.598   7.399
 4444POPC   C1B57655  42.581  18.097   6.326
 4444POPC   C2B57656  42.635  18.018   6.739
 4444POPC   C3B57657  42.523  18.253   7.091
 4444POPC   C4B57658  42.780  18.471   7.469
 4445POPC   NC357659  27.936   6.118   5.528
 4445POPC   PO457660  27.644   5.536   5.469
 4445POPC   GL157661  27.552   5.836   5.788
 4445POPC   GL257662  27.336   6.134   5.677
 4445POPC   C1A57663  27.418   5.712   6.200
 4445POPC   D2A57664  27.307   5.447   6.550
 4445POPC   C3A57665  27.532   5.665   6.841
 4445POPC   C4A57666  27.533   5.733   7.258
 4445POPC   C1B57667  27.448   6.222   6.117
 4445POPC   C2B57668  27.539   6.237   6.567
 4445POPC   C3B57669  27.430   6.167   7.024
 4445POPC   C4B57670  27.552   6.177   7.527
 4446POPC   NC357671  36.343  12.658   5.488
 4446POPC   PO457672  35.826  13.053   5.329
 4446POPC   GL157673  36.033  13.171   5.717
 4446POPC   GL257674  36.014  12.841   5.825
 4446POPC   C1A57675  36.235  13.219   6.139
 4446POPC   D2A57676  36.361  13.057   6.549
 4446POPC   C3A57677  36.083  13.143   6.890
 4446POPC   C4A57678  36.207  13.063   7.277
 4446POPC   C1B57679  36.131  12.700   6.235
 4446POPC   C2B57680  35.879  12.752   6.598
 4446POPC   C3B57681  35.926  12.671   7.026
 4446POPC   C4B57682  35.748  12.879   7.326
 4447POPC   NC357683  31.003   7.955   5.586
 4447POPC   PO457684  30.824   7.564   5.131
 4447POPC   GL157685  30.678   7.533   5.614
 4447POPC   GL257686  30.985   7.500   5.829
 4447POPC   C1A57687  30.411   7.323   5.991
 4447POPC   D2A57688  30.357   7.167   6.457
 4447POPC   C3A57689  30.479   7.336   6.893
 4447POPC   C4A57690  30.626   7.233   7.341
 4447POPC   C1B57691  30.724   7.686   6.171
 4447POPC   C2B57692  30.741   7.719   6.633
 4447POPC   C3B57693  30.842   7.669   7.100
 4447POPC   C4B57694  30.839   7.762   7.578
 4448POPC   NC357695   8.613  27.672   5.328
 4448POPC   PO457696   8.026  27.989   5.337
 4448POPC   GL157697   8.191  27.697   5.661
 4448POPC   GL257698   8.403  27.926   5.794
 4448POPC   C1A57699   8.089  27.493   6.089
 4448POPC   D2A57700   7.993  27.707   6.517
 4448POPC   C3A57701   8.088  27.489   6.936
 4448POPC   C4A57702   8.262  27.126   7.142
 4448POPC   C1B57703   8.370  27.888   6.236
 4448POPC   C2B57704   8.491  27.727   6.674
 4448POPC   C3B57705   8.533  27.696   7.139
 4448POPC   C4B57706   8.526  28.006   7.481
 4449POPC   NC357707  22.683   2.046   5.281
 4449POPC   PO457708  23.376   1.965   5.277
 4449POPC   GL157709  23.100   1.920   5.634
 4449POPC   GL257710  22.762   1.738   5.697
 4449POPC   C1A57711  23.141   1.914   6.075
 4449POPC   D2A57712  23.009   1.811   6.491
 4449POPC   C3A57713  22.956   2.178   6.741
 4449POPC   C4A57714  22.998   2.159   7.182
 4449POPC   C1B57715  22.597   1.788   6.131
 4449POPC   C2B57716  22.498   1.921   6.573
 4449POPC   C3B57717  22.727   1.778   6.947
 4449POPC   C4B57718  22.617   1.763   7.394
 4450POPC   NC357719  34.414   8.745   5.389
 4450POPC   PO457720  35.083   8.884   5.395
 4450POPC   GL157721  34.787   8.935   5.760
 4450POPC   GL257722  34.468   9.152   5.735
 4450POPC   C1A57723  34.618   8.933   6.187
 4450POPC   D2A57724  34.624   9.174   6.571
 4450POPC   C3A57725  34.694   8.940   6.950
 4450POPC   C4A57726  34.380   8.719   7.161
 4450POPC   C1B57727  34.131   9.085   6.073
 4450POPC   C2B57728  34.104   9.216   6.536
 4450POPC   C3B57729  34.274   9.270   6.992
 4450POPC   C4B57730  34.205   9.514   7.396
 4451POPC   NC357731  13.850  24.972   5.153
 4451POPC   PO457732  13.315  25.060   5.560
 4451POPC   GL157733  13.544  25.292   5.822
 4451POPC   GL257734  13.850  25.260   5.592
 4451POPC   C1A57735  13.318  25.400   6.215
 4451POPC   D2A57736  13.442  25.530   6.614
 4451POPC   C3A57737  13.396  25.288   6.982
 4451POPC   C4A57738  13.684  25.394   7.323
 4451POPC   C1B57739  14.005  25.110   5.985
 4451POPC   C2B57740  13.888  25.249   6.400
 4451POPC   C3B57741  13.886  25.264   6.848
 4451POPC   C4B57742  13.971  24.958   7.171
 4452POPC   NC357743  21.819  15.846   5.162
 4452POPC   PO457744  22.298  16.308   5.462
 4452POPC   GL157745  22.230  16.003   5.778
 4452POPC   GL257746  21.890  16.110   5.911
 4452POPC   C1A57747  22.279  15.861   6.210
 4452POPC   D2A57748  22.129  15.756   6.613
 4452POPC   C3A57749  22.227  15.916   7.011
 4452POPC   C4A57750  22.183  16.000   7.443
 4452POPC   C1B57751  21.750  15.908   6.305
 4452POPC   C2B57752  21.664  15.917   6.767
 4452POPC   C3B57753  21.763  15.792   7.219
 4452POPC   C4B57754  21.668  15.562   7.626
 4453POPC   NC357755  10.194  24.100   5.626
 4453POPC   PO457756  10.672  24.542   5.347
 4453POPC   GL157757  10.524  24.518   5.806
 4453POPC   GL257758  10.224  24.638   5.742
 4453POPC   C1A57759  10.375  24.516   6.294
 4453POPC   D2A57760  10.310  24.272   6.711
 4453POPC   C3A57761  10.481  24.417   7.131
 4453POPC   C4A57762  10.317  24.381   7.607
 4453POPC   C1B57763  10.283  24.966   6.074
 4453POPC   C2B57764  10.474  25.003   6.473
 4453POPC   C3B57765  10.416  24.896   6.904
 4453POPC   C4B57766  10.334  24.828   7.368
 4454POPC   NC357767   8.413   9.817   5.473
 4454POPC   PO457768   7.788  10.081   5.495
 4454POPC   GL157769   7.896   9.607   5.638
 4454POPC   GL257770   8.080   9.730   5.828
 4454POPC   C1A57771   7.974   9.346   6.096
 4454POPC   D2A57772   8.339   9.408   6.423
 4454POPC   C3A57773   8.315   9.551   6.873
 4454POPC   C4A57774   8.467   9.511   7.303
 4454POPC   C1B57775   8.127   9.841   6.223
 4454POPC   C2B57776   7.941   9.742   6.570
 4454POPC   C3B57777   7.948   9.911   6.983
 4454POPC   C4B57778   8.223   9.951   7.334
 4455POPC   NC357779  15.736   4.738   5.074
 4455POPC   PO457780  16.089   5.244   5.325
 4455POPC   GL157781  15.974   5.066   5.718
 4455POPC   GL257782  16.131   4.747   5.806
 4455POPC   C1A57783  15.882   5.210   6.130
 4455POPC   D2A57784  15.688   5.321   6.523
 4455POPC   C3A57785  15.869   5.166   6.906
 4455POPC   C4A57786  15.666   5.075   7.319
 4455POPC   C1B57787  15.879   4.703   6.201
 4455POPC   C2B57788  15.741   4.748   6.618
 4455POPC   C3B57789  15.925   4.665   7.035
 4455POPC   C4B57790  16.199   4.951   7.266
 4456POPC   NC357791   0.034  14.061   5.408
 4456POPC   PO457792  44.380  13.948   5.525
 4456POPC   GL157793  44.651  14.184   5.785
 4456POPC   GL257794  44.773  14.531   5.772
 4456POPC   C1A57795  44.600  14.248   6.208
 4456POPC   D2A57796  44.667  14.475   6.605
 4456POPC   C3A57797  44.760  14.244   7.018
 4456POPC   C4A57798  44.825  14.101   7.466
 4456POPC   C1B57799  44.603  14.767   6.151
 4456POPC   C2B57800  44.361  14.915   6.550
 4456POPC   C3B57801  44.368  14.927   7.018
 4456POPC   C4B57802  44.507  14.640   7.349
 4457POPC   NC357803  28.510  38.896   5.353
 4457POPC   PO457804  28.129  38.317   5.351
 4457POPC   GL157805  28.325  38.516   5.688
 4457POPC   GL257806  28.140  38.774   5.785
 4457POPC   C1A57807  28.439  38.466   6.120
 4457POPC   D2A57808  28.362  38.611   6.532
 4457POPC   C3A57809  28.523  38.417   6.934
 4457POPC   C4A57810  28.788  38.283   7.284
 4457POPC   C1B57811  28.151  38.945   6.182
 4457POPC   C2B57812  27.963  38.910   6.584
 4457POPC   C3B57813  27.953  38.603   6.900
 4457POPC   C4B57814  28.172  38.607   7.291
 4458POPC   NC357815   0.557   4.918   5.378
 4458POPC   PO457816   0.002   5.327   5.287
 4458POPC   GL157817   0.286   5.243   5.687
 4458POPC   GL257818   0.421   4.900   5.849
 4458POPC   C1A57819   0.459   5.310   6.117
 4458POPC   D2A57820   0.378   5.240   6.529
 4458POPC   C3A57821   0.621   5.331   6.884
 4458POPC   C4A57822   0.499   5.454   7.301
 4458POPC   C1B57823   0.204   4.830   6.223
 4458POPC   C2B57824   0.317   4.722   6.628
 4458POPC   C3B57825   0.374   4.651   7.024
 4458POPC   C4B57826   0.548   4.965   7.239
 4459POPC   NC357827  36.632  38.822   5.511
 4459POPC   PO457828  36.978  38.323   5.176
 4459POPC   GL157829  37.011  38.473   5.632
 4459POPC   GL257830  36.838  38.212   5.802
 4459POPC   C1A57831  36.899  38.628   6.083
 4459POPC   D2A57832  37.051  38.505   6.484
 4459POPC   C3A57833  36.826  38.563   6.860
 4459POPC   C4A57834  37.080  38.600   7.215
 4459POPC   C1B57835  36.575  38.200   6.188
 4459POPC   C2B57836  36.415  38.426   6.542
 4459POPC   C3B57837  36.369  38.269   6.958
 4459POPC   C4B57838  36.676  38.171   7.249
 4460POPC   NC357839  16.763  19.063   5.224
 4460POPC   PO457840  16.320  18.765   5.341
 4460POPC   GL157841  16.533  18.991   5.744
 4460POPC   GL257842  16.915  19.019   5.821
 4460POPC   C1A57843  16.610  19.209   6.195
 4460POPC   D2A57844  16.797  19.244   6.630
 4460POPC   C3A57845  16.774  18.846   6.857
 4460POPC   C4A57846  16.829  18.743   7.298
 4460POPC   C1B57847  17.058  18.944   6.291
 4460POPC   C2B57848  17.230  18.990   6.738
 4460POPC   C3B57849  17.039  19.203   7.133
 4460POPC   C4B57850  16.900  19.544   7.458
 4461POPC   NC357851  27.400  27.837   5.668
 4461POPC   PO457852  27.984  28.091   5.401
 4461POPC   GL157853  27.804  28.194   5.835
 4461POPC   GL257854  27.587  28.513   5.884
 4461POPC   C1A57855  27.579  28.104   6.244
 4461POPC   D2A57856  27.408  28.045   6.666
 4461POPC   C3A57857  27.756  28.212   6.928
 4461POPC   C4A57858  27.899  28.571   7.173
 4461POPC   C1B57859  27.298  28.523   6.270
 4461POPC   C2B57860  27.439  28.547   6.669
 4461POPC   C3B57861  27.417  28.697   7.063
 4461POPC   C4B57862  27.419  28.485   7.422
 4462POPC   NC357863  18.358  32.236   5.377
 4462POPC   PO457864  18.447  32.939   5.416
 4462POPC   GL157865  18.169  32.683   5.683
 4462POPC   GL257866  18.409  32.789   5.921
 4462POPC   C1A57867  18.163  32.348   6.033
 4462POPC   D2A57868  18.448  32.231   6.388
 4462POPC   C3A57869  18.370  32.125   6.833
 4462POPC   C4A57870  18.202  32.173   7.259
 4462POPC   C1B57871  18.641  32.697   6.288
 4462POPC   C2B57872  18.553  32.617   6.708
 4462POPC   C3B57873  18.527  32.577   7.108
 4462POPC   C4B57874  18.732  32.367   7.421
 4463POPC   NC357875  38.687  11.027   5.677
 4463POPC   PO457876  39.325  11.036   5.472
 4463POPC   GL157877  39.149  11.213   5.822
 4463POPC   GL257878  39.042  11.524   5.727
 4463POPC   C1A57879  39.195  11.246   6.242
 4463POPC   D2A57880  38.997  11.085   6.586
 4463POPC   C3A57881  39.236  10.982   6.939
 4463POPC   C4A57882  39.051  11.138   7.306
 4463POPC   C1B57883  38.998  11.706   6.107
 4463POPC   C2B57884  38.884  11.651   6.540
 4463POPC   C3B57885  38.964  11.470   6.913
 4463POPC   C4B57886  39.048  11.686   7.272
 4464POPC   NC357887  30.273   9.535   5.485
 4464POPC   PO457888  30.890   9.839   5.420
 4464POPC   GL157889  30.968   9.646   5.822
 4464POPC   GL257890  30.622   9.680   5.849
 4464POPC   C1A57891  31.022   9.736   6.277
 4464POPC   D2A57892  30.893   9.612   6.712
 4464POPC   C3A57893  31.024   9.844   7.108
 4464POPC   C4A57894  31.023  10.139   7.486
 4464POPC   C1B57895  30.529   9.566   6.249
 4464POPC   C2B57896  30.368   9.439   6.622
 4464POPC   C3B57897  30.478   9.558   7.012
 4464POPC   C4B57898  30.330   9.376   7.369
 4465POPC   NC357899   8.743  40.745   5.453
 4465POPC   PO457900   9.474  40.905   5.471
 4465POPC   GL157901   9.141  40.918   5.740
 4465POPC   GL257902   9.164  40.621   5.870
 4465POPC   C1A57903   8.918  40.906   6.162
 4465POPC   D2A57904   9.128  40.757   6.531
 4465POPC   C3A57905   8.967  40.931   6.867
 4465POPC   C4A57906   8.862  40.850   7.282
 4465POPC   C1B57907   8.914  40.397   6.180
 4465POPC   C2B57908   8.880  40.252   6.601
 4465POPC   C3B57909   8.957  40.400   7.002
 4465POPC   C4B57910   8.715  40.384   7.389
 4466POPC   NC357911  25.937  21.159   5.305
 4466POPC   PO457912  26.058  21.785   5.385
 4466POPC   GL157913  25.956  21.475   5.706
 4466POPC   GL257914  26.224  21.231   5.711
 4466POPC   C1A57915  25.842  21.193   6.080
 4466POPC   D2A57916  25.887  21.387   6.487
 4466POPC   C3A57917  26.084  21.294   6.881
 4466POPC   C4A57918  25.919  21.293   7.317
 4466POPC   C1B57919  26.291  21.392   6.116
 4466POPC   C2B57920  26.431  21.264   6.495
 4466POPC   C3B57921  26.613  21.233   6.889
 4466POPC   C4B57922  26.438  21.306   7.284
 4467POPC   NC357923  25.611  22.781   5.145
 4467POPC   PO457924  26.215  22.967   5.267
 4467POPC   GL157925  26.030  22.837   5.732
 4467POPC   GL257926  25.818  22.539   5.814
 4467POPC   C1A57927  26.156  22.686   6.194
 4467POPC   D2A57928  25.991  22.661   6.652
 4467POPC   C3A57929  26.181  22.791   7.088
 4467POPC   C4A57930  26.182  23.100   7.482
 4467POPC   C1B57931  25.619  22.699   6.218
 4467POPC   C2B57932  25.481  22.800   6.653
 4467POPC   C3B57933  25.663  22.808   7.091
 4467POPC   C4B57934  25.687  22.986   7.542
 4468POPC   NC357935  29.094   2.796   5.441
 4468POPC   PO457936  29.332   2.269   5.190
 4468POPC   GL157937  29.202   2.394   5.701
 4468POPC   GL257938  28.918   2.562   5.884
 4468POPC   C1A57939  29.344   2.349   6.153
 4468POPC   D2A57940  29.478   2.600   6.531
 4468POPC   C3A57941  29.225   2.554   6.906
 4468POPC   C4A57942  29.210   2.839   7.253
 4468POPC   C1B57943  29.052   2.796   6.272
 4468POPC   C2B57944  28.937   3.032   6.674
 4468POPC   C3B57945  28.907   3.220   7.102
 4468POPC   C4B57946  28.773   3.012   7.520
 4469POPC   NC357947  17.455  14.827   5.114
 4469POPC   PO457948  17.226  15.155   5.607
 4469POPC   GL157949  17.574  15.058   5.807
 4469POPC   GL257950  17.610  14.758   5.663
 4469POPC   C1A57951  17.681  15.157   6.225
 4469POPC   D2A57952  17.468  15.381   6.517
 4469POPC   C3A57953  17.316  15.167   6.862
 4469POPC   C4A57954  17.053  15.296   7.208
 4469POPC   C1B57955  17.603  14.656   6.123
 4469POPC   C2B57956  17.767  14.741   6.567
 4469POPC   C3B57957  17.637  14.792   7.015
 4469POPC   C4B57958  17.289  14.869   7.296
 4470POPC   NC357959  35.814  24.653   5.389
 4470POPC   PO457960  35.238  24.363   5.125
 4470POPC   GL157961  35.297  24.351   5.622
 4470POPC   GL257962  35.512  24.558   5.806
 4470POPC   C1A57963  35.109  24.336   6.044
 4470POPC   D2A57964  35.214  24.540   6.428
 4470POPC   C3A57965  35.258  24.316   6.804
 4470POPC   C4A57966  35.228  24.340   7.237
 4470POPC   C1B57967  35.700  24.491   6.211
 4470POPC   C2B57968  35.741  24.595   6.621
 4470POPC   C3B57969  35.611  24.627   7.008
 4470POPC   C4B57970  35.547  24.993   7.149
 4471POPC   NC357971  22.006   8.576   5.548
 4471POPC   PO457972  22.581   8.232   5.512
 4471POPC   GL157973  22.376   8.378   5.871
 4471POPC   GL257974  22.240   8.089   6.073
 4471POPC   C1A57975  22.271   8.549   6.271
 4471POPC   D2A57976  22.040   8.340   6.590
 4471POPC   C3A57977  22.310   8.152   6.868
 4471POPC   C4A57978  22.206   8.434   7.212
 4471POPC   C1B57979  21.841   8.006   6.275
 4471POPC   C2B57980  21.810   7.854   6.680
 4471POPC   C3B57981  21.869   8.017   7.079
 4471POPC   C4B57982  22.233   7.953   7.355
 4472POPC   NC357983  30.976  17.960   5.420
 4472POPC   PO457984  30.672  18.535   5.494
 4472POPC   GL157985  30.798  18.262   5.815
 4472POPC   GL257986  30.492  18.099   5.713
 4472POPC   C1A57987  30.826  18.323   6.284
 4472POPC   D2A57988  31.107  18.330   6.621
 4472POPC   C3A57989  30.965  18.167   7.026
 4472POPC   C4A57990  30.744  18.443   7.329
 4472POPC   C1B57991  30.437  18.059   6.116
 4472POPC   C2B57992  30.324  18.215   6.502
 4472POPC   C3B57993  30.492  18.220   6.897
 4472POPC   C4B57994  30.516  17.991   7.280
 4473POPC   NC357995  42.795  15.748   5.529
 4473POPC   PO457996  43.252  16.137   5.188
 4473POPC   GL157997  43.334  16.022   5.648
 4473POPC   GL257998  43.251  15.671   5.769
 4473POPC   C1A57999  43.442  16.037   6.114
 4473POPC   D2A58000  43.317  15.956   6.548
 4473POPC   C3A58001  43.408  16.090   6.971
 4473POPC   C4A58002  43.021  16.070   7.264
 4473POPC   C1B58003  42.979  15.734   6.179
 4473POPC   C2B58004  42.801  15.637   6.621
 4473POPC   C3B58005  42.673  15.748   7.076
 4473POPC   C4B58006  42.742  15.687   7.585
 4474POPC   NC358007  43.975  24.492   5.392
 4474POPC   PO458008  44.312  25.083   5.474
 4474POPC   GL158009  44.217  24.736   5.828
 4474POPC   GL258010  43.855  24.574   5.855
 4474POPC   C1A58011  44.135  24.481   6.253
 4474POPC   D2A58012  44.074  24.219   6.624
 4474POPC   C3A58013  44.139  24.400   7.034
 4474POPC   C4A58014  43.851  24.726   7.160
 4474POPC   C1B58015  43.610  24.225   6.011
 4474POPC   C2B58016  43.578  24.238   6.427
 4474POPC   C3B58017  43.626  24.375   6.836
 4474POPC   C4B58018  43.668  24.105   7.186
 4475POPC   NC358019  25.205  20.664   5.359
 4475POPC   PO458020  25.728  20.279   5.623
 4475POPC   GL158021  25.473  20.516   5.857
 4475POPC   GL258022  25.142  20.473   5.830
 4475POPC   C1A58023  25.363  20.777   6.196
 4475POPC   D2A58024  25.081  20.741   6.548
 4475POPC   C3A58025  25.255  20.843   6.951
 4475POPC   C4A58026  25.458  21.093   7.244
 4475POPC   C1B58027  25.140  20.305   6.239
 4475POPC   C2B58028  25.160  20.216   6.669
 4475POPC   C3B58029  24.935  20.446   6.961
 4475POPC   C4B58030  24.918  20.666   7.326
 4476POPC   NC358031  14.568  24.676   5.596
 4476POPC   PO458032  14.262  25.232   5.255
 4476POPC   GL158033  14.367  25.346   5.710
 4476POPC   GL258034  14.528  25.086   5.900
 4476POPC   C1A58035  14.282  25.516   6.161
 4476POPC   D2A58036  14.120  25.677   6.575
 4476POPC   C3A58037  14.303  25.544   6.961
 4476POPC   C4A58038  14.186  25.396   7.338
 4476POPC   C1B58039  14.398  25.025   6.345
 4476POPC   C2B58040  14.346  25.021   6.804
 4476POPC   C3B58041  14.594  25.125   7.136
 4476POPC   C4B58042  14.853  25.459   7.111
 4477POPC   NC358043  35.864  41.523   5.312
 4477POPC   PO458044  36.491  41.776   5.345
 4477POPC   GL158045  36.216  41.688   5.687
 4477POPC   GL258046  35.841  41.690   5.775
 4477POPC   C1A58047  36.271  41.490   6.083
 4477POPC   D2A58048  36.445  41.395   6.488
 4477POPC   C3A58049  36.200  41.419   6.878
 4477POPC   C4A58050  36.288  41.713   7.180
 4477POPC   C1B58051  35.832  41.738   6.178
 4477POPC   C2B58052  36.072  41.817   6.535
 4477POPC   C3B58053  35.880  41.949   6.909
 4477POPC   C4B58054  35.784  41.708   7.265
 4478POPC   NC358055  43.721   7.125   5.281
 4478POPC   PO458056  44.129   7.670   5.427
 4478POPC   GL158057  44.061   7.558   5.806
 4478POPC   GL258058  43.983   7.228   5.719
 4478POPC   C1A58059  44.084   7.485   6.228
 4478POPC   D2A58060  43.925   7.701   6.575
 4478POPC   C3A58061  43.989   7.481   6.923
 4478POPC   C4A58062  44.071   7.580   7.326
 4478POPC   C1B58063  43.675   7.226   6.034
 4478POPC   C2B58064  43.620   7.306   6.460
 4478POPC   C3B58065  43.535   7.160   6.859
 4478POPC   C4B58066  43.625   7.323   7.252
 4479POPC   NC358067  44.814  13.111   5.186
 4479POPC   PO458068  44.535  12.723   5.589
 4479POPC   GL158069  44.854  12.884   5.866
 4479POPC   GL258070  44.821  13.207   5.704
 4479POPC   C1A58071  44.817  12.869   6.338
 4479POPC   D2A58072  44.404  12.909   6.572
 4479POPC   C3A58073  44.449  12.855   7.014
 4479POPC   C4A58074  44.796  12.635   7.152
 4479POPC   C1B58075  44.794  13.328   6.116
 4479POPC   C2B58076  44.720  13.343   6.540
 4479POPC   C3B58077  44.872  13.086   6.848
 4479POPC   C4B58078  44.792  13.168   7.270
 4480POPC   NC358079  40.013  10.044   5.363
 4480POPC   PO458080  39.563   9.530   5.208
 4480POPC   GL158081  39.913   9.503   5.614
 4480POPC   GL258082  40.052   9.826   5.794
 4480POPC   C1A58083  39.999   9.459   6.103
 4480POPC   D2A58084  40.110   9.675   6.515
 4480POPC   C3A58085  39.827   9.601   6.869
 4480POPC   C4A58086  39.730   9.640   7.317
 4480POPC   C1B58087  39.896  10.028   6.159
 4480POPC   C2B58088  39.810  10.107   6.600
 4480POPC   C3B58089  40.050  10.038   6.979
 4480POPC   C4B58090  39.904  10.179   7.323
 4481POPC   NC358091  32.697  35.905   5.498
 4481POPC   PO458092  33.224  36.324   5.474
 4481POPC   GL158093  33.093  36.309   5.901
 4481POPC   GL258094  32.736  36.294   5.853
 4481POPC   C1A58095  33.087  36.437   6.352
 4481POPC   D2A58096  32.900  36.261   6.718
 4481POPC   C3A58097  33.152  36.159   7.086
 4481POPC   C4A58098  33.328  35.797   7.339
 4481POPC   C1B58099  32.772  36.025   6.230
 4481POPC   C2B58100  32.619  35.799   6.600
 4481POPC   C3B58101  32.738  35.863   7.005
 4481POPC   C4B58102  32.652  36.289   7.187
 4482POPC   NC358103  38.800  21.592   5.435
 4482POPC   PO458104  38.114  21.339   5.434
 4482POPC   GL158105  38.417  21.398   5.717
 4482POPC   GL258106  38.682  21.146   5.691
 4482POPC   C1A58107  38.410  21.393   6.155
 4482POPC   D2A58108  38.180  21.377   6.539
 4482POPC   C3A58109  38.415  21.510   6.885
 4482POPC   C4A58110  38.404  21.337   7.309
 4482POPC   C1B58111  38.841  21.118   6.110
 4482POPC   C2B58112  38.774  21.271   6.538
 4482POPC   C3B58113  38.678  21.072   6.931
 4482POPC   C4B58114  38.856  20.995   7.298
 4483POPC   NC358115  25.786  10.188   5.228
 4483POPC   PO458116  26.011   9.601   5.097
 4483POPC   GL158117  26.082   9.728   5.568
 4483POPC   GL258118  25.787   9.606   5.713
 4483POPC   C1A58119  26.216   9.693   6.069
 4483POPC   D2A58120  26.130   9.820   6.547
 4483POPC   C3A58121  26.250   9.833   7.031
 4483POPC   C4A58122  26.051   9.532   7.343
 4483POPC   C1B58123  25.716   9.811   6.110
 4483POPC   C2B58124  25.623   9.914   6.515
 4483POPC   C3B58125  25.757   9.787   6.911
 4483POPC   C4B58126  25.615   9.812   7.314
 4484POPC   NC358127  20.232  21.728   5.486
 4484POPC   PO458128  19.616  21.696   5.304
 4484POPC   GL158129  19.736  21.567   5.747
 4484POPC   GL258130  20.039  21.432   5.869
 4484POPC   C1A58131  19.531  21.303   6.065
 4484POPC   D2A58132  19.495  21.205   6.520
 4484POPC   C3A58133  19.608  21.553   6.817
 4484POPC   C4A58134  19.574  21.669   7.226
 4484POPC   C1B58135  19.961  21.440   6.299
 4484POPC   C2B58136  19.979  21.259   6.667
 4484POPC   C3B58137  20.160  21.312   7.052
 4484POPC   C4B58138  20.058  21.607   7.355
 4485POPC   NC358139  34.135  29.829   5.366
 4485POPC   PO458140  33.461  29.604   5.391
 4485POPC   GL158141  33.647  29.821   5.751
 4485POPC   GL258142  33.921  30.065   5.756
 4485POPC   C1A58143  33.688  29.733   6.178
 4485POPC   D2A58144  33.476  29.615   6.540
 4485POPC   C3A58145  33.733  29.712   6.876
 4485POPC   C4A58146  33.997  29.632   7.225
 4485POPC   C1B58147  34.014  30.133   6.179
 4485POPC   C2B58148  34.068  29.911   6.558
 4485POPC   C3B58149  34.220  30.016   6.990
 4485POPC   C4B58150  34.096  30.264   7.383
 4486POPC   NC358151  26.505  25.145   5.410
 4486POPC   PO458152  27.072  24.845   5.416
 4486POPC   GL158153  26.913  25.045   5.763
 4486POPC   GL258154  26.909  25.429   5.783
 4486POPC   C1A58155  26.663  25.097   6.136
 4486POPC   D2A58156  26.702  25.436   6.420
 4486POPC   C3A58157  26.675  25.360   6.880
 4486POPC   C4A58158  26.632  25.238   7.306
 4486POPC   C1B58159  27.145  25.295   6.160
 4486POPC   C2B58160  27.054  25.121   6.575
 4486POPC   C3B58161  27.201  25.127   6.996
 4486POPC   C4B58162  27.136  25.281   7.385
 4487POPC   NC358163   3.525  21.538   5.335
 4487POPC   PO458164   3.153  21.004   5.513
 4487POPC   GL158165   3.378  21.183   5.927
 4487POPC   GL258166   3.496  21.507   5.899
 4487POPC   C1A58167   3.445  21.359   6.391
 4487POPC   D2A58168   3.293  21.384   6.828
 4487POPC   C3A58169   3.674  21.320   7.080
 4487POPC   C4A58170   3.983  21.590   7.195
 4487POPC   C1B58171   3.572  21.832   6.227
 4487POPC   C2B58172   3.664  21.806   6.639
 4487POPC   C3B58173   3.503  21.816   7.030
 4487POPC   C4B58174   3.558  21.683   7.438
 4488POPC   NC358175  35.304  36.665   5.016
 4488POPC   PO458176  35.613  36.177   5.360
 4488POPC   GL158177  35.447  36.025   5.744
 4488POPC   GL258178  35.767  35.870   5.868
 4488POPC   C1A58179  35.127  36.073   6.094
 4488POPC   D2A58180  34.970  36.270   6.489
 4488POPC   C3A58181  35.029  36.040   6.870
 4488POPC   C4A58182  35.156  36.216   7.263
 4488POPC   C1B58183  35.659  36.165   6.193
 4488POPC   C2B58184  35.488  36.204   6.622
 4488POPC   C3B58185  35.633  36.142   7.061
 4488POPC   C4B58186  35.627  35.964   7.481
 4489POPC   NC358187  26.041  39.602   5.449
 4489POPC   PO458188  26.227  40.237   5.411
 4489POPC   GL158189  26.205  40.047   5.828
 4489POPC   GL258190  26.266  39.720   5.881
 4489POPC   C1A58191  25.899  39.956   6.186
 4489POPC   D2A58192  25.766  39.817   6.605
 4489POPC   C3A58193  25.824  40.135   6.903
 4489POPC   C4A58194  25.831  40.120   7.325
 4489POPC   C1B58195  26.396  39.864   6.268
 4489POPC   C2B58196  26.258  39.674   6.640
 4489POPC   C3B58197  26.156  39.808   7.052
 4489POPC   C4B58198  26.360  40.196   7.174
 4490POPC   NC358199   3.501  22.276   5.130
 4490POPC   PO458200   3.586  21.902   5.597
 4490POPC   GL158201   3.632  22.296   5.823
 4490POPC   GL258202   3.322  22.503   5.798
 4490POPC   C1A58203   3.775  22.317   6.259
 4490POPC   D2A58204   3.950  22.462   6.636
 4490POPC   C3A58205   3.721  22.270   6.937
 4490POPC   C4A58206   3.862  22.072   7.281
 4490POPC   C1B58207   3.265  22.287   6.183
 4490POPC   C2B58208   3.339  22.202   6.587
 4490POPC   C3B58209   3.195  22.360   6.947
 4490POPC   C4B58210   3.340  22.301   7.320
 4491POPC   NC358211   0.388  44.447   5.416
 4491POPC   PO458212  44.906  44.777   5.718
 4491POPC   GL158213   0.206  44.500   5.893
 4491POPC   GL258214   0.592  44.538   5.886
 4491POPC   C1A58215   0.296  44.594   6.311
 4491POPC   D2A58216   0.101  44.765   6.692
 4491POPC   C3A58217   0.276  44.513   7.017
 4491POPC   C4A58218   0.071  44.764   7.272
 4491POPC   C1B58219   0.716  44.886   6.159
 4491POPC   C2B58220   0.556  44.944   6.582
 4491POPC   C3B58221   0.555  44.946   7.009
 4491POPC   C4B58222   0.577  44.737   7.401
 4492POPC   NC358223  44.414  25.529   5.548
 4492POPC   PO458224   0.052  25.272   5.464
 4492POPC   GL158225  44.918  25.120   5.879
 4492POPC   GL258226  44.589  25.184   5.900
 4492POPC   C1A58227  44.975  25.102   6.311
 4492POPC   D2A58228  44.658  25.177   6.611
 4492POPC   C3A58229  44.733  25.326   7.005
 4492POPC   C4A58230  44.862  25.083   7.352
 4492POPC   C1B58231  44.318  25.239   6.240
 4492POPC   C2B58232  44.169  25.350   6.639
 4492POPC   C3B58233  44.241  25.537   7.033
 4492POPC   C4B58234  44.430  25.389   7.409
 4493POPC   NC358235  42.770  36.899   5.079
 4493POPC   PO458236  43.378  36.693   5.423
 4493POPC   GL158237  43.180  36.939   5.728
 4493POPC   GL258238  43.379  37.141   5.831
 4493POPC   C1A58239  42.925  37.056   6.112
 4493POPC   D2A58240  42.951  36.936   6.537
 4493POPC   C3A58241  42.871  36.657   6.849
 4493POPC   C4A58242  43.024  36.770   7.277
 4493POPC   C1B58243  43.380  36.847   6.200
 4493POPC   C2B58244  43.511  36.748   6.618
 4493POPC   C3B58245  43.480  36.694   7.060
 4493POPC   C4B58246  43.402  36.524   7.498
 4494POPC   NC358247  11.551  26.513   5.558
 4494POPC   PO458248  10.889  26.827   5.491
 4494POPC   GL158249  11.156  26.717   5.808
 4494POPC   GL258250  11.107  26.349   5.799
 4494POPC   C1A58251  11.408  26.928   6.149
 4494POPC   D2A58252  11.558  27.067   6.593
 4494POPC   C3A58253  11.229  26.960   6.923
 4494POPC   C4A58254  11.242  26.726   7.334
 4494POPC   C1B58255  11.324  26.386   6.180
 4494POPC   C2B58256  11.354  26.591   6.559
 4494POPC   C3B58257  11.227  26.402   6.929
 4494POPC   C4B58258  11.237  26.174   7.264
 4495POPC   NC358259  38.050  16.197   5.297
 4495POPC   PO458260  38.651  16.040   5.343
 4495POPC   GL158261  38.463  16.048   5.757
 4495POPC   GL258262  38.146  16.253   5.796
 4495POPC   C1A58263  38.433  15.984   6.217
 4495POPC   D2A58264  38.143  16.172   6.531
 4495POPC   C3A58265  38.209  15.993   6.947
 4495POPC   C4A58266  38.521  15.708   7.135
 4495POPC   C1B58267  38.321  16.473   6.140
 4495POPC   C2B58268  38.655  16.433   6.410
 4495POPC   C3B58269  38.532  16.373   6.809
 4495POPC   C4B58270  38.491  16.473   7.214
 4496POPC   NC358271  42.473  24.706   5.031
 4496POPC   PO458272  43.141  24.582   5.024
 4496POPC   GL158273  43.029  24.470   5.523
 4496POPC   GL258274  43.324  24.494   5.697
 4496POPC   C1A58275  42.967  24.479   6.057
 4496POPC   D2A58276  42.850  24.758   6.483
 4496POPC   C3A58277  42.743  24.591   6.911
 4496POPC   C4A58278  42.872  24.472   7.323
 4496POPC   C1B58279  43.431  24.695   6.087
 4496POPC   C2B58280  43.353  24.682   6.493
 4496POPC   C3B58281  43.234  24.729   6.901
 4496POPC   C4B58282  43.387  24.529   7.268
 4497POPC   NC358283  18.759  34.076   5.449
 4497POPC   PO458284  19.206  33.529   5.413
 4497POPC   GL158285  18.948  33.646   5.754
 4497POPC   GL258286  19.004  33.984   5.874
 4497POPC   C1A58287  19.080  33.604   6.179
 4497POPC   D2A58288  19.006  33.836   6.554
 4497POPC   C3A58289  18.898  33.588   6.928
 4497POPC   C4A58290  19.069  33.532   7.318
 4497POPC   C1B58291  18.740  34.154   6.189
 4497POPC   C2B58292  18.593  34.160   6.571
 4497POPC   C3B58293  18.787  34.096   6.983
 4497POPC   C4B58294  18.656  34.285   7.366
 4498POPC   NC358295  18.583   7.094   5.579
 4498POPC   PO458296  18.077   7.455   5.490
 4498POPC   GL158297  18.202   7.318   5.913
 4498POPC   GL258298  18.230   6.973   5.919
 4498POPC   C1A58299  18.099   7.198   6.356
 4498POPC   D2A58300  18.420   7.317   6.652
 4498POPC   C3A58301  18.404   7.493   7.050
 4498POPC   C4A58302  18.106   7.688   7.258
 4498POPC   C1B58303  18.580   7.056   6.234
 4498POPC   C2B58304  18.826   7.020   6.628
 4498POPC   C3B58305  18.761   7.088   7.064
 4498POPC   C4B58306  18.410   7.059   7.329
 4499POPC   NC358307  21.441  16.594   5.317
 4499POPC   PO458308  21.064  17.180   5.365
 4499POPC   GL158309  21.166  16.831   5.683
 4499POPC   GL258310  21.544  16.734   5.799
 4499POPC   C1A58311  21.136  16.669   6.093
 4499POPC   D2A58312  21.301  16.787   6.459
 4499POPC   C3A58313  21.121  16.586   6.798
 4499POPC   C4A58314  21.248  16.583   7.203
 4499POPC   C1B58315  21.720  16.567   6.196
 4499POPC   C2B58316  21.615  16.420   6.614
 4499POPC   C3B58317  21.605  16.749   6.904
 4499POPC   C4B58318  21.842  16.779   7.231
 4500POPC   NC358319  37.401  32.235   5.517
 4500POPC   PO458320  36.870  32.154   5.159
 4500POPC   GL158321  36.925  32.059   5.605
 4500POPC   GL258322  36.955  32.402   5.749
 4500POPC   C1A58323  36.849  32.000   6.062
 4500POPC   D2A58324  36.863  32.149   6.500
 4500POPC   C3A58325  36.791  32.046   6.937
 4500POPC   C4A58326  36.983  32.054   7.319
 4500POPC   C1B58327  36.759  32.500   6.153
 4500POPC   C2B58328  36.789  32.656   6.596
 4500POPC   C3B58329  36.843  32.560   7.052
 4500POPC   C4B58330  36.764  32.749   7.492
 4501POPC   NC358331  35.738  29.468   5.392
 4501POPC   PO458332  35.126  29.627   5.435
 4501POPC   GL158333  35.326  29.263   5.650
 4501POPC   GL258334  35.184  28.919   5.801
 4501POPC   C1A58335  35.384  29.288   6.082
 4501POPC   D2A58336  35.191  29.328   6.466
 4501POPC   C3A58337  35.463  29.404   6.827
 4501POPC   C4A58338  35.400  29.369   7.264
 4501POPC   C1B58339  35.447  28.795   6.176
 4501POPC   C2B58340  35.525  28.874   6.633
 4501POPC   C3B58341  35.502  28.881   7.095
 4501POPC   C4B58342  35.167  28.872   7.395
 4502POPC   NC358343  42.153  34.005   5.264
 4502POPC   PO458344  42.600  33.518   5.470
 4502POPC   GL158345  42.354  33.693   5.818
 4502POPC   GL258346  42.247  34.063   5.809
 4502POPC   C1A58347  42.433  33.778   6.266
 4502POPC   D2A58348  42.331  34.108   6.553
 4502POPC   C3A58349  42.334  33.968   6.956
 4502POPC   C4A58350  42.269  33.527   7.007
 4502POPC   C1B58351  41.975  33.957   6.187
 4502POPC   C2B58352  41.974  33.730   6.563
 4502POPC   C3B58353  41.835  33.887   6.933
 4502POPC   C4B58354  41.972  34.110   7.288
 4503POPC   NC358355  43.892   3.567   5.291
 4503POPC   PO458356  43.694   3.069   5.665
 4503POPC   GL158357  44.049   3.352   5.893
 4503POPC   GL258358  44.138   3.681   5.740
 4503POPC   C1A58359  44.046   3.509   6.359
 4503POPC   D2A58360  43.730   3.418   6.670
 4503POPC   C3A58361  43.816   3.187   7.050
 4503POPC   C4A58362  43.594   3.311   7.401
 4503POPC   C1B58363  44.181   3.956   6.115
 4503POPC   C2B58364  44.104   4.043   6.569
 4503POPC   C3B58365  43.781   3.917   6.857
 4503POPC   C4B58366  43.774   3.763   7.266
 4504POPC   NC358367  39.723  23.811   5.448
 4504POPC   PO458368  40.054  23.266   5.360
 4504POPC   GL158369  40.010  23.516   5.762
 4504POPC   GL258370  39.675  23.505   5.866
 4504POPC   C1A58371  40.030  23.701   6.193
 4504POPC   D2A58372  39.900  23.811   6.613
 4504POPC   C3A58373  40.108  23.610   6.992
 4504POPC   C4A58374  40.333  23.816   7.356
 4504POPC   C1B58375  39.572  23.910   6.100
 4504POPC   C2B58376  39.442  24.034   6.547
 4504POPC   C3B58377  39.555  23.854   6.982
 4504POPC   C4B58378  39.873  23.989   7.237
 4505POPC   NC358379   1.728  39.488   5.373
 4505POPC   PO458380   2.235  39.066   5.241
 4505POPC   GL158381   2.130  39.113   5.686
 4505POPC   GL258382   2.288  38.877   5.910
 4505POPC   C1A58383   1.897  39.161   6.095
 4505POPC   D2A58384   1.964  39.345   6.507
 4505POPC   C3A58385   1.701  39.263   6.857
 4505POPC   C4A58386   1.961  39.455   7.147
 4505POPC   C1B58387   2.416  39.071   6.282
 4505POPC   C2B58388   2.451  39.243   6.674
 4505POPC   C3B58389   2.197  39.046   6.942
 4505POPC   C4B58390   1.907  38.951   7.221
 4506POPC   NC358391  41.338   5.889   5.426
 4506POPC   PO458392  41.970   6.039   5.303
 4506POPC   GL158393  41.786   6.014   5.735
 4506POPC   GL258394  41.490   5.825   5.901
 4506POPC   C1A58395  41.723   6.160   6.185
 4506POPC   D2A58396  41.494   5.922   6.486
 4506POPC   C3A58397  41.537   5.954   6.934
 4506POPC   C4A58398  41.790   5.642   7.113
 4506POPC   C1B58399  41.194   5.615   6.195
 4506POPC   C2B58400  41.055   5.669   6.642
 4506POPC   C3B58401  41.183   5.599   7.073
 4506POPC   C4B58402  41.202   5.875   7.425
 4507POPC   NC358403  22.265   0.484   5.349
 4507POPC   PO458404  21.631   0.644   5.569
 4507POPC   GL158405  22.029   0.666   5.847
 4507POPC   GL258406  22.300   0.401   5.853
 4507POPC   C1A58407  22.185   0.700   6.304
 4507POPC   D2A58408  21.991   0.483   6.691
 4507POPC   C3A58409  22.164   0.557   7.129
 4507POPC   C4A58410  22.066   0.638   7.587
 4507POPC   C1B58411  22.111   0.191   6.212
 4507POPC   C2B58412  22.281   0.027   6.588
 4507POPC   C3B58413  22.099   0.035   6.946
 4507POPC   C4B58414  22.193   0.098   7.349
 4508POPC   NC358415   6.266   8.919   5.356
 4508POPC   PO458416   6.886   8.717   5.366
 4508POPC   GL158417   6.731   8.917   5.773
 4508POPC   GL258418   6.851   9.239   5.829
 4508POPC   C1A58419   6.571   9.093   6.222
 4508POPC   D2A58420   6.726   9.172   6.648
 4508POPC   C3A58421   6.502   9.067   7.030
 4508POPC   C4A58422   6.669   9.290   7.431
 4508POPC   C1B58423   7.055   9.010   6.172
 4508POPC   C2B58424   7.060   8.755   6.530
 4508POPC   C3B58425   6.861   8.673   6.895
 4508POPC   C4B58426   6.926   8.909   7.209
 4509POPC   NC358427  34.794   3.848   5.452
 4509POPC   PO458428  34.415   3.348   5.423
 4509POPC   GL158429  34.499   3.588   5.792
 4509POPC   GL258430  34.410   3.955   5.783
 4509POPC   C1A58431  34.781   3.729   6.131
 4509POPC   D2A58432  34.647   3.597   6.540
 4509POPC   C3A58433  34.841   3.678   6.923
 4509POPC   C4A58434  34.672   3.567   7.292
 4509POPC   C1B58435  34.269   3.786   6.202
 4509POPC   C2B58436  34.170   3.830   6.638
 4509POPC   C3B58437  34.294   3.839   7.074
 4509POPC   C4B58438  34.309   3.841   7.556
 4510POPC   NC358439  43.207  16.629   5.297
 4510POPC   PO458440  43.555  17.167   5.618
 4510POPC   GL158441  43.320  16.825   5.744
 4510POPC   GL258442  42.952  16.791   5.758
 4510POPC   C1A58443  43.332  16.528   6.044
 4510POPC   D2A58444  43.365  16.499   6.464
 4510POPC   C3A58445  43.338  16.774   6.797
 4510POPC   C4A58446  43.593  16.596   7.099
 4510POPC   C1B58447  42.816  16.569   6.118
 4510POPC   C2B58448  42.929  16.258   6.388
 4510POPC   C3B58449  43.001  16.359   6.822
 4510POPC   C4B58450  43.108  16.563   7.218
 4511POPC   NC358451   9.522  32.523   5.413
 4511POPC   PO458452  10.040  32.057   5.367
 4511POPC   GL158453   9.902  32.224   5.769
 4511POPC   GL258454   9.934  31.973   6.008
 4511POPC   C1A58455  10.014  32.458   6.157
 4511POPC   D2A58456   9.875  32.251   6.544
 4511POPC   C3A58457   9.901  32.459   6.946
 4511POPC   C4A58458   9.762  32.228   7.286
 4511POPC   C1B58459   9.540  32.006   6.220
 4511POPC   C2B58460   9.346  32.103   6.612
 4511POPC   C3B58461   9.319  31.963   7.035
 4511POPC   C4B58462   9.275  32.161   7.427
 4512POPC   NC358463  36.410  34.266   5.188
 4512POPC   PO458464  35.813  34.529   5.403
 4512POPC   GL158465  36.152  34.621   5.683
 4512POPC   GL258466  36.379  34.330   5.705
 4512POPC   C1A58467  36.068  34.616   6.132
 4512POPC   D2A58468  35.836  34.647   6.517
 4512POPC   C3A58469  36.086  34.656   6.894
 4512POPC   C4A58470  35.988  34.734   7.327
 4512POPC   C1B58471  36.341  34.148   6.121
 4512POPC   C2B58472  36.265  34.311   6.528
 4512POPC   C3B58473  36.312  34.137   6.932
 4512POPC   C4B58474  36.369  34.400   7.278
 4513POPC   NC358475  28.963  20.151   5.078
 4513POPC   PO458476  29.258  19.663   5.411
 4513POPC   GL158477  29.148  19.801   5.803
 4513POPC   GL258478  28.877  20.049   5.807
 4513POPC   C1A58479  29.306  19.742   6.215
 4513POPC   D2A58480  29.406  19.925   6.610
 4513POPC   C3A58481  29.482  19.706   6.996
 4513POPC   C4A58482  29.231  19.822   7.368
 4513POPC   C1B58483  28.754  19.735   6.133
 4513POPC   C2B58484  28.766  19.589   6.552
 4513POPC   C3B58485  28.946  19.739   6.919
 4513POPC   C4B58486  28.837  19.527   7.298
 4514POPC   NC358487  39.401  31.992   5.404
 4514POPC   PO458488  39.345  31.340   5.492
 4514POPC   GL158489  39.219  31.676   5.784
 4514POPC   GL258490  38.864  31.780   5.770
 4514POPC   C1A58491  39.148  31.615   6.209
 4514POPC   D2A58492  39.080  31.427   6.598
 4514POPC   C3A58493  39.266  31.624   6.934
 4514POPC   C4A58494  39.664  31.718   7.125
 4514POPC   C1B58495  38.811  31.995   6.163
 4514POPC   C2B58496  39.005  31.960   6.567
 4514POPC   C3B58497  38.839  31.957   6.972
 4514POPC   C4B58498  38.805  31.686   7.349
 4515POPC   NC358499   3.517  14.913   5.528
 4515POPC   PO458500   3.640  15.559   5.433
 4515POPC   GL158501   3.768  15.314   5.801
 4515POPC   GL258502   3.396  15.296   5.839
 4515POPC   C1A58503   3.696  15.008   6.174
 4515POPC   D2A58504   3.460  14.993   6.573
 4515POPC   C3A58505   3.540  14.798   6.973
 4515POPC   C4A58506   3.855  14.935   7.257
 4515POPC   C1B58507   3.445  15.446   6.218
 4515POPC   C2B58508   3.263  15.473   6.541
 4515POPC   C3B58509   3.401  15.423   6.908
 4515POPC   C4B58510   3.482  15.243   7.247
 4516POPC   NC358511  21.185  25.476   5.420
 4516POPC   PO458512  21.831  25.284   5.512
 4516POPC   GL158513  21.465  25.234   5.773
 4516POPC   GL258514  21.174  25.009   5.775
 4516POPC   C1A58515  21.373  25.358   6.175
 4516POPC   D2A58516  21.600  25.203   6.519
 4516POPC   C3A58517  21.675  25.470   6.845
 4516POPC   C4A58518  21.713  25.340   7.233
 4516POPC   C1B58519  20.971  25.048   6.206
 4516POPC   C2B58520  21.066  25.110   6.675
 4516POPC   C3B58521  21.053  25.194   7.165
 4516POPC   C4B58522  21.018  25.008   7.619
 4517POPC   NC358523  37.015  28.263   5.349
 4517POPC   PO458524  36.738  28.818   5.186
 4517POPC   GL158525  37.007  28.663   5.653
 4517POPC   GL258526  36.824  28.337   5.807
 4517POPC   C1A58527  37.069  28.620   6.152
 4517POPC   D2A58528  36.843  28.739   6.556
 4517POPC   C3A58529  36.991  28.560   6.950
 4517POPC   C4A58530  37.240  28.284   7.208
 4517POPC   C1B58531  36.529  28.274   6.173
 4517POPC   C2B58532  36.627  28.265   6.591
 4517POPC   C3B58533  36.766  28.045   6.905
 4517POPC   C4B58534  36.734  28.190   7.265
 4518POPC   NC358535  38.009  17.119   5.559
 4518POPC   PO458536  38.616  17.253   5.454
 4518POPC   GL158537  38.455  17.267   5.835
 4518POPC   GL258538  38.244  17.553   5.736
 4518POPC   C1A58539  38.627  17.292   6.274
 4518POPC   D2A58540  38.638  17.634   6.549
 4518POPC   C3A58541  38.599  17.540   6.981
 4518POPC   C4A58542  38.560  17.317   7.357
 4518POPC   C1B58543  38.261  17.625   6.173
 4518POPC   C2B58544  38.172  17.395   6.568
 4518POPC   C3B58545  38.056  17.565   6.975
 4518POPC   C4B58546  38.170  17.629   7.401
 4519POPC   NC358547   8.201  42.706   5.211
 4519POPC   PO458548   8.153  43.404   5.413
 4519POPC   GL158549   8.264  43.140   5.750
 4519POPC   GL258550   8.616  43.140   5.865
 4519POPC   C1A58551   8.144  43.066   6.177
 4519POPC   D2A58552   7.942  43.037   6.574
 4519POPC   C3A58553   8.206  43.153   6.921
 4519POPC   C4A58554   7.929  43.288   7.242
 4519POPC   C1B58555   8.625  42.890   6.238
 4519POPC   C2B58556   8.401  42.772   6.593
 4519POPC   C3B58557   8.451  42.687   7.015
 4519POPC   C4B58558   8.289  42.909   7.366
 4520POPC   NC358559  19.997  20.086   5.455
 4520POPC   PO458560  19.822  19.446   5.427
 4520POPC   GL158561  19.878  19.616   5.805
 4520POPC   GL258562  19.514  19.674   5.811
 4520POPC   C1A58563  19.952  19.822   6.215
 4520POPC   D2A58564  19.896  20.083   6.591
 4520POPC   C3A58565  20.049  19.951   7.008
 4520POPC   C4A58566  19.935  19.815   7.420
 4520POPC   C1B58567  19.571  19.468   6.226
 4520POPC   C2B58568  19.787  19.562   6.643
 4520POPC   C3B58569  19.662  19.563   7.075
 4520POPC   C4B58570  19.254  19.455   7.246
 4521POPC   NC358571  35.868   9.663   5.309
 4521POPC   PO458572  35.220   9.872   5.335
 4521POPC   GL158573  35.320   9.688   5.739
 4521POPC   GL258574  35.668   9.534   5.777
 4521POPC   C1A58575  35.360   9.705   6.194
 4521POPC   D2A58576  35.532   9.736   6.623
 4521POPC   C3A58577  35.210   9.862   6.920
 4521POPC   C4A58578  35.176   9.698   7.311
 4521POPC   C1B58579  35.722   9.985   5.946
 4521POPC   C2B58580  35.546  10.184   6.327
 4521POPC   C3B58581  35.530  10.232   6.778
 4521POPC   C4B58582  35.632   9.993   7.177
 4522POPC   NC358583  35.081  38.478   5.391
 4522POPC   PO458584  35.740  38.613   5.535
 4522POPC   GL158585  35.370  38.576   5.818
 4522POPC   GL258586  35.237  38.276   5.852
 4522POPC   C1A58587  35.381  38.486   6.287
 4522POPC   D2A58588  35.449  38.241   6.609
 4522POPC   C3A58589  35.409  38.501   6.936
 4522POPC   C4A58590  35.679  38.878   7.087
 4522POPC   C1B58591  35.067  38.093   6.246
 4522POPC   C2B58592  34.950  38.204   6.678
 4522POPC   C3B58593  35.011  38.243   7.139
 4522POPC   C4B58594  35.026  38.284   7.582
 4523POPC   NC358595  41.144  28.894   5.379
 4523POPC   PO458596  40.540  29.323   5.486
 4523POPC   GL158597  40.604  29.136   5.857
 4523POPC   GL258598  40.818  29.420   5.988
 4523POPC   C1A58599  40.666  28.934   6.255
 4523POPC   D2A58600  41.063  28.929   6.494
 4523POPC   C3A58601  40.947  29.073   6.901
 4523POPC   C4A58602  40.749  28.909   7.257
 4523POPC   C1B58603  40.789  29.405   6.425
 4523POPC   C2B58604  40.423  29.516   6.632
 4523POPC   C3B58605  40.342  29.605   7.035
 4523POPC   C4B58606  40.742  29.472   7.198
 4524POPC   NC358607  17.643  35.557   5.560
 4524POPC   PO458608  17.274  35.086   5.651
 4524POPC   GL158609  17.159  35.293   6.012
 4524POPC   GL258610  17.177  35.666   5.927
 4524POPC   C1A58611  17.303  35.126   6.407
 4524POPC   D2A58612  17.684  35.067   6.619
 4524POPC   C3A58613  17.534  35.027   7.023
 4524POPC   C4A58614  17.491  35.103   7.487
 4524POPC   C1B58615  17.497  35.599   6.274
 4524POPC   C2B58616  17.467  35.547   6.724
 4524POPC   C3B58617  17.471  35.510   7.155
 4524POPC   C4B58618  17.802  35.547   7.430
 4525POPC   NC358619   7.311   0.987   5.496
 4525POPC   PO458620   7.527   1.597   5.654
 4525POPC   GL158621   7.331   1.274   5.942
 4525POPC   GL258622   7.457   0.905   5.970
 4525POPC   C1A58623   7.353   1.216   6.401
 4525POPC   D2A58624   7.633   1.245   6.766
 4525POPC   C3A58625   7.397   1.447   7.080
 4525POPC   C4A58626   7.193   1.307   7.473
 4525POPC   C1B58627   7.224   0.707   6.292
 4525POPC   C2B58628   7.113   0.818   6.711
 4525POPC   C3B58629   7.348   0.943   7.070
 4525POPC   C4B58630   7.508   0.913   7.482
 4526POPC   NC358631  11.081  32.417   5.571
 4526POPC   PO458632  11.333  33.146   5.513
 4526POPC   GL158633  11.220  32.935   5.872
 4526POPC   GL258634  10.895  33.007   5.907
 4526POPC   C1A58635  11.386  32.894   6.292
 4526POPC   D2A58636  11.417  33.053   6.699
 4526POPC   C3A58637  11.453  32.915   7.102
 4526POPC   C4A58638  11.798  33.158   7.233
 4526POPC   C1B58639  10.855  32.904   6.306
 4526POPC   C2B58640  10.925  33.148   6.667
 4526POPC   C3B58641  11.042  33.268   7.059
 4526POPC   C4B58642  10.848  33.115   7.419
 4527POPC   NC358643  24.728  11.257   5.364
 4527POPC   PO458644  24.158  11.589   5.441
 4527POPC   GL158645  24.352  11.404   5.778
 4527POPC   GL258646  24.321  11.062   5.656
 4527POPC   C1A58647  24.555  11.482   6.183
 4527POPC   D2A58648  24.775  11.421   6.563
 4527POPC   C3A58649  24.685  11.548   6.979
 4527POPC   C4A58650  24.646  11.303   7.355
 4527POPC   C1B58651  24.110  11.044   6.062
 4527POPC   C2B58652  24.299  11.130   6.438
 4527POPC   C3B58653  24.436  11.102   6.835
 4527POPC   C4B58654  24.261  10.990   7.218
 4528POPC   NC358655  41.778  39.627   5.450
 4528POPC   PO458656  41.553  38.988   5.437
 4528POPC   GL158657  41.463  39.041   5.859
 4528POPC   GL258658  41.164  38.878   5.897
 4528POPC   C1A58659  41.685  39.243   6.210
 4528POPC   D2A58660  41.931  39.119   6.585
 4528POPC   C3A58661  41.763  39.174   7.037
 4528POPC   C4A58662  41.772  39.569   7.301
 4528POPC   C1B58663  41.299  38.834   6.334
 4528POPC   C2B58664  41.417  39.147   6.631
 4528POPC   C3B58665  41.343  39.443   6.930
 4528POPC   C4B58666  41.111  39.238   7.190
 4529POPC   NC358667  41.046  41.857   5.547
 4529POPC   PO458668  40.764  41.288   5.287
 4529POPC   GL158669  40.768  41.459   5.706
 4529POPC   GL258670  41.106  41.280   5.755
 4529POPC   C1A58671  40.688  41.736   6.117
 4529POPC   D2A58672  40.681  41.614   6.556
 4529POPC   C3A58673  40.746  41.798   6.952
 4529POPC   C4A58674  40.504  42.037   7.277
 4529POPC   C1B58675  40.863  41.270   6.162
 4529POPC   C2B58676  40.825  41.126   6.575
 4529POPC   C3B58677  40.685  41.259   6.966
 4529POPC   C4B58678  40.904  41.390   7.330
 4530POPC   NC358679  22.640  10.112   5.461
 4530POPC   PO458680  23.054   9.596   5.470
 4530POPC   GL158681  23.076   9.994   5.745
 4530POPC   GL258682  22.782   9.938   5.934
 4530POPC   C1A58683  23.167  10.151   6.182
 4530POPC   D2A58684  22.858   9.951   6.494
 4530POPC   C3A58685  22.959   9.833   6.915
 4530POPC   C4A58686  22.818   9.949   7.321
 4530POPC   C1B58687  23.148   9.651   6.113
 4530POPC   C2B58688  23.157   9.496   6.513
 4530POPC   C3B58689  22.815   9.351   6.736
 4530POPC   C4B58690  22.883   9.366   7.125
 4531POPC   NC358691  42.588  32.076   5.238
 4531POPC   PO458692  42.259  31.485   5.533
 4531POPC   GL158693  42.223  31.549   5.894
 4531POPC   GL258694  41.899  31.718   5.846
 4531POPC   C1A58695  42.449  31.371   6.222
 4531POPC   D2A58696  42.619  31.127   6.548
 4531POPC   C3A58697  42.642  31.347   6.929
 4531POPC   C4A58698  42.325  31.404   7.206
 4531POPC   C1B58699  41.903  31.566   6.260
 4531POPC   C2B58700  41.989  31.791   6.588
 4531POPC   C3B58701  42.135  31.786   6.952
 4531POPC   C4B58702  42.393  31.925   7.244
 4532POPC   NC358703   4.888   6.588   5.427
 4532POPC   PO458704   5.558   6.563   5.541
 4532POPC   GL158705   5.264   6.728   5.820
 4532POPC   GL258706   4.911   6.624   5.921
 4532POPC   C1A58707   5.271   6.798   6.256
 4532POPC   D2A58708   5.345   7.075   6.580
 4532POPC   C3A58709   5.093   6.863   6.861
 4532POPC   C4A58710   5.037   6.534   7.129
 4532POPC   C1B58711   4.650   6.383   6.195
 4532POPC   C2B58712   4.744   6.503   6.603
 4532POPC   C3B58713   4.655   6.259   6.959
 4532POPC   C4B58714   4.525   6.292   7.368
 4533POPC   NC358715  27.803  38.646   5.388
 4533POPC   PO458716  27.285  38.141   5.333
 4533POPC   GL158717  27.435  38.415   5.692
 4533POPC   GL258718  27.807  38.357   5.807
 4533POPC   C1A58719  27.374  38.614   6.109
 4533POPC   D2A58720  27.514  38.703   6.545
 4533POPC   C3A58721  27.312  38.659   6.952
 4533POPC   C4A58722  27.603  38.646   7.278
 4533POPC   C1B58723  27.903  38.476   6.238
 4533POPC   C2B58724  27.742  38.237   6.579
 4533POPC   C3B58725  27.591  38.211   7.002
 4533POPC   C4B58726  27.869  38.182   7.346
 4534POPC   NC358727  39.499   2.453   5.561
 4534POPC   PO458728  39.114   2.031   5.157
 4534POPC   GL158729  39.256   1.913   5.633
 4534POPC   GL258730  39.186   2.200   5.848
 4534POPC   C1A58731  39.287   1.809   6.149
 4534POPC   D2A58732  39.338   1.968   6.619
 4534POPC   C3A58733  39.436   1.745   7.042
 4534POPC   C4A58734  39.207   1.892   7.431
 4534POPC   C1B58735  39.383   2.343   6.233
 4534POPC   C2B58736  39.397   2.477   6.678
 4534POPC   C3B58737  39.332   2.244   7.072
 4534POPC   C4B58738  39.518   2.273   7.525
 4535POPC   NC358739  19.435  22.211   5.309
 4535POPC   PO458740  20.107  22.174   5.599
 4535POPC   GL158741  19.710  22.359   5.732
 4535POPC   GL258742  19.543  22.044   5.772
 4535POPC   C1A58743  19.558  22.397   6.157
 4535POPC   D2A58744  19.495  22.170   6.541
 4535POPC   C3A58745  19.658  22.278   6.948
 4535POPC   C4A58746  19.813  22.379   7.374
 4535POPC   C1B58747  19.763  21.904   6.165
 4535POPC   C2B58748  19.962  21.881   6.609
 4535POPC   C3B58749  20.121  22.041   7.033
 4535POPC   C4B58750  20.274  22.060   7.463
 4536POPC   NC358751  25.440  22.063   5.178
 4536POPC   PO458752  24.878  21.764   5.405
 4536POPC   GL158753  25.179  21.993   5.761
 4536POPC   GL258754  25.402  21.795   5.935
 4536POPC   C1A58755  25.318  22.240   6.176
 4536POPC   D2A58756  25.104  22.292   6.599
 4536POPC   C3A58757  25.288  22.449   7.000
 4536POPC   C4A58758  25.172  22.263   7.400
 4536POPC   C1B58759  25.606  21.791   6.282
 4536POPC   C2B58760  25.344  21.757   6.592
 4536POPC   C3B58761  25.332  21.947   6.965
 4536POPC   C4B58762  25.576  21.945   7.327
 4537POPC   NC358763   8.547  22.199   5.397
 4537POPC   PO458764   7.976  21.832   5.448
 4537POPC   GL158765   8.169  22.088   5.781
 4537POPC   GL258766   8.473  21.987   5.866
 4537POPC   C1A58767   8.226  22.401   6.100
 4537POPC   D2A58768   8.455  22.588   6.467
 4537POPC   C3A58769   8.405  22.435   6.908
 4537POPC   C4A58770   8.113  22.300   7.243
 4537POPC   C1B58771   8.327  21.906   6.271
 4537POPC   C2B58772   8.364  21.702   6.653
 4537POPC   C3B58773   8.296  21.858   7.047
 4537POPC   C4B58774   8.429  21.952   7.478
 4538POPC   NC358775   8.867  33.145   5.327
 4538POPC   PO458776   9.427  33.474   5.281
 4538POPC   GL158777   9.276  33.182   5.675
 4538POPC   GL258778   8.920  33.047   5.824
 4538POPC   C1A58779   9.329  33.016   6.123
 4538POPC   D2A58780   9.160  32.970   6.554
 4538POPC   C3A58781   9.140  33.286   6.894
 4538POPC   C4A58782   9.013  33.154   7.315
 4538POPC   C1B58783   8.778  32.815   6.237
 4538POPC   C2B58784   8.550  32.724   6.672
 4538POPC   C3B58785   8.582  32.903   7.122
 4538POPC   C4B58786   8.519  33.188   7.484
 4539POPC   NC358787  11.251   9.882   5.098
 4539POPC   PO458788  10.585   9.749   5.311
 4539POPC   GL158789  10.688   9.695   5.737
 4539POPC   GL258790  10.525  10.002   5.818
 4539POPC   C1A58791  10.600   9.583   6.186
 4539POPC   D2A58792  10.403   9.417   6.552
 4539POPC   C3A58793  10.476   9.666   6.905
 4539POPC   C4A58794  10.629   9.592   7.309
 4539POPC   C1B58795  10.234   9.914   6.151
 4539POPC   C2B58796  10.122   9.859   6.577
 4539POPC   C3B58797  10.143  10.063   6.971
 4539POPC   C4B58798  10.396  10.072   7.334
 4540POPC   NC358799   3.714  10.970   5.500
 4540POPC   PO458800   3.340  11.550   5.508
 4540POPC   GL158801   3.495  11.340   5.829
 4540POPC   GL258802   3.245  11.081   5.802
 4540POPC   C1A58803   3.706  11.435   6.243
 4540POPC   D2A58804   3.941  11.316   6.616
 4540POPC   C3A58805   3.685  11.282   6.985
 4540POPC   C4A58806   3.333  11.535   7.100
 4540POPC   C1B58807   3.486  10.972   6.165
 4540POPC   C2B58808   3.393  11.063   6.561
 4540POPC   C3B58809   3.367  10.886   6.937
 4540POPC   C4B58810   3.310  11.068   7.324
 4541POPC   NC358811  22.543  30.867   5.549
 4541POPC   PO458812  21.929  30.769   5.246
 4541POPC   GL158813  22.087  30.683   5.722
 4541POPC   GL258814  22.338  30.837   5.987
 4541POPC   C1A58815  21.991  30.525   6.164
 4541POPC   D2A58816  21.800  30.598   6.603
 4541POPC   C3A58817  22.032  30.789   6.910
 4541POPC   C4A58818  22.109  30.466   7.217
 4541POPC   C1B58819  22.568  30.536   6.212
 4541POPC   C2B58820  22.396  30.466   6.597
 4541POPC   C3B58821  22.419  30.218   6.929
 4541POPC   C4B58822  22.618  30.357   7.303
 4542POPC   NC358823  16.043  25.519   5.212
 4542POPC   PO458824  15.474  25.129   5.277
 4542POPC   GL158825  15.745  25.189   5.671
 4542POPC   GL258826  16.099  25.210   5.630
 4542POPC   C1A58827  15.854  25.139   6.149
 4542POPC   D2A58828  16.138  25.173   6.536
 4542POPC   C3A58829  15.935  25.297   6.911
 4542POPC   C4A58830  15.546  25.207   7.097
 4542POPC   C1B58831  16.241  25.463   6.017
 4542POPC   C2B58832  16.243  25.651   6.454
 4542POPC   C3B58833  16.375  25.538   6.883
 4542POPC   C4B58834  16.307  25.299   7.287
 4543POPC   NC358835  30.657  22.495   5.666
 4543POPC   PO458836  30.935  22.998   5.246
 4543POPC   GL158837  30.984  22.894   5.742
 4543POPC   GL258838  30.719  22.990   5.976
 4543POPC   C1A58839  30.978  22.636   6.221
 4543POPC   D2A58840  30.914  22.388   6.650
 4543POPC   C3A58841  30.835  22.500   7.125
 4543POPC   C4A58842  30.720  22.711   7.536
 4543POPC   C1B58843  30.473  22.739   6.284
 4543POPC   C2B58844  30.554  22.747   6.714
 4543POPC   C3B58845  30.554  22.950   7.100
 4543POPC   C4B58846  30.292  23.191   7.362
 4544POPC   NC358847  21.745  10.107   5.158
 4544POPC   PO458848  21.181   9.923   5.355
 4544POPC   GL158849  21.356   9.940   5.770
 4544POPC   GL258850  21.422   9.588   5.846
 4544POPC   C1A58851  21.177  10.123   6.129
 4544POPC   D2A58852  21.036   9.941   6.519
 4544POPC   C3A58853  21.338   9.841   6.834
 4544POPC   C4A58854  21.149   9.760   7.246
 4544POPC   C1B58855  21.428   9.677   6.302
 4544POPC   C2B58856  21.794   9.533   6.543
 4544POPC   C3B58857  21.954   9.500   6.946
 4544POPC   C4B58858  21.634   9.582   7.188
 4545POPC   NC358859  33.429  40.723   5.368
 4545POPC   PO458860  33.682  41.264   5.361
 4545POPC   GL158861  33.768  40.961   5.708
 4545POPC   GL258862  33.977  40.662   5.628
 4545POPC   C1A58863  33.553  40.823   6.093
 4545POPC   D2A58864  33.397  40.968   6.507
 4545POPC   C3A58865  33.544  40.719   6.852
 4545POPC   C4A58866  33.727  40.859   7.217
 4545POPC   C1B58867  34.065  40.692   6.084
 4545POPC   C2B58868  33.913  40.810   6.493
 4545POPC   C3B58869  34.105  40.922   6.899
 4545POPC   C4B58870  34.184  40.660   7.317
 4546POPC   NC358871  10.552  25.574   5.232
 4546POPC   PO458872  10.485  26.228   5.382
 4546POPC   GL158873  10.631  26.124   5.774
 4546POPC   GL258874  10.438  25.833   5.758
 4546POPC   C1A58875  10.788  26.249   6.197
 4546POPC   D2A58876  10.930  26.174   6.600
 4546POPC   C3A58877  10.755  26.211   7.002
 4546POPC   C4A58878  10.379  26.288   7.216
 4546POPC   C1B58879  10.344  25.993   6.193
 4546POPC   C2B58880  10.436  25.953   6.640
 4546POPC   C3B58881  10.456  25.799   7.060
 4546POPC   C4B58882  10.171  25.806   7.371
 4547POPC   NC358883  15.662  28.672   4.896
 4547POPC   PO458884  15.844  28.395   5.439
 4547POPC   GL158885  15.901  28.393   5.876
 4547POPC   GL258886  16.232  28.452   5.883
 4547POPC   C1A58887  15.904  28.215   6.338
 4547POPC   D2A58888  16.006  27.939   6.733
 4547POPC   C3A58889  15.968  28.076   7.194
 4547POPC   C4A58890  15.689  28.320   7.491
 4547POPC   C1B58891  16.363  28.450   6.333
 4547POPC   C2B58892  16.276  28.359   6.766
 4547POPC   C3B58893  16.431  28.261   7.191
 4547POPC   C4B58894  16.170  28.501   7.480
 4548POPC   NC358895  39.000  24.750   5.510
 4548POPC   PO458896  39.496  24.225   5.471
 4548POPC   GL158897  39.390  24.544   5.763
 4548POPC   GL258898  39.053  24.390   5.875
 4548POPC   C1A58899  39.364  24.709   6.171
 4548POPC   D2A58900  39.235  24.522   6.552
 4548POPC   C3A58901  39.373  24.630   6.932
 4548POPC   C4A58902  39.440  24.306   7.228
 4548POPC   C1B58903  38.727  24.204   6.158
 4548POPC   C2B58904  38.825  24.230   6.589
 4548POPC   C3B58905  38.945  24.337   7.010
 4548POPC   C4B58906  39.014  24.647   7.311
 4549POPC   NC358907  33.496  33.142   5.492
 4549POPC   PO458908  34.046  32.805   5.440
 4549POPC   GL158909  33.844  33.026   5.831
 4549POPC   GL258910  33.822  33.408   5.777
 4549POPC   C1A58911  33.481  32.949   6.131
 4549POPC   D2A58912  33.316  32.909   6.553
 4549POPC   C3A58913  33.637  32.840   6.865
 4549POPC   C4A58914  33.783  33.002   7.246
 4549POPC   C1B58915  33.605  33.453   6.147
 4549POPC   C2B58916  33.770  33.232   6.493
 4549POPC   C3B58917  33.789  33.380   6.896
 4549POPC   C4B58918  33.556  33.464   7.262
 4550POPC   NC358919  32.155   7.246   5.368
 4550POPC   PO458920  32.813   7.108   5.450
 4550POPC   GL158921  32.513   7.436   5.712
 4550POPC   GL258922  32.097   7.420   5.822
 4550POPC   C1A58923  32.411   7.611   6.148
 4550POPC   D2A58924  32.067   7.503   6.452
 4550POPC   C3A58925  32.248   7.520   6.870
 4550POPC   C4A58926  32.158   7.371   7.297
 4550POPC   C1B58927  32.047   7.072   6.067
 4550POPC   C2B58928  31.925   6.991   6.480
 4550POPC   C3B58929  32.081   7.039   6.868
 4550POPC   C4B58930  32.057   6.882   7.249
 4551POPC   NC358931  39.875  40.475   5.458
 4551POPC   PO458932  40.045  41.063   5.422
 4551POPC   GL158933  40.195  40.847   5.799
 4551POPC   GL258934  40.354  40.481   5.744
 4551POPC   C1A58935  40.035  40.977   6.222
 4551POPC   D2A58936  39.786  40.981   6.615
 4551POPC   C3A58937  40.003  41.076   7.022
 4551POPC   C4A58938  39.872  40.816   7.401
 4551POPC   C1B58939  40.094  40.458   6.124
 4551POPC   C2B58940  40.092  40.592   6.566
 4551POPC   C3B58941  39.926  40.582   6.936
 4551POPC   C4B58942  39.995  40.326   7.243
 4552POPC   NC358943   2.780   0.737   5.356
 4552POPC   PO458944   2.683   0.001   5.375
 4552POPC   GL158945   2.812   0.365   5.723
 4552POPC   GL258946   2.708   0.741   5.842
 4552POPC   C1A58947   2.788   0.354   6.184
 4552POPC   D2A58948   2.654   0.083   6.523
 4552POPC   C3A58949   2.760   0.222   6.918
 4552POPC   C4A58950   2.830   0.299   7.309
 4552POPC   C1B58951   2.495   0.782   6.206
 4552POPC   C2B58952   2.656   0.647   6.615
 4552POPC   C3B58953   2.601   0.830   7.033
 4552POPC   C4B58954   2.608   0.797   7.496
 4553POPC   NC358955  24.558   8.351   5.351
 4553POPC   PO458956  24.758   8.821   5.710
 4553POPC   GL158957  24.583   8.508   5.969
 4553POPC   GL258958  24.481   8.178   5.852
 4553POPC   C1A58959  24.613   8.327   6.371
 4553POPC   D2A58960  24.743   8.114   6.744
 4553POPC   C3A58961  24.644   8.364   7.094
 4553POPC   C4A58962  24.547   8.217   7.530
 4553POPC   C1B58963  24.316   7.930   6.194
 4553POPC   C2B58964  24.340   7.819   6.639
 4553POPC   C3B58965  24.265   8.029   7.046
 4553POPC   C4B58966  24.007   7.979   7.464
 4554POPC   NC358967  15.458  39.419   5.350
 4554POPC   PO458968  15.489  38.757   5.302
 4554POPC   GL158969  15.411  38.924   5.734
 4554POPC   GL258970  15.351  39.292   5.832
 4554POPC   C1A58971  15.082  38.951   6.086
 4554POPC   D2A58972  15.035  39.194   6.486
 4554POPC   C3A58973  15.345  39.207   6.827
 4554POPC   C4A58974  15.226  39.010   7.208
 4554POPC   C1B58975  14.973  39.478   6.067
 4554POPC   C2B58976  14.817  39.684   6.455
 4554POPC   C3B58977  14.938  39.538   6.878
 4554POPC   C4B58978  15.134  39.514   7.289
 4555POPC   NC358979  23.899   8.457   5.455
 4555POPC   PO458980  23.457   7.925   5.243
 4555POPC   GL158981  23.527   8.123   5.677
 4555POPC   GL258982  23.435   7.779   5.778
 4555POPC   C1A58983  23.740   8.389   6.070
 4555POPC   D2A58984  24.027   8.272   6.438
 4555POPC   C3A58985  23.885   8.347   6.873
 4555POPC   C4A58986  23.674   8.315   7.245
 4555POPC   C1B58987  23.761   7.887   6.103
 4555POPC   C2B58988  23.844   7.789   6.540
 4555POPC   C3B58989  23.818   7.828   6.991
 4555POPC   C4B58990  23.567   7.731   7.342
 4556POPC   NC358991  43.033   4.054   5.442
 4556POPC   PO458992  43.232   4.720   5.420
 4556POPC   GL158993  43.177   4.371   5.825
 4556POPC   GL258994  42.892   4.066   5.931
 4556POPC   C1A58995  43.271   4.123   6.234
 4556POPC   D2A58996  43.110   4.244   6.609
 4556POPC   C3A58997  43.301   4.103   6.942
 4556POPC   C4A58998  43.330   4.307   7.321
 4556POPC   C1B58999  42.780   4.400   6.225
 4556POPC   C2B59000  42.683   4.545   6.653
 4556POPC   C3B59001  42.907   4.466   7.036
 4556POPC   C4B59002  42.879   4.117   7.270
 4557POPC   NC359003  10.263  37.566   5.620
 4557POPC   PO459004   9.637  37.866   5.440
 4557POPC   GL159005   9.743  37.633   5.772
 4557POPC   GL259006   9.456  37.444   5.910
 4557POPC   C1A59007   9.890  37.587   6.185
 4557POPC   D2A59008   9.781  37.302   6.502
 4557POPC   C3A59009   9.574  37.512   6.833
 4557POPC   C4A59010   9.786  37.671   7.199
 4557POPC   C1B59011   9.398  37.858   6.123
 4557POPC   C2B59012   9.319  38.015   6.563
 4557POPC   C3B59013   9.477  38.045   7.020
 4557POPC   C4B59014   9.754  38.172   7.374
 4558POPC   NC359015  30.337  38.333   5.372
 4558POPC   PO459016  29.667  38.565   5.508
 4558POPC   GL159017  29.935  38.321   5.810
 4558POPC   GL259018  29.764  38.018   5.839
 4558POPC   C1A59019  30.080  38.450   6.228
 4558POPC   D2A59020  29.791  38.644   6.480
 4558POPC   C3A59021  29.909  38.729   6.859
 4558POPC   C4A59022  29.918  38.634   7.268
 4558POPC   C1B59023  29.904  37.983   6.279
 4558POPC   C2B59024  29.946  38.181   6.717
 4558POPC   C3B59025  30.034  38.157   7.187
 4558POPC   C4B59026  30.278  38.395   7.536
 4559POPC   NC359027  31.793  43.396   5.249
 4559POPC   PO459028  32.520  43.360   5.333
 4559POPC   GL159029  32.453  43.257   5.756
 4559POPC   GL259030  32.121  43.144   5.755
 4559POPC   C1A59031  32.496  43.098   6.179
 4559POPC   D2A59032  32.618  43.067   6.613
 4559POPC   C3A59033  32.349  43.121   6.973
 4559POPC   C4A59034  32.405  43.302   7.400
 4559POPC   C1B59035  32.013  42.957   6.161
 4559POPC   C2B59036  31.893  42.864   6.575
 4559POPC   C3B59037  31.932  42.810   7.011
 4559POPC   C4B59038  31.955  43.074   7.309
 4560POPC   NC359039  13.217  14.516   5.473
 4560POPC   PO459040  13.856  14.398   5.406
 4560POPC   GL159041  13.699  14.277   5.780
 4560POPC   GL259042  13.457  14.083   5.655
 4560POPC   C1A59043  13.692  14.266   6.223
 4560POPC   D2A59044  13.738  14.310   6.624
 4560POPC   C3A59045  13.967  14.205   6.944
 4560POPC   C4A59046  13.609  14.321   7.179
 4560POPC   C1B59047  13.334  13.956   6.063
 4560POPC   C2B59048  13.485  13.855   6.474
 4560POPC   C3B59049  13.586  13.873   6.891
 4560POPC   C4B59050  13.483  13.848   7.326
 4561POPC   NC359051  22.909  10.970   5.556
 4561POPC   PO459052  23.273  11.530   5.256
 4561POPC   GL159053  23.207  11.378   5.741
 4561POPC   GL259054  22.945  11.584   5.948
 4561POPC   C1A59055  23.124  11.178   6.156
 4561POPC   D2A59056  22.849  11.097   6.493
 4561POPC   C3A59057  23.071  11.181   6.816
 4561POPC   C4A59058  23.220  11.222   7.183
 4561POPC   C1B59059  22.579  11.368   6.129
 4561POPC   C2B59060  22.399  11.401   6.533
 4561POPC   C3B59061  22.593  11.377   6.906
 4561POPC   C4B59062  22.730  11.239   7.300
 4562POPC   NC359063   4.149   6.361   5.519
 4562POPC   PO459064   4.022   6.959   5.484
 4562POPC   GL159065   4.322   6.804   5.807
 4562POPC   GL259066   4.192   6.514   6.000
 4562POPC   C1A59067   4.475   6.862   6.247
 4562POPC   D2A59068   4.275   6.740   6.626
 4562POPC   C3A59069   4.534   6.747   7.001
 4562POPC   C4A59070   4.392   6.780   7.393
 4562POPC   C1B59071   3.874   6.526   6.321
 4562POPC   C2B59072   3.896   6.416   6.748
 4562POPC   C3B59073   4.033   6.568   7.130
 4562POPC   C4B59074   3.827   6.624   7.542
 4563POPC   NC359075  35.005  15.939   5.122
 4563POPC   PO459076  34.414  15.907   5.398
 4563POPC   GL159077  34.504  16.020   5.844
 4563POPC   GL259078  34.212  16.171   5.910
 4563POPC   C1A59079  34.650  15.961   6.293
 4563POPC   D2A59080  34.511  16.062   6.729
 4563POPC   C3A59081  34.769  16.035   7.093
 4563POPC   C4A59082  35.021  15.653   7.133
 4563POPC   C1B59083  34.167  16.151   6.359
 4563POPC   C2B59084  34.105  16.369   6.773
 4563POPC   C3B59085  34.228  16.151   7.167
 4563POPC   C4B59086  34.305  16.183   7.636
 4564POPC   NC359087   2.637  39.211   5.084
 4564POPC   PO459088   2.972  39.137   5.597
 4564POPC   GL159089   2.769  39.103   5.928
 4564POPC   GL259090   2.810  38.742   5.922
 4564POPC   C1A59091   2.891  39.332   6.308
 4564POPC   D2A59092   3.199  39.403   6.654
 4564POPC   C3A59093   2.989  39.369   7.054
 4564POPC   C4A59094   2.584  39.288   7.178
 4564POPC   C1B59095   3.024  38.808   6.251
 4564POPC   C2B59096   2.859  38.936   6.630
 4564POPC   C3B59097   2.915  38.836   7.017
 4564POPC   C4B59098   2.917  38.979   7.412
 4565POPC   NC359099  14.100  20.759   5.304
 4565POPC   PO459100  14.605  20.598   5.417
 4565POPC   GL159101  14.665  20.436   5.859
 4565POPC   GL259102  14.976  20.309   6.027
 4565POPC   C1A59103  14.557  20.416   6.318
 4565POPC   D2A59104  14.408  20.364   6.755
 4565POPC   C3A59105  14.090  20.667   6.857
 4565POPC   C4A59106  13.928  20.946   7.172
 4565POPC   C1B59107  15.038  20.546   6.450
 4565POPC   C2B59108  14.784  20.719   6.808
 4565POPC   C3B59109  14.466  20.971   7.031
 4565POPC   C4B59110  14.529  21.179   7.421
 4566POPC   NC359111  11.588  19.147   5.379
 4566POPC   PO459112  11.083  18.741   5.433
 4566POPC   GL159113  11.303  18.964   5.775
 4566POPC   GL259114  11.652  18.799   5.776
 4566POPC   C1A59115  11.252  19.155   6.195
 4566POPC   D2A59116  11.378  19.215   6.612
 4566POPC   C3A59117  11.152  19.122   6.963
 4566POPC   C4A59118  11.391  19.177   7.278
 4566POPC   C1B59119  11.490  18.706   6.204
 4566POPC   C2B59120  11.656  18.743   6.610
 4566POPC   C3B59121  11.548  18.769   7.036
 4566POPC   C4B59122  11.601  18.779   7.517
 4567POPC   NC359123   4.844  30.775   5.451
 4567POPC   PO459124   5.505  30.543   5.525
 4567POPC   GL159125   5.302  30.805   5.847
 4567POPC   GL259126   4.935  30.749   5.948
 4567POPC   C1A59127   5.349  30.688   6.269
 4567POPC   D2A59128   5.026  30.673   6.613
 4567POPC   C3A59129   5.191  30.532   6.962
 4567POPC   C4A59130   5.249  30.548   7.391
 4567POPC   C1B59131   4.997  31.049   6.272
 4567POPC   C2B59132   5.006  31.209   6.688
 4567POPC   C3B59133   5.022  30.985   7.090
 4567POPC   C4B59134   4.674  30.846   7.337
 4568POPC   NC359135  25.989  38.680   5.362
 4568POPC   PO459136  26.419  38.262   5.564
 4568POPC   GL159137  26.028  38.425   5.823
 4568POPC   GL259138  25.966  38.810   5.840
 4568POPC   C1A59139  25.880  38.512   6.256
 4568POPC   D2A59140  25.844  38.406   6.725
 4568POPC   C3A59141  25.918  38.549   7.171
 4568POPC   C4A59142  26.158  38.394   7.523
 4568POPC   C1B59143  26.165  38.951   6.221
 4568POPC   C2B59144  26.145  38.792   6.598
 4568POPC   C3B59145  26.224  38.899   6.977
 4568POPC   C4B59146  26.327  38.885   7.388
 4569POPC   NC359147   2.856  32.200   5.628
 4569POPC   PO459148   2.289  32.383   5.881
 4569POPC   GL159149   2.699  32.285   6.114
 4569POPC   GL259150   3.047  32.067   6.069
 4569POPC   C1A59151   2.727  32.254   6.568
 4569POPC   D2A59152   2.488  32.040   6.880
 4569POPC   C3A59153   2.447  32.236   7.270
 4569POPC   C4A59154   2.764  32.236   7.613
 4569POPC   C1B59155   3.146  32.451   6.305
 4569POPC   C2B59156   3.039  32.622   6.731
 4569POPC   C3B59157   2.914  32.394   7.098
 4569POPC   C4B59158   2.879  31.943   7.199
 4570POPC   NC359159  25.881  40.411   5.712
 4570POPC   PO459160  25.294  40.431   5.369
 4570POPC   GL159161  25.307  40.654   5.769
 4570POPC   GL259162  25.220  41.004   5.662
 4570POPC   C1A59163  25.377  40.560   6.228
 4570POPC   D2A59164  25.341  40.740   6.677
 4570POPC   C3A59165  25.132  40.562   7.061
 4570POPC   C4A59166  25.331  40.488   7.492
 4570POPC   C1B59167  25.292  41.058   6.101
 4570POPC   C2B59168  25.327  41.225   6.506
 4570POPC   C3B59169  25.493  41.171   6.893
 4570POPC   C4B59170  25.369  40.962   7.236
 4571POPC   NC359171  10.383  13.841   5.625
 4571POPC   PO459172  10.614  13.198   5.489
 4571POPC   GL159173  10.454  13.375   5.852
 4571POPC   GL259174  10.741  13.582   5.966
 4571POPC   C1A59175  10.314  13.559   6.250
 4571POPC   D2A59176  10.495  13.797   6.570
 4571POPC   C3A59177  10.529  13.664   6.999
 4571POPC   C4A59178  10.777  13.949   7.230
 4571POPC   C1B59179  10.766  13.249   6.244
 4571POPC   C2B59180  10.632  13.224   6.667
 4571POPC   C3B59181  10.891  13.285   7.031
 4571POPC   C4B59182  10.933  13.463   7.427
 4572POPC   NC359183  35.686   7.989   5.453
 4572POPC   PO459184  35.047   7.878   5.365
 4572POPC   GL159185  35.276   7.779   5.737
 4572POPC   GL259186  35.056   7.584   5.936
 4572POPC   C1A59187  35.423   7.943   6.133
 4572POPC   D2A59188  35.287   8.256   6.448
 4572POPC   C3A59189  35.468   8.183   6.860
 4572POPC   C4A59190  35.391   8.367   7.226
 4572POPC   C1B59191  34.979   7.813   6.326
 4572POPC   C2B59192  35.083   7.875   6.738
 4572POPC   C3B59193  35.075   7.968   7.157
 4572POPC   C4B59194  35.395   7.927   7.476
 4573POPC   NC359195  11.920  21.494   5.382
 4573POPC   PO459196  12.361  20.990   5.558
 4573POPC   GL159197  12.069  21.242   5.808
 4573POPC   GL259198  11.852  20.990   5.859
 4573POPC   C1A59199  12.121  21.575   6.157
 4573POPC   D2A59200  12.288  21.754   6.558
 4573POPC   C3A59201  12.074  21.570   6.912
 4573POPC   C4A59202  12.071  21.317   7.281
 4573POPC   C1B59203  12.003  21.029   6.282
 4573POPC   C2B59204  12.054  21.072   6.737
 4573POPC   C3B59205  12.151  20.851   7.106
 4573POPC   C4B59206  12.112  20.845   7.550
 4574POPC   NC359207  43.027   7.789   5.559
 4574POPC   PO459208  43.265   7.223   5.197
 4574POPC   GL159209  43.334   7.288   5.651
 4574POPC   GL259210  43.553   7.588   5.671
 4574POPC   C1A59211  43.208   7.406   6.110
 4574POPC   D2A59212  43.129   7.399   6.582
 4574POPC   C3A59213  42.726   7.271   6.798
 4574POPC   C4A59214  42.710   7.088   7.205
 4574POPC   C1B59215  43.640   7.741   6.112
 4574POPC   C2B59216  43.439   7.856   6.510
 4574POPC   C3B59217  43.452   7.664   6.909
 4574POPC   C4B59218  43.134   7.391   7.107
 4575POPC   NC359219  38.024  27.102   5.380
 4575POPC   PO459220  38.582  26.644   5.391
 4575POPC   GL159221  38.385  26.929   5.691
 4575POPC   GL259222  38.209  26.705   5.870
 4575POPC   C1A59223  38.421  27.097   6.130
 4575POPC   D2A59224  38.693  27.055   6.502
 4575POPC   C3A59225  38.538  27.032   6.926
 4575POPC   C4A59226  38.633  26.765   7.281
 4575POPC   C1B59227  38.096  26.393   6.180
 4575POPC   C2B59228  38.156  26.326   6.621
 4575POPC   C3B59229  38.138  26.607   7.016
 4575POPC   C4B59230  38.168  26.510   7.458
 4576POPC   NC359231  38.181  22.571   5.541
 4576POPC   PO459232  38.527  22.010   5.488
 4576POPC   GL159233  38.469  22.223   5.836
 4576POPC   GL259234  38.405  21.878   5.953
 4576POPC   C1A59235  38.325  22.377   6.250
 4576POPC   D2A59236  38.088  22.331   6.652
 4576POPC   C3A59237  38.255  22.269   7.053
 4576POPC   C4A59238  38.452  22.250   7.458
 4576POPC   C1B59239  38.294  21.871   6.338
 4576POPC   C2B59240  38.507  22.018   6.668
 4576POPC   C3B59241  38.632  21.934   7.068
 4576POPC   C4B59242  38.270  21.810   7.301
 4577POPC   NC359243  39.125  43.803   5.322
 4577POPC   PO459244  39.832  43.777   5.225
 4577POPC   GL159245  39.454  43.860   5.690
 4577POPC   GL259246  39.106  43.762   5.815
 4577POPC   C1A59247  39.426  43.544   6.122
 4577POPC   D2A59248  39.118  43.584   6.479
 4577POPC   C3A59249  39.282  43.824   6.848
 4577POPC   C4A59250  39.359  43.700   7.289
 4577POPC   C1B59251  39.230  44.006   6.194
 4577POPC   C2B59252  38.996  44.159   6.511
 4577POPC   C3B59253  38.816  44.066   6.879
 4577POPC   C4B59254  39.058  44.091   7.248
 4578POPC   NC359255  15.535  13.407   5.025
 4578POPC   PO459256  15.038  13.654   5.315
 4578POPC   GL159257  15.121  13.596   5.744
 4578POPC   GL259258  15.470  13.705   5.714
 4578POPC   C1A59259  15.216  13.432   6.172
 4578POPC   D2A59260  15.299  13.435   6.605
 4578POPC   C3A59261  15.295  13.617   7.024
 4578POPC   C4A59262  15.682  13.497   7.225
 4578POPC   C1B59263  15.323  13.919   6.083
 4578POPC   C2B59264  15.401  13.927   6.484
 4578POPC   C3B59265  15.260  14.147   6.814
 4578POPC   C4B59266  15.305  14.139   7.225
 4579POPC   NC359267  32.422   3.090   5.449
 4579POPC   PO459268  31.958   2.605   5.548
 4579POPC   GL159269  31.970   2.893   5.840
 4579POPC   GL259270  32.310   2.890   5.904
 4579POPC   C1A59271  31.965   2.846   6.269
 4579POPC   D2A59272  32.077   2.861   6.694
 4579POPC   C3A59273  31.914   2.628   7.039
 4579POPC   C4A59274  32.014   2.667   7.476
 4579POPC   C1B59275  32.450   2.987   6.356
 4579POPC   C2B59276  32.571   3.041   6.778
 4579POPC   C3B59277  32.379   2.839   7.156
 4579POPC   C4B59278  32.487   2.920   7.629
 4580POPC   NC359279  22.534  28.334   5.425
 4580POPC   PO459280  23.154  28.583   5.419
 4580POPC   GL159281  22.914  28.456   5.789
 4580POPC   GL259282  23.093  28.188   5.926
 4580POPC   C1A59283  22.744  28.394   6.234
 4580POPC   D2A59284  22.925  28.546   6.619
 4580POPC   C3A59285  22.752  28.520   7.041
 4580POPC   C4A59286  22.859  28.349   7.454
 4580POPC   C1B59287  23.260  28.366   6.232
 4580POPC   C2B59288  23.329  28.228   6.600
 4580POPC   C3B59289  23.230  28.402   6.998
 4580POPC   C4B59290  23.351  28.371   7.392
 4581POPC   NC359291  16.976   6.713   5.510
 4581POPC   PO459292  16.360   6.812   5.683
 4581POPC   GL159293  16.545   6.386   5.847
 4581POPC   GL259294  16.885   6.301   5.813
 4581POPC   C1A59295  16.621   6.355   6.285
 4581POPC   D2A59296  16.808   6.619   6.600
 4581POPC   C3A59297  16.631   6.662   7.019
 4581POPC   C4A59298  16.558   6.832   7.428
 4581POPC   C1B59299  17.119   6.352   6.219
 4581POPC   C2B59300  17.303   6.537   6.602
 4581POPC   C3B59301  17.097   6.449   6.999
 4581POPC   C4B59302  16.853   6.374   7.391
 4582POPC   NC359303  32.081  35.076   5.562
 4582POPC   PO459304  32.505  34.565   5.509
 4582POPC   GL159305  32.316  34.451   5.965
 4582POPC   GL259306  32.426  34.079   6.092
 4582POPC   C1A59307  32.306  34.683   6.392
 4582POPC   D2A59308  32.604  34.796   6.720
 4582POPC   C3A59309  32.404  34.979   7.084
 4582POPC   C4A59310  32.047  34.729   7.205
 4582POPC   C1B59311  32.103  34.216   6.380
 4582POPC   C2B59312  32.097  34.353   6.806
 4582POPC   C3B59313  31.839  34.276   7.164
 4582POPC   C4B59314  31.651  34.558   7.478
 4583POPC   NC359315  33.427  23.373   5.210
 4583POPC   PO459316  33.991  23.594   5.351
 4583POPC   GL159317  33.910  23.488   5.752
 4583POPC   GL259318  33.546  23.508   5.715
 4583POPC   C1A59319  34.098  23.664   6.138
 4583POPC   D2A59320  33.983  23.525   6.556
 4583POPC   C3A59321  33.866  23.718   6.940
 4583POPC   C4A59322  33.560  23.915   7.231
 4583POPC   C1B59323  33.614  23.472   6.181
 4583POPC   C2B59324  33.450  23.477   6.612
 4583POPC   C3B59325  33.457  23.410   7.076
 4583POPC   C4B59326  33.265  23.538   7.470
 4584POPC   NC359327  21.638  28.771   5.388
 4584POPC   PO459328  21.554  28.016   5.429
 4584POPC   GL159329  21.381  28.358   5.733
 4584POPC   GL259330  21.578  28.614   5.856
 4584POPC   C1A59331  21.414  28.271   6.193
 4584POPC   D2A59332  21.636  28.096   6.530
 4584POPC   C3A59333  21.440  28.324   6.853
 4584POPC   C4A59334  21.388  28.378   7.285
 4584POPC   C1B59335  21.162  28.702   6.103
 4584POPC   C2B59336  21.082  28.603   6.560
 4584POPC   C3B59337  21.124  28.719   7.004
 4584POPC   C4B59338  20.978  28.609   7.451
 4585POPC   NC359339  16.096  15.758   5.151
 4585POPC   PO459340  15.677  16.198   5.467
 4585POPC   GL159341  15.860  15.858   5.711
 4585POPC   GL259342  16.193  15.912   5.665
 4585POPC   C1A59343  15.861  15.700   6.131
 4585POPC   D2A59344  15.660  15.817   6.517
 4585POPC   C3A59345  15.798  15.690   6.877
 4585POPC   C4A59346  15.766  15.901   7.249
 4585POPC   C1B59347  16.366  15.797   6.087
 4585POPC   C2B59348  16.188  15.733   6.517
 4585POPC   C3B59349  16.332  15.711   6.930
 4585POPC   C4B59350  16.270  15.938   7.289
 4586POPC   NC359351   9.714  10.570   5.528
 4586POPC   PO459352  10.263  10.865   5.745
 4586POPC   GL159353   9.944  10.642   5.974
 4586POPC   GL259354  10.006  10.292   5.888
 4586POPC   C1A59355   9.605  10.429   6.256
 4586POPC   D2A59356   9.366  10.450   6.682
 4586POPC   C3A59357   9.563  10.259   7.062
 4586POPC   C4A59358   9.895  10.302   7.359
 4586POPC   C1B59359  10.107  10.351   6.347
 4586POPC   C2B59360   9.894  10.417   6.688
 4586POPC   C3B59361   9.895  10.669   6.985
 4586POPC   C4B59362   9.900  10.819   7.342
 4587POPC   NC359363  16.346  32.095   5.586
 4587POPC   PO459364  16.937  32.403   5.428
 4587POPC   GL159365  16.794  32.338   5.821
 4587POPC   GL259366  16.528  32.559   5.753
 4587POPC   C1A59367  16.787  32.383   6.288
 4587POPC   D2A59368  16.536  32.452   6.680
 4587POPC   C3A59369  16.721  32.158   7.001
 4587POPC   C4A59370  16.926  32.179   7.400
 4587POPC   C1B59371  16.437  32.751   6.132
 4587POPC   C2B59372  16.389  32.950   6.535
 4587POPC   C3B59373  16.380  32.883   6.962
 4587POPC   C4B59374  16.520  32.583   7.212
 4588POPC   NC359375   1.950   4.686   5.432
 4588POPC   PO459376   1.866   3.983   5.434
 4588POPC   GL159377   1.756   4.219   5.840
 4588POPC   GL259378   1.816   4.594   5.899
 4588POPC   C1A59379   1.895   4.287   6.279
 4588POPC   D2A59380   2.159   4.405   6.580
 4588POPC   C3A59381   2.123   4.280   6.993
 4588POPC   C4A59382   1.758   4.409   7.207
 4588POPC   C1B59383   2.233   4.639   6.097
 4588POPC   C2B59384   2.355   4.874   6.445
 4588POPC   C3B59385   2.331   4.796   6.873
 4588POPC   C4B59386   2.239   4.703   7.288
 4589POPC   NC359387  24.486  35.920   5.130
 4589POPC   PO459388  25.216  35.995   5.335
 4589POPC   GL159389  25.362  35.953   5.714
 4589POPC   GL259390  25.163  36.212   5.835
 4589POPC   C1A59391  25.230  35.842   6.159
 4589POPC   D2A59392  25.085  36.068   6.499
 4589POPC   C3A59393  25.307  35.929   6.857
 4589POPC   C4A59394  25.097  35.975   7.220
 4589POPC   C1B59395  25.231  36.461   6.168
 4589POPC   C2B59396  25.423  36.428   6.546
 4589POPC   C3B59397  25.222  36.430   6.938
 4589POPC   C4B59398  25.136  36.485   7.388
 4590POPC   NC359399  22.232  15.277   5.261
 4590POPC   PO459400  21.746  14.962   5.588
 4590POPC   GL159401  22.195  15.047   5.734
 4590POPC   GL259402  22.242  15.430   5.797
 4590POPC   C1A59403  22.444  15.031   6.121
 4590POPC   D2A59404  22.441  15.378   6.420
 4590POPC   C3A59405  22.289  15.339   6.843
 4590POPC   C4A59406  22.333  15.000   7.089
 4590POPC   C1B59407  22.012  15.339   6.145
 4590POPC   C2B59408  22.017  15.021   6.472
 4590POPC   C3B59409  21.864  15.033   6.898
 4590POPC   C4B59410  21.930  15.301   7.258
 4591POPC   NC359411  22.414  16.768   5.464
 4591POPC   PO459412  21.721  17.001   5.330
 4591POPC   GL159413  22.005  16.973   5.728
 4591POPC   GL259414  22.073  16.612   5.822
 4591POPC   C1A59415  22.135  16.949   6.195
 4591POPC   D2A59416  22.018  16.804   6.614
 4591POPC   C3A59417  22.247  16.969   7.002
 4591POPC   C4A59418  22.269  16.907   7.468
 4591POPC   C1B59419  22.212  16.406   6.223
 4591POPC   C2B59420  22.117  16.290   6.665
 4591POPC   C3B59421  22.213  16.440   7.099
 4591POPC   C4B59422  22.490  16.400   7.458
 4592POPC   NC359423  26.410  39.042   5.044
 4592POPC   PO459424  25.898  39.134   5.419
 4592POPC   GL159425  25.942  39.311   5.842
 4592POPC   GL259426  26.275  39.224   5.800
 4592POPC   C1A59427  25.952  39.451   6.264
 4592POPC   D2A59428  25.953  39.264   6.675
 4592POPC   C3A59429  25.771  39.485   7.047
 4592POPC   C4A59430  25.799  39.641   7.514
 4592POPC   C1B59431  26.457  39.369   6.231
 4592POPC   C2B59432  26.495  39.200   6.641
 4592POPC   C3B59433  26.513  39.297   7.070
 4592POPC   C4B59434  26.210  39.395   7.346
 4593POPC   NC359435  12.937  26.321   5.637
 4593POPC   PO459436  12.871  26.914   5.320
 4593POPC   GL159437  12.798  26.832   5.737
 4593POPC   GL259438  12.522  26.572   5.766
 4593POPC   C1A59439  13.069  26.790   6.113
 4593POPC   D2A59440  13.094  26.964   6.527
 4593POPC   C3A59441  13.020  26.673   6.833
 4593POPC   C4A59442  12.928  26.759   7.235
 4593POPC   C1B59443  12.504  26.809   6.150
 4593POPC   C2B59444  12.534  27.038   6.520
 4593POPC   C3B59445  12.439  26.900   6.909
 4593POPC   C4B59446  12.490  26.948   7.334
 4594POPC   NC359447  30.039  38.795   5.657
 4594POPC   PO459448  29.788  39.356   5.317
 4594POPC   GL159449  29.913  39.282   5.780
 4594POPC   GL259450  30.301  39.225   5.826
 4594POPC   C1A59451  29.725  39.104   6.186
 4594POPC   D2A59452  29.512  39.278   6.550
 4594POPC   C3A59453  29.801  39.363   6.882
 4594POPC   C4A59454  29.918  39.124   7.216
 4594POPC   C1B59455  30.239  39.011   6.253
 4594POPC   C2B59456  30.217  39.108   6.699
 4594POPC   C3B59457  30.344  38.887   7.069
 4594POPC   C4B59458  30.266  38.921   7.528
 4595POPC   NC359459  17.513   1.178   5.296
 4595POPC   PO459460  17.401   1.788   5.465
 4595POPC   GL159461  17.574   1.448   5.732
 4595POPC   GL259462  17.325   1.146   5.769
 4595POPC   C1A59463  17.686   1.240   6.135
 4595POPC   D2A59464  17.475   1.109   6.537
 4595POPC   C3A59465  17.650   1.302   6.922
 4595POPC   C4A59466  17.776   1.172   7.347
 4595POPC   C1B59467  17.202   1.454   6.091
 4595POPC   C2B59468  17.179   1.558   6.527
 4595POPC   C3B59469  17.122   1.349   6.926
 4595POPC   C4B59470  17.272   1.055   7.226
 4596POPC   NC359471  23.640  23.113   5.425
 4596POPC   PO459472  24.132  22.691   5.493
 4596POPC   GL159473  24.154  22.978   5.870
 4596POPC   GL259474  23.849  23.106   5.886
 4596POPC   C1A59475  24.148  23.221   6.271
 4596POPC   D2A59476  23.857  23.048   6.547
 4596POPC   C3A59477  23.860  23.052   6.983
 4596POPC   C4A59478  23.996  22.702   7.223
 4596POPC   C1B59479  23.499  23.018   6.158
 4596POPC   C2B59480  23.361  23.171   6.572
 4596POPC   C3B59481  23.353  22.884   6.899
 4596POPC   C4B59482  23.468  22.906   7.312
 4597POPC   NC359483  38.924  42.802   5.519
 4597POPC   PO459484  39.235  43.345   5.439
 4597POPC   GL159485  39.081  43.202   5.839
 4597POPC   GL259486  38.697  43.145   5.841
 4597POPC   C1A59487  39.290  42.997   6.205
 4597POPC   D2A59488  39.283  43.115   6.643
 4597POPC   C3A59489  39.542  42.932   6.951
 4597POPC   C4A59490  39.618  43.099   7.369
 4597POPC   C1B59491  38.807  43.156   6.287
 4597POPC   C2B59492  38.807  42.929   6.666
 4597POPC   C3B59493  39.013  42.885   7.040
 4597POPC   C4B59494  39.174  43.251   7.176
 4598POPC   NC359495  40.694   5.262   5.039
 4598POPC   PO459496  40.892   4.642   5.267
 4598POPC   GL159497  40.756   4.784   5.702
 4598POPC   GL259498  40.465   5.029   5.687
 4598POPC   C1A59499  40.712   4.843   6.179
 4598POPC   D2A59500  40.609   4.744   6.626
 4598POPC   C3A59501  40.746   4.885   7.042
 4598POPC   C4A59502  40.978   5.170   7.302
 4598POPC   C1B59503  40.574   5.323   6.071
 4598POPC   C2B59504  40.728   5.283   6.512
 4598POPC   C3B59505  40.676   5.407   6.951
 4598POPC   C4B59506  40.345   5.335   7.311
 4599POPC   NC359507  38.034   1.897   5.579
 4599POPC   PO459508  37.543   2.377   5.504
 4599POPC   GL159509  37.598   2.210   5.916
 4599POPC   GL259510  37.944   2.279   5.899
 4599POPC   C1A59511  37.495   1.849   6.219
 4599POPC   D2A59512  37.386   1.693   6.649
 4599POPC   C3A59513  37.483   1.926   7.037
 4599POPC   C4A59514  37.496   1.811   7.486
 4599POPC   C1B59515  37.991   1.986   6.217
 4599POPC   C2B59516  37.832   1.956   6.588
 4599POPC   C3B59517  37.956   2.060   6.957
 4599POPC   C4B59518  37.872   2.158   7.352
 4600POPC   NC359519   3.189  43.085   5.503
 4600POPC   PO459520   3.837  43.333   5.428
 4600POPC   GL159521   3.615  43.254   5.801
 4600POPC   GL259522   3.785  42.983   5.966
 4600POPC   C1A59523   3.566  43.374   6.225
 4600POPC   D2A59524   3.772  43.566   6.567
 4600POPC   C3A59525   3.669  43.303   6.886
 4600POPC   C4A59526   3.690  43.434   7.281
 4600POPC   C1B59527   3.392  42.798   6.144
 4600POPC   C2B59528   3.249  42.530   6.506
 4600POPC   C3B59529   3.194  42.820   6.862
 4600POPC   C4B59530   3.411  42.984   7.232
 4601POPC   NC359531  26.422  10.857   4.955
 4601POPC   PO459532  26.086  10.482   5.414
 4601POPC   GL159533  26.052  10.486   5.836
 4601POPC   GL259534  25.840  10.193   5.806
 4601POPC   C1A59535  25.826  10.689   6.194
 4601POPC   D2A59536  25.966  10.948   6.520
 4601POPC   C3A59537  26.118  10.778   6.894
 4601POPC   C4A59538  26.089  10.791   7.338
 4601POPC   C1B59539  25.997  10.207   6.248
 4601POPC   C2B59540  25.844  10.374   6.635
 4601POPC   C3B59541  25.704  10.512   7.034
 4601POPC   C4B59542  25.905  10.217   7.269
 4602POPC   NC359543  43.127  30.495   5.412
 4602POPC   PO459544  43.065  31.120   5.537
 4602POPC   GL159545  43.174  30.953   5.870
 4602POPC   GL259546  43.158  30.621   5.899
 4602POPC   C1A59547  43.328  30.896   6.279
 4602POPC   D2A59548  43.086  30.925   6.630
 4602POPC   C3A59549  43.157  30.739   7.037
 4602POPC   C4A59550  43.288  30.807   7.451
 4602POPC   C1B59551  43.052  30.381   6.260
 4602POPC   C2B59552  42.905  30.179   6.652
 4602POPC   C3B59553  42.946  30.299   7.102
 4602POPC   C4B59554  43.067  30.356   7.560
 4603POPC   NC359555  30.826  30.864   5.225
 4603POPC   PO459556  30.444  30.356   5.299
 4603POPC   GL159557  30.556  30.670   5.660
 4603POPC   GL259558  30.910  30.793   5.712
 4603POPC   C1A59559  30.548  30.876   6.106
 4603POPC   D2A59560  30.615  30.959   6.595
 4603POPC   C3A59561  30.530  30.595   6.886
 4603POPC   C4A59562  30.397  30.449   7.300
 4603POPC   C1B59563  31.065  30.817   6.121
 4603POPC   C2B59564  31.157  30.900   6.553
 4603POPC   C3B59565  31.008  30.899   6.973
 4603POPC   C4B59566  30.907  30.598   7.267
 4604POPC   NC359567   2.291  44.725   5.518
 4604POPC   PO459568   1.593  44.401   5.468
 4604POPC   GL159569   1.849  44.469   5.812
 4604POPC   GL259570   2.103  44.241   5.702
 4604POPC   C1A59571   1.831  44.655   6.255
 4604POPC   D2A59572   1.961  44.991   6.560
 4604POPC   C3A59573   2.001  44.868   7.011
 4604POPC   C4A59574   1.751  44.532   7.257
 4604POPC   C1B59575   2.219  44.323   6.129
 4604POPC   C2B59576   2.033  44.241   6.514
 4604POPC   C3B59577   2.105  44.341   6.918
 4604POPC   C4B59578   2.257  44.505   7.281
 4605POPC   NC359579  33.529  38.086   5.452
 4605POPC   PO459580  33.915  38.709   5.485
 4605POPC   GL159581  33.886  38.420   5.786
 4605POPC   GL259582  33.548  38.465   5.813
 4605POPC   C1A59583  33.801  38.403   6.247
 4605POPC   D2A59584  34.034  38.431   6.619
 4605POPC   C3A59585  33.955  38.146   6.939
 4605POPC   C4A59586  33.935  38.300   7.337
 4605POPC   C1B59587  33.513  38.819   6.116
 4605POPC   C2B59588  33.650  38.909   6.554
 4605POPC   C3B59589  33.649  38.707   6.964
 4605POPC   C4B59590  33.401  38.738   7.349
 4606POPC   NC359591  14.024  38.497   5.457
 4606POPC   PO459592  13.383  38.231   5.613
 4606POPC   GL159593  13.541  38.535   5.891
 4606POPC   GL259594  13.856  38.475   5.959
 4606POPC   C1A59595  13.511  38.730   6.289
 4606POPC   D2A59596  13.264  38.983   6.592
 4606POPC   C3A59597  13.274  38.770   6.956
 4606POPC   C4A59598  13.504  38.445   7.155
 4606POPC   C1B59599  13.803  38.240   6.336
 4606POPC   C2B59600  13.797  38.242   6.775
 4606POPC   C3B59601  13.859  38.058   7.165
 4606POPC   C4B59602  14.203  38.155   7.436
 4607POPC   NC359603  23.856  10.780   5.479
 4607POPC   PO459604  23.366  10.340   5.273
 4607POPC   GL159605  23.573  10.436   5.723
 4607POPC   GL259606  23.937  10.340   5.821
 4607POPC   C1A59607  23.649  10.720   6.104
 4607POPC   D2A59608  23.875  10.798   6.511
 4607POPC   C3A59609  23.772  10.619   6.950
 4607POPC   C4A59610  23.886  10.719   7.409
 4607POPC   C1B59611  23.922  10.331   6.276
 4607POPC   C2B59612  23.535  10.375   6.524
 4607POPC   C3B59613  23.330  10.211   6.889
 4607POPC   C4B59614  23.500  10.231   7.287
 4608POPC   NC359615  27.286   4.557   5.499
 4608POPC   PO459616  26.594   4.507   5.341
 4608POPC   GL159617  26.843   4.403   5.727
 4608POPC   GL259618  26.900   4.727   5.857
 4608POPC   C1A59619  27.085   4.328   6.175
 4608POPC   D2A59620  27.208   4.095   6.595
 4608POPC   C3A59621  26.965   4.229   6.960
 4608POPC   C4A59622  26.893   4.534   7.290
 4608POPC   C1B59623  26.586   4.517   6.139
 4608POPC   C2B59624  26.667   4.360   6.539
 4608POPC   C3B59625  26.548   4.537   6.915
 4608POPC   C4B59626  26.365   4.409   7.275
 4609POPC   NC359627  38.818   3.991   5.367
 4609POPC   PO459628  38.187   4.160   5.330
 4609POPC   GL159629  38.434   4.294   5.708
 4609POPC   GL259630  38.629   4.015   5.834
 4609POPC   C1A59631  38.455   4.407   6.168
 4609POPC   D2A59632  38.572   4.537   6.589
 4609POPC   C3A59633  38.418   4.304   6.934
 4609POPC   C4A59634  38.337   4.365   7.351
 4609POPC   C1B59635  38.839   4.057   6.213
 4609POPC   C2B59636  39.036   4.308   6.491
 4609POPC   C3B59637  38.892   4.168   6.864
 4609POPC   C4B59638  38.825   4.219   7.301
 4610POPC   NC359639   7.329  21.650   5.069
 4610POPC   PO459640   7.424  21.046   5.281
 4610POPC   GL159641   7.455  21.440   5.613
 4610POPC   GL259642   7.654  21.284   5.865
 4610POPC   C1A59643   7.393  21.661   6.091
 4610POPC   D2A59644   7.201  21.591   6.524
 4610POPC   C3A59645   7.292  21.643   6.988
 4610POPC   C4A59646   7.035  21.373   7.288
 4610POPC   C1B59647   7.435  21.188   6.286
 4610POPC   C2B59648   7.543  21.264   6.721
 4610POPC   C3B59649   7.481  21.176   7.150
 4610POPC   C4B59650   7.511  21.325   7.572
 4611POPC   NC359651   5.615  32.297   5.436
 4611POPC   PO459652   5.021  32.182   5.449
 4611POPC   GL159653   5.050  32.484   5.812
 4611POPC   GL259654   5.404  32.542   5.826
 4611POPC   C1A59655   4.962  32.462   6.277
 4611POPC   D2A59656   5.192  32.253   6.629
 4611POPC   C3A59657   5.013  32.123   7.032
 4611POPC   C4A59658   5.185  31.826   7.328
 4611POPC   C1B59659   5.506  32.370   6.226
 4611POPC   C2B59660   5.646  32.522   6.647
 4611POPC   C3B59661   5.400  32.489   7.043
 4611POPC   C4B59662   5.478  32.235   7.402
 4612POPC   NC359663  24.871   5.940   5.440
 4612POPC   PO459664  24.350   5.492   5.428
 4612POPC   GL159665  24.324   5.722   5.805
 4612POPC   GL259666  24.647   5.649   5.916
 4612POPC   C1A59667  24.358   5.975   6.194
 4612POPC   D2A59668  24.583   5.970   6.572
 4612POPC   C3A59669  24.324   6.057   6.921
 4612POPC   C4A59670  24.560   5.952   7.254
 4612POPC   C1B59671  24.354   5.468   6.264
 4612POPC   C2B59672  24.330   5.547   6.725
 4612POPC   C3B59673  24.442   5.470   7.165
 4612POPC   C4B59674  24.417   5.650   7.640
 4613POPC   NC359675  22.666   1.186   5.372
 4613POPC   PO459676  23.345   1.238   5.344
 4613POPC   GL159677  23.072   1.334   5.683
 4613POPC   GL259678  22.894   1.031   5.813
 4613POPC   C1A59679  22.998   1.411   6.136
 4613POPC   D2A59680  23.095   1.111   6.489
 4613POPC   C3A59681  23.005   1.171   6.930
 4613POPC   C4A59682  23.000   1.472   7.252
 4613POPC   C1B59683  22.728   0.824   6.216
 4613POPC   C2B59684  22.612   0.943   6.649
 4613POPC   C3B59685  22.613   0.839   7.101
 4613POPC   C4B59686  23.002   0.896   7.382
 4614POPC   NC359687   8.541  16.115   5.473
 4614POPC   PO459688   7.925  15.746   5.428
 4614POPC   GL159689   8.080  16.001   5.749
 4614POPC   GL259690   8.238  15.735   5.849
 4614POPC   C1A59691   8.243  16.121   6.178
 4614POPC   D2A59692   8.441  16.176   6.574
 4614POPC   C3A59693   8.283  16.074   6.948
 4614POPC   C4A59694   7.930  15.823   7.013
 4614POPC   C1B59695   8.397  15.623   6.227
 4614POPC   C2B59696   8.216  15.671   6.608
 4614POPC   C3B59697   8.364  15.557   6.988
 4614POPC   C4B59698   8.649  15.700   7.245
 4615POPC   NC359699  33.474  14.759   5.475
 4615POPC   PO459700  33.095  15.317   5.197
 4615POPC   GL159701  33.038  15.248   5.657
 4615POPC   GL259702  33.301  15.097   5.804
 4615POPC   C1A59703  32.872  15.068   6.120
 4615POPC   D2A59704  32.591  15.134   6.552
 4615POPC   C3A59705  32.554  15.405   6.962
 4615POPC   C4A59706  32.720  15.322   7.384
 4615POPC   C1B59707  33.283  15.366   6.165
 4615POPC   C2B59708  33.081  15.335   6.579
 4615POPC   C3B59709  33.039  15.510   6.986
 4615POPC   C4B59710  33.226  15.410   7.364
 4616POPC   NC359711  38.600  15.582   5.429
 4616POPC   PO459712  38.881  15.017   5.231
 4616POPC   GL159713  38.640  15.056   5.617
 4616POPC   GL259714  38.369  14.861   5.646
 4616POPC   C1A59715  38.461  15.241   6.032
 4616POPC   D2A59716  38.608  15.463   6.426
 4616POPC   C3A59717  38.395  15.343   6.810
 4616POPC   C4A59718  38.198  15.248   7.210
 4616POPC   C1B59719  38.355  14.745   6.078
 4616POPC   C2B59720  38.391  14.953   6.466
 4616POPC   C3B59721  38.219  14.869   6.853
 4616POPC   C4B59722  38.276  14.698   7.237
 4617POPC   NC359723   5.527  15.355   5.371
 4617POPC   PO459724   6.023  14.993   5.423
 4617POPC   GL159725   5.956  14.880   5.840
 4617POPC   GL259726   5.976  15.203   5.944
 4617POPC   C1A59727   5.784  14.853   6.278
 4617POPC   D2A59728   5.739  15.122   6.648
 4617POPC   C3A59729   5.997  15.214   6.985
 4617POPC   C4A59730   5.718  15.259   7.246
 4617POPC   C1B59731   6.094  15.358   6.363
 4617POPC   C2B59732   5.909  15.633   6.695
 4617POPC   C3B59733   5.825  15.736   7.119
 4617POPC   C4B59734   6.144  15.746   7.438
 4618POPC   NC359735  19.513  23.803   5.603
 4618POPC   PO459736  19.980  23.429   5.241
 4618POPC   GL159737  19.972  23.488   5.803
 4618POPC   GL259738  19.872  23.818   5.951
 4618POPC   C1A59739  20.135  23.606   6.295
 4618POPC   D2A59740  19.947  23.966   6.536
 4618POPC   C3A59741  19.797  23.917   6.947
 4618POPC   C4A59742  19.792  23.600   7.271
 4618POPC   C1B59743  19.637  23.571   6.294
 4618POPC   C2B59744  19.591  23.505   6.740
 4618POPC   C3B59745  19.346  23.620   7.055
 4618POPC   C4B59746  19.424  23.979   7.292
 4619POPC   NC359747  31.560  10.426   5.429
 4619POPC   PO459748  30.956  10.530   5.359
 4619POPC   GL159749  31.234  10.523   5.802
 4619POPC   GL259750  31.564  10.658   5.920
 4619POPC   C1A59751  31.282  10.299   6.221
 4619POPC   D2A59752  31.194  10.463   6.658
 4619POPC   C3A59753  31.340  10.295   7.053
 4619POPC   C4A59754  31.430  10.460   7.487
 4619POPC   C1B59755  31.300  10.827   6.234
 4619POPC   C2B59756  31.435  10.918   6.646
 4619POPC   C3B59757  31.353  10.810   7.056
 4619POPC   C4B59758  31.185  11.125   7.243
 4620POPC   NC359759  43.685  26.330   5.372
 4620POPC   PO459760  44.026  25.778   5.575
 4620POPC   GL159761  44.124  25.960   5.915
 4620POPC   GL259762  44.330  25.689   6.019
 4620POPC   C1A59763  43.758  26.090   6.162
 4620POPC   D2A59764  43.463  26.093   6.493
 4620POPC   C3A59765  43.526  26.324   6.847
 4620POPC   C4A59766  43.643  26.219   7.267
 4620POPC   C1B59767  44.132  25.812   6.399
 4620POPC   C2B59768  43.971  26.117   6.653
 4620POPC   C3B59769  44.075  26.058   7.055
 4620POPC   C4B59770  44.287  25.900   7.400
 4621POPC   NC359771  29.853  26.252   5.125
 4621POPC   PO459772  30.145  25.846   5.470
 4621POPC   GL159773  29.971  25.957   5.882
 4621POPC   GL259774  29.640  26.014   5.872
 4621POPC   C1A59775  29.918  26.063   6.342
 4621POPC   D2A59776  30.024  25.874   6.734
 4621POPC   C3A59777  29.875  25.989   7.169
 4621POPC   C4A59778  30.134  26.319   7.412
 4621POPC   C1B59779  29.441  25.907   6.277
 4621POPC   C2B59780  29.514  25.923   6.693
 4621POPC   C3B59781  29.485  25.683   7.056
 4621POPC   C4B59782  29.416  25.910   7.427
 4622POPC   NC359783  14.669   0.887   5.380
 4622POPC   PO459784  14.226   1.456   5.465
 4622POPC   GL159785  14.541   1.278   5.738
 4622POPC   GL259786  14.444   0.963   5.836
 4622POPC   C1A59787  14.618   1.335   6.187
 4622POPC   D2A59788  14.832   1.101   6.519
 4622POPC   C3A59789  14.667   1.071   6.970
 4622POPC   C4A59790  14.425   1.406   7.184
 4622POPC   C1B59791  14.293   0.959   6.277
 4622POPC   C2B59792  14.266   1.123   6.674
 4622POPC   C3B59793  14.068   1.053   7.079
 4622POPC   C4B59794  13.955   1.334   7.391
 4623POPC   NC359795  42.324  40.071   5.296
 4623POPC   PO459796  42.977  39.766   5.213
 4623POPC   GL159797  42.668  39.827   5.629
 4623POPC   GL259798  42.568  40.203   5.714
 4623POPC   C1A59799  42.358  39.840   6.039
 4623POPC   D2A59800  42.001  39.764   6.385
 4623POPC   C3A59801  42.136  39.825   6.830
 4623POPC   C4A59802  42.269  39.737   7.255
 4623POPC   C1B59803  42.338  40.369   6.071
 4623POPC   C2B59804  42.424  40.479   6.506
 4623POPC   C3B59805  42.426  40.262   6.891
 4623POPC   C4B59806  42.423  40.223   7.308
 4624POPC   NC359807  34.595  34.089   5.475
 4624POPC   PO459808  34.788  33.439   5.581
 4624POPC   GL159809  34.645  33.722   5.898
 4624POPC   GL259810  34.762  34.072   5.949
 4624POPC   C1A59811  34.705  33.694   6.349
 4624POPC   D2A59812  34.853  33.891   6.714
 4624POPC   C3A59813  34.731  33.604   7.034
 4624POPC   C4A59814  34.716  33.625   7.489
 4624POPC   C1B59815  34.373  34.053   6.214
 4624POPC   C2B59816  34.340  33.944   6.656
 4624POPC   C3B59817  34.461  34.057   7.073
 4624POPC   C4B59818  34.199  34.188   7.399
 4625POPC   NC359819   6.527  26.315   5.102
 4625POPC   PO459820   6.423  25.750   5.525
 4625POPC   GL159821   6.554  26.027   5.813
 4625POPC   GL259822   6.482  26.346   5.654
 4625POPC   C1A59823   6.890  26.050   6.137
 4625POPC   D2A59824   7.044  26.114   6.568
 4625POPC   C3A59825   6.737  25.969   6.887
 4625POPC   C4A59826   6.635  25.777   7.283
 4625POPC   C1B59827   6.525  26.459   6.079
 4625POPC   C2B59828   6.571  26.302   6.474
 4625POPC   C3B59829   6.590  26.458   6.866
 4625POPC   C4B59830   7.003  26.395   7.026
 4626POPC   NC359831  43.409  29.840   5.386
 4626POPC   PO459832  42.743  30.252   5.300
 4626POPC   GL159833  42.955  30.155   5.767
 4626POPC   GL259834  43.347  30.163   5.791
 4626POPC   C1A59835  42.897  29.887   6.189
 4626POPC   D2A59836  43.038  29.670   6.601
 4626POPC   C3A59837  42.834  29.813   7.016
 4626POPC   C4A59838  43.081  29.856   7.400
 4626POPC   C1B59839  43.445  29.938   6.189
 4626POPC   C2B59840  43.571  29.715   6.583
 4626POPC   C3B59841  43.414  29.795   6.992
 4626POPC   C4B59842  43.430  30.197   7.246
 4627POPC   NC359843  12.736  34.852   5.486
 4627POPC   PO459844  13.183  34.320   5.344
 4627POPC   GL159845  13.146  34.462   5.774
 4627POPC   GL259846  13.218  34.792   5.754
 4627POPC   C1A59847  13.014  34.460   6.229
 4627POPC   D2A59848  12.874  34.577   6.662
 4627POPC   C3A59849  12.950  34.283   7.005
 4627POPC   C4A59850  13.333  34.295   7.260
 4627POPC   C1B59851  13.077  35.002   6.093
 4627POPC   C2B59852  13.140  35.275   6.429
 4627POPC   C3B59853  13.103  35.113   6.836
 4627POPC   C4B59854  12.984  34.793   7.147
 4628POPC   NC359855  34.884  41.007   5.109
 4628POPC   PO459856  35.405  40.513   5.313
 4628POPC   GL159857  35.259  40.581   5.724
 4628POPC   GL259858  35.384  40.926   5.773
 4628POPC   C1A59859  35.188  40.636   6.181
 4628POPC   D2A59860  35.211  40.827   6.596
 4628POPC   C3A59861  35.136  40.541   6.940
 4628POPC   C4A59862  35.231  40.523   7.371
 4628POPC   C1B59863  35.363  41.140   6.176
 4628POPC   C2B59864  35.547  41.228   6.583
 4628POPC   C3B59865  35.371  41.174   6.998
 4628POPC   C4B59866  35.530  41.277   7.401
 4629POPC   NC359867  15.404  42.734   5.495
 4629POPC   PO459868  15.197  43.383   5.349
 4629POPC   GL159869  15.126  43.118   5.752
 4629POPC   GL259870  15.472  43.083   5.918
 4629POPC   C1A59871  14.973  43.053   6.203
 4629POPC   D2A59872  15.086  43.206   6.640
 4629POPC   C3A59873  14.904  43.103   7.044
 4629POPC   C4A59874  14.943  42.736   7.310
 4629POPC   C1B59875  15.323  43.415   6.231
 4629POPC   C2B59876  15.368  43.626   6.666
 4629POPC   C3B59877  15.223  43.530   7.105
 4629POPC   C4B59878  14.960  43.414   7.499
 4630POPC   NC359879  31.733  39.140   5.326
 4630POPC   PO459880  31.083  39.347   5.128
 4630POPC   GL159881  31.300  39.109   5.560
 4630POPC   GL259882  31.276  38.859   5.808
 4630POPC   C1A59883  31.667  39.130   5.961
 4630POPC   D2A59884  31.615  39.160   6.436
 4630POPC   C3A59885  31.839  39.395   6.742
 4630POPC   C4A59886  31.703  39.307   7.174
 4630POPC   C1B59887  31.206  39.173   6.157
 4630POPC   C2B59888  31.117  39.289   6.610
 4630POPC   C3B59889  31.170  39.236   7.067
 4630POPC   C4B59890  31.410  38.875   7.145
 4631POPC   NC359891  24.895  17.484   5.089
 4631POPC   PO459892  24.361  17.652   5.470
 4631POPC   GL159893  24.671  17.595   5.821
 4631POPC   GL259894  24.857  17.248   5.881
 4631POPC   C1A59895  24.563  17.482   6.245
 4631POPC   D2A59896  24.208  17.433   6.529
 4631POPC   C3A59897  24.388  17.369   6.912
 4631POPC   C4A59898  24.652  17.655   7.141
 4631POPC   C1B59899  24.996  17.198   6.309
 4631POPC   C2B59900  24.895  17.456   6.668
 4631POPC   C3B59901  24.939  17.249   7.042
 4631POPC   C4B59902  24.587  17.165   7.323
 4632POPC   NC359903   0.173  41.489   5.228
 4632POPC   PO459904   0.764  41.475   5.327
 4632POPC   GL159905   0.519  41.575   5.678
 4632POPC   GL259906   0.654  41.909   5.767
 4632POPC   C1A59907   0.328  41.453   6.077
 4632POPC   D2A59908   0.466  41.322   6.486
 4632POPC   C3A59909   0.262  41.478   6.850
 4632POPC   C4A59910   0.412  41.417   7.262
 4632POPC   C1B59911   0.553  41.896   6.212
 4632POPC   C2B59912   0.525  41.875   6.638
 4632POPC   C3B59913   0.450  41.886   7.073
 4632POPC   C4B59914   0.417  41.932   7.509
 4633POPC   NC359915  32.811  14.325   5.522
 4633POPC   PO459916  32.384  13.855   5.653
 4633POPC   GL159917  32.431  14.259   5.895
 4633POPC   GL259918  32.636  14.594   5.922
 4633POPC   C1A59919  32.320  14.423   6.326
 4633POPC   D2A59920  32.409  14.492   6.771
 4633POPC   C3A59921  32.034  14.404   7.052
 4633POPC   C4A59922  31.829  14.466   7.464
 4633POPC   C1B59923  32.798  14.313   6.237
 4633POPC   C2B59924  32.661  14.018   6.621
 4633POPC   C3B59925  32.581  14.081   7.085
 4633POPC   C4B59926  32.479  14.479   7.282
 4634POPC   NC359927   7.802  37.684   5.169
 4634POPC   PO459928   7.312  37.321   5.390
 4634POPC   GL159929   7.632  37.538   5.651
 4634POPC   GL259930   7.783  37.287   5.812
 4634POPC   C1A59931   7.643  37.710   6.108
 4634POPC   D2A59932   7.389  37.949   6.470
 4634POPC   C3A59933   7.376  37.791   6.899
 4634POPC   C4A59934   7.562  37.956   7.268
 4634POPC   C1B59935   7.761  37.196   6.225
 4634POPC   C2B59936   7.653  37.405   6.600
 4634POPC   C3B59937   7.623  37.342   7.047
 4634POPC   C4B59938   7.217  37.273   7.247
 4635POPC   NC359939  20.760  28.632   5.285
 4635POPC   PO459940  20.271  29.008   5.438
 4635POPC   GL159941  20.660  29.112   5.748
 4635POPC   GL259942  20.933  29.395   5.775
 4635POPC   C1A59943  20.694  29.213   6.222
 4635POPC   D2A59944  20.528  29.433   6.602
 4635POPC   C3A59945  20.387  29.164   7.014
 4635POPC   C4A59946  20.326  29.157   7.501
 4635POPC   C1B59947  21.179  29.321   6.171
 4635POPC   C2B59948  21.204  29.128   6.547
 4635POPC   C3B59949  20.874  29.107   6.802
 4635POPC   C4B59950  20.848  29.085   7.246
 4636POPC   NC359951  13.375  32.383   5.449
 4636POPC   PO459952  13.721  31.780   5.670
 4636POPC   GL159953  13.798  32.215   5.735
 4636POPC   GL259954  13.489  32.224   5.910
 4636POPC   C1A59955  13.948  32.397   6.107
 4636POPC   D2A59956  13.815  32.219   6.510
 4636POPC   C3A59957  13.846  32.425   6.906
 4636POPC   C4A59958  13.817  32.353   7.320
 4636POPC   C1B59959  13.291  32.237   6.306
 4636POPC   C2B59960  13.389  32.470   6.661
 4636POPC   C3B59961  13.381  32.496   7.097
 4636POPC   C4B59962  13.331  32.371   7.518
 4637POPC   NC359963   5.874   6.930   5.494
 4637POPC   PO459964   5.641   7.526   5.283
 4637POPC   GL159965   5.873   7.467   5.668
 4637POPC   GL259966   6.044   7.772   5.716
 4637POPC   C1A59967   5.949   7.437   6.134
 4637POPC   D2A59968   5.754   7.384   6.506
 4637POPC   C3A59969   5.837   7.116   6.796
 4637POPC   C4A59970   5.641   7.330   7.082
 4637POPC   C1B59971   6.183   7.922   6.116
 4637POPC   C2B59972   6.323   7.822   6.562
 4637POPC   C3B59973   6.111   7.584   6.859
 4637POPC   C4B59974   5.959   7.718   7.225
 4638POPC   NC359975  25.522  30.173   5.407
 4638POPC   PO459976  25.049  29.789   5.365
 4638POPC   GL159977  25.277  29.851   5.724
 4638POPC   GL259978  25.273  29.548   5.831
 4638POPC   C1A59979  25.264  30.130   6.081
 4638POPC   D2A59980  25.363  30.220   6.523
 4638POPC   C3A59981  25.458  30.055   6.954
 4638POPC   C4A59982  25.210  29.992   7.353
 4638POPC   C1B59983  25.068  29.672   6.222
 4638POPC   C2B59984  25.132  29.780   6.668
 4638POPC   C3B59985  25.302  29.573   7.064
 4638POPC   C4B59986  25.109  29.518   7.509
 4639POPC   NC359987  13.804   2.149   5.444
 4639POPC   PO459988  13.499   1.579   5.545
 4639POPC   GL159989  13.670   1.908   5.890
 4639POPC   GL259990  13.534   2.268   5.873
 4639POPC   C1A59991  13.799   2.144   6.313
 4639POPC   D2A59992  13.920   2.155   6.795
 4639POPC   C3A59993  13.806   1.795   7.096
 4639POPC   C4A59994  13.604   1.721   7.487
 4639POPC   C1B59995  13.588   2.613   6.183
 4639POPC   C2B59996  13.385   2.663   6.588
 4639POPC   C3B59997  13.407   2.291   6.839
 4639POPC   C4B59998  13.514   2.195   7.252
 4640POPC   NC359999  20.804  32.966   5.298
 4640POPC   PO460000  20.196  33.123   5.389
 4640POPC   GL160001  20.430  32.928   5.740
 4640POPC   GL260002  20.750  33.074   5.771
 4640POPC   C1A60003  20.437  33.072   6.175
 4640POPC   D2A60004  20.538  33.333   6.524
 4640POPC   C3A60005  20.351  33.140   6.914
 4640POPC   C4A60006  20.502  32.932   7.304
 4640POPC   C1B60007  20.842  32.736   6.021
 4640POPC   C2B60008  20.814  32.834   6.459
 4640POPC   C3B60009  20.788  32.797   6.898
 4640POPC   C4B60010  20.980  32.743   7.306
 4641POPC   NC360011  42.294  21.717   5.184
 4641POPC   PO460012  42.337  22.420   5.361
 4641POPC   GL160013  42.376  22.207   5.753
 4641POPC   GL260014  42.222  21.905   5.680
 4641POPC   C1A60015  42.213  22.269   6.202
 4641POPC   D2A60016  42.098  22.303   6.655
 4641POPC   C3A60017  42.352  22.098   6.991
 4641POPC   C4A60018  42.468  22.129   7.447
 4641POPC   C1B60019  42.176  21.750   6.108
 4641POPC   C2B60020  42.224  21.803   6.561
 4641POPC   C3B60021  41.932  21.833   6.917
 4641POPC   C4B60022  41.990  22.004   7.353
 4642POPC   NC360023  35.525  12.677   5.429
 4642POPC   PO460024  34.994  13.101   5.452
 4642POPC   GL160025  35.181  12.859   5.764
 4642POPC   GL260026  35.518  13.037   5.793
 4642POPC   C1A60027  35.151  12.940   6.183
 4642POPC   D2A60028  35.340  13.002   6.565
 4642POPC   C3A60029  35.199  12.734   6.861
 4642POPC   C4A60030  35.252  12.897   7.216
 4642POPC   C1B60031  35.610  12.720   6.108
 4642POPC   C2B60032  35.430  12.522   6.432
 4642POPC   C3B60033  35.460  12.277   6.797
 4642POPC   C4B60034  35.503  12.434   7.201
 4643POPC   NC360035  15.235  42.299   4.979
 4643POPC   PO460036  14.959  42.657   5.379
 4643POPC   GL160037  15.119  42.400   5.743
 4643POPC   GL260038  15.221  42.642   5.994
 4643POPC   C1A60039  15.239  42.144   6.106
 4643POPC   D2A60040  15.343  42.106   6.534
 4643POPC   C3A60041  15.144  42.378   6.836
 4643POPC   C4A60042  15.182  42.274   7.257
 4643POPC   C1B60043  15.424  42.844   6.376
 4643POPC   C2B60044  15.600  42.687   6.774
 4643POPC   C3B60045  15.436  42.744   7.184
 4643POPC   C4B60046  15.366  42.600   7.613
 4644POPC   NC360047  21.541  31.822   5.435
 4644POPC   PO460048  21.410  31.208   5.176
 4644POPC   GL160049  21.425  31.360   5.663
 4644POPC   GL260050  21.712  31.496   5.808
 4644POPC   C1A60051  21.367  31.294   6.147
 4644POPC   D2A60052  21.358  31.502   6.583
 4644POPC   C3A60053  21.062  31.377   6.943
 4644POPC   C4A60054  21.136  31.072   7.295
 4644POPC   C1B60055  21.542  31.775   6.151
 4644POPC   C2B60056  21.714  31.884   6.551
 4644POPC   C3B60057  21.729  31.756   6.984
 4644POPC   C4B60058  21.454  31.538   7.276
 4645POPC   NC360059  17.855  22.899   5.345
 4645POPC   PO460060  18.480  22.887   5.345
 4645POPC   GL160061  18.578  23.087   5.765
 4645POPC   GL260062  18.578  22.761   5.857
 4645POPC   C1A60063  18.409  23.139   6.241
 4645POPC   D2A60064  18.122  23.233   6.626
 4645POPC   C3A60065  18.162  23.007   7.064
 4645POPC   C4A60066  18.029  22.595   7.290
 4645POPC   C1B60067  18.553  22.624   6.263
 4645POPC   C2B60068  18.373  22.769   6.627
 4645POPC   C3B60069  18.426  22.563   6.975
 4645POPC   C4B60070  18.512  22.700   7.394
 4646POPC   NC360071  30.227  31.196   5.428
 4646POPC   PO460072  30.189  31.801   5.649
 4646POPC   GL160073  30.067  31.406   5.877
 4646POPC   GL260074  29.772  31.207   5.755
 4646POPC   C1A60075  30.159  31.354   6.313
 4646POPC   D2A60076  30.413  31.444   6.657
 4646POPC   C3A60077  30.247  31.530   7.081
 4646POPC   C4A60078  30.160  31.761   7.495
 4646POPC   C1B60079  29.650  31.237   6.217
 4646POPC   C2B60080  29.775  31.411   6.650
 4646POPC   C3B60081  29.785  31.232   7.059
 4646POPC   C4B60082  29.504  30.913   7.054
 4647POPC   NC360083  22.989  35.683   5.495
 4647POPC   PO460084  23.275  35.180   5.174
 4647POPC   GL160085  23.020  35.145   5.638
 4647POPC   GL260086  22.692  35.334   5.713
 4647POPC   C1A60087  22.889  35.119   6.115
 4647POPC   D2A60088  23.038  35.371   6.460
 4647POPC   C3A60089  22.955  35.191   6.847
 4647POPC   C4A60090  23.053  35.070   7.251
 4647POPC   C1B60091  22.695  35.629   6.122
 4647POPC   C2B60092  22.738  35.833   6.542
 4647POPC   C3B60093  22.596  35.728   6.939
 4647POPC   C4B60094  22.670  35.401   7.214
 4648POPC   NC360095  43.653  36.328   5.326
 4648POPC   PO460096  43.722  35.761   5.535
 4648POPC   GL160097  43.660  36.129   5.810
 4648POPC   GL260098  43.979  36.240   5.803
 4648POPC   C1A60099  43.657  36.395   6.225
 4648POPC   D2A60100  43.828  36.328   6.656
 4648POPC   C3A60101  43.646  36.205   7.067
 4648POPC   C4A60102  43.457  36.013   7.421
 4648POPC   C1B60103  44.125  36.148   6.241
 4648POPC   C2B60104  44.323  36.140   6.648
 4648POPC   C3B60105  44.210  36.331   7.049
 4648POPC   C4B60106  44.377  36.327   7.488
 4649POPC   NC360107   3.473  41.305   5.377
 4649POPC   PO460108   3.228  41.898   5.651
 4649POPC   GL160109   3.375  41.555   5.841
 4649POPC   GL260110   3.708  41.671   5.681
 4649POPC   C1A60111   3.374  41.456   6.294
 4649POPC   D2A60112   3.549  41.688   6.658
 4649POPC   C3A60113   3.456  41.508   7.028
 4649POPC   C4A60114   3.137  41.663   7.278
 4649POPC   C1B60115   3.775  41.724   6.130
 4649POPC   C2B60116   3.865  41.381   6.440
 4649POPC   C3B60117   3.964  41.406   6.877
 4649POPC   C4B60118   3.895  41.808   7.082
 4650POPC   NC360119  11.615  22.624   5.432
 4650POPC   PO460120  11.136  23.000   5.508
 4650POPC   GL160121  11.280  23.068   5.901
 4650POPC   GL260122  11.115  23.407   5.896
 4650POPC   C1A60123  11.377  22.748   6.244
 4650POPC   D2A60124  11.333  22.468   6.602
 4650POPC   C3A60125  11.430  22.795   6.926
 4650POPC   C4A60126  11.471  23.241   7.101
 4650POPC   C1B60127  11.007  23.257   6.276
 4650POPC   C2B60128  11.223  23.206   6.649
 4650POPC   C3B60129  10.965  23.185   7.014
 4650POPC   C4B60130  10.869  23.071   7.422
 4651POPC   NC360131  21.257   2.000   5.329
 4651POPC   PO460132  21.716   2.372   5.535
 4651POPC   GL160133  21.502   2.145   5.804
 4651POPC   GL260134  21.539   1.783   5.708
 4651POPC   C1A60135  21.325   2.205   6.208
 4651POPC   D2A60136  21.499   2.067   6.575
 4651POPC   C3A60137  21.231   2.180   6.867
 4651POPC   C4A60138  21.310   1.994   7.218
 4651POPC   C1B60139  21.501   1.734   6.167
 4651POPC   C2B60140  21.354   1.561   6.610
 4651POPC   C3B60141  21.249   1.508   7.069
 4651POPC   C4B60142  21.256   1.655   7.575
 4652POPC   NC360143  42.261  30.258   5.370
 4652POPC   PO460144  42.202  29.477   5.490
 4652POPC   GL160145  42.173  29.815   5.811
 4652POPC   GL260146  42.441  30.107   5.820
 4652POPC   C1A60147  42.250  29.888   6.254
 4652POPC   D2A60148  42.524  29.755   6.593
 4652POPC   C3A60149  42.312  29.844   6.984
 4652POPC   C4A60150  41.864  29.905   7.028
 4652POPC   C1B60151  42.541  30.298   6.221
 4652POPC   C2B60152  42.356  30.252   6.642
 4652POPC   C3B60153  42.430  30.343   7.076
 4652POPC   C4B60154  42.615  30.126   7.435
 4653POPC   NC360155  21.121  44.308   5.450
 4653POPC   PO460156  21.723  44.067   5.489
 4653POPC   GL160157  21.431  43.983   5.803
 4653POPC   GL260158  21.369  44.296   5.884
 4653POPC   C1A60159  21.500  43.877   6.218
 4653POPC   D2A60160  21.790  43.888   6.556
 4653POPC   C3A60161  21.693  43.801   6.999
 4653POPC   C4A60162  21.330  43.849   7.243
 4653POPC   C1B60163  21.133  44.242   6.232
 4653POPC   C2B60164  21.093  44.057   6.655
 4653POPC   C3B60165  21.041  44.222   7.072
 4653POPC   C4B60166  21.010  44.208   7.536
 4654POPC   NC360167  15.566  24.725   5.589
 4654POPC   PO460168  15.148  24.333   5.126
 4654POPC   GL160169  15.169  24.303   5.652
 4654POPC   GL260170  15.112  24.613   5.902
 4654POPC   C1A60171  15.143  24.191   6.160
 4654POPC   D2A60172  15.329  24.269   6.608
 4654POPC   C3A60173  15.112  24.483   6.954
 4654POPC   C4A60174  14.928  24.264   7.285
 4654POPC   C1B60175  15.435  24.719   6.240
 4654POPC   C2B60176  15.637  24.728   6.643
 4654POPC   C3B60177  15.630  24.491   7.004
 4654POPC   C4B60178  15.510  24.738   7.297
 4655POPC   NC360179  28.006  37.168   5.274
 4655POPC   PO460180  28.581  36.787   5.463
 4655POPC   GL160181  28.395  36.932   5.849
 4655POPC   GL260182  28.197  37.173   5.732
 4655POPC   C1A60183  28.429  37.113   6.289
 4655POPC   D2A60184  28.631  37.241   6.710
 4655POPC   C3A60185  28.550  37.008   7.079
 4655POPC   C4A60186  28.563  36.570   7.161
 4655POPC   C1B60187  27.922  37.228   6.079
 4655POPC   C2B60188  27.976  37.258   6.529
 4655POPC   C3B60189  28.120  37.341   6.931
 4655POPC   C4B60190  28.120  37.177   7.346
 4656POPC   NC360191   9.263  36.573   5.014
 4656POPC   PO460192   8.930  36.161   5.565
 4656POPC   GL160193   9.117  36.025   5.933
 4656POPC   GL260194   9.443  35.894   5.806
 4656POPC   C1A60195   8.959  36.114   6.358
 4656POPC   D2A60196   9.019  36.443   6.658
 4656POPC   C3A60197   9.005  36.413   7.128
 4656POPC   C4A60198   9.260  36.471   7.540
 4656POPC   C1B60199   9.526  35.980   6.246
 4656POPC   C2B60200   9.349  35.968   6.664
 4656POPC   C3B60201   9.265  35.962   7.084
 4656POPC   C4B60202   8.869  35.900   7.307
 4657POPC   NC360203  44.553   6.697   5.206
 4657POPC   PO460204  44.990   6.923   5.680
 4657POPC   GL160205  44.835   6.673   5.907
 4657POPC   GL260206  44.576   6.609   5.717
 4657POPC   C1A60207  44.914   6.651   6.297
 4657POPC   D2A60208   0.113   6.713   6.630
 4657POPC   C3A60209  44.879   6.733   6.974
 4657POPC   C4A60210  44.701   6.441   7.295
 4657POPC   C1B60211  44.404   6.629   6.145
 4657POPC   C2B60212  44.498   6.800   6.563
 4657POPC   C3B60213  44.386   6.640   6.947
 4657POPC   C4B60214  44.208   6.547   7.328
 4658POPC   NC360215   1.028  39.570   5.182
 4658POPC   PO460216   1.390  40.126   5.193
 4658POPC   GL160217   1.191  40.044   5.623
 4658POPC   GL260218   1.413  39.793   5.674
 4658POPC   C1A60219   1.097  40.084   6.095
 4658POPC   D2A60220   1.271  40.044   6.553
 4658POPC   C3A60221   1.115  39.958   6.999
 4658POPC   C4A60222   1.178  39.994   7.469
 4658POPC   C1B60223   1.607  39.768   6.075
 4658POPC   C2B60224   1.519  39.604   6.495
 4658POPC   C3B60225   1.620  39.790   6.909
 4658POPC   C4B60226   1.526  39.636   7.334
 4659POPC   NC360227  37.128   8.067   5.429
 4659POPC   PO460228  36.445   8.206   5.302
 4659POPC   GL160229  36.738   8.417   5.612
 4659POPC   GL260230  36.809   8.119   5.806
 4659POPC   C1A60231  36.740   8.496   6.108
 4659POPC   D2A60232  36.714   8.216   6.470
 4659POPC   C3A60233  36.914   8.240   6.863
 4659POPC   C4A60234  36.847   8.544   7.185
 4659POPC   C1B60235  36.946   7.850   6.162
 4659POPC   C2B60236  37.154   7.876   6.518
 4659POPC   C3B60237  37.248   7.825   6.906
 4659POPC   C4B60238  37.110   7.972   7.279
 4660POPC   NC360239  37.236  12.964   5.472
 4660POPC   PO460240  36.605  13.048   5.520
 4660POPC   GL160241  36.840  12.845   5.834
 4660POPC   GL260242  37.146  12.982   5.978
 4660POPC   C1A60243  36.721  12.794   6.259
 4660POPC   D2A60244  36.649  12.512   6.608
 4660POPC   C3A60245  36.470  12.725   6.969
 4660POPC   C4A60246  36.700  13.062   7.181
 4660POPC   C1B60247  37.198  12.566   6.221
 4660POPC   C2B60248  37.387  12.522   6.637
 4660POPC   C3B60249  37.149  12.546   7.012
 4660POPC   C4B60250  37.148  12.279   7.359
 4661POPC   NC360251   5.919  14.535   5.468
 4661POPC   PO460252   5.310  14.297   5.514
 4661POPC   GL160253   5.651  14.155   5.746
 4661POPC   GL260254   5.654  14.465   5.922
 4661POPC   C1A60255   5.763  13.985   6.151
 4661POPC   D2A60256   5.776  14.196   6.556
 4661POPC   C3A60257   5.816  14.008   6.964
 4661POPC   C4A60258   6.017  14.223   7.288
 4661POPC   C1B60259   6.045  14.421   6.132
 4661POPC   C2B60260   6.136  14.553   6.550
 4661POPC   C3B60261   6.067  14.659   6.963
 4661POPC   C4B60262   5.978  14.833   7.344
 4662POPC   NC360263  31.411   5.404   5.424
 4662POPC   PO460264  31.096   4.795   5.431
 4662POPC   GL160265  31.380   4.965   5.806
 4662POPC   GL260266  31.768   4.889   5.870
 4662POPC   C1A60267  31.462   4.897   6.258
 4662POPC   D2A60268  31.511   4.640   6.584
 4662POPC   C3A60269  31.599   4.846   6.972
 4662POPC   C4A60270  31.425   4.799   7.386
 4662POPC   C1B60271  31.682   5.317   6.070
 4662POPC   C2B60272  31.511   5.436   6.476
 4662POPC   C3B60273  31.701   5.383   6.887
 4662POPC   C4B60274  31.806   5.445   7.334
 4663POPC   NC360275  14.184  33.872   5.338
 4663POPC   PO460276  14.171  33.212   5.409
 4663POPC   GL160277  14.298  33.542   5.715
 4663POPC   GL260278  14.675  33.515   5.715
 4663POPC   C1A60279  14.335  33.911   6.053
 4663POPC   D2A60280  14.189  33.874   6.516
 4663POPC   C3A60281  14.474  33.729   6.873
 4663POPC   C4A60282  14.391  33.855   7.303
 4663POPC   C1B60283  14.525  33.442   6.152
 4663POPC   C2B60284  14.759  33.429   6.522
 4663POPC   C3B60285  14.981  33.370   6.884
 4663POPC   C4B60286  14.762  33.433   7.268
 4664POPC   NC360287  17.811  23.842   5.248
 4664POPC   PO460288  18.343  24.061   5.357
 4664POPC   GL160289  18.200  24.008   5.765
 4664POPC   GL260290  17.909  24.162   5.795
 4664POPC   C1A60291  18.213  23.803   6.166
 4664POPC   D2A60292  18.440  23.649   6.515
 4664POPC   C3A60293  18.185  23.684   6.872
 4664POPC   C4A60294  18.063  23.771   7.286
 4664POPC   C1B60295  17.995  24.289   6.206
 4664POPC   C2B60296  18.179  24.130   6.586
 4664POPC   C3B60297  18.020  24.214   6.982
 4664POPC   C4B60298  17.711  24.158   7.310
 4665POPC   NC360299   7.848   5.084   5.404
 4665POPC   PO460300   7.182   5.280   5.543
 4665POPC   GL160301   7.469   5.151   5.858
 4665POPC   GL260302   7.454   4.786   5.823
 4665POPC   C1A60303   7.448   5.298   6.286
 4665POPC   D2A60304   7.154   5.499   6.571
 4665POPC   C3A60305   7.125   5.230   6.901
 4665POPC   C4A60306   7.446   4.937   7.050
 4665POPC   C1B60307   7.659   4.825   6.239
 4665POPC   C2B60308   7.749   5.051   6.628
 4665POPC   C3B60309   7.953   4.893   6.989
 4665POPC   C4B60310   7.780   4.660   7.309
 4666POPC   NC360311  12.897  17.922   5.553
 4666POPC   PO460312  12.600  17.334   5.450
 4666POPC   GL160313  12.669  17.399   5.865
 4666POPC   GL260314  12.596  17.711   5.919
 4666POPC   C1A60315  12.826  17.292   6.270
 4666POPC   D2A60316  13.010  17.127   6.651
 4666POPC   C3A60317  13.036  17.466   6.924
 4666POPC   C4A60318  12.921  17.590   7.318
 4666POPC   C1B60319  12.428  17.604   6.299
 4666POPC   C2B60320  12.597  17.611   6.717
 4666POPC   C3B60321  12.461  17.738   7.165
 4666POPC   C4B60322  12.387  17.685   7.668
 4667POPC   NC360323  14.032   0.259   5.395
 4667POPC   PO460324  14.725   0.409   5.325
 4667POPC   GL160325  14.685   0.337   5.787
 4667POPC   GL260326  14.367   0.451   5.870
 4667POPC   C1A60327  14.612   0.160   6.249
 4667POPC   D2A60328  14.387   0.167   6.652
 4667POPC   C3A60329  14.575   0.226   7.049
 4667POPC   C4A60330  14.613   0.615   7.279
 4667POPC   C1B60331  14.671   0.659   6.183
 4667POPC   C2B60332  14.634   0.649   6.628
 4667POPC   C3B60333  14.291   0.641   6.882
 4667POPC   C4B60334  14.093   0.532   7.257
 4668POPC   NC360335  40.273  29.723   5.482
 4668POPC   PO460336  39.830  30.128   5.449
 4668POPC   GL160337  40.111  30.130   5.832
 4668POPC   GL260338  40.142  29.788   5.989
 4668POPC   C1A60339  40.089  30.182   6.302
 4668POPC   D2A60340  40.219  29.976   6.670
 4668POPC   C3A60341  39.893  29.879   6.976
 4668POPC   C4A60342  39.983  29.757   7.404
 4668POPC   C1B60343  39.900  29.652   6.363
 4668POPC   C2B60344  39.929  29.413   6.760
 4668POPC   C3B60345  39.886  29.312   7.215
 4668POPC   C4B60346  39.608  29.446   7.577
 4669POPC   NC360347  28.882  10.131   5.460
 4669POPC   PO460348  29.132   9.492   5.427
 4669POPC   GL160349  28.975   9.701   5.761
 4669POPC   GL260350  29.246   9.944   5.773
 4669POPC   C1A60351  28.838   9.861   6.137
 4669POPC   D2A60352  28.909   9.975   6.571
 4669POPC   C3A60353  29.115   9.875   6.983
 4669POPC   C4A60354  28.996   9.791   7.404
 4669POPC   C1B60355  29.338   9.867   6.185
 4669POPC   C2B60356  29.436  10.028   6.611
 4669POPC   C3B60357  29.609  10.065   7.037
 4669POPC   C4B60358  29.501   9.776   7.378
 4670POPC   NC360359  20.248  16.286   5.240
 4670POPC   PO460360  20.505  15.633   5.516
 4670POPC   GL160361  20.559  15.977   5.780
 4670POPC   GL260362  20.365  15.770   6.000
 4670POPC   C1A60363  20.805  15.986   6.168
 4670POPC   D2A60364  20.746  15.702   6.503
 4670POPC   C3A60365  20.641  15.905   6.874
 4670POPC   C4A60366  20.820  15.934   7.281
 4670POPC   C1B60367  20.294  15.918   6.414
 4670POPC   C2B60368  20.193  15.657   6.770
 4670POPC   C3B60369  20.277  15.734   7.214
 4670POPC   C4B60370  20.524  15.659   7.588
 4671POPC   NC360371  23.018  34.143   5.528
 4671POPC   PO460372  23.163  33.487   5.400
 4671POPC   GL160373  23.126  33.496   5.840
 4671POPC   GL260374  23.186  33.837   5.912
 4671POPC   C1A60375  22.864  33.596   6.235
 4671POPC   D2A60376  22.681  33.487   6.647
 4671POPC   C3A60377  22.890  33.708   6.965
 4671POPC   C4A60378  22.780  33.833   7.371
 4671POPC   C1B60379  23.119  34.058   6.306
 4671POPC   C2B60380  23.206  34.037   6.754
 4671POPC   C3B60381  23.132  34.154   7.187
 4671POPC   C4B60382  22.985  34.213   7.616
 4672POPC   NC360383  37.328   5.597   4.894
 4672POPC   PO460384  37.844   5.725   5.342
 4672POPC   GL160385  37.849   5.901   5.740
 4672POPC   GL260386  37.510   5.888   5.817
 4672POPC   C1A60387  37.846   5.880   6.188
 4672POPC   D2A60388  37.934   5.736   6.572
 4672POPC   C3A60389  37.767   5.891   6.912
 4672POPC   C4A60390  38.049   5.798   7.180
 4672POPC   C1B60391  37.346   5.855   6.258
 4672POPC   C2B60392  37.326   5.733   6.699
 4672POPC   C3B60393  37.291   5.991   7.041
 4672POPC   C4B60394  37.429   6.232   7.343
 4673POPC   NC360395   7.505  11.695   5.491
 4673POPC   PO460396   7.720  12.358   5.399
 4673POPC   GL160397   7.561  12.194   5.810
 4673POPC   GL260398   7.627  11.870   5.982
 4673POPC   C1A60399   7.355  12.338   6.207
 4673POPC   D2A60400   7.181  12.123   6.543
 4673POPC   C3A60401   7.414  12.088   6.903
 4673POPC   C4A60402   7.368  12.257   7.264
 4673POPC   C1B60403   7.175  11.878   6.076
 4673POPC   C2B60404   6.909  11.710   6.390
 4673POPC   C3B60405   7.123  11.676   6.807
 4673POPC   C4B60406   7.266  11.751   7.240
 4674POPC   NC360407   5.088   1.191   5.405
 4674POPC   PO460408   5.777   1.214   5.435
 4674POPC   GL160409   5.403   1.140   5.798
 4674POPC   GL260410   5.029   0.954   5.872
 4674POPC   C1A60411   5.224   1.296   6.206
 4674POPC   D2A60412   4.939   1.209   6.564
 4674POPC   C3A60413   4.918   1.476   6.932
 4674POPC   C4A60414   5.149   1.565   7.312
 4674POPC   C1B60415   4.847   0.752   6.289
 4674POPC   C2B60416   4.697   0.807   6.758
 4674POPC   C3B60417   4.837   1.036   7.170
 4674POPC   C4B60418   4.774   0.858   7.654
 4675POPC   NC360419   7.423   6.531   5.535
 4675POPC   PO460420   7.710   7.133   5.511
 4675POPC   GL160421   7.631   6.904   5.847
 4675POPC   GL260422   7.276   6.968   5.822
 4675POPC   C1A60423   7.673   6.685   6.246
 4675POPC   D2A60424   7.790   6.560   6.666
 4675POPC   C3A60425   7.530   6.634   7.027
 4675POPC   C4A60426   7.370   6.644   7.450
 4675POPC   C1B60427   7.150   6.766   6.217
 4675POPC   C2B60428   7.214   6.828   6.671
 4675POPC   C3B60429   7.058   6.876   7.130
 4675POPC   C4B60430   6.900   6.892   7.614
 4676POPC   NC360431  24.613  21.502   5.141
 4676POPC   PO460432  24.816  20.944   5.407
 4676POPC   GL160433  24.500  21.282   5.625
 4676POPC   GL260434  24.185  21.485   5.746
 4676POPC   C1A60435  24.523  21.330   6.085
 4676POPC   D2A60436  24.277  21.353   6.459
 4676POPC   C3A60437  24.538  21.338   6.808
 4676POPC   C4A60438  24.460  21.312   7.223
 4676POPC   C1B60439  24.245  21.753   6.135
 4676POPC   C2B60440  24.374  21.876   6.548
 4676POPC   C3B60441  24.252  21.737   6.960
 4676POPC   C4B60442  24.383  21.787   7.389
 4677POPC   NC360443  42.247  12.563   5.374
 4677POPC   PO460444  42.129  11.903   5.296
 4677POPC   GL160445  42.361  12.097   5.689
 4677POPC   GL260446  42.103  12.361   5.812
 4677POPC   C1A60447  42.613  11.943   6.110
 4677POPC   D2A60448  42.614  12.109   6.560
 4677POPC   C3A60449  42.464  11.903   6.931
 4677POPC   C4A60450  42.638  11.924   7.330
 4677POPC   C1B60451  42.260  12.288   6.206
 4677POPC   C2B60452  42.089  12.088   6.596
 4677POPC   C3B60453  41.955  12.005   7.041
 4677POPC   C4B60454  42.203  12.175   7.370
 4678POPC   NC360455  13.918  11.548   5.158
 4678POPC   PO460456  14.546  11.435   5.324
 4678POPC   GL160457  14.425  11.496   5.796
 4678POPC   GL260458  14.266  11.285   5.986
 4678POPC   C1A60459  14.631  11.601   6.233
 4678POPC   D2A60460  14.767  11.577   6.684
 4678POPC   C3A60461  14.566  11.294   7.024
 4678POPC   C4A60462  14.480  11.190   7.503
 4678POPC   C1B60463  14.357  11.218   6.420
 4678POPC   C2B60464  14.222  10.969   6.740
 4678POPC   C3B60465  14.272  10.873   7.170
 4678POPC   C4B60466  14.109  10.828   7.602
 4679POPC   NC360467  44.436   1.026   5.337
 4679POPC   PO460468   0.017   1.337   5.297
 4679POPC   GL160469  44.924   1.123   5.717
 4679POPC   GL260470  44.577   1.062   5.857
 4679POPC   C1A60471   0.007   1.169   6.197
 4679POPC   D2A60472  44.908   1.375   6.624
 4679POPC   C3A60473  44.987   1.128   7.020
 4679POPC   C4A60474  44.854   1.172   7.494
 4679POPC   C1B60475  44.520   1.101   6.330
 4679POPC   C2B60476  44.514   1.065   6.767
 4679POPC   C3B60477  44.498   0.980   7.199
 4679POPC   C4B60478  44.417   0.983   7.664
 4680POPC   NC360479   2.030  18.658   5.572
 4680POPC   PO460480   1.958  17.940   5.463
 4680POPC   GL160481   2.115  18.023   5.870
 4680POPC   GL260482   1.937  18.347   5.939
 4680POPC   C1A60483   2.128  18.117   6.309
 4680POPC   D2A60484   1.795  18.308   6.523
 4680POPC   C3A60485   1.898  18.278   6.931
 4680POPC   C4A60486   2.233  18.257   7.210
 4680POPC   C1B60487   1.653  18.654   6.165
 4680POPC   C2B60488   1.485  18.735   6.597
 4680POPC   C3B60489   1.538  18.616   7.043
 4680POPC   C4B60490   1.809  18.537   7.388
 4681POPC   NC360491  21.447   3.863   5.363
 4681POPC   PO460492  21.296   3.259   5.341
 4681POPC   GL160493  21.287   3.493   5.756
 4681POPC   GL260494  21.174   3.859   5.828
 4681POPC   C1A60495  21.330   3.521   6.225
 4681POPC   D2A60496  21.105   3.523   6.634
 4681POPC   C3A60497  21.214   3.304   7.000
 4681POPC   C4A60498  21.607   3.385   7.208
 4681POPC   C1B60499  21.365   4.015   6.189
 4681POPC   C2B60500  21.548   3.849   6.565
 4681POPC   C3B60501  21.392   3.788   6.981
 4681POPC   C4B60502  21.211   3.715   7.399
 4682POPC   NC360503  23.636  33.507   5.480
 4682POPC   PO460504  23.506  34.121   5.588
 4682POPC   GL160505  23.689  33.905   5.943
 4682POPC   GL260506  23.835  33.581   5.943
 4682POPC   C1A60507  23.625  33.980   6.377
 4682POPC   D2A60508  23.800  34.037   6.773
 4682POPC   C3A60509  23.570  33.899   7.114
 4682POPC   C4A60510  23.263  33.637   7.311
 4682POPC   C1B60511  23.479  33.494   6.230
 4682POPC   C2B60512  23.412  33.565   6.680
 4682POPC   C3B60513  23.639  33.395   7.030
 4682POPC   C4B60514  23.718  33.431   7.451
 4683POPC   NC360515  26.191  34.283   5.689
 4683POPC   PO460516  25.801  33.802   5.358
 4683POPC   GL160517  26.010  33.798   5.756
 4683POPC   GL260518  25.733  33.757   5.975
 4683POPC   C1A60519  26.134  33.908   6.224
 4683POPC   D2A60520  26.029  33.839   6.657
 4683POPC   C3A60521  26.260  33.828   7.053
 4683POPC   C4A60522  26.116  34.075   7.394
 4683POPC   C1B60523  25.782  33.460   6.332
 4683POPC   C2B60524  25.686  33.497   6.765
 4683POPC   C3B60525  25.748  33.804   7.106
 4683POPC   C4B60526  25.751  33.759   7.545
 4684POPC   NC360527  33.241  14.230   5.000
 4684POPC   PO460528  33.008  14.775   5.368
 4684POPC   GL160529  33.139  14.577   5.801
 4684POPC   GL260530  33.223  14.193   5.788
 4684POPC   C1A60531  33.196  14.656   6.234
 4684POPC   D2A60532  32.912  14.725   6.585
 4684POPC   C3A60533  32.882  14.495   6.969
 4684POPC   C4A60534  32.986  14.644   7.374
 4684POPC   C1B60535  33.284  14.147   6.203
 4684POPC   C2B60536  33.117  14.220   6.596
 4684POPC   C3B60537  33.084  14.027   6.968
 4684POPC   C4B60538  33.182  14.171   7.358
 4685POPC   NC360539   8.285  32.653   5.277
 4685POPC   PO460540   7.990  32.052   5.338
 4685POPC   GL160541   8.110  32.021   5.789
 4685POPC   GL260542   8.459  32.178   5.776
 4685POPC   C1A60543   7.964  32.068   6.241
 4685POPC   D2A60544   7.796  31.974   6.670
 4685POPC   C3A60545   8.001  32.238   6.946
 4685POPC   C4A60546   8.339  32.470   7.115
 4685POPC   C1B60547   8.497  32.075   6.202
 4685POPC   C2B60548   8.415  32.218   6.618
 4685POPC   C3B60549   8.452  31.990   6.983
 4685POPC   C4B60550   8.421  32.042   7.397
 4686POPC   NC360551  24.231   3.818   5.545
 4686POPC   PO460552  24.629   3.310   5.338
 4686POPC   GL160553  24.570   3.474   5.748
 4686POPC   GL260554  24.225   3.330   5.723
 4686POPC   C1A60555  24.439   3.649   6.164
 4686POPC   D2A60556  24.192   3.637   6.561
 4686POPC   C3A60557  24.404   3.658   6.968
 4686POPC   C4A60558  24.268   3.881   7.338
 4686POPC   C1B60559  24.364   3.101   6.082
 4686POPC   C2B60560  24.489   3.240   6.482
 4686POPC   C3B60561  24.442   3.138   6.887
 4686POPC   C4B60562  24.171   3.235   7.207
 4687POPC   NC360563  40.494  16.544   5.515
 4687POPC   PO460564  41.016  17.006   5.470
 4687POPC   GL160565  40.916  16.663   5.799
 4687POPC   GL260566  41.215  16.584   5.970
 4687POPC   C1A60567  40.733  16.514   6.235
 4687POPC   D2A60568  40.432  16.621   6.605
 4687POPC   C3A60569  40.580  16.683   7.050
 4687POPC   C4A60570  40.516  16.567   7.514
 4687POPC   C1B60571  41.053  16.953   6.224
 4687POPC   C2B60572  40.885  16.873   6.638
 4687POPC   C3B60573  41.098  16.896   7.034
 4687POPC   C4B60574  41.187  16.558   7.250
 4688POPC   NC360575  29.351  42.886   5.342
 4688POPC   PO460576  29.004  43.513   5.514
 4688POPC   GL160577  29.219  43.308   5.847
 4688POPC   GL260578  29.269  42.950   5.829
 4688POPC   C1A60579  29.070  43.143   6.247
 4688POPC   D2A60580  28.994  43.336   6.612
 4688POPC   C3A60581  29.064  43.218   7.022
 4688POPC   C4A60582  28.932  43.438   7.363
 4688POPC   C1B60583  29.529  42.913   6.189
 4688POPC   C2B60584  29.579  42.580   6.483
 4688POPC   C3B60585  29.562  42.650   6.891
 4688POPC   C4B60586  29.365  42.852   7.222
 4689POPC   NC360587  20.690  26.344   5.434
 4689POPC   PO460588  20.786  25.717   5.325
 4689POPC   GL160589  20.554  25.877   5.711
 4689POPC   GL260590  20.295  26.116   5.671
 4689POPC   C1A60591  20.466  25.846   6.175
 4689POPC   D2A60592  20.196  25.783   6.564
 4689POPC   C3A60593  20.432  25.801   6.957
 4689POPC   C4A60594  20.817  25.788   7.193
 4689POPC   C1B60595  20.450  26.338   6.036
 4689POPC   C2B60596  20.485  26.425   6.489
 4689POPC   C3B60597  20.666  26.309   6.866
 4689POPC   C4B60598  20.575  26.236   7.268
 4690POPC   NC360599  21.657  21.067   5.383
 4690POPC   PO460600  21.147  21.510   5.473
 4690POPC   GL160601  21.530  21.489   5.715
 4690POPC   GL260602  21.550  21.170   5.869
 4690POPC   C1A60603  21.610  21.605   6.157
 4690POPC   D2A60604  21.381  21.541   6.534
 4690POPC   C3A60605  21.584  21.566   6.895
 4690POPC   C4A60606  21.410  21.635   7.285
 4690POPC   C1B60607  21.215  21.244   6.134
 4690POPC   C2B60608  21.231  21.065   6.530
 4690POPC   C3B60609  21.192  21.221   6.926
 4690POPC   C4B60610  21.391  21.131   7.294
 4691POPC   NC360611  18.030  14.686   5.373
 4691POPC   PO460612  18.416  14.255   5.394
 4691POPC   GL160613  18.388  14.362   5.847
 4691POPC   GL260614  18.064  14.560   5.878
 4691POPC   C1A60615  18.423  14.300   6.317
 4691POPC   D2A60616  18.388  14.690   6.587
 4691POPC   C3A60617  18.148  14.716   6.962
 4691POPC   C4A60618  18.151  14.594   7.392
 4691POPC   C1B60619  17.928  14.280   6.221
 4691POPC   C2B60620  18.029  14.295   6.653
 4691POPC   C3B60621  18.092  14.196   7.063
 4691POPC   C4B60622  17.793  14.010   7.351
 4692POPC   NC360623   5.057   2.791   5.024
 4692POPC   PO460624   5.099   2.297   5.391
 4692POPC   GL160625   5.189   2.462   5.815
 4692POPC   GL260626   5.412   2.744   5.861
 4692POPC   C1A60627   5.270   2.453   6.265
 4692POPC   D2A60628   5.219   2.708   6.635
 4692POPC   C3A60629   5.163   2.486   6.982
 4692POPC   C4A60630   5.297   2.528   7.360
 4692POPC   C1B60631   5.194   2.997   6.215
 4692POPC   C2B60632   5.361   3.207   6.603
 4692POPC   C3B60633   5.221   3.119   7.014
 4692POPC   C4B60634   5.048   2.958   7.395
 4693POPC   NC360635  24.717  27.857   5.128
 4693POPC   PO460636  24.269  27.505   5.497
 4693POPC   GL160637  24.540  27.505   5.885
 4693POPC   GL260638  24.639  27.841   6.006
 4693POPC   C1A60639  24.544  27.470   6.337
 4693POPC   D2A60640  24.458  27.618   6.768
 4693POPC   C3A60641  24.563  27.344   7.142
 4693POPC   C4A60642  24.792  27.461   7.539
 4693POPC   C1B60643  24.233  27.886   6.266
 4693POPC   C2B60644  24.102  28.004   6.696
 4693POPC   C3B60645  24.254  27.921   7.135
 4693POPC   C4B60646  24.733  27.825   7.183
 4694POPC   NC360647  44.970  19.170   5.207
 4694POPC   PO460648  44.481  18.813   5.510
 4694POPC   GL160649  44.520  19.073   5.831
 4694POPC   GL260650  44.703  19.331   5.664
 4694POPC   C1A60651  44.355  19.045   6.258
 4694POPC   D2A60652  44.427  18.938   6.693
 4694POPC   C3A60653  44.339  18.777   7.079
 4694POPC   C4A60654  44.732  18.698   7.164
 4694POPC   C1B60655  44.622  19.473   6.123
 4694POPC   C2B60656  44.616  19.403   6.571
 4694POPC   C3B60657  44.745  19.255   6.971
 4694POPC   C4B60658  44.541  19.211   7.350
 4695POPC   NC360659  43.526  19.931   5.375
 4695POPC   PO460660  44.129  20.261   5.488
 4695POPC   GL160661  43.896  19.952   5.758
 4695POPC   GL260662  43.599  20.132   5.894
 4695POPC   C1A60663  43.666  19.689   6.090
 4695POPC   D2A60664  43.566  19.786   6.517
 4695POPC   C3A60665  43.807  19.650   6.875
 4695POPC   C4A60666  43.711  19.552   7.287
 4695POPC   C1B60667  43.881  20.138   6.318
 4695POPC   C2B60668  44.015  20.360   6.728
 4695POPC   C3B60669  43.974  20.098   7.061
 4695POPC   C4B60670  43.959  20.058   7.483
 4696POPC   NC360671  44.619  29.789   5.681
 4696POPC   PO460672  44.411  30.410   5.567
 4696POPC   GL160673  44.554  30.221   5.961
 4696POPC   GL260674  44.891  30.047   6.027
 4696POPC   C1A60675  44.533  30.025   6.372
 4696POPC   D2A60676  44.953  29.954   6.551
 4696POPC   C3A60677  44.919  29.978   6.953
 4696POPC   C4A60678  44.617  30.061   7.248
 4696POPC   C1B60679  44.929  29.581   6.203
 4696POPC   C2B60680  44.866  29.448   6.622
 4696POPC   C3B60681   0.084  29.493   6.980
 4696POPC   C4B60682  44.959  29.664   7.349
 4697POPC   NC360683  44.860  43.593   5.352
 4697POPC   PO460684  44.355  44.033   5.358
 4697POPC   GL160685  44.616  43.908   5.693
 4697POPC   GL260686  44.485  43.625   5.734
 4697POPC   C1A60687  44.807  43.857   6.109
 4697POPC   D2A60688  44.595  43.989   6.492
 4697POPC   C3A60689  44.825  43.911   6.858
 4697POPC   C4A60690  44.732  43.965   7.236
 4697POPC   C1B60691  44.474  43.479   6.136
 4697POPC   C2B60692  44.703  43.503   6.542
 4697POPC   C3B60693  44.504  43.556   6.957
 4697POPC   C4B60694  44.510  43.553   7.413
 4698POPC   NC360695  10.252  32.457   5.489
 4698POPC   PO460696  10.861  32.222   5.197
 4698POPC   GL160697  10.580  32.096   5.629
 4698POPC   GL260698  10.333  31.814   5.697
 4698POPC   C1A60699  10.464  32.151   6.085
 4698POPC   D2A60700  10.644  32.386   6.422
 4698POPC   C3A60701  10.560  32.274   6.850
 4698POPC   C4A60702  10.795  32.146   7.192
 4698POPC   C1B60703  10.309  31.676   6.149
 4698POPC   C2B60704  10.276  31.924   6.539
 4698POPC   C3B60705  10.140  31.995   6.965
 4698POPC   C4B60706  10.267  32.091   7.370
 4699POPC   NC360707  19.611  22.828   5.402
 4699POPC   PO460708  20.258  22.904   5.450
 4699POPC   GL160709  19.988  22.801   5.794
 4699POPC   GL260710  19.718  23.050   5.869
 4699POPC   C1A60711  19.916  22.773   6.249
 4699POPC   D2A60712  19.743  23.085   6.521
 4699POPC   C3A60713  19.895  23.154   6.959
 4699POPC   C4A60714  19.971  22.854   7.289
 4699POPC   C1B60715  19.412  22.884   6.163
 4699POPC   C2B60716  19.395  22.694   6.601
 4699POPC   C3B60717  19.509  22.780   7.046
 4699POPC   C4B60718  19.504  23.167   7.299
 4700POPC   NC360719  37.077  15.795   5.425
 4700POPC   PO460720  37.654  15.998   5.410
 4700POPC   GL160721  37.491  15.996   5.799
 4700POPC   GL260722  37.287  15.716   5.903
 4700POPC   C1A60723  37.758  16.075   6.145
 4700POPC   D2A60724  37.561  16.310   6.455
 4700POPC   C3A60725  37.736  16.272   6.842
 4700POPC   C4A60726  37.746  15.970   7.182
 4700POPC   C1B60727  37.354  15.841   6.349
 4700POPC   C2B60728  37.343  15.951   6.825
 4700POPC   C3B60729  37.248  15.988   7.281
 4700POPC   C4B60730  37.504  15.749   7.604
 4701POPC   NC360731  32.630  21.748   5.465
 4701POPC   PO460732  33.236  22.163   5.393
 4701POPC   GL160733  33.125  22.252   5.799
 4701POPC   GL260734  32.788  22.401   5.810
 4701POPC   C1A60735  32.969  22.111   6.208
 4701POPC   D2A60736  33.062  22.227   6.635
 4701POPC   C3A60737  33.106  21.832   6.890
 4701POPC   C4A60738  33.275  21.802   7.255
 4701POPC   C1B60739  32.723  22.552   6.258
 4701POPC   C2B60740  32.597  22.462   6.702
 4701POPC   C3B60741  32.701  22.649   7.120
 4701POPC   C4B60742  32.898  22.594   7.526
 4702POPC   NC360743  36.514  16.357   5.517
 4702POPC   PO460744  36.634  15.697   5.482
 4702POPC   GL160745  36.770  15.876   5.829
 4702POPC   GL260746  36.978  16.174   5.785
 4702POPC   C1A60747  36.870  15.742   6.211
 4702POPC   D2A60748  36.915  15.979   6.561
 4702POPC   C3A60749  36.874  15.756   6.928
 4702POPC   C4A60750  36.728  15.835   7.316
 4702POPC   C1B60751  36.720  16.307   6.166
 4702POPC   C2B60752  36.590  16.349   6.650
 4702POPC   C3B60753  36.826  16.250   7.047
 4702POPC   C4B60754  36.904  16.278   7.542
 4703POPC   NC360755  24.956   3.649   5.404
 4703POPC   PO460756  25.654   3.896   5.394
 4703POPC   GL160757  25.533   3.560   5.733
 4703POPC   GL260758  25.195   3.374   5.778
 4703POPC   C1A60759  25.545   3.505   6.190
 4703POPC   D2A60760  25.349   3.793   6.520
 4703POPC   C3A60761  25.465   3.680   6.946
 4703POPC   C4A60762  25.114   3.484   7.141
 4703POPC   C1B60763  24.987   3.647   6.110
 4703POPC   C2B60764  24.823   3.658   6.549
 4703POPC   C3B60765  24.904   3.899   6.929
 4703POPC   C4B60766  24.778   3.854   7.324
 4704POPC   NC360767   5.895  41.601   5.359
 4704POPC   PO460768   5.552  42.108   5.612
 4704POPC   GL160769   5.775  41.815   5.882
 4704POPC   GL260770   5.675  41.468   5.789
 4704POPC   C1A60771   6.000  41.845   6.298
 4704POPC   D2A60772   6.123  41.659   6.714
 4704POPC   C3A60773   5.964  41.788   7.136
 4704POPC   C4A60774   6.034  41.525   7.502
 4704POPC   C1B60775   5.860  41.379   6.221
 4704POPC   C2B60776   5.658  41.454   6.666
 4704POPC   C3B60777   5.692  41.354   7.144
 4704POPC   C4B60778   5.603  41.240   7.607
 4705POPC   NC360779   3.306  30.626   5.228
 4705POPC   PO460780   3.700  31.047   5.585
 4705POPC   GL160781   3.376  30.875   5.833
 4705POPC   GL260782   3.370  30.511   5.778
 4705POPC   C1A60783   3.439  30.677   6.263
 4705POPC   D2A60784   3.765  30.574   6.575
 4705POPC   C3A60785   3.738  30.895   6.919
 4705POPC   C4A60786   3.377  31.024   7.187
 4705POPC   C1B60787   3.192  30.224   6.134
 4705POPC   C2B60788   3.166  30.355   6.593
 4705POPC   C3B60789   3.433  30.487   6.960
 4705POPC   C4B60790   3.511  30.275   7.322
 4706POPC   NC360791  41.318   7.604   5.404
 4706POPC   PO460792  41.961   7.655   5.400
 4706POPC   GL160793  41.814   7.403   5.776
 4706POPC   GL260794  41.519   7.147   5.803
 4706POPC   C1A60795  41.576   7.529   6.147
 4706POPC   D2A60796  41.394   7.604   6.555
 4706POPC   C3A60797  41.598   7.592   6.918
 4706POPC   C4A60798  41.444   7.723   7.280
 4706POPC   C1B60799  41.417   7.039   6.276
 4706POPC   C2B60800  41.534   7.102   6.734
 4706POPC   C3B60801  41.291   7.242   7.106
 4706POPC   C4B60802  40.872   7.309   7.320
 4707POPC   NC360803  12.233  24.930   5.582
 4707POPC   PO460804  11.972  25.544   5.376
 4707POPC   GL160805  12.106  25.353   5.821
 4707POPC   GL260806  11.930  25.029   5.974
 4707POPC   C1A60807  12.293  25.286   6.251
 4707POPC   D2A60808  12.215  25.505   6.638
 4707POPC   C3A60809  12.396  25.366   6.992
 4707POPC   C4A60810  12.224  25.307   7.391
 4707POPC   C1B60811  12.233  24.792   6.260
 4707POPC   C2B60812  12.336  24.931   6.705
 4707POPC   C3B60813  12.042  24.935   7.091
 4707POPC   C4B60814  12.084  24.872   7.577
 4708POPC   NC360815  37.436  22.874   5.592
 4708POPC   PO460816  37.374  23.451   5.359
 4708POPC   GL160817  37.626  23.317   5.794
 4708POPC   GL260818  37.896  23.017   5.807
 4708POPC   C1A60819  37.535  23.050   6.202
 4708POPC   D2A60820  37.330  23.053   6.599
 4708POPC   C3A60821  37.520  22.979   6.995
 4708POPC   C4A60822  37.832  23.130   7.246
 4708POPC   C1B60823  37.992  22.804   6.209
 4708POPC   C2B60824  37.760  22.719   6.613
 4708POPC   C3B60825  37.965  22.693   7.049
 4708POPC   C4B60826  37.933  22.421   7.420
 4709POPC   NC360827   6.164  35.265   5.163
 4709POPC   PO460828   6.787  35.413   5.472
 4709POPC   GL160829   6.735  35.472   5.896
 4709POPC   GL260830   7.023  35.675   5.943
 4709POPC   C1A60831   6.511  35.250   6.270
 4709POPC   D2A60832   6.592  35.093   6.688
 4709POPC   C3A60833   6.380  35.301   7.024
 4709POPC   C4A60834   6.307  35.760   7.133
 4709POPC   C1B60835   6.891  35.568   6.366
 4709POPC   C2B60836   6.587  35.665   6.660
 4709POPC   C3B60837   6.808  35.574   6.997
 4709POPC   C4B60838   7.027  35.526   7.320
 4710POPC   NC360839  37.929   8.382   5.163
 4710POPC   PO460840  37.357   8.563   5.498
 4710POPC   GL160841  37.554   8.285   5.831
 4710POPC   GL260842  37.309   8.082   5.906
 4710POPC   C1A60843  37.840   8.441   6.221
 4710POPC   D2A60844  38.017   8.524   6.645
 4710POPC   C3A60845  37.931   8.263   7.006
 4710POPC   C4A60846  37.653   7.942   7.221
 4710POPC   C1B60847  37.310   8.306   6.275
 4710POPC   C2B60848  37.566   8.210   6.607
 4710POPC   C3B60849  37.419   8.329   6.965
 4710POPC   C4B60850  37.302   8.447   7.335
 4711POPC   NC360851   3.691   4.948   5.421
 4711POPC   PO460852   3.142   4.813   5.700
 4711POPC   GL160853   3.447   5.096   5.891
 4711POPC   GL260854   3.777   5.014   5.939
 4711POPC   C1A60855   3.379   5.279   6.273
 4711POPC   D2A60856   3.310   5.024   6.633
 4711POPC   C3A60857   3.384   5.163   7.039
 4711POPC   C4A60858   3.763   5.245   7.237
 4711POPC   C1B60859   3.813   4.991   6.377
 4711POPC   C2B60860   3.813   4.949   6.817
 4711POPC   C3B60861   3.685   4.710   7.201
 4711POPC   C4B60862   3.894   4.776   7.653
 4712POPC   NC360863  20.645  11.505   5.293
 4712POPC   PO460864  20.806  10.945   5.625
 4712POPC   GL160865  20.800  11.208   5.942
 4712POPC   GL260866  20.651  11.523   5.831
 4712POPC   C1A60867  20.709  11.012   6.325
 4712POPC   D2A60868  20.656  10.808   6.689
 4712POPC   C3A60869  20.842  11.065   6.962
 4712POPC   C4A60870  20.523  11.223   7.151
 4712POPC   C1B60871  20.493  11.479   6.268
 4712POPC   C2B60872  20.677  11.457   6.679
 4712POPC   C3B60873  20.660  11.684   7.059
 4712POPC   C4B60874  20.233  11.639   7.215
 4713POPC   NC360875  37.943  28.827   5.408
 4713POPC   PO460876  37.404  28.504   5.313
 4713POPC   GL160877  37.523  28.218   5.658
 4713POPC   GL260878  37.878  28.274   5.746
 4713POPC   C1A60879  37.532  28.249   6.138
 4713POPC   D2A60880  37.649  28.592   6.427
 4713POPC   C3A60881  37.512  28.597   6.845
 4713POPC   C4A60882  37.728  28.497   7.212
 4713POPC   C1B60883  38.047  28.414   6.139
 4713POPC   C2B60884  38.115  28.309   6.545
 4713POPC   C3B60885  38.183  28.472   6.941
 4713POPC   C4B60886  38.204  28.304   7.326
 4714POPC   NC360887  16.558   1.475   5.264
 4714POPC   PO460888  17.054   1.069   5.304
 4714POPC   GL160889  16.793   1.199   5.654
 4714POPC   GL260890  16.509   0.965   5.735
 4714POPC   C1A60891  16.737   1.252   6.100
 4714POPC   D2A60892  16.851   1.140   6.517
 4714POPC   C3A60893  16.638   1.415   6.804
 4714POPC   C4A60894  16.573   1.466   7.248
 4714POPC   C1B60895  16.462   0.836   6.182
 4714POPC   C2B60896  16.344   1.008   6.586
 4714POPC   C3B60897  16.517   0.962   6.996
 4714POPC   C4B60898  16.254   0.793   7.271
 4715POPC   NC360899   2.053  41.931   5.418
 4715POPC   PO460900   2.250  41.309   5.537
 4715POPC   GL160901   2.264  41.600   5.855
 4715POPC   GL260902   2.450  41.867   5.738
 4715POPC   C1A60903   2.195  41.569   6.311
 4715POPC   D2A60904   2.414  41.318   6.636
 4715POPC   C3A60905   2.177  41.288   7.032
 4715POPC   C4A60906   1.731  41.243   7.011
 4715POPC   C1B60907   2.389  42.012   6.145
 4715POPC   C2B60908   2.264  42.073   6.571
 4715POPC   C3B60909   2.228  41.945   6.991
 4715POPC   C4B60910   1.874  41.728   7.147
 4716POPC   NC360911   9.151  22.585   5.517
 4716POPC   PO460912   9.176  21.918   5.312
 4716POPC   GL160913   8.956  22.129   5.720
 4716POPC   GL260914   9.180  22.306   5.945
 4716POPC   C1A60915   8.735  22.270   6.166
 4716POPC   D2A60916   8.700  22.131   6.623
 4716POPC   C3A60917   9.071  22.125   6.925
 4716POPC   C4A60918   9.198  21.986   7.352
 4716POPC   C1B60919   9.180  22.265   6.400
 4716POPC   C2B60920   8.976  22.586   6.629
 4716POPC   C3B60921   8.954  22.640   7.051
 4716POPC   C4B60922   9.299  22.481   7.284
 4717POPC   NC360923  19.068  39.860   5.452
 4717POPC   PO460924  19.138  40.517   5.575
 4717POPC   GL160925  19.144  40.170   5.902
 4717POPC   GL260926  18.766  40.080   5.878
 4717POPC   C1A60927  19.357  40.019   6.347
 4717POPC   D2A60928  19.265  39.741   6.760
 4717POPC   C3A60929  19.119  39.999   7.169
 4717POPC   C4A60930  19.058  40.344   7.494
 4717POPC   C1B60931  18.868  39.894   6.273
 4717POPC   C2B60932  18.800  39.942   6.722
 4717POPC   C3B60933  18.671  39.761   7.120
 4717POPC   C4B60934  18.714  39.949   7.531
 4718POPC   NC360935   3.291  17.529   5.390
 4718POPC   PO460936   3.692  17.988   5.358
 4718POPC   GL160937   3.606  17.749   5.708
 4718POPC   GL260938   3.260  17.877   5.771
 4718POPC   C1A60939   3.548  17.437   6.022
 4718POPC   D2A60940   3.420  17.515   6.439
 4718POPC   C3A60941   3.676  17.668   6.767
 4718POPC   C4A60942   3.488  17.422   7.051
 4718POPC   C1B60943   3.057  17.584   6.076
 4718POPC   C2B60944   2.925  17.645   6.510
 4718POPC   C3B60945   3.013  17.562   6.920
 4718POPC   C4B60946   3.076  17.223   7.238
 4719POPC   NC360947   1.027  38.581   5.105
 4719POPC   PO460948   1.381  38.928   5.563
 4719POPC   GL160949   1.187  38.494   5.637
 4719POPC   GL260950   1.407  38.183   5.688
 4719POPC   C1A60951   1.041  38.454   6.048
 4719POPC   D2A60952   1.170  38.605   6.501
 4719POPC   C3A60953   0.947  38.545   6.934
 4719POPC   C4A60954   1.048  38.761   7.336
 4719POPC   C1B60955   1.539  38.382   6.087
 4719POPC   C2B60956   1.630  38.352   6.543
 4719POPC   C3B60957   1.471  38.527   6.944
 4719POPC   C4B60958   1.283  38.315   7.290
 4720POPC   NC360959   3.986   9.784   5.336
 4720POPC   PO460960   4.589   9.815   5.326
 4720POPC   GL160961   4.292   9.845   5.749
 4720POPC   GL260962   3.901   9.910   5.824
 4720POPC   C1A60963   4.147   9.619   6.140
 4720POPC   D2A60964   4.026   9.448   6.552
 4720POPC   C3A60965   4.325   9.539   6.863
 4720POPC   C4A60966   4.259   9.603   7.280
 4720POPC   C1B60967   4.012  10.116   6.197
 4720POPC   C2B60968   4.173   9.948   6.569
 4720POPC   C3B60969   4.307  10.043   6.980
 4720POPC   C4B60970   4.135  10.095   7.378
 4721POPC   NC360971  37.021  42.723   5.542
 4721POPC   PO460972  36.749  43.286   5.521
 4721POPC   GL160973  36.848  43.087   5.897
 4721POPC   GL260974  37.196  43.105   5.837
 4721POPC   C1A60975  36.926  43.095   6.346
 4721POPC   D2A60976  36.784  42.888   6.729
 4721POPC   C3A60977  36.732  43.206   7.068
 4721POPC   C4A60978  37.083  43.467   7.226
 4721POPC   C1B60979  37.315  42.796   6.166
 4721POPC   C2B60980  37.379  42.931   6.567
 4721POPC   C3B60981  37.244  43.063   6.946
 4721POPC   C4B60982  37.000  42.806   7.190
 4722POPC   NC360983  44.056  14.268   5.395
 4722POPC   PO460984  43.498  14.433   5.679
 4722POPC   GL160985  43.919  14.511   5.830
 4722POPC   GL260986  44.130  14.223   5.890
 4722POPC   C1A60987  44.127  14.588   6.235
 4722POPC   D2A60988  44.210  14.263   6.538
 4722POPC   C3A60989  44.268  14.423   6.938
 4722POPC   C4A60990  44.321  14.150   7.270
 4722POPC   C1B60991  43.792  14.211   6.223
 4722POPC   C2B60992  43.723  14.409   6.565
 4722POPC   C3B60993  43.821  14.198   6.901
 4722POPC   C4B60994  43.804  14.056   7.278
 4723POPC   NC360995   6.883  37.513   5.485
 4723POPC   PO460996   6.187  37.482   5.352
 4723POPC   GL160997   6.327  37.543   5.754
 4723POPC   GL260998   6.481  37.902   5.797
 4723POPC   C1A60999   6.473  37.531   6.173
 4723POPC   D2A61000   6.371  37.860   6.431
 4723POPC   C3A61001   6.424  37.847   6.884
 4723POPC   C4A61002   6.611  37.603   7.250
 4723POPC   C1B61003   6.759  38.062   6.156
 4723POPC   C2B61004   6.873  37.907   6.570
 4723POPC   C3B61005   6.899  38.009   6.994
 4723POPC   C4B61006   7.075  37.826   7.348
 4724POPC   NC361007  18.860   1.991   5.357
 4724POPC   PO461008  19.454   1.668   5.503
 4724POPC   GL161009  19.200   1.917   5.781
 4724POPC   GL261010  19.442   2.124   5.921
 4724POPC   C1A61011  19.022   1.944   6.219
 4724POPC   D2A61012  19.112   2.066   6.652
 4724POPC   C3A61013  18.978   1.791   7.037
 4724POPC   C4A61014  18.939   1.797   7.509
 4724POPC   C1B61015  19.618   2.302   6.285
 4724POPC   C2B61016  19.531   2.378   6.726
 4724POPC   C3B61017  19.379   2.116   7.077
 4724POPC   C4B61018  19.323   2.118   7.509
 4725POPC   NC361019  19.556  42.776   5.112
 4725POPC   PO461020  20.056  42.516   5.490
 4725POPC   GL161021  19.882  42.348   5.829
 4725POPC   GL261022  19.568  42.151   5.765
 4725POPC   C1A61023  19.888  42.400   6.248
 4725POPC   D2A61024  19.773  42.188   6.615
 4725POPC   C3A61025  19.961  42.166   7.028
 4725POPC   C4A61026  19.962  42.524   7.265
 4725POPC   C1B61027  19.355  42.185   6.168
 4725POPC   C2B61028  19.275  42.091   6.600
 4725POPC   C3B61029  19.458  42.131   7.002
 4725POPC   C4B61030  19.627  41.859   7.312
 4726POPC   NC361031  35.837  19.273   5.542
 4726POPC   PO461032  35.226  19.213   5.196
 4726POPC   GL161033  35.333  19.067   5.651
 4726POPC   GL261034  35.580  18.842   5.837
 4726POPC   C1A61035  35.313  19.170   6.116
 4726POPC   D2A61036  35.491  19.044   6.525
 4726POPC   C3A61037  35.436  19.365   6.850
 4726POPC   C4A61038  35.463  19.390   7.288
 4726POPC   C1B61039  35.257  18.652   6.175
 4726POPC   C2B61040  35.076  18.711   6.636
 4726POPC   C3B61041  35.322  18.867   6.988
 4726POPC   C4B61042  35.167  18.977   7.411
 4727POPC   NC361043  21.976  23.386   5.494
 4727POPC   PO461044  22.526  23.699   5.443
 4727POPC   GL161045  22.333  23.579   5.819
 4727POPC   GL261046  22.146  23.857   5.810
 4727POPC   C1A61047  22.384  23.692   6.261
 4727POPC   D2A61048  22.451  23.514   6.673
 4727POPC   C3A61049  22.204  23.661   7.007
 4727POPC   C4A61050  22.256  23.615   7.437
 4727POPC   C1B61051  22.002  24.069   6.195
 4727POPC   C2B61052  22.106  23.983   6.612
 4727POPC   C3B61053  21.863  24.060   6.979
 4727POPC   C4B61054  22.061  24.074   7.354
 4728POPC   NC361055  36.906  41.958   5.309
 4728POPC   PO461056  36.582  42.541   5.422
 4728POPC   GL161057  36.665  42.427   5.813
 4728POPC   GL261058  36.557  42.094   5.753
 4728POPC   C1A61059  36.828  42.597   6.206
 4728POPC   D2A61060  37.107  42.470   6.537
 4728POPC   C3A61061  36.935  42.349   6.936
 4728POPC   C4A61062  36.592  42.530   7.138
 4728POPC   C1B61063  36.497  41.962   6.173
 4728POPC   C2B61064  36.763  42.028   6.538
 4728POPC   C3B61065  36.731  41.860   6.943
 4728POPC   C4B61066  36.634  42.050   7.316
 4729POPC   NC361067  33.529  15.248   5.317
 4729POPC   PO461068  34.002  14.857   5.439
 4729POPC   GL161069  33.809  14.968   5.806
 4729POPC   GL261070  33.773  15.303   5.799
 4729POPC   C1A61071  33.625  14.975   6.212
 4729POPC   D2A61072  33.429  14.948   6.611
 4729POPC   C3A61073  33.738  14.840   6.931
 4729POPC   C4A61074  33.962  14.963   7.278
 4729POPC   C1B61075  33.768  15.534   6.195
 4729POPC   C2B61076  33.574  15.501   6.580
 4729POPC   C3B61077  33.527  15.314   6.948
 4729POPC   C4B61078  33.728  15.412   7.282
 4730POPC   NC361079   3.160  19.817   5.427
 4730POPC   PO461080   2.476  19.917   5.360
 4730POPC   GL161081   2.683  19.805   5.724
 4730POPC   GL261082   2.400  19.705   5.879
 4730POPC   C1A61083   2.931  19.841   6.105
 4730POPC   D2A61084   3.176  19.647   6.445
 4730POPC   C3A61085   3.020  19.719   6.869
 4730POPC   C4A61086   2.661  19.560   7.059
 4730POPC   C1B61087   2.446  19.935   6.248
 4730POPC   C2B61088   2.568  19.869   6.658
 4730POPC   C3B61089   2.506  20.047   7.063
 4730POPC   C4B61090   2.464  19.840   7.451
 4731POPC   NC361091  41.152  15.798   5.387
 4731POPC   PO461092  41.623  16.216   5.381
 4731POPC   GL161093  41.455  16.029   5.768
 4731POPC   GL261094  41.377  15.655   5.840
 4731POPC   C1A61095  41.510  15.975   6.213
 4731POPC   D2A61096  41.537  16.185   6.564
 4731POPC   C3A61097  41.694  15.941   6.869
 4731POPC   C4A61098  41.716  15.812   7.260
 4731POPC   C1B61099  41.160  15.589   6.269
 4731POPC   C2B61100  41.264  15.677   6.722
 4731POPC   C3B61101  41.219  15.624   7.188
 4731POPC   C4B61102  41.301  15.673   7.670
 4732POPC   NC361103  15.142  38.472   5.411
 4732POPC   PO461104  15.700  38.423   5.741
 4732POPC   GL161105  15.302  38.453   5.930
 4732POPC   GL261106  15.096  38.177   5.845
 4732POPC   C1A61107  15.257  38.556   6.349
 4732POPC   D2A61108  15.328  38.696   6.747
 4732POPC   C3A61109  15.478  38.382   7.016
 4732POPC   C4A61110  15.401  38.557   7.395
 4732POPC   C1B61111  15.041  38.096   6.292
 4732POPC   C2B61112  15.064  38.227   6.726
 4732POPC   C3B61113  14.951  38.389   7.146
 4732POPC   C4B61114  15.078  38.254   7.631
 4733POPC   NC361115  37.724  41.388   5.231
 4733POPC   PO461116  37.647  40.746   5.307
 4733POPC   GL161117  37.783  41.136   5.710
 4733POPC   GL261118  37.803  41.537   5.713
 4733POPC   C1A61119  37.705  41.388   6.176
 4733POPC   D2A61120  37.568  41.630   6.552
 4733POPC   C3A61121  37.653  41.455   6.965
 4733POPC   C4A61122  37.418  41.355   7.329
 4733POPC   C1B61123  37.834  41.872   6.083
 4733POPC   C2B61124  37.904  42.023   6.527
 4733POPC   C3B61125  38.037  41.786   6.909
 4733POPC   C4B61126  38.108  41.940   7.329
 4734POPC   NC361127   4.569  25.393   5.499
 4734POPC   PO461128   4.177  24.821   5.493
 4734POPC   GL161129   4.229  25.099   5.792
 4734POPC   GL261130   4.556  25.017   5.861
 4734POPC   C1A61131   4.297  25.362   6.150
 4734POPC   D2A61132   4.113  25.405   6.526
 4734POPC   C3A61133   4.284  25.486   6.907
 4734POPC   C4A61134   4.102  25.556   7.295
 4734POPC   C1B61135   4.731  25.036   6.250
 4734POPC   C2B61136   4.924  24.969   6.643
 4734POPC   C3B61137   4.918  25.162   7.035
 4734POPC   C4B61138   4.579  25.302   7.304
 4735POPC   NC361139  35.749   2.721   5.292
 4735POPC   PO461140  35.144   2.804   5.267
 4735POPC   GL161141  35.322   2.660   5.707
 4735POPC   GL261142  35.598   2.433   5.721
 4735POPC   C1A61143  35.407   2.767   6.182
 4735POPC   D2A61144  35.159   2.822   6.567
 4735POPC   C3A61145  35.339   2.926   6.974
 4735POPC   C4A61146  35.135   2.887   7.375
 4735POPC   C1B61147  35.553   2.237   6.131
 4735POPC   C2B61148  35.479   2.399   6.546
 4735POPC   C3B61149  35.622   2.350   6.954
 4735POPC   C4B61150  35.644   2.622   7.277
 4736POPC   NC361151  23.062   7.668   5.270
 4736POPC   PO461152  23.099   6.992   5.230
 4736POPC   GL161153  22.981   7.191   5.664
 4736POPC   GL261154  22.597   7.308   5.755
 4736POPC   C1A61155  23.098   7.292   6.118
 4736POPC   D2A61156  22.992   7.177   6.544
 4736POPC   C3A61157  23.095   7.233   6.963
 4736POPC   C4A61158  22.732   7.263   7.225
 4736POPC   C1B61159  22.600   7.338   6.181
 4736POPC   C2B61160  22.591   7.660   6.478
 4736POPC   C3B61161  22.810   7.636   6.843
 4736POPC   C4B61162  22.728   7.772   7.249
 4737POPC   NC361163  42.376   7.878   5.460
 4737POPC   PO461164  42.308   8.486   5.120
 4737POPC   GL161165  42.348   8.393   5.602
 4737POPC   GL261166  42.034   8.202   5.719
 4737POPC   C1A61167  42.441   8.183   6.025
 4737POPC   D2A61168  42.268   8.171   6.424
 4737POPC   C3A61169  42.337   8.160   6.857
 4737POPC   C4A61170  42.367   8.150   7.275
 4737POPC   C1B61171  42.017   8.482   6.098
 4737POPC   C2B61172  41.807   8.479   6.475
 4737POPC   C3B61173  41.895   8.435   6.885
 4737POPC   C4B61174  41.976   8.450   7.285
 4738POPC   NC361175  43.168  40.204   5.211
 4738POPC   PO461176  43.547  39.875   5.587
 4738POPC   GL161177  43.269  39.920   5.921
 4738POPC   GL261178  43.069  40.122   5.747
 4738POPC   C1A61179  43.293  39.949   6.381
 4738POPC   D2A61180  43.429  40.087   6.797
 4738POPC   C3A61181  43.178  40.015   7.162
 4738POPC   C4A61182  42.767  39.802   7.182
 4738POPC   C1B61183  42.831  40.171   6.180
 4738POPC   C2B61184  42.906  40.252   6.658
 4738POPC   C3B61185  42.879  40.449   7.092
 4738POPC   C4B61186  42.892  40.281   7.528
 4739POPC   NC361187  26.517  31.272   5.282
 4739POPC   PO461188  25.870  31.587   5.257
 4739POPC   GL161189  26.164  31.507   5.567
 4739POPC   GL261190  26.088  31.814   5.705
 4739POPC   C1A61191  26.142  31.417   6.011
 4739POPC   D2A61192  26.085  31.471   6.454
 4739POPC   C3A61193  26.121  31.187   6.808
 4739POPC   C4A61194  25.927  31.325   7.194
 4739POPC   C1B61195  26.418  31.845   6.071
 4739POPC   C2B61196  26.545  31.670   6.505
 4739POPC   C3B61197  26.429  31.580   6.943
 4739POPC   C4B61198  26.349  31.942   7.214
 4740POPC   NC361199  38.134  44.512   5.477
 4740POPC   PO461200  37.639  44.917   5.476
 4740POPC   GL161201  37.652  44.680   5.839
 4740POPC   GL261202  37.732  44.334   5.770
 4740POPC   C1A61203  37.660  44.854   6.254
 4740POPC   D2A61204  37.778   0.111   6.594
 4740POPC   C3A61205  37.689  44.890   6.967
 4740POPC   C4A61206  37.455  44.959   7.303
 4740POPC   C1B61207  37.564  44.339   6.223
 4740POPC   C2B61208  37.708  44.486   6.641
 4740POPC   C3B61209  37.859  44.353   7.055
 4740POPC   C4B61210  37.782  44.196   7.471
 4741POPC   NC361211  26.249   5.832   5.325
 4741POPC   PO461212  25.733   6.282   5.424
 4741POPC   GL161213  26.015   6.094   5.743
 4741POPC   GL261214  26.380   6.105   5.779
 4741POPC   C1A61215  26.050   5.868   6.155
 4741POPC   D2A61216  26.185   5.691   6.582
 4741POPC   C3A61217  26.153   5.786   7.034
 4741POPC   C4A61218  25.879   5.638   7.378
 4741POPC   C1B61219  26.511   6.052   6.234
 4741POPC   C2B61220  26.577   6.039   6.705
 4741POPC   C3B61221  26.362   6.279   7.066
 4741POPC   C4B61222  26.115   6.112   7.438
 4742POPC   NC361223   2.408   7.462   5.472
 4742POPC   PO461224   3.044   7.151   5.403
 4742POPC   GL161225   2.898   7.381   5.812
 4742POPC   GL261226   2.618   7.601   5.915
 4742POPC   C1A61227   3.006   7.630   6.230
 4742POPC   D2A61228   2.712   7.634   6.596
 4742POPC   C3A61229   2.783   7.476   6.991
 4742POPC   C4A61230   3.148   7.674   7.101
 4742POPC   C1B61231   2.629   7.265   6.238
 4742POPC   C2B61232   2.414   7.193   6.632
 4742POPC   C3B61233   2.378   7.155   7.064
 4742POPC   C4B61234   2.329   7.506   7.374
 4743POPC   NC361235  11.345  15.520   5.276
 4743POPC   PO461236  11.114  14.867   5.432
 4743POPC   GL161237  11.108  15.207   5.767
 4743POPC   GL261238  11.247  15.585   5.765
 4743POPC   C1A61239  11.065  14.964   6.151
 4743POPC   D2A61240  11.205  15.092   6.540
 4743POPC   C3A61241  11.036  14.966   6.911
 4743POPC   C4A61242  11.185  15.092   7.270
 4743POPC   C1B61243  11.316  15.758   6.169
 4743POPC   C2B61244  11.330  15.594   6.555
 4743POPC   C3B61245  11.194  15.459   6.915
 4743POPC   C4B61246  11.394  15.581   7.264
 4744POPC   NC361247   4.803  33.955   5.231
 4744POPC   PO461248   5.247  33.515   5.383
 4744POPC   GL161249   5.144  33.814   5.748
 4744POPC   GL261250   4.840  34.039   5.744
 4744POPC   C1A61251   5.188  33.757   6.225
 4744POPC   D2A61252   5.370  33.629   6.632
 4744POPC   C3A61253   5.178  33.615   7.031
 4744POPC   C4A61254   4.811  33.473   7.217
 4744POPC   C1B61255   4.914  34.175   6.181
 4744POPC   C2B61256   4.908  34.003   6.632
 4744POPC   C3B61257   4.808  33.973   7.078
 4744POPC   C4B61258   4.980  34.120   7.424
 4745POPC   NC361259  18.334   5.205   5.435
 4745POPC   PO461260  18.534   4.651   5.667
 4745POPC   GL161261  18.228   4.909   5.893
 4745POPC   GL261262  18.238   5.296   5.923
 4745POPC   C1A61263  18.306   5.002   6.343
 4745POPC   D2A61264  18.607   4.810   6.644
 4745POPC   C3A61265  18.408   4.824   7.049
 4745POPC   C4A61266  17.984   4.998   7.055
 4745POPC   C1B61267  18.580   5.418   6.210
 4745POPC   C2B61268  18.603   5.327   6.664
 4745POPC   C3B61269  18.424   5.366   7.096
 4745POPC   C4B61270  18.379   5.655   7.491
 4746POPC   NC361271  37.841  13.286   5.535
 4746POPC   PO461272  37.503  12.609   5.555
 4746POPC   GL161273  37.597  12.702   5.949
 4746POPC   GL261274  37.679  13.004   5.915
 4746POPC   C1A61275  37.803  12.710   6.381
 4746POPC   D2A61276  37.889  12.743   6.864
 4746POPC   C3A61277  37.549  12.899   7.150
 4746POPC   C4A61278  37.442  13.126   7.549
 4746POPC   C1B61279  37.859  13.244   6.245
 4746POPC   C2B61280  37.823  13.217   6.690
 4746POPC   C3B61281  38.111  13.239   7.021
 4746POPC   C4B61282  38.023  13.207   7.461
 4747POPC   NC361283  43.168  44.707   4.945
 4747POPC   PO461284  43.187  44.989   5.561
 4747POPC   GL161285  43.358  44.779   5.884
 4747POPC   GL261286  43.063  44.576   5.951
 4747POPC   C1A61287  43.328  44.850   6.309
 4747POPC   D2A61288  43.280  44.617   6.641
 4747POPC   C3A61289  43.442  44.804   6.945
 4747POPC   C4A61290  43.169  44.828   7.249
 4747POPC   C1B61291  42.860  44.326   6.255
 4747POPC   C2B61292  42.987  44.177   6.643
 4747POPC   C3B61293  42.889  44.467   6.952
 4747POPC   C4B61294  42.969  44.394   7.367
 4748POPC   NC361295   2.308   8.163   5.430
 4748POPC   PO461296   2.992   8.111   5.453
 4748POPC   GL161297   2.845   8.071   5.883
 4748POPC   GL261298   2.561   8.274   5.849
 4748POPC   C1A61299   2.562   8.004   6.273
 4748POPC   D2A61300   2.361   7.999   6.698
 4748POPC   C3A61301   2.681   7.978   7.035
 4748POPC   C4A61302   2.924   8.173   7.360
 4748POPC   C1B61303   2.712   8.496   6.202
 4748POPC   C2B61304   2.519   8.485   6.601
 4748POPC   C3B61305   2.708   8.489   6.975
 4748POPC   C4B61306   2.541   8.487   7.367
 4749POPC   NC361307   7.696  27.896   5.660
 4749POPC   PO461308   7.277  27.398   5.406
 4749POPC   GL161309   7.284  27.628   5.802
 4749POPC   GL261310   7.194  27.986   5.732
 4749POPC   C1A61311   7.544  27.543   6.205
 4749POPC   D2A61312   7.600  27.429   6.651
 4749POPC   C3A61313   7.694  27.803   6.933
 4749POPC   C4A61314   7.585  27.591   7.282
 4749POPC   C1B61315   7.219  28.054   6.163
 4749POPC   C2B61316   7.362  27.891   6.539
 4749POPC   C3B61317   7.209  27.715   6.907
 4749POPC   C4B61318   7.150  27.931   7.294
 4750POPC   NC361319  14.315  35.148   5.229
 4750POPC   PO461320  14.416  35.691   5.621
 4750POPC   GL161321  14.527  35.341   5.872
 4750POPC   GL261322  14.535  34.999   5.701
 4750POPC   C1A61323  14.345  35.322   6.300
 4750POPC   D2A61324  14.253  35.572   6.675
 4750POPC   C3A61325  14.382  35.369   7.063
 4750POPC   C4A61326  14.004  35.375   7.308
 4750POPC   C1B61327  14.570  34.887   6.149
 4750POPC   C2B61328  14.326  34.870   6.546
 4750POPC   C3B61329  14.503  34.779   6.918
 4750POPC   C4B61330  14.714  34.940   7.256
 4751POPC   NC361331   3.779  40.247   5.733
 4751POPC   PO461332   3.558  40.764   5.394
 4751POPC   GL161333   3.480  40.638   5.839
 4751POPC   GL261334   3.825  40.696   5.965
 4751POPC   C1A61335   3.466  40.372   6.270
 4751POPC   D2A61336   3.338  40.232   6.692
 4751POPC   C3A61337   3.438  40.571   6.925
 4751POPC   C4A61338   3.221  40.914   7.103
 4751POPC   C1B61339   3.536  40.951   6.254
 4751POPC   C2B61340   3.484  41.105   6.695
 4751POPC   C3B61341   3.734  40.986   7.084
 4751POPC   C4B61342   3.993  40.630   7.202
 4752POPC   NC361343  11.973  42.616   5.552
 4752POPC   PO461344  12.523  42.950   5.566
 4752POPC   GL161345  12.173  42.975   5.865
 4752POPC   GL261346  12.397  43.270   5.964
 4752POPC   C1A61347  11.905  42.802   6.251
 4752POPC   D2A61348  12.104  42.960   6.685
 4752POPC   C3A61349  12.225  42.782   7.033
 4752POPC   C4A61350  12.171  42.829   7.442
 4752POPC   C1B61351  12.431  43.620   6.261
 4752POPC   C2B61352  12.306  43.641   6.678
 4752POPC   C3B61353  11.989  43.381   6.937
 4752POPC   C4B61354  12.015  43.293   7.360
 4753POPC   NC361355  11.798  10.214   5.459
 4753POPC   PO461356  11.558   9.540   5.219
 4753POPC   GL161357  11.404   9.608   5.646
 4753POPC   GL261358  11.113   9.370   5.747
 4753POPC   C1A61359  11.526   9.628   6.079
 4753POPC   D2A61360  11.492   9.451   6.496
 4753POPC   C3A61361  11.420   9.783   6.751
 4753POPC   C4A61362  11.474   9.700   7.143
 4753POPC   C1B61363  11.086   9.435   6.184
 4753POPC   C2B61364  10.933   9.445   6.604
 4753POPC   C3B61365  10.992   9.652   6.977
 4753POPC   C4B61366  10.811  10.049   7.045
 4754POPC   NC361367   9.494  27.219   5.468
 4754POPC   PO461368   9.726  27.854   5.576
 4754POPC   GL161369   9.706  27.515   5.880
 4754POPC   GL261370   9.961  27.264   5.952
 4754POPC   C1A61371   9.634  27.665   6.298
 4754POPC   D2A61372   9.380  27.579   6.673
 4754POPC   C3A61373   9.590  27.650   7.067
 4754POPC   C4A61374   9.762  27.899   7.382
 4754POPC   C1B61375   9.738  27.148   6.335
 4754POPC   C2B61376   9.873  27.412   6.678
 4754POPC   C3B61377  10.101  27.549   7.011
 4754POPC   C4B61378   9.962  27.206   7.249
 4755POPC   NC361379  20.433  18.196   5.070
 4755POPC   PO461380  20.704  18.062   5.668
 4755POPC   GL161381  20.499  18.352   5.880
 4755POPC   GL261382  20.285  18.089   5.939
 4755POPC   C1A61383  20.656  18.491   6.290
 4755POPC   D2A61384  20.944  18.397   6.650
 4755POPC   C3A61385  20.754  18.279   7.055
 4755POPC   C4A61386  20.327  18.302   7.253
 4755POPC   C1B61387  20.473  18.007   6.299
 4755POPC   C2B61388  20.394  18.213   6.667
 4755POPC   C3B61389  20.412  17.898   6.943
 4755POPC   C4B61390  20.547  17.814   7.321
 4756POPC   NC361391  20.872   6.916   5.575
 4756POPC   PO461392  20.812   6.277   5.433
 4756POPC   GL161393  20.670   6.495   5.817
 4756POPC   GL261394  20.383   6.749   5.761
 4756POPC   C1A61395  20.841   6.456   6.246
 4756POPC   D2A61396  20.737   6.269   6.631
 4756POPC   C3A61397  20.617   6.489   6.999
 4756POPC   C4A61398  20.813   6.590   7.399
 4756POPC   C1B61399  20.511   6.836   6.195
 4756POPC   C2B61400  20.738   6.842   6.591
 4756POPC   C3B61401  20.729   6.985   7.005
 4756POPC   C4B61402  20.436   6.887   7.334
 4757POPC   NC361403  40.124  39.573   5.086
 4757POPC   PO461404  39.785  40.012   5.438
 4757POPC   GL161405  40.060  40.005   5.760
 4757POPC   GL261406  40.171  39.696   5.629
 4757POPC   C1A61407  39.965  39.952   6.227
 4757POPC   D2A61408  39.961  40.057   6.671
 4757POPC   C3A61409  39.830  39.811   7.039
 4757POPC   C4A61410  39.875  39.921   7.489
 4757POPC   C1B61411  40.257  39.570   6.052
 4757POPC   C2B61412  40.393  39.727   6.456
 4757POPC   C3B61413  40.322  39.706   6.877
 4757POPC   C4B61414  40.311  39.861   7.283
 4758POPC   NC361415  23.682  14.329   5.091
 4758POPC   PO461416  23.723  14.043   5.664
 4758POPC   GL161417  23.735  14.379   6.004
 4758POPC   GL261418  23.589  14.719   5.911
 4758POPC   C1A61419  23.625  14.301   6.419
 4758POPC   D2A61420  23.550  14.058   6.755
 4758POPC   C3A61421  23.508  14.254   7.107
 4758POPC   C4A61422  23.859  14.448   7.217
 4758POPC   C1B61423  23.421  14.781   6.332
 4758POPC   C2B61424  23.474  14.665   6.777
 4758POPC   C3B61425  23.422  14.734   7.225
 4758POPC   C4B61426  23.342  14.561   7.649
 4759POPC   NC361427   3.187   8.536   5.555
 4759POPC   PO461428   2.901   9.131   5.251
 4759POPC   GL161429   2.745   9.066   5.704
 4759POPC   GL261430   2.525   8.775   5.723
 4759POPC   C1A61431   2.841   9.055   6.149
 4759POPC   D2A61432   2.755   8.934   6.570
 4759POPC   C3A61433   3.072   9.041   6.864
 4759POPC   C4A61434   3.123   8.735   7.186
 4759POPC   C1B61435   2.360   8.869   6.146
 4759POPC   C2B61436   2.122   8.877   6.526
 4759POPC   C3B61437   2.263   8.833   6.940
 4759POPC   C4B61438   2.630   8.977   7.128
 4760POPC   NC361439  44.443  11.583   5.449
 4760POPC   PO461440  44.975  11.149   5.598
 4760POPC   GL161441  44.760  11.434   5.885
 4760POPC   GL261442  44.413  11.339   5.902
 4760POPC   C1A61443  44.608  11.515   6.321
 4760POPC   D2A61444  44.510  11.355   6.737
 4760POPC   C3A61445  44.648  11.562   7.100
 4760POPC   C4A61446  44.751  11.436   7.521
 4760POPC   C1B61447  44.337  11.084   6.277
 4760POPC   C2B61448  44.508  10.844   6.622
 4760POPC   C3B61449  44.570  10.972   7.073
 4760POPC   C4B61450  44.587  10.950   7.527
 4761POPC   NC361451  17.463  38.112   5.318
 4761POPC   PO461452  17.831  37.514   5.156
 4761POPC   GL161453  17.617  37.683   5.642
 4761POPC   GL261454  17.568  37.380   5.906
 4761POPC   C1A61455  17.246  37.739   5.994
 4761POPC   D2A61456  17.052  37.642   6.417
 4761POPC   C3A61457  17.247  37.618   6.830
 4761POPC   C4A61458  17.176  37.763   7.245
 4761POPC   C1B61459  17.818  37.566   6.214
 4761POPC   C2B61460  17.706  37.683   6.608
 4761POPC   C3B61461  17.715  37.471   6.991
 4761POPC   C4B61462  17.601  37.480   7.394
 4762POPC   NC361463   4.517  38.145   5.000
 4762POPC   PO461464   4.252  37.669   5.377
 4762POPC   GL161465   4.339  37.570   5.780
 4762POPC   GL261466   3.977  37.546   5.828
 4762POPC   C1A61467   4.436  37.487   6.223
 4762POPC   D2A61468   4.431  37.831   6.544
 4762POPC   C3A61469   4.386  37.767   6.999
 4762POPC   C4A61470   4.494  37.453   7.302
 4762POPC   C1B61471   4.056  37.808   6.167
 4762POPC   C2B61472   3.964  37.610   6.550
 4762POPC   C3B61473   3.874  37.835   6.890
 4762POPC   C4B61474   3.942  37.748   7.321
 4763POPC   NC361475  38.307   7.050   5.356
 4763POPC   PO461476  38.505   6.460   5.493
 4763POPC   GL161477  38.400   6.781   5.814
 4763POPC   GL261478  38.106   7.021   5.849
 4763POPC   C1A61479  38.341   6.679   6.232
 4763POPC   D2A61480  38.515   6.420   6.532
 4763POPC   C3A61481  38.473   6.598   6.907
 4763POPC   C4A61482  38.606   6.803   7.261
 4763POPC   C1B61483  37.883   6.908   6.264
 4763POPC   C2B61484  38.034   6.753   6.684
 4763POPC   C3B61485  38.062   6.742   7.152
 4763POPC   C4B61486  37.983   6.960   7.546
 4764POPC   NC361487  22.663  24.142   5.502
 4764POPC   PO461488  23.133  24.694   5.449
 4764POPC   GL161489  22.959  24.602   5.853
 4764POPC   GL261490  22.929  24.249   5.938
 4764POPC   C1A61491  22.784  24.647   6.237
 4764POPC   D2A61492  22.805  24.515   6.626
 4764POPC   C3A61493  23.039  24.673   6.964
 4764POPC   C4A61494  22.751  24.455   7.174
 4764POPC   C1B61495  23.197  24.329   6.328
 4764POPC   C2B61496  23.170  24.201   6.772
 4764POPC   C3B61497  23.224  24.239   7.218
 4764POPC   C4B61498  23.322  24.105   7.697
 4765POPC   NC361499   4.797  41.182   5.472
 4765POPC   PO461500   4.776  41.780   5.446
 4765POPC   GL161501   5.152  41.678   5.773
 4765POPC   GL261502   5.029  41.400   5.977
 4765POPC   C1A61503   5.399  41.655   6.199
 4765POPC   D2A61504   5.130  41.587   6.552
 4765POPC   C3A61505   5.202  41.411   6.940
 4765POPC   C4A61506   5.248  41.543   7.366
 4765POPC   C1B61507   4.768  41.691   6.197
 4765POPC   C2B61508   4.731  41.943   6.585
 4765POPC   C3B61509   4.841  41.837   7.045
 4765POPC   C4B61510   4.772  41.742   7.500
 4766POPC   NC361511  32.053  38.620   5.419
 4766POPC   PO461512  32.430  38.086   5.202
 4766POPC   GL161513  32.243  38.212   5.622
 4766POPC   GL261514  32.406  38.559   5.769
 4766POPC   C1A61515  32.070  38.282   6.057
 4766POPC   D2A61516  32.244  38.462   6.439
 4766POPC   C3A61517  32.137  38.242   6.819
 4766POPC   C4A61518  32.150  38.072   7.223
 4766POPC   C1B61519  32.659  38.778   6.109
 4766POPC   C2B61520  32.620  38.822   6.547
 4766POPC   C3B61521  32.657  38.715   6.979
 4766POPC   C4B61522  32.282  38.577   7.231
 4767POPC   NC361523   9.492  40.432   5.553
 4767POPC   PO461524   9.821  39.986   5.184
 4767POPC   GL161525   9.745  39.967   5.717
 4767POPC   GL261526   9.964  39.698   5.909
 4767POPC   C1A61527   9.690  40.033   6.192
 4767POPC   D2A61528   9.909  40.262   6.514
 4767POPC   C3A61529   9.841  40.423   6.910
 4767POPC   C4A61530   9.590  40.217   7.158
 4767POPC   C1B61531   9.880  39.606   6.358
 4767POPC   C2B61532   9.842  39.808   6.784
 4767POPC   C3B61533   9.935  39.615   7.181
 4767POPC   C4B61534  10.053  39.477   7.589
 4768POPC   NC361535  32.966  29.350   5.386
 4768POPC   PO461536  33.347  28.800   5.433
 4768POPC   GL161537  33.163  29.076   5.790
 4768POPC   GL261538  32.890  29.293   5.870
 4768POPC   C1A61539  32.945  28.951   6.223
 4768POPC   D2A61540  32.751  28.734   6.594
 4768POPC   C3A61541  32.952  28.870   6.938
 4768POPC   C4A61542  33.009  29.007   7.317
 4768POPC   C1B61543  33.070  29.479   6.221
 4768POPC   C2B61544  32.969  29.612   6.622
 4768POPC   C3B61545  32.947  29.413   7.021
 4768POPC   C4B61546  32.634  29.343   7.385
 4769POPC   NC361547  15.112  34.946   5.234
 4769POPC   PO461548  15.529  34.468   5.345
 4769POPC   GL161549  15.241  34.632   5.653
 4769POPC   GL261550  15.239  34.301   5.814
 4769POPC   C1A61551  15.104  34.734   6.064
 4769POPC   D2A61552  15.309  34.608   6.454
 4769POPC   C3A61553  15.043  34.753   6.781
 4769POPC   C4A61554  15.236  34.843   7.178
 4769POPC   C1B61555  15.178  34.138   6.217
 4769POPC   C2B61556  15.021  34.218   6.623
 4769POPC   C3B61557  15.202  34.328   7.004
 4769POPC   C4B61558  14.838  34.469   7.149
 4770POPC   NC361559  39.761   8.487   5.380
 4770POPC   PO461560  40.274   7.976   5.435
 4770POPC   GL161561  40.200   8.205   5.833
 4770POPC   GL261562  39.910   8.435   5.862
 4770POPC   C1A61563  40.097   8.109   6.284
 4770POPC   D2A61564  39.857   8.243   6.663
 4770POPC   C3A61565  40.075   8.269   7.064
 4770POPC   C4A61566  39.962   8.321   7.532
 4770POPC   C1B61567  39.610   8.490   6.205
 4770POPC   C2B61568  39.638   8.719   6.575
 4770POPC   C3B61569  39.724   8.681   6.978
 4770POPC   C4B61570  39.690   8.792   7.394
 4771POPC   NC361571  13.317  44.563   5.388
 4771POPC   PO461572  12.645  44.643   5.420
 4771POPC   GL161573  12.921  44.459   5.772
 4771POPC   GL261574  13.246  44.328   5.885
 4771POPC   C1A61575  12.832  44.447   6.245
 4771POPC   D2A61576  12.692  44.506   6.703
 4771POPC   C3A61577  12.796  44.853   7.024
 4771POPC   C4A61578  12.744  44.822   7.489
 4771POPC   C1B61579  13.293  44.299   6.372
 4771POPC   C2B61580  13.211  44.625   6.694
 4771POPC   C3B61581  13.236  44.592   7.139
 4771POPC   C4B61582  13.191  44.244   7.417
 4772POPC   NC361583  22.732  29.895   5.404
 4772POPC   PO461584  23.213  30.297   5.353
 4772POPC   GL161585  23.254  30.060   5.763
 4772POPC   GL261586  23.022  29.766   5.800
 4772POPC   C1A61587  23.264  29.929   6.207
 4772POPC   D2A61588  23.090  30.065   6.594
 4772POPC   C3A61589  23.332  30.187   6.994
 4772POPC   C4A61590  23.047  30.069   7.328
 4772POPC   C1B61591  22.770  30.036   6.094
 4772POPC   C2B61592  22.581  29.970   6.504
 4772POPC   C3B61593  22.773  29.870   6.921
 4772POPC   C4B61594  22.556  29.823   7.274
 4773POPC   NC361595  44.428  10.954   5.561
 4773POPC   PO461596  44.575  10.424   5.218
 4773POPC   GL161597  44.763  10.553   5.624
 4773POPC   GL261598  44.777  10.247   5.782
 4773POPC   C1A61599  44.717  10.676   6.096
 4773POPC   D2A61600  44.884  10.451   6.451
 4773POPC   C3A61601  44.828  10.524   6.891
 4773POPC   C4A61602  44.966  10.707   7.273
 4773POPC   C1B61603  44.520  10.186   6.162
 4773POPC   C2B61604  44.399  10.333   6.589
 4773POPC   C3B61605  44.407  10.205   7.006
 4773POPC   C4B61606  44.542   9.968   7.332
 4774POPC   NC361607  14.555   2.645   5.370
 4774POPC   PO461608  14.173   3.243   5.254
 4774POPC   GL161609  14.204   2.948   5.630
 4774POPC   GL261610  14.529   2.976   5.768
 4774POPC   C1A61611  14.225   2.641   6.029
 4774POPC   D2A61612  14.450   2.454   6.430
 4774POPC   C3A61613  14.276   2.560   6.856
 4774POPC   C4A61614  14.281   2.860   7.197
 4774POPC   C1B61615  14.718   2.833   6.160
 4774POPC   C2B61616  14.833   2.898   6.602
 4774POPC   C3B61617  14.792   2.637   6.971
 4774POPC   C4B61618  14.727   2.668   7.407
 4775POPC   NC361619  34.511  37.900   5.420
 4775POPC   PO461620  34.346  37.234   5.325
 4775POPC   GL161621  34.436  37.486   5.708
 4775POPC   GL261622  34.785  37.520   5.691
 4775POPC   C1A61623  34.354  37.422   6.166
 4775POPC   D2A61624  34.268  37.653   6.540
 4775POPC   C3A61625  34.448  37.533   6.928
 4775POPC   C4A61626  34.328  37.859   7.191
 4775POPC   C1B61627  34.743  37.741   6.074
 4775POPC   C2B61628  34.848  37.692   6.521
 4775POPC   C3B61629  34.974  37.771   6.952
 4775POPC   C4B61630  34.846  37.820   7.397
 4776POPC   NC361631  37.651  41.954   5.428
 4776POPC   PO461632  37.462  42.585   5.531
 4776POPC   GL161633  37.507  42.290   5.866
 4776POPC   GL261634  37.853  42.298   5.809
 4776POPC   C1A61635  37.419  42.100   6.303
 4776POPC   D2A61636  37.374  42.074   6.771
 4776POPC   C3A61637  37.736  42.195   7.013
 4776POPC   C4A61638  37.807  42.322   7.441
 4776POPC   C1B61639  37.811  42.563   6.177
 4776POPC   C2B61640  37.639  42.489   6.578
 4776POPC   C3B61641  37.408  42.581   6.934
 4776POPC   C4B61642  37.345  42.474   7.317
 4777POPC   NC361643  33.225  20.162   5.337
 4777POPC   PO461644  33.028  19.529   5.417
 4777POPC   GL161645  33.167  19.789   5.717
 4777POPC   GL261646  32.870  20.003   5.767
 4777POPC   C1A61647  33.066  19.691   6.145
 4777POPC   D2A61648  32.921  19.915   6.499
 4777POPC   C3A61649  33.171  19.807   6.845
 4777POPC   C4A61650  33.105  19.710   7.241
 4777POPC   C1B61651  33.217  20.171   6.071
 4777POPC   C2B61652  33.410  20.117   6.496
 4777POPC   C3B61653  33.373  20.263   6.933
 4777POPC   C4B61654  33.273  20.192   7.368
 4778POPC   NC361655  33.895  12.292   5.418
 4778POPC   PO461656  33.293  12.074   5.474
 4778POPC   GL161657  33.683  11.894   5.698
 4778POPC   GL261658  33.901  12.148   5.895
 4778POPC   C1A61659  33.765  11.725   6.130
 4778POPC   D2A61660  33.542  11.908   6.506
 4778POPC   C3A61661  33.708  11.850   6.953
 4778POPC   C4A61662  33.638  12.000   7.379
 4778POPC   C1B61663  33.960  12.388   6.264
 4778POPC   C2B61664  33.671  12.408   6.601
 4778POPC   C3B61665  33.768  12.366   7.012
 4778POPC   C4B61666  33.544  12.504   7.338
 4779POPC   NC361667  38.730  44.321   5.460
 4779POPC   PO461668  38.415  44.939   5.441
 4779POPC   GL161669  38.512  44.741   5.817
 4779POPC   GL261670  38.163  44.640   5.954
 4779POPC   C1A61671  38.545  44.861   6.257
 4779POPC   D2A61672  38.144  44.711   6.447
 4779POPC   C3A61673  38.159  44.704   6.846
 4779POPC   C4A61674  38.308  44.923   7.175
 4779POPC   C1B61675  38.450  44.374   6.171
 4779POPC   C2B61676  38.582  44.451   6.595
 4779POPC   C3B61677  38.604  44.524   7.027
 4779POPC   C4B61678  38.593  44.254   7.352
 4780POPC   NC361679   8.613  40.080   5.323
 4780POPC   PO461680   8.040  39.805   5.149
 4780POPC   GL161681   8.206  40.109   5.635
 4780POPC   GL261682   8.517  40.318   5.757
 4780POPC   C1A61683   8.006  40.155   6.106
 4780POPC   D2A61684   8.034  39.831   6.415
 4780POPC   C3A61685   7.955  39.974   6.825
 4780POPC   C4A61686   8.121  39.820   7.188
 4780POPC   C1B61687   8.498  40.107   6.147
 4780POPC   C2B61688   8.352  40.249   6.564
 4780POPC   C3B61689   8.442  40.168   7.011
 4780POPC   C4B61690   8.214  40.318   7.415
 4781POPC   NC361691  44.134  10.683   5.141
 4781POPC   PO461692  44.016  11.100   5.685
 4781POPC   GL161693  44.021  10.640   5.789
 4781POPC   GL261694  44.260  10.368   5.724
 4781POPC   C1A61695  44.183  10.600   6.210
 4781POPC   D2A61696  43.976  10.810   6.552
 4781POPC   C3A61697  43.789  10.598   6.896
 4781POPC   C4A61698  43.916  10.308   7.207
 4781POPC   C1B61699  43.945  10.191   6.069
 4781POPC   C2B61700  43.890  10.236   6.504
 4781POPC   C3B61701  43.973   9.980   6.839
 4781POPC   C4B61702  44.068   9.790   7.279
 4782POPC   NC361703  27.184  44.570   5.291
 4782POPC   PO461704  26.473  44.487   5.312
 4782POPC   GL161705  26.779  44.701   5.584
 4782POPC   GL261706  26.858  44.382   5.673
 4782POPC   C1A61707  26.859  44.826   6.027
 4782POPC   D2A61708  26.544  44.894   6.361
 4782POPC   C3A61709  26.708  44.899   6.765
 4782POPC   C4A61710  26.692  44.911   7.202
 4782POPC   C1B61711  26.968  44.329   6.115
 4782POPC   C2B61712  26.956  44.484   6.548
 4782POPC   C3B61713  26.781  44.396   6.967
 4782POPC   C4B61714  26.866  44.461   7.404
 4783POPC   NC361715  23.153  17.099   5.493
 4783POPC   PO461716  22.809  16.531   5.554
 4783POPC   GL161717  22.859  16.873   5.840
 4783POPC   GL261718  22.534  17.014   5.897
 4783POPC   C1A61719  23.138  16.828   6.209
 4783POPC   D2A61720  23.091  16.561   6.578
 4783POPC   C3A61721  23.156  16.734   6.996
 4783POPC   C4A61722  23.149  16.867   7.445
 4783POPC   C1B61723  22.609  16.756   6.272
 4783POPC   C2B61724  22.518  16.640   6.695
 4783POPC   C3B61725  22.731  16.369   6.963
 4783POPC   C4B61726  22.988  16.375   7.333
 4784POPC   NC361727  16.431  39.389   5.501
 4784POPC   PO461728  17.100  39.496   5.350
 4784POPC   GL161729  16.922  39.359   5.759
 4784POPC   GL261730  16.624  39.382   5.963
 4784POPC   C1A61731  17.025  39.136   6.152
 4784POPC   D2A61732  16.863  39.002   6.558
 4784POPC   C3A61733  16.902  39.217   6.912
 4784POPC   C4A61734  16.966  39.432   7.240
 4784POPC   C1B61735  16.475  39.018   6.190
 4784POPC   C2B61736  16.382  38.803   6.572
 4784POPC   C3B61737  16.269  38.968   6.951
 4784POPC   C4B61738  16.509  39.071   7.264
 4785POPC   NC361739  40.212  34.524   5.403
 4785POPC   PO461740  40.012  33.976   5.668
 4785POPC   GL161741  39.985  34.391   5.871
 4785POPC   GL261742  40.015  34.754   5.823
 4785POPC   C1A61743  40.189  34.507   6.235
 4785POPC   D2A61744  40.389  34.272   6.539
 4785POPC   C3A61745  40.281  34.504   6.891
 4785POPC   C4A61746  40.152  34.351   7.274
 4785POPC   C1B61747  39.796  34.932   6.193
 4785POPC   C2B61748  39.723  34.871   6.671
 4785POPC   C3B61749  39.919  34.824   7.110
 4785POPC   C4B61750  39.858  34.652   7.551
 4786POPC   NC361751  10.161  30.026   5.385
 4786POPC   PO461752  10.587  29.554   5.497
 4786POPC   GL161753  10.364  29.840   5.820
 4786POPC   GL261754  10.170  30.228   5.836
 4786POPC   C1A61755  10.549  29.730   6.209
 4786POPC   D2A61756  10.816  29.594   6.532
 4786POPC   C3A61757  10.619  29.778   6.889
 4786POPC   C4A61758  10.778  29.963   7.244
 4786POPC   C1B61759  10.425  30.256   6.192
 4786POPC   C2B61760  10.319  30.034   6.553
 4786POPC   C3B61761  10.185  30.151   6.925
 4786POPC   C4B61762  10.398  30.281   7.264
 4787POPC   NC361763  28.767   4.797   5.606
 4787POPC   PO461764  29.467   4.759   5.420
 4787POPC   GL161765  29.360   4.383   5.721
 4787POPC   GL261766  29.156   4.587   5.851
 4787POPC   C1A61767  29.177   4.194   6.163
 4787POPC   D2A61768  29.307   4.157   6.621
 4787POPC   C3A61769  29.079   4.217   7.020
 4787POPC   C4A61770  29.168   4.169   7.471
 4787POPC   C1B61771  29.104   4.720   6.239
 4787POPC   C2B61772  28.982   4.576   6.632
 4787POPC   C3B61773  29.037   4.743   7.035
 4787POPC   C4B61774  28.852   4.532   7.383
 4788POPC   NC361775   2.156  13.359   5.339
 4788POPC   PO461776   1.760  13.869   5.507
 4788POPC   GL161777   1.934  13.636   5.822
 4788POPC   GL261778   1.831  13.310   5.737
 4788POPC   C1A61779   2.064  13.594   6.241
 4788POPC   D2A61780   2.238  13.545   6.623
 4788POPC   C3A61781   1.995  13.667   6.953
 4788POPC   C4A61782   1.947  13.521   7.374
 4788POPC   C1B61783   1.705  13.244   6.158
 4788POPC   C2B61784   1.771  13.350   6.591
 4788POPC   C3B61785   1.695  13.218   6.999
 4788POPC   C4B61786   1.543  13.217   7.422
 4789POPC   NC361787  37.413  38.376   5.316
 4789POPC   PO461788  38.042  38.659   5.333
 4789POPC   GL161789  37.672  38.618   5.670
 4789POPC   GL261790  37.736  38.282   5.797
 4789POPC   C1A61791  37.408  38.504   6.083
 4789POPC   D2A61792  37.538  38.279   6.482
 4789POPC   C3A61793  37.734  38.504   6.853
 4789POPC   C4A61794  37.664  38.723   7.253
 4789POPC   C1B61795  37.929  38.052   6.182
 4789POPC   C2B61796  37.930  37.933   6.652
 4789POPC   C3B61797  37.926  38.067   7.112
 4789POPC   C4B61798  38.124  37.988   7.514
 4790POPC   NC361799  19.602   3.659   5.428
 4790POPC   PO461800  19.017   3.328   5.234
 4790POPC   GL161801  19.224   3.388   5.697
 4790POPC   GL261802  19.300   3.735   5.849
 4790POPC   C1A61803  19.329   3.317   6.177
 4790POPC   D2A61804  19.499   3.479   6.593
 4790POPC   C3A61805  19.453   3.339   7.039
 4790POPC   C4A61806  19.221   3.484   7.395
 4790POPC   C1B61807  19.191   3.936   6.264
 4790POPC   C2B61808  18.965   3.806   6.661
 4790POPC   C3B61809  18.882   3.790   7.121
 4790POPC   C4B61810  19.158   4.019   7.395
 4791POPC   NC361811  33.752  24.780   5.535
 4791POPC   PO461812  34.031  25.327   5.411
 4791POPC   GL161813  34.025  25.284   5.834
 4791POPC   GL261814  33.683  25.245   5.915
 4791POPC   C1A61815  34.056  25.239   6.273
 4791POPC   D2A61816  33.883  25.213   6.684
 4791POPC   C3A61817  34.118  25.148   7.031
 4791POPC   C4A61818  34.294  25.408   7.335
 4791POPC   C1B61819  33.531  25.378   6.347
 4791POPC   C2B61820  33.427  25.405   6.830
 4791POPC   C3B61821  33.484  25.399   7.280
 4791POPC   C4B61822  33.547  25.676   7.625
 4792POPC   NC361823  17.221  42.817   5.645
 4792POPC   PO461824  17.624  43.350   5.489
 4792POPC   GL161825  17.799  43.411   5.893
 4792POPC   GL261826  17.782  43.054   5.924
 4792POPC   C1A61827  17.779  43.377   6.358
 4792POPC   D2A61828  17.792  43.051   6.673
 4792POPC   C3A61829  17.784  43.235   7.066
 4792POPC   C4A61830  17.495  43.426   7.290
 4792POPC   C1B61831  17.487  42.932   6.263
 4792POPC   C2B61832  17.406  42.719   6.660
 4792POPC   C3B61833  17.331  42.960   7.022
 4792POPC   C4B61834  17.115  43.023   7.382
 4793POPC   NC361835  30.257  18.729   5.605
 4793POPC   PO461836  29.645  18.790   5.398
 4793POPC   GL161837  29.755  18.983   5.777
 4793POPC   GL261838  29.923  18.764   5.989
 4793POPC   C1A61839  29.901  19.297   6.105
 4793POPC   D2A61840  29.752  19.559   6.468
 4793POPC   C3A61841  29.969  19.410   6.830
 4793POPC   C4A61842  29.804  19.256   7.225
 4793POPC   C1B61843  30.303  18.737   6.254
 4793POPC   C2B61844  30.118  19.005   6.532
 4793POPC   C3B61845  29.868  18.881   6.893
 4793POPC   C4B61846  30.019  18.785   7.315
 4794POPC   NC361847  24.990  21.346   5.565
 4794POPC   PO461848  25.471  21.697   5.456
 4794POPC   GL161849  25.474  21.321   5.743
 4794POPC   GL261850  25.304  20.992   5.744
 4794POPC   C1A61851  25.368  21.330   6.189
 4794POPC   D2A61852  25.446  21.156   6.589
 4794POPC   C3A61853  25.578  21.463   6.933
 4794POPC   C4A61854  25.256  21.553   7.276
 4794POPC   C1B61855  24.947  21.030   6.106
 4794POPC   C2B61856  24.919  21.366   6.437
 4794POPC   C3B61857  25.059  21.382   6.848
 4794POPC   C4B61858  24.934  21.155   7.198
 4795POPC   NC361859  34.000  43.287   5.387
 4795POPC   PO461860  33.405  42.915   5.478
 4795POPC   GL161861  33.693  43.068   5.825
 4795POPC   GL261862  33.944  42.788   5.851
 4795POPC   C1A61863  33.589  43.254   6.266
 4795POPC   D2A61864  33.888  43.421   6.605
 4795POPC   C3A61865  33.901  43.126   6.965
 4795POPC   C4A61866  33.531  43.099   7.213
 4795POPC   C1B61867  33.687  42.728   6.246
 4795POPC   C2B61868  33.590  42.764   6.720
 4795POPC   C3B61869  33.599  42.600   7.160
 4795POPC   C4B61870  33.602  42.702   7.636
 4796POPC   NC361871  21.309   0.284   5.565
 4796POPC   PO461872  20.966   0.862   5.458
 4796POPC   GL161873  21.100   0.633   5.868
 4796POPC   GL261874  21.437   0.689   6.042
 4796POPC   C1A61875  21.052   0.485   6.339
 4796POPC   D2A61876  21.340   0.473   6.721
 4796POPC   C3A61877  21.252   0.484   7.182
 4796POPC   C4A61878  21.568   0.704   7.427
 4796POPC   C1B61879  21.556   0.258   6.262
 4796POPC   C2B61880  21.653   0.063   6.697
 4796POPC   C3B61881  21.720   0.296   7.124
 4796POPC   C4B61882  21.757   0.228   7.585
 4797POPC   NC361883  34.216  44.069   5.397
 4797POPC   PO461884  33.583  43.857   5.196
 4797POPC   GL161885  33.814  43.781   5.641
 4797POPC   GL261886  34.017  44.022   5.848
 4797POPC   C1A61887  33.745  43.732   6.142
 4797POPC   D2A61888  33.533  43.821   6.564
 4797POPC   C3A61889  33.527  43.546   6.938
 4797POPC   C4A61890  33.819  43.562   7.246
 4797POPC   C1B61891  33.991  44.255   6.225
 4797POPC   C2B61892  33.872  44.197   6.647
 4797POPC   C3B61893  33.821  44.060   7.083
 4797POPC   C4B61894  33.980  44.313   7.469
 4798POPC   NC361895   8.922  34.935   5.309
 4798POPC   PO461896   9.186  35.518   5.080
 4798POPC   GL161897   9.199  35.454   5.612
 4798POPC   GL261898   9.020  35.186   5.837
 4798POPC   C1A61899   9.284  35.504   6.110
 4798POPC   D2A61900   9.247  35.245   6.503
 4798POPC   C3A61901   9.242  35.485   6.879
 4798POPC   C4A61902   9.283  35.440   7.311
 4798POPC   C1B61903   8.776  35.159   6.283
 4798POPC   C2B61904   8.599  35.102   6.736
 4798POPC   C3B61905   8.622  34.904   7.172
 4798POPC   C4B61906   8.725  34.896   7.659
 4799POPC   NC361907   7.228  23.115   5.434
 4799POPC   PO461908   7.763  22.742   5.333
 4799POPC   GL161909   7.642  22.880   5.733
 4799POPC   GL261910   7.737  23.231   5.780
 4799POPC   C1A61911   7.582  22.801   6.202
 4799POPC   D2A61912   7.697  22.843   6.673
 4799POPC   C3A61913   7.364  22.886   6.987
 4799POPC   C4A61914   7.123  22.595   7.206
 4799POPC   C1B61915   7.588  23.322   6.243
 4799POPC   C2B61916   7.524  23.336   6.739
 4799POPC   C3B61917   7.655  23.229   7.227
 4799POPC   C4B61918   7.608  23.292   7.714
 4800POPC   NC361919  38.276   5.610   5.213
 4800POPC   PO461920  38.862   5.893   5.196
 4800POPC   GL161921  38.756   5.850   5.656
 4800POPC   GL261922  38.384   5.826   5.730
 4800POPC   C1A61923  38.731   5.991   6.113
 4800POPC   D2A61924  38.428   5.923   6.470
 4800POPC   C3A61925  38.584   5.812   6.897
 4800POPC   C4A61926  38.490   5.595   7.307
 4800POPC   C1B61927  38.240   6.177   6.036
 4800POPC   C2B61928  38.019   6.293   6.434
 4800POPC   C3B61929  38.172   6.189   6.843
 4800POPC   C4B61930  38.427   6.174   7.219
 4801POPC   NC361931  12.421  11.828   5.505
 4801POPC   PO461932  11.736  12.003   5.488
 4801POPC   GL161933  12.043  12.034   5.844
 4801POPC   GL261934  12.159  12.358   5.790
 4801POPC   C1A61935  12.175  12.115   6.288
 4801POPC   D2A61936  12.338  12.274   6.711
 4801POPC   C3A61937  12.280  11.973   7.052
 4801POPC   C4A61938  11.893  11.799   7.183
 4801POPC   C1B61939  11.759  12.408   6.088
 4801POPC   C2B61940  11.485  12.483   6.456
 4801POPC   C3B61941  11.577  12.513   6.904
 4801POPC   C4B61942  11.911  12.314   7.094
 4802POPC   NC361943  15.905  38.774   5.524
 4802POPC   PO461944  16.284  38.163   5.425
 4802POPC   GL161945  16.215  38.435   5.789
 4802POPC   GL261946  16.510  38.580   5.867
 4802POPC   C1A61947  16.081  38.662   6.186
 4802POPC   D2A61948  15.767  38.547   6.477
 4802POPC   C3A61949  15.923  38.594   6.871
 4802POPC   C4A61950  15.701  38.860   7.101
 4802POPC   C1B61951  16.471  38.320   6.230
 4802POPC   C2B61952  16.284  38.301   6.638
 4802POPC   C3B61953  16.448  38.420   7.017
 4802POPC   C4B61954  16.239  38.599   7.320
 4803POPC   NC361955   9.263  11.659   5.281
 4803POPC   PO461956   8.722  11.220   5.259
 4803POPC   GL161957   8.951  11.301   5.684
 4803POPC   GL261958   9.340  11.327   5.672
 4803POPC   C1A61959   8.876  11.283   6.166
 4803POPC   D2A61960   8.800  11.594   6.526
 4803POPC   C3A61961   8.871  11.538   6.968
 4803POPC   C4A61962   8.959  11.576   7.426
 4803POPC   C1B61963   9.389  11.436   6.112
 4803POPC   C2B61964   9.276  11.307   6.542
 4803POPC   C3B61965   9.364  11.522   6.907
 4803POPC   C4B61966   9.458  11.502   7.323
 4804POPC   NC361967   2.647  14.716   5.663
 4804POPC   PO461968   2.333  15.293   5.350
 4804POPC   GL161969   2.567  15.234   5.772
 4804POPC   GL261970   2.917  15.112   5.822
 4804POPC   C1A61971   2.539  15.094   6.218
 4804POPC   D2A61972   2.484  14.965   6.652
 4804POPC   C3A61973   2.571  15.195   7.046
 4804POPC   C4A61974   2.713  15.180   7.500
 4804POPC   C1B61975   3.062  15.039   6.260
 4804POPC   C2B61976   2.986  14.873   6.707
 4804POPC   C3B61977   3.051  15.027   7.103
 4804POPC   C4B61978   2.967  15.472   7.190
 4805POPC   NC361979  28.827   0.932   5.419
 4805POPC   PO461980  28.167   1.109   5.519
 4805POPC   GL161981  28.397   1.210   5.814
 4805POPC   GL261982  28.238   1.509   5.854
 4805POPC   C1A61983  28.371   1.144   6.219
 4805POPC   D2A61984  28.643   1.262   6.506
 4805POPC   C3A61985  28.626   1.014   6.846
 4805POPC   C4A61986  28.511   0.968   7.280
 4805POPC   C1B61987  28.197   1.632   6.268
 4805POPC   C2B61988  28.119   1.386   6.611
 4805POPC   C3B61989  28.139   1.150   6.947
 4805POPC   C4B61990  28.095   1.284   7.341
 4806POPC   NC361991   4.245   7.354   5.453
 4806POPC   PO461992   4.535   7.920   5.435
 4806POPC   GL161993   4.469   7.686   5.798
 4806POPC   GL261994   4.120   7.660   5.841
 4806POPC   C1A61995   4.464   7.358   6.127
 4806POPC   D2A61996   4.382   7.398   6.575
 4806POPC   C3A61997   4.264   7.163   6.920
 4806POPC   C4A61998   4.402   7.272   7.344
 4806POPC   C1B61999   4.135   7.709   6.271
 4806POPC   C2B62000   3.955   7.717   6.677
 4806POPC   C3B62001   4.016   7.560   7.092
 4806POPC   C4B62002   3.998   7.485   7.543
 4807POPC   NC362003  21.862   6.738   5.420
 4807POPC   PO462004  21.284   7.153   5.528
 4807POPC   GL162005  21.394   6.910   5.885
 4807POPC   GL262006  21.683   6.679   5.888
 4807POPC   C1A62007  21.311   6.687   6.277
 4807POPC   D2A62008  21.285   6.298   6.546
 4807POPC   C3A62009  21.152   6.402   6.967
 4807POPC   C4A62010  21.196   6.802   7.147
 4807POPC   C1B62011  21.692   6.338   6.186
 4807POPC   C2B62012  21.866   6.237   6.605
 4807POPC   C3B62013  21.766   6.501   6.924
 4807POPC   C4B62014  21.621   6.576   7.312
 4808POPC   NC362015   0.867  19.199   5.524
 4808POPC   PO462016   0.347  18.896   5.209
 4808POPC   GL162017   0.327  19.068   5.689
 4808POPC   GL262018   0.558  19.305   5.888
 4808POPC   C1A62019   0.215  19.033   6.176
 4808POPC   D2A62020   0.025  19.020   6.599
 4808POPC   C3A62021   0.253  18.970   7.012
 4808POPC   C4A62022   0.017  19.015   7.414
 4808POPC   C1B62023   0.558  19.399   6.307
 4808POPC   C2B62024   0.621  19.115   6.594
 4808POPC   C3B62025   0.795  19.169   6.949
 4808POPC   C4B62026   0.621  19.434   7.196
 4809POPC   NC362027  43.992   8.101   5.513
 4809POPC   PO462028  43.345   8.122   5.627
 4809POPC   GL162029  43.674   8.241   5.962
 4809POPC   GL262030  44.047   8.347   5.960
 4809POPC   C1A62031  43.832   8.172   6.393
 4809POPC   D2A62032  44.002   8.382   6.742
 4809POPC   C3A62033  43.720   8.404   7.054
 4809POPC   C4A62034  43.738   7.971   7.215
 4809POPC   C1B62035  44.244   7.982   6.165
 4809POPC   C2B62036  44.350   7.969   6.607
 4809POPC   C3B62037  44.256   7.978   7.032
 4809POPC   C4B62038  44.154   8.330   7.269
 4810POPC   NC362039  20.123  15.388   5.661
 4810POPC   PO462040  20.664  15.273   5.138
 4810POPC   GL162041  20.703  15.175   5.623
 4810POPC   GL262042  20.426  14.946   5.705
 4810POPC   C1A62043  20.648  15.313   6.110
 4810POPC   D2A62044  20.781  15.199   6.557
 4810POPC   C3A62045  20.596  15.357   6.951
 4810POPC   C4A62046  20.842  15.345   7.333
 4810POPC   C1B62047  20.304  14.938   6.118
 4810POPC   C2B62048  20.373  14.893   6.541
 4810POPC   C3B62049  20.343  14.892   6.981
 4810POPC   C4B62050  20.571  14.859   7.355
 4811POPC   NC362051  18.654  12.828   5.050
 4811POPC   PO462052  18.501  12.794   5.685
 4811POPC   GL162053  18.375  13.074   5.971
 4811POPC   GL262054  18.360  12.839   6.209
 4811POPC   C1A62055  18.218  13.332   6.328
 4811POPC   D2A62056  18.009  13.274   6.700
 4811POPC   C3A62057  18.220  12.923   6.888
 4811POPC   C4A62058  18.302  13.044   7.309
 4811POPC   C1B62059  18.027  12.566   6.233
 4811POPC   C2B62060  17.982  12.540   6.613
 4811POPC   C3B62061  17.955  12.405   6.992
 4811POPC   C4B62062  17.880  12.391   7.378
 4812POPC   NC362063  21.122  27.966   5.578
 4812POPC   PO462064  21.172  27.336   5.330
 4812POPC   GL162065  21.436  27.497   5.713
 4812POPC   GL262066  21.460  27.817   5.911
 4812POPC   C1A62067  21.318  27.393   6.152
 4812POPC   D2A62068  21.435  27.600   6.533
 4812POPC   C3A62069  21.549  27.498   6.928
 4812POPC   C4A62070  21.354  27.437   7.288
 4812POPC   C1B62071  21.125  27.852   6.220
 4812POPC   C2B62072  21.071  27.950   6.656
 4812POPC   C3B62073  21.248  27.893   7.079
 4812POPC   C4B62074  21.595  27.916   7.343
 4813POPC   NC362075  15.375  37.194   5.269
 4813POPC   PO462076  15.088  37.841   5.344
 4813POPC   GL162077  15.261  37.691   5.753
 4813POPC   GL262078  14.986  37.633   6.016
 4813POPC   C1A62079  15.447  37.810   6.148
 4813POPC   D2A62080  15.219  37.686   6.528
 4813POPC   C3A62081  15.394  37.830   6.891
 4813POPC   C4A62082  15.218  37.982   7.228
 4813POPC   C1B62083  15.264  37.304   6.171
 4813POPC   C2B62084  15.228  37.163   6.590
 4813POPC   C3B62085  14.983  37.409   6.911
 4813POPC   C4B62086  15.015  37.545   7.348
 4814POPC   NC362087  21.200  21.957   5.381
 4814POPC   PO462088  21.759  22.291   5.354
 4814POPC   GL162089  21.605  22.348   5.804
 4814POPC   GL262090  21.436  22.009   5.861
 4814POPC   C1A62091  21.527  22.291   6.285
 4814POPC   D2A62092  21.685  21.971   6.575
 4814POPC   C3A62093  21.483  22.057   6.982
 4814POPC   C4A62094  21.575  22.442   7.119
 4814POPC   C1B62095  21.100  22.303   6.010
 4814POPC   C2B62096  20.964  22.439   6.431
 4814POPC   C3B62097  21.127  22.447   6.866
 4814POPC   C4B62098  21.128  22.315   7.313
 4815POPC   NC362099  22.383  21.005   5.320
 4815POPC   PO462100  22.303  20.390   5.483
 4815POPC   GL162101  22.210  20.429   5.899
 4815POPC   GL262102  21.913  20.253   5.878
 4815POPC   C1A62103  22.250  20.599   6.336
 4815POPC   D2A62104  22.198  20.966   6.632
 4815POPC   C3A62105  22.171  20.914   7.082
 4815POPC   C4A62106  22.439  20.855   7.409
 4815POPC   C1B62107  21.795  20.408   6.243
 4815POPC   C2B62108  21.782  20.643   6.609
 4815POPC   C3B62109  21.795  20.571   7.041
 4815POPC   C4B62110  21.872  20.672   7.456
 4816POPC   NC362111  34.635  28.037   5.435
 4816POPC   PO462112  34.880  28.658   5.419
 4816POPC   GL162113  34.527  28.512   5.668
 4816POPC   GL262114  34.700  28.253   5.864
 4816POPC   C1A62115  34.404  28.598   6.082
 4816POPC   D2A62116  34.617  28.569   6.441
 4816POPC   C3A62117  34.538  28.528   6.877
 4816POPC   C4A62118  34.318  28.379   7.251
 4816POPC   C1B62119  34.612  28.096   6.235
 4816POPC   C2B62120  34.759  28.125   6.627
 4816POPC   C3B62121  34.661  28.010   7.039
 4816POPC   C4B62122  34.638  27.999   7.485
 4817POPC   NC362123  42.198   7.129   5.397
 4817POPC   PO462124  42.639   7.521   5.616
 4817POPC   GL162125  42.335   7.287   5.912
 4817POPC   GL262126  42.104   6.988   5.889
 4817POPC   C1A62127  42.369   7.339   6.378
 4817POPC   D2A62128  42.391   7.703   6.649
 4817POPC   C3A62129  42.454   7.667   7.102
 4817POPC   C4A62130  42.325   7.335   7.399
 4817POPC   C1B62131  41.913   7.110   6.235
 4817POPC   C2B62132  41.898   7.433   6.529
 4817POPC   C3B62133  42.071   7.388   6.911
 4817POPC   C4B62134  41.949   7.019   7.088
 4818POPC   NC362135   3.076  25.109   5.448
 4818POPC   PO462136   2.406  25.279   5.484
 4818POPC   GL162137   2.675  25.134   5.835
 4818POPC   GL262138   2.918  25.414   5.842
 4818POPC   C1A62139   2.541  25.101   6.301
 4818POPC   D2A62140   2.335  25.323   6.658
 4818POPC   C3A62141   2.656  25.318   6.974
 4818POPC   C4A62142   2.733  25.338   7.399
 4818POPC   C1B62143   3.055  25.323   6.289
 4818POPC   C2B62144   3.121  25.375   6.760
 4818POPC   C3B62145   3.128  25.121   7.167
 4818POPC   C4B62146   3.162  25.291   7.655
 4819POPC   NC362147  42.078  27.763   5.089
 4819POPC   PO462148  41.426  27.751   5.423
 4819POPC   GL162149  41.594  27.583   5.851
 4819POPC   GL262150  41.321  27.346   5.844
 4819POPC   C1A62151  41.715  27.634   6.343
 4819POPC   D2A62152  41.469  27.727   6.729
 4819POPC   C3A62153  41.614  27.731   7.169
 4819POPC   C4A62154  41.972  27.753   7.485
 4819POPC   C1B62155  41.263  27.440   6.280
 4819POPC   C2B62156  41.333  27.217   6.652
 4819POPC   C3B62157  41.306  27.333   7.078
 4819POPC   C4B62158  41.086  27.618   7.375
 4820POPC   NC362159  12.628  37.141   5.524
 4820POPC   PO462160  13.095  36.654   5.376
 4820POPC   GL162161  13.009  36.817   5.776
 4820POPC   GL262162  12.789  36.603   5.911
 4820POPC   C1A62163  13.126  36.821   6.227
 4820POPC   D2A62164  13.069  37.139   6.537
 4820POPC   C3A62165  13.156  36.969   6.920
 4820POPC   C4A62166  13.082  37.021   7.342
 4820POPC   C1B62167  12.645  36.704   6.312
 4820POPC   C2B62168  12.823  36.626   6.706
 4820POPC   C3B62169  12.713  36.723   7.128
 4820POPC   C4B62170  12.658  36.788   7.561
 4821POPC   NC362171   0.096   6.511   5.500
 4821POPC   PO462172   0.712   6.669   5.473
 4821POPC   GL162173   0.525   6.494   5.851
 4821POPC   GL262174   0.209   6.323   5.947
 4821POPC   C1A62175   0.452   6.688   6.242
 4821POPC   D2A62176   0.624   6.657   6.656
 4821POPC   C3A62177   0.408   6.863   7.000
 4821POPC   C4A62178   0.696   6.703   7.224
 4821POPC   C1B62179   0.399   6.172   6.288
 4821POPC   C2B62180   0.310   6.225   6.678
 4821POPC   C3B62181   0.451   6.277   7.056
 4821POPC   C4B62182   0.205   6.485   7.281
 4822POPC   NC362183  22.868  11.608   5.455
 4822POPC   PO462184  22.782  12.269   5.338
 4822POPC   GL162185  22.810  12.047   5.765
 4822POPC   GL262186  22.506  11.856   5.909
 4822POPC   C1A62187  23.062  12.045   6.176
 4822POPC   D2A62188  23.193  12.041   6.624
 4822POPC   C3A62189  22.825  12.136   6.874
 4822POPC   C4A62190  22.761  12.395   7.234
 4822POPC   C1B62191  22.605  11.839   6.336
 4822POPC   C2B62192  22.941  11.605   6.525
 4822POPC   C3B62193  23.027  11.662   6.970
 4822POPC   C4B62194  22.670  11.782   7.230
 4823POPC   NC362195   6.274  34.370   5.310
 4823POPC   PO462196   5.595  34.279   5.385
 4823POPC   GL162197   5.740  34.571   5.732
 4823POPC   GL262198   6.113  34.628   5.763
 4823POPC   C1A62199   5.872  34.424   6.152
 4823POPC   D2A62200   6.010  34.353   6.553
 4823POPC   C3A62201   5.724  34.453   6.859
 4823POPC   C4A62202   5.764  34.476   7.274
 4823POPC   C1B62203   6.169  34.834   6.234
 4823POPC   C2B62204   6.116  34.854   6.730
 4823POPC   C3B62205   6.267  34.630   7.109
 4823POPC   C4B62206   6.137  34.625   7.578
 4824POPC   NC362207  20.879   2.475   5.343
 4824POPC   PO462208  20.528   3.061   5.424
 4824POPC   GL162209  20.644   3.016   5.836
 4824POPC   GL262210  20.954   3.073   5.743
 4824POPC   C1A62211  20.593   2.800   6.248
 4824POPC   D2A62212  20.423   2.587   6.637
 4824POPC   C3A62213  20.304   2.810   7.027
 4824POPC   C4A62214  20.401   2.771   7.470
 4824POPC   C1B62215  20.976   3.169   6.198
 4824POPC   C2B62216  20.854   3.058   6.621
 4824POPC   C3B62217  20.772   3.022   7.055
 4824POPC   C4B62218  20.922   2.941   7.471
 4825POPC   NC362219  13.462  31.173   5.506
 4825POPC   PO462220  13.533  30.470   5.493
 4825POPC   GL162221  13.807  30.773   5.697
 4825POPC   GL262222  13.529  30.853   5.891
 4825POPC   C1A62223  13.964  30.830   6.131
 4825POPC   D2A62224  13.973  30.607   6.527
 4825POPC   C3A62225  13.810  30.704   6.944
 4825POPC   C4A62226  13.703  30.446   7.276
 4825POPC   C1B62227  13.383  30.511   6.161
 4825POPC   C2B62228  13.496  30.394   6.586
 4825POPC   C3B62229  13.291  30.507   6.968
 4825POPC   C4B62230  13.116  30.433   7.379
 4826POPC   NC362231  36.916  39.241   5.243
 4826POPC   PO462232  36.283  39.451   5.576
 4826POPC   GL162233  36.663  39.342   5.817
 4826POPC   GL262234  36.933  39.594   5.699
 4826POPC   C1A62235  36.775  39.161   6.260
 4826POPC   D2A62236  36.684  39.326   6.721
 4826POPC   C3A62237  36.830  39.061   7.083
 4826POPC   C4A62238  36.785  38.876   7.511
 4826POPC   C1B62239  37.013  39.611   6.151
 4826POPC   C2B62240  37.176  39.371   6.516
 4826POPC   C3B62241  37.159  39.447   6.939
 4826POPC   C4B62242  36.883  39.708   7.119
 4827POPC   NC362243  14.726   5.825   5.567
 4827POPC   PO462244  14.210   5.417   5.582
 4827POPC   GL162245  14.264   5.817   5.781
 4827POPC   GL262246  14.060   5.711   5.983
 4827POPC   C1A62247  14.428   5.982   6.193
 4827POPC   D2A62248  14.371   6.149   6.580
 4827POPC   C3A62249  14.554   5.960   6.904
 4827POPC   C4A62250  14.391   6.004   7.263
 4827POPC   C1B62251  14.274   5.483   6.293
 4827POPC   C2B62252  14.291   5.550   6.719
 4827POPC   C3B62253  14.349   5.502   7.140
 4827POPC   C4B62254  14.059   5.671   7.451
 4828POPC   NC362255   2.659  27.400   5.380
 4828POPC   PO462256   3.198  27.773   5.513
 4828POPC   GL162257   2.917  27.643   5.878
 4828POPC   GL262258   2.767  27.307   5.888
 4828POPC   C1A62259   2.823  27.858   6.284
 4828POPC   D2A62260   2.695  27.727   6.703
 4828POPC   C3A62261   2.968  27.391   6.872
 4828POPC   C4A62262   3.200  27.444   7.252
 4828POPC   C1B62263   2.657  27.365   6.298
 4828POPC   C2B62264   2.443  27.194   6.618
 4828POPC   C3B62265   2.462  27.365   6.977
 4828POPC   C4B62266   2.436  27.723   7.235
 4829POPC   NC362267   3.756  44.223   5.308
 4829POPC   PO462268   3.522  44.950   5.287
 4829POPC   GL162269   3.522  44.659   5.637
 4829POPC   GL262270   3.863  44.623   5.718
 4829POPC   C1A62271   3.495  44.616   6.105
 4829POPC   D2A62272   3.431  44.438   6.537
 4829POPC   C3A62273   3.498  44.639   6.958
 4829POPC   C4A62274   3.386  44.420   7.366
 4829POPC   C1B62275   4.014  44.734   6.163
 4829POPC   C2B62276   3.947  44.580   6.602
 4829POPC   C3B62277   4.038  44.635   7.044
 4829POPC   C4B62278   3.904  44.438   7.401
 4830POPC   NC362279   1.601  42.374   5.704
 4830POPC   PO462280   1.031  42.674   5.362
 4830POPC   GL162281   1.108  42.552   5.781
 4830POPC   GL262282   1.114  42.192   5.757
 4830POPC   C1A62283   1.164  42.598   6.244
 4830POPC   D2A62284   1.406  42.398   6.606
 4830POPC   C3A62285   1.265  42.359   7.073
 4830POPC   C4A62286   1.072  42.401   7.487
 4830POPC   C1B62287   1.088  41.982   6.161
 4830POPC   C2B62288   1.182  41.951   6.606
 4830POPC   C3B62289   0.920  42.009   6.951
 4830POPC   C4B62290   0.938  41.909   7.393
 4831POPC   NC362291  16.000  30.874   5.495
 4831POPC   PO462292  15.702  30.354   5.663
 4831POPC   GL162293  15.965  30.566   5.957
 4831POPC   GL262294  15.893  30.898   5.979
 4831POPC   C1A62295  16.139  30.792   6.382
 4831POPC   D2A62296  16.111  31.090   6.733
 4831POPC   C3A62297  16.248  30.864   7.110
 4831POPC   C4A62298  16.255  30.401   7.134
 4831POPC   C1B62299  15.624  30.656   6.308
 4831POPC   C2B62300  15.510  30.699   6.729
 4831POPC   C3B62301  15.749  30.688   7.081
 4831POPC   C4B62302  15.766  30.299   7.298
 4832POPC   NC362303   7.722  36.977   5.421
 4832POPC   PO462304   7.314  36.409   5.325
 4832POPC   GL162305   7.324  36.654   5.703
 4832POPC   GL262306   7.623  36.565   5.871
 4832POPC   C1A62307   7.337  36.936   6.073
 4832POPC   D2A62308   7.444  36.919   6.532
 4832POPC   C3A62309   7.295  36.818   6.949
 4832POPC   C4A62310   7.612  36.850   7.246
 4832POPC   C1B62311   7.788  36.635   6.286
 4832POPC   C2B62312   7.743  36.533   6.758
 4832POPC   C3B62313   7.884  36.412   7.205
 4832POPC   C4B62314   7.822  36.582   7.638
 4833POPC   NC362315  26.367  10.851   5.502
 4833POPC   PO462316  27.010  10.864   5.412
 4833POPC   GL162317  26.939  10.507   5.712
 4833POPC   GL262318  26.569  10.460   5.792
 4833POPC   C1A62319  26.888  10.475   6.192
 4833POPC   D2A62320  27.003  10.256   6.574
 4833POPC   C3A62321  27.010  10.516   6.927
 4833POPC   C4A62322  26.892  10.429   7.335
 4833POPC   C1B62323  26.379  10.573   6.224
 4833POPC   C2B62324  26.558  10.594   6.655
 4833POPC   C3B62325  26.586  10.760   7.098
 4833POPC   C4B62326  26.539  10.737   7.577
 4834POPC   NC362327  36.618  26.483   5.437
 4834POPC   PO462328  36.863  27.125   5.295
 4834POPC   GL162329  36.659  26.967   5.677
 4834POPC   GL262330  36.909  26.738   5.810
 4834POPC   C1A62331  36.567  27.004   6.144
 4834POPC   D2A62332  36.612  27.185   6.588
 4834POPC   C3A62333  36.793  26.934   6.956
 4834POPC   C4A62334  36.754  26.904   7.413
 4834POPC   C1B62335  36.783  26.520   6.208
 4834POPC   C2B62336  36.821  26.265   6.621
 4834POPC   C3B62337  37.150  26.361   6.930
 4834POPC   C4B62338  37.178  26.671   7.259
 4835POPC   NC362339  43.323  14.047   5.509
 4835POPC   PO462340  42.901  14.566   5.345
 4835POPC   GL162341  42.981  14.711   5.758
 4835POPC   GL262342  43.039  14.372   5.893
 4835POPC   C1A62343  42.798  14.695   6.186
 4835POPC   D2A62344  42.855  14.405   6.525
 4835POPC   C3A62345  42.914  14.500   6.941
 4835POPC   C4A62346  43.100  14.811   7.133
 4835POPC   C1B62347  43.277  14.278   6.286
 4835POPC   C2B62348  43.278  14.197   6.739
 4835POPC   C3B62349  43.409  14.401   7.103
 4835POPC   C4B62350  43.624  14.740   7.273
 4836POPC   NC362351  24.001  19.005   5.512
 4836POPC   PO462352  24.585  19.247   5.117
 4836POPC   GL162353  24.467  19.177   5.585
 4836POPC   GL262354  24.523  19.487   5.756
 4836POPC   C1A62355  24.418  18.995   6.041
 4836POPC   D2A62356  24.211  19.143   6.454
 4836POPC   C3A62357  24.332  19.017   6.901
 4836POPC   C4A62358  24.336  18.633   7.202
 4836POPC   C1B62359  24.627  19.453   6.202
 4836POPC   C2B62360  24.730  19.230   6.571
 4836POPC   C3B62361  24.773  19.319   6.993
 4836POPC   C4B62362  24.592  19.185   7.355
 4837POPC   NC362363   5.822  27.826   5.233
 4837POPC   PO462364   5.592  27.196   5.509
 4837POPC   GL162365   5.906  27.457   5.765
 4837POPC   GL262366   5.850  27.825   5.757
 4837POPC   C1A62367   6.110  27.443   6.195
 4837POPC   D2A62368   6.302  27.586   6.594
 4837POPC   C3A62369   6.147  27.436   7.006
 4837POPC   C4A62370   5.969  27.570   7.429
 4837POPC   C1B62371   5.633  27.634   6.159
 4837POPC   C2B62372   5.766  27.564   6.587
 4837POPC   C3B62373   5.635  27.464   6.997
 4837POPC   C4B62374   5.476  27.699   7.302
 4838POPC   NC362375   1.241  21.951   5.420
 4838POPC   PO462376   1.723  22.418   5.370
 4838POPC   GL162377   1.452  22.338   5.725
 4838POPC   GL262378   1.080  22.404   5.690
 4838POPC   C1A62379   1.307  22.139   6.092
 4838POPC   D2A62380   1.178  22.310   6.476
 4838POPC   C3A62381   1.258  22.116   6.853
 4838POPC   C4A62382   1.306  22.317   7.230
 4838POPC   C1B62383   0.986  22.613   6.099
 4838POPC   C2B62384   0.772  22.599   6.502
 4838POPC   C3B62385   0.927  22.538   6.921
 4838POPC   C4B62386   0.844  22.492   7.358
 4839POPC   NC362387  31.520  22.178   5.274
 4839POPC   PO462388  31.784  22.802   5.468
 4839POPC   GL162389  31.631  22.382   5.747
 4839POPC   GL262390  31.439  22.010   5.767
 4839POPC   C1A62391  31.420  22.347   6.165
 4839POPC   D2A62392  31.370  22.603   6.549
 4839POPC   C3A62393  31.349  22.458   6.972
 4839POPC   C4A62394  31.721  22.373   7.255
 4839POPC   C1B62395  31.307  21.854   6.214
 4839POPC   C2B62396  31.326  22.065   6.608
 4839POPC   C3B62397  31.484  21.967   7.023
 4839POPC   C4B62398  31.270  21.764   7.353
 4840POPC   NC362399   9.597  16.272   5.453
 4840POPC   PO462400   9.720  16.888   5.363
 4840POPC   GL162401   9.796  16.793   5.800
 4840POPC   GL262402  10.084  16.547   5.877
 4840POPC   C1A62403   9.566  16.935   6.201
 4840POPC   D2A62404   9.557  17.181   6.589
 4840POPC   C3A62405   9.540  16.954   6.965
 4840POPC   C4A62406   9.668  16.543   7.066
 4840POPC   C1B62407  10.061  16.823   6.245
 4840POPC   C2B62408   9.912  16.795   6.659
 4840POPC   C3B62409  10.128  16.739   7.046
 4840POPC   C4B62410  10.236  16.347   7.188
 4841POPC   NC362411   6.271  29.598   5.347
 4841POPC   PO462412   5.673  29.966   5.172
 4841POPC   GL162413   5.872  29.928   5.585
 4841POPC   GL262414   5.759  30.213   5.800
 4841POPC   C1A62415   5.848  29.784   6.058
 4841POPC   D2A62416   5.536  29.674   6.422
 4841POPC   C3A62417   5.717  29.674   6.858
 4841POPC   C4A62418   5.953  29.908   7.179
 4841POPC   C1B62419   5.551  30.204   6.225
 4841POPC   C2B62420   5.601  30.418   6.651
 4841POPC   C3B62421   5.552  30.207   7.076
 4841POPC   C4B62422   5.610  30.090   7.528
 4842POPC   NC362423  23.206  10.735   5.101
 4842POPC   PO462424  22.604  10.591   5.435
 4842POPC   GL162425  22.752  10.474   5.808
 4842POPC   GL262426  23.073  10.497   5.684
 4842POPC   C1A62427  22.701  10.368   6.229
 4842POPC   D2A62428  22.991  10.445   6.564
 4842POPC   C3A62429  22.812  10.325   6.930
 4842POPC   C4A62430  23.020  10.425   7.293
 4842POPC   C1B62431  23.134  10.665   6.114
 4842POPC   C2B62432  23.325  10.847   6.499
 4842POPC   C3B62433  23.261  10.719   6.923
 4842POPC   C4B62434  23.404  10.770   7.331
 4843POPC   NC362435  19.469   6.690   5.382
 4843POPC   PO462436  18.739   6.639   5.436
 4843POPC   GL162437  18.895   6.777   5.820
 4843POPC   GL262438  19.230   6.874   5.787
 4843POPC   C1A62439  19.003   6.766   6.228
 4843POPC   D2A62440  19.210   6.659   6.578
 4843POPC   C3A62441  19.011   6.615   6.962
 4843POPC   C4A62442  18.970   6.479   7.380
 4843POPC   C1B62443  19.500   6.901   6.133
 4843POPC   C2B62444  19.526   7.060   6.543
 4843POPC   C3B62445  19.264   7.085   6.890
 4843POPC   C4B62446  19.299   6.878   7.287
 4844POPC   NC362447  28.874  37.168   5.431
 4844POPC   PO462448  29.521  37.098   5.586
 4844POPC   GL162449  29.591  36.953   5.997
 4844POPC   GL262450  29.462  36.637   6.109
 4844POPC   C1A62451  29.514  37.070   6.438
 4844POPC   D2A62452  29.162  37.216   6.678
 4844POPC   C3A62453  29.083  37.089   7.074
 4844POPC   C4A62454  28.965  36.817   7.348
 4844POPC   C1B62455  29.096  36.785   6.373
 4844POPC   C2B62456  28.984  36.690   6.801
 4844POPC   C3B62457  29.013  36.346   7.086
 4844POPC   C4B62458  29.033  36.214   7.528
 4845POPC   NC362459  34.334  21.697   5.430
 4845POPC   PO462460  34.965  21.786   5.771
 4845POPC   GL162461  34.631  21.496   5.872
 4845POPC   GL262462  34.552  21.222   5.629
 4845POPC   C1A62463  34.459  21.445   6.291
 4845POPC   D2A62464  34.497  21.659   6.692
 4845POPC   C3A62465  34.578  21.397   7.061
 4845POPC   C4A62466  34.494  21.534   7.501
 4845POPC   C1B62467  34.455  20.996   6.015
 4845POPC   C2B62468  34.449  20.925   6.458
 4845POPC   C3B62469  34.355  20.940   6.892
 4845POPC   C4B62470  34.679  20.889   7.190
 4846POPC   NC362471  22.342  41.940   5.329
 4846POPC   PO462472  22.050  41.471   5.264
 4846POPC   GL162473  22.086  41.481   5.758
 4846POPC   GL262474  22.407  41.660   5.848
 4846POPC   C1A62475  22.013  41.432   6.255
 4846POPC   D2A62476  22.112  41.393   6.726
 4846POPC   C3A62477  21.976  41.387   7.176
 4846POPC   C4A62478  21.875  41.077   7.501
 4846POPC   C1B62479  22.382  41.787   6.302
 4846POPC   C2B62480  22.083  41.897   6.674
 4846POPC   C3B62481  22.034  41.901   7.149
 4846POPC   C4B62482  22.248  41.798   7.567
 4847POPC   NC362483  31.651  38.013   5.537
 4847POPC   PO462484  31.596  38.673   5.424
 4847POPC   GL162485  31.668  38.509   5.801
 4847POPC   GL262486  31.482  38.225   5.975
 4847POPC   C1A62487  31.608  38.676   6.204
 4847POPC   D2A62488  31.722  38.423   6.521
 4847POPC   C3A62489  31.771  38.595   6.913
 4847POPC   C4A62490  31.680  38.286   7.171
 4847POPC   C1B62491  31.141  38.184   6.295
 4847POPC   C2B62492  30.919  37.899   6.577
 4847POPC   C3B62493  30.880  38.102   6.970
 4847POPC   C4B62494  31.176  38.399   7.146
 4848POPC   NC362495  18.394  17.676   5.434
 4848POPC   PO462496  18.523  17.091   5.759
 4848POPC   GL162497  18.366  17.456   5.899
 4848POPC   GL262498  18.665  17.696   5.875
 4848POPC   C1A62499  18.023  17.570   6.190
 4848POPC   D2A62500  17.854  17.567   6.600
 4848POPC   C3A62501  18.162  17.492   6.898
 4848POPC   C4A62502  18.034  17.479   7.254
 4848POPC   C1B62503  18.467  17.834   6.231
 4848POPC   C2B62504  18.286  17.873   6.583
 4848POPC   C3B62505  18.309  18.006   6.961
 4848POPC   C4B62506  18.422  17.818   7.299
 4849POPC   NC362507  15.437  24.700   5.102
 4849POPC   PO462508  16.017  24.691   5.467
 4849POPC   GL162509  16.044  24.751   5.886
 4849POPC   GL262510  15.819  24.484   5.972
 4849POPC   C1A62511  16.072  24.718   6.350
 4849POPC   D2A62512  16.118  24.546   6.775
 4849POPC   C3A62513  15.975  24.838   7.079
 4849POPC   C4A62514  15.904  25.040   7.470
 4849POPC   C1B62515  15.790  24.295   6.389
 4849POPC   C2B62516  15.796  24.068   6.783
 4849POPC   C3B62517  15.910  24.095   7.221
 4849POPC   C4B62518  16.005  24.031   7.677
 4850POPC   NC362519  13.446  34.791   5.302
 4850POPC   PO462520  13.932  34.269   5.465
 4850POPC   GL162521  13.734  34.572   5.731
 4850POPC   GL262522  13.869  34.306   5.978
 4850POPC   C1A62523  13.506  34.622   6.127
 4850POPC   D2A62524  13.323  34.799   6.486
 4850POPC   C3A62525  13.367  34.600   6.843
 4850POPC   C4A62526  13.622  34.685   7.173
 4850POPC   C1B62527  13.744  34.195   6.396
 4850POPC   C2B62528  13.666  34.176   6.862
 4850POPC   C3B62529  13.873  34.185   7.280
 4850POPC   C4B62530  14.149  34.139   7.679
 4851POPC   NC362531  31.211  40.542   5.388
 4851POPC   PO462532  31.553  41.028   5.114
 4851POPC   GL162533  31.382  40.985   5.631
 4851POPC   GL262534  31.311  40.652   5.870
 4851POPC   C1A62535  31.418  41.071   6.124
 4851POPC   D2A62536  31.415  40.871   6.562
 4851POPC   C3A62537  31.541  40.984   7.006
 4851POPC   C4A62538  31.356  40.942   7.434
 4851POPC   C1B62539  31.665  40.570   6.173
 4851POPC   C2B62540  31.835  40.576   6.621
 4851POPC   C3B62541  31.613  40.481   6.983
 4851POPC   C4B62542  31.234  40.536   7.150
 4852POPC   NC362543  29.485  20.810   5.465
 4852POPC   PO462544  30.146  20.637   5.359
 4852POPC   GL162545  30.191  20.418   5.740
 4852POPC   GL262546  29.840  20.398   5.751
 4852POPC   C1A62547  30.194  20.296   6.180
 4852POPC   D2A62548  30.070  20.575   6.521
 4852POPC   C3A62549  30.112  20.513   6.967
 4852POPC   C4A62550  30.081  20.887   7.219
 4852POPC   C1B62551  29.672  20.602   6.119
 4852POPC   C2B62552  29.501  20.505   6.536
 4852POPC   C3B62553  29.621  20.714   6.924
 4852POPC   C4B62554  29.724  20.544   7.318
 4853POPC   NC362555  12.338   3.887   5.490
 4853POPC   PO462556  12.044   3.305   5.486
 4853POPC   GL162557  11.888   3.598   5.744
 4853POPC   GL262558  12.174   3.629   5.885
 4853POPC   C1A62559  11.787   3.681   6.194
 4853POPC   D2A62560  11.650   3.527   6.608
 4853POPC   C3A62561  11.694   3.779   6.962
 4853POPC   C4A62562  11.868   3.794   7.346
 4853POPC   C1B62563  12.305   3.503   6.251
 4853POPC   C2B62564  12.480   3.675   6.577
 4853POPC   C3B62565  12.448   3.525   6.977
 4853POPC   C4B62566  12.077   3.354   7.152
 4854POPC   NC362567  10.139   5.179   5.244
 4854POPC   PO462568  10.813   5.305   5.335
 4854POPC   GL162569  10.606   5.129   5.707
 4854POPC   GL262570  10.291   5.013   5.792
 4854POPC   C1A62571  10.576   5.246   6.150
 4854POPC   D2A62572  10.741   5.532   6.436
 4854POPC   C3A62573  10.622   5.397   6.825
 4854POPC   C4A62574  10.792   5.280   7.191
 4854POPC   C1B62575  10.382   4.781   6.199
 4854POPC   C2B62576  10.346   4.913   6.640
 4854POPC   C3B62577  10.388   4.998   7.077
 4854POPC   C4B62578  10.515   5.033   7.542
 4855POPC   NC362579  32.719   6.093   4.885
 4855POPC   PO462580  32.758   6.028   5.570
 4855POPC   GL162581  33.107   5.880   5.874
 4855POPC   GL262582  32.890   5.590   5.926
 4855POPC   C1A62583  33.318   5.873   6.300
 4855POPC   D2A62584  33.056   5.968   6.647
 4855POPC   C3A62585  33.066   5.806   7.034
 4855POPC   C4A62586  33.227   5.919   7.398
 4855POPC   C1B62587  32.740   5.381   6.298
 4855POPC   C2B62588  32.774   5.478   6.739
 4855POPC   C3B62589  32.716   5.445   7.168
 4855POPC   C4B62590  32.730   5.325   7.573
 4856POPC   NC362591   6.238  10.769   5.017
 4856POPC   PO462592   5.937  10.284   5.250
 4856POPC   GL162593   5.794  10.630   5.760
 4856POPC   GL262594   5.472  10.722   5.796
 4856POPC   C1A62595   5.859  10.460   6.233
 4856POPC   D2A62596   6.084  10.150   6.491
 4856POPC   C3A62597   6.050  10.407   6.826
 4856POPC   C4A62598   5.769  10.561   7.150
 4856POPC   C1B62599   5.643  10.935   6.158
 4856POPC   C2B62600   5.892  10.870   6.526
 4856POPC   C3B62601   6.017  10.934   6.920
 4856POPC   C4B62602   5.724  11.084   7.220
 4857POPC   NC362603  28.624  30.801   5.089
 4857POPC   PO462604  28.412  30.195   5.308
 4857POPC   GL162605  28.404  30.539   5.645
 4857POPC   GL262606  28.081  30.608   5.792
 4857POPC   C1A62607  28.573  30.728   6.071
 4857POPC   D2A62608  28.640  30.692   6.540
 4857POPC   C3A62609  28.456  30.866   6.948
 4857POPC   C4A62610  28.470  31.198   7.280
 4857POPC   C1B62611  28.169  30.513   6.262
 4857POPC   C2B62612  28.145  30.501   6.716
 4857POPC   C3B62613  28.166  30.443   7.145
 4857POPC   C4B62614  28.186  30.788   7.397
 4858POPC   NC362615  25.072  28.590   5.371
 4858POPC   PO462616  25.581  28.126   5.409
 4858POPC   GL162617  25.202  28.159   5.668
 4858POPC   GL262618  25.251  28.509   5.837
 4858POPC   C1A62619  25.063  28.108   6.110
 4858POPC   D2A62620  25.261  28.272   6.478
 4858POPC   C3A62621  25.100  28.278   6.879
 4858POPC   C4A62622  25.265  28.171   7.251
 4858POPC   C1B62623  24.975  28.611   6.172
 4858POPC   C2B62624  24.798  28.540   6.570
 4858POPC   C3B62625  24.887  28.708   7.024
 4858POPC   C4B62626  25.091  28.643   7.426
 4859POPC   NC362627  16.979  23.133   5.544
 4859POPC   PO462628  17.496  22.824   5.604
 4859POPC   GL162629  17.321  23.048   5.981
 4859POPC   GL262630  16.933  22.978   6.022
 4859POPC   C1A62631  17.592  23.093   6.389
 4859POPC   D2A62632  17.815  22.833   6.714
 4859POPC   C3A62633  17.642  22.865   7.134
 4859POPC   C4A62634  17.392  22.742   7.504
 4859POPC   C1B62635  17.070  23.104   6.438
 4859POPC   C2B62636  17.270  23.026   6.827
 4859POPC   C3B62637  17.243  23.180   7.250
 4859POPC   C4B62638  17.008  23.072   7.664
 4860POPC   NC362639   5.135  39.274   5.457
 4860POPC   PO462640   4.841  39.842   5.460
 4860POPC   GL162641   4.973  39.570   5.803
 4860POPC   GL262642   5.334  39.714   5.754
 4860POPC   C1A62643   5.005  39.250   6.172
 4860POPC   D2A62644   5.277  39.097   6.531
 4860POPC   C3A62645   5.092  39.163   6.976
 4860POPC   C4A62646   4.932  39.435   7.341
 4860POPC   C1B62647   5.334  39.614   6.184
 4860POPC   C2B62648   5.115  39.575   6.603
 4860POPC   C3B62649   5.247  39.656   7.027
 4860POPC   C4B62650   5.386  39.621   7.471
 4861POPC   NC362651   8.111   8.723   5.411
 4861POPC   PO462652   7.816   8.123   5.599
 4861POPC   GL162653   8.136   8.106   5.871
 4861POPC   GL262654   8.263   8.405   5.769
 4861POPC   C1A62655   8.137   8.040   6.290
 4861POPC   D2A62656   8.020   7.720   6.572
 4861POPC   C3A62657   8.044   7.989   6.884
 4861POPC   C4A62658   8.055   8.168   7.271
 4861POPC   C1B62659   8.406   8.486   6.152
 4861POPC   C2B62660   8.541   8.435   6.551
 4861POPC   C3B62661   8.523   8.619   6.940
 4861POPC   C4B62662   8.445   8.491   7.304
 4862POPC   NC362663  13.946  17.057   5.382
 4862POPC   PO462664  13.409  16.820   5.046
 4862POPC   GL162665  13.453  16.907   5.564
 4862POPC   GL262666  13.736  16.730   5.717
 4862POPC   C1A62667  13.428  16.894   6.078
 4862POPC   D2A62668  13.505  17.029   6.529
 4862POPC   C3A62669  13.326  16.778   6.874
 4862POPC   C4A62670  13.456  16.771   7.290
 4862POPC   C1B62671  13.966  16.775   6.103
 4862POPC   C2B62672  14.018  16.922   6.520
 4862POPC   C3B62673  13.841  16.904   6.925
 4862POPC   C4B62674  13.979  16.819   7.359
 4863POPC   NC362675   9.330  24.211   5.473
 4863POPC   PO462676   8.684  24.470   5.459
 4863POPC   GL162677   8.909  24.419   5.826
 4863POPC   GL262678   9.223  24.581   5.809
 4863POPC   C1A62679   9.057  24.398   6.256
 4863POPC   D2A62680   8.968  24.630   6.627
 4863POPC   C3A62681   9.094  24.435   6.988
 4863POPC   C4A62682   8.875  24.503   7.375
 4863POPC   C1B62683   9.369  24.793   6.155
 4863POPC   C2B62684   9.484  24.663   6.549
 4863POPC   C3B62685   9.450  24.813   6.967
 4863POPC   C4B62686   9.357  24.648   7.368
 4864POPC   NC362687  39.604  13.106   5.487
 4864POPC   PO462688  39.954  12.514   5.323
 4864POPC   GL162689  39.847  12.676   5.745
 4864POPC   GL262690  39.517  12.505   5.675
 4864POPC   C1A62691  40.113  12.870   6.122
 4864POPC   D2A62692  40.360  12.907   6.510
 4864POPC   C3A62693  40.155  13.150   6.796
 4864POPC   C4A62694  39.931  12.956   7.116
 4864POPC   C1B62695  39.441  12.420   6.128
 4864POPC   C2B62696  39.573  12.221   6.549
 4864POPC   C3B62697  39.551  12.466   6.955
 4864POPC   C4B62698  39.780  12.515   7.320
 4865POPC   NC362699  41.138  41.805   4.925
 4865POPC   PO462700  41.603  41.542   5.344
 4865POPC   GL162701  41.610  41.639   5.781
 4865POPC   GL262702  41.945  41.784   5.905
 4865POPC   C1A62703  41.290  41.600   6.106
 4865POPC   D2A62704  41.281  41.351   6.455
 4865POPC   C3A62705  41.145  41.489   6.833
 4865POPC   C4A62706  41.381  41.466   7.205
 4865POPC   C1B62707  41.760  41.629   6.291
 4865POPC   C2B62708  41.673  41.608   6.711
 4865POPC   C3B62709  41.841  41.617   7.090
 4865POPC   C4B62710  41.644  41.868   7.408
 4866POPC   NC362711  32.791  34.978   5.498
 4866POPC   PO462712  33.073  35.624   5.576
 4866POPC   GL162713  33.080  35.244   5.816
 4866POPC   GL262714  33.373  35.029   5.763
 4866POPC   C1A62715  32.986  35.066   6.223
 4866POPC   D2A62716  32.996  35.349   6.571
 4866POPC   C3A62717  32.852  35.226   6.960
 4866POPC   C4A62718  32.916  35.492   7.300
 4866POPC   C1B62719  33.461  35.287   6.154
 4866POPC   C2B62720  33.502  35.220   6.614
 4866POPC   C3B62721  33.384  35.368   7.023
 4866POPC   C4B62722  33.342  35.228   7.445
 4867POPC   NC362723  27.282  36.599   5.434
 4867POPC   PO462724  27.513  37.232   5.225
 4867POPC   GL162725  27.535  37.118   5.637
 4867POPC   GL262726  27.316  37.400   5.692
 4867POPC   C1A62727  27.556  36.841   6.023
 4867POPC   D2A62728  27.557  36.991   6.446
 4867POPC   C3A62729  27.706  36.881   6.856
 4867POPC   C4A62730  27.366  36.890   7.148
 4867POPC   C1B62731  27.373  37.321   6.100
 4867POPC   C2B62732  27.360  37.502   6.509
 4867POPC   C3B62733  27.451  37.330   6.868
 4867POPC   C4B62734  27.667  37.316   7.200
 4868POPC   NC362735  32.369   4.814   5.522
 4868POPC   PO462736  31.829   5.180   5.432
 4868POPC   GL162737  32.140   5.226   5.782
 4868POPC   GL262738  32.500   5.242   5.843
 4868POPC   C1A62739  32.132   5.098   6.198
 4868POPC   D2A62740  31.868   5.047   6.537
 4868POPC   C3A62741  32.095   5.057   6.905
 4868POPC   C4A62742  32.323   5.131   7.277
 4868POPC   C1B62743  32.632   4.908   6.134
 4868POPC   C2B62744  32.409   4.805   6.517
 4868POPC   C3B62745  32.556   4.804   6.945
 4868POPC   C4B62746  32.814   4.881   7.341
 4869POPC   NC362747  23.870  18.590   5.201
 4869POPC   PO462748  23.638  19.279   5.404
 4869POPC   GL162749  23.524  19.152   5.808
 4869POPC   GL262750  23.524  18.791   5.916
 4869POPC   C1A62751  23.730  19.153   6.192
 4869POPC   D2A62752  23.640  18.923   6.523
 4869POPC   C3A62753  23.812  19.198   6.790
 4869POPC   C4A62754  23.612  19.131   7.167
 4869POPC   C1B62755  23.949  18.696   6.143
 4869POPC   C2B62756  24.066  18.650   6.589
 4869POPC   C3B62757  23.895  18.754   6.997
 4869POPC   C4B62758  23.728  18.738   7.460
 4870POPC   NC362759  22.078  35.593   5.636
 4870POPC   PO462760  22.337  35.157   5.147
 4870POPC   GL162761  22.244  35.098   5.624
 4870POPC   GL262762  21.962  35.112   5.834
 4870POPC   C1A62763  22.371  35.216   6.107
 4870POPC   D2A62764  22.527  35.351   6.532
 4870POPC   C3A62765  22.265  35.321   6.888
 4870POPC   C4A62766  22.213  35.200   7.297
 4870POPC   C1B62767  21.993  34.863   6.222
 4870POPC   C2B62768  22.133  34.885   6.651
 4870POPC   C3B62769  21.911  34.885   7.055
 4870POPC   C4B62770  21.827  34.908   7.513
 4871POPC   NC362771   6.055  37.917   5.474
 4871POPC   PO462772   5.438  37.600   5.461
 4871POPC   GL162773   5.760  37.575   5.772
 4871POPC   GL262774   5.893  37.229   5.795
 4871POPC   C1A62775   5.796  37.875   6.133
 4871POPC   D2A62776   5.916  38.019   6.545
 4871POPC   C3A62777   5.870  37.893   6.957
 4871POPC   C4A62778   6.126  37.785   7.286
 4871POPC   C1B62779   5.979  37.390   6.226
 4871POPC   C2B62780   6.132  37.467   6.677
 4871POPC   C3B62781   6.175  37.293   7.122
 4871POPC   C4B62782   5.876  37.359   7.489
 4872POPC   NC362783  33.478  30.885   5.375
 4872POPC   PO462784  34.161  31.096   5.355
 4872POPC   GL162785  33.890  30.942   5.690
 4872POPC   GL262786  33.773  30.573   5.685
 4872POPC   C1A62787  33.756  30.868   6.111
 4872POPC   D2A62788  33.744  30.608   6.460
 4872POPC   C3A62789  33.774  30.772   6.873
 4872POPC   C4A62790  33.719  30.571   7.251
 4872POPC   C1B62791  33.565  30.327   6.039
 4872POPC   C2B62792  33.588  30.133   6.480
 4872POPC   C3B62793  33.790  30.237   6.854
 4872POPC   C4B62794  33.659  30.065   7.237
 4873POPC   NC362795   3.992  22.852   5.395
 4873POPC   PO462796   4.454  23.294   5.610
 4873POPC   GL162797   4.191  23.080   5.830
 4873POPC   GL262798   3.947  23.296   5.818
 4873POPC   C1A62799   4.265  22.861   6.186
 4873POPC   D2A62800   4.538  22.726   6.491
 4873POPC   C3A62801   4.359  22.741   6.833
 4873POPC   C4A62802   4.469  22.843   7.207
 4873POPC   C1B62803   3.952  23.272   6.253
 4873POPC   C2B62804   3.937  22.968   6.576
 4873POPC   C3B62805   3.960  23.020   7.003
 4873POPC   C4B62806   4.008  23.038   7.441
 4874POPC   NC362807  34.765  43.247   5.549
 4874POPC   PO462808  34.222  42.874   5.365
 4874POPC   GL162809  34.327  43.117   5.779
 4874POPC   GL262810  34.132  43.430   5.875
 4874POPC   C1A62811  34.599  43.185   6.178
 4874POPC   D2A62812  34.904  43.194   6.534
 4874POPC   C3A62813  34.760  43.240   6.939
 4874POPC   C4A62814  34.461  42.944   7.099
 4874POPC   C1B62815  34.089  43.146   6.229
 4874POPC   C2B62816  34.334  43.157   6.628
 4874POPC   C3B62817  34.297  43.450   6.965
 4874POPC   C4B62818  34.244  43.335   7.381
 4875POPC   NC362819   6.025  43.327   5.402
 4875POPC   PO462820   6.103  42.734   5.631
 4875POPC   GL162821   5.876  43.117   5.832
 4875POPC   GL262822   6.007  43.517   5.863
 4875POPC   C1A62823   6.035  43.143   6.220
 4875POPC   D2A62824   6.206  42.893   6.546
 4875POPC   C3A62825   5.863  42.878   6.833
 4875POPC   C4A62826   5.864  42.781   7.248
 4875POPC   C1B62827   5.798  43.604   6.260
 4875POPC   C2B62828   5.784  43.347   6.624
 4875POPC   C3B62829   5.704  43.325   7.048
 4875POPC   C4B62830   5.833  43.648   7.273
 4876POPC   NC362831  30.788  12.913   5.331
 4876POPC   PO462832  31.068  12.377   5.452
 4876POPC   GL162833  30.796  12.543   5.842
 4876POPC   GL262834  30.575  12.829   5.806
 4876POPC   C1A62835  30.704  12.596   6.318
 4876POPC   D2A62836  30.728  12.525   6.797
 4876POPC   C3A62837  31.091  12.763   7.032
 4876POPC   C4A62838  31.087  13.002   7.438
 4876POPC   C1B62839  30.356  12.951   6.200
 4876POPC   C2B62840  30.498  12.958   6.633
 4876POPC   C3B62841  30.617  12.982   7.060
 4876POPC   C4B62842  30.313  12.878   7.428
 4877POPC   NC362843   7.812  29.422   5.323
 4877POPC   PO462844   8.277  28.861   5.365
 4877POPC   GL162845   8.085  29.135   5.708
 4877POPC   GL262846   8.342  29.367   5.817
 4877POPC   C1A62847   7.962  28.967   6.133
 4877POPC   D2A62848   7.899  28.700   6.497
 4877POPC   C3A62849   8.040  28.770   6.928
 4877POPC   C4A62850   7.954  29.172   7.098
 4877POPC   C1B62851   8.387  29.212   6.216
 4877POPC   C2B62852   8.176  29.157   6.597
 4877POPC   C3B62853   8.444  29.131   6.939
 4877POPC   C4B62854   8.582  29.431   7.266
 4878POPC   NC362855  20.164   6.868   5.277
 4878POPC   PO462856  19.820   6.402   5.425
 4878POPC   GL162857  19.760   6.583   5.817
 4878POPC   GL262858  19.771   6.234   5.916
 4878POPC   C1A62859  19.988   6.727   6.226
 4878POPC   D2A62860  20.281   6.575   6.587
 4878POPC   C3A62861  20.093   6.525   6.999
 4878POPC   C4A62862  19.771   6.829   7.105
 4878POPC   C1B62863  19.558   6.420   6.265
 4878POPC   C2B62864  19.687   6.557   6.667
 4878POPC   C3B62865  19.502   6.403   7.055
 4878POPC   C4B62866  19.807   6.207   7.327
 4879POPC   NC362867   2.131  22.178   5.372
 4879POPC   PO462868   2.312  21.643   5.597
 4879POPC   GL162869   2.167  21.979   5.850
 4879POPC   GL262870   2.306  22.330   5.815
 4879POPC   C1A62871   1.872  22.234   6.093
 4879POPC   D2A62872   1.664  22.163   6.484
 4879POPC   C3A62873   1.754  22.286   6.903
 4879POPC   C4A62874   1.725  22.026   7.231
 4879POPC   C1B62875   2.363  22.197   6.258
 4879POPC   C2B62876   2.215  22.113   6.645
 4879POPC   C3B62877   2.274  22.087   7.077
 4879POPC   C4B62878   2.152  22.204   7.477
 4880POPC   NC362879   5.661  22.541   5.492
 4880POPC   PO462880   6.076  23.024   5.529
 4880POPC   GL162881   5.861  22.883   5.869
 4880POPC   GL262882   5.512  22.922   5.819
 4880POPC   C1A62883   5.837  23.038   6.289
 4880POPC   D2A62884   5.926  22.890   6.718
 4880POPC   C3A62885   5.962  23.189   7.063
 4880POPC   C4A62886   5.907  23.215   7.491
 4880POPC   C1B62887   5.331  23.103   6.221
 4880POPC   C2B62888   5.509  23.195   6.656
 4880POPC   C3B62889   5.492  23.022   7.067
 4880POPC   C4B62890   5.442  23.021   7.533
 4881POPC   NC362891   3.893  30.556   5.589
 4881POPC   PO462892   4.399  30.987   5.439
 4881POPC   GL162893   4.211  30.886   5.809
 4881POPC   GL262894   4.424  30.590   5.880
 4881POPC   C1A62895   4.232  30.965   6.238
 4881POPC   D2A62896   4.556  30.912   6.556
 4881POPC   C3A62897   4.364  30.745   6.918
 4881POPC   C4A62898   4.143  30.942   7.226
 4881POPC   C1B62899   4.173  30.417   6.246
 4881POPC   C2B62900   4.182  30.304   6.704
 4881POPC   C3B62901   3.957  30.432   7.077
 4881POPC   C4B62902   3.987  30.280   7.522
 4882POPC   NC362903   0.738  14.393   5.421
 4882POPC   PO462904   0.096  14.526   5.336
 4882POPC   GL162905   0.289  14.457   5.735
 4882POPC   GL262906   0.168  14.153   5.912
 4882POPC   C1A62907   0.489  14.621   6.117
 4882POPC   D2A62908   0.778  14.602   6.493
 4882POPC   C3A62909   0.563  14.572   6.931
 4882POPC   C4A62910   0.196  14.463   7.241
 4882POPC   C1B62911   0.557  14.108   6.192
 4882POPC   C2B62912   0.669  14.093   6.636
 4882POPC   C3B62913   0.623  14.098   7.112
 4882POPC   C4B62914   0.616  13.962   7.538
 4883POPC   NC362915   1.804  27.874   5.171
 4883POPC   PO462916   1.924  28.501   5.249
 4883POPC   GL162917   1.882  28.542   5.692
 4883POPC   GL262918   1.635  28.810   5.747
 4883POPC   C1A62919   1.946  28.229   6.043
 4883POPC   D2A62920   2.197  28.158   6.436
 4883POPC   C3A62921   1.999  28.355   6.804
 4883POPC   C4A62922   2.070  28.321   7.237
 4883POPC   C1B62923   1.742  28.685   6.173
 4883POPC   C2B62924   1.587  28.585   6.582
 4883POPC   C3B62925   1.664  28.682   7.013
 4883POPC   C4B62926   1.663  28.604   7.462
 4884POPC   NC362927  42.739  19.990   5.389
 4884POPC   PO462928  43.215  19.582   5.318
 4884POPC   GL162929  43.204  19.710   5.737
 4884POPC   GL262930  42.836  19.668   5.789
 4884POPC   C1A62931  43.171  19.820   6.175
 4884POPC   D2A62932  43.082  19.610   6.584
 4884POPC   C3A62933  43.316  19.792   6.971
 4884POPC   C4A62934  43.466  20.042   7.328
 4884POPC   C1B62935  42.695  19.653   6.225
 4884POPC   C2B62936  42.618  19.854   6.621
 4884POPC   C3B62937  42.809  19.799   7.003
 4884POPC   C4B62938  42.729  19.376   7.100
 4885POPC   NC362939  44.309   4.079   5.414
 4885POPC   PO462940  44.806   4.522   5.435
 4885POPC   GL162941  44.633   4.290   5.757
 4885POPC   GL262942  44.442   4.594   5.837
 4885POPC   C1A62943  44.686   4.041   6.150
 4885POPC   D2A62944  44.820   4.144   6.579
 4885POPC   C3A62945  44.543   4.153   6.913
 4885POPC   C4A62946  44.213   3.996   7.119
 4885POPC   C1B62947  44.767   4.536   6.181
 4885POPC   C2B62948  44.826   4.688   6.585
 4885POPC   C3B62949  44.879   4.533   7.007
 4885POPC   C4B62950  44.658   4.589   7.410
 4886POPC   NC362951  25.265  35.479   5.320
 4886POPC   PO462952  24.980  34.871   5.557
 4886POPC   GL162953  25.261  35.209   5.764
 4886POPC   GL262954  25.082  35.535   5.781
 4886POPC   C1A62955  25.465  35.364   6.176
 4886POPC   D2A62956  25.369  35.195   6.618
 4886POPC   C3A62957  25.580  35.317   7.038
 4886POPC   C4A62958  25.494  35.678   7.293
 4886POPC   C1B62959  24.965  35.405   6.191
 4886POPC   C2B62960  25.016  35.582   6.597
 4886POPC   C3B62961  25.075  35.472   7.037
 4886POPC   C4B62962  24.861  35.242   7.358
 4887POPC   NC362963   2.562  30.567   5.248
 4887POPC   PO462964   3.041  31.011   5.247
 4887POPC   GL162965   2.935  30.696   5.597
 4887POPC   GL262966   2.617  30.729   5.720
 4887POPC   C1A62967   2.958  30.668   6.080
 4887POPC   D2A62968   2.844  30.825   6.485
 4887POPC   C3A62969   3.012  30.767   6.898
 4887POPC   C4A62970   2.769  30.748   7.286
 4887POPC   C1B62971   2.453  30.550   6.090
 4887POPC   C2B62972   2.651  30.325   6.418
 4887POPC   C3B62973   2.680  30.383   6.855
 4887POPC   C4B62974   3.009  30.308   7.176
 4888POPC   NC362975  25.122   1.038   5.503
 4888POPC   PO462976  25.193   0.335   5.336
 4888POPC   GL162977  25.255   0.309   5.766
 4888POPC   GL262978  25.600   0.177   5.748
 4888POPC   C1A62979  25.140   0.517   6.152
 4888POPC   D2A62980  25.335   0.563   6.544
 4888POPC   C3A62981  25.066   0.578   6.887
 4888POPC   C4A62982  25.295   0.650   7.262
 4888POPC   C1B62983  25.482  44.975   6.128
 4888POPC   C2B62984  25.550   0.071   6.542
 4888POPC   C3B62985  25.487   0.247   6.942
 4888POPC   C4B62986  25.763   0.361   7.270
 4889POPC   NC362987   7.806  34.305   5.573
 4889POPC   PO462988   8.403  34.597   5.280
 4889POPC   GL162989   8.171  34.695   5.670
 4889POPC   GL262990   8.300  34.377   5.804
 4889POPC   C1A62991   8.114  34.774   6.127
 4889POPC   D2A62992   7.974  34.655   6.553
 4889POPC   C3A62993   8.191  34.809   6.910
 4889POPC   C4A62994   8.147  34.808   7.362
 4889POPC   C1B62995   8.184  34.268   6.229
 4889POPC   C2B62996   8.272  34.218   6.652
 4889POPC   C3B62997   8.257  34.336   7.073
 4889POPC   C4B62998   8.094  34.187   7.441
 4890POPC   NC362999   5.280  25.577   5.529
 4890POPC   PO463000   4.888  25.020   5.471
 4890POPC   GL163001   5.095  25.148   5.848
 4890POPC   GL263002   4.913  25.428   5.871
 4890POPC   C1A63003   5.166  25.299   6.294
 4890POPC   D2A63004   5.465  25.456   6.547
 4890POPC   C3A63005   5.362  25.458   6.977
 4890POPC   C4A63006   5.290  25.208   7.383
 4890POPC   C1B63007   4.745  25.595   6.227
 4890POPC   C2B63008   4.700  25.433   6.616
 4890POPC   C3B63009   4.764  25.658   6.988
 4890POPC   C4B63010   5.019  25.639   7.294
 4891POPC   NC363011  32.601  37.708   5.466
 4891POPC   PO463012  31.896  37.719   5.265
 4891POPC   GL163013  32.044  37.736   5.730
 4891POPC   GL263014  32.366  37.837   5.939
 4891POPC   C1A63015  31.866  37.744   6.163
 4891POPC   D2A63016  31.744  37.520   6.563
 4891POPC   C3A63017  31.845  37.741   6.925
 4891POPC   C4A63018  32.111  37.564   7.216
 4891POPC   C1B63019  32.333  37.939   6.417
 4891POPC   C2B63020  32.409  37.787   6.862
 4891POPC   C3B63021  32.551  37.776   7.333
 4891POPC   C4B63022  32.596  37.820   7.821
 4892POPC   NC363023  15.977  31.626   5.431
 4892POPC   PO463024  15.512  31.198   5.439
 4892POPC   GL163025  15.748  31.374   5.827
 4892POPC   GL263026  16.007  31.680   5.934
 4892POPC   C1A63027  15.893  31.301   6.264
 4892POPC   D2A63028  15.851  31.575   6.574
 4892POPC   C3A63029  15.881  31.472   7.004
 4892POPC   C4A63030  15.903  31.167   7.317
 4892POPC   C1B63031  16.290  31.605   6.273
 4892POPC   C2B63032  16.322  31.568   6.710
 4892POPC   C3B63033  16.392  31.380   7.088
 4892POPC   C4B63034  16.489  31.377   7.511
 4893POPC   NC363035  31.100  39.770   5.423
 4893POPC   PO463036  31.637  40.101   5.483
 4893POPC   GL163037  31.423  39.914   5.807
 4893POPC   GL263038  31.461  39.559   5.750
 4893POPC   C1A63039  31.379  40.078   6.197
 4893POPC   D2A63040  31.375  40.341   6.547
 4893POPC   C3A63041  31.218  40.117   6.874
 4893POPC   C4A63042  31.158  40.027   7.327
 4893POPC   C1B63043  31.604  39.599   6.169
 4893POPC   C2B63044  31.434  39.693   6.538
 4893POPC   C3B63045  31.408  39.660   6.947
 4893POPC   C4B63046  31.620  39.897   7.229
 4894POPC   NC363047   4.728  13.644   5.414
 4894POPC   PO463048   5.267  13.336   5.474
 4894POPC   GL163049   5.007  13.451   5.819
 4894POPC   GL263050   4.927  13.794   5.875
 4894POPC   C1A63051   5.038  13.385   6.277
 4894POPC   D2A63052   5.187  13.134   6.648
 4894POPC   C3A63053   5.164  13.375   7.027
 4894POPC   C4A63054   5.167  13.533   7.453
 4894POPC   C1B63055   5.268  13.850   6.213
 4894POPC   C2B63056   5.434  13.801   6.665
 4894POPC   C3B63057   5.249  13.894   7.092
 4894POPC   C4B63058   4.833  14.079   7.208
 4895POPC   NC363059  40.376  30.503   5.304
 4895POPC   PO463060  40.095  30.884   5.785
 4895POPC   GL163061  39.767  30.918   6.035
 4895POPC   GL263062  39.684  30.566   5.951
 4895POPC   C1A63063  39.905  31.166   6.355
 4895POPC   D2A63064  40.263  31.007   6.555
 4895POPC   C3A63065  40.086  30.840   6.888
 4895POPC   C4A63066  40.181  30.771   7.300
 4895POPC   C1B63067  39.782  30.613   6.425
 4895POPC   C2B63068  39.914  30.374   6.769
 4895POPC   C3B63069  40.212  30.294   7.084
 4895POPC   C4B63070  39.900  30.254   7.355
 4896POPC   NC363071  41.010   9.769   5.398
 4896POPC   PO463072  40.362   9.542   5.337
 4896POPC   GL163073  40.543   9.748   5.700
 4896POPC   GL263074  40.843   9.713   5.874
 4896POPC   C1A63075  40.452   9.875   6.149
 4896POPC   D2A63076  40.712   9.821   6.532
 4896POPC   C3A63077  40.488   9.780   6.898
 4896POPC   C4A63078  40.609   9.951   7.272
 4896POPC   C1B63079  41.079   9.876   6.178
 4896POPC   C2B63080  41.246   9.916   6.583
 4896POPC   C3B63081  41.072   9.847   7.010
 4896POPC   C4B63082  41.147   9.535   7.346
 4897POPC   NC363083  36.706  10.195   5.424
 4897POPC   PO463084  37.044   9.511   5.444
 4897POPC   GL163085  37.075   9.865   5.743
 4897POPC   GL263086  36.947   9.591   5.944
 4897POPC   C1A63087  36.906  10.016   6.177
 4897POPC   D2A63088  36.915   9.703   6.517
 4897POPC   C3A63089  37.031   9.850   6.951
 4897POPC   C4A63090  37.298   9.804   7.313
 4897POPC   C1B63091  36.573   9.483   6.143
 4897POPC   C2B63092  36.428   9.483   6.535
 4897POPC   C3B63093  36.645   9.505   6.911
 4897POPC   C4B63094  36.491   9.551   7.302
 4898POPC   NC363095   1.796   0.617   5.488
 4898POPC   PO463096   1.917  44.974   5.687
 4898POPC   GL163097   1.907   0.364   5.904
 4898POPC   GL263098   2.234   0.516   5.850
 4898POPC   C1A63099   1.908   0.677   6.213
 4898POPC   D2A63100   1.805   0.489   6.613
 4898POPC   C3A63101   1.913   0.677   7.005
 4898POPC   C4A63102   1.746   0.998   7.238
 4898POPC   C1B63103   2.265   0.341   6.311
 4898POPC   C2B63104   2.270   0.342   6.784
 4898POPC   C3B63105   2.343   0.424   7.218
 4898POPC   C4B63106   2.420   0.279   7.671
 4899POPC   NC363107  42.291   6.253   5.603
 4899POPC   PO463108  42.458   6.825   5.149
 4899POPC   GL163109  42.544   6.849   5.668
 4899POPC   GL263110  42.614   6.575   5.837
 4899POPC   C1A63111  42.494   6.875   6.200
 4899POPC   D2A63112  42.353   6.902   6.671
 4899POPC   C3A63113  42.187   6.555   6.962
 4899POPC   C4A63114  41.907   6.565   7.309
 4899POPC   C1B63115  42.542   6.353   6.208
 4899POPC   C2B63116  42.570   6.375   6.627
 4899POPC   C3B63117  42.687   6.616   6.965
 4899POPC   C4B63118  42.626   6.486   7.327
 4900POPC   NC363119  32.342  30.121   5.519
 4900POPC   PO463120  32.298  30.717   5.396
 4900POPC   GL163121  32.123  30.615   5.770
 4900POPC   GL263122  32.411  30.489   5.888
 4900POPC   C1A63123  32.068  30.705   6.217
 4900POPC   D2A63124  32.269  30.800   6.602
 4900POPC   C3A63125  32.024  30.821   6.952
 4900POPC   C4A63126  32.036  30.645   7.345
 4900POPC   C1B63127  32.407  30.299   6.287
 4900POPC   C2B63128  32.588  30.394   6.699
 4900POPC   C3B63129  32.415  30.349   7.122
 4900POPC   C4B63130  32.671  30.195   7.499
 4901POPC   NC363131  14.670   1.652   5.397
 4901POPC   PO463132  14.263   2.270   5.456
 4901POPC   GL163133  14.170   2.068   5.874
 4901POPC   GL263134  14.378   1.761   5.854
 4901POPC   C1A63135  14.279   1.924   6.327
 4901POPC   D2A63136  14.347   1.643   6.696
 4901POPC   C3A63137  14.298   1.894   7.073
 4901POPC   C4A63138  14.431   2.275   7.263
 4901POPC   C1B63139  14.761   1.826   6.122
 4901POPC   C2B63140  14.880   1.663   6.549
 4901POPC   C3B63141  14.831   1.874   6.977
 4901POPC   C4B63142  14.654   1.834   7.428
 4902POPC   NC363143  33.556  18.394   5.253
 4902POPC   PO463144  34.134  18.110   5.439
 4902POPC   GL163145  33.811  18.179   5.738
 4902POPC   GL263146  33.686  18.508   5.737
 4902POPC   C1A63147  33.954  18.333   6.141
 4902POPC   D2A63148  34.030  18.204   6.543
 4902POPC   C3A63149  34.092  18.423   6.896
 4902POPC   C4A63150  33.853  18.236   7.232
 4902POPC   C1B63151  33.522  18.598   6.123
 4902POPC   C2B63152  33.526  18.388   6.495
 4902POPC   C3B63153  33.573  18.508   6.893
 4902POPC   C4B63154  33.333  18.470   7.243
 4903POPC   NC363155  12.545  18.576   5.603
 4903POPC   PO463156  12.047  18.989   5.338
 4903POPC   GL163157  12.034  19.139   5.751
 4903POPC   GL263158  12.261  18.900   5.889
 4903POPC   C1A63159  11.890  19.119   6.191
 4903POPC   D2A63160  12.126  18.972   6.557
 4903POPC   C3A63161  12.098  19.244   6.909
 4903POPC   C4A63162  11.886  19.098   7.251
 4903POPC   C1B63163  12.477  18.634   6.230
 4903POPC   C2B63164  12.455  18.587   6.653
 4903POPC   C3B63165  12.402  18.821   7.011
 4903POPC   C4B63166  12.194  18.705   7.362
 4904POPC   NC363167  37.746  30.338   5.444
 4904POPC   PO463168  37.389  30.904   5.406
 4904POPC   GL163169  37.746  30.823   5.677
 4904POPC   GL263170  37.488  30.784   5.904
 4904POPC   C1A63171  37.948  30.861   6.117
 4904POPC   D2A63172  37.792  31.079   6.513
 4904POPC   C3A63173  37.985  30.938   6.919
 4904POPC   C4A63174  37.861  30.566   7.195
 4904POPC   C1B63175  37.277  30.619   6.231
 4904POPC   C2B63176  37.338  30.762   6.589
 4904POPC   C3B63177  37.498  30.826   6.943
 4904POPC   C4B63178  37.389  30.748   7.329
 4905POPC   NC363179  19.557   0.261   5.564
 4905POPC   PO463180  19.984   0.632   5.271
 4905POPC   GL163181  20.059   0.446   5.727
 4905POPC   GL263182  19.753   0.553   5.893
 4905POPC   C1A63183  20.099   0.555   6.234
 4905POPC   D2A63184  20.080   0.350   6.627
 4905POPC   C3A63185  19.723   0.338   6.879
 4905POPC   C4A63186  19.961   0.468   7.178
 4905POPC   C1B63187  19.646   0.844   6.170
 4905POPC   C2B63188  19.655   0.742   6.558
 4905POPC   C3B63189  19.578   0.808   6.967
 4905POPC   C4B63190  19.438   0.531   7.288
 4906POPC   NC363191  31.737  44.143   5.054
 4906POPC   PO463192  31.301  43.651   5.133
 4906POPC   GL163193  31.215  43.702   5.628
 4906POPC   GL263194  31.112  44.022   5.821
 4906POPC   C1A63195  31.430  43.716   6.069
 4906POPC   D2A63196  31.808  43.886   6.302
 4906POPC   C3A63197  31.761  43.914   6.740
 4906POPC   C4A63198  31.575  43.764   7.094
 4906POPC   C1B63199  31.074  44.073   6.285
 4906POPC   C2B63200  31.189  43.829   6.675
 4906POPC   C3B63201  31.147  44.021   7.083
 4906POPC   C4B63202  31.382  44.030   7.482
 4907POPC   NC363203  14.713  43.055   5.389
 4907POPC   PO463204  14.033  43.332   5.357
 4907POPC   GL163205  14.232  43.347   5.790
 4907POPC   GL263206  14.573  43.157   5.885
 4907POPC   C1A63207  14.300  43.409   6.233
 4907POPC   D2A63208  14.579  43.232   6.544
 4907POPC   C3A63209  14.393  43.216   6.938
 4907POPC   C4A63210  14.510  43.297   7.334
 4907POPC   C1B63211  14.524  42.820   6.213
 4907POPC   C2B63212  14.726  42.593   6.524
 4907POPC   C3B63213  14.629  42.673   6.915
 4907POPC   C4B63214  14.413  42.804   7.278
 4908POPC   NC363215   8.995  31.104   5.564
 4908POPC   PO463216   8.677  31.730   5.621
 4908POPC   GL163217   8.991  31.557   5.855
 4908POPC   GL263218   8.781  31.290   6.001
 4908POPC   C1A63219   9.083  31.769   6.237
 4908POPC   D2A63220   8.845  31.929   6.566
 4908POPC   C3A63221   8.828  31.668   6.904
 4908POPC   C4A63222   8.889  31.856   7.296
 4908POPC   C1B63223   9.131  31.256   6.281
 4908POPC   C2B63224   9.069  31.238   6.729
 4908POPC   C3B63225   9.238  31.440   7.097
 4908POPC   C4B63226   9.317  31.243   7.457
 4909POPC   NC363227  11.166  16.504   5.276
 4909POPC   PO463228  11.015  15.849   5.304
 4909POPC   GL163229  11.061  16.074   5.667
 4909POPC   GL263230  11.406  16.104   5.690
 4909POPC   C1A63231  10.969  16.107   6.103
 4909POPC   D2A63232  10.892  15.884   6.495
 4909POPC   C3A63233  11.123  15.949   6.877
 4909POPC   C4A63234  10.976  15.899   7.267
 4909POPC   C1B63235  11.489  16.243   6.100
 4909POPC   C2B63236  11.470  16.120   6.529
 4909POPC   C3B63237  11.643  15.972   6.928
 4909POPC   C4B63238  11.476  16.124   7.316
 4910POPC   NC363239  29.431  30.829   5.125
 4910POPC   PO463240  28.857  30.770   5.480
 4910POPC   GL163241  29.054  30.649   5.859
 4910POPC   GL263242  29.299  30.920   5.962
 4910POPC   C1A63243  29.101  30.567   6.286
 4910POPC   D2A63244  29.020  30.359   6.620
 4910POPC   C3A63245  29.084  30.616   6.957
 4910POPC   C4A63246  29.085  30.336   7.276
 4910POPC   C1B63247  28.944  31.049   6.253
 4910POPC   C2B63248  28.834  31.133   6.707
 4910POPC   C3B63249  28.964  31.093   7.130
 4910POPC   C4B63250  29.299  31.274   7.381
 4911POPC   NC363251  18.041  37.096   5.185
 4911POPC   PO463252  18.495  36.614   5.313
 4911POPC   GL163253  18.477  36.683   5.769
 4911POPC   GL263254  18.109  36.786   5.889
 4911POPC   C1A63255  18.507  36.747   6.210
 4911POPC   D2A63256  18.211  36.647   6.556
 4911POPC   C3A63257  18.439  36.670   6.949
 4911POPC   C4A63258  18.399  36.848   7.356
 4911POPC   C1B63259  18.090  37.094   6.241
 4911POPC   C2B63260  18.079  37.313   6.632
 4911POPC   C3B63261  18.137  37.176   7.052
 4911POPC   C4B63262  18.038  37.183   7.478
 4912POPC   NC363263  12.098   4.643   5.392
 4912POPC   PO463264  11.884   4.043   5.466
 4912POPC   GL163265  12.034   4.119   5.840
 4912POPC   GL263266  12.312   4.359   5.800
 4912POPC   C1A63267  12.264   4.013   6.216
 4912POPC   D2A63268  12.029   3.920   6.586
 4912POPC   C3A63269  12.215   3.972   6.976
 4912POPC   C4A63270  12.090   4.232   7.279
 4912POPC   C1B63271  12.053   4.471   6.184
 4912POPC   C2B63272  11.873   4.655   6.530
 4912POPC   C3B63273  11.925   4.597   6.967
 4912POPC   C4B63274  11.800   4.642   7.404
 4913POPC   NC363275  23.336  12.002   5.144
 4913POPC   PO463276  23.849  12.340   5.362
 4913POPC   GL163277  23.757  11.959   5.602
 4913POPC   GL263278  23.411  11.836   5.661
 4913POPC   C1A63279  23.787  12.011   6.052
 4913POPC   D2A63280  23.600  12.293   6.401
 4913POPC   C3A63281  23.673  12.157   6.842
 4913POPC   C4A63282  23.580  12.183   7.301
 4913POPC   C1B63283  23.414  11.671   6.105
 4913POPC   C2B63284  23.624  11.753   6.491
 4913POPC   C3B63285  23.670  11.643   6.928
 4913POPC   C4B63286  23.448  11.671   7.284
 4914POPC   NC363287   3.885  33.890   5.457
 4914POPC   PO463288   3.733  33.274   5.446
 4914POPC   GL163289   3.748  33.571   5.824
 4914POPC   GL263290   3.529  33.888   5.824
 4914POPC   C1A63291   3.846  33.790   6.225
 4914POPC   D2A63292   3.673  33.905   6.602
 4914POPC   C3A63293   3.910  33.883   6.950
 4914POPC   C4A63294   3.868  33.636   7.313
 4914POPC   C1B63295   3.340  33.816   6.230
 4914POPC   C2B63296   3.345  33.511   6.561
 4914POPC   C3B63297   3.490  33.540   6.981
 4914POPC   C4B63298   3.320  33.665   7.382
 4915POPC   NC363299  27.474  37.704   5.320
 4915POPC   PO463300  28.130  37.613   5.420
 4915POPC   GL163301  27.775  37.612   5.739
 4915POPC   GL263302  27.520  37.905   5.783
 4915POPC   C1A63303  27.722  37.692   6.194
 4915POPC   D2A63304  27.927  37.757   6.567
 4915POPC   C3A63305  27.765  37.737   6.934
 4915POPC   C4A63306  28.000  37.688   7.320
 4915POPC   C1B63307  27.386  38.105   6.197
 4915POPC   C2B63308  27.274  38.013   6.634
 4915POPC   C3B63309  27.236  37.777   6.994
 4915POPC   C4B63310  27.491  37.802   7.358
 4916POPC   NC363311  39.208  35.650   5.580
 4916POPC   PO463312  39.389  34.980   5.510
 4916POPC   GL163313  39.209  35.057   5.905
 4916POPC   GL263314  39.052  35.400   5.993
 4916POPC   C1A63315  39.332  35.125   6.322
 4916POPC   D2A63316  39.227  35.472   6.535
 4916POPC   C3A63317  39.081  35.263   6.841
 4916POPC   C4A63318  39.136  35.048   7.190
 4916POPC   C1B63319  38.775  35.610   6.308
 4916POPC   C2B63320  38.718  35.607   6.766
 4916POPC   C3B63321  38.848  35.489   7.215
 4916POPC   C4B63322  38.766  35.710   7.631
 4917POPC   NC363323  17.611   2.867   5.353
 4917POPC   PO463324  17.894   2.373   5.661
 4917POPC   GL163325  17.559   2.712   5.850
 4917POPC   GL263326  17.210   2.768   5.682
 4917POPC   C1A63327  17.416   2.952   6.217
 4917POPC   D2A63328  17.364   3.172   6.630
 4917POPC   C3A63329  17.319   2.891   6.947
 4917POPC   C4A63330  17.656   2.693   7.122
 4917POPC   C1B63331  17.090   2.564   6.070
 4917POPC   C2B63332  17.221   2.569   6.518
 4917POPC   C3B63333  17.259   2.375   6.916
 4917POPC   C4B63334  17.151   2.516   7.307
 4918POPC   NC363335  37.774  33.901   5.531
 4918POPC   PO463336  37.861  33.263   5.538
 4918POPC   GL163337  37.771  33.504   5.879
 4918POPC   GL263338  37.446  33.634   5.825
 4918POPC   C1A63339  37.934  33.648   6.261
 4918POPC   D2A63340  38.136  33.640   6.686
 4918POPC   C3A63341  37.820  33.663   6.983
 4918POPC   C4A63342  37.630  33.807   7.335
 4918POPC   C1B63343  37.366  33.557   6.231
 4918POPC   C2B63344  37.576  33.444   6.585
 4918POPC   C3B63345  37.360  33.371   6.973
 4918POPC   C4B63346  37.443  33.330   7.412
 4919POPC   NC363347   6.426  28.874   5.119
 4919POPC   PO463348   5.907  29.264   5.354
 4919POPC   GL163349   5.642  29.235   5.723
 4919POPC   GL263350   5.450  28.918   5.706
 4919POPC   C1A63351   5.810  29.284   6.144
 4919POPC   D2A63352   6.046  29.462   6.500
 4919POPC   C3A63353   6.005  29.246   6.902
 4919POPC   C4A63354   6.138  29.026   7.263
 4919POPC   C1B63355   5.395  28.990   6.165
 4919POPC   C2B63356   5.573  29.174   6.587
 4919POPC   C3B63357   5.484  29.188   7.042
 4919POPC   C4B63358   5.642  28.962   7.402
 4920POPC   NC363359  16.220  44.989   5.491
 4920POPC   PO463360  15.615   0.112   5.469
 4920POPC   GL163361  15.883   0.252   5.803
 4920POPC   GL263362  15.877   0.630   5.824
 4920POPC   C1A63363  16.024   0.193   6.231
 4920POPC   D2A63364  15.860   0.020   6.626
 4920POPC   C3A63365  16.038   0.197   7.036
 4920POPC   C4A63366  16.225   0.275   7.468
 4920POPC   C1B63367  15.966   0.722   6.256
 4920POPC   C2B63368  15.932   0.544   6.666
 4920POPC   C3B63369  15.775   0.634   7.078
 4920POPC   C4B63370  15.823   1.044   7.245
 4921POPC   NC363371  43.715   5.461   5.449
 4921POPC   PO463372  44.077   4.948   5.259
 4921POPC   GL163373  44.003   5.048   5.701
 4921POPC   GL263374  44.094   5.393   5.789
 4921POPC   C1A63375  43.770   4.985   6.103
 4921POPC   D2A63376  43.901   4.793   6.518
 4921POPC   C3A63377  43.877   4.966   6.923
 4921POPC   C4A63378  43.702   5.268   7.234
 4921POPC   C1B63379  44.147   5.291   6.219
 4921POPC   C2B63380  44.003   5.366   6.638
 4921POPC   C3B63381  44.210   5.329   7.070
 4921POPC   C4B63382  44.151   5.316   7.515
 4922POPC   NC363383  42.515  13.518   5.247
 4922POPC   PO463384  42.160  13.997   5.548
 4922POPC   GL163385  42.327  13.702   5.840
 4922POPC   GL263386  42.284  13.367   5.724
 4922POPC   C1A63387  42.323  13.706   6.285
 4922POPC   D2A63388  42.179  13.811   6.698
 4922POPC   C3A63389  42.471  13.650   6.985
 4922POPC   C4A63390  42.444  13.522   7.398
 4922POPC   C1B63391  42.317  13.196   6.152
 4922POPC   C2B63392  42.452  13.261   6.610
 4922POPC   C3B63393  42.555  13.148   7.064
 4922POPC   C4B63394  42.597  13.077   7.546
 4923POPC   NC363395  14.661  12.217   5.148
 4923POPC   PO463396  14.212  11.861   5.502
 4923POPC   GL163397  14.419  12.182   5.749
 4923POPC   GL263398  14.391  11.958   5.990
 4923POPC   C1A63399  14.478  12.385   6.196
 4923POPC   D2A63400  14.450  12.067   6.524
 4923POPC   C3A63401  14.511  12.314   6.893
 4923POPC   C4A63402  14.651  12.134   7.256
 4923POPC   C1B63403  14.123  11.700   6.272
 4923POPC   C2B63404  14.133  11.591   6.697
 4923POPC   C3B63405  14.407  11.782   6.976
 4923POPC   C4B63406  14.536  11.678   7.397
 4924POPC   NC363407  31.230  11.352   5.209
 4924POPC   PO463408  31.489  10.881   5.491
 4924POPC   GL163409  31.390  11.207   5.760
 4924POPC   GL263410  31.684  11.280   5.845
 4924POPC   C1A63411  31.314  11.334   6.184
 4924POPC   D2A63412  31.170  11.355   6.598
 4924POPC   C3A63413  31.487  11.400   6.914
 4924POPC   C4A63414  31.631  11.347   7.341
 4924POPC   C1B63415  31.808  11.042   6.180
 4924POPC   C2B63416  31.866  11.191   6.579
 4924POPC   C3B63417  31.835  11.043   6.992
 4924POPC   C4B63418  31.766  10.829   7.367
 4925POPC   NC363419  14.002  28.183   5.119
 4925POPC   PO463420  13.477  28.476   5.326
 4925POPC   GL163421  13.611  28.409   5.744
 4925POPC   GL263422  13.732  28.735   5.771
 4925POPC   C1A63423  13.532  28.189   6.143
 4925POPC   D2A63424  13.709  28.027   6.519
 4925POPC   C3A63425  13.446  28.055   6.888
 4925POPC   C4A63426  13.548  28.244   7.263
 4925POPC   C1B63427  13.687  28.773   6.186
 4925POPC   C2B63428  13.604  28.553   6.561
 4925POPC   C3B63429  13.770  28.590   6.970
 4925POPC   C4B63430  13.961  28.608   7.371
 4926POPC   NC363431  35.409  30.693   5.311
 4926POPC   PO463432  34.853  30.992   5.136
 4926POPC   GL163433  35.031  31.088   5.672
 4926POPC   GL263434  35.339  31.248   5.724
 4926POPC   C1A63435  35.216  30.905   6.128
 4926POPC   D2A63436  35.468  30.981   6.548
 4926POPC   C3A63437  35.457  30.682   6.922
 4926POPC   C4A63438  35.648  30.350   7.219
 4926POPC   C1B63439  35.079  31.378   6.122
 4926POPC   C2B63440  35.116  31.381   6.539
 4926POPC   C3B63441  35.084  31.119   6.878
 4926POPC   C4B63442  35.159  30.944   7.258
 4927POPC   NC363443   0.053   2.479   5.465
 4927POPC   PO463444   0.544   2.968   5.472
 4927POPC   GL163445   0.636   2.887   5.894
 4927POPC   GL263446   0.426   2.593   5.901
 4927POPC   C1A63447   0.569   2.822   6.356
 4927POPC   D2A63448   0.474   2.529   6.692
 4927POPC   C3A63449   0.616   2.672   7.090
 4927POPC   C4A63450   0.419   2.742   7.485
 4927POPC   C1B63451   0.123   2.875   6.095
 4927POPC   C2B63452   0.067   3.074   6.510
 4927POPC   C3B63453   0.148   2.895   6.921
 4927POPC   C4B63454  44.894   2.812   7.281
 4928POPC   NC363455  12.880  42.925   5.267
 4928POPC   PO463456  13.242  42.466   5.628
 4928POPC   GL163457  13.074  42.845   5.883
 4928POPC   GL263458  12.987  43.158   5.730
 4928POPC   C1A63459  12.912  42.880   6.245
 4928POPC   D2A63460  13.150  43.011   6.548
 4928POPC   C3A63461  12.978  43.133   6.902
 4928POPC   C4A63462  13.123  43.361   7.214
 4928POPC   C1B63463  12.895  43.398   6.126
 4928POPC   C2B63464  12.671  43.267   6.513
 4928POPC   C3B63465  12.481  43.240   6.918
 4928POPC   C4B63466  12.603  43.047   7.255
 4929POPC   NC363467  23.345  26.738   5.413
 4929POPC   PO463468  22.736  27.011   5.345
 4929POPC   GL163469  22.925  26.900   5.715
 4929POPC   GL263470  22.625  26.759   5.875
 4929POPC   C1A63471  23.065  27.166   6.066
 4929POPC   D2A63472  22.989  27.297   6.504
 4929POPC   C3A63473  22.977  27.027   6.862
 4929POPC   C4A63474  22.640  27.079   7.152
 4929POPC   C1B63475  22.776  26.522   6.257
 4929POPC   C2B63476  22.663  26.279   6.655
 4929POPC   C3B63477  22.618  26.300   7.115
 4929POPC   C4B63478  22.383  26.520   7.467
 4930POPC   NC363479  26.321  30.607   5.540
 4930POPC   PO463480  26.760  31.032   5.604
 4930POPC   GL163481  26.621  30.815   5.896
 4930POPC   GL263482  26.806  30.522   5.806
 4930POPC   C1A63483  26.693  30.794   6.306
 4930POPC   D2A63484  27.000  30.708   6.580
 4930POPC   C3A63485  26.899  30.820   6.998
 4930POPC   C4A63486  26.524  31.001   7.172
 4930POPC   C1B63487  26.825  30.310   6.211
 4930POPC   C2B63488  26.575  30.337   6.578
 4930POPC   C3B63489  26.602  30.375   7.017
 4930POPC   C4B63490  26.889  30.336   7.320
 4931POPC   NC363491  23.612  37.845   5.488
 4931POPC   PO463492  23.920  37.243   5.439
 4931POPC   GL163493  23.650  37.386   5.778
 4931POPC   GL263494  23.631  37.718   5.966
 4931POPC   C1A63495  23.564  37.281   6.203
 4931POPC   D2A63496  23.739  37.547   6.495
 4931POPC   C3A63497  23.784  37.399   6.881
 4931POPC   C4A63498  23.466  37.488   7.175
 4931POPC   C1B63499  23.964  37.901   6.144
 4931POPC   C2B63500  23.965  38.004   6.552
 4931POPC   C3B63501  23.751  37.901   6.918
 4931POPC   C4B63502  23.641  37.954   7.297
 4932POPC   NC363503  42.124   4.579   5.471
 4932POPC   PO463504  42.592   4.149   5.539
 4932POPC   GL163505  42.344   4.093   5.908
 4932POPC   GL263506  41.994   4.184   5.815
 4932POPC   C1A63507  42.438   3.871   6.300
 4932POPC   D2A63508  42.673   3.956   6.683
 4932POPC   C3A63509  42.456   4.198   6.982
 4932POPC   C4A63510  42.335   4.620   7.059
 4932POPC   C1B63511  42.080   4.547   6.112
 4932POPC   C2B63512  42.119   4.607   6.554
 4932POPC   C3B63513  41.951   4.333   6.862
 4932POPC   C4B63514  42.025   4.279   7.278
 4933POPC   NC363515  44.933  16.921   5.429
 4933POPC   PO463516  44.541  16.380   5.272
 4933POPC   GL163517  44.535  16.479   5.722
 4933POPC   GL263518  44.816  16.653   5.855
 4933POPC   C1A63519  44.430  16.351   6.122
 4933POPC   D2A63520  44.701  16.297   6.467
 4933POPC   C3A63521  44.748  16.624   6.770
 4933POPC   C4A63522  44.849  16.707   7.171
 4933POPC   C1B63523  44.754  16.778   6.278
 4933POPC   C2B63524   0.022  17.022   6.593
 4933POPC   C3B63525   0.179  17.110   7.018
 4933POPC   C4B63526  44.991  17.103   7.439
 4934POPC   NC363527   9.454  26.604   5.117
 4934POPC   PO463528   9.923  27.055   5.366
 4934POPC   GL163529   9.878  26.792   5.740
 4934POPC   GL263530   9.586  26.931   5.878
 4934POPC   C1A63531   9.890  26.632   6.202
 4934POPC   D2A63532  10.054  26.630   6.666
 4934POPC   C3A63533   9.844  26.720   7.060
 4934POPC   C4A63534   9.813  26.670   7.501
 4934POPC   C1B63535   9.372  26.762   6.213
 4934POPC   C2B63536   9.536  26.651   6.596
 4934POPC   C3B63537   9.355  26.668   6.968
 4934POPC   C4B63538   9.284  26.557   7.431
 4935POPC   NC363539   8.945  28.696   5.175
 4935POPC   PO463540   8.761  28.092   5.461
 4935POPC   GL163541   8.743  28.319   5.842
 4935POPC   GL263542   9.089  28.402   5.850
 4935POPC   C1A63543   8.830  28.446   6.290
 4935POPC   D2A63544   9.135  28.483   6.629
 4935POPC   C3A63545   9.064  28.554   7.045
 4935POPC   C4A63546   8.804  28.425   7.357
 4935POPC   C1B63547   9.299  28.155   6.181
 4935POPC   C2B63548   9.449  28.079   6.584
 4935POPC   C3B63549   9.368  28.136   7.003
 4935POPC   C4B63550   9.353  28.302   7.425
 4936POPC   NC363551  25.554  14.986   5.319
 4936POPC   PO463552  24.892  14.949   5.197
 4936POPC   GL163553  25.145  15.215   5.542
 4936POPC   GL263554  25.339  14.957   5.768
 4936POPC   C1A63555  25.293  15.391   5.987
 4936POPC   D2A63556  25.607  15.287   6.332
 4936POPC   C3A63557  25.405  15.217   6.752
 4936POPC   C4A63558  25.128  15.393   7.080
 4936POPC   C1B63559  25.270  14.897   6.220
 4936POPC   C2B63560  25.136  14.697   6.615
 4936POPC   C3B63561  25.203  14.823   7.059
 4936POPC   C4B63562  25.024  15.022   7.429
 4937POPC   NC363563  18.239   8.128   5.262
 4937POPC   PO463564  18.211   8.619   5.675
 4937POPC   GL163565  18.373   8.220   5.831
 4937POPC   GL263566  18.240   7.847   5.836
 4937POPC   C1A63567  18.352   8.179   6.285
 4937POPC   D2A63568  17.978   8.062   6.553
 4937POPC   C3A63569  17.953   8.097   6.990
 4937POPC   C4A63570  18.102   8.466   7.205
 4937POPC   C1B63571  18.294   7.681   6.283
 4937POPC   C2B63572  18.439   7.871   6.706
 4937POPC   C3B63573  18.442   8.066   7.143
 4937POPC   C4B63574  18.450   7.881   7.573
 4938POPC   NC363575  11.332  37.928   5.665
 4938POPC   PO463576  11.614  37.479   5.300
 4938POPC   GL163577  11.592  37.486   5.800
 4938POPC   GL263578  11.227  37.475   5.890
 4938POPC   C1A63579  11.608  37.745   6.230
 4938POPC   D2A63580  11.308  37.727   6.602
 4938POPC   C3A63581  11.386  37.790   7.051
 4938POPC   C4A63582  11.102  37.639   7.387
 4938POPC   C1B63583  11.398  37.288   6.249
 4938POPC   C2B63584  11.251  37.189   6.627
 4938POPC   C3B63585  11.265  37.298   7.035
 4938POPC   C4B63586  11.570  37.392   7.327
 4939POPC   NC363587  24.074  28.588   5.356
 4939POPC   PO463588  23.685  29.155   5.404
 4939POPC   GL163589  23.837  28.966   5.765
 4939POPC   GL263590  23.580  29.198   5.898
 4939POPC   C1A63591  23.991  29.095   6.178
 4939POPC   D2A63592  24.183  29.174   6.569
 4939POPC   C3A63593  24.012  28.948   6.888
 4939POPC   C4A63594  23.922  29.110   7.299
 4939POPC   C1B63595  23.398  29.192   6.282
 4939POPC   C2B63596  23.652  29.191   6.616
 4939POPC   C3B63597  23.532  29.250   7.018
 4939POPC   C4B63598  23.253  29.272   7.342
 4940POPC   NC363599  24.948  26.190   5.192
 4940POPC   PO463600  24.294  25.958   5.325
 4940POPC   GL163601  24.532  25.943   5.696
 4940POPC   GL263602  24.403  26.272   5.786
 4940POPC   C1A63603  24.686  25.858   6.134
 4940POPC   D2A63604  24.764  26.086   6.522
 4940POPC   C3A63605  24.630  25.877   6.908
 4940POPC   C4A63606  24.634  26.063   7.327
 4940POPC   C1B63607  24.326  26.252   6.245
 4940POPC   C2B63608  24.190  26.052   6.642
 4940POPC   C3B63609  24.176  26.053   7.101
 4940POPC   C4B63610  24.078  26.341   7.424
 4941POPC   NC363611  10.685  17.611   5.407
 4941POPC   PO463612  10.111  17.442   5.432
 4941POPC   GL163613  10.410  17.539   5.838
 4941POPC   GL263614  10.733  17.340   5.851
 4941POPC   C1A63615  10.357  17.683   6.294
 4941POPC   D2A63616  10.498  17.529   6.716
 4941POPC   C3A63617  10.621  17.798   7.068
 4941POPC   C4A63618  10.630  17.764   7.534
 4941POPC   C1B63619  10.853  17.688   6.174
 4941POPC   C2B63620  10.975  17.717   6.644
 4941POPC   C3B63621  10.933  17.395   7.021
 4941POPC   C4B63622  10.785  17.246   7.468
 4942POPC   NC363623  16.048  23.487   5.460
 4942POPC   PO463624  16.546  23.235   5.531
 4942POPC   GL163625  16.334  22.990   5.888
 4942POPC   GL263626  16.126  22.678   5.802
 4942POPC   C1A63627  16.055  23.007   6.256
 4942POPC   D2A63628  15.738  22.854   6.581
 4942POPC   C3A63629  15.883  22.855   7.023
 4942POPC   C4A63630  16.321  22.952   7.150
 4942POPC   C1B63631  15.941  22.514   6.229
 4942POPC   C2B63632  15.857  22.347   6.668
 4942POPC   C3B63633  15.760  22.350   7.130
 4942POPC   C4B63634  16.033  22.585   7.464
 4943POPC   NC363635   0.798   0.344   5.250
 4943POPC   PO463636   1.410   0.376   5.444
 4943POPC   GL163637   1.342   0.287   5.832
 4943POPC   GL263638   1.021   0.133   5.774
 4943POPC   C1A63639   1.482   0.403   6.212
 4943POPC   D2A63640   1.296   0.611   6.562
 4943POPC   C3A63641   1.444   0.462   6.980
 4943POPC   C4A63642   1.353   0.326   7.379
 4943POPC   C1B63643   0.989   0.322   6.190
 4943POPC   C2B63644   0.919   0.277   6.589
 4943POPC   C3B63645   1.022   0.171   6.967
 4943POPC   C4B63646   0.948   0.062   7.360
 4944POPC   NC363647  34.363  36.306   5.467
 4944POPC   PO463648  34.985  36.520   5.315
 4944POPC   GL163649  34.851  36.244   5.682
 4944POPC   GL263650  34.731  35.890   5.743
 4944POPC   C1A63651  34.626  36.261   6.103
 4944POPC   D2A63652  34.480  36.054   6.502
 4944POPC   C3A63653  34.539  36.209   6.922
 4944POPC   C4A63654  34.779  36.547   7.100
 4944POPC   C1B63655  34.347  35.807   6.039
 4944POPC   C2B63656  34.184  35.661   6.469
 4944POPC   C3B63657  34.411  35.659   6.892
 4944POPC   C4B63658  34.588  35.884   7.313
 4945POPC   NC363659  16.015  27.032   5.488
 4945POPC   PO463660  15.408  26.779   5.511
 4945POPC   GL163661  15.829  26.636   5.782
 4945POPC   GL263662  16.173  26.828   5.925
 4945POPC   C1A63663  15.910  26.525   6.228
 4945POPC   D2A63664  15.711  26.533   6.624
 4945POPC   C3A63665  15.683  26.788   7.025
 4945POPC   C4A63666  15.714  27.231   7.202
 4945POPC   C1B63667  15.957  27.039   6.264
 4945POPC   C2B63668  16.035  26.926   6.686
 4945POPC   C3B63669  16.178  26.960   7.104
 4945POPC   C4B63670  16.492  26.748   7.334
 4946POPC   NC363671   7.856  40.217   5.304
 4946POPC   PO463672   7.226  39.819   5.390
 4946POPC   GL163673   7.336  40.164   5.680
 4946POPC   GL263674   7.661  40.075   5.742
 4946POPC   C1A63675   7.483  40.352   6.113
 4946POPC   D2A63676   7.339  40.196   6.515
 4946POPC   C3A63677   7.453  40.385   6.908
 4946POPC   C4A63678   7.251  40.360   7.301
 4946POPC   C1B63679   7.514  39.849   6.138
 4946POPC   C2B63680   7.523  39.724   6.589
 4946POPC   C3B63681   7.484  39.868   7.039
 4946POPC   C4B63682   7.706  39.876   7.446
 4947POPC   NC363683  34.275  23.930   5.464
 4947POPC   PO463684  34.908  24.007   5.448
 4947POPC   GL163685  34.738  23.714   5.744
 4947POPC   GL263686  34.426  23.482   5.706
 4947POPC   C1A63687  34.745  23.812   6.160
 4947POPC   D2A63688  34.554  23.657   6.507
 4947POPC   C3A63689  34.742  23.767   6.890
 4947POPC   C4A63690  34.558  23.817   7.274
 4947POPC   C1B63691  34.286  23.202   6.077
 4947POPC   C2B63692  34.348  23.186   6.546
 4947POPC   C3B63693  34.333  23.457   6.930
 4947POPC   C4B63694  34.144  23.430   7.313
 4948POPC   NC363695  42.562  44.050   5.394
 4948POPC   PO463696  41.916  44.060   5.507
 4948POPC   GL163697  42.229  44.063   5.819
 4948POPC   GL263698  42.427  43.790   5.821
 4948POPC   C1A63699  42.210  44.032   6.265
 4948POPC   D2A63700  42.458  44.087   6.654
 4948POPC   C3A63701  42.220  43.862   6.980
 4948POPC   C4A63702  42.140  43.930   7.423
 4948POPC   C1B63703  42.672  43.842   6.213
 4948POPC   C2B63704  42.824  43.690   6.579
 4948POPC   C3B63705  42.730  43.765   6.974
 4948POPC   C4B63706  42.572  44.142   7.195
 4949POPC   NC363707   4.622  26.306   5.352
 4949POPC   PO463708   4.244  25.740   5.547
 4949POPC   GL163709   4.168  25.992   5.879
 4949POPC   GL263710   4.049  26.250   5.739
 4949POPC   C1A63711   4.292  26.143   6.285
 4949POPC   D2A63712   4.510  25.910   6.605
 4949POPC   C3A63713   4.370  25.976   7.052
 4949POPC   C4A63714   4.530  25.808   7.450
 4949POPC   C1B63715   3.884  26.431   6.134
 4949POPC   C2B63716   3.925  26.542   6.582
 4949POPC   C3B63717   4.065  26.463   7.025
 4949POPC   C4B63718   4.121  26.183   7.454
 4950POPC   NC363719  10.189  27.442   5.539
 4950POPC   PO463720  10.677  27.992   5.454
 4950POPC   GL163721  10.496  27.774   5.820
 4950POPC   GL263722  10.142  27.825   5.906
 4950POPC   C1A63723  10.682  27.766   6.237
 4950POPC   D2A63724  10.886  28.051   6.538
 4950POPC   C3A63725  10.736  28.049   6.952
 4950POPC   C4A63726  10.581  27.706   7.208
 4950POPC   C1B63727  10.187  27.649   6.336
 4950POPC   C2B63728  10.518  27.531   6.686
 4950POPC   C3B63729  10.715  27.244   7.028
 4950POPC   C4B63730  10.468  27.215   7.409
 4951POPC   NC363731  44.556   7.516   5.459
 4951POPC   PO463732   0.112   7.232   5.268
 4951POPC   GL163733  44.936   7.412   5.766
 4951POPC   GL263734  44.607   7.187   5.872
 4951POPC   C1A63735  44.621   7.608   6.147
 4951POPC   D2A63736  44.448   7.480   6.597
 4951POPC   C3A63737  44.692   7.592   6.989
 4951POPC   C4A63738   0.051   7.290   7.125
 4951POPC   C1B63739  44.901   7.186   6.261
 4951POPC   C2B63740  44.849   7.160   6.687
 4951POPC   C3B63741  44.514   7.121   7.004
 4951POPC   C4B63742  44.202   7.083   7.343
 4952POPC   NC363743  22.562  22.579   5.557
 4952POPC   PO463744  23.163  22.924   5.421
 4952POPC   GL163745  23.041  23.075   5.849
 4952POPC   GL263746  22.708  23.239   5.957
 4952POPC   C1A63747  23.007  22.939   6.275
 4952POPC   D2A63748  22.705  23.030   6.565
 4952POPC   C3A63749  22.897  23.110   6.939
 4952POPC   C4A63750  22.929  22.816   7.287
 4952POPC   C1B63751  22.538  22.838   6.128
 4952POPC   C2B63752  22.596  22.540   6.435
 4952POPC   C3B63753  22.740  22.577   6.860
 4952POPC   C4B63754  22.450  22.618   7.187
 4953POPC   NC363755   1.485  44.893   5.550
 4953POPC   PO463756   0.845  44.585   5.433
 4953POPC   GL163757   1.120  44.637   5.809
 4953POPC   GL263758   1.349  44.400   5.943
 4953POPC   C1A63759   1.294  44.894   6.194
 4953POPC   D2A63760   1.425   0.093   6.621
 4953POPC   C3A63761   1.452  44.916   7.076
 4953POPC   C4A63762   1.535  44.898   7.551
 4953POPC   C1B63763   0.997  44.475   6.262
 4953POPC   C2B63764   1.022  44.749   6.620
 4953POPC   C3B63765   0.975  44.655   7.039
 4953POPC   C4B63766   1.105  44.597   7.448
 4954POPC   NC363767   2.355  23.598   5.467
 4954POPC   PO463768   3.003  23.818   5.540
 4954POPC   GL163769   2.804  23.545   5.828
 4954POPC   GL263770   2.497  23.752   5.923
 4954POPC   C1A63771   2.992  23.317   6.190
 4954POPC   D2A63772   2.977  23.226   6.647
 4954POPC   C3A63773   2.857  23.646   6.876
 4954POPC   C4A63774   2.962  23.912   7.226
 4954POPC   C1B63775   2.521  24.085   6.225
 4954POPC   C2B63776   2.468  24.057   6.666
 4954POPC   C3B63777   2.461  23.947   7.107
 4954POPC   C4B63778   2.515  23.997   7.542
 4955POPC   NC363779  34.976  19.502   5.476
 4955POPC   PO463780  34.493  20.008   5.462
 4955POPC   GL163781  34.618  19.812   5.824
 4955POPC   GL263782  34.515  19.444   5.788
 4955POPC   C1A63783  34.498  19.965   6.244
 4955POPC   D2A63784  34.375  20.047   6.673
 4955POPC   C3A63785  34.725  20.049   6.927
 4955POPC   C4A63786  34.748  19.895   7.334
 4955POPC   C1B63787  34.760  19.481   6.182
 4955POPC   C2B63788  34.776  19.668   6.590
 4955POPC   C3B63789  34.584  19.568   6.971
 4955POPC   C4B63790  34.404  19.468   7.363
 4956POPC   NC363791  29.410  18.447   5.195
 4956POPC   PO463792  28.927  18.103   5.510
 4956POPC   GL163793  29.031  18.393   5.878
 4956POPC   GL263794  28.803  18.682   5.945
 4956POPC   C1A63795  29.078  18.427   6.343
 4956POPC   D2A63796  29.018  18.164   6.702
 4956POPC   C3A63797  29.117  18.378   7.094
 4956POPC   C4A63798  29.261  18.258   7.519
 4956POPC   C1B63799  28.607  18.691   6.319
 4956POPC   C2B63800  28.693  18.575   6.729
 4956POPC   C3B63801  28.851  18.802   7.067
 4956POPC   C4B63802  28.852  18.622   7.462
 4957POPC   NC363803   1.001  11.049   5.276
 4957POPC   PO463804   1.056  11.655   5.508
 4957POPC   GL163805   1.131  11.321   5.810
 4957POPC   GL263806   1.061  10.922   5.769
 4957POPC   C1A63807   1.175  11.483   6.237
 4957POPC   D2A63808   0.857  11.578   6.550
 4957POPC   C3A63809   0.983  11.731   6.959
 4957POPC   C4A63810   1.277  11.552   7.270
 4957POPC   C1B63811   1.178  10.959   6.199
 4957POPC   C2B63812   1.174  11.111   6.612
 4957POPC   C3B63813   0.992  11.182   6.997
 4957POPC   C4B63814   0.925  10.988   7.391
 4958POPC   NC363815   3.291   2.309   5.364
 4958POPC   PO463816   3.688   1.672   5.410
 4958POPC   GL163817   3.658   1.931   5.821
 4958POPC   GL263818   3.582   2.292   5.797
 4958POPC   C1A63819   3.752   2.061   6.268
 4958POPC   D2A63820   3.528   1.831   6.593
 4958POPC   C3A63821   3.535   1.848   7.018
 4958POPC   C4A63822   3.514   1.478   7.237
 4958POPC   C1B63823   3.420   2.468   6.180
 4958POPC   C2B63824   3.401   2.338   6.607
 4958POPC   C3B63825   3.480   2.420   7.018
 4958POPC   C4B63826   3.817   2.210   7.228
 4959POPC   NC363827  37.560  10.289   5.463
 4959POPC   PO463828  37.505  10.927   5.320
 4959POPC   GL163829  37.546  10.765   5.786
 4959POPC   GL263830  37.733  10.444   5.912
 4959POPC   C1A63831  37.511  10.729   6.263
 4959POPC   D2A63832  37.678  10.372   6.468
 4959POPC   C3A63833  37.871  10.396   6.820
 4959POPC   C4A63834  37.771  10.613   7.133
 4959POPC   C1B63835  37.390  10.185   6.095
 4959POPC   C2B63836  37.321  10.028   6.547
 4959POPC   C3B63837  37.389  10.238   6.966
 4959POPC   C4B63838  37.540  10.243   7.405
 4960POPC   NC363839  44.111  43.644   5.306
 4960POPC   PO463840  43.648  44.162   5.258
 4960POPC   GL163841  43.918  44.081   5.684
 4960POPC   GL263842  43.988  43.712   5.797
 4960POPC   C1A63843  43.760  43.987   6.156
 4960POPC   D2A63844  43.720  43.608   6.423
 4960POPC   C3A63845  43.777  43.581   6.874
 4960POPC   C4A63846  43.746  43.976   7.090
 4960POPC   C1B63847  44.257  43.944   6.091
 4960POPC   C2B63848  44.144  44.242   6.430
 4960POPC   C3B63849  44.291  44.189   6.862
 4960POPC   C4B63850  44.226  43.902   7.195
 4961POPC   NC363851  32.963  11.712   5.400
 4961POPC   PO463852  32.721  12.347   5.207
 4961POPC   GL163853  32.851  12.263   5.683
 4961POPC   GL263854  32.974  11.968   5.853
 4961POPC   C1A63855  32.917  12.406   6.130
 4961POPC   D2A63856  32.968  12.175   6.552
 4961POPC   C3A63857  33.280  12.144   6.880
 4961POPC   C4A63858  33.143  12.205   7.273
 4961POPC   C1B63859  32.866  11.774   6.239
 4961POPC   C2B63860  33.020  11.647   6.659
 4961POPC   C3B63861  32.991  11.709   7.126
 4961POPC   C4B63862  33.237  11.736   7.514
 4962POPC   NC363863  25.314  23.894   5.364
 4962POPC   PO463864  25.540  23.224   5.315
 4962POPC   GL163865  25.397  23.472   5.697
 4962POPC   GL263866  25.130  23.315   5.902
 4962POPC   C1A63867  25.405  23.728   6.111
 4962POPC   D2A63868  25.216  23.909   6.460
 4962POPC   C3A63869  25.228  23.662   6.835
 4962POPC   C4A63870  25.496  23.802   7.162
 4962POPC   C1B63871  25.101  23.401   6.366
 4962POPC   C2B63872  24.837  23.299   6.725
 4962POPC   C3B63873  24.836  23.433   7.133
 4962POPC   C4B63874  24.990  23.823   7.274
 4963POPC   NC363875  25.062  33.703   5.153
 4963POPC   PO463876  24.407  33.790   5.310
 4963POPC   GL163877  24.462  33.795   5.794
 4963POPC   GL263878  24.212  34.016   5.975
 4963POPC   C1A63879  24.684  33.919   6.210
 4963POPC   D2A63880  24.962  33.908   6.608
 4963POPC   C3A63881  24.732  33.876   7.015
 4963POPC   C4A63882  24.499  33.601   7.299
 4963POPC   C1B63883  24.209  33.633   6.281
 4963POPC   C2B63884  24.066  33.476   6.714
 4963POPC   C3B63885  24.052  33.734   7.106
 4963POPC   C4B63886  23.950  33.860   7.518
 4964POPC   NC363887  22.716  14.406   5.340
 4964POPC   PO463888  23.263  14.800   5.277
 4964POPC   GL163889  23.149  14.524   5.700
 4964POPC   GL263890  22.810  14.392   5.831
 4964POPC   C1A63891  23.169  14.358   6.171
 4964POPC   D2A63892  22.929  14.186   6.552
 4964POPC   C3A63893  23.019  14.367   6.968
 4964POPC   C4A63894  22.935  14.609   7.345
 4964POPC   C1B63895  22.586  14.459   6.213
 4964POPC   C2B63896  22.438  14.701   6.585
 4964POPC   C3B63897  22.514  14.533   7.019
 4964POPC   C4B63898  22.431  14.630   7.468
 4965POPC   NC363899  16.167  44.200   4.880
 4965POPC   PO463900  16.133  44.531   5.477
 4965POPC   GL163901  15.952  44.699   5.830
 4965POPC   GL263902  15.727  44.430   5.925
 4965POPC   C1A63903  16.178  44.705   6.204
 4965POPC   D2A63904  16.247  44.504   6.572
 4965POPC   C3A63905  16.109  44.707   6.948
 4965POPC   C4A63906  15.990  44.804   7.390
 4965POPC   C1B63907  15.706  44.587   6.346
 4965POPC   C2B63908  15.645  44.564   6.784
 4965POPC   C3B63909  15.597  44.504   7.215
 4965POPC   C4B63910  15.553  44.565   7.662
 4966POPC   NC363911  23.671  38.842   5.437
 4966POPC   PO463912  23.963  38.169   5.370
 4966POPC   GL163913  23.806  38.233   5.779
 4966POPC   GL263914  23.980  38.547   5.796
 4966POPC   C1A63915  23.578  38.240   6.184
 4966POPC   D2A63916  23.650  38.420   6.614
 4966POPC   C3A63917  23.487  38.362   7.031
 4966POPC   C4A63918  23.738  38.480   7.403
 4966POPC   C1B63919  24.015  38.537   6.243
 4966POPC   C2B63920  24.166  38.445   6.642
 4966POPC   C3B63921  24.024  38.314   7.004
 4966POPC   C4B63922  24.243  38.606   7.265
 4967POPC   NC363923   4.783  23.883   5.159
 4967POPC   PO463924   5.367  23.630   5.343
 4967POPC   GL163925   5.073  23.560   5.649
 4967POPC   GL263926   5.128  23.893   5.745
 4967POPC   C1A63927   4.970  23.479   6.096
 4967POPC   D2A63928   5.172  23.523   6.493
 4967POPC   C3A63929   5.073  23.644   6.927
 4967POPC   C4A63930   5.207  23.380   7.269
 4967POPC   C1B63931   5.285  23.920   6.167
 4967POPC   C2B63932   5.070  24.004   6.548
 4967POPC   C3B63933   4.797  24.086   6.899
 4967POPC   C4B63934   4.918  24.029   7.336
 4968POPC   NC363935  18.790  36.424   4.991
 4968POPC   PO463936  19.297  36.198   5.396
 4968POPC   GL163937  19.194  36.143   5.806
 4968POPC   GL263938  18.883  35.938   5.784
 4968POPC   C1A63939  19.183  35.942   6.212
 4968POPC   D2A63940  18.929  35.858   6.545
 4968POPC   C3A63941  19.163  35.870   6.915
 4968POPC   C4A63942  18.983  35.914   7.308
 4968POPC   C1B63943  18.778  36.258   6.126
 4968POPC   C2B63944  18.658  36.348   6.542
 4968POPC   C3B63945  18.709  36.178   6.944
 4968POPC   C4B63946  18.753  36.433   7.305
 4969POPC   NC363947  14.317  25.712   5.350
 4969POPC   PO463948  14.503  26.363   5.607
 4969POPC   GL163949  14.287  26.121   5.806
 4969POPC   GL263950  14.491  25.841   5.806
 4969POPC   C1A63951  14.142  26.050   6.204
 4969POPC   D2A63952  14.383  26.132   6.574
 4969POPC   C3A63953  14.184  26.064   6.968
 4969POPC   C4A63954  14.265  26.210   7.406
 4969POPC   C1B63955  14.721  25.787   6.169
 4969POPC   C2B63956  14.645  25.651   6.588
 4969POPC   C3B63957  14.663  25.908   6.968
 4969POPC   C4B63958  14.547  25.789   7.375
 4970POPC   NC363959  21.848  31.175   5.011
 4970POPC   PO463960  22.063  31.659   5.444
 4970POPC   GL163961  22.200  31.285   5.724
 4970POPC   GL263962  22.572  31.285   5.865
 4970POPC   C1A63963  21.970  31.178   6.111
 4970POPC   D2A63964  21.965  31.448   6.483
 4970POPC   C3A63965  22.002  31.317   6.900
 4970POPC   C4A63966  22.047  31.514   7.304
 4970POPC   C1B63967  22.431  31.243   6.301
 4970POPC   C2B63968  22.486  31.378   6.723
 4970POPC   C3B63969  22.445  31.253   7.149
 4970POPC   C4B63970  22.224  30.946   7.371
 4971POPC   NC363971  40.512  44.926   5.302
 4971POPC   PO463972  40.655  44.335   5.326
 4971POPC   GL163973  40.635  44.400   5.772
 4971POPC   GL263974  40.316  44.276   5.818
 4971POPC   C1A63975  40.561  44.590   6.201
 4971POPC   D2A63976  40.627  44.955   6.520
 4971POPC   C3A63977  40.629  44.806   6.955
 4971POPC   C4A63978  40.980  44.749   7.207
 4971POPC   C1B63979  40.386  44.073   6.195
 4971POPC   C2B63980  40.570  44.188   6.560
 4971POPC   C3B63981  40.475  44.311   6.969
 4971POPC   C4B63982  40.598  44.419   7.399
 4972POPC   NC363983  39.699  36.946   5.328
 4972POPC   PO463984  40.325  36.872   5.191
 4972POPC   GL163985  40.113  36.726   5.642
 4972POPC   GL263986  39.921  36.986   5.798
 4972POPC   C1A63987  40.019  36.603   6.132
 4972POPC   D2A63988  40.001  36.420   6.566
 4972POPC   C3A63989  40.105  36.776   6.819
 4972POPC   C4A63990  39.913  36.970   7.186
 4972POPC   C1B63991  40.078  37.124   6.192
 4972POPC   C2B63992  40.000  37.245   6.613
 4972POPC   C3B63993  40.189  37.358   6.981
 4972POPC   C4B63994  40.257  37.282   7.393
 4973POPC   NC363995  25.663  10.626   5.563
 4973POPC   PO463996  25.051  10.911   5.393
 4973POPC   GL163997  25.229  10.834   5.766
 4973POPC   GL263998  25.247  10.487   5.845
 4973POPC   C1A63999  25.286  10.850   6.199
 4973POPC   D2A64000  25.448  10.671   6.566
 4973POPC   C3A64001  25.198  10.594   6.913
 4973POPC   C4A64002  25.260  10.730   7.302
 4973POPC   C1B64003  25.447  10.304   6.189
 4973POPC   C2B64004  25.208  10.197   6.559
 4973POPC   C3B64005  25.388  10.129   6.948
 4973POPC   C4B64006  25.352  10.235   7.352
 4974POPC   NC364007  15.172  39.962   5.208
 4974POPC   PO464008  14.693  40.413   5.418
 4974POPC   GL164009  14.949  40.186   5.721
 4974POPC   GL264010  15.321  40.099   5.689
 4974POPC   C1A64011  15.033  40.106   6.144
 4974POPC   D2A64012  15.343  40.133   6.450
 4974POPC   C3A64013  15.088  40.019   6.774
 4974POPC   C4A64014  15.092  40.009   7.198
 4974POPC   C1B64015  15.375  39.766   6.018
 4974POPC   C2B64016  15.358  39.618   6.481
 4974POPC   C3B64017  15.466  39.713   6.943
 4974POPC   C4B64018  15.601  39.822   7.402
 4975POPC   NC364019   7.590   4.015   5.519
 4975POPC   PO464020   7.123   4.474   5.508
 4975POPC   GL164021   7.312   4.288   5.862
 4975POPC   GL264022   7.707   4.308   5.928
 4975POPC   C1A64023   7.334   4.406   6.257
 4975POPC   D2A64024   7.503   4.279   6.635
 4975POPC   C3A64025   7.299   4.361   6.987
 4975POPC   C4A64026   7.271   4.538   7.337
 4975POPC   C1B64027   7.707   3.951   6.243
 4975POPC   C2B64028   7.763   3.847   6.709
 4975POPC   C3B64029   7.533   3.929   7.106
 4975POPC   C4B64030   7.657   4.210   7.482
 4976POPC   NC364031  26.542  44.042   5.390
 4976POPC   PO464032  27.191  44.108   5.361
 4976POPC   GL164033  26.984  43.894   5.732
 4976POPC   GL264034  27.163  43.647   5.921
 4976POPC   C1A64035  26.725  43.884   6.138
 4976POPC   D2A64036  26.788  43.995   6.602
 4976POPC   C3A64037  26.533  43.917   6.979
 4976POPC   C4A64038  26.509  44.092   7.409
 4976POPC   C1B64039  27.274  43.368   6.247
 4976POPC   C2B64040  27.139  43.302   6.663
 4976POPC   C3B64041  27.060  43.645   6.961
 4976POPC   C4B64042  26.980  43.984   7.243
 4977POPC   NC364043  13.712  17.733   5.396
 4977POPC   PO464044  13.165  17.503   5.650
 4977POPC   GL164045  13.392  17.376   5.948
 4977POPC   GL264046  13.715  17.320   5.771
 4977POPC   C1A64047  13.287  17.479   6.372
 4977POPC   D2A64048  13.494  17.562   6.726
 4977POPC   C3A64049  13.480  17.251   7.021
 4977POPC   C4A64050  13.425  17.569   7.277
 4977POPC   C1B64051  13.829  17.299   6.230
 4977POPC   C2B64052  13.959  17.390   6.700
 4977POPC   C3B64053  13.959  17.322   7.181
 4977POPC   C4B64054  14.107  17.275   7.596
 4978POPC   NC364055  20.153   8.283   5.234
 4978POPC   PO464056  19.631   7.890   5.464
 4978POPC   GL164057  19.943   8.159   5.731
 4978POPC   GL264058  20.207   7.978   5.709
 4978POPC   C1A64059  19.955   8.315   6.172
 4978POPC   D2A64060  20.163   8.272   6.583
 4978POPC   C3A64061  19.974   8.466   6.946
 4978POPC   C4A64062  19.869   8.255   7.312
 4978POPC   C1B64063  19.937   7.802   6.092
 4978POPC   C2B64064  19.809   7.890   6.483
 4978POPC   C3B64065  19.902   7.929   6.891
 4978POPC   C4B64066  19.755   7.748   7.253
 4979POPC   NC364067   0.948  29.037   5.366
 4979POPC   PO464068   1.533  29.317   5.434
 4979POPC   GL164069   1.247  29.164   5.766
 4979POPC   GL264070   0.960  28.921   5.854
 4979POPC   C1A64071   1.097  29.326   6.155
 4979POPC   D2A64072   1.238  29.516   6.503
 4979POPC   C3A64073   1.055  29.457   6.880
 4979POPC   C4A64074   1.257  29.417   7.267
 4979POPC   C1B64075   1.261  28.847   6.171
 4979POPC   C2B64076   1.140  28.847   6.580
 4979POPC   C3B64077   0.963  28.958   6.964
 4979POPC   C4B64078   1.213  28.901   7.280
 4980POPC   NC364079  39.890  16.593   5.164
 4980POPC   PO464080  40.186  16.890   5.621
 4980POPC   GL164081  39.923  16.996   5.916
 4980POPC   GL264082  39.771  16.661   5.853
 4980POPC   C1A64083  40.010  17.150   6.342
 4980POPC   D2A64084  39.998  16.910   6.683
 4980POPC   C3A64085  40.169  16.988   7.091
 4980POPC   C4A64086  40.102  16.568   7.236
 4980POPC   C1B64087  40.026  16.621   6.239
 4980POPC   C2B64088  39.984  16.372   6.591
 4980POPC   C3B64089  39.763  16.329   6.952
 4980POPC   C4B64090  39.683  16.232   7.354
 4981POPC   NC364091  43.347  42.792   5.378
 4981POPC   PO464092  43.097  42.145   5.433
 4981POPC   GL164093  43.200  42.213   5.821
 4981POPC   GL264094  43.125  42.569   5.784
 4981POPC   C1A64095  43.359  42.052   6.227
 4981POPC   D2A64096  43.265  41.850   6.631
 4981POPC   C3A64097  43.114  42.033   7.026
 4981POPC   C4A64098  43.024  41.951   7.494
 4981POPC   C1B64099  43.268  42.553   6.182
 4981POPC   C2B64100  43.120  42.397   6.563
 4981POPC   C3B64101  42.956  42.517   6.935
 4981POPC   C4B64102  42.994  42.424   7.347
 4982POPC   NC364103   8.386  12.234   5.413
 4982POPC   PO464104   9.055  12.158   5.156
 4982POPC   GL164105   8.916  12.060   5.627
 4982POPC   GL264106   8.575  12.112   5.867
 4982POPC   C1A64107   9.039  12.124   6.090
 4982POPC   D2A64108   8.718  12.113   6.423
 4982POPC   C3A64109   8.816  12.035   6.854
 4982POPC   C4A64110   9.156  11.953   7.167
 4982POPC   C1B64111   8.404  12.448   6.168
 4982POPC   C2B64112   8.576  12.614   6.557
 4982POPC   C3B64113   8.508  12.441   6.974
 4982POPC   C4B64114   8.781  12.259   7.315
 4983POPC   NC364115  42.581  35.919   5.129
 4983POPC   PO464116  42.494  36.590   5.308
 4983POPC   GL164117  42.499  36.301   5.699
 4983POPC   GL264118  42.151  36.338   5.795
 4983POPC   C1A64119  42.687  36.161   6.141
 4983POPC   D2A64120  42.725  35.870   6.528
 4983POPC   C3A64121  42.734  36.088   6.894
 4983POPC   C4A64122  42.559  35.995   7.312
 4983POPC   C1B64123  42.182  36.033   6.119
 4983POPC   C2B64124  42.319  36.178   6.523
 4983POPC   C3B64125  42.228  36.098   6.926
 4983POPC   C4B64126  42.124  36.276   7.280
 4984POPC   NC364127  14.319  29.247   5.328
 4984POPC   PO464128  14.818  28.871   5.612
 4984POPC   GL164129  14.510  28.917   5.916
 4984POPC   GL264130  14.188  28.969   5.782
 4984POPC   C1A64131  14.295  28.783   6.288
 4984POPC   D2A64132  14.431  28.972   6.635
 4984POPC   C3A64133  14.235  28.842   6.968
 4984POPC   C4A64134  14.298  29.009   7.335
 4984POPC   C1B64135  14.148  29.258   6.150
 4984POPC   C2B64136  14.184  29.419   6.571
 4984POPC   C3B64137  14.355  29.409   7.004
 4984POPC   C4B64138  14.069  29.453   7.376
 4985POPC   NC364139  24.363  37.868   5.266
 4985POPC   PO464140  24.531  37.228   5.130
 4985POPC   GL164141  24.387  37.461   5.583
 4985POPC   GL264142  24.077  37.666   5.674
 4985POPC   C1A64143  24.470  37.668   6.035
 4985POPC   D2A64144  24.777  37.648   6.425
 4985POPC   C3A64145  24.703  37.551   6.877
 4985POPC   C4A64146  24.635  37.795   7.253
 4985POPC   C1B64147  24.050  37.412   6.094
 4985POPC   C2B64148  24.256  37.567   6.513
 4985POPC   C3B64149  24.227  37.764   6.945
 4985POPC   C4B64150  24.025  37.619   7.314
 4986POPC   NC364151   6.277  11.458   5.349
 4986POPC   PO464152   5.892  10.916   5.316
 4986POPC   GL164153   5.749  11.179   5.720
 4986POPC   GL264154   5.566  11.521   5.704
 4986POPC   C1A64155   5.933  11.388   6.137
 4986POPC   D2A64156   6.041  11.649   6.531
 4986POPC   C3A64157   6.009  11.452   6.959
 4986POPC   C4A64158   6.180  11.236   7.306
 4986POPC   C1B64159   5.429  11.412   6.146
 4986POPC   C2B64160   5.618  11.313   6.584
 4986POPC   C3B64161   5.424  11.431   6.989
 4986POPC   C4B64162   5.492  11.500   7.448
 4987POPC   NC364163  28.205   2.352   5.550
 4987POPC   PO464164  28.111   3.028   5.545
 4987POPC   GL164165  28.385   2.848   5.893
 4987POPC   GL264166  28.409   2.490   6.000
 4987POPC   C1A64167  28.512   2.941   6.332
 4987POPC   D2A64168  28.312   3.117   6.701
 4987POPC   C3A64169  28.408   3.056   7.140
 4987POPC   C4A64170  28.285   3.175   7.551
 4987POPC   C1B64171  28.091   2.629   6.326
 4987POPC   C2B64172  28.043   2.702   6.777
 4987POPC   C3B64173  28.344   2.555   7.074
 4987POPC   C4B64174  28.731   2.534   7.347
 4988POPC   NC364175   7.417  43.573   5.149
 4988POPC   PO464176   7.205  43.436   5.729
 4988POPC   GL164177   7.484  43.761   5.958
 4988POPC   GL264178   7.474  44.082   5.837
 4988POPC   C1A64179   7.586  43.787   6.367
 4988POPC   D2A64180   7.315  43.908   6.679
 4988POPC   C3A64181   7.576  43.886   7.023
 4988POPC   C4A64182   7.573  43.667   7.405
 4988POPC   C1B64183   7.179  44.139   6.201
 4988POPC   C2B64184   7.092  44.368   6.590
 4988POPC   C3B64185   7.038  44.246   7.035
 4988POPC   C4B64186   7.304  44.128   7.389
 4989POPC   NC364187  11.193  14.395   5.430
 4989POPC   PO464188  11.848  14.539   5.508
 4989POPC   GL164189  11.490  14.509   5.824
 4989POPC   GL264190  11.469  14.845   5.835
 4989POPC   C1A64191  11.153  14.410   6.176
 4989POPC   D2A64192  10.933  14.207   6.569
 4989POPC   C3A64193  11.163  14.247   6.984
 4989POPC   C4A64194  11.612  14.164   7.048
 4989POPC   C1B64195  11.517  14.764   6.283
 4989POPC   C2B64196  11.343  14.615   6.671
 4989POPC   C3B64197  11.473  14.679   7.106
 4989POPC   C4B64198  11.793  14.512   7.393
 4990POPC   NC364199  36.336  11.835   5.389
 4990POPC   PO464200  35.872  12.369   5.570
 4990POPC   GL164201  36.065  12.007   5.786
 4990POPC   GL264202  35.812  11.923   6.052
 4990POPC   C1A64203  36.347  11.834   6.089
 4990POPC   D2A64204  36.208  11.893   6.513
 4990POPC   C3A64205  36.368  11.840   6.942
 4990POPC   C4A64206  36.229  11.826   7.388
 4990POPC   C1B64207  35.867  12.254   6.386
 4990POPC   C2B64208  36.182  12.348   6.731
 4990POPC   C3B64209  36.241  12.296   7.187
 4990POPC   C4B64210  35.901  12.218   7.510
 4991POPC   NC364211  36.200   8.603   5.504
 4991POPC   PO464212  35.995   9.251   5.453
 4991POPC   GL164213  36.127   9.045   5.796
 4991POPC   GL264214  35.885   8.771   5.872
 4991POPC   C1A64215  36.149   9.167   6.229
 4991POPC   D2A64216  35.932   9.376   6.598
 4991POPC   C3A64217  36.189   9.291   6.958
 4991POPC   C4A64218  36.100   9.018   7.237
 4991POPC   C1B64219  36.250   8.673   6.185
 4991POPC   C2B64220  36.475   8.668   6.625
 4991POPC   C3B64221  36.360   8.599   7.100
 4991POPC   C4B64222  35.997   8.546   7.410
 4992POPC   NC364223   7.412   8.294   5.491
 4992POPC   PO464224   6.883   7.775   5.509
 4992POPC   GL164225   7.087   7.988   5.821
 4992POPC   GL264226   7.431   7.937   5.850
 4992POPC   C1A64227   7.183   8.106   6.257
 4992POPC   D2A64228   7.370   8.349   6.568
 4992POPC   C3A64229   7.237   8.350   6.997
 4992POPC   C4A64230   7.569   8.441   7.290
 4992POPC   C1B64231   7.654   7.860   6.222
 4992POPC   C2B64232   7.509   7.848   6.652
 4992POPC   C3B64233   7.575   7.977   7.079
 4992POPC   C4B64234   7.660   7.990   7.536
 4993POPC   NC364235   6.529  23.026   5.600
 4993POPC   PO464236   7.046  22.634   5.399
 4993POPC   GL164237   6.738  22.602   5.790
 4993POPC   GL264238   6.332  22.564   5.786
 4993POPC   C1A64239   6.636  22.797   6.208
 4993POPC   D2A64240   6.337  23.091   6.410
 4993POPC   C3A64241   6.414  23.121   6.833
 4993POPC   C4A64242   6.810  23.022   7.082
 4993POPC   C1B64243   6.159  22.636   6.229
 4993POPC   C2B64244   6.355  22.618   6.657
 4993POPC   C3B64245   6.348  22.696   7.119
 4993POPC   C4B64246   6.288  22.547   7.546
 4994POPC   NC364247  33.297  41.568   5.367
 4994POPC   PO464248  32.641  41.476   5.495
 4994POPC   GL164249  33.012  41.463   5.796
 4994POPC   GL264250  33.299  41.202   5.718
 4994POPC   C1A64251  33.018  41.653   6.233
 4994POPC   D2A64252  32.771  41.791   6.600
 4994POPC   C3A64253  32.785  41.499   6.943
 4994POPC   C4A64254  33.035  41.678   7.317
 4994POPC   C1B64255  33.403  41.320   6.114
 4994POPC   C2B64256  33.517  41.512   6.482
 4994POPC   C3B64257  33.266  41.480   6.851
 4994POPC   C4B64258  33.253  41.213   7.246
 4995POPC   NC364259  34.048  33.867   5.276
 4995POPC   PO464260  33.479  33.628   5.473
 4995POPC   GL164261  33.753  33.940   5.742
 4995POPC   GL264262  34.126  33.851   5.794
 4995POPC   C1A64263  33.868  34.098   6.170
 4995POPC   D2A64264  33.854  33.789   6.546
 4995POPC   C3A64265  33.895  33.936   6.974
 4995POPC   C4A64266  33.821  33.844   7.437
 4995POPC   C1B64267  34.122  33.572   6.174
 4995POPC   C2B64268  34.274  33.434   6.611
 4995POPC   C3B64269  34.236  33.564   7.064
 4995POPC   C4B64270  34.074  33.378   7.433
 4996POPC   NC364271  19.949  10.097   5.488
 4996POPC   PO464272  19.471   9.668   5.437
 4996POPC   GL164273  19.741   9.687   5.812
 4996POPC   GL264274  19.571   9.395   5.983
 4996POPC   C1A64275  20.011   9.965   6.121
 4996POPC   D2A64276  20.160  10.040   6.546
 4996POPC   C3A64277  20.060   9.670   6.790
 4996POPC   C4A64278  19.955   9.815   7.179
 4996POPC   C1B64279  19.571   9.732   6.299
 4996POPC   C2B64280  19.353   9.816   6.676
 4996POPC   C3B64281  19.566   9.602   6.961
 4996POPC   C4B64282  19.567   9.619   7.416
 4997POPC   NC364283  32.217  29.883   4.991
 4997POPC   PO464284  31.786  29.514   5.374
 4997POPC   GL164285  32.030  29.783   5.734
 4997POPC   GL264286  31.998  30.136   5.891
 4997POPC   C1A64287  32.158  29.790   6.211
 4997POPC   D2A64288  31.980  29.818   6.652
 4997POPC   C3A64289  32.264  29.875   7.030
 4997POPC   C4A64290  32.389  29.777   7.483
 4997POPC   C1B64291  31.878  30.229   6.310
 4997POPC   C2B64292  32.078  30.326   6.681
 4997POPC   C3B64293  31.902  30.249   7.034
 4997POPC   C4B64294  32.022  30.116   7.409
 4998POPC   NC364295  35.674   0.115   5.463
 4998POPC   PO464296  36.322   0.186   5.453
 4998POPC   GL164297  36.191   0.317   5.826
 4998POPC   GL264298  35.888   0.394   5.856
 4998POPC   C1A64299  36.361   0.303   6.225
 4998POPC   D2A64300  36.202   0.453   6.575
 4998POPC   C3A64301  36.400   0.296   6.901
 4998POPC   C4A64302  36.320   0.348   7.317
 4998POPC   C1B64303  35.810   0.563   6.251
 4998POPC   C2B64304  35.655   0.424   6.645
 4998POPC   C3B64305  35.895   0.423   7.000
 4998POPC   C4B64306  35.892   0.650   7.345
 4999POPC   NC364307  42.188  24.679   5.641
 4999POPC   PO464308  42.468  24.292   5.218
 4999POPC   GL164309  42.571  24.355   5.712
 4999POPC   GL264310  42.301  24.236   5.877
 4999POPC   C1A64311  42.487  24.558   6.192
 4999POPC   D2A64312  42.434  24.343   6.586
 4999POPC   C3A64313  42.242  24.505   6.983
 4999POPC   C4A64314  42.396  24.695   7.375
 4999POPC   C1B64315  42.135  24.065   6.255
 4999POPC   C2B64316  41.960  24.153   6.676
 4999POPC   C3B64317  41.929  24.129   7.121
 4999POPC   C4B64318  41.994  24.393   7.473
 5000POPC   NC364319  32.913  28.620   5.448
 5000POPC   PO464320  33.244  28.054   5.344
 5000POPC   GL164321  33.257  28.249   5.757
 5000POPC   GL264322  33.188  28.581   5.883
 5000POPC   C1A64323  33.333  28.233   6.214
 5000POPC   D2A64324  33.233  28.566   6.532
 5000POPC   C3A64325  33.098  28.386   6.914
 5000POPC   C4A64326  33.207  28.164   7.261
 5000POPC   C1B64327  32.854  28.439   6.178
 5000POPC   C2B64328  32.697  28.235   6.591
 5000POPC   C3B64329  32.605  28.409   7.009
 5000POPC   C4B64330  32.809  28.541   7.348
 5001POPC   NC364331  18.619  42.924   5.389
 5001POPC   PO464332  19.280  43.020   5.408
 5001POPC   GL164333  19.104  43.024   5.840
 5001POPC   GL264334  18.774  43.178   5.813
 5001POPC   C1A64335  19.131  43.128   6.306
 5001POPC   D2A64336  19.076  42.867   6.697
 5001POPC   C3A64337  19.122  42.965   7.146
 5001POPC   C4A64338  19.013  43.113   7.566
 5001POPC   C1B64339  18.678  43.385   6.200
 5001POPC   C2B64340  18.756  43.280   6.622
 5001POPC   C3B64341  18.675  43.220   7.045
 5001POPC   C4B64342  18.571  43.344   7.470
 5002POPC   NC364343  14.053  12.990   5.326
 5002POPC   PO464344  14.581  12.668   5.262
 5002POPC   GL164345  14.327  12.678   5.656
 5002POPC   GL264346  14.640  12.679   5.825
 5002POPC   C1A64347  14.108  12.738   6.086
 5002POPC   D2A64348  14.130  12.992   6.472
 5002POPC   C3A64349  14.159  12.791   6.894
 5002POPC   C4A64350  14.168  13.160   7.110
 5002POPC   C1B64351  14.587  12.912   6.200
 5002POPC   C2B64352  14.569  12.758   6.598
 5002POPC   C3B64353  14.666  12.894   6.992
 5002POPC   C4B64354  14.786  12.613   7.256
 5003POPC   NC364355   3.731  32.196   5.317
 5003POPC   PO464356   3.181  32.537   5.503
 5003POPC   GL164357   3.526  32.362   5.775
 5003POPC   GL264358   3.505  32.007   5.781
 5003POPC   C1A64359   3.656  32.350   6.230
 5003POPC   D2A64360   3.541  32.592   6.620
 5003POPC   C3A64361   3.442  32.390   7.008
 5003POPC   C4A64362   3.796  32.305   7.278
 5003POPC   C1B64363   3.661  31.845   6.182
 5003POPC   C2B64364   3.927  31.953   6.539
 5003POPC   C3B64365   3.876  31.891   6.975
 5003POPC   C4B64366   3.665  31.821   7.366
 5004POPC   NC364367  35.205  35.688   5.140
 5004POPC   PO464368  35.338  35.019   5.404
 5004POPC   GL164369  35.367  35.152   5.783
 5004POPC   GL264370  35.456  35.480   5.676
 5004POPC   C1A64371  35.207  35.174   6.180
 5004POPC   D2A64372  35.234  35.367   6.572
 5004POPC   C3A64373  35.341  35.276   6.996
 5004POPC   C4A64374  35.241  35.693   7.205
 5004POPC   C1B64375  35.380  35.630   6.087
 5004POPC   C2B64376  35.620  35.702   6.430
 5004POPC   C3B64377  35.604  35.689   6.843
 5004POPC   C4B64378  35.728  35.541   7.243
 5005POPC   NC364379   9.046   6.395   5.397
 5005POPC   PO464380   8.670   6.918   5.453
 5005POPC   GL164381   8.688   6.578   5.744
 5005POPC   GL264382   9.026   6.626   5.852
 5005POPC   C1A64383   8.661   6.558   6.212
 5005POPC   D2A64384   8.985   6.494   6.522
 5005POPC   C3A64385   8.908   6.356   6.920
 5005POPC   C4A64386   8.598   6.616   7.102
 5005POPC   C1B64387   9.328   6.579   6.153
 5005POPC   C2B64388   9.430   6.733   6.555
 5005POPC   C3B64389   9.151   6.817   6.909
 5005POPC   C4B64390   9.234   6.680   7.320
 5006POPC   NC364391  38.229  34.470   5.297
 5006POPC   PO464392  37.593  34.659   5.376
 5006POPC   GL164393  37.466  34.587   5.798
 5006POPC   GL264394  37.518  34.248   5.810
 5006POPC   C1A64395  37.661  34.556   6.218
 5006POPC   D2A64396  37.845  34.523   6.635
 5006POPC   C3A64397  37.629  34.739   6.986
 5006POPC   C4A64398  37.253  34.736   7.262
 5006POPC   C1B64399  37.570  34.028   6.185
 5006POPC   C2B64400  37.766  34.015   6.580
 5006POPC   C3B64401  37.610  34.167   6.964
 5006POPC   C4B64402  37.796  34.377   7.300
 5007POPC   NC364403  30.543  33.655   5.460
 5007POPC   PO464404  31.017  34.041   5.409
 5007POPC   GL164405  30.877  33.800   5.844
 5007POPC   GL264406  30.517  33.674   5.966
 5007POPC   C1A64407  30.868  33.799   6.329
 5007POPC   D2A64408  30.579  33.809   6.698
 5007POPC   C3A64409  30.769  33.676   7.077
 5007POPC   C4A64410  30.962  33.911   7.409
 5007POPC   C1B64411  30.249  33.608   6.341
 5007POPC   C2B64412  30.071  33.635   6.761
 5007POPC   C3B64413  30.281  33.454   7.116
 5007POPC   C4B64414  30.644  33.205   7.289
 5008POPC   NC364415  22.080   2.202   5.335
 5008POPC   PO464416  22.437   1.620   5.279
 5008POPC   GL164417  22.227   1.649   5.704
 5008POPC   GL264418  22.019   1.975   5.786
 5008POPC   C1A64419  22.088   1.626   6.151
 5008POPC   D2A64420  21.858   1.655   6.536
 5008POPC   C3A64421  22.129   1.668   6.878
 5008POPC   C4A64422  22.309   2.020   7.068
 5008POPC   C1B64423  21.876   2.110   6.207
 5008POPC   C2B64424  22.005   2.167   6.654
 5008POPC   C3B64425  21.794   2.042   7.032
 5008POPC   C4B64426  21.686   2.212   7.469
 5009POPC   NC364427  20.890   7.645   5.012
 5009POPC   PO464428  20.585   8.182   5.362
 5009POPC   GL164429  20.826   8.343   5.735
 5009POPC   GL264430  20.498   8.371   5.922
 5009POPC   C1A64431  20.955   8.306   6.154
 5009POPC   D2A64432  20.677   8.333   6.493
 5009POPC   C3A64433  20.798   8.314   6.923
 5009POPC   C4A64434  20.460   8.423   7.206
 5009POPC   C1B64435  20.386   8.011   6.187
 5009POPC   C2B64436  20.307   7.754   6.554
 5009POPC   C3B64437  20.399   7.953   6.962
 5009POPC   C4B64438  20.229   7.877   7.373
 5010POPC   NC364439  37.215  19.597   5.323
 5010POPC   PO464440  37.888  19.763   5.435
 5010POPC   GL164441  37.716  19.827   5.851
 5010POPC   GL264442  37.434  20.072   5.888
 5010POPC   C1A64443  37.774  19.614   6.256
 5010POPC   D2A64444  38.022  19.487   6.624
 5010POPC   C3A64445  37.862  19.587   7.038
 5010POPC   C4A64446  37.424  19.580   7.218
 5010POPC   C1B64447  37.663  20.123   6.271
 5010POPC   C2B64448  37.684  19.930   6.676
 5010POPC   C3B64449  37.621  20.071   7.081
 5010POPC   C4B64450  37.392  20.418   7.232
 5011POPC   NC364451   5.726  13.232   5.477
 5011POPC   PO464452   6.320  13.027   5.517
 5011POPC   GL164453   6.019  13.004   5.867
 5011POPC   GL264454   5.635  13.069   5.937
 5011POPC   C1A64455   5.932  12.751   6.227
 5011POPC   D2A64456   6.114  12.617   6.610
 5011POPC   C3A64457   6.054  12.992   6.870
 5011POPC   C4A64458   5.957  13.189   7.281
 5011POPC   C1B64459   5.433  12.856   6.276
 5011POPC   C2B64460   5.601  12.710   6.651
 5011POPC   C3B64461   5.577  12.872   7.041
 5011POPC   C4B64462   5.453  13.110   7.364
 5012POPC   NC364463  13.355  43.659   5.210
 5012POPC   PO464464  13.843  43.997   5.202
 5012POPC   GL164465  13.646  43.852   5.618
 5012POPC   GL264466  13.632  43.478   5.646
 5012POPC   C1A64467  13.769  43.728   6.056
 5012POPC   D2A64468  13.606  43.884   6.451
 5012POPC   C3A64469  13.838  43.798   6.782
 5012POPC   C4A64470  13.771  43.938   7.183
 5012POPC   C1B64471  13.416  43.354   6.079
 5012POPC   C2B64472  13.409  43.440   6.565
 5012POPC   C3B64473  13.342  43.732   6.928
 5012POPC   C4B64474  13.348  43.776   7.398
 5013POPC   NC364475  36.350  42.971   5.455
 5013POPC   PO464476  36.083  43.656   5.414
 5013POPC   GL164477  36.052  43.400   5.807
 5013POPC   GL264478  36.122  43.035   5.896
 5013POPC   C1A64479  36.267  43.446   6.202
 5013POPC   D2A64480  36.517  43.355   6.586
 5013POPC   C3A64481  36.269  43.375   6.956
 5013POPC   C4A64482  36.262  43.221   7.366
 5013POPC   C1B64483  36.428  42.955   6.225
 5013POPC   C2B64484  36.269  42.919   6.643
 5013POPC   C3B64485  36.185  42.818   7.053
 5013POPC   C4B64486  35.947  42.746   7.414
 5014POPC   NC364487  38.733  28.669   5.461
 5014POPC   PO464488  38.242  28.204   5.400
 5014POPC   GL164489  38.424  28.357   5.776
 5014POPC   GL264490  38.284  28.676   5.781
 5014POPC   C1A64491  38.515  28.183   6.195
 5014POPC   D2A64492  38.505  27.958   6.586
 5014POPC   C3A64493  38.576  28.148   6.979
 5014POPC   C4A64494  38.693  27.973   7.364
 5014POPC   C1B64495  38.480  28.712   6.186
 5014POPC   C2B64496  38.583  28.566   6.590
 5014POPC   C3B64497  38.841  28.585   6.948
 5014POPC   C4B64498  38.702  28.480   7.386
 5015POPC   NC364499  14.395  37.006   5.326
 5015POPC   PO464500  13.965  36.515   5.557
 5015POPC   GL164501  14.221  36.827   5.801
 5015POPC   GL264502  14.220  37.197   5.788
 5015POPC   C1A64503  14.416  36.794   6.227
 5015POPC   D2A64504  14.268  36.837   6.666
 5015POPC   C3A64505  14.491  36.783   7.050
 5015POPC   C4A64506  14.733  37.105   7.261
 5015POPC   C1B64507  14.596  37.257   6.089
 5015POPC   C2B64508  14.701  37.193   6.528
 5015POPC   C3B64509  14.453  37.307   6.892
 5015POPC   C4B64510  14.139  37.130   7.191
 5016POPC   NC364511  25.315   7.258   5.393
 5016POPC   PO464512  25.173   7.871   5.525
 5016POPC   GL164513  25.315   7.569   5.806
 5016POPC   GL264514  25.038   7.328   5.862
 5016POPC   C1A64515  25.253   7.631   6.227
 5016POPC   D2A64516  24.918   7.662   6.507
 5016POPC   C3A64517  25.115   7.737   6.888
 5016POPC   C4A64518  25.164   7.662   7.310
 5016POPC   C1B64519  25.243   7.132   6.204
 5016POPC   C2B64520  25.268   7.272   6.613
 5016POPC   C3B64521  25.137   7.218   7.022
 5016POPC   C4B64522  25.546   7.320   7.137
 5017POPC   NC364523  35.816  26.989   5.409
 5017POPC   PO464524  36.141  26.434   5.364
 5017POPC   GL164525  36.187  26.643   5.773
 5017POPC   GL264526  35.845  26.736   5.863
 5017POPC   C1A64527  36.255  26.592   6.244
 5017POPC   D2A64528  36.481  26.645   6.647
 5017POPC   C3A64529  36.377  26.674   7.111
 5017POPC   C4A64530  36.239  26.969   7.471
 5017POPC   C1B64531  35.729  26.548   6.267
 5017POPC   C2B64532  35.937  26.558   6.668
 5017POPC   C3B64533  35.898  26.781   7.051
 5017POPC   C4B64534  35.968  26.571   7.443
 5018POPC   NC364535   7.320  15.441   5.432
 5018POPC   PO464536   7.301  14.811   5.286
 5018POPC   GL164537   7.409  15.007   5.766
 5018POPC   GL264538   7.736  15.169   5.765
 5018POPC   C1A64539   7.147  14.989   6.214
 5018POPC   D2A64540   7.148  14.703   6.581
 5018POPC   C3A64541   7.173  14.901   6.981
 5018POPC   C4A64542   7.260  15.073   7.410
 5018POPC   C1B64543   7.549  15.338   6.191
 5018POPC   C2B64544   7.434  15.186   6.612
 5018POPC   C3B64545   7.409  15.365   7.020
 5018POPC   C4B64546   7.534  15.677   7.263
 5019POPC   NC364547  36.202  11.056   5.364
 5019POPC   PO464548  35.821  11.606   5.447
 5019POPC   GL164549  36.053  11.469   5.794
 5019POPC   GL264550  35.938  11.124   5.799
 5019POPC   C1A64551  35.981  11.478   6.247
 5019POPC   D2A64552  36.200  11.419   6.654
 5019POPC   C3A64553  35.936  11.497   6.957
 5019POPC   C4A64554  36.008  11.376   7.333
 5019POPC   C1B64555  36.120  10.942   6.188
 5019POPC   C2B64556  36.303  10.920   6.603
 5019POPC   C3B64557  36.123  10.937   7.033
 5019POPC   C4B64558  36.275  10.978   7.485
 5020POPC   NC364559  36.137   4.675   5.434
 5020POPC   PO464560  36.544   4.197   5.268
 5020POPC   GL164561  36.311   4.272   5.709
 5020POPC   GL264562  35.939   4.253   5.841
 5020POPC   C1A64563  36.290   4.501   6.143
 5020POPC   D2A64564  36.375   4.315   6.566
 5020POPC   C3A64565  36.185   4.464   6.934
 5020POPC   C4A64566  36.306   4.691   7.302
 5020POPC   C1B64567  36.004   4.038   6.281
 5020POPC   C2B64568  36.004   3.971   6.749
 5020POPC   C3B64569  35.851   4.135   7.132
 5020POPC   C4B64570  36.092   4.120   7.526
 5021POPC   NC364571  15.534  44.655   5.506
 5021POPC   PO464572  14.979  44.905   5.779
 5021POPC   GL164573  15.269  44.683   5.942
 5021POPC   GL264574  15.518  44.928   5.980
 5021POPC   C1A64575  15.213  44.437   6.282
 5021POPC   D2A64576  14.966  44.312   6.618
 5021POPC   C3A64577  15.153  44.348   7.008
 5021POPC   C4A64578  15.132  44.616   7.363
 5021POPC   C1B64579  15.314  44.935   6.397
 5021POPC   C2B64580  15.197  44.814   6.806
 5021POPC   C3B64581  15.058   0.065   7.147
 5021POPC   C4B64582  14.903   0.278   7.517
 5022POPC   NC364583  28.071  44.806   5.499
 5022POPC   PO464584  28.675  44.495   5.420
 5022POPC   GL164585  28.493  44.484   5.824
 5022POPC   GL264586  28.713  44.748   5.984
 5022POPC   C1A64587  28.460  44.426   6.266
 5022POPC   D2A64588  28.518  44.742   6.566
 5022POPC   C3A64589  28.562  44.621   6.977
 5022POPC   C4A64590  28.304  44.365   7.189
 5022POPC   C1B64591  28.270  44.882   6.127
 5022POPC   C2B64592  28.044  44.955   6.506
 5022POPC   C3B64593  28.194  44.979   6.917
 5022POPC   C4B64594  28.071   0.231   7.218
 5023POPC   NC364595  22.702  24.998   5.417
 5023POPC   PO464596  23.174  25.512   5.483
 5023POPC   GL164597  23.029  25.483   5.870
 5023POPC   GL264598  22.962  25.126   5.850
 5023POPC   C1A64599  22.921  25.415   6.278
 5023POPC   D2A64600  22.937  25.038   6.545
 5023POPC   C3A64601  22.964  25.179   6.959
 5023POPC   C4A64602  23.094  25.073   7.365
 5023POPC   C1B64603  22.586  25.084   6.089
 5023POPC   C2B64604  22.424  24.956   6.482
 5023POPC   C3B64605  22.536  24.863   6.906
 5023POPC   C4B64606  22.620  24.933   7.333
 5024POPC   NC364607  38.870  22.367   5.404
 5024POPC   PO464608  38.999  21.828   5.106
 5024POPC   GL164609  39.014  21.981   5.667
 5024POPC   GL264610  39.284  22.204   5.760
 5024POPC   C1A64611  38.894  22.222   6.111
 5024POPC   D2A64612  39.122  22.446   6.488
 5024POPC   C3A64613  39.255  22.253   6.911
 5024POPC   C4A64614  39.056  22.087   7.307
 5024POPC   C1B64615  39.285  21.911   6.143
 5024POPC   C2B64616  39.513  21.965   6.535
 5024POPC   C3B64617  39.628  21.808   6.913
 5024POPC   C4B64618  39.463  21.787   7.296
 5025POPC   NC364619  18.086  26.969   5.589
 5025POPC   PO464620  17.586  26.571   5.530
 5025POPC   GL164621  17.592  26.816   5.892
 5025POPC   GL264622  17.225  26.848   6.008
 5025POPC   C1A64623  17.642  26.828   6.338
 5025POPC   D2A64624  17.312  26.791   6.658
 5025POPC   C3A64625  17.468  26.614   7.037
 5025POPC   C4A64626  17.803  26.476   7.367
 5025POPC   C1B64627  17.050  27.149   6.306
 5025POPC   C2B64628  16.964  27.185   6.737
 5025POPC   C3B64629  17.222  27.080   7.106
 5025POPC   C4B64630  17.524  27.210   7.439
 5026POPC   NC364631   5.062  22.290   5.285
 5026POPC   PO464632   4.686  21.726   5.517
 5026POPC   GL164633   4.858  22.110   5.737
 5026POPC   GL264634   5.237  22.207   5.764
 5026POPC   C1A64635   4.782  22.294   6.151
 5026POPC   D2A64636   4.944  22.438   6.552
 5026POPC   C3A64637   4.760  22.406   6.963
 5026POPC   C4A64638   5.122  22.379   7.180
 5026POPC   C1B64639   5.136  21.914   6.116
 5026POPC   C2B64640   4.963  21.947   6.503
 5026POPC   C3B64641   4.985  21.923   6.913
 5026POPC   C4B64642   5.292  21.732   7.160
 5027POPC   NC364643  20.554   8.652   5.460
 5027POPC   PO464644  20.932   9.179   5.379
 5027POPC   GL164645  20.757   9.027   5.795
 5027POPC   GL264646  20.394   8.882   5.889
 5027POPC   C1A64647  20.588   9.293   6.141
 5027POPC   D2A64648  20.249   9.317   6.435
 5027POPC   C3A64649  20.431   9.278   6.829
 5027POPC   C4A64650  20.390   8.938   7.104
 5027POPC   C1B64651  20.690   8.784   6.248
 5027POPC   C2B64652  20.711   8.831   6.717
 5027POPC   C3B64653  20.889   8.780   7.142
 5027POPC   C4B64654  20.942   8.447   7.429
 5028POPC   NC364655  44.719  40.701   5.466
 5028POPC   PO464656  44.761  40.064   5.299
 5028POPC   GL164657  44.741  40.070   5.759
 5028POPC   GL264658  44.956  40.347   5.784
 5028POPC   C1A64659  44.534  39.903   6.189
 5028POPC   D2A64660  44.342  39.891   6.646
 5028POPC   C3A64661  44.500  39.868   7.099
 5028POPC   C4A64662  44.503  39.799   7.582
 5028POPC   C1B64663  44.782  40.340   6.196
 5028POPC   C2B64664  44.858  40.066   6.569
 5028POPC   C3B64665  44.896  40.181   6.985
 5028POPC   C4B64666  44.620  40.327   7.274
 5029POPC   NC364667   5.085  28.270   5.164
 5029POPC   PO464668   5.177  28.899   5.234
 5029POPC   GL164669   5.075  28.556   5.630
 5029POPC   GL264670   5.137  28.179   5.650
 5029POPC   C1A64671   5.027  28.371   6.105
 5029POPC   D2A64672   4.814  28.365   6.535
 5029POPC   C3A64673   5.105  28.331   6.897
 5029POPC   C4A64674   5.094  28.306   7.338
 5029POPC   C1B64675   5.423  28.055   5.969
 5029POPC   C2B64676   5.424  28.075   6.424
 5029POPC   C3B64677   5.451  27.926   6.838
 5029POPC   C4B64678   5.556  28.198   7.150
 5030POPC   NC364679   0.759   3.387   5.487
 5030POPC   PO464680   0.080   3.663   5.418
 5030POPC   GL164681   0.370   3.600   5.754
 5030POPC   GL264682   0.233   3.258   5.772
 5030POPC   C1A64683   0.559   3.804   6.156
 5030POPC   D2A64684   0.734   3.896   6.601
 5030POPC   C3A64685   0.498   3.733   6.958
 5030POPC   C4A64686   0.504   3.645   7.405
 5030POPC   C1B64687   0.433   3.299   6.181
 5030POPC   C2B64688   0.526   3.311   6.619
 5030POPC   C3B64689   0.526   3.214   7.045
 5030POPC   C4B64690   0.197   3.225   7.338
 5031POPC   NC364691   1.393   5.209   5.399
 5031POPC   PO464692   0.711   5.356   5.330
 5031POPC   GL164693   0.891   5.123   5.736
 5031POPC   GL264694   1.254   5.051   5.848
 5031POPC   C1A64695   0.892   5.078   6.219
 5031POPC   D2A64696   0.814   4.880   6.635
 5031POPC   C3A64697   1.000   5.026   7.025
 5031POPC   C4A64698   1.006   5.435   7.230
 5031POPC   C1B64699   1.396   5.297   6.181
 5031POPC   C2B64700   1.284   5.222   6.597
 5031POPC   C3B64701   1.459   5.219   6.990
 5031POPC   C4B64702   1.492   5.529   7.276
 5032POPC   NC364703  13.012  24.782   5.325
 5032POPC   PO464704  13.069  24.125   5.500
 5032POPC   GL164705  12.921  24.434   5.752
 5032POPC   GL264706  13.229  24.607   5.778
 5032POPC   C1A64707  12.677  24.496   6.133
 5032POPC   D2A64708  12.755  24.316   6.525
 5032POPC   C3A64709  12.757  24.609   6.820
 5032POPC   C4A64710  12.760  24.474   7.216
 5032POPC   C1B64711  13.169  24.575   6.209
 5032POPC   C2B64712  13.267  24.422   6.575
 5032POPC   C3B64713  13.180  24.312   6.942
 5032POPC   C4B64714  13.264  24.491   7.322
 5033POPC   NC364715   2.848  18.839   5.820
 5033POPC   PO464716   2.635  19.337   5.509
 5033POPC   GL164717   2.716  19.317   5.944
 5033POPC   GL264718   3.071  19.363   6.006
 5033POPC   C1A64719   2.487  19.205   6.302
 5033POPC   D2A64720   2.467  18.892   6.627
 5033POPC   C3A64721   2.592  19.037   7.027
 5033POPC   C4A64722   2.362  19.257   7.331
 5033POPC   C1B64723   2.979  19.115   6.404
 5033POPC   C2B64724   2.940  18.705   6.641
 5033POPC   C3B64725   3.033  18.784   7.081
 5033POPC   C4B64726   3.056  19.249   7.127
 5034POPC   NC364727  41.025  12.325   5.490
 5034POPC   PO464728  41.736  12.560   5.500
 5034POPC   GL164729  41.540  12.789   5.878
 5034POPC   GL264730  41.307  13.092   5.816
 5034POPC   C1A64731  41.507  12.774   6.341
 5034POPC   D2A64732  41.810  12.936   6.641
 5034POPC   C3A64733  41.664  13.022   7.053
 5034POPC   C4A64734  41.312  12.754   7.156
 5034POPC   C1B64735  41.557  13.238   6.157
 5034POPC   C2B64736  41.454  13.287   6.605
 5034POPC   C3B64737  41.202  13.240   6.999
 5034POPC   C4B64738  41.291  13.169   7.454
 5035POPC   NC364739  33.929   0.009   5.446
 5035POPC   PO464740  33.824  44.352   5.519
 5035POPC   GL164741  33.752  44.606   5.889
 5035POPC   GL264742  33.465  44.832   5.831
 5035POPC   C1A64743  34.057  44.763   6.212
 5035POPC   D2A64744  34.254  44.555   6.593
 5035POPC   C3A64745  34.048  44.522   7.000
 5035POPC   C4A64746  33.610  44.524   7.102
 5035POPC   C1B64747  33.476  44.822   6.289
 5035POPC   C2B64748  33.748  44.724   6.619
 5035POPC   C3B64749  34.041  44.989   6.843
 5035POPC   C4B64750  33.738   0.024   7.151
 5036POPC   NC364751  39.337  41.902   5.382
 5036POPC   PO464752  38.950  42.391   5.321
 5036POPC   GL164753  39.143  42.231   5.730
 5036POPC   GL264754  38.958  41.934   5.801
 5036POPC   C1A64755  39.307  42.326   6.161
 5036POPC   D2A64756  39.170  42.590   6.530
 5036POPC   C3A64757  39.282  42.455   6.949
 5036POPC   C4A64758  39.415  42.635   7.334
 5036POPC   C1B64759  38.844  42.115   6.215
 5036POPC   C2B64760  39.001  42.108   6.664
 5036POPC   C3B64761  39.001  42.035   7.129
 5036POPC   C4B64762  39.067  42.046   7.629
 5037POPC   NC364763   7.099   3.350   4.955
 5037POPC   PO464764   7.545   3.592   5.337
 5037POPC   GL164765   7.544   3.533   5.742
 5037POPC   GL264766   7.186   3.411   5.737
 5037POPC   C1A64767   7.481   3.462   6.162
 5037POPC   D2A64768   7.196   3.355   6.471
 5037POPC   C3A64769   7.383   3.507   6.831
 5037POPC   C4A64770   7.438   3.387   7.242
 5037POPC   C1B64771   7.163   3.812   5.985
 5037POPC   C2B64772   7.222   3.898   6.426
 5037POPC   C3B64773   7.083   3.911   6.837
 5037POPC   C4B64774   7.024   3.647   7.181
 5038POPC   NC364775  10.445  20.469   5.380
 5038POPC   PO464776  10.777  21.131   5.424
 5038POPC   GL164777  10.495  20.848   5.728
 5038POPC   GL264778  10.657  20.539   5.858
 5038POPC   C1A64779  10.232  20.706   6.122
 5038POPC   D2A64780  10.070  20.570   6.568
 5038POPC   C3A64781  10.261  20.695   7.000
 5038POPC   C4A64782  10.551  20.787   7.375
 5038POPC   C1B64783  10.795  20.494   6.281
 5038POPC   C2B64784  10.659  20.417   6.720
 5038POPC   C3B64785  10.804  20.403   7.149
 5038POPC   C4B64786  10.889  20.439   7.611
 5039POPC   NC364787  29.923  27.905   5.493
 5039POPC   PO464788  29.565  27.427   5.524
 5039POPC   GL164789  29.599  27.670   5.910
 5039POPC   GL264790  29.541  28.011   5.829
 5039POPC   C1A64791  29.754  27.578   6.359
 5039POPC   D2A64792  29.657  27.336   6.769
 5039POPC   C3A64793  29.869  27.374   7.176
 5039POPC   C4A64794  29.945  27.715   7.485
 5039POPC   C1B64795  29.862  28.039   6.157
 5039POPC   C2B64796  30.073  27.946   6.545
 5039POPC   C3B64797  29.894  27.851   6.926
 5039POPC   C4B64798  29.820  28.133   7.234
 5040POPC   NC364799  39.458  12.758   5.045
 5040POPC   PO464800  39.120  13.130   5.521
 5040POPC   GL164801  39.148  12.842   5.820
 5040POPC   GL264802  39.456  12.942   5.936
 5040POPC   C1A64803  39.093  12.834   6.265
 5040POPC   D2A64804  39.250  12.614   6.575
 5040POPC   C3A64805  39.090  12.737   6.945
 5040POPC   C4A64806  38.950  13.090   7.215
 5040POPC   C1B64807  39.639  12.864   6.291
 5040POPC   C2B64808  39.662  13.062   6.651
 5040POPC   C3B64809  39.349  13.182   6.879
 5040POPC   C4B64810  39.453  12.962   7.231
 5041POPC   NC364811  31.261   3.767   5.258
 5041POPC   PO464812  31.817   3.486   5.459
 5041POPC   GL164813  31.542   3.666   5.813
 5041POPC   GL264814  31.187   3.596   5.754
 5041POPC   C1A64815  31.485   3.702   6.298
 5041POPC   D2A64816  31.407   3.837   6.734
 5041POPC   C3A64817  31.466   3.577   7.098
 5041POPC   C4A64818  31.877   3.576   7.244
 5041POPC   C1B64819  31.139   3.343   6.154
 5041POPC   C2B64820  31.294   3.311   6.598
 5041POPC   C3B64821  31.186   3.132   7.010
 5041POPC   C4B64822  31.254   3.111   7.469
 5042POPC   NC364823  11.450   4.228   5.460
 5042POPC   PO464824  10.865   4.397   5.538
 5042POPC   GL164825  11.222   4.417   5.873
 5042POPC   GL264826  11.610   4.414   5.917
 5042POPC   C1A64827  11.287   4.555   6.289
 5042POPC   D2A64828  11.071   4.382   6.615
 5042POPC   C3A64829  11.172   4.473   7.011
 5042POPC   C4A64830  10.896   4.255   7.296
 5042POPC   C1B64831  11.657   4.173   6.301
 5042POPC   C2B64832  11.610   4.255   6.746
 5042POPC   C3B64833  11.590   4.237   7.194
 5042POPC   C4B64834  11.680   4.174   7.627
 5043POPC   NC364835  13.567  16.465   5.309
 5043POPC   PO464836  13.888  15.888   5.296
 5043POPC   GL164837  13.749  15.882   5.742
 5043POPC   GL264838  13.631  16.215   5.752
 5043POPC   C1A64839  13.825  15.782   6.215
 5043POPC   D2A64840  13.824  15.998   6.668
 5043POPC   C3A64841  13.728  15.861   7.137
 5043POPC   C4A64842  13.566  15.535   7.475
 5043POPC   C1B64843  13.756  16.303   6.168
 5043POPC   C2B64844  13.716  16.526   6.546
 5043POPC   C3B64845  13.697  16.415   6.960
 5043POPC   C4B64846  13.303  16.289   7.153
 5044POPC   NC364847   5.451  35.607   5.443
 5044POPC   PO464848   4.968  35.200   5.494
 5044POPC   GL164849   5.121  35.416   5.838
 5044POPC   GL264850   5.412  35.214   5.813
 5044POPC   C1A64851   4.930  35.561   6.242
 5044POPC   D2A64852   4.854  35.365   6.661
 5044POPC   C3A64853   4.890  35.334   7.118
 5044POPC   C4A64854   4.777  35.642   7.431
 5044POPC   C1B64855   5.407  35.335   6.263
 5044POPC   C2B64856   5.361  35.298   6.714
 5044POPC   C3B64857   5.408  35.371   7.140
 5044POPC   C4B64858   5.309  35.030   7.393
 5045POPC   NC364859   0.337  42.835   4.902
 5045POPC   PO464860   0.218  43.269   5.440
 5045POPC   GL164861   0.404  43.049   5.773
 5045POPC   GL264862   0.746  42.922   5.730
 5045POPC   C1A64863   0.280  43.130   6.205
 5045POPC   D2A64864   0.075  43.155   6.604
 5045POPC   C3A64865   0.330  43.423   6.850
 5045POPC   C4A64866   0.493  43.343   7.241
 5045POPC   C1B64867   0.664  42.806   6.183
 5045POPC   C2B64868   0.420  42.773   6.578
 5045POPC   C3B64869   0.434  42.843   7.046
 5045POPC   C4B64870   0.691  42.805   7.449
 5046POPC   NC364871  28.380  38.000   5.560
 5046POPC   PO464872  28.642  37.476   5.177
 5046POPC   GL164873  28.589  37.540   5.670
 5046POPC   GL264874  28.254  37.637   5.909
 5046POPC   C1A64875  28.702  37.696   6.092
 5046POPC   D2A64876  28.392  37.613   6.421
 5046POPC   C3A64877  28.465  37.717   6.841
 5046POPC   C4A64878  28.505  37.509   7.250
 5046POPC   C1B64879  28.136  38.004   6.152
 5046POPC   C2B64880  28.283  38.123   6.529
 5046POPC   C3B64881  28.119  38.106   6.913
 5046POPC   C4B64882  28.365  38.017   7.234
 5047POPC   NC364883  16.479  14.616   5.053
 5047POPC   PO464884  16.932  14.218   5.416
 5047POPC   GL164885  16.680  14.389   5.736
 5047POPC   GL264886  16.461  14.611   5.570
 5047POPC   C1A64887  16.598  14.446   6.169
 5047POPC   D2A64888  16.752  14.582   6.556
 5047POPC   C3A64889  16.630  14.342   6.888
 5047POPC   C4A64890  16.738  14.231   7.261
 5047POPC   C1B64891  16.322  14.841   5.951
 5047POPC   C2B64892  16.249  14.810   6.420
 5047POPC   C3B64893  16.391  14.802   6.858
 5047POPC   C4B64894  16.307  14.592   7.233
 5048POPC   NC364895  37.048  31.685   5.230
 5048POPC   PO464896  36.582  31.257   5.427
 5048POPC   GL164897  36.665  31.435   5.816
 5048POPC   GL264898  36.990  31.585   5.819
 5048POPC   C1A64899  36.626  31.569   6.233
 5048POPC   D2A64900  36.541  31.738   6.624
 5048POPC   C3A64901  36.765  31.514   6.965
 5048POPC   C4A64902  36.613  31.309   7.330
 5048POPC   C1B64903  37.220  31.692   6.210
 5048POPC   C2B64904  37.093  31.719   6.636
 5048POPC   C3B64905  37.265  31.690   7.069
 5048POPC   C4B64906  37.036  31.567   7.438
 5049POPC   NC364907   5.600  33.816   5.430
 5049POPC   PO464908   6.201  33.508   5.190
 5049POPC   GL164909   6.154  33.775   5.647
 5049POPC   GL264910   5.955  34.100   5.700
 5049POPC   C1A64911   6.103  33.928   6.139
 5049POPC   D2A64912   5.843  33.710   6.454
 5049POPC   C3A64913   5.968  33.711   6.874
 5049POPC   C4A64914   6.015  34.012   7.218
 5049POPC   C1B64915   5.602  34.014   6.053
 5049POPC   C2B64916   5.530  34.107   6.514
 5049POPC   C3B64917   5.544  33.984   6.958
 5049POPC   C4B64918   5.497  34.040   7.384
 5050POPC   NC364919  13.034  38.040   5.356
 5050POPC   PO464920  12.467  37.663   5.261
 5050POPC   GL164921  12.658  37.631   5.694
 5050POPC   GL264922  12.707  37.929   5.892
 5050POPC   C1A64923  12.731  37.461   6.145
 5050POPC   D2A64924  12.580  37.523   6.592
 5050POPC   C3A64925  12.653  37.194   6.895
 5050POPC   C4A64926  12.629  37.274   7.344
 5050POPC   C1B64927  12.933  37.894   6.309
 5050POPC   C2B64928  13.060  37.655   6.677
 5050POPC   C3B64929  12.841  37.672   7.066
 5050POPC   C4B64930  12.847  37.978   7.412
 5051POPC   NC364931  11.467  38.640   5.267
 5051POPC   PO464932  11.066  38.283   5.658
 5051POPC   GL164933  11.357  38.556   5.822
 5051POPC   GL264934  11.682  38.714   5.742
 5051POPC   C1A64935  11.471  38.481   6.250
 5051POPC   D2A64936  11.177  38.205   6.438
 5051POPC   C3A64937  11.145  38.191   6.867
 5051POPC   C4A64938  11.125  38.146   7.322
 5051POPC   C1B64939  11.914  38.729   6.146
 5051POPC   C2B64940  11.887  38.586   6.570
 5051POPC   C3B64941  11.707  38.745   6.949
 5051POPC   C4B64942  11.477  38.668   7.336
 5052POPC   NC364943  31.817  42.429   5.419
 5052POPC   PO464944  31.237  42.798   5.505
 5052POPC   GL164945  31.412  42.392   5.748
 5052POPC   GL264946  31.711  42.126   5.807
 5052POPC   C1A64947  31.345  42.242   6.166
 5052POPC   D2A64948  31.202  42.360   6.587
 5052POPC   C3A64949  31.432  42.269   6.930
 5052POPC   C4A64950  31.244  42.226   7.296
 5052POPC   C1B64951  31.914  42.020   6.201
 5052POPC   C2B64952  31.773  41.893   6.602
 5052POPC   C3B64953  31.829  41.899   7.025
 5052POPC   C4B64954  31.702  41.915   7.452
 5053POPC   NC364955  38.295  24.046   5.593
 5053POPC   PO464956  38.727  23.592   5.382
 5053POPC   GL164957  38.598  23.609   5.835
 5053POPC   GL264958  38.207  23.585   5.869
 5053POPC   C1A64959  38.675  23.553   6.295
 5053POPC   D2A64960  38.544  23.829   6.662
 5053POPC   C3A64961  38.626  23.848   7.107
 5053POPC   C4A64962  38.584  23.526   7.370
 5053POPC   C1B64963  38.212  23.787   6.270
 5053POPC   C2B64964  38.037  23.710   6.682
 5053POPC   C3B64965  38.138  23.625   7.106
 5053POPC   C4B64966  38.186  24.021   7.289
 5054POPC   NC364967  32.888  36.629   5.375
 5054POPC   PO464968  33.463  36.982   5.188
 5054POPC   GL164969  33.216  36.780   5.716
 5054POPC   GL264970  33.170  37.122   5.957
 5054POPC   C1A64971  32.852  36.751   6.028
 5054POPC   D2A64972  32.690  36.803   6.458
 5054POPC   C3A64973  32.765  36.727   6.888
 5054POPC   C4A64974  32.611  37.036   7.177
 5054POPC   C1B64975  33.190  36.962   6.366
 5054POPC   C2B64976  33.253  36.796   6.748
 5054POPC   C3B64977  33.118  37.060   7.092
 5054POPC   C4B64978  33.288  37.133   7.507
 5055POPC   NC364979   6.164  12.596   5.491
 5055POPC   PO464980   6.114  11.889   5.378
 5055POPC   GL164981   6.022  12.146   5.712
 5055POPC   GL264982   5.666  12.250   5.763
 5055POPC   C1A64983   6.056  12.272   6.121
 5055POPC   D2A64984   5.806  12.217   6.503
 5055POPC   C3A64985   5.959  12.264   6.937
 5055POPC   C4A64986   6.214  11.923   7.074
 5055POPC   C1B64987   5.719  11.879   6.064
 5055POPC   C2B64988   5.520  11.793   6.468
 5055POPC   C3B64989   5.691  11.836   6.853
 5055POPC   C4B64990   5.713  11.924   7.259
 5056POPC   NC364991   5.509   3.586   5.428
 5056POPC   PO464992   4.885   3.739   5.530
 5056POPC   GL164993   4.935   3.477   5.843
 5056POPC   GL264994   5.245   3.278   5.791
 5056POPC   C1A64995   4.784   3.377   6.239
 5056POPC   D2A64996   4.879   3.321   6.653
 5056POPC   C3A64997   4.802   3.587   6.985
 5056POPC   C4A64998   4.913   3.448   7.380
 5056POPC   C1B64999   5.294   3.515   6.205
 5056POPC   C2B65000   5.238   3.715   6.637
 5056POPC   C3B65001   5.285   3.614   7.096
 5056POPC   C4B65002   5.416   3.311   7.460
 5057POPC   NC365003  36.304  31.641   5.455
 5057POPC   PO465004  35.828  31.182   5.532
 5057POPC   GL165005  36.130  31.358   5.854
 5057POPC   GL265006  36.195  31.742   5.927
 5057POPC   C1A65007  36.123  31.396   6.309
 5057POPC   D2A65008  36.354  31.267   6.659
 5057POPC   C3A65009  36.249  31.482   7.023
 5057POPC   C4A65010  35.989  31.290   7.335
 5057POPC   C1B65011  35.919  31.880   6.258
 5057POPC   C2B65012  36.008  31.824   6.684
 5057POPC   C3B65013  35.777  31.695   7.030
 5057POPC   C4B65014  35.998  31.799   7.363
 5058POPC   NC365015   2.861  12.657   5.443
 5058POPC   PO465016   2.717  13.357   5.406
 5058POPC   GL165017   2.682  13.043   5.764
 5058POPC   GL265018   2.568  12.686   5.845
 5058POPC   C1A65019   2.722  13.017   6.223
 5058POPC   D2A65020   2.648  13.251   6.594
 5058POPC   C3A65021   2.784  13.061   6.954
 5058POPC   C4A65022   2.741  12.924   7.350
 5058POPC   C1B65023   2.337  12.662   6.214
 5058POPC   C2B65024   2.458  12.694   6.658
 5058POPC   C3B65025   2.570  12.545   7.060
 5058POPC   C4B65026   2.945  12.435   7.286
 5059POPC   NC365027  14.717  44.556   5.586
 5059POPC   PO465028  14.164  44.840   5.203
 5059POPC   GL165029  14.116  44.757   5.655
 5059POPC   GL265030  14.410  44.888   5.841
 5059POPC   C1A65031  14.067  44.593   6.098
 5059POPC   D2A65032  14.180  44.711   6.539
 5059POPC   C3A65033  14.226  44.775   6.987
 5059POPC   C4A65034  14.316  44.479   7.305
 5059POPC   C1B65035  14.570  44.629   6.216
 5059POPC   C2B65036  14.715  44.762   6.599
 5059POPC   C3B65037  14.737  44.681   7.009
 5059POPC   C4B65038  14.672  44.832   7.400
 5060POPC   NC365039  23.839  15.595   5.427
 5060POPC   PO465040  24.212  16.172   5.463
 5060POPC   GL165041  24.056  15.934   5.810
 5060POPC   GL265042  23.712  15.775   5.871
 5060POPC   C1A65043  23.914  16.171   6.169
 5060POPC   D2A65044  23.953  16.094   6.596
 5060POPC   C3A65045  23.650  16.114   6.904
 5060POPC   C4A65046  23.903  16.148   7.258
 5060POPC   C1B65047  23.921  15.649   6.230
 5060POPC   C2B65048  23.734  15.637   6.637
 5060POPC   C3B65049  23.899  15.693   7.033
 5060POPC   C4B65050  23.505  15.772   7.269
 5061POPC   NC365051  38.996  20.479   5.387
 5061POPC   PO465052  39.100  21.182   5.377
 5061POPC   GL165053  39.196  20.951   5.767
 5061POPC   GL265054  39.501  20.756   5.685
 5061POPC   C1A65055  39.160  20.721   6.199
 5061POPC   D2A65056  39.020  20.448   6.565
 5061POPC   C3A65057  39.044  20.642   6.962
 5061POPC   C4A65058  39.328  20.809   7.264
 5061POPC   C1B65059  39.603  20.516   6.072
 5061POPC   C2B65060  39.548  20.415   6.483
 5061POPC   C3B65061  39.564  20.526   6.899
 5061POPC   C4B65062  39.553  20.335   7.273
 5062POPC   NC365063  13.767   5.544   5.600
 5062POPC   PO465064  13.475   6.068   5.393
 5062POPC   GL165065  13.438   6.144   5.862
 5062POPC   GL265066  13.585   5.841   6.035
 5062POPC   C1A65067  13.463   6.230   6.325
 5062POPC   D2A65068  13.523   6.038   6.717
 5062POPC   C3A65069  13.302   6.159   7.079
 5062POPC   C4A65070  13.301   6.055   7.503
 5062POPC   C1B65071  13.923   5.910   6.411
 5062POPC   C2B65072  14.009   5.938   6.885
 5062POPC   C3B65073  13.690   5.850   7.174
 5062POPC   C4B65074  13.529   5.493   7.353
 5063POPC   NC365075   7.156  11.084   5.571
 5063POPC   PO465076   6.549  11.072   5.193
 5063POPC   GL165077   6.640  11.177   5.647
 5063POPC   GL265078   6.771  10.877   5.852
 5063POPC   C1A65079   6.453  11.276   6.075
 5063POPC   D2A65080   6.400  11.024   6.484
 5063POPC   C3A65081   6.501  11.133   6.936
 5063POPC   C4A65082   6.544  11.555   7.163
 5063POPC   C1B65083   6.938  11.179   6.196
 5063POPC   C2B65084   6.905  11.243   6.656
 5063POPC   C3B65085   6.981  11.310   7.141
 5063POPC   C4B65086   6.930  11.160   7.580
 5064POPC   NC365087   4.678  24.612   5.566
 5064POPC   PO465088   4.401  24.167   5.191
 5064POPC   GL165089   4.371  24.216   5.727
 5064POPC   GL265090   4.217  24.533   5.889
 5064POPC   C1A65091   4.453  24.287   6.237
 5064POPC   D2A65092   4.545  24.529   6.606
 5064POPC   C3A65093   4.170  24.561   6.876
 5064POPC   C4A65094   4.332  24.367   7.250
 5064POPC   C1B65095   4.246  24.838   6.263
 5064POPC   C2B65096   4.402  25.012   6.679
 5064POPC   C3B65097   4.515  24.852   7.090
 5064POPC   C4B65098   4.380  24.819   7.523
 5065POPC   NC365099  36.185  25.416   5.295
 5065POPC   PO465100  36.292  24.689   5.420
 5065POPC   GL165101  36.174  25.058   5.723
 5065POPC   GL265102  36.324  25.429   5.781
 5065POPC   C1A65103  35.995  25.224   6.146
 5065POPC   D2A65104  35.862  25.084   6.571
 5065POPC   C3A65105  35.959  25.276   6.960
 5065POPC   C4A65106  35.796  25.386   7.348
 5065POPC   C1B65107  36.233  25.674   6.199
 5065POPC   C2B65108  36.000  25.676   6.628
 5065POPC   C3B65109  35.918  25.790   7.077
 5065POPC   C4B65110  36.104  25.733   7.524
 5066POPC   NC365111  24.961  42.389   5.653
 5066POPC   PO465112  24.479  42.545   5.227
 5066POPC   GL165113  24.467  42.421   5.720
 5066POPC   GL265114  24.474  42.050   5.756
 5066POPC   C1A65115  24.257  42.393   6.175
 5066POPC   D2A65116  24.045  42.374   6.584
 5066POPC   C3A65117  24.362  42.403   6.902
 5066POPC   C4A65118  24.531  42.441   7.306
 5066POPC   C1B65119  24.682  42.120   6.189
 5066POPC   C2B65120  24.835  42.172   6.640
 5066POPC   C3B65121  24.697  42.026   7.041
 5066POPC   C4B65122  24.486  41.849   7.406
 5067POPC   NC365123   5.801   1.669   5.377
 5067POPC   PO465124   6.218   1.098   5.119
 5067POPC   GL165125   6.159   1.024   5.679
 5067POPC   GL265126   5.851   0.888   5.847
 5067POPC   C1A65127   6.220   0.855   6.174
 5067POPC   D2A65128   5.959   0.743   6.569
 5067POPC   C3A65129   6.057   0.991   6.903
 5067POPC   C4A65130   5.874   1.387   7.014
 5067POPC   C1B65131   5.652   0.997   6.245
 5067POPC   C2B65132   5.576   1.103   6.693
 5067POPC   C3B65133   5.441   1.148   7.141
 5067POPC   C4B65134   5.599   1.373   7.494
 5068POPC   NC365135  31.140   8.719   5.432
 5068POPC   PO465136  31.663   9.204   5.411
 5068POPC   GL165137  31.580   9.036   5.773
 5068POPC   GL265138  31.263   9.083   5.791
 5068POPC   C1A65139  31.747   8.978   6.159
 5068POPC   D2A65140  31.595   8.804   6.532
 5068POPC   C3A65141  31.649   9.049   6.868
 5068POPC   C4A65142  31.597   8.963   7.255
 5068POPC   C1B65143  31.271   8.760   6.126
 5068POPC   C2B65144  31.067   8.745   6.530
 5068POPC   C3B65145  31.194   8.798   6.924
 5068POPC   C4B65146  31.171   8.488   7.217
 5069POPC   NC365147   6.720  16.756   5.280
 5069POPC   PO465148   6.500  16.393   5.450
 5069POPC   GL165149   6.787  16.543   5.760
 5069POPC   GL265150   6.649  16.867   5.818
 5069POPC   C1A65151   6.790  16.553   6.223
 5069POPC   D2A65152   6.511  16.544   6.593
 5069POPC   C3A65153   6.774  16.574   6.956
 5069POPC   C4A65154   6.900  16.663   7.391
 5069POPC   C1B65155   6.473  16.953   6.253
 5069POPC   C2B65156   6.652  17.024   6.680
 5069POPC   C3B65157   6.818  17.085   7.087
 5069POPC   C4B65158   6.915  17.347   7.424
 5070POPC   NC365159  10.908  26.385   5.335
 5070POPC   PO465160  11.492  26.066   5.418
 5070POPC   GL165161  11.324  25.886   5.757
 5070POPC   GL265162  10.990  25.809   5.588
 5070POPC   C1A65163  11.522  25.887   6.161
 5070POPC   D2A65164  11.561  26.119   6.571
 5070POPC   C3A65165  11.547  25.865   6.954
 5070POPC   C4A65166  11.635  25.900   7.403
 5070POPC   C1B65167  10.923  25.761   6.050
 5070POPC   C2B65168  11.131  25.751   6.469
 5070POPC   C3B65169  11.028  25.710   6.904
 5070POPC   C4B65170  10.887  25.815   7.314
 5071POPC   NC365171  26.156   2.258   5.248
 5071POPC   PO465172  25.626   2.184   5.610
 5071POPC   GL165173  25.957   2.042   5.878
 5071POPC   GL265174  26.300   2.092   5.758
 5071POPC   C1A65175  26.160   2.132   6.256
 5071POPC   D2A65176  26.084   2.073   6.654
 5071POPC   C3A65177  25.809   2.272   6.893
 5071POPC   C4A65178  26.022   2.212   7.268
 5071POPC   C1B65179  26.517   1.820   6.088
 5071POPC   C2B65180  26.395   1.684   6.538
 5071POPC   C3B65181  26.208   1.679   6.986
 5071POPC   C4B65182  26.279   1.804   7.429
 5072POPC   NC365183  29.940   8.568   5.250
 5072POPC   PO465184  29.908   9.209   5.447
 5072POPC   GL165185  29.911   9.047   5.834
 5072POPC   GL265186  29.729   8.764   5.707
 5072POPC   C1A65187  29.872   9.085   6.283
 5072POPC   D2A65188  29.900   9.230   6.702
 5072POPC   C3A65189  30.229   9.061   6.951
 5072POPC   C4A65190  30.107   8.919   7.330
 5072POPC   C1B65191  29.842   8.603   6.117
 5072POPC   C2B65192  29.980   8.674   6.560
 5072POPC   C3B65193  29.810   8.715   6.966
 5072POPC   C4B65194  29.829   8.495   7.358
 5073POPC   NC365195  12.790  40.400   5.379
 5073POPC   PO465196  13.203  39.815   5.457
 5073POPC   GL165197  12.919  40.021   5.715
 5073POPC   GL265198  13.127  40.304   5.753
 5073POPC   C1A65199  12.782  40.104   6.137
 5073POPC   D2A65200  12.843  39.829   6.457
 5073POPC   C3A65201  12.851  39.894   6.900
 5073POPC   C4A65202  13.103  39.649   7.220
 5073POPC   C1B65203  13.187  40.408   6.185
 5073POPC   C2B65204  13.013  40.327   6.597
 5073POPC   C3B65205  13.304  40.383   6.909
 5073POPC   C4B65206  13.107  40.396   7.247
 5074POPC   NC365207   0.585  30.364   5.408
 5074POPC   PO465208   0.027  29.960   5.527
 5074POPC   GL165209   0.343  30.128   5.815
 5074POPC   GL265210   0.690  30.032   5.798
 5074POPC   C1A65211   0.373  29.888   6.190
 5074POPC   D2A65212   0.364  29.615   6.527
 5074POPC   C3A65213   0.425  29.868   6.871
 5074POPC   C4A65214   0.457  29.755   7.273
 5074POPC   C1B65215   0.735  30.260   6.215
 5074POPC   C2B65216   0.826  30.184   6.677
 5074POPC   C3B65217   0.672  30.245   7.135
 5074POPC   C4B65218   0.575  30.171   7.612
 5075POPC   NC365219  37.507  16.666   5.353
 5075POPC   PO465220  37.285  17.349   5.200
 5075POPC   GL165221  37.234  16.948   5.659
 5075POPC   GL265222  37.336  16.571   5.813
 5075POPC   C1A65223  37.444  16.951   6.153
 5075POPC   D2A65224  37.436  16.784   6.590
 5075POPC   C3A65225  37.616  16.759   6.995
 5075POPC   C4A65226  37.843  17.120   7.098
 5075POPC   C1B65227  37.783  16.577   6.027
 5075POPC   C2B65228  37.944  16.653   6.466
 5075POPC   C3B65229  38.101  16.636   6.886
 5075POPC   C4B65230  37.979  16.424   7.253
 5076POPC   NC365231  17.635   7.592   5.515
 5076POPC   PO465232  17.317   7.006   5.458
 5076POPC   GL165233  17.355   7.258   5.799
 5076POPC   GL265234  17.706   7.244   5.877
 5076POPC   C1A65235  17.287   7.385   6.200
 5076POPC   D2A65236  17.472   7.396   6.588
 5076POPC   C3A65237  17.202   7.508   6.940
 5076POPC   C4A65238  17.338   7.432   7.371
 5076POPC   C1B65239  17.795   7.566   6.206
 5076POPC   C2B65240  17.954   7.574   6.666
 5076POPC   C3B65241  17.695   7.574   7.020
 5076POPC   C4B65242  17.556   7.904   7.315
 5077POPC   NC365243   3.347   7.795   5.383
 5077POPC   PO465244   3.635   8.410   5.455
 5077POPC   GL165245   3.437   8.145   5.785
 5077POPC   GL265246   3.648   7.852   5.793
 5077POPC   C1A65247   3.226   8.164   6.211
 5077POPC   D2A65248   2.954   8.143   6.599
 5077POPC   C3A65249   3.210   8.273   6.960
 5077POPC   C4A65250   3.582   8.419   7.204
 5077POPC   C1B65251   3.745   8.037   6.200
 5077POPC   C2B65252   3.595   8.146   6.613
 5077POPC   C3B65253   3.597   7.925   7.001
 5077POPC   C4B65254   3.805   7.917   7.366
 5078POPC   NC365255  42.048   9.767   5.577
 5078POPC   PO465256  41.416   9.520   5.401
 5078POPC   GL165257  41.356   9.656   5.797
 5078POPC   GL265258  41.360   9.997   5.760
 5078POPC   C1A65259  41.546   9.646   6.209
 5078POPC   D2A65260  41.822   9.557   6.565
 5078POPC   C3A65261  41.585   9.657   6.927
 5078POPC   C4A65262  41.665   9.549   7.344
 5078POPC   C1B65263  41.495  10.174   6.148
 5078POPC   C2B65264  41.560  10.372   6.551
 5078POPC   C3B65265  41.485  10.183   6.941
 5078POPC   C4B65266  41.478   9.997   7.309
 5079POPC   NC365267  12.383  11.021   5.537
 5079POPC   PO465268  11.778  11.324   5.434
 5079POPC   GL165269  12.034  11.533   5.743
 5079POPC   GL265270  12.356  11.410   5.861
 5079POPC   C1A65271  11.991  11.560   6.206
 5079POPC   D2A65272  12.046  11.282   6.571
 5079POPC   C3A65273  11.867  11.358   6.944
 5079POPC   C4A65274  11.770  11.317   7.362
 5079POPC   C1B65275  12.507  11.618   6.212
 5079POPC   C2B65276  12.338  11.715   6.598
 5079POPC   C3B65277  12.371  11.482   6.939
 5079POPC   C4B65278  12.268  11.417   7.296
 5080POPC   NC365279  14.118  41.500   5.300
 5080POPC   PO465280  14.666  41.869   5.323
 5080POPC   GL165281  14.550  41.520   5.626
 5080POPC   GL265282  14.202  41.504   5.787
 5080POPC   C1A65283  14.626  41.507   6.097
 5080POPC   D2A65284  14.440  41.718   6.470
 5080POPC   C3A65285  14.543  41.575   6.876
 5080POPC   C4A65286  14.634  41.761   7.259
 5080POPC   C1B65287  14.122  41.386   6.189
 5080POPC   C2B65288  14.094  41.359   6.609
 5080POPC   C3B65289  14.037  41.664   6.901
 5080POPC   C4B65290  14.175  41.553   7.274
 5081POPC   NC365291  35.838  13.515   5.377
 5081POPC   PO465292  36.344  13.955   5.337
 5081POPC   GL165293  36.230  13.783   5.746
 5081POPC   GL265294  35.871  13.862   5.761
 5081POPC   C1A65295  36.382  13.736   6.189
 5081POPC   D2A65296  36.221  13.561   6.613
 5081POPC   C3A65297  36.402  13.528   7.054
 5081POPC   C4A65298  36.430  13.429   7.515
 5081POPC   C1B65299  35.894  13.622   6.141
 5081POPC   C2B65300  35.821  13.860   6.528
 5081POPC   C3B65301  35.768  13.761   6.938
 5081POPC   C4B65302  35.928  13.509   7.276
 5082POPC   NC365303  23.004   4.185   5.084
 5082POPC   PO465304  22.739   4.556   5.612
 5082POPC   GL165305  22.746   4.399   6.006
 5082POPC   GL265306  23.082   4.298   6.099
 5082POPC   C1A65307  22.646   4.237   6.390
 5082POPC   D2A65308  22.976   4.230   6.648
 5082POPC   C3A65309  22.836   4.333   7.048
 5082POPC   C4A65310  22.987   4.601   7.380
 5082POPC   C1B65311  23.268   3.930   6.304
 5082POPC   C2B65312  23.183   3.704   6.659
 5082POPC   C3B65313  23.257   3.977   6.979
 5082POPC   C4B65314  23.326   4.048   7.373
 5083POPC   NC365315  25.540   4.339   5.532
 5083POPC   PO465316  25.127   4.811   5.403
 5083POPC   GL165317  25.136   4.523   5.792
 5083POPC   GL265318  24.834   4.419   5.857
 5083POPC   C1A65319  25.243   4.269   6.196
 5083POPC   D2A65320  25.123   4.270   6.654
 5083POPC   C3A65321  25.365   4.170   7.052
 5083POPC   C4A65322  25.286   3.875   7.411
 5083POPC   C1B65323  24.896   4.660   6.257
 5083POPC   C2B65324  24.740   4.627   6.703
 5083POPC   C3B65325  24.896   4.571   7.131
 5083POPC   C4B65326  25.041   4.306   7.466
 5084POPC   NC365327  13.432  13.284   5.358
 5084POPC   PO465328  13.766  12.697   5.509
 5084POPC   GL165329  13.679  13.057   5.785
 5084POPC   GL265330  13.314  13.086   5.836
 5084POPC   C1A65331  13.622  12.980   6.243
 5084POPC   D2A65332  13.707  12.745   6.608
 5084POPC   C3A65333  13.675  12.856   7.046
 5084POPC   C4A65334  13.788  12.552   7.335
 5084POPC   C1B65335  13.106  13.092   6.264
 5084POPC   C2B65336  13.260  12.977   6.698
 5084POPC   C3B65337  13.219  13.075   7.131
 5084POPC   C4B65338  13.404  12.921   7.508
 5085POPC   NC365339   6.457  14.954   5.296
 5085POPC   PO465340   6.979  15.173   5.622
 5085POPC   GL165341   6.613  15.107   5.870
 5085POPC   GL265342   6.460  14.787   5.781
 5085POPC   C1A65343   6.620  15.250   6.318
 5085POPC   D2A65344   6.814  15.102   6.699
 5085POPC   C3A65345   6.898  15.330   7.088
 5085POPC   C4A65346   7.076  15.535   7.482
 5085POPC   C1B65347   6.294  14.884   6.202
 5085POPC   C2B65348   6.313  15.003   6.658
 5085POPC   C3B65349   6.459  15.007   7.106
 5085POPC   C4B65350   6.438  14.915   7.566
 5086POPC   NC365351  12.691  36.423   5.253
 5086POPC   PO465352  13.076  35.916   5.584
 5086POPC   GL165353  12.814  36.063   5.886
 5086POPC   GL265354  12.567  36.204   5.691
 5086POPC   C1A65355  12.909  36.273   6.276
 5086POPC   D2A65356  12.841  36.106   6.622
 5086POPC   C3A65357  13.183  35.940   6.819
 5086POPC   C4A65358  12.988  36.248   7.100
 5086POPC   C1B65359  12.397  36.296   6.105
 5086POPC   C2B65360  12.364  36.281   6.540
 5086POPC   C3B65361  12.497  36.276   6.970
 5086POPC   C4B65362  12.455  36.354   7.416
 5087POPC   NC365363   6.450  23.891   5.506
 5087POPC   PO465364   6.845  23.362   5.557
 5087POPC   GL165365   6.802  23.607   5.883
 5087POPC   GL265366   6.856  23.947   5.853
 5087POPC   C1A65367   6.677  23.455   6.266
 5087POPC   D2A65368   6.492  23.618   6.617
 5087POPC   C3A65369   6.634  23.521   7.038
 5087POPC   C4A65370   6.424  23.662   7.402
 5087POPC   C1B65371   6.527  23.951   6.166
 5087POPC   C2B65372   6.580  24.145   6.522
 5087POPC   C3B65373   6.742  23.990   6.880
 5087POPC   C4B65374   6.912  23.862   7.302
 5088POPC   NC365375  42.912  25.869   5.438
 5088POPC   PO465376  43.278  26.448   5.583
 5088POPC   GL165377  43.182  26.114   5.856
 5088POPC   GL265378  43.401  25.858   5.738
 5088POPC   C1A65379  42.996  25.990   6.242
 5088POPC   D2A65380  42.971  26.080   6.665
 5088POPC   C3A65381  42.815  25.824   6.957
 5088POPC   C4A65382  42.905  26.004   7.350
 5088POPC   C1B65383  43.402  25.694   6.171
 5088POPC   C2B65384  43.239  25.657   6.625
 5088POPC   C3B65385  43.320  25.883   7.036
 5088POPC   C4B65386  43.362  25.869   7.516
 5089POPC   NC365387  10.635   3.647   5.456
 5089POPC   PO465388  10.156   3.160   5.417
 5089POPC   GL165389  10.349   3.367   5.826
 5089POPC   GL265390  10.638   3.594   5.955
 5089POPC   C1A65391  10.227   3.541   6.241
 5089POPC   D2A65392  10.496   3.528   6.587
 5089POPC   C3A65393  10.369   3.523   6.987
 5089POPC   C4A65394  10.560   3.335   7.377
 5089POPC   C1B65395  10.682   3.898   6.298
 5089POPC   C2B65396  10.778   3.964   6.733
 5089POPC   C3B65397  10.812   3.731   7.133
 5089POPC   C4B65398  10.810   3.782   7.570
 5090POPC   NC365399  31.404  20.794   5.634
 5090POPC   PO465400  31.767  20.376   5.226
 5090POPC   GL165401  31.705  20.405   5.757
 5090POPC   GL265402  31.866  20.619   6.040
 5090POPC   C1A65403  31.414  20.524   6.203
 5090POPC   D2A65404  31.623  20.626   6.591
 5090POPC   C3A65405  31.380  20.648   6.946
 5090POPC   C4A65406  31.466  20.547   7.390
 5090POPC   C1B65407  31.685  21.002   6.233
 5090POPC   C2B65408  31.544  21.124   6.631
 5090POPC   C3B65409  31.754  20.984   6.997
 5090POPC   C4B65410  31.493  21.039   7.329
 5091POPC   NC365411  27.769  41.098   5.559
 5091POPC   PO465412  27.065  41.184   5.663
 5091POPC   GL165413  27.384  40.956   5.897
 5091POPC   GL265414  27.439  40.577   5.832
 5091POPC   C1A65415  27.698  41.083   6.196
 5091POPC   D2A65416  27.872  40.997   6.565
 5091POPC   C3A65417  27.610  40.871   6.827
 5091POPC   C4A65418  27.707  40.917   7.232
 5091POPC   C1B65419  27.647  40.577   6.237
 5091POPC   C2B65420  27.884  40.439   6.590
 5091POPC   C3B65421  27.827  40.432   7.024
 5091POPC   C4B65422  27.727  40.414   7.468
 5092POPC   NC365423   2.407  31.346   5.365
 5092POPC   PO465424   2.948  31.706   5.606
 5092POPC   GL165425   2.787  31.447   5.959
 5092POPC   GL265426   2.906  31.142   5.851
 5092POPC   C1A65427   2.736  31.346   6.421
 5092POPC   D2A65428   2.831  31.633   6.780
 5092POPC   C3A65429   2.512  31.601   7.134
 5092POPC   C4A65430   2.482  31.805   7.553
 5092POPC   C1B65431   3.160  31.139   6.231
 5092POPC   C2B65432   3.173  31.237   6.702
 5092POPC   C3B65433   2.884  31.217   7.094
 5092POPC   C4B65434   3.034  31.163   7.539
 5093POPC   NC365435  12.776  42.562   5.635
 5093POPC   PO465436  13.005  42.174   5.158
 5093POPC   GL165437  12.953  42.071   5.689
 5093POPC   GL265438  12.640  41.971   5.815
 5093POPC   C1A65439  12.924  42.306   6.187
 5093POPC   D2A65440  12.663  42.372   6.595
 5093POPC   C3A65441  12.764  42.593   7.032
 5093POPC   C4A65442  13.069  42.849   7.324
 5093POPC   C1B65443  12.617  41.924   6.275
 5093POPC   C2B65444  12.678  41.862   6.728
 5093POPC   C3B65445  12.688  42.036   7.167
 5093POPC   C4B65446  12.575  42.002   7.660
 5094POPC   NC365447  20.928  17.657   5.540
 5094POPC   PO465448  20.233  17.365   5.415
 5094POPC   GL165449  20.482  17.289   5.785
 5094POPC   GL265450  20.538  17.627   5.892
 5094POPC   C1A65451  20.412  17.282   6.239
 5094POPC   D2A65452  20.545  17.532   6.571
 5094POPC   C3A65453  20.464  17.366   6.961
 5094POPC   C4A65454  20.735  17.325   7.301
 5094POPC   C1B65455  20.883  17.652   6.190
 5094POPC   C2B65456  20.929  17.887   6.553
 5094POPC   C3B65457  20.900  17.698   6.935
 5094POPC   C4B65458  21.031  17.747   7.312
 5095POPC   NC365459   8.319  15.476   5.387
 5095POPC   PO465460   8.005  14.853   5.297
 5095POPC   GL165461   8.186  14.884   5.749
 5095POPC   GL265462   8.301  15.224   5.811
 5095POPC   C1A65463   8.468  14.926   6.168
 5095POPC   D2A65464   8.504  15.218   6.549
 5095POPC   C3A65465   8.311  15.060   6.944
 5095POPC   C4A65466   8.251  14.917   7.353
 5095POPC   C1B65467   8.054  15.242   6.155
 5095POPC   C2B65468   7.988  15.073   6.526
 5095POPC   C3B65469   7.885  15.340   6.836
 5095POPC   C4B65470   7.937  15.324   7.256
 5096POPC   NC365471  44.926  20.739   5.605
 5096POPC   PO465472   0.342  21.326   5.486
 5096POPC   GL165473   0.464  21.363   5.917
 5096POPC   GL265474   0.444  21.720   5.923
 5096POPC   C1A65475   0.375  21.205   6.361
 5096POPC   D2A65476   0.083  21.266   6.690
 5096POPC   C3A65477   0.272  21.238   7.068
 5096POPC   C4A65478   0.428  21.252   7.497
 5096POPC   C1B65479   0.625  21.658   6.308
 5096POPC   C2B65480   0.478  21.626   6.705
 5096POPC   C3B65481   0.627  21.578   7.127
 5096POPC   C4B65482   0.519  21.843   7.491
 5097POPC   NC365483  25.854   3.405   5.362
 5097POPC   PO465484  26.423   3.690   5.294
 5097POPC   GL165485  26.135   3.686   5.715
 5097POPC   GL265486  25.997   3.327   5.844
 5097POPC   C1A65487  26.071   3.683   6.195
 5097POPC   D2A65488  25.848   3.728   6.586
 5097POPC   C3A65489  26.049   3.665   6.969
 5097POPC   C4A65490  26.439   3.523   7.081
 5097POPC   C1B65491  26.104   3.173   6.267
 5097POPC   C2B65492  26.022   3.229   6.704
 5097POPC   C3B65493  25.852   3.176   7.108
 5097POPC   C4B65494  25.821   3.022   7.564
 5098POPC   NC365495   9.698  17.306   5.589
 5098POPC   PO465496   9.396  17.766   5.104
 5098POPC   GL165497   9.708  17.900   5.644
 5098POPC   GL265498   9.935  17.708   5.824
 5098POPC   C1A65499   9.590  17.864   6.140
 5098POPC   D2A65500   9.360  17.649   6.467
 5098POPC   C3A65501   9.571  17.622   6.887
 5098POPC   C4A65502   9.567  17.372   7.265
 5098POPC   C1B65503   9.948  17.379   6.170
 5098POPC   C2B65504  10.000  17.417   6.596
 5098POPC   C3B65505   9.985  17.261   7.001
 5098POPC   C4B65506  10.215  17.512   7.312
 5099POPC   NC365507  10.160  11.980   5.423
 5099POPC   PO465508   9.496  11.962   5.568
 5099POPC   GL165509   9.684  12.192   5.909
 5099POPC   GL265510   9.962  11.975   5.890
 5099POPC   C1A65511   9.560  12.234   6.358
 5099POPC   D2A65512   9.351  12.029   6.703
 5099POPC   C3A65513   9.645  11.920   7.051
 5099POPC   C4A65514  10.006  11.831   7.329
 5099POPC   C1B65515  10.010  12.008   6.322
 5099POPC   C2B65516  10.054  11.952   6.765
 5099POPC   C3B65517  10.156  12.247   7.092
 5099POPC   C4B65518  10.177  12.299   7.563
 5100POPC   NC365519  35.124  14.172   5.434
 5100POPC   PO465520  35.604  14.625   5.282
 5100POPC   GL165521  35.609  14.364   5.735
 5100POPC   GL265522  35.255  14.331   5.891
 5100POPC   C1A65523  35.625  14.455   6.236
 5100POPC   D2A65524  35.280  14.671   6.523
 5100POPC   C3A65525  35.325  14.644   6.959
 5100POPC   C4A65526  35.603  14.367   7.171
 5100POPC   C1B65527  35.151  14.223   6.317
 5100POPC   C2B65528  35.445  14.206   6.687
 5100POPC   C3B65529  35.146  14.172   7.000
 5100POPC   C4B65530  34.793  14.416   7.102
 5101POPC   NC365531  22.404   7.826   5.664
 5101POPC   PO465532  22.156   7.120   5.514
 5101POPC   GL165533  22.098   7.355   5.845
 5101POPC   GL265534  21.818   7.197   5.933
 5101POPC   C1A65535  22.153   7.579   6.207
 5101POPC   D2A65536  22.085   7.437   6.594
 5101POPC   C3A65537  22.305   7.620   6.949
 5101POPC   C4A65538  22.285   7.456   7.383
 5101POPC   C1B65539  21.729   7.004   6.305
 5101POPC   C2B65540  21.864   6.969   6.716
 5101POPC   C3B65541  21.654   7.013   7.087
 5101POPC   C4B65542  21.859   7.120   7.466
 5102POPC   NC365543  35.953  18.462   5.558
 5102POPC   PO465544  36.623  18.509   5.256
 5102POPC   GL165545  36.456  18.472   5.682
 5102POPC   GL265546  36.344  18.117   5.593
 5102POPC   C1A65547  36.357  18.521   6.152
 5102POPC   D2A65548  36.020  18.370   6.449
 5102POPC   C3A65549  35.922  18.369   6.915
 5102POPC   C4A65550  35.870  18.231   7.333
 5102POPC   C1B65551  36.485  18.005   5.988
 5102POPC   C2B65552  36.449  18.084   6.433
 5102POPC   C3B65553  36.341  18.057   6.876
 5102POPC   C4B65554  36.358  18.400   7.184
 5103POPC   NC365555  10.801  22.385   5.325
 5103POPC   PO465556  10.139  22.158   5.431
 5103POPC   GL165557  10.442  22.328   5.723
 5103POPC   GL265558  10.792  22.170   5.780
 5103POPC   C1A65559  10.520  22.403   6.166
 5103POPC   D2A65560  10.808  22.339   6.513
 5103POPC   C3A65561  10.591  22.370   6.901
 5103POPC   C4A65562  10.594  22.172   7.284
 5103POPC   C1B65563  10.746  21.944   6.157
 5103POPC   C2B65564  10.508  21.939   6.539
 5103POPC   C3B65565  10.671  21.854   6.896
 5103POPC   C4B65566  10.862  21.715   7.234
 5104POPC   NC365567  10.300  14.182   5.160
 5104POPC   PO465568  10.821  13.952   5.621
 5104POPC   GL165569  10.761  14.368   5.744
 5104POPC   GL265570  10.423  14.371   5.657
 5104POPC   C1A65571  10.680  14.606   6.118
 5104POPC   D2A65572  10.787  14.733   6.539
 5104POPC   C3A65573  10.721  14.511   6.948
 5104POPC   C4A65574  10.985  14.626   7.301
 5104POPC   C1B65575  10.260  14.320   6.083
 5104POPC   C2B65576  10.422  14.333   6.509
 5104POPC   C3B65577  10.303  14.158   6.890
 5104POPC   C4B65578  10.254  14.066   7.300
 5105POPC   NC365579  15.430   3.128   5.403
 5105POPC   PO465580  14.992   2.703   5.244
 5105POPC   GL165581  15.212   2.723   5.635
 5105POPC   GL265582  15.052   2.997   5.775
 5105POPC   C1A65583  15.405   2.683   6.041
 5105POPC   D2A65584  15.259   2.610   6.468
 5105POPC   C3A65585  15.320   2.812   6.862
 5105POPC   C4A65586  15.144   2.908   7.259
 5105POPC   C1B65587  15.151   3.102   6.189
 5105POPC   C2B65588  15.173   3.329   6.539
 5105POPC   C3B65589  15.201   3.319   6.963
 5105POPC   C4B65590  15.068   3.410   7.355
 5106POPC   NC365591   3.887  15.946   5.510
 5106POPC   PO465592   4.485  15.726   5.428
 5106POPC   GL165593   4.294  15.686   5.863
 5106POPC   GL265594   4.075  15.981   5.966
 5106POPC   C1A65595   4.392  15.872   6.322
 5106POPC   D2A65596   4.254  16.016   6.751
 5106POPC   C3A65597   4.558  16.000   7.108
 5106POPC   C4A65598   4.477  16.202   7.472
 5106POPC   C1B65599   3.937  15.608   6.222
 5106POPC   C2B65600   3.842  15.337   6.584
 5106POPC   C3B65601   3.904  15.501   7.003
 5106POPC   C4B65602   4.094  15.857   7.244
 5107POPC   NC365603  44.305   0.247   5.260
 5107POPC   PO465604  44.768   0.696   5.369
 5107POPC   GL165605  44.480   0.567   5.723
 5107POPC   GL265606  44.421   0.204   5.832
 5107POPC   C1A65607  44.563   0.614   6.186
 5107POPC   D2A65608  44.743   0.608   6.641
 5107POPC   C3A65609  44.487   0.493   7.017
 5107POPC   C4A65610  44.487   0.511   7.468
 5107POPC   C1B65611  44.650   0.108   6.255
 5107POPC   C2B65612  44.671   0.076   6.714
 5107POPC   C3B65613  44.900   0.197   7.073
 5107POPC   C4B65614  44.860   0.198   7.549
 5108POPC   NC365615  32.042   5.598   5.431
 5108POPC   PO465616  32.309   6.143   5.151
 5108POPC   GL165617  32.237   6.063   5.611
 5108POPC   GL265618  32.384   5.757   5.785
 5108POPC   C1A65619  32.078   6.118   6.037
 5108POPC   D2A65620  32.208   6.166   6.494
 5108POPC   C3A65621  32.118   6.051   6.937
 5108POPC   C4A65622  32.519   5.929   7.114
 5108POPC   C1B65623  32.194   5.600   6.159
 5108POPC   C2B65624  32.277   5.412   6.578
 5108POPC   C3B65625  32.194   5.549   7.007
 5108POPC   C4B65626  32.293   5.620   7.465
 5109POPC   NC365627  19.648  11.371   5.217
 5109POPC   PO465628  20.231  11.454   5.517
 5109POPC   GL165629  20.105  11.523   5.940
 5109POPC   GL265630  19.781  11.351   5.948
 5109POPC   C1A65631  19.946  11.560   6.376
 5109POPC   D2A65632  19.548  11.378   6.487
 5109POPC   C3A65633  19.543  11.277   6.918
 5109POPC   C4A65634  19.701  11.507   7.243
 5109POPC   C1B65635  20.087  11.093   6.225
 5109POPC   C2B65636  20.270  11.128   6.597
 5109POPC   C3B65637  20.055  11.280   6.907
 5109POPC   C4B65638  20.058  11.164   7.328
 5110POPC   NC365639  39.334  19.509   5.357
 5110POPC   PO465640  39.392  20.224   5.388
 5110POPC   GL165641  39.161  20.094   5.736
 5110POPC   GL265642  39.085  19.727   5.779
 5110POPC   C1A65643  39.172  20.180   6.157
 5110POPC   D2A65644  39.290  19.969   6.527
 5110POPC   C3A65645  39.211  20.129   6.936
 5110POPC   C4A65646  39.186  19.854   7.282
 5110POPC   C1B65647  39.389  19.601   6.100
 5110POPC   C2B65648  39.477  19.496   6.547
 5110POPC   C3B65649  39.157  19.537   6.845
 5110POPC   C4B65650  38.790  19.591   7.056
 5111POPC   NC365651  18.426  25.403   5.529
 5111POPC   PO465652  17.908  24.960   5.405
 5111POPC   GL165653  18.175  25.023   5.766
 5111POPC   GL265654  18.558  24.946   5.741
 5111POPC   C1A65655  18.168  25.259   6.148
 5111POPC   D2A65656  18.155  25.563   6.499
 5111POPC   C3A65657  18.194  25.414   6.957
 5111POPC   C4A65658  18.134  25.643   7.337
 5111POPC   C1B65659  18.658  25.127   6.154
 5111POPC   C2B65660  18.449  25.132   6.567
 5111POPC   C3B65661  18.640  25.159   6.978
 5111POPC   C4B65662  18.586  25.328   7.399
 5112POPC   NC365663  40.590  43.024   5.544
 5112POPC   PO465664  41.240  42.900   5.339
 5112POPC   GL165665  41.078  43.133   5.690
 5112POPC   GL265666  40.997  42.834   5.837
 5112POPC   C1A65667  41.010  43.285   6.129
 5112POPC   D2A65668  40.914  43.114   6.558
 5112POPC   C3A65669  40.745  43.309   6.936
 5112POPC   C4A65670  40.958  43.208   7.323
 5112POPC   C1B65671  40.966  42.683   6.265
 5112POPC   C2B65672  40.677  42.663   6.632
 5112POPC   C3B65673  40.699  42.814   7.058
 5112POPC   C4B65674  40.488  43.052   7.374
 5113POPC   NC365675   7.720   2.730   5.435
 5113POPC   PO465676   7.097   2.918   5.123
 5113POPC   GL165677   7.231   2.878   5.610
 5113POPC   GL265678   7.537   3.020   5.830
 5113POPC   C1A65679   7.199   2.682   6.038
 5113POPC   D2A65680   7.118   2.752   6.494
 5113POPC   C3A65681   7.321   2.538   6.854
 5113POPC   C4A65682   7.185   2.692   7.245
 5113POPC   C1B65683   7.546   2.972   6.316
 5113POPC   C2B65684   7.480   3.016   6.782
 5113POPC   C3B65685   7.624   2.920   7.210
 5113POPC   C4B65686   7.872   2.786   7.549
 5114POPC   NC365687  25.854  24.904   5.441
 5114POPC   PO465688  26.228  25.512   5.454
 5114POPC   GL165689  26.154  25.204   5.774
 5114POPC   GL265690  25.848  25.253   5.835
 5114POPC   C1A65691  26.124  25.029   6.215
 5114POPC   D2A65692  26.400  25.023   6.596
 5114POPC   C3A65693  26.205  25.169   6.991
 5114POPC   C4A65694  25.912  25.122   7.314
 5114POPC   C1B65695  25.740  25.413   6.195
 5114POPC   C2B65696  25.668  25.254   6.586
 5114POPC   C3B65697  25.809  25.511   6.899
 5114POPC   C4B65698  25.820  25.624   7.300
 5115POPC   NC365699  11.758  31.925   5.585
 5115POPC   PO465700  11.262  31.639   5.153
 5115POPC   GL165701  11.198  31.482   5.662
 5115POPC   GL265702  11.440  31.641   5.894
 5115POPC   C1A65703  11.111  31.368   6.148
 5115POPC   D2A65704  11.200  31.521   6.598
 5115POPC   C3A65705  11.039  31.489   7.043
 5115POPC   C4A65706  11.032  31.678   7.465
 5115POPC   C1B65707  11.621  31.498   6.269
 5115POPC   C2B65708  11.667  31.277   6.661
 5115POPC   C3B65709  11.556  31.331   7.096
 5115POPC   C4B65710  11.709  31.488   7.490
 5116POPC   NC365711  33.844   5.330   5.292
 5116POPC   PO465712  34.097   4.758   5.290
 5116POPC   GL165713  33.862   4.984   5.692
 5116POPC   GL265714  33.908   5.358   5.780
 5116POPC   C1A65715  33.701   5.078   6.161
 5116POPC   D2A65716  33.489   4.972   6.572
 5116POPC   C3A65717  33.761   5.030   6.904
 5116POPC   C4A65718  33.729   5.203   7.308
 5116POPC   C1B65719  34.157   5.321   6.122
 5116POPC   C2B65720  34.179   5.465   6.538
 5116POPC   C3B65721  34.043   5.484   6.963
 5116POPC   C4B65722  34.259   5.226   7.255
 5117POPC   NC365723   4.097  31.372   5.523
 5117POPC   PO465724   4.641  31.842   5.759
 5117POPC   GL165725   4.319  31.607   5.910
 5117POPC   GL265726   4.519  31.299   5.830
 5117POPC   C1A65727   4.088  31.504   6.284
 5117POPC   D2A65728   4.041  31.236   6.654
 5117POPC   C3A65729   4.148  31.459   7.026
 5117POPC   C4A65730   4.155  31.696   7.395
 5117POPC   C1B65731   4.581  31.344   6.250
 5117POPC   C2B65732   4.527  31.422   6.641
 5117POPC   C3B65733   4.572  31.211   7.014
 5117POPC   C4B65734   4.429  31.286   7.453
 5118POPC   NC365735  40.652   4.263   5.004
 5118POPC   PO465736  40.053   4.126   5.438
 5118POPC   GL165737  39.996   4.216   5.878
 5118POPC   GL265738  40.051   4.550   5.898
 5118POPC   C1A65739  39.828   4.332   6.306
 5118POPC   D2A65740  39.764   4.173   6.724
 5118POPC   C3A65741  39.838   4.370   7.133
 5118POPC   C4A65742  40.065   4.134   7.446
 5118POPC   C1B65743  40.276   4.565   6.258
 5118POPC   C2B65744  40.066   4.652   6.659
 5118POPC   C3B65745  40.298   4.553   6.999
 5118POPC   C4B65746  40.372   4.746   7.355
 5119POPC   NC365747  18.749  43.686   5.327
 5119POPC   PO465748  19.189  44.131   5.418
 5119POPC   GL165749  18.907  44.082   5.778
 5119POPC   GL265750  18.845  43.704   5.830
 5119POPC   C1A65751  18.996  43.990   6.218
 5119POPC   D2A65752  18.949  43.760   6.577
 5119POPC   C3A65753  18.878  43.972   6.953
 5119POPC   C4A65754  18.727  43.866   7.343
 5119POPC   C1B65755  19.256  43.558   6.019
 5119POPC   C2B65756  19.408  43.556   6.451
 5119POPC   C3B65757  19.209  43.401   6.841
 5119POPC   C4B65758  19.062  43.499   7.246
 5120POPC   NC365759   5.816  30.405   5.227
 5120POPC   PO465760   6.186  30.957   5.424
 5120POPC   GL165761   5.956  30.731   5.788
 5120POPC   GL265762   5.756  31.005   5.983
 5120POPC   C1A65763   5.881  30.606   6.234
 5120POPC   D2A65764   5.956  30.938   6.539
 5120POPC   C3A65765   6.178  30.785   6.903
 5120POPC   C4A65766   6.019  30.417   7.142
 5120POPC   C1B65767   5.514  31.168   6.347
 5120POPC   C2B65768   5.448  30.939   6.711
 5120POPC   C3B65769   5.659  30.777   7.035
 5120POPC   C4B65770   5.490  30.977   7.339
 5121POPC   NC365771  41.307   4.004   5.431
 5121POPC   PO465772  41.675   4.548   5.535
 5121POPC   GL165773  41.483   4.310   5.794
 5121POPC   GL265774  41.352   4.582   5.941
 5121POPC   C1A65775  41.405   4.118   6.173
 5121POPC   D2A65776  41.110   3.972   6.494
 5121POPC   C3A65777  41.283   4.185   6.829
 5121POPC   C4A65778  41.526   4.349   7.144
 5121POPC   C1B65779  41.605   4.738   6.303
 5121POPC   C2B65780  41.678   4.801   6.753
 5121POPC   C3B65781  41.798   4.774   7.193
 5121POPC   C4B65782  41.668   4.935   7.613
 5122POPC   NC365783   8.612  14.544   5.599
 5122POPC   PO465784   9.223  14.224   5.400
 5122POPC   GL165785   9.080  14.352   5.749
 5122POPC   GL265786   8.812  14.123   5.756
 5122POPC   C1A65787   9.112  14.607   6.105
 5122POPC   D2A65788   8.917  14.550   6.504
 5122POPC   C3A65789   9.086  14.725   6.870
 5122POPC   C4A65790   9.051  14.638   7.316
 5122POPC   C1B65791   8.907  14.127   6.179
 5122POPC   C2B65792   9.042  14.019   6.546
 5122POPC   C3B65793   8.992  14.221   6.903
 5122POPC   C4B65794   8.762  14.181   7.227
 5123POPC   NC365795  26.219  11.656   5.377
 5123POPC   PO465796  25.906  11.006   5.429
 5123POPC   GL165797  26.136  11.263   5.718
 5123POPC   GL265798  25.867  11.492   5.776
 5123POPC   C1A65799  26.334  11.366   6.122
 5123POPC   D2A65800  26.281  11.659   6.479
 5123POPC   C3A65801  25.992  11.490   6.780
 5123POPC   C4A65802  26.017  11.287   7.156
 5123POPC   C1B65803  25.665  11.200   6.081
 5123POPC   C2B65804  25.524  11.188   6.526
 5123POPC   C3B65805  25.621  11.008   6.928
 5123POPC   C4B65806  25.631  11.059   7.365
 5124POPC   NC365807  18.269  13.824   5.309
 5124POPC   PO465808  18.379  13.157   5.230
 5124POPC   GL165809  18.377  13.488   5.673
 5124POPC   GL265810  18.499  13.861   5.749
 5124POPC   C1A65811  18.609  13.545   6.107
 5124POPC   D2A65812  18.694  13.548   6.554
 5124POPC   C3A65813  18.569  13.810   6.943
 5124POPC   C4A65814  18.568  13.717   7.392
 5124POPC   C1B65815  18.201  13.848   6.108
 5124POPC   C2B65816  18.220  13.804   6.565
 5124POPC   C3B65817  18.071  13.692   7.002
 5124POPC   C4B65818  18.072  13.613   7.455
 5125POPC   NC365819  15.659  14.864   5.326
 5125POPC   PO465820  16.080  15.324   5.264
 5125POPC   GL165821  15.990  15.138   5.659
 5125POPC   GL265822  16.169  15.410   5.794
 5125POPC   C1A65823  15.769  15.175   6.080
 5125POPC   D2A65824  15.838  15.328   6.513
 5125POPC   C3A65825  15.609  15.165   6.886
 5125POPC   C4A65826  15.734  15.042   7.309
 5125POPC   C1B65827  16.262  15.297   6.209
 5125POPC   C2B65828  16.392  15.267   6.626
 5125POPC   C3B65829  16.103  15.217   6.949
 5125POPC   C4B65830  16.016  15.474   7.269
 5126POPC   NC365831  24.657  32.243   5.232
 5126POPC   PO465832  24.025  32.269   5.524
 5126POPC   GL165833  24.415  32.237   5.730
 5126POPC   GL265834  24.775  32.262   5.722
 5126POPC   C1A65835  24.453  32.137   6.149
 5126POPC   D2A65836  24.185  32.074   6.503
 5126POPC   C3A65837  24.354  31.951   6.880
 5126POPC   C4A65838  24.275  32.272   7.151
 5126POPC   C1B65839  24.753  32.547   6.048
 5126POPC   C2B65840  24.662  32.485   6.465
 5126POPC   C3B65841  24.756  32.588   6.887
 5126POPC   C4B65842  24.795  32.219   7.119
 5127POPC   NC365843   6.724  32.460   5.315
 5127POPC   PO465844   6.630  33.026   5.517
 5127POPC   GL165845   6.623  33.122   5.899
 5127POPC   GL265846   6.335  33.311   5.820
 5127POPC   C1A65847   6.643  33.257   6.311
 5127POPC   D2A65848   6.712  33.479   6.674
 5127POPC   C3A65849   6.830  33.138   6.958
 5127POPC   C4A65850   6.919  33.144   7.382
 5127POPC   C1B65851   6.142  33.416   6.161
 5127POPC   C2B65852   6.179  33.333   6.576
 5127POPC   C3B65853   6.346  33.249   6.946
 5127POPC   C4B65854   6.416  33.075   7.358
 5128POPC   NC365855  41.919  37.825   5.430
 5128POPC   PO465856  42.613  37.834   5.377
 5128POPC   GL165857  42.397  37.616   5.749
 5128POPC   GL265858  42.113  37.832   5.918
 5128POPC   C1A65859  42.365  37.497   6.208
 5128POPC   D2A65860  42.089  37.720   6.507
 5128POPC   C3A65861  42.191  37.560   6.922
 5128POPC   C4A65862  42.604  37.461   7.086
 5128POPC   C1B65863  42.542  37.959   6.120
 5128POPC   C2B65864  42.654  38.151   6.534
 5128POPC   C3B65865  42.636  37.982   6.969
 5128POPC   C4B65866  42.253  37.969   7.225
 5129POPC   NC365867  40.901   8.312   5.289
 5129POPC   PO465868  41.014   7.812   5.683
 5129POPC   GL165869  40.972   8.227   5.824
 5129POPC   GL265870  40.691   8.444   5.736
 5129POPC   C1A65871  41.012   8.259   6.248
 5129POPC   D2A65872  40.972   8.067   6.619
 5129POPC   C3A65873  41.063   8.350   6.911
 5129POPC   C4A65874  41.066   8.032   7.202
 5129POPC   C1B65875  40.542   8.396   6.159
 5129POPC   C2B65876  40.499   8.272   6.580
 5129POPC   C3B65877  40.571   8.430   6.992
 5129POPC   C4B65878  40.452   8.364   7.410
 5130POPC   NC365879  24.209  41.241   5.438
 5130POPC   PO465880  24.415  40.611   5.515
 5130POPC   GL165881  24.433  40.880   5.876
 5130POPC   GL265882  24.748  41.031   5.878
 5130POPC   C1A65883  24.424  40.913   6.346
 5130POPC   D2A65884  24.336  40.592   6.672
 5130POPC   C3A65885  24.147  40.779   7.035
 5130POPC   C4A65886  24.298  41.015   7.347
 5130POPC   C1B65887  24.894  40.742   6.167
 5130POPC   C2B65888  24.830  40.731   6.604
 5130POPC   C3B65889  24.602  40.978   6.907
 5130POPC   C4B65890  24.835  40.924   7.279
 5131POPC   NC365891  41.110  31.882   5.465
 5131POPC   PO465892  40.733  32.395   5.208
 5131POPC   GL165893  40.734  32.503   5.705
 5131POPC   GL265894  40.412  32.533   5.887
 5131POPC   C1A65895  40.848  32.540   6.175
 5131POPC   D2A65896  40.708  32.433   6.616
 5131POPC   C3A65897  40.988  32.196   6.906
 5131POPC   C4A65898  41.020  32.255   7.358
 5131POPC   C1B65899  40.352  32.261   6.281
 5131POPC   C2B65900  40.438  32.008   6.687
 5131POPC   C3B65901  40.548  32.000   7.124
 5131POPC   C4B65902  40.594  32.017   7.585
 5132POPC   NC365903   8.586   2.696   5.426
 5132POPC   PO465904   8.055   3.039   5.386
 5132POPC   GL165905   8.129   2.789   5.780
 5132POPC   GL265906   8.474   2.825   5.894
 5132POPC   C1A65907   7.983   2.682   6.221
 5132POPC   D2A65908   7.960   2.900   6.655
 5132POPC   C3A65909   8.006   2.638   7.047
 5132POPC   C4A65910   8.281   2.538   7.409
 5132POPC   C1B65911   8.394   2.959   6.285
 5132POPC   C2B65912   8.394   2.664   6.600
 5132POPC   C3B65913   8.502   2.732   6.985
 5132POPC   C4B65914   8.649   2.923   7.313
 5133POPC   NC365915  37.360  17.651   5.545
 5133POPC   PO465916  36.652  17.526   5.406
 5133POPC   GL165917  36.854  17.643   5.760
 5133POPC   GL265918  37.042  17.375   5.823
 5133POPC   C1A65919  36.914  17.805   6.187
 5133POPC   D2A65920  36.878  17.913   6.613
 5133POPC   C3A65921  37.071  17.597   6.809
 5133POPC   C4A65922  37.050  17.510   7.222
 5133POPC   C1B65923  36.770  17.291   6.153
 5133POPC   C2B65924  36.607  17.476   6.509
 5133POPC   C3B65925  36.680  17.294   6.891
 5133POPC   C4B65926  36.827  17.064   7.229
 5134POPC   NC365927  20.736   5.218   5.453
 5134POPC   PO465928  20.581   4.644   5.241
 5134POPC   GL165929  20.545   4.814   5.698
 5134POPC   GL265930  20.330   5.107   5.826
 5134POPC   C1A65931  20.765   5.016   6.103
 5134POPC   D2A65932  20.742   5.259   6.470
 5134POPC   C3A65933  20.872   5.048   6.797
 5134POPC   C4A65934  20.713   4.966   7.173
 5134POPC   C1B65935  20.300   5.009   6.292
 5134POPC   C2B65936  20.340   4.988   6.773
 5134POPC   C3B65937  20.215   4.859   7.196
 5134POPC   C4B65938  20.362   4.716   7.595
 5135POPC   NC365939  42.387  14.295   5.262
 5135POPC   PO465940  42.147  14.928   5.486
 5135POPC   GL165941  42.154  14.526   5.697
 5135POPC   GL265942  42.509  14.471   5.777
 5135POPC   C1A65943  42.086  14.300   6.101
 5135POPC   D2A65944  42.283  14.273   6.484
 5135POPC   C3A65945  42.105  14.493   6.840
 5135POPC   C4A65946  42.014  14.425   7.242
 5135POPC   C1B65947  42.615  14.142   6.106
 5135POPC   C2B65948  42.676  13.944   6.533
 5135POPC   C3B65949  42.547  14.144   6.909
 5135POPC   C4B65950  42.514  14.358   7.269
 5136POPC   NC365951  23.532  41.549   5.220
 5136POPC   PO465952  24.105  41.718   5.381
 5136POPC   GL165953  23.770  41.581   5.696
 5136POPC   GL265954  23.419  41.498   5.742
 5136POPC   C1A65955  23.743  41.658   6.163
 5136POPC   D2A65956  23.928  41.701   6.597
 5136POPC   C3A65957  23.719  41.723   7.036
 5136POPC   C4A65958  23.601  41.528   7.479
 5136POPC   C1B65959  23.329  41.372   6.192
 5136POPC   C2B65960  23.480  41.457   6.619
 5136POPC   C3B65961  23.363  41.354   7.053
 5136POPC   C4B65962  23.095  41.441   7.442
 5137POPC   NC365963  30.823   2.870   5.328
 5137POPC   PO465964  30.103   2.942   5.452
 5137POPC   GL165965  30.438   2.750   5.803
 5137POPC   GL265966  30.846   2.627   5.783
 5137POPC   C1A65967  30.734   2.930   6.160
 5137POPC   D2A65968  31.053   2.829   6.470
 5137POPC   C3A65969  30.881   2.751   6.862
 5137POPC   C4A65970  30.765   2.837   7.272
 5137POPC   C1B65971  30.706   2.412   6.181
 5137POPC   C2B65972  30.538   2.454   6.593
 5137POPC   C3B65973  30.487   2.456   7.040
 5137POPC   C4B65974  30.675   2.340   7.461
 5138POPC   NC365975  22.028  33.977   5.332
 5138POPC   PO465976  22.602  33.905   5.517
 5138POPC   GL165977  22.264  33.893   5.857
 5138POPC   GL265978  21.908  34.060   5.813
 5138POPC   C1A65979  22.334  33.714   6.276
 5138POPC   D2A65980  22.163  33.629   6.670
 5138POPC   C3A65981  22.368  33.772   7.031
 5138POPC   C4A65982  22.172  33.971   7.378
 5138POPC   C1B65983  21.836  33.831   6.167
 5138POPC   C2B65984  21.864  34.028   6.526
 5138POPC   C3B65985  21.896  34.057   6.941
 5138POPC   C4B65986  21.803  33.682   7.144
 5139POPC   NC365987  43.450  19.175   5.325
 5139POPC   PO465988  42.824  18.866   5.400
 5139POPC   GL165989  43.036  19.192   5.672
 5139POPC   GL265990  43.267  18.958   5.742
 5139POPC   C1A65991  43.260  19.317   6.102
 5139POPC   D2A65992  43.476  19.267   6.529
 5139POPC   C3A65993  43.213  19.231   6.887
 5139POPC   C4A65994  43.226  19.342   7.276
 5139POPC   C1B65995  43.014  18.830   6.064
 5139POPC   C2B65996  43.074  18.917   6.485
 5139POPC   C3B65997  43.283  18.731   6.828
 5139POPC   C4B65998  43.132  18.823   7.224
 5140POPC   NC365999  37.403  29.668   5.381
 5140POPC   PO466000  38.043  29.977   5.507
 5140POPC   GL166001  37.644  29.945   5.752
 5140POPC   GL266002  37.459  30.256   5.856
 5140POPC   C1A66003  37.451  29.761   6.095
 5140POPC   D2A66004  37.299  29.622   6.503
 5140POPC   C3A66005  37.424  29.806   6.902
 5140POPC   C4A66006  37.710  29.641   7.223
 5140POPC   C1B66007  37.621  30.226   6.282
 5140POPC   C2B66008  37.636  30.339   6.737
 5140POPC   C3B66009  37.433  30.275   7.135
 5140POPC   C4B66010  37.408  30.306   7.614
 5141POPC   NC366011  20.442   0.678   5.328
 5141POPC   PO466012  20.809   0.090   5.434
 5141POPC   GL166013  20.618   0.349   5.797
 5141POPC   GL266014  20.593   0.722   5.806
 5141POPC   C1A66015  20.462   0.191   6.216
 5141POPC   D2A66016  20.471   0.011   6.649
 5141POPC   C3A66017  20.780   0.201   6.933
 5141POPC   C4A66018  20.909   0.120   7.336
 5141POPC   C1B66019  20.585   0.726   6.228
 5141POPC   C2B66020  20.556   0.546   6.601
 5141POPC   C3B66021  20.486   0.646   7.004
 5141POPC   C4B66022  20.760   0.617   7.313
 5142POPC   NC366023  35.028  44.595   5.147
 5142POPC   PO466024  35.362  43.992   5.343
 5142POPC   GL166025  35.518  43.945   5.788
 5142POPC   GL266026  35.671  44.258   5.897
 5142POPC   C1A66027  35.316  43.832   6.203
 5142POPC   D2A66028  35.098  43.670   6.581
 5142POPC   C3A66029  35.217  43.832   6.984
 5142POPC   C4A66030  35.393  43.599   7.298
 5142POPC   C1B66031  35.630  44.230   6.326
 5142POPC   C2B66032  35.825  44.181   6.712
 5142POPC   C3B66033  35.649  44.097   7.113
 5142POPC   C4B66034  35.657  44.089   7.567
 5143POPC   NC366035  44.763  44.363   5.545
 5143POPC   PO466036  44.582  44.892   5.291
 5143POPC   GL166037  44.349  44.704   5.674
 5143POPC   GL266038  44.393  44.373   5.877
 5143POPC   C1A66039  44.270  44.775   6.145
 5143POPC   D2A66040  44.506  44.601   6.518
 5143POPC   C3A66041  44.336  44.709   6.893
 5143POPC   C4A66042  44.508  44.926   7.231
 5143POPC   C1B66043  44.796  44.352   6.186
 5143POPC   C2B66044  44.991  44.292   6.588
 5143POPC   C3B66045  44.777  44.425   6.976
 5143POPC   C4B66046  44.466  44.399   7.294
 5144POPC   NC366047  27.936  28.556   5.455
 5144POPC   PO466048  28.580  28.662   5.378
 5144POPC   GL166049  28.436  28.448   5.717
 5144POPC   GL266050  28.648  28.165   5.703
 5144POPC   C1A66051  28.442  28.558   6.179
 5144POPC   D2A66052  28.310  28.783   6.579
 5144POPC   C3A66053  28.411  28.703   7.044
 5144POPC   C4A66054  28.525  28.496   7.454
 5144POPC   C1B66055  28.310  28.067   6.032
 5144POPC   C2B66056  28.105  28.209   6.425
 5144POPC   C3B66057  28.282  28.232   6.848
 5144POPC   C4B66058  28.185  28.163   7.282
 5145POPC   NC366059  44.240   1.909   5.307
 5145POPC   PO466060  44.852   2.067   5.512
 5145POPC   GL166061  44.489   1.889   5.745
 5145POPC   GL266062  44.484   1.534   5.630
 5145POPC   C1A66063  44.442   1.998   6.176
 5145POPC   D2A66064  44.775   2.027   6.499
 5145POPC   C3A66065  44.584   1.971   6.891
 5145POPC   C4A66066  44.353   1.931   7.263
 5145POPC   C1B66067  44.634   1.531   6.080
 5145POPC   C2B66068  44.441   1.586   6.511
 5145POPC   C3B66069  44.314   1.514   6.936
 5145POPC   C4B66070  44.707   1.534   7.146
 5146POPC   NC366071  32.190  20.239   5.360
 5146POPC   PO466072  31.870  20.920   5.614
 5146POPC   GL166073  32.240  20.662   5.703
 5146POPC   GL266074  32.230  20.321   5.841
 5146POPC   C1A66075  32.369  20.669   6.169
 5146POPC   D2A66076  32.107  20.808   6.529
 5146POPC   C3A66077  32.178  20.690   6.951
 5146POPC   C4A66078  31.859  20.433   7.100
 5146POPC   C1B66079  32.211  20.157   6.233
 5146POPC   C2B66080  32.370  20.317   6.603
 5146POPC   C3B66081  32.313  20.180   7.007
 5146POPC   C4B66082  32.306  20.419   7.391
 5147POPC   NC366083  43.727  13.137   5.606
 5147POPC   PO466084  43.670  13.744   5.346
 5147POPC   GL166085  43.964  13.739   5.729
 5147POPC   GL266086  43.685  13.871   5.887
 5147POPC   C1A66087  44.139  13.843   6.193
 5147POPC   D2A66088  43.954  13.818   6.572
 5147POPC   C3A66089  44.189  13.812   6.915
 5147POPC   C4A66090  43.996  13.592   7.240
 5147POPC   C1B66091  43.779  13.495   6.156
 5147POPC   C2B66092  43.576  13.301   6.488
 5147POPC   C3B66093  43.697  13.315   6.899
 5147POPC   C4B66094  43.498  13.403   7.313
 5148POPC   NC366095  42.283   8.871   5.389
 5148POPC   PO466096  42.879   8.933   5.537
 5148POPC   GL166097  42.574   8.903   5.854
 5148POPC   GL266098  42.473   9.227   5.861
 5148POPC   C1A66099  42.329   8.915   6.263
 5148POPC   D2A66100  42.290   8.632   6.604
 5148POPC   C3A66101  42.420   8.633   7.018
 5148POPC   C4A66102  42.175   8.917   7.174
 5148POPC   C1B66103  42.589   9.362   6.278
 5148POPC   C2B66104  42.387   9.338   6.712
 5148POPC   C3B66105  42.333   9.403   7.172
 5148POPC   C4B66106  42.484   9.121   7.537
 5149POPC   NC366107   8.299  11.391   5.266
 5149POPC   PO466108   8.327  10.894   5.715
 5149POPC   GL166109   8.423  11.319   5.782
 5149POPC   GL266110   8.094  11.503   5.758
 5149POPC   C1A66111   8.410  11.552   6.176
 5149POPC   D2A66112   8.211  11.609   6.583
 5149POPC   C3A66113   8.399  11.342   6.890
 5149POPC   C4A66114   8.638  11.207   7.277
 5149POPC   C1B66115   7.880  11.472   6.171
 5149POPC   C2B66116   7.800  11.248   6.552
 5149POPC   C3B66117   7.930  11.111   6.955
 5149POPC   C4B66118   8.065  11.413   7.258
 5150POPC   NC366119  31.378  29.751   5.323
 5150POPC   PO466120  31.953  30.138   5.267
 5150POPC   GL166121  31.598  30.098   5.609
 5150POPC   GL266122  31.537  29.756   5.799
 5150POPC   C1A66123  31.433  30.171   6.061
 5150POPC   D2A66124  31.320  30.200   6.520
 5150POPC   C3A66125  31.449  29.965   6.911
 5150POPC   C4A66126  31.780  29.740   7.116
 5150POPC   C1B66127  31.515  29.691   6.260
 5150POPC   C2B66128  31.405  29.510   6.657
 5150POPC   C3B66129  31.393  29.400   7.053
 5150POPC   C4B66130  31.669  29.277   7.375
 5151POPC   NC366131   4.176  24.555   5.123
 5151POPC   PO466132   3.483  24.552   5.286
 5151POPC   GL166133   3.416  24.520   5.776
 5151POPC   GL266134   3.711  24.615   5.992
 5151POPC   C1A66135   3.427  24.197   6.125
 5151POPC   D2A66136   3.578  24.058   6.536
 5151POPC   C3A66137   3.442  24.251   6.904
 5151POPC   C4A66138   3.829  24.238   7.109
 5151POPC   C1B66139   3.368  24.793   6.262
 5151POPC   C2B66140   3.358  24.910   6.716
 5151POPC   C3B66141   3.632  24.747   7.049
 5151POPC   C4B66142   3.918  24.647   7.378
 5152POPC   NC366143  36.578  35.098   5.311
 5152POPC   PO466144  37.172  35.497   5.392
 5152POPC   GL166145  36.843  35.376   5.684
 5152POPC   GL266146  36.795  35.718   5.806
 5152POPC   C1A66147  36.862  35.081   6.060
 5152POPC   D2A66148  36.735  34.973   6.485
 5152POPC   C3A66149  36.886  35.215   6.793
 5152POPC   C4A66150  36.838  35.228   7.192
 5152POPC   C1B66151  36.578  35.529   6.111
 5152POPC   C2B66152  36.526  35.454   6.528
 5152POPC   C3B66153  36.552  35.604   6.980
 5152POPC   C4B66154  36.589  35.573   7.478
 5153POPC   NC366155  33.956   7.036   5.435
 5153POPC   PO466156  33.543   7.720   5.424
 5153POPC   GL166157  33.686   7.409   5.709
 5153POPC   GL266158  33.745   7.696   5.909
 5153POPC   C1A66159  33.861   7.267   6.136
 5153POPC   D2A66160  33.796   7.556   6.506
 5153POPC   C3A66161  33.902   7.419   6.903
 5153POPC   C4A66162  33.699   7.225   7.248
 5153POPC   C1B66163  34.068   7.810   6.167
 5153POPC   C2B66164  34.057   8.039   6.579
 5153POPC   C3B66165  34.168   7.874   6.977
 5153POPC   C4B66166  34.044   7.666   7.327
 5154POPC   NC366167  33.661  36.651   5.455
 5154POPC   PO466168  33.983  36.015   5.393
 5154POPC   GL166169  33.934  36.198   5.790
 5154POPC   GL266170  33.613  36.348   5.851
 5154POPC   C1A66171  34.090  36.305   6.190
 5154POPC   D2A66172  33.945  36.153   6.570
 5154POPC   C3A66173  34.038  36.303   6.971
 5154POPC   C4A66174  34.107  35.951   7.150
 5154POPC   C1B66175  33.522  36.116   6.207
 5154POPC   C2B66176  33.435  36.186   6.643
 5154POPC   C3B66177  33.631  35.985   6.984
 5154POPC   C4B66178  33.717  36.115   7.429
 5155POPC   NC366179  28.002  19.075   5.465
 5155POPC   PO466180  28.694  19.036   5.586
 5155POPC   GL166181  28.354  18.977   5.839
 5155POPC   GL266182  28.320  19.326   5.846
 5155POPC   C1A66183  28.139  18.892   6.251
 5155POPC   D2A66184  28.188  18.745   6.702
 5155POPC   C3A66185  28.107  19.054   7.050
 5155POPC   C4A66186  27.779  19.369   7.171
 5155POPC   C1B66187  28.532  19.242   6.230
 5155POPC   C2B66188  28.355  19.268   6.623
 5155POPC   C3B66189  28.592  19.223   6.972
 5155POPC   C4B66190  28.502  19.034   7.387
 5156POPC   NC366191  39.839  17.839   5.229
 5156POPC   PO466192  40.072  17.203   5.204
 5156POPC   GL166193  40.008  17.495   5.650
 5156POPC   GL266194  40.247  17.391   5.874
 5156POPC   C1A66195  39.687  17.426   6.075
 5156POPC   D2A66196  39.663  17.605   6.529
 5156POPC   C3A66197  39.806  17.359   6.917
 5156POPC   C4A66198  39.789  17.222   7.364
 5156POPC   C1B66199  40.369  17.507   6.263
 5156POPC   C2B66200  40.179  17.607   6.641
 5156POPC   C3B66201  40.350  17.856   6.971
 5156POPC   C4B66202  40.446  17.555   7.255
 5157POPC   NC366203  19.395  16.149   5.153
 5157POPC   PO466204  18.835  15.677   5.343
 5157POPC   GL166205  19.017  15.917   5.716
 5157POPC   GL266206  19.329  15.763   5.885
 5157POPC   C1A66207  18.941  16.037   6.139
 5157POPC   D2A66208  18.743  16.119   6.520
 5157POPC   C3A66209  18.826  15.901   6.863
 5157POPC   C4A66210  18.961  16.115   7.229
 5157POPC   C1B66211  19.391  15.854   6.304
 5157POPC   C2B66212  19.257  16.071   6.644
 5157POPC   C3B66213  19.436  16.141   7.043
 5157POPC   C4B66214  19.406  15.890   7.435
 5158POPC   NC366215  23.922  14.518   5.546
 5158POPC   PO466216  23.670  15.176   5.302
 5158POPC   GL166217  23.692  15.218   5.748
 5158POPC   GL266218  24.035  15.286   5.809
 5158POPC   C1A66219  23.680  15.205   6.192
 5158POPC   D2A66220  23.975  15.204   6.537
 5158POPC   C3A66221  23.720  15.200   6.927
 5158POPC   C4A66222  23.765  15.344   7.356
 5158POPC   C1B66223  24.051  14.885   6.060
 5158POPC   C2B66224  23.926  14.712   6.419
 5158POPC   C3B66225  24.020  14.780   6.838
 5158POPC   C4B66226  24.009  14.923   7.248
 5159POPC   NC366227  23.295  20.812   5.070
 5159POPC   PO466228  23.852  20.519   5.216
 5159POPC   GL166229  23.938  20.572   5.670
 5159POPC   GL266230  24.181  20.395   5.857
 5159POPC   C1A66231  23.752  20.516   6.097
 5159POPC   D2A66232  23.703  20.702   6.493
 5159POPC   C3A66233  23.535  20.491   6.845
 5159POPC   C4A66234  23.444  20.633   7.244
 5159POPC   C1B66235  24.213  20.388   6.308
 5159POPC   C2B66236  24.003  20.348   6.693
 5159POPC   C3B66237  23.981  20.530   7.136
 5159POPC   C4B66238  23.987  20.353   7.579
 5160POPC   NC366239  31.219  31.315   5.383
 5160POPC   PO466240  31.657  31.768   5.333
 5160POPC   GL166241  31.601  31.760   5.761
 5160POPC   GL266242  31.588  31.407   5.755
 5160POPC   C1A66243  31.592  31.678   6.223
 5160POPC   D2A66244  31.362  31.820   6.602
 5160POPC   C3A66245  31.569  31.764   6.946
 5160POPC   C4A66246  31.450  31.437   7.235
 5160POPC   C1B66247  31.899  31.148   5.995
 5160POPC   C2B66248  31.918  31.164   6.471
 5160POPC   C3B66249  31.878  31.349   6.906
 5160POPC   C4B66250  31.860  31.156   7.326
 5161POPC   NC366251   9.978  15.075   5.322
 5161POPC   PO466252   9.385  15.077   5.492
 5161POPC   GL166253   9.685  15.007   5.785
 5161POPC   GL266254   9.837  15.351   5.780
 5161POPC   C1A66255   9.559  14.972   6.212
 5161POPC   D2A66256   9.498  15.272   6.525
 5161POPC   C3A66257   9.748  15.152   6.878
 5161POPC   C4A66258   9.686  15.199   7.304
 5161POPC   C1B66259  10.005  15.326   6.215
 5161POPC   C2B66260  10.223  15.309   6.622
 5161POPC   C3B66261  10.204  15.319   7.067
 5161POPC   C4B66262  10.111  14.956   7.320
 5162POPC   NC366263  35.742  20.143   5.532
 5162POPC   PO466264  36.124  19.640   5.304
 5162POPC   GL166265  36.117  19.634   5.758
 5162POPC   GL266266  36.459  19.573   5.826
 5162POPC   C1A66267  36.008  19.831   6.142
 5162POPC   D2A66268  36.286  20.060   6.426
 5162POPC   C3A66269  36.115  20.079   6.851
 5162POPC   C4A66270  36.253  19.898   7.219
 5162POPC   C1B66271  36.387  19.512   6.275
 5162POPC   C2B66272  36.332  19.622   6.704
 5162POPC   C3B66273  36.389  19.425   7.131
 5162POPC   C4B66274  36.433  19.441   7.583
 5163POPC   NC366275  28.084  11.397   5.575
 5163POPC   PO466276  28.377  10.737   5.562
 5163POPC   GL166277  28.412  11.081   5.883
 5163POPC   GL266278  28.514  11.450   5.886
 5163POPC   C1A66279  28.184  11.079   6.258
 5163POPC   D2A66280  27.953  11.235   6.622
 5163POPC   C3A66281  28.096  11.051   7.004
 5163POPC   C4A66282  28.155  11.286   7.355
 5163POPC   C1B66283  28.637  11.313   6.297
 5163POPC   C2B66284  28.459  11.291   6.700
 5163POPC   C3B66285  28.560  11.468   7.100
 5163POPC   C4B66286  28.704  11.241   7.472
 5164POPC   NC366287  38.003  19.229   5.550
 5164POPC   PO466288  37.299  19.039   5.494
 5164POPC   GL166289  37.438  19.073   5.889
 5164POPC   GL266290  37.724  18.879   5.895
 5164POPC   C1A66291  37.351  19.266   6.289
 5164POPC   D2A66292  37.495  19.449   6.677
 5164POPC   C3A66293  37.573  19.113   6.976
 5164POPC   C4A66294  37.555  18.826   7.367
 5164POPC   C1B66295  37.853  19.073   6.286
 5164POPC   C2B66296  38.030  18.961   6.698
 5164POPC   C3B66297  38.027  18.961   7.155
 5164POPC   C4B66298  38.129  18.979   7.609
 5165POPC   NC366299  22.264  13.366   5.550
 5165POPC   PO466300  21.880  13.947   5.541
 5165POPC   GL166301  22.068  13.713   5.881
 5165POPC   GL266302  22.448  13.720   5.886
 5165POPC   C1A66303  22.168  13.506   6.285
 5165POPC   D2A66304  22.251  13.696   6.691
 5165POPC   C3A66305  21.966  13.644   7.042
 5165POPC   C4A66306  21.627  13.922   7.160
 5165POPC   C1B66307  22.606  13.837   6.305
 5165POPC   C2B66308  22.803  13.631   6.664
 5165POPC   C3B66309  22.558  13.475   7.021
 5165POPC   C4B66310  22.375  13.724   7.351
 5166POPC   NC366311   4.312  14.535   5.596
 5166POPC   PO466312   4.450  13.940   5.596
 5166POPC   GL166313   4.371  14.155   5.934
 5166POPC   GL266314   4.008  14.262   5.926
 5166POPC   C1A66315   4.499  14.325   6.304
 5166POPC   D2A66316   4.354  14.495   6.660
 5166POPC   C3A66317   4.585  14.501   7.012
 5166POPC   C4A66318   4.457  14.405   7.407
 5166POPC   C1B66319   4.085  14.638   6.221
 5166POPC   C2B66320   3.942  14.780   6.655
 5166POPC   C3B66321   4.059  14.524   7.082
 5166POPC   C4B66322   4.006  14.583   7.584
 5167POPC   NC366323  37.461  35.104   5.417
 5167POPC   PO466324  37.994  35.570   5.472
 5167POPC   GL166325  37.769  35.370   5.812
 5167POPC   GL266326  37.794  34.991   5.831
 5167POPC   C1A66327  37.853  35.324   6.264
 5167POPC   D2A66328  37.759  35.427   6.705
 5167POPC   C3A66329  37.941  35.202   7.042
 5167POPC   C4A66330  37.988  35.313   7.455
 5167POPC   C1B66331  37.432  35.015   6.143
 5167POPC   C2B66332  37.296  34.936   6.600
 5167POPC   C3B66333  37.346  35.169   7.007
 5167POPC   C4B66334  37.533  35.511   7.183
 5168POPC   NC366335  27.648  39.396   5.439
 5168POPC   PO466336  27.245  38.785   5.350
 5168POPC   GL166337  27.509  38.964   5.723
 5168POPC   GL266338  27.363  39.318   5.849
 5168POPC   C1A66339  27.646  39.057   6.176
 5168POPC   D2A66340  27.507  39.297   6.545
 5168POPC   C3A66341  27.569  39.088   6.917
 5168POPC   C4A66342  27.339  39.120   7.296
 5168POPC   C1B66343  27.413  39.657   6.181
 5168POPC   C2B66344  27.268  39.791   6.560
 5168POPC   C3B66345  27.328  39.634   6.939
 5168POPC   C4B66346  27.685  39.516   7.163
 5169POPC   NC366347  24.047  42.226   5.497
 5169POPC   PO466348  23.427  42.001   5.248
 5169POPC   GL166349  23.583  42.104   5.694
 5169POPC   GL266350  23.567  42.479   5.745
 5169POPC   C1A66351  23.758  42.186   6.145
 5169POPC   D2A66352  23.572  42.101   6.569
 5169POPC   C3A66353  23.689  42.265   6.977
 5169POPC   C4A66354  24.015  42.247   7.262
 5169POPC   C1B66355  23.604  42.694   6.174
 5169POPC   C2B66356  23.629  42.675   6.653
 5169POPC   C3B66357  23.488  42.730   7.101
 5169POPC   C4B66358  23.617  42.501   7.496
 5170POPC   NC366359  26.812   3.906   5.448
 5170POPC   PO466360  27.122   3.227   5.369
 5170POPC   GL166361  26.890   3.436   5.708
 5170POPC   GL266362  27.189   3.631   5.732
 5170POPC   C1A66363  26.573   3.501   6.089
 5170POPC   D2A66364  26.457   3.477   6.561
 5170POPC   C3A66365  26.791   3.237   6.843
 5170POPC   C4A66366  27.048   3.338   7.212
 5170POPC   C1B66367  27.095   3.807   6.137
 5170POPC   C2B66368  26.784   3.862   6.436
 5170POPC   C3B66369  26.844   3.742   6.837
 5170POPC   C4B66370  26.797   3.838   7.251
 5171POPC   NC366371  26.493  37.821   5.454
 5171POPC   PO466372  26.058  37.330   5.554
 5171POPC   GL166373  26.301  37.506   5.883
 5171POPC   GL266374  26.206  37.874   5.891
 5171POPC   C1A66375  26.318  37.439   6.341
 5171POPC   D2A66376  26.334  37.724   6.681
 5171POPC   C3A66377  26.065  37.579   6.993
 5171POPC   C4A66378  26.072  37.412   7.339
 5171POPC   C1B66379  25.926  37.761   6.261
 5171POPC   C2B66380  25.811  37.901   6.686
 5171POPC   C3B66381  26.035  38.069   7.066
 5171POPC   C4B66382  26.060  37.909   7.463
 5172POPC   NC366383  21.482  18.339   5.233
 5172POPC   PO466384  20.884  18.133   5.123
 5172POPC   GL166385  21.175  18.160   5.603
 5172POPC   GL266386  21.034  18.413   5.890
 5172POPC   C1A66387  21.253  18.013   6.094
 5172POPC   D2A66388  21.428  18.036   6.552
 5172POPC   C3A66389  21.285  18.150   7.029
 5172POPC   C4A66390  21.296  18.086   7.533
 5172POPC   C1B66391  21.363  18.506   6.222
 5172POPC   C2B66392  21.561  18.519   6.624
 5172POPC   C3B66393  21.542  18.677   7.050
 5172POPC   C4B66394  21.651  18.424   7.417
 5173POPC   NC366395  37.268  11.956   5.440
 5173POPC   PO466396  36.587  12.247   5.399
 5173POPC   GL166397  36.863  12.182   5.754
 5173POPC   GL266398  36.941  11.826   5.815
 5173POPC   C1A66399  36.810  12.185   6.202
 5173POPC   D2A66400  37.026  12.143   6.584
 5173POPC   C3A66401  36.787  12.161   6.996
 5173POPC   C4A66402  36.712  11.989   7.421
 5173POPC   C1B66403  37.239  11.843   6.163
 5173POPC   C2B66404  37.301  11.599   6.529
 5173POPC   C3B66405  37.011  11.682   6.852
 5173POPC   C4B66406  37.116  11.772   7.243
 5174POPC   NC366407  16.050  40.207   5.609
 5174POPC   PO466408  15.623  39.820   5.156
 5174POPC   GL166409  15.755  39.797   5.673
 5174POPC   GL266410  16.127  39.729   5.818
 5174POPC   C1A66411  15.803  39.966   6.165
 5174POPC   D2A66412  15.884  39.757   6.576
 5174POPC   C3A66413  15.899  39.988   6.967
 5174POPC   C4A66414  15.556  40.258   7.153
 5174POPC   C1B66415  16.301  40.052   6.156
 5174POPC   C2B66416  16.090  40.293   6.494
 5174POPC   C3B66417  16.096  40.464   6.918
 5174POPC   C4B66418  16.047  40.327   7.327
 5175POPC   NC366419   3.329  24.136   5.450
 5175POPC   PO466420   3.663  23.545   5.454
 5175POPC   GL166421   3.755  23.780   5.812
 5175POPC   GL266422   3.841  24.147   5.754
 5175POPC   C1A66423   3.607  23.664   6.219
 5175POPC   D2A66424   3.263  23.653   6.541
 5175POPC   C3A66425   3.391  23.744   6.980
 5175POPC   C4A66426   3.476  23.978   7.373
 5175POPC   C1B66427   4.014  24.014   6.183
 5175POPC   C2B66428   4.040  23.702   6.525
 5175POPC   C3B66429   3.935  23.730   6.965
 5175POPC   C4B66430   3.755  23.451   7.242
 5176POPC   NC366431  35.076  23.169   5.457
 5176POPC   PO466432  34.512  23.033   5.296
 5176POPC   GL166433  34.646  23.017   5.705
 5176POPC   GL266434  34.415  22.776   5.836
 5176POPC   C1A66435  34.796  23.276   6.069
 5176POPC   D2A66436  34.981  23.121   6.468
 5176POPC   C3A66437  34.802  23.245   6.845
 5176POPC   C4A66438  34.927  23.436   7.236
 5176POPC   C1B66439  34.748  22.776   6.137
 5176POPC   C2B66440  34.609  22.769   6.527
 5176POPC   C3B66441  34.538  22.788   6.948
 5176POPC   C4B66442  34.526  23.111   7.276
 5177POPC   NC366443  39.770   1.704   5.487
 5177POPC   PO466444  40.448   1.697   5.500
 5177POPC   GL166445  40.136   1.892   5.834
 5177POPC   GL266446  39.730   1.982   5.905
 5177POPC   C1A66447  40.208   2.163   6.180
 5177POPC   D2A66448  40.426   2.312   6.546
 5177POPC   C3A66449  40.478   2.039   6.892
 5177POPC   C4A66450  40.288   1.899   7.295
 5177POPC   C1B66451  39.760   2.020   6.341
 5177POPC   C2B66452  39.955   2.120   6.726
 5177POPC   C3B66453  39.832   2.124   7.149
 5177POPC   C4B66454  39.770   1.812   7.484
 5178POPC   NC366455  12.080  37.803   5.013
 5178POPC   PO466456  12.103  37.627   5.701
 5178POPC   GL166457  12.277  37.344   5.944
 5178POPC   GL266458  12.114  37.535   6.211
 5178POPC   C1A66459  12.380  37.135   6.337
 5178POPC   D2A66460  12.145  37.205   6.715
 5178POPC   C3A66461  12.239  37.542   7.008
 5178POPC   C4A66462  11.877  37.758   7.196
 5178POPC   C1B66463  12.375  37.880   6.293
 5178POPC   C2B66464  12.211  38.044   6.662
 5178POPC   C3B66465  12.128  38.151   7.066
 5178POPC   C4B66466  12.120  38.082   7.535
 5179POPC   NC366467  19.530  33.558   5.081
 5179POPC   PO466468  19.977  33.751   5.579
 5179POPC   GL166469  19.832  33.971   5.918
 5179POPC   GL266470  19.503  34.084   5.800
 5179POPC   C1A66471  19.951  33.999   6.360
 5179POPC   D2A66472  19.981  34.239   6.724
 5179POPC   C3A66473  19.822  34.001   7.055
 5179POPC   C4A66474  20.218  33.934   7.248
 5179POPC   C1B66475  19.435  33.973   6.245
 5179POPC   C2B66476  19.568  33.739   6.599
 5179POPC   C3B66477  19.443  33.651   6.995
 5179POPC   C4B66478  19.428  33.868   7.407
 5180POPC   NC366479  38.335  43.534   5.544
 5180POPC   PO466480  38.441  42.784   5.480
 5180POPC   GL166481  38.282  42.806   5.863
 5180POPC   GL266482  38.177  43.157   5.862
 5180POPC   C1A66483  38.375  42.878   6.258
 5180POPC   D2A66484  38.335  43.091   6.595
 5180POPC   C3A66485  38.367  42.849   6.923
 5180POPC   C4A66486  38.146  43.082   7.237
 5180POPC   C1B66487  38.363  43.432   6.215
 5180POPC   C2B66488  38.628  43.492   6.646
 5180POPC   C3B66489  38.660  43.263   7.053
 5180POPC   C4B66490  38.773  43.338   7.504
 5181POPC   NC366491   9.546  24.129   4.994
 5181POPC   PO466492   9.501  24.671   5.402
 5181POPC   GL166493   9.722  24.455   5.709
 5181POPC   GL266494   9.753  24.778   5.832
 5181POPC   C1A66495   9.574  24.274   6.103
 5181POPC   D2A66496   9.781  24.171   6.494
 5181POPC   C3A66497   9.736  24.375   6.884
 5181POPC   C4A66498   9.960  24.355   7.269
 5181POPC   C1B66499   9.889  24.659   6.224
 5181POPC   C2B66500   9.974  24.876   6.601
 5181POPC   C3B66501   9.944  24.817   7.047
 5181POPC   C4B66502   9.811  24.884   7.460
 5182POPC   NC366503  32.569  13.465   5.501
 5182POPC   PO466504  33.024  13.967   5.311
 5182POPC   GL166505  32.961  13.753   5.709
 5182POPC   GL266506  33.285  13.654   5.911
 5182POPC   C1A66507  32.867  13.814   6.156
 5182POPC   D2A66508  33.110  13.700   6.516
 5182POPC   C3A66509  32.985  13.532   6.920
 5182POPC   C4A66510  33.086  13.631   7.332
 5182POPC   C1B66511  33.409  13.341   6.279
 5182POPC   C2B66512  33.454  13.382   6.753
 5182POPC   C3B66513  33.293  13.179   7.146
 5182POPC   C4B66514  33.311  13.230   7.609
 5183POPC   NC366515  32.780  10.951   5.479
 5183POPC   PO466516  33.277  11.375   5.299
 5183POPC   GL166517  33.275  11.557   5.760
 5183POPC   GL266518  32.909  11.440   5.846
 5183POPC   C1A66519  33.312  11.508   6.225
 5183POPC   D2A66520  33.337  11.208   6.560
 5183POPC   C3A66521  33.350  11.380   6.971
 5183POPC   C4A66522  33.191  11.263   7.368
 5183POPC   C1B66523  32.816  11.256   6.271
 5183POPC   C2B66524  32.821  11.154   6.718
 5183POPC   C3B66525  32.600  11.301   7.088
 5183POPC   C4B66526  32.713  11.448   7.507
 5184POPC   NC366527  20.333  42.896   5.422
 5184POPC   PO466528  20.121  43.519   5.616
 5184POPC   GL166529  20.450  43.273   5.832
 5184POPC   GL266530  20.699  42.992   5.793
 5184POPC   C1A66531  20.525  43.196   6.261
 5184POPC   D2A66532  20.240  43.281   6.542
 5184POPC   C3A66533  20.407  43.473   6.892
 5184POPC   C4A66534  20.594  43.263   7.242
 5184POPC   C1B66535  20.971  43.001   6.154
 5184POPC   C2B66536  21.015  43.153   6.555
 5184POPC   C3B66537  20.676  43.047   6.785
 5184POPC   C4B66538  20.696  42.769   7.116
 5185POPC   NC366539  24.576  27.172   5.502
 5185POPC   PO466540  24.778  26.608   5.348
 5185POPC   GL166541  24.634  26.730   5.783
 5185POPC   GL266542  24.341  26.940   5.877
 5185POPC   C1A66543  24.707  26.616   6.221
 5185POPC   D2A66544  24.526  26.580   6.642
 5185POPC   C3A66545  24.766  26.786   7.000
 5185POPC   C4A66546  24.517  26.559   7.282
 5185POPC   C1B66547  24.356  26.976   6.308
 5185POPC   C2B66548  24.527  27.098   6.671
 5185POPC   C3B66549  24.284  26.947   6.948
 5185POPC   C4B66550  24.180  26.973   7.303
 5186POPC   NC366551  36.905  37.906   5.396
 5186POPC   PO466552  36.603  37.299   5.511
 5186POPC   GL166553  36.805  37.475   5.872
 5186POPC   GL266554  37.060  37.734   5.878
 5186POPC   C1A66555  36.781  37.622   6.292
 5186POPC   D2A66556  36.782  37.499   6.681
 5186POPC   C3A66557  37.106  37.617   6.871
 5186POPC   C4A66558  36.993  37.660   7.248
 5186POPC   C1B66559  37.080  38.043   6.224
 5186POPC   C2B66560  36.835  38.049   6.624
 5186POPC   C3B66561  37.099  38.132   6.959
 5186POPC   C4B66562  37.173  38.131   7.385
 5187POPC   NC366563   0.354   5.554   5.119
 5187POPC   PO466564   0.367   6.113   5.509
 5187POPC   GL166565   0.557   5.952   5.864
 5187POPC   GL266566   0.353   5.729   5.886
 5187POPC   C1A66567   0.703   5.743   6.265
 5187POPC   D2A66568   0.501   5.758   6.661
 5187POPC   C3A66569   0.714   5.849   7.061
 5187POPC   C4A66570   0.683   5.874   7.527
 5187POPC   C1B66571   0.153   5.709   6.277
 5187POPC   C2B66572  44.979   5.794   6.673
 5187POPC   C3B66573   0.180   5.776   7.077
 5187POPC   C4B66574   0.032   5.516   7.454
 5188POPC   NC366575  25.053  13.712   5.350
 5188POPC   PO466576  25.732  13.610   5.379
 5188POPC   GL166577  25.451  13.430   5.701
 5188POPC   GL266578  25.122  13.559   5.822
 5188POPC   C1A66579  25.465  13.421   6.167
 5188POPC   D2A66580  25.406  13.662   6.570
 5188POPC   C3A66581  25.335  13.477   6.967
 5188POPC   C4A66582  25.190  13.458   7.428
 5188POPC   C1B66583  24.990  13.761   6.219
 5188POPC   C2B66584  24.914  13.785   6.671
 5188POPC   C3B66585  24.992  13.834   7.114
 5188POPC   C4B66586  24.945  13.881   7.582
 5189POPC   NC366587  29.609   9.998   5.386
 5189POPC   PO466588  30.202   9.950   5.668
 5189POPC   GL166589  29.927   9.646   5.848
 5189POPC   GL266590  29.607   9.578   5.683
 5189POPC   C1A66591  30.000   9.578   6.276
 5189POPC   D2A66592  29.929   9.856   6.621
 5189POPC   C3A66593  30.021   9.747   7.035
 5189POPC   C4A66594  29.986   9.732   7.515
 5189POPC   C1B66595  29.537   9.395   6.073
 5189POPC   C2B66596  29.541   9.537   6.492
 5189POPC   C3B66597  29.546   9.557   6.912
 5189POPC   C4B66598  29.801   9.340   7.217
 5190POPC   NC366599   6.965  27.775   5.331
 5190POPC   PO466600   6.307  27.645   5.376
 5190POPC   GL166601   6.514  27.642   5.768
 5190POPC   GL266602   6.322  27.840   5.976
 5190POPC   C1A66603   6.627  27.387   6.143
 5190POPC   D2A66604   6.598  27.162   6.527
 5190POPC   C3A66605   6.662  27.371   6.929
 5190POPC   C4A66606   6.921  27.494   7.260
 5190POPC   C1B66607   6.733  27.887   6.177
 5190POPC   C2B66608   6.826  27.720   6.564
 5190POPC   C3B66609   6.737  27.889   6.979
 5190POPC   C4B66610   6.420  27.826   7.281
 5191POPC   NC366611  41.096  19.952   5.532
 5191POPC   PO466612  40.598  19.529   5.508
 5191POPC   GL166613  40.543  19.675   5.894
 5191POPC   GL266614  40.903  19.706   5.952
 5191POPC   C1A66615  40.544  19.482   6.299
 5191POPC   D2A66616  40.507  19.421   6.733
 5191POPC   C3A66617  40.762  19.753   6.897
 5191POPC   C4A66618  40.661  19.889   7.292
 5191POPC   C1B66619  41.076  20.077   6.180
 5191POPC   C2B66620  41.066  20.303   6.601
 5191POPC   C3B66621  41.056  20.155   7.031
 5191POPC   C4B66622  41.127  19.991   7.437
 5192POPC   NC366623  25.679  43.047   5.556
 5192POPC   PO466624  25.015  42.816   5.441
 5192POPC   GL166625  25.193  43.149   5.686
 5192POPC   GL266626  25.069  43.454   5.849
 5192POPC   C1A66627  25.247  43.061   6.119
 5192POPC   D2A66628  25.365  42.929   6.500
 5192POPC   C3A66629  25.120  43.079   6.801
 5192POPC   C4A66630  25.290  42.995   7.186
 5192POPC   C1B66631  25.397  43.566   6.165
 5192POPC   C2B66632  25.571  43.481   6.589
 5192POPC   C3B66633  25.358  43.466   7.015
 5192POPC   C4B66634  24.941  43.529   7.157
 5193POPC   NC366635  12.376   9.484   5.578
 5193POPC   PO466636  12.874   9.889   5.591
 5193POPC   GL166637  12.615   9.822   5.929
 5193POPC   GL266638  12.350  10.048   6.003
 5193POPC   C1A66639  12.738   9.894   6.378
 5193POPC   D2A66640  12.867   9.627   6.751
 5193POPC   C3A66641  13.003   9.729   7.170
 5193POPC   C4A66642  13.299   9.615   7.443
 5193POPC   C1B66643  12.302   9.663   6.290
 5193POPC   C2B66644  12.357   9.608   6.741
 5193POPC   C3B66645  12.496   9.637   7.140
 5193POPC   C4B66646  12.627  10.042   7.269
 5194POPC   NC366647  13.263  38.646   5.474
 5194POPC   PO466648  12.611  38.380   5.376
 5194POPC   GL166649  12.833  38.406   5.736
 5194POPC   GL266650  12.838  38.744   5.770
 5194POPC   C1A66651  12.798  38.373   6.187
 5194POPC   D2A66652  12.928  38.324   6.627
 5194POPC   C3A66653  12.634  38.159   6.937
 5194POPC   C4A66654  12.483  38.384   7.323
 5194POPC   C1B66655  12.990  38.853   6.160
 5194POPC   C2B66656  12.756  38.897   6.548
 5194POPC   C3B66657  12.738  38.683   6.925
 5194POPC   C4B66658  12.987  38.417   7.182
 5195POPC   NC366659  40.613  26.614   5.309
 5195POPC   PO466660  41.142  27.086   5.388
 5195POPC   GL166661  40.870  26.853   5.671
 5195POPC   GL266662  40.521  26.957   5.692
 5195POPC   C1A66663  40.703  26.640   6.051
 5195POPC   D2A66664  40.743  26.489   6.464
 5195POPC   C3A66665  40.573  26.743   6.803
 5195POPC   C4A66666  40.827  26.712   7.156
 5195POPC   C1B66667  40.452  27.111   6.127
 5195POPC   C2B66668  40.439  27.232   6.563
 5195POPC   C3B66669  40.359  27.231   7.011
 5195POPC   C4B66670  40.288  27.088   7.435
 5196POPC   NC366671  20.491  13.441   5.372
 5196POPC   PO466672  21.181  13.254   5.366
 5196POPC   GL166673  20.934  13.350   5.738
 5196POPC   GL266674  20.667  13.621   5.816
 5196POPC   C1A66675  20.939  13.415   6.186
 5196POPC   D2A66676  20.696  13.578   6.532
 5196POPC   C3A66677  20.877  13.541   6.945
 5196POPC   C4A66678  20.694  13.723   7.281
 5196POPC   C1B66679  20.402  13.358   6.109
 5196POPC   C2B66680  20.262  13.283   6.554
 5196POPC   C3B66681  20.386  13.419   6.975
 5196POPC   C4B66682  20.338  13.398   7.429
 5197POPC   NC366683   2.319  28.338   5.440
 5197POPC   PO466684   2.954  28.549   5.263
 5197POPC   GL166685   2.950  28.465   5.768
 5197POPC   GL266686   3.067  28.128   5.898
 5197POPC   C1A66687   2.732  28.396   6.193
 5197POPC   D2A66688   2.738  28.248   6.626
 5197POPC   C3A66689   2.828  28.541   6.970
 5197POPC   C4A66690   2.523  28.560   7.303
 5197POPC   C1B66691   3.225  28.236   6.317
 5197POPC   C2B66692   3.235  28.232   6.764
 5197POPC   C3B66693   2.962  28.049   7.086
 5197POPC   C4B66694   2.950  28.284   7.471
 5198POPC   NC366695  27.408  25.519   5.546
 5198POPC   PO466696  27.938  25.315   5.240
 5198POPC   GL166697  27.827  25.320   5.737
 5198POPC   GL266698  27.503  25.092   5.811
 5198POPC   C1A66699  27.655  25.480   6.161
 5198POPC   D2A66700  27.471  25.404   6.552
 5198POPC   C3A66701  27.627  25.442   6.965
 5198POPC   C4A66702  27.669  25.296   7.378
 5198POPC   C1B66703  27.563  24.989   6.250
 5198POPC   C2B66704  27.463  24.829   6.638
 5198POPC   C3B66705  27.623  24.857   7.045
 5198POPC   C4B66706  27.425  24.841   7.408
 5199POPC   NC366707  27.666   3.123   5.489
 5199POPC   PO466708  27.731   2.451   5.536
 5199POPC   GL166709  27.558   2.738   5.804
 5199POPC   GL266710  27.864   2.833   5.930
 5199POPC   C1A66711  27.450   2.956   6.181
 5199POPC   D2A66712  27.314   2.762   6.543
 5199POPC   C3A66713  27.505   2.701   6.924
 5199POPC   C4A66714  27.410   2.957   7.294
 5199POPC   C1B66715  27.957   3.127   6.280
 5199POPC   C2B66716  27.778   3.156   6.683
 5199POPC   C3B66717  27.881   3.073   7.108
 5199POPC   C4B66718  27.868   2.677   7.277
 5200POPC   NC366719  12.450  41.281   5.643
 5200POPC   PO466720  12.091  41.764   5.283
 5200POPC   GL166721  11.967  41.424   5.613
 5200POPC   GL266722  12.157  41.659   5.791
 5200POPC   C1A66723  11.962  41.331   6.112
 5200POPC   D2A66724  12.283  41.474   6.436
 5200POPC   C3A66725  12.151  41.317   6.819
 5200POPC   C4A66726  12.053  41.409   7.232
 5200POPC   C1B66727  12.131  41.860   6.141
 5200POPC   C2B66728  12.180  41.981   6.533
 5200POPC   C3B66729  12.176  41.810   6.884
 5200POPC   C4B66730  12.187  41.928   7.275
 5201POPC   NC366731  41.990  29.039   5.569
 5201POPC   PO466732  41.331  29.325   5.494
 5201POPC   GL166733  41.515  29.061   5.774
 5201POPC   GL266734  41.734  29.314   5.897
 5201POPC   C1A66735  41.605  28.939   6.209
 5201POPC   D2A66736  41.724  29.169   6.571
 5201POPC   C3A66737  41.563  29.025   6.969
 5201POPC   C4A66738  41.923  28.997   7.211
 5201POPC   C1B66739  41.959  29.470   6.206
 5201POPC   C2B66740  41.983  29.633   6.610
 5201POPC   C3B66741  41.999  29.424   6.979
 5201POPC   C4B66742  41.890  29.502   7.421
 5202POPC   NC366743  43.770  21.753   5.476
 5202POPC   PO466744  43.990  22.353   5.265
 5202POPC   GL166745  43.821  22.223   5.713
 5202POPC   GL266746  44.098  22.018   5.816
 5202POPC   C1A66747  43.869  22.296   6.189
 5202POPC   D2A66748  44.134  22.359   6.576
 5202POPC   C3A66749  43.856  22.323   6.940
 5202POPC   C4A66750  43.666  22.577   7.240
 5202POPC   C1B66751  44.305  22.006   6.234
 5202POPC   C2B66752  44.428  21.920   6.669
 5202POPC   C3B66753  44.271  22.050   7.035
 5202POPC   C4B66754  44.194  21.876   7.410
 5203POPC   NC366755  14.204  14.639   5.585
 5203POPC   PO466756  14.440  13.974   5.463
 5203POPC   GL166757  14.218  14.152   5.752
 5203POPC   GL266758  14.546  14.311   5.854
 5203POPC   C1A66759  14.176  14.182   6.166
 5203POPC   D2A66760  14.481  14.028   6.425
 5203POPC   C3A66761  14.419  13.952   6.829
 5203POPC   C4A66762  14.440  14.156   7.206
 5203POPC   C1B66763  14.547  14.517   6.265
 5203POPC   C2B66764  14.246  14.464   6.588
 5203POPC   C3B66765  14.280  14.603   6.956
 5203POPC   C4B66766  14.494  14.692   7.284
 5204POPC   NC366767   1.574  35.423   5.374
 5204POPC   PO466768   1.648  36.005   5.475
 5204POPC   GL166769   1.845  35.680   5.817
 5204POPC   GL266770   2.172  35.769   5.972
 5204POPC   C1A66771   1.924  35.399   6.259
 5204POPC   D2A66772   2.117  35.324   6.701
 5204POPC   C3A66773   2.058  35.170   7.140
 5204POPC   C4A66774   2.103  35.419   7.536
 5204POPC   C1B66775   1.802  35.884   6.294
 5204POPC   C2B66776   1.722  35.647   6.694
 5204POPC   C3B66777   1.817  35.615   7.138
 5204POPC   C4B66778   1.680  35.706   7.567
 5205POPC   NC366779  29.466  11.501   5.252
 5205POPC   PO466780  28.877  11.312   5.565
 5205POPC   GL166781  29.031  11.256   5.946
 5205POPC   GL266782  29.378  11.375   5.935
 5205POPC   C1A66783  29.172  11.115   6.334
 5205POPC   D2A66784  29.289  11.127   6.724
 5205POPC   C3A66785  29.033  11.276   7.017
 5205POPC   C4A66786  29.214  11.456   7.291
 5205POPC   C1B66787  29.527  11.466   6.392
 5205POPC   C2B66788  29.381  11.621   6.804
 5205POPC   C3B66789  29.555  11.807   7.191
 5205POPC   C4B66790  29.675  11.803   7.661
 5206POPC   NC366791   9.355  20.569   5.580
 5206POPC   PO466792   9.983  20.631   5.338
 5206POPC   GL166793   9.854  20.613   5.756
 5206POPC   GL266794   9.862  20.965   5.826
 5206POPC   C1A66795   9.823  20.366   6.150
 5206POPC   D2A66796   9.566  20.388   6.516
 5206POPC   C3A66797   9.778  20.301   6.902
 5206POPC   C4A66798   9.717  20.566   7.239
 5206POPC   C1B66799   9.709  20.848   6.262
 5206POPC   C2B66800   9.582  20.881   6.719
 5206POPC   C3B66801   9.550  21.040   7.161
 5206POPC   C4B66802   9.928  20.980   7.484
 5207POPC   NC366803  30.770   8.039   5.074
 5207POPC   PO466804  30.922   8.391   5.685
 5207POPC   GL166805  30.698   8.172   5.938
 5207POPC   GL266806  30.472   8.000   5.720
 5207POPC   C1A66807  30.884   8.145   6.329
 5207POPC   D2A66808  30.630   8.227   6.646
 5207POPC   C3A66809  30.869   8.155   6.976
 5207POPC   C4A66810  30.748   8.231   7.401
 5207POPC   C1B66811  30.215   7.801   6.067
 5207POPC   C2B66812  30.234   7.677   6.518
 5207POPC   C3B66813  30.351   7.866   6.917
 5207POPC   C4B66814  30.400   7.698   7.320
 5208POPC   NC366815  10.344  29.153   5.435
 5208POPC   PO466816  11.015  28.952   5.415
 5208POPC   GL166817  10.757  29.150   5.809
 5208POPC   GL266818  10.394  29.315   5.889
 5208POPC   C1A66819  10.659  29.169   6.274
 5208POPC   D2A66820  10.390  28.921   6.569
 5208POPC   C3A66821  10.468  28.993   7.022
 5208POPC   C4A66822  10.634  29.374   7.233
 5208POPC   C1B66823  10.173  29.356   6.223
 5208POPC   C2B66824  10.322  29.434   6.612
 5208POPC   C3B66825  10.146  29.537   6.966
 5208POPC   C4B66826  10.267  29.777   7.277
 5209POPC   NC366827   9.724   3.237   5.252
 5209POPC   PO466828   9.783   2.622   5.449
 5209POPC   GL166829   9.689   2.857   5.797
 5209POPC   GL266830   9.929   3.063   5.875
 5209POPC   C1A66831   9.741   2.756   6.243
 5209POPC   D2A66832  10.030   2.621   6.568
 5209POPC   C3A66833   9.819   2.621   6.953
 5209POPC   C4A66834   9.544   2.776   7.282
 5209POPC   C1B66835  10.188   3.025   6.249
 5209POPC   C2B66836  10.196   3.119   6.694
 5209POPC   C3B66837  10.282   2.968   7.113
 5209POPC   C4B66838  10.162   2.601   7.316
 5210POPC   NC366839  10.677  10.991   5.556
 5210POPC   PO466840  10.409  11.599   5.361
 5210POPC   GL166841  10.663  11.477   5.707
 5210POPC   GL266842  10.351  11.361   5.837
 5210POPC   C1A66843  10.793  11.400   6.144
 5210POPC   D2A66844  10.958  11.278   6.549
 5210POPC   C3A66845  10.790  11.393   6.939
 5210POPC   C4A66846  10.870  11.563   7.340
 5210POPC   C1B66847  10.313  11.250   6.284
 5210POPC   C2B66848  10.326  11.298   6.717
 5210POPC   C3B66849  10.280  11.028   7.046
 5210POPC   C4B66850  10.314  11.059   7.499
 5211POPC   NC366851  11.869  13.284   5.356
 5211POPC   PO466852  12.316  13.821   5.076
 5211POPC   GL166853  12.181  13.654   5.553
 5211POPC   GL266854  12.330  13.326   5.660
 5211POPC   C1A66855  12.058  13.637   6.066
 5211POPC   D2A66856  12.261  13.702   6.528
 5211POPC   C3A66857  12.064  13.756   6.980
 5211POPC   C4A66858  12.154  13.756   7.440
 5211POPC   C1B66859  12.194  13.160   6.077
 5211POPC   C2B66860  12.116  13.177   6.523
 5211POPC   C3B66861  12.244  13.250   6.961
 5211POPC   C4B66862  12.117  13.232   7.404
 5212POPC   NC366863  19.619  21.231   5.385
 5212POPC   PO466864  19.734  20.479   5.381
 5212POPC   GL166865  19.854  20.547   5.792
 5212POPC   GL266866  19.840  20.927   5.778
 5212POPC   C1A66867  20.055  20.432   6.211
 5212POPC   D2A66868  20.246  20.452   6.643
 5212POPC   C3A66869  19.932  20.439   6.984
 5212POPC   C4A66870  19.637  20.179   7.235
 5212POPC   C1B66871  19.709  20.834   6.190
 5212POPC   C2B66872  19.860  20.782   6.595
 5212POPC   C3B66873  19.812  20.931   7.026
 5212POPC   C4B66874  19.570  21.141   7.308
 5213POPC   NC366875  16.934   2.425   5.070
 5213POPC   PO466876  16.554   1.933   5.352
 5213POPC   GL166877  16.560   1.987   5.773
 5213POPC   GL266878  16.795   1.695   5.820
 5213POPC   C1A66879  16.832   2.119   6.140
 5213POPC   D2A66880  17.090   2.071   6.507
 5213POPC   C3A66881  16.865   2.063   6.908
 5213POPC   C4A66882  16.942   1.837   7.270
 5213POPC   C1B66883  16.528   1.708   6.184
 5213POPC   C2B66884  16.555   1.843   6.559
 5213POPC   C3B66885  16.385   1.839   6.960
 5213POPC   C4B66886  16.433   2.020   7.347
 5214POPC   NC366887  30.675  32.686   5.253
 5214POPC   PO466888  30.449  33.218   5.405
 5214POPC   GL166889  30.525  33.163   5.865
 5214POPC   GL266890  30.265  33.125   6.140
 5214POPC   C1A66891  30.719  33.311   6.260
 5214POPC   D2A66892  30.619  33.299   6.705
 5214POPC   C3A66893  31.009  33.213   6.939
 5214POPC   C4A66894  31.170  33.038   7.354
 5214POPC   C1B66895  30.566  32.839   6.396
 5214POPC   C2B66896  30.537  32.432   6.659
 5214POPC   C3B66897  30.388  32.417   7.106
 5214POPC   C4B66898  30.360  32.651   7.520
 5215POPC   NC366899  12.004  14.963   5.569
 5215POPC   PO466900  11.819  15.558   5.278
 5215POPC   GL166901  11.958  15.450   5.709
 5215POPC   GL266902  11.663  15.307   5.741
 5215POPC   C1A66903  12.069  15.358   6.198
 5215POPC   D2A66904  12.216  15.172   6.639
 5215POPC   C3A66905  12.349  15.316   7.054
 5215POPC   C4A66906  12.252  15.206   7.485
 5215POPC   C1B66907  11.512  15.282   6.145
 5215POPC   C2B66908  11.699  15.230   6.534
 5215POPC   C3B66909  11.611  15.179   6.949
 5215POPC   C4B66910  11.677  15.108   7.367
 5216POPC   NC366911   9.533  35.727   5.318
 5216POPC   PO466912   9.667  36.390   5.162
 5216POPC   GL166913   9.734  36.324   5.630
 5216POPC   GL266914   9.437  36.416   5.763
 5216POPC   C1A66915   9.834  36.411   6.109
 5216POPC   D2A66916   9.975  36.147   6.494
 5216POPC   C3A66917   9.792  36.085   6.920
 5216POPC   C4A66918   9.636  36.209   7.336
 5216POPC   C1B66919   9.290  36.485   6.167
 5216POPC   C2B66920   9.517  36.421   6.523
 5216POPC   C3B66921   9.473  36.497   6.937
 5216POPC   C4B66922   9.611  36.715   7.267
 5217POPC   NC366923   4.256   2.539   5.252
 5217POPC   PO466924   4.305   3.162   5.205
 5217POPC   GL166925   4.372   2.998   5.668
 5217POPC   GL266926   4.733   3.009   5.773
 5217POPC   C1A66927   4.253   2.814   6.099
 5217POPC   D2A66928   4.223   2.963   6.540
 5217POPC   C3A66929   4.281   2.749   6.960
 5217POPC   C4A66930   4.212   3.017   7.352
 5217POPC   C1B66931   4.772   2.707   6.131
 5217POPC   C2B66932   4.721   2.839   6.549
 5217POPC   C3B66933   4.784   2.853   6.980
 5217POPC   C4B66934   4.587   2.687   7.375
 5218POPC   NC366935  30.582  10.217   5.451
 5218POPC   PO466936  30.556  10.876   5.581
 5218POPC   GL166937  30.730  10.546   5.854
 5218POPC   GL266938  30.870  10.173   5.868
 5218POPC   C1A66939  30.844  10.550   6.281
 5218POPC   D2A66940  30.654  10.485   6.698
 5218POPC   C3A66941  30.890  10.523   7.116
 5218POPC   C4A66942  31.002  10.709   7.514
 5218POPC   C1B66943  30.608  10.077   6.230
 5218POPC   C2B66944  30.475   9.944   6.652
 5218POPC   C3B66945  30.554  10.128   7.048
 5218POPC   C4B66946  30.381  10.592   7.132
 5219POPC   NC366947  39.843   6.982   5.479
 5219POPC   PO466948  40.304   6.511   5.399
 5219POPC   GL166949  40.075   6.600   5.798
 5219POPC   GL266950  39.716   6.607   5.806
 5219POPC   C1A66951  40.000   6.434   6.245
 5219POPC   D2A66952  40.203   6.377   6.673
 5219POPC   C3A66953  39.931   6.452   7.047
 5219POPC   C4A66954  39.984   6.331   7.481
 5219POPC   C1B66955  39.740   6.870   6.177
 5219POPC   C2B66956  39.894   6.823   6.609
 5219POPC   C3B66957  39.625   6.843   6.953
 5219POPC   C4B66958  39.651   6.725   7.389
 5220POPC   NC366959  23.877  16.469   5.404
 5220POPC   PO466960  23.612  17.011   5.400
 5220POPC   GL166961  23.538  16.790   5.780
 5220POPC   GL266962  23.275  16.550   5.767
 5220POPC   C1A66963  23.827  16.751   6.127
 5220POPC   D2A66964  23.892  16.978   6.531
 5220POPC   C3A66965  23.510  17.036   6.758
 5220POPC   C4A66966  23.578  17.010   7.187
 5220POPC   C1B66967  23.447  16.403   6.161
 5220POPC   C2B66968  23.631  16.509   6.540
 5220POPC   C3B66969  23.759  16.604   6.932
 5220POPC   C4B66970  23.499  16.467   7.281
 5221POPC   NC366971  26.820  35.820   5.395
 5221POPC   PO466972  26.563  35.215   5.330
 5221POPC   GL166973  26.788  35.190   5.721
 5221POPC   GL266974  26.815  35.505   5.804
 5221POPC   C1A66975  26.911  35.126   6.185
 5221POPC   D2A66976  26.854  34.972   6.632
 5221POPC   C3A66977  27.009  35.053   7.066
 5221POPC   C4A66978  26.913  35.009   7.530
 5221POPC   C1B66979  26.629  35.548   6.200
 5221POPC   C2B66980  26.830  35.513   6.554
 5221POPC   C3B66981  26.680  35.432   6.909
 5221POPC   C4B66982  26.771  35.446   7.310
 5222POPC   NC366983  15.464   1.463   5.342
 5222POPC   PO466984  14.840   1.285   5.170
 5222POPC   GL166985  15.051   1.395   5.646
 5222POPC   GL266986  15.406   1.217   5.780
 5222POPC   C1A66987  15.124   1.459   6.114
 5222POPC   D2A66988  15.319   1.308   6.488
 5222POPC   C3A66989  15.106   1.338   6.879
 5222POPC   C4A66990  14.942   1.463   7.247
 5222POPC   C1B66991  15.481   0.914   6.168
 5222POPC   C2B66992  15.442   0.795   6.625
 5222POPC   C3B66993  15.347   0.929   7.047
 5222POPC   C4B66994  14.991   0.955   7.353
 5223POPC   NC366995   5.474  26.746   5.552
 5223POPC   PO466996   4.837  26.890   5.433
 5223POPC   GL166997   4.989  26.729   5.790
 5223POPC   GL266998   4.903  26.399   5.787
 5223POPC   C1A66999   5.079  26.800   6.212
 5223POPC   D2A67000   4.863  26.944   6.557
 5223POPC   C3A67001   5.125  26.879   6.884
 5223POPC   C4A67002   5.104  26.990   7.286
 5223POPC   C1B67003   5.260  26.320   6.073
 5223POPC   C2B67004   5.384  26.247   6.502
 5223POPC   C3B67005   5.461  26.491   6.870
 5223POPC   C4B67006   5.380  26.525   7.299
 5224POPC   NC367007  12.135   5.479   5.291
 5224POPC   PO467008  12.253   4.883   5.034
 5224POPC   GL167009  12.012   5.084   5.552
 5224POPC   GL267010  11.958   4.832   5.841
 5224POPC   C1A67011  12.120   5.283   6.004
 5224POPC   D2A67012  12.353   5.205   6.433
 5224POPC   C3A67013  12.198   5.340   6.860
 5224POPC   C4A67014  11.950   5.076   7.126
 5224POPC   C1B67015  12.388   4.823   6.066
 5224POPC   C2B67016  12.416   4.672   6.501
 5224POPC   C3B67017  12.429   4.844   6.913
 5224POPC   C4B67018  12.311   4.690   7.305
 5225POPC   NC367019  17.963  40.323   5.120
 5225POPC   PO467020  18.535  39.987   5.411
 5225POPC   GL167021  18.213  40.233   5.608
 5225POPC   GL267022  18.020  39.955   5.740
 5225POPC   C1A67023  18.236  40.278   6.061
 5225POPC   D2A67024  18.387  40.016   6.394
 5225POPC   C3A67025  18.321  40.083   6.825
 5225POPC   C4A67026  18.326  40.102   7.273
 5225POPC   C1B67027  17.915  39.909   6.200
 5225POPC   C2B67028  17.804  40.097   6.604
 5225POPC   C3B67029  17.862  40.091   7.050
 5225POPC   C4B67030  17.878  40.329   7.407
 5226POPC   NC367031   6.853  41.702   5.370
 5226POPC   PO467032   6.264  41.406   5.590
 5226POPC   GL167033   6.571  41.566   5.900
 5226POPC   GL267034   6.834  41.854   5.854
 5226POPC   C1A67035   6.450  41.578   6.336
 5226POPC   D2A67036   6.547  41.332   6.691
 5226POPC   C3A67037   6.472  41.525   7.069
 5226POPC   C4A67038   6.742  41.469   7.369
 5226POPC   C1B67039   6.847  41.875   6.315
 5226POPC   C2B67040   6.781  41.820   6.744
 5226POPC   C3B67041   6.868  41.943   7.156
 5226POPC   C4B67042   6.879  41.927   7.590
 5227POPC   NC367043  37.850   4.486   5.253
 5227POPC   PO467044  37.326   3.955   5.541
 5227POPC   GL167045  37.448   4.294   5.802
 5227POPC   GL267046  37.808   4.417   5.774
 5227POPC   C1A67047  37.468   4.213   6.259
 5227POPC   D2A67048  37.736   3.944   6.526
 5227POPC   C3A67049  37.597   3.987   6.959
 5227POPC   C4A67050  37.625   4.189   7.349
 5227POPC   C1B67051  37.931   4.459   6.188
 5227POPC   C2B67052  38.049   4.346   6.588
 5227POPC   C3B67053  37.924   4.422   7.014
 5227POPC   C4B67054  37.902   4.641   7.421
 5228POPC   NC367055  11.178  35.230   5.378
 5228POPC   PO467056  11.616  35.802   5.318
 5228POPC   GL167057  11.418  35.562   5.703
 5228POPC   GL267058  11.500  35.189   5.818
 5228POPC   C1A67059  11.210  35.476   6.125
 5228POPC   D2A67060  11.291  35.635   6.536
 5228POPC   C3A67061  11.290  35.376   6.886
 5228POPC   C4A67062  11.179  35.566   7.254
 5228POPC   C1B67063  11.628  34.969   6.251
 5228POPC   C2B67064  11.553  34.945   6.728
 5228POPC   C3B67065  11.166  34.856   6.969
 5228POPC   C4B67066  10.872  35.109   7.222
 5229POPC   NC367067  20.077  37.172   5.380
 5229POPC   PO467068  19.672  37.668   5.447
 5229POPC   GL167069  19.837  37.446   5.794
 5229POPC   GL267070  20.194  37.437   5.843
 5229POPC   C1A67071  19.826  37.519   6.237
 5229POPC   D2A67072  19.826  37.827   6.573
 5229POPC   C3A67073  19.680  37.647   6.964
 5229POPC   C4A67074  19.745  37.788   7.383
 5229POPC   C1B67075  20.324  37.428   6.297
 5229POPC   C2B67076  20.113  37.420   6.716
 5229POPC   C3B67077  20.182  37.574   7.156
 5229POPC   C4B67078  20.465  37.610   7.530
 5230POPC   NC367079  12.634  12.640   5.359
 5230POPC   PO467080  12.987  13.170   5.422
 5230POPC   GL167081  12.866  12.860   5.755
 5230POPC   GL267082  12.504  12.852   5.803
 5230POPC   C1A67083  13.050  12.603   6.100
 5230POPC   D2A67084  12.931  12.638   6.537
 5230POPC   C3A67085  13.086  12.515   6.931
 5230POPC   C4A67086  12.978  12.666   7.313
 5230POPC   C1B67087  12.626  12.913   6.208
 5230POPC   C2B67088  12.459  12.799   6.581
 5230POPC   C3B67089  12.671  12.851   6.931
 5230POPC   C4B67090  12.512  12.949   7.300
 5231POPC   NC367091   9.892  31.608   5.358
 5231POPC   PO467092   9.450  32.087   5.550
 5231POPC   GL167093   9.583  31.673   5.770
 5231POPC   GL267094   9.943  31.471   5.829
 5231POPC   C1A67095   9.574  31.485   6.180
 5231POPC   D2A67096   9.415  31.587   6.587
 5231POPC   C3A67097   9.723  31.742   6.821
 5231POPC   C4A67098   9.743  31.713   7.271
 5231POPC   C1B67099  10.057  31.228   6.199
 5231POPC   C2B67100  10.150  31.417   6.598
 5231POPC   C3B67101  10.118  31.487   7.028
 5231POPC   C4B67102  10.101  31.174   7.322
 5232POPC   NC367103  12.344  34.056   5.406
 5232POPC   PO467104  11.705  33.927   5.231
 5232POPC   GL167105  11.936  33.877   5.676
 5232POPC   GL267106  12.243  33.652   5.736
 5232POPC   C1A67107  11.978  33.948   6.151
 5232POPC   D2A67108  11.743  33.861   6.530
 5232POPC   C3A67109  11.913  33.851   6.961
 5232POPC   C4A67110  11.831  33.645   7.373
 5232POPC   C1B67111  12.422  33.678   6.181
 5232POPC   C2B67112  12.289  33.801   6.601
 5232POPC   C3B67113  12.342  34.146   6.896
 5232POPC   C4B67114  12.102  34.194   7.298
 5233POPC   NC367115  12.290  23.362   5.409
 5233POPC   PO467116  12.088  22.703   5.441
 5233POPC   GL167117  12.254  22.820   5.824
 5233POPC   GL267118  12.276  23.171   5.886
 5233POPC   C1A67119  12.244  22.668   6.247
 5233POPC   D2A67120  12.288  22.841   6.662
 5233POPC   C3A67121  11.902  23.020   6.846
 5233POPC   C4A67122  11.836  22.955   7.281
 5233POPC   C1B67123  12.423  23.216   6.303
 5233POPC   C2B67124  12.250  23.369   6.693
 5233POPC   C3B67125  12.309  23.194   7.125
 5233POPC   C4B67126  12.217  23.124   7.593
 5234POPC   NC367127  31.301   7.095   5.349
 5234POPC   PO467128  31.787   7.543   5.399
 5234POPC   GL167129  31.552   7.445   5.738
 5234POPC   GL267130  31.445   7.780   5.805
 5234POPC   C1A67131  31.646   7.375   6.158
 5234POPC   D2A67132  31.504   7.303   6.552
 5234POPC   C3A67133  31.751   7.412   6.889
 5234POPC   C4A67134  31.665   7.241   7.302
 5234POPC   C1B67135  31.254   7.723   6.225
 5234POPC   C2B67136  31.243   7.736   6.675
 5234POPC   C3B67137  31.328   7.564   7.098
 5234POPC   C4B67138  31.315   7.555   7.561
 5235POPC   NC367139  19.869  14.337   5.442
 5235POPC   PO467140  19.836  15.019   5.512
 5235POPC   GL167141  19.964  14.672   5.828
 5235POPC   GL267142  19.731  14.357   5.926
 5235POPC   C1A67143  19.967  14.598   6.309
 5235POPC   D2A67144  19.884  14.217   6.561
 5235POPC   C3A67145  19.958  14.275   7.012
 5235POPC   C4A67146  19.628  14.402   7.291
 5235POPC   C1B67147  19.514  14.734   6.084
 5235POPC   C2B67148  19.462  14.846   6.527
 5235POPC   C3B67149  19.699  14.762   6.913
 5235POPC   C4B67150  19.532  14.883   7.318
 5236POPC   NC367151  15.679  28.811   5.550
 5236POPC   PO467152  15.485  29.449   5.612
 5236POPC   GL167153  15.738  29.195   5.901
 5236POPC   GL267154  16.041  28.972   5.852
 5236POPC   C1A67155  15.853  29.251   6.344
 5236POPC   D2A67156  15.672  29.081   6.700
 5236POPC   C3A67157  15.592  29.290   7.047
 5236POPC   C4A67158  15.732  29.336   7.436
 5236POPC   C1B67159  15.947  28.758   6.233
 5236POPC   C2B67160  16.108  28.838   6.659
 5236POPC   C3B67161  16.054  29.085   7.079
 5236POPC   C4B67162  16.255  29.011   7.492
 5237POPC   NC367163  43.223  35.448   5.126
 5237POPC   PO467164  43.645  35.158   5.603
 5237POPC   GL167165  43.719  35.455   5.975
 5237POPC   GL267166  43.980  35.726   5.972
 5237POPC   C1A67167  43.911  35.456   6.392
 5237POPC   D2A67168  43.813  35.300   6.793
 5237POPC   C3A67169  44.129  35.207   7.103
 5237POPC   C4A67170  44.098  34.940   7.480
 5237POPC   C1B67171  43.681  35.888   6.273
 5237POPC   C2B67172  43.709  35.818   6.735
 5237POPC   C3B67173  43.702  35.625   7.167
 5237POPC   C4B67174  43.658  35.179   7.339
 5238POPC   NC367175  41.016  27.532   5.383
 5238POPC   PO467176  40.430  27.786   5.339
 5238POPC   GL167177  40.679  27.702   5.779
 5238POPC   GL267178  40.799  27.365   5.801
 5238POPC   C1A67179  40.774  27.558   6.265
 5238POPC   D2A67180  40.949  27.612   6.699
 5238POPC   C3A67181  40.672  27.618   7.076
 5238POPC   C4A67182  40.564  27.596   7.565
 5238POPC   C1B67183  40.966  27.085   6.093
 5238POPC   C2B67184  40.885  27.013   6.485
 5238POPC   C3B67185  40.866  27.153   6.906
 5238POPC   C4B67186  40.772  27.187   7.350
 5239POPC   NC367187  37.163  20.595   5.370
 5239POPC   PO467188  36.758  20.232   5.084
 5239POPC   GL167189  36.798  20.335   5.616
 5239POPC   GL267190  36.896  20.680   5.789
 5239POPC   C1A67191  37.010  20.301   6.082
 5239POPC   D2A67192  36.895  20.513   6.500
 5239POPC   C3A67193  36.929  20.328   6.933
 5239POPC   C4A67194  36.622  20.242   7.289
 5239POPC   C1B67195  37.156  20.824   6.155
 5239POPC   C2B67196  37.298  20.819   6.606
 5239POPC   C3B67197  37.134  20.845   7.040
 5239POPC   C4B67198  36.951  20.603   7.399
 5240POPC   NC367199   2.225  19.524   5.443
 5240POPC   PO467200   1.685  20.015   5.353
 5240POPC   GL167201   1.965  19.907   5.686
 5240POPC   GL267202   1.875  19.573   5.835
 5240POPC   C1A67203   1.939  20.003   6.123
 5240POPC   D2A67204   2.006  19.900   6.571
 5240POPC   C3A67205   1.942  20.167   6.891
 5240POPC   C4A67206   2.027  20.070   7.288
 5240POPC   C1B67207   2.104  19.538   6.241
 5240POPC   C2B67208   2.242  19.442   6.679
 5240POPC   C3B67209   2.162  19.651   7.049
 5240POPC   C4B67210   1.998  19.579   7.478
 5241POPC   NC367211   8.323   6.141   5.341
 5241POPC   PO467212   8.072   5.505   5.396
 5241POPC   GL167213   8.069   5.688   5.837
 5241POPC   GL267214   8.171   6.063   5.833
 5241POPC   C1A67215   8.021   5.868   6.264
 5241POPC   D2A67216   7.959   6.077   6.640
 5241POPC   C3A67217   8.034   5.791   6.981
 5241POPC   C4A67218   8.344   5.640   7.276
 5241POPC   C1B67219   8.484   6.062   6.224
 5241POPC   C2B67220   8.457   5.964   6.688
 5241POPC   C3B67221   8.516   6.093   7.133
 5241POPC   C4B67222   8.542   5.980   7.597
 5242POPC   NC367223  26.995  21.069   4.924
 5242POPC   PO467224  26.584  21.389   5.365
 5242POPC   GL167225  26.700  21.389   5.833
 5242POPC   GL267226  27.068  21.422   5.854
 5242POPC   C1A67227  26.720  21.611   6.261
 5242POPC   D2A67228  26.525  21.748   6.669
 5242POPC   C3A67229  26.826  21.677   7.016
 5242POPC   C4A67230  26.825  21.595   7.475
 5242POPC   C1B67231  26.990  21.160   6.199
 5242POPC   C2B67232  27.041  21.321   6.591
 5242POPC   C3B67233  27.150  21.242   6.987
 5242POPC   C4B67234  26.943  21.121   7.295
 5243POPC   NC367235   3.579  35.625   5.483
 5243POPC   PO467236   3.533  36.290   5.406
 5243POPC   GL167237   3.663  36.120   5.759
 5243POPC   GL267238   3.381  35.941   5.845
 5243POPC   C1A67239   3.592  36.233   6.215
 5243POPC   D2A67240   3.872  36.317   6.556
 5243POPC   C3A67241   3.738  36.275   6.976
 5243POPC   C4A67242   3.349  36.339   7.183
 5243POPC   C1B67243   3.782  35.781   6.102
 5243POPC   C2B67244   3.937  35.785   6.530
 5243POPC   C3B67245   3.832  35.754   6.991
 5243POPC   C4B67246   3.640  35.947   7.370
 5244POPC   NC367247  44.923  12.447   5.587
 5244POPC   PO467248  44.321  12.033   5.498
 5244POPC   GL167249  44.617  11.951   5.815
 5244POPC   GL267250  44.573  12.284   5.919
 5244POPC   C1A67251  44.846  11.963   6.232
 5244POPC   D2A67252  44.735  11.848   6.673
 5244POPC   C3A67253  44.750  12.080   7.054
 5244POPC   C4A67254   0.135  12.270   7.198
 5244POPC   C1B67255  44.490  12.468   6.299
 5244POPC   C2B67256  44.550  12.426   6.737
 5244POPC   C3B67257  44.353  12.390   7.153
 5244POPC   C4B67258  44.553  12.248   7.518
 5245POPC   NC367259   5.890  36.305   5.411
 5245POPC   PO467260   6.214  35.650   5.435
 5245POPC   GL167261   6.039  35.892   5.817
 5245POPC   GL267262   5.790  36.176   5.890
 5245POPC   C1A67263   6.104  35.978   6.274
 5245POPC   D2A67264   5.999  35.880   6.711
 5245POPC   C3A67265   5.589  36.019   6.849
 5245POPC   C4A67266   5.503  36.274   7.190
 5245POPC   C1B67267   5.726  36.461   6.247
 5245POPC   C2B67268   5.715  36.507   6.695
 5245POPC   C3B67269   5.975  36.331   7.013
 5245POPC   C4B67270   6.025  36.370   7.440
 5246POPC   NC367271  14.823  37.524   5.545
 5246POPC   PO467272  14.262  37.816   5.377
 5246POPC   GL167273  14.386  37.687   5.786
 5246POPC   GL267274  14.664  37.941   5.751
 5246POPC   C1A67275  14.199  37.607   6.231
 5246POPC   D2A67276  14.165  37.895   6.624
 5246POPC   C3A67277  14.274  37.761   7.072
 5246POPC   C4A67278  14.505  37.537   7.394
 5246POPC   C1B67279  14.584  37.928   6.186
 5246POPC   C2B67280  14.681  37.727   6.572
 5246POPC   C3B67281  14.771  37.878   6.973
 5246POPC   C4B67282  14.699  37.999   7.377
 5247POPC   NC367283   7.284   0.226   5.191
 5247POPC   PO467284   7.636   0.684   5.383
 5247POPC   GL167285   7.267   0.491   5.656
 5247POPC   GL267286   7.551   0.395   5.845
 5247POPC   C1A67287   7.128   0.254   6.063
 5247POPC   D2A67288   7.355   0.229   6.482
 5247POPC   C3A67289   7.221   0.335   6.889
 5247POPC   C4A67290   7.193   0.520   7.286
 5247POPC   C1B67291   7.709   0.510   6.262
 5247POPC   C2B67292   7.597   0.649   6.698
 5247POPC   C3B67293   7.685   0.531   7.136
 5247POPC   C4B67294   7.982   0.723   7.476
 5248POPC   NC367295  21.235  33.455   5.081
 5248POPC   PO467296  21.250  32.924   5.491
 5248POPC   GL167297  21.266  33.009   5.879
 5248POPC   GL267298  21.183  33.339   5.795
 5248POPC   C1A67299  21.292  32.764   6.247
 5248POPC   D2A67300  21.478  32.931   6.576
 5248POPC   C3A67301  21.310  33.003   6.983
 5248POPC   C4A67302  21.632  33.216   7.214
 5248POPC   C1B67303  20.951  33.297   6.178
 5248POPC   C2B67304  21.077  33.258   6.585
 5248POPC   C3B67305  20.843  33.303   6.941
 5248POPC   C4B67306  20.942  33.242   7.331
 5249POPC   NC367307  28.365   5.537   5.411
 5249POPC   PO467308  28.500   4.936   5.238
 5249POPC   GL167309  28.210   4.922   5.668
 5249POPC   GL267310  27.998   5.212   5.741
 5249POPC   C1A67311  28.293   4.846   6.149
 5249POPC   D2A67312  28.656   4.969   6.423
 5249POPC   C3A67313  28.586   4.944   6.865
 5249POPC   C4A67314  28.661   5.000   7.313
 5249POPC   C1B67315  28.135   5.345   6.189
 5249POPC   C2B67316  28.197   5.192   6.635
 5249POPC   C3B67317  28.231   5.223   7.113
 5249POPC   C4B67318  28.208   5.041   7.552
 5250POPC   NC367319  26.641   1.919   5.396
 5250POPC   PO467320  27.175   1.710   5.159
 5250POPC   GL167321  27.058   1.912   5.671
 5250POPC   GL267322  26.819   2.177   5.782
 5250POPC   C1A67323  27.067   2.005   6.177
 5250POPC   D2A67324  27.219   2.253   6.574
 5250POPC   C3A67325  27.019   2.148   6.998
 5250POPC   C4A67326  26.793   1.826   7.285
 5250POPC   C1B67327  26.615   2.334   6.123
 5250POPC   C2B67328  26.596   2.154   6.542
 5250POPC   C3B67329  26.486   2.110   6.979
 5250POPC   C4B67330  26.611   2.361   7.316
 5251POPC   NC367331  29.096   3.979   5.425
 5251POPC   PO467332  29.075   3.265   5.424
 5251POPC   GL167333  29.109   3.591   5.753
 5251POPC   GL267334  29.375   3.857   5.833
 5251POPC   C1A67335  29.058   3.608   6.182
 5251POPC   D2A67336  29.285   3.397   6.505
 5251POPC   C3A67337  29.215   3.666   6.837
 5251POPC   C4A67338  29.055   3.729   7.229
 5251POPC   C1B67339  29.531   3.807   6.280
 5251POPC   C2B67340  29.701   3.828   6.726
 5251POPC   C3B67341  29.523   3.968   7.136
 5251POPC   C4B67342  29.465   3.746   7.549
 5252POPC   NC367343   6.079  27.105   5.424
 5252POPC   PO467344   5.807  26.485   5.352
 5252POPC   GL167345   6.042  26.627   5.687
 5252POPC   GL267346   5.869  26.912   5.853
 5252POPC   C1A67347   6.022  26.480   6.113
 5252POPC   D2A67348   5.788  26.582   6.470
 5252POPC   C3A67349   5.985  26.576   6.863
 5252POPC   C4A67350   5.902  26.576   7.243
 5252POPC   C1B67351   5.740  27.090   6.261
 5252POPC   C2B67352   5.821  27.054   6.718
 5252POPC   C3B67353   5.594  26.966   7.105
 5252POPC   C4B67354   5.553  27.220   7.487
 5253POPC   NC367355  28.635  37.931   5.129
 5253POPC   PO467356  29.267  37.768   5.401
 5253POPC   GL167357  29.219  37.520   5.761
 5253POPC   GL267358  29.302  37.826   5.933
 5253POPC   C1A67359  29.129  37.438   6.219
 5253POPC   D2A67360  28.905  37.667   6.565
 5253POPC   C3A67361  28.960  37.574   6.992
 5253POPC   C4A67362  29.381  37.488   7.168
 5253POPC   C1B67363  29.058  38.051   6.229
 5253POPC   C2B67364  28.885  38.179   6.636
 5253POPC   C3B67365  29.133  38.054   6.986
 5253POPC   C4B67366  29.093  37.860   7.408
 5254POPC   NC367367  37.169  11.144   5.124
 5254POPC   PO467368  36.587  11.325   5.333
 5254POPC   GL167369  36.617  11.427   5.752
 5254POPC   GL267370  36.460  11.117   5.834
 5254POPC   C1A67371  36.952  11.393   6.117
 5254POPC   D2A67372  37.149  11.090   6.406
 5254POPC   C3A67373  37.102  11.183   6.846
 5254POPC   C4A67374  37.096  11.224   7.258
 5254POPC   C1B67375  36.456  11.341   6.217
 5254POPC   C2B67376  36.689  11.300   6.578
 5254POPC   C3B67377  36.599  11.168   6.991
 5254POPC   C4B67378  36.658  11.519   7.221
 5255POPC   NC367379  10.799  10.211   5.392
 5255POPC   PO467380  10.416  10.735   5.250
 5255POPC   GL167381  10.611  10.522   5.724
 5255POPC   GL267382  10.935  10.683   5.879
 5255POPC   C1A67383  10.596  10.371   6.170
 5255POPC   D2A67384  10.531  10.176   6.596
 5255POPC   C3A67385  10.370  10.499   6.869
 5255POPC   C4A67386  10.364  10.585   7.297
 5255POPC   C1B67387  10.717  10.896   6.255
 5255POPC   C2B67388  10.685  10.889   6.719
 5255POPC   C3B67389  10.859  10.564   6.968
 5255POPC   C4B67390  10.836  10.419   7.394
 5256POPC   NC367391  43.271   3.053   5.453
 5256POPC   PO467392  43.070   3.665   5.220
 5256POPC   GL167393  42.969   3.518   5.654
 5256POPC   GL267394  42.721   3.232   5.618
 5256POPC   C1A67395  43.117   3.617   6.111
 5256POPC   D2A67396  43.128   3.728   6.584
 5256POPC   C3A67397  43.351   3.587   6.966
 5256POPC   C4A67398  43.281   3.801   7.347
 5256POPC   C1B67399  42.798   3.211   6.055
 5256POPC   C2B67400  43.001   3.242   6.464
 5256POPC   C3B67401  42.936   3.268   6.888
 5256POPC   C4B67402  43.067   3.336   7.317
 5257POPC   NC367403  29.216   1.828   5.208
 5257POPC   PO467404  28.708   2.241   5.524
 5257POPC   GL167405  28.905   2.045   5.867
 5257POPC   GL267406  29.145   1.896   5.725
 5257POPC   C1A67407  28.856   2.166   6.277
 5257POPC   D2A67408  29.163   2.093   6.602
 5257POPC   C3A67409  28.983   1.824   6.918
 5257POPC   C4A67410  28.972   2.108   7.231
 5257POPC   C1B67411  29.234   1.805   6.172
 5257POPC   C2B67412  29.445   1.658   6.566
 5257POPC   C3B67413  29.407   1.566   7.004
 5257POPC   C4B67414  29.421   1.889   7.270
 5258POPC   NC367415   4.417  27.082   5.481
 5258POPC   PO467416   4.171  26.469   5.271
 5258POPC   GL167417   4.083  26.742   5.669
 5258POPC   GL267418   4.437  26.636   5.743
 5258POPC   C1A67419   4.181  26.873   6.139
 5258POPC   D2A67420   4.383  27.138   6.477
 5258POPC   C3A67421   4.348  27.029   6.931
 5258POPC   C4A67422   4.586  26.948   7.337
 5258POPC   C1B67423   4.598  26.587   6.161
 5258POPC   C2B67424   4.443  26.621   6.574
 5258POPC   C3B67425   4.670  26.644   6.946
 5258POPC   C4B67426   4.499  26.445   7.273
 5259POPC   NC367427  36.636  29.909   5.411
 5259POPC   PO467428  37.309  30.160   5.366
 5259POPC   GL167429  37.093  29.908   5.722
 5259POPC   GL267430  36.815  30.089   5.849
 5259POPC   C1A67431  36.940  29.647   6.103
 5259POPC   D2A67432  36.823  29.830   6.525
 5259POPC   C3A67433  36.932  29.613   6.898
 5259POPC   C4A67434  36.738  29.565   7.311
 5259POPC   C1B67435  37.116  30.117   6.199
 5259POPC   C2B67436  37.146  30.249   6.604
 5259POPC   C3B67437  36.937  30.113   6.953
 5259POPC   C4B67438  37.115  29.911   7.312
 5260POPC   NC367439  18.226  39.613   5.363
 5260POPC   PO467440  18.252  38.980   5.344
 5260POPC   GL167441  18.080  39.121   5.742
 5260POPC   GL267442  17.925  39.439   5.739
 5260POPC   C1A67443  18.011  38.994   6.165
 5260POPC   D2A67444  17.862  39.171   6.568
 5260POPC   C3A67445  18.128  39.177   6.940
 5260POPC   C4A67446  18.314  39.051   7.365
 5260POPC   C1B67447  18.146  39.476   6.180
 5260POPC   C2B67448  18.097  39.647   6.631
 5260POPC   C3B67449  18.140  39.662   7.090
 5260POPC   C4B67450  17.942  39.384   7.366
 5261POPC   NC367451  12.937   8.669   5.455
 5261POPC   PO467452  12.370   9.065   5.332
 5261POPC   GL167453  12.701   9.069   5.672
 5261POPC   GL267454  13.086   9.047   5.778
 5261POPC   C1A67455  12.715   8.861   6.068
 5261POPC   D2A67456  12.887   8.996   6.449
 5261POPC   C3A67457  12.643   9.158   6.774
 5261POPC   C4A67458  12.755   9.173   7.169
 5261POPC   C1B67459  13.228   8.737   6.123
 5261POPC   C2B67460  13.155   8.570   6.556
 5261POPC   C3B67461  13.083   8.863   6.908
 5261POPC   C4B67462  13.214   9.311   6.977
 5262POPC   NC367463   2.427  18.008   5.455
 5262POPC   PO467464   2.488  18.684   5.530
 5262POPC   GL167465   2.506  18.380   5.850
 5262POPC   GL267466   2.807  18.160   5.784
 5262POPC   C1A67467   2.575  18.392   6.295
 5262POPC   D2A67468   2.356  18.358   6.690
 5262POPC   C3A67469   2.608  18.505   6.969
 5262POPC   C4A67470   2.616  18.586   7.361
 5262POPC   C1B67471   2.962  18.069   6.210
 5262POPC   C2B67472   2.838  18.135   6.665
 5262POPC   C3B67473   2.673  17.957   7.046
 5262POPC   C4B67474   2.956  17.787   7.399
 5263POPC   NC367475  31.985   8.868   5.486
 5263POPC   PO467476  32.422   9.334   5.401
 5263POPC   GL167477  32.334   9.160   5.752
 5263POPC   GL267478  32.024   9.298   5.819
 5263POPC   C1A67479  32.275   9.028   6.182
 5263POPC   D2A67480  32.055   9.107   6.560
 5263POPC   C3A67481  32.096   8.777   6.863
 5263POPC   C4A67482  32.469   8.666   7.101
 5263POPC   C1B67483  31.916   9.479   6.203
 5263POPC   C2B67484  31.721   9.506   6.609
 5263POPC   C3B67485  31.979   9.422   6.965
 5263POPC   C4B67486  32.206   9.114   7.225
 5264POPC   NC367487  18.615   3.497   5.429
 5264POPC   PO467488  18.023   3.122   5.374
 5264POPC   GL167489  18.204   3.356   5.738
 5264POPC   GL267490  18.113   3.682   5.875
 5264POPC   C1A67491  18.092   3.278   6.197
 5264POPC   D2A67492  17.891   3.221   6.616
 5264POPC   C3A67493  18.145   3.378   6.979
 5264POPC   C4A67494  18.538   3.256   7.208
 5264POPC   C1B67495  17.936   3.818   6.276
 5264POPC   C2B67496  17.993   4.015   6.693
 5264POPC   C3B67497  18.025   3.874   7.125
 5264POPC   C4B67498  18.375   3.715   7.356
 5265POPC   NC367499   4.461  39.941   5.210
 5265POPC   PO467500   3.999  40.380   5.362
 5265POPC   GL167501   4.279  40.082   5.669
 5265POPC   GL267502   4.431  39.744   5.756
 5265POPC   C1A67503   4.475  40.132   6.096
 5265POPC   D2A67504   4.494  40.021   6.545
 5265POPC   C3A67505   4.265  40.145   6.898
 5265POPC   C4A67506   4.199  40.081   7.306
 5265POPC   C1B67507   4.293  39.635   6.204
 5265POPC   C2B67508   4.106  39.709   6.637
 5265POPC   C3B67509   4.262  39.637   7.039
 5265POPC   C4B67510   4.517  39.701   7.424
 5266POPC   NC367511  16.146   3.844   5.256
 5266POPC   PO467512  15.711   3.496   5.428
 5266POPC   GL167513  15.853   3.688   5.804
 5266POPC   GL267514  16.171   3.512   5.855
 5266POPC   C1A67515  15.922   3.748   6.273
 5266POPC   D2A67516  16.203   3.902   6.600
 5266POPC   C3A67517  16.150   3.722   7.029
 5266POPC   C4A67518  15.884   3.662   7.437
 5266POPC   C1B67519  16.130   3.277   6.271
 5266POPC   C2B67520  16.112   3.235   6.742
 5266POPC   C3B67521  16.077   3.242   7.196
 5266POPC   C4B67522  16.369   3.462   7.444
 5267POPC   NC367523   2.835  41.952   5.423
 5267POPC   PO467524   2.937  42.654   5.477
 5267POPC   GL167525   2.671  42.371   5.753
 5267POPC   GL267526   2.861  42.117   5.934
 5267POPC   C1A67527   2.494  42.511   6.146
 5267POPC   D2A67528   2.752  42.704   6.471
 5267POPC   C3A67529   2.673  42.740   6.894
 5267POPC   C4A67530   2.952  42.503   7.167
 5267POPC   C1B67531   2.820  42.163   6.383
 5267POPC   C2B67532   2.699  42.238   6.798
 5267POPC   C3B67533   2.809  42.027   7.202
 5267POPC   C4B67534   2.861  41.891   7.658
 5268POPC   NC367535  23.746  27.407   5.023
 5268POPC   PO467536  23.801  26.823   5.338
 5268POPC   GL167537  23.740  26.685   5.765
 5268POPC   GL267538  23.522  26.453   5.874
 5268POPC   C1A67539  23.793  26.875   6.182
 5268POPC   D2A67540  23.932  26.810   6.606
 5268POPC   C3A67541  23.753  27.026   6.974
 5268POPC   C4A67542  23.730  26.764   7.343
 5268POPC   C1B67543  23.290  26.707   6.139
 5268POPC   C2B67544  23.399  26.858   6.548
 5268POPC   C3B67545  23.385  26.661   6.953
 5268POPC   C4B67546  23.010  26.600   7.160
 5269POPC   NC367547  41.692  42.650   5.344
 5269POPC   PO467548  41.228  42.174   5.271
 5269POPC   GL167549  41.470  42.129   5.698
 5269POPC   GL267550  41.818  42.249   5.691
 5269POPC   C1A67551  41.617  42.126   6.159
 5269POPC   D2A67552  41.444  42.470   6.451
 5269POPC   C3A67553  41.343  42.485   6.916
 5269POPC   C4A67554  41.215  42.769   7.267
 5269POPC   C1B67555  41.790  42.593   6.010
 5269POPC   C2B67556  41.933  42.662   6.441
 5269POPC   C3B67557  41.798  42.755   6.863
 5269POPC   C4B67558  41.718  42.649   7.292
 5270POPC   NC367559  29.386  16.998   5.468
 5270POPC   PO467560  29.017  16.495   5.702
 5270POPC   GL167561  28.987  16.958   5.845
 5270POPC   GL267562  29.319  17.114   5.939
 5270POPC   C1A67563  28.897  17.137   6.269
 5270POPC   D2A67564  28.732  16.983   6.685
 5270POPC   C3A67565  28.884  16.657   6.924
 5270POPC   C4A67566  29.053  16.906   7.213
 5270POPC   C1B67567  29.378  16.966   6.328
 5270POPC   C2B67568  29.257  17.000   6.744
 5270POPC   C3B67569  29.554  16.974   7.087
 5270POPC   C4B67570  29.932  16.759   7.242
 5271POPC   NC367571  30.180   1.469   5.330
 5271POPC   PO467572  29.564   1.723   5.506
 5271POPC   GL167573  29.889   1.484   5.770
 5271POPC   GL267574  30.278   1.534   5.809
 5271POPC   C1A67575  29.839   1.208   6.127
 5271POPC   D2A67576  29.971   0.868   6.378
 5271POPC   C3A67577  30.006   0.998   6.797
 5271POPC   C4A67578  29.823   1.306   7.081
 5271POPC   C1B67579  30.128   1.638   6.210
 5271POPC   C2B67580  29.953   1.507   6.591
 5271POPC   C3B67581  30.233   1.587   6.929
 5271POPC   C4B67582  30.389   1.488   7.337
 5272POPC   NC367583  10.809  33.287   5.498
 5272POPC   PO467584  10.661  32.608   5.673
 5272POPC   GL167585  10.390  32.851   5.919
 5272POPC   GL267586  10.408  33.190   5.814
 5272POPC   C1A67587  10.332  32.889   6.354
 5272POPC   D2A67588  10.580  32.785   6.730
 5272POPC   C3A67589  10.490  32.961   7.097
 5272POPC   C4A67590  10.091  33.049   7.247
 5272POPC   C1B67591  10.599  33.341   6.197
 5272POPC   C2B67592  10.444  33.328   6.615
 5272POPC   C3B67593  10.537  33.464   7.028
 5272POPC   C4B67594  10.404  33.396   7.470
 5273POPC   NC367595   1.702   2.892   5.579
 5273POPC   PO467596   2.197   2.516   5.403
 5273POPC   GL167597   2.159   2.737   5.785
 5273POPC   GL267598   1.934   2.502   5.853
 5273POPC   C1A67599   2.105   2.875   6.202
 5273POPC   D2A67600   1.855   2.888   6.563
 5273POPC   C3A67601   1.994   2.686   6.909
 5273POPC   C4A67602   1.948   2.940   7.234
 5273POPC   C1B67603   1.793   2.443   6.262
 5273POPC   C2B67604   1.479   2.537   6.547
 5273POPC   C3B67605   1.510   2.512   6.945
 5273POPC   C4B67606   1.755   2.319   7.248
 5274POPC   NC367607  36.173  15.712   5.336
 5274POPC   PO467608  36.123  15.045   5.380
 5274POPC   GL167609  36.041  15.353   5.692
 5274POPC   GL267610  35.716  15.524   5.592
 5274POPC   C1A67611  36.099  15.264   6.133
 5274POPC   D2A67612  36.235  15.290   6.549
 5274POPC   C3A67613  36.247  14.920   6.793
 5274POPC   C4A67614  36.282  14.978   7.193
 5274POPC   C1B67615  35.643  15.447   6.045
 5274POPC   C2B67616  35.670  15.370   6.516
 5274POPC   C3B67617  35.896  15.317   6.930
 5274POPC   C4B67618  35.779  15.259   7.362
 5275POPC   NC367619  11.449  33.613   5.444
 5275POPC   PO467620  10.866  34.029   5.467
 5275POPC   GL167621  11.128  33.855   5.778
 5275POPC   GL267622  11.108  33.499   5.840
 5275POPC   C1A67623  11.329  33.865   6.177
 5275POPC   D2A67624  11.169  34.037   6.555
 5275POPC   C3A67625  11.426  33.997   6.916
 5275POPC   C4A67626  11.587  34.088   7.313
 5275POPC   C1B67627  11.129  33.362   6.243
 5275POPC   C2B67628  11.356  33.537   6.582
 5275POPC   C3B67629  11.525  33.494   6.960
 5275POPC   C4B67630  11.333  33.629   7.302
 5276POPC   NC367631  38.523  42.444   5.174
 5276POPC   PO467632  38.114  41.957   5.383
 5276POPC   GL167633  38.330  42.298   5.657
 5276POPC   GL267634  38.659  42.397   5.744
 5276POPC   C1A67635  38.313  42.366   6.133
 5276POPC   D2A67636  38.148  42.522   6.549
 5276POPC   C3A67637  38.243  42.272   6.890
 5276POPC   C4A67638  38.299  42.443   7.284
 5276POPC   C1B67639  38.797  42.619   6.137
 5276POPC   C2B67640  38.649  42.474   6.541
 5276POPC   C3B67641  38.725  42.462   6.975
 5276POPC   C4B67642  38.944  42.473   7.355
 5277POPC   NC367643  28.274   4.543   5.344
 5277POPC   PO467644  28.974   4.428   5.385
 5277POPC   GL167645  28.742   4.282   5.771
 5277POPC   GL267646  28.405   4.456   5.829
 5277POPC   C1A67647  28.706   4.401   6.222
 5277POPC   D2A67648  28.463   4.511   6.555
 5277POPC   C3A67649  28.597   4.456   6.952
 5277POPC   C4A67650  28.345   4.584   7.296
 5277POPC   C1B67651  28.196   4.204   6.156
 5277POPC   C2B67652  28.234   4.052   6.575
 5277POPC   C3B67653  28.150   4.229   6.963
 5277POPC   C4B67654  27.912   4.289   7.323
 5278POPC   NC367655  31.646  16.909   5.143
 5278POPC   PO467656  31.190  16.910   5.506
 5278POPC   GL167657  31.497  17.169   5.735
 5278POPC   GL267658  31.255  17.339   5.932
 5278POPC   C1A67659  31.759  17.026   6.115
 5278POPC   D2A67660  31.626  16.749   6.460
 5278POPC   C3A67661  31.681  16.755   6.919
 5278POPC   C4A67662  31.798  16.390   7.201
 5278POPC   C1B67663  31.279  17.108   6.313
 5278POPC   C2B67664  31.212  16.909   6.712
 5278POPC   C3B67665  31.126  16.683   7.068
 5278POPC   C4B67666  30.989  16.793   7.472
 5279POPC   NC367667   3.226  39.533   5.643
 5279POPC   PO467668   3.503  39.126   5.162
 5279POPC   GL167669   3.498  39.089   5.684
 5279POPC   GL267670   3.696  39.383   5.821
 5279POPC   C1A67671   3.381  39.173   6.189
 5279POPC   D2A67672   3.365  38.914   6.614
 5279POPC   C3A67673   3.409  39.085   7.058
 5279POPC   C4A67674   3.772  39.059   7.388
 5279POPC   C1B67675   3.778  39.477   6.279
 5279POPC   C2B67676   3.703  39.286   6.660
 5279POPC   C3B67677   3.797  39.418   7.039
 5279POPC   C4B67678   3.826  39.721   7.312
 5280POPC   NC367679  18.453  19.195   5.259
 5280POPC   PO467680  18.005  18.727   5.306
 5280POPC   GL167681  18.264  18.743   5.751
 5280POPC   GL267682  18.558  18.992   5.822
 5280POPC   C1A67683  18.290  18.841   6.234
 5280POPC   D2A67684  18.495  18.901   6.640
 5280POPC   C3A67685  18.214  18.878   7.002
 5280POPC   C4A67686  18.246  18.707   7.421
 5280POPC   C1B67687  18.454  19.308   6.145
 5280POPC   C2B67688  18.202  19.313   6.517
 5280POPC   C3B67689  18.298  19.383   6.960
 5280POPC   C4B67690  18.314  19.243   7.394
 5281POPC   NC367691  17.929  31.639   5.437
 5281POPC   PO467692  17.358  31.325   5.505
 5281POPC   GL167693  17.506  31.562   5.857
 5281POPC   GL267694  17.867  31.555   5.949
 5281POPC   C1A67695  17.315  31.603   6.268
 5281POPC   D2A67696  17.169  31.323   6.602
 5281POPC   C3A67697  17.268  31.474   6.987
 5281POPC   C4A67698  17.703  31.517   7.019
 5281POPC   C1B67699  17.700  31.255   6.267
 5281POPC   C2B67700  17.829  31.123   6.691
 5281POPC   C3B67701  18.016  31.131   7.124
 5281POPC   C4B67702  17.792  31.116   7.530
 5282POPC   NC367703  20.438  23.238   5.195
 5282POPC   PO467704  20.879  22.745   5.500
 5282POPC   GL167705  20.637  22.955   5.819
 5282POPC   GL267706  20.484  23.276   5.722
 5282POPC   C1A67707  20.700  22.980   6.283
 5282POPC   D2A67708  20.795  23.196   6.684
 5282POPC   C3A67709  20.893  22.894   7.006
 5282POPC   C4A67710  20.784  22.713   7.399
 5282POPC   C1B67711  20.242  23.154   6.099
 5282POPC   C2B67712  20.268  23.180   6.576
 5282POPC   C3B67713  20.409  23.111   7.034
 5282POPC   C4B67714  20.404  23.030   7.486
 5283POPC   NC367715  40.935  34.738   5.273
 5283POPC   PO467716  40.315  34.980   5.468
 5283POPC   GL167717  40.548  34.687   5.763
 5283POPC   GL267718  40.903  34.534   5.771
 5283POPC   C1A67719  40.660  34.736   6.205
 5283POPC   D2A67720  40.760  34.602   6.621
 5283POPC   C3A67721  40.691  34.803   7.001
 5283POPC   C4A67722  40.394  34.785   7.334
 5283POPC   C1B67723  41.166  34.626   6.162
 5283POPC   C2B67724  41.228  34.432   6.568
 5283POPC   C3B67725  41.081  34.445   6.988
 5283POPC   C4B67726  41.196  34.830   7.173
 5284POPC   NC367727   7.960  34.684   5.201
 5284POPC   PO467728   7.392  34.413   5.355
 5284POPC   GL167729   7.386  34.640   5.749
 5284POPC   GL267730   7.233  34.392   5.948
 5284POPC   C1A67731   7.375  34.798   6.207
 5284POPC   D2A67732   7.470  34.601   6.620
 5284POPC   C3A67733   7.242  34.366   6.902
 5284POPC   C4A67734   7.290  34.692   7.219
 5284POPC   C1B67735   7.669  34.392   6.191
 5284POPC   C2B67736   7.768  34.170   6.583
 5284POPC   C3B67737   7.756  34.358   6.990
 5284POPC   C4B67738   7.718  34.498   7.396
 5285POPC   NC367739   3.013  22.646   5.422
 5285POPC   PO467740   2.659  23.222   5.443
 5285POPC   GL167741   2.702  22.914   5.758
 5285POPC   GL267742   3.038  22.984   5.796
 5285POPC   C1A67743   2.647  22.927   6.208
 5285POPC   D2A67744   2.494  22.723   6.568
 5285POPC   C3A67745   2.424  23.017   6.929
 5285POPC   C4A67746   2.362  23.425   7.149
 5285POPC   C1B67747   3.161  22.813   6.177
 5285POPC   C2B67748   2.999  22.668   6.582
 5285POPC   C3B67749   2.854  22.735   7.027
 5285POPC   C4B67750   2.830  22.653   7.508
 5286POPC   NC367751  10.325  41.574   5.406
 5286POPC   PO467752  10.956  41.385   5.228
 5286POPC   GL167753  10.751  41.386   5.699
 5286POPC   GL267754  10.366  41.393   5.866
 5286POPC   C1A67755  10.760  41.384   6.192
 5286POPC   D2A67756  10.852  41.626   6.569
 5286POPC   C3A67757  10.760  41.573   7.005
 5286POPC   C4A67758  10.876  41.241   7.279
 5286POPC   C1B67759  10.285  41.573   6.310
 5286POPC   C2B67760  10.316  41.537   6.768
 5286POPC   C3B67761  10.308  41.708   7.216
 5286POPC   C4B67762  10.267  41.822   7.673
 5287POPC   NC367763  29.414  19.199   5.344
 5287POPC   PO467764  29.052  18.728   5.123
 5287POPC   GL167765  29.182  18.827   5.612
 5287POPC   GL267766  29.141  19.195   5.761
 5287POPC   C1A67767  29.278  18.826   6.079
 5287POPC   D2A67768  29.061  18.905   6.512
 5287POPC   C3A67769  29.334  18.788   6.857
 5287POPC   C4A67770  29.308  18.826   7.308
 5287POPC   C1B67771  29.047  19.303   6.178
 5287POPC   C2B67772  29.239  19.395   6.587
 5287POPC   C3B67773  29.121  19.246   6.969
 5287POPC   C4B67774  29.323  19.337   7.312
 5288POPC   NC367775   3.081  13.381   5.705
 5288POPC   PO467776   2.989  14.004   5.462
 5288POPC   GL167777   2.727  13.787   5.780
 5288POPC   GL267778   2.987  13.819   6.018
 5288POPC   C1A67779   2.586  13.649   6.242
 5288POPC   D2A67780   2.859  13.876   6.584
 5288POPC   C3A67781   2.852  13.758   7.016
 5288POPC   C4A67782   2.507  13.516   7.048
 5288POPC   C1B67783   3.065  13.481   6.336
 5288POPC   C2B67784   3.130  13.416   6.754
 5288POPC   C3B67785   3.182  13.361   7.172
 5288POPC   C4B67786   2.840  13.415   7.416
 5289POPC   NC367787  21.928  44.528   5.521
 5289POPC   PO467788  22.391   0.030   5.353
 5289POPC   GL167789  22.255  44.885   5.769
 5289POPC   GL267790  21.885  44.980   5.795
 5289POPC   C1A67791  22.442  44.771   6.186
 5289POPC   D2A67792  22.512  44.542   6.588
 5289POPC   C3A67793  22.469  44.721   7.033
 5289POPC   C4A67794  22.297  44.530   7.429
 5289POPC   C1B67795  21.945  44.699   6.155
 5289POPC   C2B67796  21.985  44.633   6.578
 5289POPC   C3B67797  21.987  44.538   6.985
 5289POPC   C4B67798  21.840  44.737   7.318
 5290POPC   NC367799   6.300  42.435   5.337
 5290POPC   PO467800   6.988  42.151   5.410
 5290POPC   GL167801   6.922  42.376   5.764
 5290POPC   GL267802   6.567  42.309   5.744
 5290POPC   C1A67803   6.798  42.363   6.185
 5290POPC   D2A67804   6.598  42.544   6.489
 5290POPC   C3A67805   6.784  42.349   6.815
 5290POPC   C4A67806   6.636  42.423   7.183
 5290POPC   C1B67807   6.413  42.026   6.058
 5290POPC   C2B67808   6.398  42.077   6.513
 5290POPC   C3B67809   6.359  42.055   6.943
 5290POPC   C4B67810   6.416  41.946   7.349
 5291POPC   NC367811  23.491  44.164   5.442
 5291POPC   PO467812  23.782  43.563   5.614
 5291POPC   GL167813  23.608  43.838   5.885
 5291POPC   GL267814  23.856  44.075   5.941
 5291POPC   C1A67815  23.477  44.006   6.278
 5291POPC   D2A67816  23.583  43.879   6.667
 5291POPC   C3A67817  23.486  44.136   7.010
 5291POPC   C4A67818  23.658  43.849   7.277
 5291POPC   C1B67819  23.961  43.740   6.273
 5291POPC   C2B67820  24.066  43.679   6.719
 5291POPC   C3B67821  24.023  44.055   6.984
 5291POPC   C4B67822  23.855  44.308   7.355
 5292POPC   NC367823  26.877  38.288   5.505
 5292POPC   PO467824  26.941  37.667   5.355
 5292POPC   GL167825  26.812  37.654   5.804
 5292POPC   GL267826  27.082  37.731   6.008
 5292POPC   C1A67827  26.611  37.840   6.185
 5292POPC   D2A67828  26.773  38.031   6.539
 5292POPC   C3A67829  26.714  37.907   6.985
 5292POPC   C4A67830  26.540  37.595   7.219
 5292POPC   C1B67831  26.897  37.428   6.298
 5292POPC   C2B67832  26.835  37.469   6.745
 5292POPC   C3B67833  27.001  37.336   7.148
 5292POPC   C4B67834  27.277  37.306   7.508
 5293POPC   NC367835  33.901  25.717   5.220
 5293POPC   PO467836  33.816  26.246   5.079
 5293POPC   GL167837  33.790  26.089   5.558
 5293POPC   GL267838  33.763  25.728   5.718
 5293POPC   C1A67839  33.630  26.137   6.012
 5293POPC   D2A67840  33.810  26.207   6.435
 5293POPC   C3A67841  33.655  26.427   6.822
 5293POPC   C4A67842  33.834  26.383   7.267
 5293POPC   C1B67843  33.907  25.718   6.173
 5293POPC   C2B67844  33.778  25.728   6.624
 5293POPC   C3B67845  33.903  25.600   7.035
 5293POPC   C4B67846  34.011  25.873   7.345
 5294POPC   NC367847  29.837   6.303   5.341
 5294POPC   PO467848  30.267   6.736   5.180
 5294POPC   GL167849  30.104   6.784   5.664
 5294POPC   GL267850  29.876   6.510   5.804
 5294POPC   C1A67851  30.081   6.825   6.177
 5294POPC   D2A67852  30.217   6.695   6.647
 5294POPC   C3A67853  30.117   6.964   7.010
 5294POPC   C4A67854  29.731   7.077   7.148
 5294POPC   C1B67855  29.543   6.489   6.115
 5294POPC   C2B67856  29.401   6.569   6.561
 5294POPC   C3B67857  29.730   6.652   6.872
 5294POPC   C4B67858  30.077   6.431   7.132
 5295POPC   NC367859  22.993   8.262   5.303
 5295POPC   PO467860  22.869   7.698   5.680
 5295POPC   GL167861  22.787   8.011   5.934
 5295POPC   GL267862  23.005   8.244   5.822
 5295POPC   C1A67863  22.696   8.223   6.266
 5295POPC   D2A67864  22.985   8.361   6.524
 5295POPC   C3A67865  22.879   8.151   6.847
 5295POPC   C4A67866  22.689   8.266   7.194
 5295POPC   C1B67867  23.270   8.111   6.144
 5295POPC   C2B67868  23.514   8.180   6.486
 5295POPC   C3B67869  23.405   8.106   6.872
 5295POPC   C4B67870  23.189   8.063   7.231
 5296POPC   NC367871   7.034  27.013   5.348
 5296POPC   PO467872   6.449  26.725   5.301
 5296POPC   GL167873   6.495  26.882   5.711
 5296POPC   GL267874   6.827  26.737   5.732
 5296POPC   C1A67875   6.296  26.955   6.119
 5296POPC   D2A67876   6.303  26.739   6.499
 5296POPC   C3A67877   6.331  26.951   6.905
 5296POPC   C4A67878   6.417  26.730   7.257
 5296POPC   C1B67879   6.801  26.874   6.151
 5296POPC   C2B67880   6.896  26.709   6.528
 5296POPC   C3B67881   6.873  26.897   6.907
 5296POPC   C4B67882   6.837  27.003   7.309
 5297POPC   NC367883  35.423  15.051   5.318
 5297POPC   PO467884  35.376  15.692   5.228
 5297POPC   GL167885  35.190  15.463   5.654
 5297POPC   GL267886  35.317  15.135   5.800
 5297POPC   C1A67887  35.142  15.427   6.162
 5297POPC   D2A67888  35.096  15.157   6.558
 5297POPC   C3A67889  35.339  15.168   6.977
 5297POPC   C4A67890  35.265  15.296   7.428
 5297POPC   C1B67891  35.527  14.980   6.203
 5297POPC   C2B67892  35.746  14.876   6.618
 5297POPC   C3B67893  35.772  14.845   7.073
 5297POPC   C4B67894  35.488  14.822   7.459
 5298POPC   NC367895  16.077  33.142   5.252
 5298POPC   PO467896  16.105  32.487   5.459
 5298POPC   GL167897  15.997  32.846   5.753
 5298POPC   GL267898  15.847  33.211   5.711
 5298POPC   C1A67899  15.946  32.901   6.209
 5298POPC   D2A67900  15.780  33.157   6.537
 5298POPC   C3A67901  15.888  33.064   6.941
 5298POPC   C4A67902  15.962  32.645   7.150
 5298POPC   C1B67903  16.202  33.298   6.011
 5298POPC   C2B67904  16.227  33.424   6.450
 5298POPC   C3B67905  16.375  33.387   6.870
 5298POPC   C4B67906  16.173  33.349   7.258
 5299POPC   NC367907  10.609  24.076   5.199
 5299POPC   PO467908  10.284  23.652   5.587
 5299POPC   GL167909  10.633  23.665   5.835
 5299POPC   GL267910  10.690  24.019   5.755
 5299POPC   C1A67911  10.550  23.541   6.261
 5299POPC   D2A67912  10.429  23.761   6.649
 5299POPC   C3A67913  10.533  23.499   7.004
 5299POPC   C4A67914  10.205  23.487   7.311
 5299POPC   C1B67915  10.554  24.054   6.203
 5299POPC   C2B67916  10.821  24.111   6.578
 5299POPC   C3B67917  10.769  23.981   7.012
 5299POPC   C4B67918  10.365  23.946   7.214
 5300POPC   NC367919   5.004  12.882   5.424
 5300POPC   PO467920   5.698  12.765   5.515
 5300POPC   GL167921   5.317  12.654   5.759
 5300POPC   GL267922   5.121  12.958   5.901
 5300POPC   C1A67923   5.081  12.481   6.087
 5300POPC   D2A67924   4.950  12.728   6.435
 5300POPC   C3A67925   5.128  12.627   6.834
 5300POPC   C4A67926   5.115  12.747   7.247
 5300POPC   C1B67927   4.721  13.045   6.099
 5300POPC   C2B67928   4.646  13.124   6.564
 5300POPC   C3B67929   4.782  13.039   7.005
 5300POPC   C4B67930   4.891  13.127   7.485
 5301POPC   NC367931  13.808   1.254   5.519
 5301POPC   PO467932  14.057   0.713   5.527
 5301POPC   GL167933  13.932   0.980   5.927
 5301POPC   GL267934  14.074   1.340   5.976
 5301POPC   C1A67935  13.821   1.120   6.385
 5301POPC   D2A67936  13.838   1.397   6.775
 5301POPC   C3A67937  13.542   1.270   7.120
 5301POPC   C4A67938  13.290   0.942   7.358
 5301POPC   C1B67939  13.854   1.627   6.300
 5301POPC   C2B67940  13.551   1.814   6.641
 5301POPC   C3B67941  13.295   1.771   7.046
 5301POPC   C4B67942  13.147   1.474   7.387
 5302POPC   NC367943  44.137  29.336   5.322
 5302POPC   PO467944  43.997  28.722   5.555
 5302POPC   GL167945  43.956  29.076   5.776
 5302POPC   GL267946  43.706  29.349   5.732
 5302POPC   C1A67947  44.022  29.190   6.169
 5302POPC   D2A67948  43.876  29.249   6.557
 5302POPC   C3A67949  44.040  29.016   6.914
 5302POPC   C4A67950  44.213  29.262   7.225
 5302POPC   C1B67951  43.517  29.365   6.165
 5302POPC   C2B67952  43.368  29.238   6.578
 5302POPC   C3B67953  43.564  29.274   6.953
 5302POPC   C4B67954  43.605  29.314   7.354
 5303POPC   NC367955   8.367  18.432   5.554
 5303POPC   PO467956   7.880  18.139   5.571
 5303POPC   GL167957   8.251  18.006   5.865
 5303POPC   GL267958   8.598  18.149   5.910
 5303POPC   C1A67959   8.312  18.059   6.326
 5303POPC   D2A67960   8.230  18.357   6.695
 5303POPC   C3A67961   8.051  18.194   7.090
 5303POPC   C4A67962   7.920  17.914   7.438
 5303POPC   C1B67963   8.690  18.444   6.265
 5303POPC   C2B67964   8.702  18.616   6.711
 5303POPC   C3B67965   8.507  18.472   7.111
 5303POPC   C4B67966   8.441  18.654   7.493
 5304POPC   NC367967  43.673   4.706   5.272
 5304POPC   PO467968  43.858   4.020   5.403
 5304POPC   GL167969  43.918   4.283   5.778
 5304POPC   GL267970  43.708   4.588   5.767
 5304POPC   C1A67971  44.079   4.460   6.173
 5304POPC   D2A67972  44.351   4.506   6.538
 5304POPC   C3A67973  44.097   4.476   6.921
 5304POPC   C4A67974  43.813   4.293   7.233
 5304POPC   C1B67975  43.557   4.530   6.181
 5304POPC   C2B67976  43.648   4.334   6.563
 5304POPC   C3B67977  43.520   4.558   6.889
 5304POPC   C4B67978  43.546   4.773   7.244
 5305POPC   NC367979  28.945  23.060   5.516
 5305POPC   PO467980  29.441  22.672   5.381
 5305POPC   GL167981  29.292  22.774   5.787
 5305POPC   GL267982  29.343  23.146   5.816
 5305POPC   C1A67983  29.070  22.828   6.187
 5305POPC   D2A67984  28.986  23.042   6.595
 5305POPC   C3A67985  29.128  22.863   7.028
 5305POPC   C4A67986  29.334  22.812   7.462
 5305POPC   C1B67987  29.150  23.351   6.159
 5305POPC   C2B67988  29.371  23.368   6.517
 5305POPC   C3B67989  29.238  23.387   6.938
 5305POPC   C4B67990  29.504  23.347   7.265
 5306POPC   NC367991   3.909  29.060   5.341
 5306POPC   PO467992   3.263  29.355   5.422
 5306POPC   GL167993   3.518  29.205   5.768
 5306POPC   GL267994   3.702  28.887   5.803
 5306POPC   C1A67995   3.603  29.222   6.206
 5306POPC   D2A67996   3.694  29.136   6.634
 5306POPC   C3A67997   3.437  29.171   6.992
 5306POPC   C4A67998   3.379  29.201   7.436
 5306POPC   C1B67999   3.928  28.808   6.209
 5306POPC   C2B68000   3.827  28.631   6.624
 5306POPC   C3B68001   3.839  28.822   7.041
 5306POPC   C4B68002   3.704  28.755   7.456
 5307POPC   NC368003  24.545  17.209   5.488
 5307POPC   PO468004  24.490  16.678   5.055
 5307POPC   GL168005  24.473  16.626   5.532
 5307POPC   GL268006  24.780  16.771   5.629
 5307POPC   C1A68007  24.353  16.603   6.014
 5307POPC   D2A68008  24.160  16.543   6.458
 5307POPC   C3A68009  24.276  16.697   6.877
 5307POPC   C4A68010  24.424  16.403   7.187
 5307POPC   C1B68011  24.863  16.742   6.075
 5307POPC   C2B68012  24.673  16.714   6.499
 5307POPC   C3B68013  24.807  16.636   6.924
 5307POPC   C4B68014  24.973  16.809   7.275
 5308POPC   NC368015  36.776  23.381   5.457
 5308POPC   PO468016  37.027  22.687   5.515
 5308POPC   GL168017  36.998  22.994   5.824
 5308POPC   GL268018  36.658  22.980   5.808
 5308POPC   C1A68019  36.942  23.147   6.254
 5308POPC   D2A68020  36.819  22.997   6.688
 5308POPC   C3A68021  36.691  23.246   7.065
 5308POPC   C4A68022  36.826  23.209   7.494
 5308POPC   C1B68023  36.752  22.660   6.146
 5308POPC   C2B68024  36.687  22.514   6.572
 5308POPC   C3B68025  36.772  22.579   6.997
 5308POPC   C4B68026  37.058  22.877   7.166
 5309POPC   NC368027  34.217  40.119   5.481
 5309POPC   PO468028  34.818  39.838   5.153
 5309POPC   GL168029  34.800  39.978   5.622
 5309POPC   GL268030  34.814  40.313   5.786
 5309POPC   C1A68031  34.783  39.860   6.092
 5309POPC   D2A68032  34.861  39.719   6.559
 5309POPC   C3A68033  34.575  39.735   6.934
 5309POPC   C4A68034  34.706  39.970   7.304
 5309POPC   C1B68035  34.430  40.247   6.080
 5309POPC   C2B68036  34.484  40.071   6.476
 5309POPC   C3B68037  34.673  40.208   6.836
 5309POPC   C4B68038  34.295  40.208   7.109
 5310POPC   NC368039   0.174   1.731   5.480
 5310POPC   PO468040   0.490   2.308   5.466
 5310POPC   GL168041   0.345   2.090   5.826
 5310POPC   GL268042   0.663   1.906   5.797
 5310POPC   C1A68043   0.302   2.039   6.314
 5310POPC   D2A68044   0.287   1.765   6.707
 5310POPC   C3A68045   0.088   1.969   7.058
 5310POPC   C4A68046   0.178   2.393   7.180
 5310POPC   C1B68047   0.749   2.222   6.142
 5310POPC   C2B68048   0.800   2.130   6.598
 5310POPC   C3B68049   0.599   2.117   7.012
 5310POPC   C4B68050   0.661   2.275   7.435
 5311POPC   NC368051   7.667  25.546   5.380
 5311POPC   PO468052   7.192  25.113   5.573
 5311POPC   GL168053   7.434  25.185   5.926
 5311POPC   GL268054   7.632  25.476   5.874
 5311POPC   C1A68055   7.290  25.321   6.341
 5311POPC   D2A68056   7.176  25.600   6.712
 5311POPC   C3A68057   7.328  25.365   7.069
 5311POPC   C4A68058   7.228  25.050   7.414
 5311POPC   C1B68059   7.799  25.424   6.256
 5311POPC   C2B68060   7.712  25.288   6.654
 5311POPC   C3B68061   7.820  25.461   7.008
 5311POPC   C4B68062   7.627  25.748   7.265
 5312POPC   NC368063  37.230  32.522   5.005
 5312POPC   PO468064  37.000  33.073   5.299
 5312POPC   GL168065  37.011  32.932   5.743
 5312POPC   GL268066  37.116  33.230   5.928
 5312POPC   C1A68067  37.184  32.788   6.154
 5312POPC   D2A68068  37.274  33.025   6.529
 5312POPC   C3A68069  37.259  32.827   6.888
 5312POPC   C4A68070  37.097  32.998   7.232
 5312POPC   C1B68071  36.830  33.136   6.307
 5312POPC   C2B68072  36.816  33.146   6.783
 5312POPC   C3B68073  36.554  33.129   7.154
 5312POPC   C4B68074  36.523  33.206   7.605
 5313POPC   NC368075   9.468  35.182   4.972
 5313POPC   PO468076   9.957  35.456   5.370
 5313POPC   GL168077   9.714  35.360   5.701
 5313POPC   GL268078   9.678  35.018   5.593
 5313POPC   C1A68079   9.796  35.479   6.143
 5313POPC   D2A68080   9.652  35.568   6.557
 5313POPC   C3A68081   9.868  35.557   6.939
 5313POPC   C4A68082   9.739  35.714   7.336
 5313POPC   C1B68083   9.634  34.991   6.049
 5313POPC   C2B68084   9.738  35.061   6.461
 5313POPC   C3B68085   9.597  35.122   6.874
 5313POPC   C4B68086   9.743  35.184   7.288
 5314POPC   NC368087  13.083   6.130   5.167
 5314POPC   PO468088  12.581   5.697   5.346
 5314POPC   GL168089  12.841   5.958   5.674
 5314POPC   GL268090  13.163   5.742   5.699
 5314POPC   C1A68091  12.650   6.133   6.098
 5314POPC   D2A68092  12.595   5.921   6.535
 5314POPC   C3A68093  12.816   6.009   6.958
 5314POPC   C4A68094  12.782   6.032   7.429
 5314POPC   C1B68095  13.091   5.897   6.133
 5314POPC   C2B68096  13.116   5.785   6.550
 5314POPC   C3B68097  13.263   5.651   6.937
 5314POPC   C4B68098  13.063   5.656   7.288
 5315POPC   NC368099  24.935  25.298   5.426
 5315POPC   PO468100  25.619  25.292   5.401
 5315POPC   GL168101  25.324  25.242   5.778
 5315POPC   GL268102  25.017  25.001   5.824
 5315POPC   C1A68103  25.212  25.358   6.189
 5315POPC   D2A68104  25.006  25.601   6.509
 5315POPC   C3A68105  25.207  25.406   6.838
 5315POPC   C4A68106  25.436  25.306   7.183
 5315POPC   C1B68107  25.125  24.851   6.232
 5315POPC   C2B68108  25.248  24.927   6.661
 5315POPC   C3B68109  25.061  24.943   7.069
 5315POPC   C4B68110  25.037  25.155   7.465
 5316POPC   NC368111   5.193   7.641   5.317
 5316POPC   PO468112   5.007   7.028   5.322
 5316POPC   GL168113   5.261   7.244   5.656
 5316POPC   GL268114   5.028   7.534   5.796
 5316POPC   C1A68115   5.431   7.325   6.091
 5316POPC   D2A68116   5.306   7.632   6.430
 5316POPC   C3A68117   5.220   7.484   6.854
 5316POPC   C4A68118   4.971   7.646   7.172
 5316POPC   C1B68119   4.938   7.158   6.067
 5316POPC   C2B68120   4.833   7.155   6.506
 5316POPC   C3B68121   4.766   7.231   6.940
 5316POPC   C4B68122   4.848   7.019   7.313
 5317POPC   NC368123  38.939  26.333   5.481
 5317POPC   PO468124  39.382  25.821   5.342
 5317POPC   GL168125  39.188  25.951   5.713
 5317POPC   GL268126  39.491  25.912   5.905
 5317POPC   C1A68127  38.983  26.133   6.098
 5317POPC   D2A68128  38.954  26.241   6.528
 5317POPC   C3A68129  39.195  26.032   6.849
 5317POPC   C4A68130  39.093  25.967   7.281
 5317POPC   C1B68131  39.345  25.787   6.333
 5317POPC   C2B68132  39.336  25.531   6.724
 5317POPC   C3B68133  39.472  25.630   7.133
 5317POPC   C4B68134  39.588  26.060   7.237
 5318POPC   NC368135  44.394  19.958   5.278
 5318POPC   PO468136  44.930  19.630   5.147
 5318POPC   GL168137  44.813  19.818   5.573
 5318POPC   GL268138  44.443  19.788   5.753
 5318POPC   C1A68139  44.875  19.915   6.020
 5318POPC   D2A68140  44.713  19.885   6.431
 5318POPC   C3A68141  44.873  19.781   6.826
 5318POPC   C4A68142  44.984  19.987   7.182
 5318POPC   C1B68143  44.181  19.729   6.161
 5318POPC   C2B68144  44.217  19.847   6.603
 5318POPC   C3B68145  44.377  19.655   6.974
 5318POPC   C4B68146  44.211  19.623   7.379
 5319POPC   NC368147  34.123  19.311   5.423
 5319POPC   PO468148  33.672  18.832   5.342
 5319POPC   GL168149  33.965  18.927   5.721
 5319POPC   GL268150  33.899  19.261   5.873
 5319POPC   C1A68151  33.972  18.849   6.168
 5319POPC   D2A68152  33.929  19.156   6.499
 5319POPC   C3A68153  33.946  18.945   6.886
 5319POPC   C4A68154  33.958  19.192   7.227
 5319POPC   C1B68155  33.656  19.565   6.102
 5319POPC   C2B68156  33.434  19.543   6.484
 5319POPC   C3B68157  33.616  19.446   6.871
 5319POPC   C4B68158  33.505  19.427   7.289
 5320POPC   NC368159  18.032   6.142   5.259
 5320POPC   PO468160  18.474   5.668   5.481
 5320POPC   GL168161  18.353   5.807   5.902
 5320POPC   GL268162  18.092   6.023   5.800
 5320POPC   C1A68163  18.133   5.689   6.317
 5320POPC   D2A68164  17.886   5.885   6.686
 5320POPC   C3A68165  18.096   5.758   7.074
 5320POPC   C4A68166  18.533   5.920   7.059
 5320POPC   C1B68167  18.131   6.193   6.219
 5320POPC   C2B68168  18.277   6.230   6.650
 5320POPC   C3B68169  18.055   6.250   7.044
 5320POPC   C4B68170  17.885   6.324   7.448
 5321POPC   NC368171  19.592  40.471   5.554
 5321POPC   PO468172  19.521  39.845   5.485
 5321POPC   GL168173  19.681  39.949   5.904
 5321POPC   GL268174  19.654  40.271   6.000
 5321POPC   C1A68175  19.906  39.937   6.324
 5321POPC   D2A68176  20.033  39.632   6.651
 5321POPC   C3A68177  19.718  39.553   6.997
 5321POPC   C4A68178  19.542  39.779   7.360
 5321POPC   C1B68179  19.670  40.579   6.277
 5321POPC   C2B68180  19.716  40.330   6.605
 5321POPC   C3B68181  19.556  40.089   6.951
 5321POPC   C4B68182  19.554  40.259   7.432
 5322POPC   NC368183  15.055  29.265   5.511
 5322POPC   PO468184  15.360  28.782   5.218
 5322POPC   GL168185  15.280  28.910   5.798
 5322POPC   GL268186  15.031  29.134   5.995
 5322POPC   C1A68187  15.432  28.975   6.246
 5322POPC   D2A68188  15.308  29.358   6.468
 5322POPC   C3A68189  15.102  29.319   6.873
 5322POPC   C4A68190  15.183  29.093   7.247
 5322POPC   C1B68191  14.967  28.746   6.256
 5322POPC   C2B68192  14.946  28.795   6.703
 5322POPC   C3B68193  14.728  28.976   7.062
 5322POPC   C4B68194  14.787  28.924   7.535
 5323POPC   NC368195  13.921  13.929   5.390
 5323POPC   PO468196  13.274  13.726   5.345
 5323POPC   GL168197  13.312  13.585   5.739
 5323POPC   GL268198  13.666  13.590   5.718
 5323POPC   C1A68199  13.447  13.460   6.156
 5323POPC   D2A68200  13.796  13.414   6.447
 5323POPC   C3A68201  13.643  13.327   6.838
 5323POPC   C4A68202  13.690  13.361   7.268
 5323POPC   C1B68203  13.856  13.792   6.080
 5323POPC   C2B68204  13.991  13.873   6.534
 5323POPC   C3B68205  14.034  13.655   6.953
 5323POPC   C4B68206  13.998  13.897   7.342
 5324POPC   NC368207  31.237  29.238   5.369
 5324POPC   PO468208  31.331  28.645   5.569
 5324POPC   GL168209  31.544  29.069   5.755
 5324POPC   GL268210  31.321  29.306   5.893
 5324POPC   C1A68211  31.848  29.353   6.030
 5324POPC   D2A68212  32.070  29.346   6.459
 5324POPC   C3A68213  31.836  29.227   6.848
 5324POPC   C4A68214  31.946  28.898   7.189
 5324POPC   C1B68215  31.454  29.148   6.301
 5324POPC   C2B68216  31.389  28.977   6.722
 5324POPC   C3B68217  31.396  28.890   7.167
 5324POPC   C4B68218  31.399  28.881   7.618
 5325POPC   NC368219  30.510   7.127   5.320
 5325POPC   PO468220  29.864   7.418   5.374
 5325POPC   GL168221  29.817   7.494   5.806
 5325POPC   GL268222  29.485   7.626   5.742
 5325POPC   C1A68223  29.919   7.377   6.236
 5325POPC   D2A68224  29.887   7.267   6.678
 5325POPC   C3A68225  30.021   7.493   7.048
 5325POPC   C4A68226  30.113   7.281   7.440
 5325POPC   C1B68227  29.560   7.748   6.170
 5325POPC   C2B68228  29.714   7.776   6.608
 5325POPC   C3B68229  29.533   7.554   6.972
 5325POPC   C4B68230  29.615   7.465   7.414
 5326POPC   NC368231   5.706  23.327   5.441
 5326POPC   PO468232   5.987  23.974   5.491
 5326POPC   GL168233   5.939  23.671   5.803
 5326POPC   GL268234   5.577  23.651   5.819
 5326POPC   C1A68235   6.150  23.550   6.200
 5326POPC   D2A68236   6.001  23.427   6.610
 5326POPC   C3A68237   6.121  23.670   6.971
 5326POPC   C4A68238   5.918  23.685   7.345
 5326POPC   C1B68239   5.630  23.531   6.234
 5326POPC   C2B68240   5.609  23.768   6.606
 5326POPC   C3B68241   5.584  23.597   6.984
 5326POPC   C4B68242   5.413  23.827   7.332
 5327POPC   NC368243  35.605  11.990   5.584
 5327POPC   PO468244  35.128  12.356   5.493
 5327POPC   GL168245  35.328  12.271   5.904
 5327POPC   GL268246  35.173  11.951   5.891
 5327POPC   C1A68247  35.371  12.028   6.338
 5327POPC   D2A68248  35.700  11.786   6.568
 5327POPC   C3A68249  35.859  11.995   6.946
 5327POPC   C4A68250  35.560  11.918   7.261
 5327POPC   C1B68251  34.808  11.882   6.157
 5327POPC   C2B68252  34.688  11.918   6.578
 5327POPC   C3B68253  35.052  11.932   6.876
 5327POPC   C4B68254  35.059  12.023   7.313
 5328POPC   NC368255  24.393  23.108   5.462
 5328POPC   PO468256  24.809  22.653   5.348
 5328POPC   GL168257  24.589  22.671   5.753
 5328POPC   GL268258  24.756  22.957   5.832
 5328POPC   C1A68259  24.437  22.747   6.208
 5328POPC   D2A68260  24.423  22.980   6.613
 5328POPC   C3A68261  24.478  22.733   6.982
 5328POPC   C4A68262  24.802  22.539   7.199
 5328POPC   C1B68263  24.681  23.190   6.191
 5328POPC   C2B68264  24.549  23.555   6.389
 5328POPC   C3B68265  24.278  23.506   6.723
 5328POPC   C4B68266  24.341  23.216   7.063
 5329POPC   NC368267  38.081  32.889   5.378
 5329POPC   PO468268  38.711  33.178   5.454
 5329POPC   GL168269  38.669  32.895   5.812
 5329POPC   GL268270  38.330  32.956   5.834
 5329POPC   C1A68271  38.576  32.892   6.272
 5329POPC   D2A68272  38.621  32.703   6.662
 5329POPC   C3A68273  38.626  32.976   6.987
 5329POPC   C4A68274  38.654  32.754   7.339
 5329POPC   C1B68275  38.131  33.160   6.194
 5329POPC   C2B68276  38.230  33.100   6.637
 5329POPC   C3B68277  38.198  33.269   7.054
 5329POPC   C4B68278  38.006  33.445   7.413
 5330POPC   NC368279  43.046  33.624   5.502
 5330POPC   PO468280  43.253  34.275   5.488
 5330POPC   GL168281  43.134  34.025   5.848
 5330POPC   GL268282  42.815  33.857   5.879
 5330POPC   C1A68283  43.183  33.777   6.222
 5330POPC   D2A68284  43.197  33.646   6.634
 5330POPC   C3A68285  43.267  33.962   6.999
 5330POPC   C4A68286  43.492  34.098   7.404
 5330POPC   C1B68287  42.796  33.464   6.108
 5330POPC   C2B68288  42.742  33.416   6.530
 5330POPC   C3B68289  42.745  33.656   6.898
 5330POPC   C4B68290  42.683  33.807   7.307
 5331POPC   NC368291  32.226  19.298   5.695
 5331POPC   PO468292  32.427  19.828   5.380
 5331POPC   GL168293  32.309  19.813   5.784
 5331POPC   GL268294  31.950  19.900   5.752
 5331POPC   C1A68295  32.530  19.732   6.177
 5331POPC   D2A68296  32.419  19.800   6.600
 5331POPC   C3A68297  32.660  19.759   6.981
 5331POPC   C4A68298  32.497  19.927   7.408
 5331POPC   C1B68299  31.977  19.693   6.177
 5331POPC   C2B68300  31.925  19.664   6.632
 5331POPC   C3B68301  32.163  19.667   7.025
 5331POPC   C4B68302  32.163  19.532   7.438
 5332POPC   NC368303  25.153  38.175   5.151
 5332POPC   PO468304  25.576  38.674   5.172
 5332POPC   GL168305  25.306  38.656   5.581
 5332POPC   GL268306  25.507  38.645   5.891
 5332POPC   C1A68307  25.081  38.425   5.968
 5332POPC   D2A68308  25.400  38.347   6.330
 5332POPC   C3A68309  25.355  38.302   6.786
 5332POPC   C4A68310  25.201  38.315   7.210
 5332POPC   C1B68311  25.192  38.858   6.189
 5332POPC   C2B68312  25.070  38.684   6.577
 5332POPC   C3B68313  25.170  38.769   6.968
 5332POPC   C4B68314  25.414  38.779   7.329
 5333POPC   NC368315  17.416   4.550   5.503
 5333POPC   PO468316  17.848   4.080   5.590
 5333POPC   GL168317  17.664   4.303   5.898
 5333POPC   GL268318  17.771   4.638   5.952
 5333POPC   C1A68319  17.751   4.308   6.338
 5333POPC   D2A68320  17.598   4.478   6.703
 5333POPC   C3A68321  17.619   4.173   6.999
 5333POPC   C4A68322  17.756   4.239   7.421
 5333POPC   C1B68323  17.346   4.594   6.190
 5333POPC   C2B68324  17.184   4.760   6.584
 5333POPC   C3B68325  17.139   4.562   6.999
 5333POPC   C4B68326  17.255   4.242   7.342
 5334POPC   NC368327   5.343  40.771   5.282
 5334POPC   PO468328   4.787  40.750   5.578
 5334POPC   GL168329   5.093  40.876   5.829
 5334POPC   GL268330   5.282  41.113   5.661
 5334POPC   C1A68331   5.068  40.936   6.270
 5334POPC   D2A68332   5.122  40.691   6.624
 5334POPC   C3A68333   4.911  40.884   6.946
 5334POPC   C4A68334   5.011  40.558   7.200
 5334POPC   C1B68335   5.470  41.120   6.070
 5334POPC   C2B68336   5.559  40.971   6.499
 5334POPC   C3B68337   5.461  40.958   6.928
 5334POPC   C4B68338   5.246  41.024   7.312
 5335POPC   NC368339  29.058  22.467   5.236
 5335POPC   PO468340  28.874  21.849   5.399
 5335POPC   GL168341  29.107  22.197   5.704
 5335POPC   GL268342  28.870  22.472   5.799
 5335POPC   C1A68343  29.275  22.335   6.157
 5335POPC   D2A68344  29.130  22.495   6.584
 5335POPC   C3A68345  29.173  22.244   6.970
 5335POPC   C4A68346  29.293  21.960   7.304
 5335POPC   C1B68347  28.786  22.191   6.185
 5335POPC   C2B68348  28.705  22.204   6.644
 5335POPC   C3B68349  28.766  21.928   6.992
 5335POPC   C4B68350  28.766  21.978   7.437
 5336POPC   NC368351  38.932  31.109   5.411
 5336POPC   PO468352  38.263  30.707   5.435
 5336POPC   GL168353  38.385  30.914   5.794
 5336POPC   GL268354  38.738  30.820   5.802
 5336POPC   C1A68355  38.455  30.966   6.231
 5336POPC   D2A68356  38.706  31.092   6.561
 5336POPC   C3A68357  38.520  30.995   6.943
 5336POPC   C4A68358  38.356  30.710   7.208
 5336POPC   C1B68359  38.745  30.517   6.171
 5336POPC   C2B68360  38.557  30.362   6.583
 5336POPC   C3B68361  38.731  30.414   7.016
 5336POPC   C4B68362  38.850  30.783   7.301
 5337POPC   NC368363  27.846  12.063   5.405
 5337POPC   PO468364  27.265  11.742   5.234
 5337POPC   GL168365  27.381  11.863   5.665
 5337POPC   GL268366  27.488  12.218   5.740
 5337POPC   C1A68367  27.415  11.874   6.133
 5337POPC   D2A68368  27.723  11.822   6.502
 5337POPC   C3A68369  27.741  12.039   6.904
 5337POPC   C4A68370  27.820  12.108   7.387
 5337POPC   C1B68371  27.331  12.379   6.171
 5337POPC   C2B68372  27.145  12.242   6.560
 5337POPC   C3B68373  27.121  11.919   6.870
 5337POPC   C4B68374  27.374  11.916   7.227
 5338POPC   NC368375  27.395   2.168   5.371
 5338POPC   PO468376  27.369   1.541   5.738
 5338POPC   GL168377  27.608   1.907   5.805
 5338POPC   GL268378  27.426   2.217   5.880
 5338POPC   C1A68379  27.756   1.936   6.244
 5338POPC   D2A68380  27.939   1.865   6.662
 5338POPC   C3A68381  27.543   1.924   6.889
 5338POPC   C4A68382  27.302   1.766   7.228
 5338POPC   C1B68383  27.600   2.440   6.223
 5338POPC   C2B68384  27.761   2.330   6.603
 5338POPC   C3B68385  27.903   2.251   7.016
 5338POPC   C4B68386  27.536   2.286   7.268
 5339POPC   NC368387  20.862  14.370   5.376
 5339POPC   PO468388  20.220  14.627   5.264
 5339POPC   GL168389  20.417  14.428   5.714
 5339POPC   GL268390  20.713  14.179   5.844
 5339POPC   C1A68391  20.465  14.460   6.203
 5339POPC   D2A68392  20.356  14.394   6.659
 5339POPC   C3A68393  20.688  14.508   6.949
 5339POPC   C4A68394  20.909  14.437   7.332
 5339POPC   C1B68395  20.392  13.944   6.114
 5339POPC   C2B68396  20.227  13.815   6.530
 5339POPC   C3B68397  20.443  13.932   6.892
 5339POPC   C4B68398  20.453  14.184   7.256
 5340POPC   NC368399  27.809   1.434   5.554
 5340POPC   PO468400  27.580   0.811   5.327
 5340POPC   GL168401  27.661   0.985   5.778
 5340POPC   GL268402  27.976   0.905   5.955
 5340POPC   C1A68403  27.558   0.881   6.243
 5340POPC   D2A68404  27.728   1.024   6.655
 5340POPC   C3A68405  27.629   0.958   7.096
 5340POPC   C4A68406  27.735   0.943   7.552
 5340POPC   C1B68407  27.842   1.290   6.184
 5340POPC   C2B68408  27.609   1.500   6.527
 5340POPC   C3B68409  27.703   1.451   6.980
 5340POPC   C4B68410  27.573   1.389   7.416
 5341POPC   NC368411  24.133  30.933   5.425
 5341POPC   PO468412  24.427  31.595   5.305
 5341POPC   GL168413  24.567  31.733   5.707
 5341POPC   GL268414  24.935  31.792   5.586
 5341POPC   C1A68415  24.467  31.628   6.188
 5341POPC   D2A68416  24.685  31.456   6.582
 5341POPC   C3A68417  24.456  31.297   6.936
 5341POPC   C4A68418  24.140  31.492   7.108
 5341POPC   C1B68419  24.918  31.863   6.054
 5341POPC   C2B68420  24.836  31.966   6.491
 5341POPC   C3B68421  24.972  31.791   6.894
 5341POPC   C4B68422  24.663  31.690   7.203
 5342POPC   NC368423  13.053   5.132   5.231
 5342POPC   PO468424  12.635   4.703   5.445
 5342POPC   GL168425  12.943   4.886   5.735
 5342POPC   GL268426  13.175   5.184   5.740
 5342POPC   C1A68427  13.003   4.922   6.161
 5342POPC   D2A68428  12.817   4.974   6.540
 5342POPC   C3A68429  12.944   4.681   6.832
 5342POPC   C4A68430  12.835   4.758   7.243
 5342POPC   C1B68431  13.256   5.402   6.141
 5342POPC   C2B68432  13.226   5.276   6.589
 5342POPC   C3B68433  12.957   5.216   6.988
 5342POPC   C4B68434  13.052   5.178   7.442
 5343POPC   NC368435   9.807  18.900   5.459
 5343POPC   PO468436   9.587  19.486   5.404
 5343POPC   GL168437   9.890  19.307   5.742
 5343POPC   GL268438   9.602  19.175   5.908
 5343POPC   C1A68439  10.024  19.007   6.134
 5343POPC   D2A68440  10.070  19.107   6.598
 5343POPC   C3A68441   9.783  18.918   6.924
 5343POPC   C4A68442   9.740  18.861   7.373
 5343POPC   C1B68443   9.747  19.424   6.282
 5343POPC   C2B68444   9.673  19.438   6.731
 5343POPC   C3B68445   9.522  19.329   7.108
 5343POPC   C4B68446   9.312  18.989   7.162
 5344POPC   NC368447  43.874  12.538   5.177
 5344POPC   PO468448  44.122  13.076   5.377
 5344POPC   GL168449  44.117  12.912   5.832
 5344POPC   GL268450  43.808  12.675   5.861
 5344POPC   C1A68451  43.938  12.996   6.244
 5344POPC   D2A68452  43.731  12.805   6.561
 5344POPC   C3A68453  43.967  12.854   6.871
 5344POPC   C4A68454  43.993  13.079   7.237
 5344POPC   C1B68455  43.967  12.479   6.225
 5344POPC   C2B68456  44.061  12.397   6.612
 5344POPC   C3B68457  43.902  12.267   6.972
 5344POPC   C4B68458  43.880  12.572   7.279
 5345POPC   NC368459  28.287   6.499   5.282
 5345POPC   PO468460  28.782   6.174   5.608
 5345POPC   GL168461  28.527   6.392   5.882
 5345POPC   GL268462  28.202   6.508   5.771
 5345POPC   C1A68463  28.271   6.254   6.220
 5345POPC   D2A68464  28.399   6.102   6.636
 5345POPC   C3A68465  28.490   6.459   6.930
 5345POPC   C4A68466  28.248   6.521   7.304
 5345POPC   C1B68467  28.299   6.799   6.098
 5345POPC   C2B68468  28.247   6.684   6.528
 5345POPC   C3B68469  28.138   6.927   6.882
 5345POPC   C4B68470  27.939   6.919   7.260
 5346POPC   NC368471   3.926  35.305   4.985
 5346POPC   PO468472   3.382  35.228   5.392
 5346POPC   GL168473   3.587  35.228   5.816
 5346POPC   GL268474   3.386  35.455   6.002
 5346POPC   C1A68475   3.810  35.286   6.235
 5346POPC   D2A68476   3.577  35.444   6.608
 5346POPC   C3A68477   3.593  35.308   7.031
 5346POPC   C4A68478   3.438  35.452   7.421
 5346POPC   C1B68479   3.326  35.791   6.326
 5346POPC   C2B68480   3.396  35.946   6.753
 5346POPC   C3B68481   3.206  35.824   7.155
 5346POPC   C4B68482   3.209  35.850   7.644
 5347POPC   NC368483  37.320  44.486   5.459
 5347POPC   PO468484  36.885  44.946   5.487
 5347POPC   GL168485  36.899  44.584   5.751
 5347POPC   GL268486  36.611  44.483   5.939
 5347POPC   C1A68487  37.098  44.573   6.148
 5347POPC   D2A68488  37.249  44.682   6.562
 5347POPC   C3A68489  37.029  44.589   6.934
 5347POPC   C4A68490  36.974  44.755   7.329
 5347POPC   C1B68491  36.594  44.819   6.202
 5347POPC   C2B68492  36.751  44.906   6.614
 5347POPC   C3B68493  36.559  44.803   7.011
 5347POPC   C4B68494  36.533  44.511   7.368
 5348POPC   NC368495  29.691   3.179   5.507
 5348POPC   PO468496  29.822   3.902   5.461
 5348POPC   GL168497  29.810   3.586   5.842
 5348POPC   GL268498  29.519   3.369   5.959
 5348POPC   C1A68499  29.923   3.460   6.289
 5348POPC   D2A68500  30.298   3.449   6.568
 5348POPC   C3A68501  30.187   3.461   6.981
 5348POPC   C4A68502  29.863   3.616   7.209
 5348POPC   C1B68503  29.576   3.021   6.234
 5348POPC   C2B68504  29.844   3.034   6.584
 5348POPC   C3B68505  29.689   3.315   6.846
 5348POPC   C4B68506  29.419   3.349   7.200
 5349POPC   NC368507  39.219  21.485   4.905
 5349POPC   PO468508  39.449  21.756   5.522
 5349POPC   GL168509  39.165  21.498   5.814
 5349POPC   GL268510  38.847  21.586   5.931
 5349POPC   C1A68511  39.227  21.412   6.244
 5349POPC   D2A68512  39.421  21.440   6.615
 5349POPC   C3A68513  39.202  21.199   6.916
 5349POPC   C4A68514  39.319  21.311   7.309
 5349POPC   C1B68515  38.789  21.743   6.299
 5349POPC   C2B68516  39.007  21.931   6.594
 5349POPC   C3B68517  39.111  21.722   6.939
 5349POPC   C4B68518  38.867  21.501   7.223
 5350POPC   NC368519  43.201  17.255   5.334
 5350POPC   PO468520  43.220  17.949   5.419
 5350POPC   GL168521  43.050  17.654   5.782
 5350POPC   GL268522  43.103  17.282   5.837
 5350POPC   C1A68523  42.994  17.535   6.253
 5350POPC   D2A68524  42.830  17.543   6.680
 5350POPC   C3A68525  43.129  17.413   6.977
 5350POPC   C4A68526  43.150  17.479   7.440
 5350POPC   C1B68527  43.152  16.983   6.215
 5350POPC   C2B68528  42.884  16.804   6.564
 5350POPC   C3B68529  42.889  16.961   6.997
 5350POPC   C4B68530  43.308  17.033   7.245
 5351POPC   NC368531  12.486  31.382   5.442
 5351POPC   PO468532  13.137  31.348   5.222
 5351POPC   GL168533  12.965  31.513   5.638
 5351POPC   GL268534  12.865  31.253   5.836
 5351POPC   C1A68535  12.923  31.669   6.128
 5351POPC   D2A68536  12.788  31.815   6.583
 5351POPC   C3A68537  12.929  31.675   7.003
 5351POPC   C4A68538  12.748  31.688   7.418
 5351POPC   C1B68539  12.623  31.193   6.252
 5351POPC   C2B68540  12.622  31.334   6.710
 5351POPC   C3B68541  12.609  31.263   7.152
 5351POPC   C4B68542  12.523  31.027   7.522
 5352POPC   NC368543  41.250  17.401   5.575
 5352POPC   PO468544  41.931  17.517   5.567
 5352POPC   GL168545  41.605  17.634   5.878
 5352POPC   GL268546  41.702  17.979   5.957
 5352POPC   C1A68547  41.379  17.442   6.254
 5352POPC   D2A68548  41.115  17.312   6.638
 5352POPC   C3A68549  41.350  17.336   6.974
 5352POPC   C4A68550  41.493  17.350   7.356
 5352POPC   C1B68551  41.880  17.722   6.293
 5352POPC   C2B68552  41.737  17.485   6.646
 5352POPC   C3B68553  41.870  17.557   7.042
 5352POPC   C4B68554  41.921  17.992   7.141
 5353POPC   NC368555  31.244  36.443   5.521
 5353POPC   PO468556  31.638  35.836   5.322
 5353POPC   GL168557  31.540  36.088   5.715
 5353POPC   GL268558  31.827  36.049   5.818
 5353POPC   C1A68559  31.403  36.235   6.145
 5353POPC   D2A68560  31.160  36.116   6.524
 5353POPC   C3A68561  31.343  36.165   6.929
 5353POPC   C4A68562  31.331  36.451   7.287
 5353POPC   C1B68563  31.759  35.874   6.190
 5353POPC   C2B68564  31.614  35.870   6.583
 5353POPC   C3B68565  31.793  35.910   6.977
 5353POPC   C4B68566  31.563  35.960   7.350
 5354POPC   NC368567  36.900  11.033   5.560
 5354POPC   PO468568  37.120  10.387   5.403
 5354POPC   GL168569  36.986  10.404   5.836
 5354POPC   GL268570  36.774  10.670   5.902
 5354POPC   C1A68571  37.044  10.504   6.298
 5354POPC   D2A68572  36.890  10.267   6.626
 5354POPC   C3A68573  36.905  10.380   7.004
 5354POPC   C4A68574  36.991  10.211   7.362
 5354POPC   C1B68575  36.688  10.897   6.253
 5354POPC   C2B68576  36.815  10.794   6.662
 5354POPC   C3B68577  37.244  10.696   6.772
 5354POPC   C4B68578  37.272  10.692   7.220
 5355POPC   NC368579  23.075  18.646   5.395
 5355POPC   PO468580  22.864  19.283   5.512
 5355POPC   GL168581  23.029  18.980   5.807
 5355POPC   GL268582  22.749  18.744   5.775
 5355POPC   C1A68583  23.159  19.048   6.246
 5355POPC   D2A68584  22.884  19.046   6.634
 5355POPC   C3A68585  23.150  19.030   6.988
 5355POPC   C4A68586  23.176  19.253   7.387
 5355POPC   C1B68587  22.653  18.819   6.203
 5355POPC   C2B68588  22.549  18.616   6.587
 5355POPC   C3B68589  22.464  18.826   6.980
 5355POPC   C4B68590  22.708  19.069   7.237
 5356POPC   NC368591  28.850  25.983   5.276
 5356POPC   PO468592  29.498  26.024   5.279
 5356POPC   GL168593  29.189  26.043   5.653
 5356POPC   GL268594  28.993  25.761   5.740
 5356POPC   C1A68595  29.056  26.162   6.093
 5356POPC   D2A68596  28.941  26.006   6.553
 5356POPC   C3A68597  29.094  25.996   6.988
 5356POPC   C4A68598  29.066  26.284   7.318
 5356POPC   C1B68599  29.021  25.638   6.185
 5356POPC   C2B68600  29.159  25.551   6.639
 5356POPC   C3B68601  29.019  25.488   7.088
 5356POPC   C4B68602  29.241  25.421   7.501
 5357POPC   NC368603  38.360  14.027   5.387
 5357POPC   PO468604  38.499  13.382   5.272
 5357POPC   GL168605  38.426  13.602   5.674
 5357POPC   GL268606  38.658  13.871   5.800
 5357POPC   C1A68607  38.344  13.593   6.113
 5357POPC   D2A68608  38.227  13.485   6.529
 5357POPC   C3A68609  38.534  13.581   6.830
 5357POPC   C4A68610  38.569  13.439   7.236
 5357POPC   C1B68611  38.793  13.831   6.251
 5357POPC   C2B68612  38.818  14.013   6.677
 5357POPC   C3B68613  38.725  13.984   7.144
 5357POPC   C4B68614  38.576  13.831   7.565
 5358POPC   NC368615  25.256  44.658   5.219
 5358POPC   PO468616  25.278  44.019   5.206
 5358POPC   GL168617  25.186  44.364   5.619
 5358POPC   GL268618  25.163  44.782   5.702
 5358POPC   C1A68619  25.203  44.461   6.094
 5358POPC   D2A68620  25.492  44.532   6.450
 5358POPC   C3A68621  25.300  44.719   6.804
 5358POPC   C4A68622  25.377  44.824   7.221
 5358POPC   C1B68623  24.964  44.996   6.092
 5358POPC   C2B68624  25.042   0.140   6.548
 5358POPC   C3B68625  24.974   0.091   7.003
 5358POPC   C4B68626  24.825  44.968   7.411
 5359POPC   NC368627  37.558  35.854   5.461
 5359POPC   PO468628  38.021  36.302   5.390
 5359POPC   GL168629  37.939  36.103   5.758
 5359POPC   GL268630  37.630  36.252   5.820
 5359POPC   C1A68631  37.814  35.878   6.128
 5359POPC   D2A68632  37.967  35.890   6.543
 5359POPC   C3A68633  37.744  35.950   6.934
 5359POPC   C4A68634  37.908  35.805   7.320
 5359POPC   C1B68635  37.672  36.409   6.263
 5359POPC   C2B68636  37.556  36.452   6.716
 5359POPC   C3B68637  37.516  36.397   7.181
 5359POPC   C4B68638  37.406  36.399   7.663
 5360POPC   NC368639  33.032   4.633   5.469
 5360POPC   PO468640  32.673   4.077   5.260
 5360POPC   GL168641  32.841   4.166   5.727
 5360POPC   GL268642  33.152   3.945   5.870
 5360POPC   C1A68643  32.898   4.421   6.137
 5360POPC   D2A68644  32.758   4.438   6.587
 5360POPC   C3A68645  32.999   4.546   6.958
 5360POPC   C4A68646  32.825   4.327   7.312
 5360POPC   C1B68647  33.376   4.221   6.153
 5360POPC   C2B68648  33.291   4.496   6.502
 5360POPC   C3B68649  33.527   4.536   6.880
 5360POPC   C4B68650  33.533   4.373   7.284
 5361POPC   NC368651  25.080   2.662   5.300
 5361POPC   PO468652  25.525   3.095   5.436
 5361POPC   GL168653  25.276   2.858   5.767
 5361POPC   GL268654  25.447   2.588   5.867
 5361POPC   C1A68655  25.193   2.761   6.246
 5361POPC   D2A68656  24.981   2.470   6.558
 5361POPC   C3A68657  25.064   2.535   6.991
 5361POPC   C4A68658  24.868   2.541   7.383
 5361POPC   C1B68659  25.699   2.890   6.089
 5361POPC   C2B68660  25.603   3.053   6.474
 5361POPC   C3B68661  25.367   3.186   6.821
 5361POPC   C4B68662  25.370   3.054   7.264
 5362POPC   NC368663  22.934  38.126   5.018
 5362POPC   PO468664  23.161  37.573   5.404
 5362POPC   GL168665  23.160  37.533   5.864
 5362POPC   GL268666  23.117  37.895   5.925
 5362POPC   C1A68667  23.258  37.650   6.323
 5362POPC   D2A68668  23.409  37.960   6.574
 5362POPC   C3A68669  23.233  37.910   6.974
 5362POPC   C4A68670  22.975  37.602   7.154
 5362POPC   C1B68671  22.963  38.057   6.365
 5362POPC   C2B68672  22.779  37.819   6.729
 5362POPC   C3B68673  22.565  37.881   7.162
 5362POPC   C4B68674  22.647  38.060   7.616
 5363POPC   NC368675   3.308   3.956   5.549
 5363POPC   PO468676   3.543   4.457   5.133
 5363POPC   GL168677   3.515   4.451   5.670
 5363POPC   GL268678   3.517   4.146   5.953
 5363POPC   C1A68679   3.574   4.596   6.143
 5363POPC   D2A68680   3.551   4.560   6.599
 5363POPC   C3A68681   3.165   4.528   6.807
 5363POPC   C4A68682   3.262   4.343   7.184
 5363POPC   C1B68683   3.257   4.195   6.357
 5363POPC   C2B68684   3.347   4.026   6.748
 5363POPC   C3B68685   3.251   3.852   7.136
 5363POPC   C4B68686   3.287   3.963   7.573
 5364POPC   NC368687  38.429  30.266   5.441
 5364POPC   PO468688  38.588  29.720   5.120
 5364POPC   GL168689  38.537  29.823   5.655
 5364POPC   GL268690  38.323  29.613   5.876
 5364POPC   C1A68691  38.575  29.994   6.107
 5364POPC   D2A68692  38.408  29.783   6.485
 5364POPC   C3A68693  38.552  29.911   6.899
 5364POPC   C4A68694  38.714  29.939   7.326
 5364POPC   C1B68695  37.989  29.793   6.132
 5364POPC   C2B68696  37.801  29.812   6.544
 5364POPC   C3B68697  37.978  29.986   6.934
 5364POPC   C4B68698  38.285  30.212   7.203
 5365POPC   NC368699  22.273  21.819   5.607
 5365POPC   PO468700  22.333  22.392   5.206
 5365POPC   GL168701  22.135  22.295   5.688
 5365POPC   GL268702  22.349  22.390   6.000
 5365POPC   C1A68703  21.968  22.111   6.125
 5365POPC   D2A68704  22.103  22.335   6.530
 5365POPC   C3A68705  21.983  22.192   6.952
 5365POPC   C4A68706  21.812  22.095   7.400
 5365POPC   C1B68707  22.473  22.032   6.312
 5365POPC   C2B68708  22.469  21.957   6.770
 5365POPC   C3B68709  22.399  22.076   7.199
 5365POPC   C4B68710  22.190  21.772   7.452
 5366POPC   NC368711  37.639  23.699   5.065
 5366POPC   PO468712  37.865  23.965   5.724
 5366POPC   GL168713  37.652  23.805   6.038
 5366POPC   GL268714  37.326  23.953   5.993
 5366POPC   C1A68715  37.810  23.463   6.281
 5366POPC   D2A68716  37.860  23.225   6.673
 5366POPC   C3A68717  37.640  23.507   6.966
 5366POPC   C4A68718  37.705  23.864   7.238
 5366POPC   C1B68719  37.134  24.213   6.225
 5366POPC   C2B68720  37.421  24.039   6.523
 5366POPC   C3B68721  37.351  23.968   6.916
 5366POPC   C4B68722  37.182  23.923   7.306
 5367POPC   NC368723  30.605  37.235   5.423
 5367POPC   PO468724  30.886  36.627   5.303
 5367POPC   GL168725  30.624  36.799   5.651
 5367POPC   GL268726  30.790  36.737   5.869
 5367POPC   C1A68727  30.480  37.056   6.091
 5367POPC   D2A68728  30.638  36.996   6.542
 5367POPC   C3A68729  30.496  37.009   7.020
 5367POPC   C4A68730  30.669  37.076   7.459
 5367POPC   C1B68731  30.995  36.552   6.183
 5367POPC   C2B68732  30.816  36.489   6.556
 5367POPC   C3B68733  30.986  36.535   6.914
 5367POPC   C4B68734  30.820  36.630   7.272
 5368POPC   NC368735  41.736  29.552   5.448
 5368POPC   PO468736  41.564  30.096   5.455
 5368POPC   GL168737  41.652  29.891   5.837
 5368POPC   GL268738  41.367  29.671   5.873
 5368POPC   C1A68739  41.665  29.886   6.283
 5368POPC   D2A68740  41.470  29.867   6.681
 5368POPC   C3A68741  41.411  30.191   6.986
 5368POPC   C4A68742  41.540  30.044   7.382
 5368POPC   C1B68743  41.352  29.395   6.241
 5368POPC   C2B68744  41.282  29.393   6.690
 5368POPC   C3B68745  41.492  29.534   7.085
 5368POPC   C4B68746  41.427  29.590   7.546
 5369POPC   NC368747  17.666  34.837   5.542
 5369POPC   PO468748  17.096  34.592   5.365
 5369POPC   GL168749  17.384  34.502   5.778
 5369POPC   GL268750  17.432  34.795   6.019
 5369POPC   C1A68751  17.610  34.357   6.163
 5369POPC   D2A68752  17.442  34.606   6.525
 5369POPC   C3A68753  17.360  34.508   6.963
 5369POPC   C4A68754  17.130  34.797   7.228
 5369POPC   C1B68755  17.853  34.797   6.221
 5369POPC   C2B68756  17.933  34.504   6.568
 5369POPC   C3B68757  17.940  34.708   6.954
 5369POPC   C4B68758  17.690  34.668   7.340
 5370POPC   NC368759  20.458  22.490   5.554
 5370POPC   PO468760  20.672  21.824   5.332
 5370POPC   GL168761  20.628  22.014   5.721
 5370POPC   GL268762  20.931  21.863   5.808
 5370POPC   C1A68763  20.642  22.116   6.174
 5370POPC   D2A68764  20.682  21.948   6.614
 5370POPC   C3A68765  20.673  22.205   7.014
 5370POPC   C4A68766  20.376  22.544   7.138
 5370POPC   C1B68767  21.073  21.797   6.203
 5370POPC   C2B68768  21.175  21.995   6.575
 5370POPC   C3B68769  21.052  21.753   6.933
 5370POPC   C4B68770  20.924  21.869   7.335
 5371POPC   NC368771  37.568  24.668   5.301
 5371POPC   PO468772  37.786  24.100   5.204
 5371POPC   GL168773  37.544  24.345   5.684
 5371POPC   GL268774  37.560  24.706   5.815
 5371POPC   C1A68775  37.628  24.352   6.174
 5371POPC   D2A68776  37.984  24.218   6.449
 5371POPC   C3A68777  37.909  24.194   6.878
 5371POPC   C4A68778  37.608  24.393   7.118
 5371POPC   C1B68779  37.816  24.824   6.186
 5371POPC   C2B68780  37.771  24.687   6.614
 5371POPC   C3B68781  37.737  24.888   7.006
 5371POPC   C4B68782  37.343  24.836   7.203
 5372POPC   NC368783  34.499  17.836   5.269
 5372POPC   PO468784  35.140  17.632   5.451
 5372POPC   GL168785  34.839  17.421   5.687
 5372POPC   GL268786  34.540  17.617   5.733
 5372POPC   C1A68787  34.884  17.515   6.123
 5372POPC   D2A68788  34.759  17.701   6.503
 5372POPC   C3A68789  34.894  17.556   6.893
 5372POPC   C4A68790  34.723  17.637   7.301
 5372POPC   C1B68791  34.358  17.444   6.117
 5372POPC   C2B68792  34.424  17.278   6.545
 5372POPC   C3B68793  34.407  17.389   6.955
 5372POPC   C4B68794  34.213  17.178   7.268
 5373POPC   NC368795  44.258  38.749   5.055
 5373POPC   PO468796  44.204  38.178   5.463
 5373POPC   GL168797  43.851  38.446   5.689
 5373POPC   GL268798  44.042  38.497   5.931
 5373POPC   C1A68799  43.629  38.667   6.109
 5373POPC   D2A68800  43.809  38.454   6.461
 5373POPC   C3A68801  43.721  38.363   6.894
 5373POPC   C4A68802  43.902  38.510   7.254
 5373POPC   C1B68803  44.037  38.117   6.161
 5373POPC   C2B68804  44.016  38.014   6.624
 5373POPC   C3B68805  44.139  38.097   7.066
 5373POPC   C4B68806  44.219  38.203   7.508
 5374POPC   NC368807  16.826  34.979   5.715
 5374POPC   PO468808  16.423  35.178   5.183
 5374POPC   GL168809  16.500  35.409   5.647
 5374POPC   GL268810  16.656  35.730   5.749
 5374POPC   C1A68811  16.659  35.423   6.147
 5374POPC   D2A68812  16.961  35.509   6.512
 5374POPC   C3A68813  17.064  35.238   6.898
 5374POPC   C4A68814  17.024  35.288   7.375
 5374POPC   C1B68815  16.419  35.882   6.158
 5374POPC   C2B68816  16.378  35.629   6.552
 5374POPC   C3B68817  16.563  35.489   6.955
 5374POPC   C4B68818  16.530  35.834   7.254
 5375POPC   NC368819  35.276  44.378   5.588
 5375POPC   PO468820  35.242  44.993   5.284
 5375POPC   GL168821  35.305  44.856   5.743
 5375POPC   GL268822  35.019  44.645   5.932
 5375POPC   C1A68823  35.540  44.714   6.137
 5375POPC   D2A68824  35.754  44.690   6.569
 5375POPC   C3A68825  35.532  44.963   6.885
 5375POPC   C4A68826  35.368  44.902   7.281
 5375POPC   C1B68827  34.971  44.225   6.173
 5375POPC   C2B68828  35.166  44.183   6.588
 5375POPC   C3B68829  35.318  44.460   6.924
 5375POPC   C4B68830  35.275  44.407   7.364
 5376POPC   NC368831  20.038  11.886   5.589
 5376POPC   PO468832  20.619  12.033   5.272
 5376POPC   GL168833  20.824  12.059   5.665
 5376POPC   GL268834  20.495  12.016   5.836
 5376POPC   C1A68835  20.972  12.056   6.087
 5376POPC   D2A68836  20.747  11.916   6.438
 5376POPC   C3A68837  20.831  12.109   6.814
 5376POPC   C4A68838  20.883  12.107   7.243
 5376POPC   C1B68839  20.260  11.942   6.235
 5376POPC   C2B68840  20.297  11.828   6.691
 5376POPC   C3B68841  20.355  12.095   7.058
 5376POPC   C4B68842  20.309  12.052   7.495
 5377POPC   NC368843  41.294  16.563   5.400
 5377POPC   PO468844  41.971  16.798   5.303
 5377POPC   GL168845  41.921  16.745   5.740
 5377POPC   GL268846  41.675  16.526   5.764
 5377POPC   C1A68847  41.664  16.926   6.111
 5377POPC   D2A68848  41.506  17.020   6.547
 5377POPC   C3A68849  41.768  17.043   6.933
 5377POPC   C4A68850  41.587  16.863   7.310
 5377POPC   C1B68851  41.783  16.419   6.159
 5377POPC   C2B68852  41.811  16.618   6.527
 5377POPC   C3B68853  41.546  16.591   6.871
 5377POPC   C4B68854  41.646  16.367   7.216
 5378POPC   NC368855  15.782  40.936   5.379
 5378POPC   PO468856  16.340  40.483   5.373
 5378POPC   GL168857  16.116  40.692   5.757
 5378POPC   GL268858  15.819  40.912   5.884
 5378POPC   C1A68859  16.178  40.747   6.193
 5378POPC   D2A68860  16.093  41.065   6.466
 5378POPC   C3A68861  16.158  40.966   6.898
 5378POPC   C4A68862  15.944  40.990   7.276
 5378POPC   C1B68863  15.688  40.638   6.263
 5378POPC   C2B68864  15.625  40.504   6.689
 5378POPC   C3B68865  15.567  40.757   7.054
 5378POPC   C4B68866  15.499  40.820   7.517
 5379POPC   NC368867  42.422  10.685   5.345
 5379POPC   PO468868  42.050  10.137   5.290
 5379POPC   GL168869  42.300  10.229   5.736
 5379POPC   GL268870  42.591  10.487   5.808
 5379POPC   C1A68871  42.373  10.289   6.216
 5379POPC   D2A68872  42.606  10.523   6.542
 5379POPC   C3A68873  42.411  10.555   6.957
 5379POPC   C4A68874  42.235  10.316   7.297
 5379POPC   C1B68875  42.796  10.837   6.072
 5379POPC   C2B68876  42.855  11.007   6.486
 5379POPC   C3B68877  42.798  10.892   6.881
 5379POPC   C4B68878  42.609  10.915   7.260
 5380POPC   NC368879  27.897  21.456   5.114
 5380POPC   PO468880  27.361  21.220   5.445
 5380POPC   GL168881  27.577  21.442   5.778
 5380POPC   GL268882  27.895  21.591   5.683
 5380POPC   C1A68883  27.482  21.386   6.225
 5380POPC   D2A68884  27.762  21.176   6.538
 5380POPC   C3A68885  27.689  21.158   7.000
 5380POPC   C4A68886  27.758  21.381   7.400
 5380POPC   C1B68887  27.949  21.588   6.167
 5380POPC   C2B68888  27.840  21.671   6.625
 5380POPC   C3B68889  27.986  21.678   7.070
 5380POPC   C4B68890  28.027  21.833   7.526
 5381POPC   NC368891  11.725  41.518   5.147
 5381POPC   PO468892  11.441  42.108   5.352
 5381POPC   GL168893  11.458  42.340   5.759
 5381POPC   GL268894  11.321  42.058   5.887
 5381POPC   C1A68895  11.371  42.442   6.220
 5381POPC   D2A68896  11.591  42.587   6.628
 5381POPC   C3A68897  11.420  42.484   7.041
 5381POPC   C4A68898  11.142  42.663   7.328
 5381POPC   C1B68899  11.194  41.967   6.314
 5381POPC   C2B68900  11.262  41.911   6.769
 5381POPC   C3B68901  10.969  42.067   7.082
 5381POPC   C4B68902  11.029  42.179   7.493
 5382POPC   NC368903  27.368  27.085   5.596
 5382POPC   PO468904  27.611  26.631   5.150
 5382POPC   GL168905  27.633  26.638   5.696
 5382POPC   GL268906  27.313  26.629   5.911
 5382POPC   C1A68907  27.674  26.454   6.177
 5382POPC   D2A68908  27.486  26.415   6.616
 5382POPC   C3A68909  27.578  26.712   6.969
 5382POPC   C4A68910  27.716  26.556   7.393
 5382POPC   C1B68911  27.186  26.738   6.351
 5382POPC   C2B68912  27.318  27.086   6.610
 5382POPC   C3B68913  27.454  27.247   6.974
 5382POPC   C4B68914  27.453  27.137   7.403
 5383POPC   NC368915   0.551  17.730   5.780
 5383POPC   PO468916   0.080  17.374   5.410
 5383POPC   GL168917   0.238  17.215   5.797
 5383POPC   GL268918   0.588  17.154   5.710
 5383POPC   C1A68919   0.204  17.369   6.245
 5383POPC   D2A68920   0.152  17.530   6.690
 5383POPC   C3A68921   0.504  17.519   7.030
 5383POPC   C4A68922   0.658  17.665   7.439
 5383POPC   C1B68923   0.642  17.108   6.159
 5383POPC   C2B68924   0.588  17.253   6.590
 5383POPC   C3B68925   0.693  17.030   6.981
 5383POPC   C4B68926   0.858  17.175   7.353
 5384POPC   NC368927  44.194  16.654   5.398
 5384POPC   PO468928  43.615  16.472   5.444
 5384POPC   GL168929  43.823  16.722   5.785
 5384POPC   GL268930  44.031  17.039   5.765
 5384POPC   C1A68931  43.715  16.879   6.211
 5384POPC   D2A68932  43.815  16.776   6.641
 5384POPC   C3A68933  43.766  17.062   6.990
 5384POPC   C4A68934  43.935  16.894   7.369
 5384POPC   C1B68935  44.250  16.851   6.117
 5384POPC   C2B68936  44.284  16.647   6.519
 5384POPC   C3B68937  44.272  16.808   6.944
 5384POPC   C4B68938  44.378  16.521   7.269
 5385POPC   NC368939  13.074  30.336   5.492
 5385POPC   PO468940  12.671  30.928   5.276
 5385POPC   GL168941  12.704  30.781   5.742
 5385POPC   GL268942  13.050  30.765   5.773
 5385POPC   C1A68943  12.797  30.550   6.183
 5385POPC   D2A68944  12.640  30.412   6.590
 5385POPC   C3A68945  12.780  30.435   6.984
 5385POPC   C4A68946  12.831  30.801   7.182
 5385POPC   C1B68947  13.098  30.955   6.189
 5385POPC   C2B68948  12.914  30.904   6.612
 5385POPC   C3B68949  13.087  31.157   6.943
 5385POPC   C4B68950  13.324  30.931   7.252
 5386POPC   NC368951  13.518  24.272   5.494
 5386POPC   PO468952  13.423  24.780   5.096
 5386POPC   GL168953  13.697  24.749   5.594
 5386POPC   GL268954  13.848  24.476   5.824
 5386POPC   C1A68955  13.598  24.825   6.095
 5386POPC   D2A68956  13.691  24.803   6.553
 5386POPC   C3A68957  13.590  24.666   6.969
 5386POPC   C4A68958  13.780  24.557   7.417
 5386POPC   C1B68959  13.623  24.302   6.208
 5386POPC   C2B68960  13.745  24.281   6.657
 5386POPC   C3B68961  13.647  24.169   7.094
 5386POPC   C4B68962  13.985  24.057   7.377
 5387POPC   NC368963  30.816  42.780   5.688
 5387POPC   PO468964  30.645  43.387   5.392
 5387POPC   GL168965  30.783  43.271   5.797
 5387POPC   GL268966  31.137  43.200   5.837
 5387POPC   C1A68967  30.592  43.170   6.218
 5387POPC   D2A68968  30.435  43.206   6.650
 5387POPC   C3A68969  30.528  42.933   6.987
 5387POPC   C4A68970  30.633  43.228   7.321
 5387POPC   C1B68971  31.098  43.201   6.266
 5387POPC   C2B68972  31.169  43.309   6.668
 5387POPC   C3B68973  30.991  43.137   6.963
 5387POPC   C4B68974  31.111  43.035   7.344
 5388POPC   NC368975  25.041  39.958   5.412
 5388POPC   PO468976  25.752  39.998   5.500
 5388POPC   GL168977  25.410  39.953   5.815
 5388POPC   GL268978  25.117  40.190   5.865
 5388POPC   C1A68979  25.379  39.948   6.275
 5388POPC   D2A68980  25.401  40.241   6.642
 5388POPC   C3A68981  25.367  40.125   7.086
 5388POPC   C4A68982  25.345  39.727   7.199
 5388POPC   C1B68983  24.966  40.245   6.300
 5388POPC   C2B68984  24.899  40.244   6.742
 5388POPC   C3B68985  24.877  40.034   7.126
 5388POPC   C4B68986  24.951  40.159   7.524
 5389POPC   NC368987  36.954  36.651   5.445
 5389POPC   PO468988  37.501  37.033   5.390
 5389POPC   GL168989  37.100  37.038   5.761
 5389POPC   GL268990  36.719  36.870   5.830
 5389POPC   C1A68991  36.901  37.101   6.219
 5389POPC   D2A68992  36.757  36.986   6.659
 5389POPC   C3A68993  36.923  37.149   7.067
 5389POPC   C4A68994  36.784  36.904   7.437
 5389POPC   C1B68995  36.694  36.614   6.247
 5389POPC   C2B68996  36.592  36.492   6.697
 5389POPC   C3B68997  36.479  36.607   7.162
 5389POPC   C4B68998  36.391  36.516   7.644
 5390POPC   NC368999  30.227  21.081   5.276
 5390POPC   PO469000  29.758  21.551   5.241
 5390POPC   GL169001  29.760  21.251   5.619
 5390POPC   GL269002  29.954  20.945   5.717
 5390POPC   C1A69003  29.694  21.279   6.096
 5390POPC   D2A69004  29.610  21.537   6.501
 5390POPC   C3A69005  29.675  21.327   6.918
 5390POPC   C4A69006  29.487  21.480   7.293
 5390POPC   C1B69007  30.195  21.263   5.967
 5390POPC   C2B69008  30.174  21.232   6.440
 5390POPC   C3B69009  30.220  21.262   6.902
 5390POPC   C4B69010  30.024  21.406   7.291
 5391POPC   NC369011  24.578  16.238   5.182
 5391POPC   PO469012  24.359  15.645   5.485
 5391POPC   GL169013  24.456  15.562   5.869
 5391POPC   GL269014  24.753  15.408   5.835
 5391POPC   C1A69015  24.422  15.754   6.267
 5391POPC   D2A69016  24.247  15.663   6.632
 5391POPC   C3A69017  24.346  15.963   6.910
 5391POPC   C4A69018  24.347  15.912   7.320
 5391POPC   C1B69019  24.853  15.476   6.265
 5391POPC   C2B69020  24.770  15.689   6.667
 5391POPC   C3B69021  24.662  15.586   7.099
 5391POPC   C4B69022  24.799  15.771   7.507
 5392POPC   NC369023  42.649  41.031   4.996
 5392POPC   PO469024  42.312  40.562   5.269
 5392POPC   GL169025  42.433  40.737   5.692
 5392POPC   GL269026  42.320  41.099   5.729
 5392POPC   C1A69027  42.516  40.860   6.153
 5392POPC   D2A69028  42.494  41.046   6.589
 5392POPC   C3A69029  42.509  40.790   6.925
 5392POPC   C4A69030  42.117  40.650   7.069
 5392POPC   C1B69031  42.111  41.296   6.114
 5392POPC   C2B69032  42.120  41.389   6.587
 5392POPC   C3B69033  42.087  41.159   6.990
 5392POPC   C4B69034  42.123  41.023   7.448
 5393POPC   NC369035  30.474  29.336   5.423
 5393POPC   PO469036  30.707  28.676   5.375
 5393POPC   GL169037  30.545  28.935   5.712
 5393POPC   GL269038  30.862  29.109   5.705
 5393POPC   C1A69039  30.546  29.284   6.060
 5393POPC   D2A69040  30.454  29.408   6.489
 5393POPC   C3A69041  30.473  29.267   6.901
 5393POPC   C4A69042  30.517  29.447   7.304
 5393POPC   C1B69043  30.974  29.029   6.143
 5393POPC   C2B69044  30.947  29.200   6.556
 5393POPC   C3B69045  30.942  29.060   6.970
 5393POPC   C4B69046  30.995  29.292   7.321
 5394POPC   NC369047   3.142  13.414   5.180
 5394POPC   PO469048   3.833  13.618   5.321
 5394POPC   GL169049   3.731  13.757   5.736
 5394POPC   GL269050   3.394  13.802   5.705
 5394POPC   C1A69051   3.801  13.445   6.123
 5394POPC   D2A69052   3.543  13.316   6.468
 5394POPC   C3A69053   3.634  13.427   6.916
 5394POPC   C4A69054   3.832  13.816   7.091
 5394POPC   C1B69055   3.459  13.797   6.176
 5394POPC   C2B69056   3.630  13.827   6.566
 5394POPC   C3B69057   3.330  13.884   6.864
 5394POPC   C4B69058   3.315  13.852   7.279
 5395POPC   NC369059  16.299   3.145   5.351
 5395POPC   PO469060  15.766   2.699   5.328
 5395POPC   GL169061  15.908   2.699   5.776
 5395POPC   GL269062  16.133   2.978   5.807
 5395POPC   C1A69063  15.849   2.837   6.229
 5395POPC   D2A69064  15.780   2.643   6.617
 5395POPC   C3A69065  15.815   2.829   7.019
 5395POPC   C4A69066  15.557   2.633   7.353
 5395POPC   C1B69067  16.348   2.819   6.164
 5395POPC   C2B69068  16.278   2.762   6.594
 5395POPC   C3B69069  16.357   2.853   7.013
 5395POPC   C4B69070  16.436   2.961   7.432
 5396POPC   NC369071  23.252   0.784   5.414
 5396POPC   PO469072  22.635   0.678   5.549
 5396POPC   GL169073  22.992   0.518   5.798
 5396POPC   GL269074  22.807   0.248   5.921
 5396POPC   C1A69075  23.208   0.378   6.196
 5396POPC   D2A69076  23.012   0.368   6.597
 5396POPC   C3A69077  23.013   0.549   6.990
 5396POPC   C4A69078  23.150   0.394   7.388
 5396POPC   C1B69079  22.608   0.298   6.273
 5396POPC   C2B69080  22.504   0.466   6.643
 5396POPC   C3B69081  22.555   0.266   6.973
 5396POPC   C4B69082  22.628   0.381   7.349
 5397POPC   NC369083  10.382  37.498   5.020
 5397POPC   PO469084  10.396  38.004   5.446
 5397POPC   GL169085  10.721  37.848   5.783
 5397POPC   GL269086  10.690  37.472   5.900
 5397POPC   C1A69087  10.935  37.787   6.209
 5397POPC   D2A69088  10.855  37.487   6.542
 5397POPC   C3A69089  10.877  37.702   6.940
 5397POPC   C4A69090  10.593  37.705   7.318
 5397POPC   C1B69091  10.432  37.614   6.292
 5397POPC   C2B69092  10.392  37.618   6.782
 5397POPC   C3B69093  10.221  37.383   7.166
 5397POPC   C4B69094  10.327  37.335   7.630
 5398POPC   NC369095  25.987  33.370   5.336
 5398POPC   PO469096  26.256  32.711   5.368
 5398POPC   GL169097  26.135  33.045   5.702
 5398POPC   GL269098  25.886  33.297   5.832
 5398POPC   C1A69099  26.053  32.977   6.163
 5398POPC   D2A69100  25.980  33.020   6.564
 5398POPC   C3A69101  26.354  32.826   6.759
 5398POPC   C4A69102  26.449  32.485   7.111
 5398POPC   C1B69103  26.222  33.435   6.075
 5398POPC   C2B69104  26.307  33.427   6.493
 5398POPC   C3B69105  26.189  33.332   6.898
 5398POPC   C4B69106  26.023  33.390   7.272
 5399POPC   NC369107  37.362  26.010   5.573
 5399POPC   PO469108  37.973  25.852   5.344
 5399POPC   GL169109  37.945  25.992   5.766
 5399POPC   GL269110  37.743  26.290   5.824
 5399POPC   C1A69111  38.047  25.862   6.179
 5399POPC   D2A69112  37.810  25.685   6.522
 5399POPC   C3A69113  37.922  25.926   6.871
 5399POPC   C4A69114  37.822  26.179   7.252
 5399POPC   C1B69115  37.572  26.038   6.193
 5399POPC   C2B69116  37.490  26.090   6.633
 5399POPC   C3B69117  37.403  25.922   7.059
 5399POPC   C4B69118  37.340  26.216   7.417
 5400POPC   NC369119  29.711  10.677   5.333
 5400POPC   PO469120  29.979  10.168   5.173
 5400POPC   GL169121  29.841  10.319   5.689
 5400POPC   GL269122  29.631  10.606   5.842
 5400POPC   C1A69123  29.719  10.213   6.156
 5400POPC   D2A69124  29.741  10.432   6.576
 5400POPC   C3A69125  30.065  10.283   6.867
 5400POPC   C4A69126  30.123  10.162   7.292
 5400POPC   C1B69127  30.018  10.647   6.137
 5400POPC   C2B69128  30.182  10.707   6.580
 5400POPC   C3B69129  29.937  10.791   6.971
 5400POPC   C4B69130  30.037  10.991   7.367
 5401POPC   NC369131   1.444  11.914   5.513
 5401POPC   PO469132   1.018  12.450   5.338
 5401POPC   GL169133   0.987  12.274   5.807
 5401POPC   GL269134   1.284  12.088   5.957
 5401POPC   C1A69135   0.893  12.063   6.248
 5401POPC   D2A69136   1.255  11.925   6.487
 5401POPC   C3A69137   1.311  12.119   6.847
 5401POPC   C4A69138   1.355  12.053   7.246
 5401POPC   C1B69139   1.517  12.348   6.257
 5401POPC   C2B69140   1.757  12.294   6.619
 5401POPC   C3B69141   1.767  12.281   7.068
 5401POPC   C4B69142   1.713  12.339   7.545
 5402POPC   NC369143  35.809  16.664   5.372
 5402POPC   PO469144  36.466  16.794   5.347
 5402POPC   GL169145  36.196  16.716   5.702
 5402POPC   GL269146  36.035  17.009   5.794
 5402POPC   C1A69147  36.008  16.585   6.112
 5402POPC   D2A69148  36.193  16.634   6.532
 5402POPC   C3A69149  36.126  16.432   6.943
 5402POPC   C4A69150  36.068  16.590   7.357
 5402POPC   C1B69151  35.790  17.051   6.172
 5402POPC   C2B69152  35.752  16.847   6.584
 5402POPC   C3B69153  35.882  16.929   7.023
 5402POPC   C4B69154  35.859  17.041   7.491
 5403POPC   NC369155   5.529  25.972   4.950
 5403POPC   PO469156   5.014  25.948   5.407
 5403POPC   GL169157   5.042  25.913   5.827
 5403POPC   GL269158   4.677  25.915   5.832
 5403POPC   C1A69159   5.225  25.811   6.216
 5403POPC   D2A69160   5.060  25.810   6.607
 5403POPC   C3A69161   5.278  25.978   6.948
 5403POPC   C4A69162   5.372  25.999   7.372
 5403POPC   C1B69163   4.807  26.119   6.222
 5403POPC   C2B69164   4.899  26.380   6.546
 5403POPC   C3B69165   4.819  26.177   6.904
 5403POPC   C4B69166   4.898  26.138   7.290
 5404POPC   NC369167   7.742   7.665   5.468
 5404POPC   PO469168   8.305   7.364   5.202
 5404POPC   GL169169   8.404   7.356   5.702
 5404POPC   GL269170   8.068   7.342   5.797
 5404POPC   C1A69171   8.338   7.539   6.176
 5404POPC   D2A69172   8.385   7.345   6.604
 5404POPC   C3A69173   8.266   7.506   7.006
 5404POPC   C4A69174   7.926   7.646   7.257
 5404POPC   C1B69175   7.993   7.136   6.189
 5404POPC   C2B69176   8.154   6.901   6.525
 5404POPC   C3B69177   8.086   6.967   6.971
 5404POPC   C4B69178   7.878   7.159   7.382
 5405POPC   NC369179  38.340  19.901   5.387
 5405POPC   PO469180  38.458  19.337   5.476
 5405POPC   GL169181  38.512  19.635   5.815
 5405POPC   GL269182  38.646  19.989   5.803
 5405POPC   C1A69183  38.235  19.881   6.100
 5405POPC   D2A69184  38.161  19.984   6.522
 5405POPC   C3A69185  38.337  19.809   6.905
 5405POPC   C4A69186  38.425  19.744   7.354
 5405POPC   C1B69187  38.777  19.845   6.227
 5405POPC   C2B69188  38.790  19.961   6.680
 5405POPC   C3B69189  38.729  20.100   7.137
 5405POPC   C4B69190  38.805  19.976   7.596
 5406POPC   NC369191   8.414   4.338   5.054
 5406POPC   PO469192   8.050   4.030   5.519
 5406POPC   GL169193   8.229   4.088   5.924
 5406POPC   GL269194   8.599   3.992   5.999
 5406POPC   C1A69195   8.129   4.261   6.313
 5406POPC   D2A69196   7.943   4.540   6.610
 5406POPC   C3A69197   7.903   4.290   6.982
 5406POPC   C4A69198   8.131   4.285   7.357
 5406POPC   C1B69199   8.679   3.736   6.367
 5406POPC   C2B69200   8.384   3.932   6.637
 5406POPC   C3B69201   8.468   4.207   6.969
 5406POPC   C4B69202   8.504   3.946   7.310
 5407POPC   NC369203  14.379  39.115   5.346
 5407POPC   PO469204  14.942  39.589   5.387
 5407POPC   GL169205  14.618  39.385   5.718
 5407POPC   GL269206  14.593  38.993   5.819
 5407POPC   C1A69207  14.463  39.362   6.162
 5407POPC   D2A69208  14.203  39.251   6.542
 5407POPC   C3A69209  14.409  39.375   6.941
 5407POPC   C4A69210  14.724  39.168   7.200
 5407POPC   C1B69211  14.391  38.845   6.232
 5407POPC   C2B69212  14.001  38.751   6.507
 5407POPC   C3B69213  13.857  38.982   6.903
 5407POPC   C4B69214  14.173  39.021   7.238
 5408POPC   NC369215  28.755  19.484   5.545
 5408POPC   PO469216  28.003  19.561   5.504
 5408POPC   GL169217  28.091  19.779   5.838
 5408POPC   GL269218  28.406  19.863   5.709
 5408POPC   C1A69219  28.235  19.663   6.262
 5408POPC   D2A69220  28.126  19.900   6.626
 5408POPC   C3A69221  28.394  19.726   6.922
 5408POPC   C4A69222  28.315  19.525   7.268
 5408POPC   C1B69223  28.388  20.109   6.090
 5408POPC   C2B69224  28.584  20.061   6.482
 5408POPC   C3B69225  28.559  20.198   6.895
 5408POPC   C4B69226  28.696  20.019   7.274
 5409POPC   NC369227  31.605   4.698   5.438
 5409POPC   PO469228  31.606   4.075   5.222
 5409POPC   GL169229  31.448   4.222   5.636
 5409POPC   GL269230  31.100   4.122   5.588
 5409POPC   C1A69231  31.523   4.392   6.090
 5409POPC   D2A69232  31.717   4.178   6.488
 5409POPC   C3A69233  31.644   4.292   6.953
 5409POPC   C4A69234  31.731   4.406   7.418
 5409POPC   C1B69235  31.167   4.026   6.041
 5409POPC   C2B69236  31.192   4.221   6.466
 5409POPC   C3B69237  31.093   4.189   6.928
 5409POPC   C4B69238  31.328   4.061   7.277
 5410POPC   NC369239  30.617  31.952   5.585
 5410POPC   PO469240  30.755  31.303   5.377
 5410POPC   GL169241  30.914  31.303   5.804
 5410POPC   GL269242  31.100  31.606   5.787
 5410POPC   C1A69243  30.850  31.271   6.260
 5410POPC   D2A69244  30.944  31.482   6.656
 5410POPC   C3A69245  30.731  31.323   7.017
 5410POPC   C4A69246  30.489  30.989   7.200
 5410POPC   C1B69247  31.062  31.723   6.195
 5410POPC   C2B69248  30.865  31.996   6.522
 5410POPC   C3B69249  30.714  31.895   6.936
 5410POPC   C4B69250  31.032  31.701   7.166
 5411POPC   NC369251   2.769  15.428   5.330
 5411POPC   PO469252   2.871  16.120   5.512
 5411POPC   GL169253   2.686  15.849   5.792
 5411POPC   GL269254   2.963  15.620   5.774
 5411POPC   C1A69255   2.543  15.933   6.222
 5411POPC   D2A69256   2.605  16.245   6.571
 5411POPC   C3A69257   2.442  16.150   6.994
 5411POPC   C4A69258   2.791  16.012   7.236
 5411POPC   C1B69259   2.858  15.501   6.174
 5411POPC   C2B69260   2.777  15.391   6.598
 5411POPC   C3B69261   2.615  15.686   6.868
 5411POPC   C4B69262   2.381  15.652   7.245
 5412POPC   NC369263  37.534  18.627   5.409
 5412POPC   PO469264  37.730  17.921   5.400
 5412POPC   GL169265  37.622  18.248   5.760
 5412POPC   GL269266  37.337  18.527   5.857
 5412POPC   C1A69267  37.759  18.439   6.167
 5412POPC   D2A69268  37.596  18.392   6.589
 5412POPC   C3A69269  37.781  18.026   6.821
 5412POPC   C4A69270  37.816  17.966   7.246
 5412POPC   C1B69271  37.306  18.726   6.241
 5412POPC   C2B69272  37.184  18.904   6.625
 5412POPC   C3B69273  37.245  18.676   6.987
 5412POPC   C4B69274  37.603  18.409   7.104
 5413POPC   NC369275   3.357   6.062   5.388
 5413POPC   PO469276   3.563   5.413   5.427
 5413POPC   GL169277   3.392   5.622   5.797
 5413POPC   GL269278   3.653   5.900   5.821
 5413POPC   C1A69279   3.363   5.805   6.230
 5413POPC   D2A69280   3.562   6.100   6.500
 5413POPC   C3A69281   3.680   5.883   6.886
 5413POPC   C4A69282   3.423   5.661   7.205
 5413POPC   C1B69283   3.800   5.538   6.115
 5413POPC   C2B69284   3.778   5.458   6.586
 5413POPC   C3B69285   4.081   5.532   6.939
 5413POPC   C4B69286   3.996   5.686   7.341
 5414POPC   NC369287  26.449  42.470   5.503
 5414POPC   PO469288  27.028  42.120   5.314
 5414POPC   GL169289  26.978  42.370   5.705
 5414POPC   GL269290  26.678  42.406   5.941
 5414POPC   C1A69291  27.130  42.228   6.097
 5414POPC   D2A69292  27.095  41.999   6.472
 5414POPC   C3A69293  26.938  42.271   6.792
 5414POPC   C4A69294  26.840  42.222   7.229
 5414POPC   C1B69295  26.592  42.416   6.388
 5414POPC   C2B69296  26.656  42.701   6.686
 5414POPC   C3B69297  26.715  42.689   7.059
 5414POPC   C4B69298  26.700  42.776   7.469
 5415POPC   NC369299   8.017  21.356   5.488
 5415POPC   PO469300   8.604  21.714   5.464
 5415POPC   GL169301   8.404  21.491   5.815
 5415POPC   GL269302   8.074  21.606   5.921
 5415POPC   C1A69303   8.432  21.390   6.251
 5415POPC   D2A69304   8.570  21.202   6.635
 5415POPC   C3A69305   8.422  21.344   7.031
 5415POPC   C4A69306   8.548  21.161   7.386
 5415POPC   C1B69307   7.906  21.420   6.286
 5415POPC   C2B69308   8.052  21.268   6.667
 5415POPC   C3B69309   7.913  21.438   7.056
 5415POPC   C4B69310   8.014  21.666   7.424
 5416POPC   NC369311  32.276  23.196   5.508
 5416POPC   PO469312  32.313  23.771   5.399
 5416POPC   GL169313  32.402  23.601   5.836
 5416POPC   GL269314  32.168  23.365   5.966
 5416POPC   C1A69315  32.384  23.639   6.326
 5416POPC   D2A69316  32.185  23.784   6.693
 5416POPC   C3A69317  32.328  23.816   7.136
 5416POPC   C4A69318  32.302  24.091   7.533
 5416POPC   C1B69319  32.554  23.185   6.188
 5416POPC   C2B69320  32.666  23.143   6.650
 5416POPC   C3B69321  32.589  23.173   7.115
 5416POPC   C4B69322  32.495  23.423   7.501
 5417POPC   NC369323  19.153   7.917   5.571
 5417POPC   PO469324  18.697   8.223   5.333
 5417POPC   GL169325  18.874   8.365   5.768
 5417POPC   GL269326  19.240   8.367   5.853
 5417POPC   C1A69327  18.918   8.171   6.220
 5417POPC   D2A69328  19.078   8.009   6.643
 5417POPC   C3A69329  18.981   8.292   6.995
 5417POPC   C4A69330  18.630   8.546   7.125
 5417POPC   C1B69331  19.449   8.130   6.190
 5417POPC   C2B69332  19.532   8.269   6.622
 5417POPC   C3B69333  19.446   8.094   7.028
 5417POPC   C4B69334  19.271   7.862   7.392
 5418POPC   NC369335  34.333  24.995   5.509
 5418POPC   PO469336  34.978  25.005   5.437
 5418POPC   GL169337  34.756  25.091   5.811
 5418POPC   GL269338  34.535  25.379   5.815
 5418POPC   C1A69339  34.551  25.033   6.203
 5418POPC   D2A69340  34.420  25.161   6.611
 5418POPC   C3A69341  34.629  25.104   6.978
 5418POPC   C4A69342  34.460  24.932   7.351
 5418POPC   C1B69343  34.471  25.553   6.251
 5418POPC   C2B69344  34.282  25.645   6.667
 5418POPC   C3B69345  34.430  25.803   7.070
 5418POPC   C4B69346  34.495  25.827   7.552
 5419POPC   NC369347  44.148  15.362   5.475
 5419POPC   PO469348  43.889  14.719   5.314
 5419POPC   GL169349  43.883  14.992   5.684
 5419POPC   GL269350  44.234  15.027   5.865
 5419POPC   C1A69351  43.770  14.933   6.086
 5419POPC   D2A69352  43.717  15.034   6.485
 5419POPC   C3A69353  43.897  14.836   6.830
 5419POPC   C4A69354  43.922  15.153   7.163
 5419POPC   C1B69355  44.117  15.310   6.219
 5419POPC   C2B69356  44.105  15.342   6.678
 5419POPC   C3B69357  44.290  15.509   7.041
 5419POPC   C4B69358  44.135  15.529   7.460
 5420POPC   NC369359   1.628   3.513   5.354
 5420POPC   PO469360   1.008   3.802   5.527
 5420POPC   GL169361   1.091   3.422   5.846
 5420POPC   GL269362   1.379   3.307   5.949
 5420POPC   C1A69363   0.957   3.161   6.202
 5420POPC   D2A69364   0.992   3.464   6.499
 5420POPC   C3A69365   0.964   3.468   6.919
 5420POPC   C4A69366   1.302   3.426   7.193
 5420POPC   C1B69367   1.405   3.656   6.246
 5420POPC   C2B69368   1.330   3.828   6.663
 5420POPC   C3B69369   1.582   3.809   7.025
 5420POPC   C4B69370   1.823   3.451   7.193
 5421POPC   NC369371  22.723  16.080   5.521
 5421POPC   PO469372  23.361  15.701   5.477
 5421POPC   GL169373  23.048  15.821   5.840
 5421POPC   GL269374  22.683  15.730   5.902
 5421POPC   C1A69375  23.007  16.159   6.180
 5421POPC   D2A69376  23.255  16.077   6.585
 5421POPC   C3A69377  23.074  15.948   7.010
 5421POPC   C4A69378  22.683  15.952   7.247
 5421POPC   C1B69379  22.776  15.749   6.337
 5421POPC   C2B69380  22.643  15.744   6.746
 5421POPC   C3B69381  22.767  15.471   7.045
 5421POPC   C4B69382  22.974  15.563   7.416
 5422POPC   NC369383  20.897  15.873   5.405
 5422POPC   PO469384  21.456  16.179   5.130
 5422POPC   GL169385  21.404  16.193   5.672
 5422POPC   GL269386  21.189  15.910   5.825
 5422POPC   C1A69387  21.344  16.223   6.191
 5422POPC   D2A69388  21.103  16.075   6.596
 5422POPC   C3A69389  21.269  16.110   7.015
 5422POPC   C4A69390  21.683  16.292   7.182
 5422POPC   C1B69391  21.272  15.728   6.236
 5422POPC   C2B69392  21.209  15.492   6.561
 5422POPC   C3B69393  21.061  15.611   6.940
 5422POPC   C4B69394  21.271  15.662   7.318
 5423POPC   NC369395  26.117   1.088   5.410
 5423POPC   PO469396  26.193   1.790   5.354
 5423POPC   GL169397  26.141   1.582   5.784
 5423POPC   GL269398  25.972   1.246   5.880
 5423POPC   C1A69399  25.979   1.645   6.220
 5423POPC   D2A69400  26.037   1.313   6.509
 5423POPC   C3A69401  25.940   1.236   6.927
 5423POPC   C4A69402  26.083   1.288   7.343
 5423POPC   C1B69403  26.096   0.900   6.191
 5423POPC   C2B69404  26.207   0.850   6.639
 5423POPC   C3B69405  26.299   0.843   7.075
 5423POPC   C4B69406  26.179   0.718   7.459
 5424POPC   NC369407  38.013   0.207   5.454
 5424POPC   PO469408  37.725   0.843   5.370
 5424POPC   GL169409  37.696   0.542   5.711
 5424POPC   GL269410  38.016   0.579   5.859
 5424POPC   C1A69411  37.500   0.463   6.131
 5424POPC   D2A69412  37.487   0.672   6.556
 5424POPC   C3A69413  37.517   0.429   6.959
 5424POPC   C4A69414  37.581   0.440   7.417
 5424POPC   C1B69415  37.970   0.573   6.318
 5424POPC   C2B69416  37.984   0.582   6.748
 5424POPC   C3B69417  37.994   0.294   7.062
 5424POPC   C4B69418  38.023   0.205   7.497
 5425POPC   NC369419  15.872  13.168   5.448
 5425POPC   PO469420  16.022  13.805   5.415
 5425POPC   GL169421  15.974  13.585   5.781
 5425POPC   GL269422  16.276  13.385   5.747
 5425POPC   C1A69423  15.724  13.580   6.176
 5425POPC   D2A69424  15.803  13.498   6.631
 5425POPC   C3A69425  15.716  13.868   6.887
 5425POPC   C4A69426  15.776  14.029   7.295
 5425POPC   C1B69427  16.361  13.155   6.141
 5425POPC   C2B69428  16.271  13.131   6.587
 5425POPC   C3B69429  16.101  13.259   6.994
 5425POPC   C4B69430  16.140  13.691   7.134
 5426POPC   NC369431  19.969   1.111   5.234
 5426POPC   PO469432  19.407   0.743   5.472
 5426POPC   GL169433  19.769   1.018   5.694
 5426POPC   GL269434  20.121   0.934   5.667
 5426POPC   C1A69435  19.780   1.324   6.055
 5426POPC   D2A69436  19.599   1.347   6.472
 5426POPC   C3A69437  19.870   1.347   6.840
 5426POPC   C4A69438  19.914   1.467   7.262
 5426POPC   C1B69439  20.187   1.024   6.056
 5426POPC   C2B69440  20.046   1.049   6.444
 5426POPC   C3B69441  20.067   0.859   6.831
 5426POPC   C4B69442  20.243   1.082   7.152
 5427POPC   NC369443   4.303  41.873   5.444
 5427POPC   PO469444   3.971  41.289   5.372
 5427POPC   GL169445   4.181  41.464   5.759
 5427POPC   GL269446   4.535  41.479   5.788
 5427POPC   C1A69447   4.265  41.595   6.200
 5427POPC   D2A69448   4.105  41.869   6.526
 5427POPC   C3A69449   4.350  41.747   6.849
 5427POPC   C4A69450   4.363  41.562   7.238
 5427POPC   C1B69451   4.613  41.180   6.140
 5427POPC   C2B69452   4.760  41.230   6.530
 5427POPC   C3B69453   4.641  41.328   6.886
 5427POPC   C4B69454   4.811  41.306   7.257
 5428POPC   NC369455  11.449   9.135   5.439
 5428POPC   PO469456  11.605   8.512   5.334
 5428POPC   GL169457  11.481   8.765   5.763
 5428POPC   GL269458  11.118   8.858   5.884
 5428POPC   C1A69459  11.483   9.069   6.135
 5428POPC   D2A69460  11.177   9.020   6.500
 5428POPC   C3A69461  11.350   9.184   6.914
 5428POPC   C4A69462  11.422   8.945   7.312
 5428POPC   C1B69463  10.942   8.619   6.249
 5428POPC   C2B69464  10.848   8.498   6.690
 5428POPC   C3B69465  11.008   8.774   7.018
 5428POPC   C4B69466  10.883   8.813   7.499
 5429POPC   NC369467   4.486  12.367   5.388
 5429POPC   PO469468   4.241  11.704   5.500
 5429POPC   GL169469   4.397  11.774   5.865
 5429POPC   GL269470   4.262  12.146   5.851
 5429POPC   C1A69471   4.271  11.834   6.260
 5429POPC   D2A69472   4.287  12.156   6.507
 5429POPC   C3A69473   4.359  12.025   6.901
 5429POPC   C4A69474   4.189  11.944   7.289
 5429POPC   C1B69475   4.020  12.421   6.127
 5429POPC   C2B69476   3.878  12.433   6.563
 5429POPC   C3B69477   3.907  12.285   6.981
 5429POPC   C4B69478   3.897  12.339   7.439
 5430POPC   NC369479  40.184  42.122   5.498
 5430POPC   PO469480  40.560  42.591   5.688
 5430POPC   GL169481  40.189  42.414   5.913
 5430POPC   GL269482  39.840  42.199   5.856
 5430POPC   C1A69483  40.211  42.109   6.244
 5430POPC   D2A69484  40.429  42.097   6.679
 5430POPC   C3A69485  40.339  42.441   6.976
 5430POPC   C4A69486  40.338  42.563   7.414
 5430POPC   C1B69487  39.767  41.889   6.197
 5430POPC   C2B69488  39.938  41.938   6.636
 5430POPC   C3B69489  40.023  42.027   7.044
 5430POPC   C4B69490  39.840  42.414   7.161
 5431POPC   NC369491  44.281  41.228   5.598
 5431POPC   PO469492  44.735  41.624   5.211
 5431POPC   GL169493  44.711  41.519   5.632
 5431POPC   GL269494  44.552  41.810   5.813
 5431POPC   C1A69495  44.799  41.439   6.084
 5431POPC   D2A69496  44.739  41.438   6.546
 5431POPC   C3A69497  44.828  41.766   6.868
 5431POPC   C4A69498  44.998  41.671   7.273
 5431POPC   C1B69499  44.344  41.738   6.210
 5431POPC   C2B69500  44.347  41.762   6.658
 5431POPC   C3B69501  44.404  41.537   7.073
 5431POPC   C4B69502  44.215  41.635   7.502
 5432POPC   NC369503   8.164  38.490   5.440
 5432POPC   PO469504   8.532  38.984   5.397
 5432POPC   GL169505   8.375  38.745   5.832
 5432POPC   GL269506   8.158  38.384   5.914
 5432POPC   C1A69507   8.502  38.524   6.237
 5432POPC   D2A69508   8.311  38.249   6.526
 5432POPC   C3A69509   8.261  38.418   6.943
 5432POPC   C4A69510   7.946  38.291   7.218
 5432POPC   C1B69511   7.969  38.651   6.169
 5432POPC   C2B69512   8.023  38.676   6.575
 5432POPC   C3B69513   7.839  38.754   6.971
 5432POPC   C4B69514   7.918  38.768   7.407
 5433POPC   NC369515   2.479   5.257   5.481
 5433POPC   PO469516   1.827   5.370   5.425
 5433POPC   GL169517   1.792   5.103   5.767
 5433POPC   GL269518   2.143   5.042   5.805
 5433POPC   C1A69519   1.831   5.001   6.211
 5433POPC   D2A69520   1.833   5.167   6.616
 5433POPC   C3A69521   1.824   4.853   6.938
 5433POPC   C4A69522   1.792   4.922   7.364
 5433POPC   C1B69523   2.355   5.298   6.146
 5433POPC   C2B69524   2.552   5.344   6.552
 5433POPC   C3B69525   2.348   5.285   6.947
 5433POPC   C4B69526   1.931   5.381   7.083
 5434POPC   NC369527  21.975  30.283   5.398
 5434POPC   PO469528  22.344  29.774   5.187
 5434POPC   GL169529  22.288  29.921   5.645
 5434POPC   GL269530  22.489  29.690   5.841
 5434POPC   C1A69531  22.243  30.058   6.113
 5434POPC   D2A69532  22.020  30.160   6.515
 5434POPC   C3A69533  21.916  30.038   6.936
 5434POPC   C4A69534  22.011  29.763   7.272
 5434POPC   C1B69535  22.272  29.525   6.178
 5434POPC   C2B69536  22.105  29.668   6.517
 5434POPC   C3B69537  22.293  29.683   6.864
 5434POPC   C4B69538  22.299  29.354   7.154
 5435POPC   NC369539  42.339  35.063   5.394
 5435POPC   PO469540  42.174  35.723   5.226
 5435POPC   GL169541  42.439  35.553   5.640
 5435POPC   GL269542  42.392  35.224   5.863
 5435POPC   C1A69543  42.522  35.636   6.114
 5435POPC   D2A69544  42.432  35.427   6.532
 5435POPC   C3A69545  42.424  35.626   6.933
 5435POPC   C4A69546  42.411  35.483   7.367
 5435POPC   C1B69547  42.073  35.243   6.194
 5435POPC   C2B69548  41.911  35.248   6.619
 5435POPC   C3B69549  42.099  35.198   7.035
 5435POPC   C4B69550  42.034  35.083   7.480
 5436POPC   NC369551  27.421  24.533   5.425
 5436POPC   PO469552  27.953  24.839   5.683
 5436POPC   GL169553  27.704  24.611   5.944
 5436POPC   GL269554  27.675  24.262   5.853
 5436POPC   C1A69555  27.861  24.564   6.381
 5436POPC   D2A69556  28.203  24.314   6.554
 5436POPC   C3A69557  28.054  24.150   6.941
 5436POPC   C4A69558  27.675  24.348   7.134
 5436POPC   C1B69559  27.412  24.309   6.243
 5436POPC   C2B69560  27.389  24.336   6.693
 5436POPC   C3B69561  27.191  24.488   7.068
 5436POPC   C4B69562  27.257  24.230   7.447
 5437POPC   NC369563  13.451  20.003   5.379
 5437POPC   PO469564  13.748  19.443   5.499
 5437POPC   GL169565  13.540  19.715   5.812
 5437POPC   GL269566  13.230  19.586   5.995
 5437POPC   C1A69567  13.638  19.817   6.243
 5437POPC   D2A69568  13.427  19.780   6.668
 5437POPC   C3A69569  13.691  19.603   6.987
 5437POPC   C4A69570  13.974  19.913   7.215
 5437POPC   C1B69571  13.142  19.935   6.275
 5437POPC   C2B69572  13.094  20.184   6.646
 5437POPC   C3B69573  13.268  20.085   7.068
 5437POPC   C4B69574  13.293  20.239   7.506
 5438POPC   NC369575   4.502  43.885   5.394
 5438POPC   PO469576   3.903  43.797   5.167
 5438POPC   GL169577   4.079  43.742   5.624
 5438POPC   GL269578   4.330  43.927   5.865
 5438POPC   C1A69579   3.946  43.710   6.087
 5438POPC   D2A69580   4.213  43.832   6.430
 5438POPC   C3A69581   4.178  43.807   6.898
 5438POPC   C4A69582   4.220  43.569   7.314
 5438POPC   C1B69583   4.657  43.968   6.177
 5438POPC   C2B69584   4.642  44.014   6.637
 5438POPC   C3B69585   4.622  44.130   7.050
 5438POPC   C4B69586   4.557  43.938   7.445
 5439POPC   NC369587  15.648   5.479   5.402
 5439POPC   PO469588  15.796   6.176   5.348
 5439POPC   GL169589  16.106   5.930   5.670
 5439POPC   GL269590  16.047   5.577   5.744
 5439POPC   C1A69591  16.312   5.970   6.115
 5439POPC   D2A69592  16.455   5.962   6.564
 5439POPC   C3A69593  16.236   5.851   6.974
 5439POPC   C4A69594  15.895   6.056   7.219
 5439POPC   C1B69595  15.881   5.719   6.117
 5439POPC   C2B69596  15.970   5.763   6.522
 5439POPC   C3B69597  15.753   5.684   6.873
 5439POPC   C4B69598  15.898   5.537   7.248
 5440POPC   NC369599  12.804   7.149   5.366
 5440POPC   PO469600  13.022   6.550   5.341
 5440POPC   GL169601  12.796   6.539   5.736
 5440POPC   GL269602  12.549   6.859   5.768
 5440POPC   C1A69603  13.038   6.486   6.136
 5440POPC   D2A69604  13.201   6.669   6.536
 5440POPC   C3A69605  12.977   6.495   6.876
 5440POPC   C4A69606  12.990   6.479   7.323
 5440POPC   C1B69607  12.627   7.041   6.211
 5440POPC   C2B69608  12.632   6.800   6.613
 5440POPC   C3B69609  12.714   6.889   7.060
 5440POPC   C4B69610  12.623   6.850   7.481
 5441POPC   NC369611  15.090  34.295   5.314
 5441POPC   PO469612  15.042  33.685   5.279
 5441POPC   GL169613  15.155  33.755   5.701
 5441POPC   GL269614  15.352  33.469   5.742
 5441POPC   C1A69615  15.006  33.652   6.130
 5441POPC   D2A69616  15.190  33.724   6.553
 5441POPC   C3A69617  15.042  33.847   6.987
 5441POPC   C4A69618  15.203  33.677   7.385
 5441POPC   C1B69619  15.517  33.644   6.102
 5441POPC   C2B69620  15.702  33.650   6.465
 5441POPC   C3B69621  15.532  33.485   6.857
 5441POPC   C4B69622  15.678  33.507   7.253
 5442POPC   NC369623  35.865  44.116   5.413
 5442POPC   PO469624  36.536  44.244   5.496
 5442POPC   GL169625  36.408  44.009   5.861
 5442POPC   GL269626  36.061  43.925   5.852
 5442POPC   C1A69627  36.317  43.973   6.283
 5442POPC   D2A69628  36.138  43.739   6.601
 5442POPC   C3A69629  36.228  43.930   6.938
 5442POPC   C4A69630  36.238  43.739   7.321
 5442POPC   C1B69631  35.821  43.759   6.196
 5442POPC   C2B69632  35.619  43.712   6.629
 5442POPC   C3B69633  35.822  43.629   7.046
 5442POPC   C4B69634  35.829  43.577   7.539
 5443POPC   NC369635  12.001  39.651   5.297
 5443POPC   PO469636  12.319  40.280   5.416
 5443POPC   GL169637  12.204  39.954   5.697
 5443POPC   GL269638  11.836  39.919   5.719
 5443POPC   C1A69639  12.246  40.098   6.109
 5443POPC   D2A69640  12.084  40.306   6.458
 5443POPC   C3A69641  12.289  40.095   6.773
 5443POPC   C4A69642  12.227  40.012   7.179
 5443POPC   C1B69643  11.856  39.754   6.149
 5443POPC   C2B69644  11.838  39.866   6.608
 5443POPC   C3B69645  11.839  39.701   7.026
 5443POPC   C4B69646  12.081  39.495   7.366
 5444POPC   NC369647  39.702  17.154   5.482
 5444POPC   PO469648  39.243  16.665   5.355
 5444POPC   GL169649  39.125  16.798   5.774
 5444POPC   GL269650  39.388  17.017   5.862
 5444POPC   C1A69651  39.149  16.590   6.219
 5444POPC   D2A69652  39.101  16.387   6.671
 5444POPC   C3A69653  39.265  16.511   7.077
 5444POPC   C4A69654  39.197  16.586   7.507
 5444POPC   C1B69655  39.562  16.893   6.262
 5444POPC   C2B69656  39.534  16.678   6.641
 5444POPC   C3B69657  39.671  16.825   7.051
 5444POPC   C4B69658  39.671  16.727   7.466
 5445POPC   NC369659  14.851  16.633   5.406
 5445POPC   PO469660  14.129  16.612   5.382
 5445POPC   GL169661  14.428  16.536   5.721
 5445POPC   GL269662  14.584  16.859   5.788
 5445POPC   C1A69663  14.449  16.552   6.171
 5445POPC   D2A69664  14.470  16.742   6.581
 5445POPC   C3A69665  14.245  16.595   6.953
 5445POPC   C4A69666  14.456  16.475   7.333
 5445POPC   C1B69667  14.389  17.081   6.142
 5445POPC   C2B69668  14.432  17.243   6.558
 5445POPC   C3B69669  14.346  17.083   6.978
 5445POPC   C4B69670  14.473  16.964   7.444
 5446POPC   NC369671   4.560  29.817   5.494
 5446POPC   PO469672   3.916  30.112   5.468
 5446POPC   GL169673   4.240  30.107   5.788
 5446POPC   GL269674   4.229  29.751   5.896
 5446POPC   C1A69675   4.539  30.066   6.151
 5446POPC   D2A69676   4.391  29.867   6.511
 5446POPC   C3A69677   4.562  29.952   6.886
 5446POPC   C4A69678   4.330  30.111   7.184
 5446POPC   C1B69679   4.561  29.531   6.181
 5446POPC   C2B69680   4.511  29.385   6.662
 5446POPC   C3B69681   4.405  29.517   7.133
 5446POPC   C4B69682   4.542  29.418   7.606
 5447POPC   NC369683  39.556   0.984   5.330
 5447POPC   PO469684  39.348   0.288   5.355
 5447POPC   GL169685  39.327   0.481   5.752
 5447POPC   GL269686  39.607   0.718   5.779
 5447POPC   C1A69687  39.037   0.468   6.127
 5447POPC   D2A69688  39.033   0.233   6.523
 5447POPC   C3A69689  39.062   0.420   6.975
 5447POPC   C4A69690  39.271   0.424   7.412
 5447POPC   C1B69691  39.402   0.844   6.158
 5447POPC   C2B69692  39.226   0.746   6.561
 5447POPC   C3B69693  39.451   0.743   6.956
 5447POPC   C4B69694  39.592   0.832   7.328
 5448POPC   NC369695   6.330   2.264   5.535
 5448POPC   PO469696   6.879   2.037   5.184
 5448POPC   GL169697   6.759   1.883   5.662
 5448POPC   GL269698   6.874   1.516   5.740
 5448POPC   C1A69699   6.606   1.930   6.140
 5448POPC   D2A69700   6.625   2.283   6.482
 5448POPC   C3A69701   6.426   2.274   6.900
 5448POPC   C4A69702   6.592   1.992   7.215
 5448POPC   C1B69703   7.008   1.596   6.176
 5448POPC   C2B69704   7.113   1.692   6.612
 5448POPC   C3B69705   6.957   1.684   7.031
 5448POPC   C4B69706   6.991   1.775   7.494
 5449POPC   NC369707  36.742  17.989   5.279
 5449POPC   PO469708  37.140  18.399   5.413
 5449POPC   GL169709  36.900  18.243   5.727
 5449POPC   GL269710  37.143  18.049   5.800
 5449POPC   C1A69711  36.851  18.332   6.178
 5449POPC   D2A69712  37.076  18.393   6.577
 5449POPC   C3A69713  36.812  18.341   6.925
 5449POPC   C4A69714  36.773  17.939   7.138
 5449POPC   C1B69715  37.327  18.152   6.192
 5449POPC   C2B69716  37.372  17.914   6.544
 5449POPC   C3B69717  37.272  18.039   6.963
 5449POPC   C4B69718  37.145  18.293   7.304
 5450POPC   NC369719  22.109  18.482   5.192
 5450POPC   PO469720  22.127  17.862   5.433
 5450POPC   GL169721  22.092  18.233   5.716
 5450POPC   GL269722  22.437  18.330   5.840
 5450POPC   C1A69723  21.847  18.281   6.129
 5450POPC   D2A69724  21.947  18.141   6.558
 5450POPC   C3A69725  21.841  18.264   6.972
 5450POPC   C4A69726  22.094  18.583   7.251
 5450POPC   C1B69727  22.307  17.971   6.132
 5450POPC   C2B69728  22.321  17.792   6.567
 5450POPC   C3B69729  22.101  17.776   6.983
 5450POPC   C4B69730  22.211  18.104   7.271
 5451POPC   NC369731  19.682   2.093   5.469
 5451POPC   PO469732  20.044   1.514   5.441
 5451POPC   GL169733  19.869   1.760   5.805
 5451POPC   GL269734  19.996   2.090   5.861
 5451POPC   C1A69735  19.816   1.814   6.256
 5451POPC   D2A69736  19.625   1.852   6.653
 5451POPC   C3A69737  19.936   1.877   6.962
 5451POPC   C4A69738  19.828   2.037   7.347
 5451POPC   C1B69739  20.157   2.241   6.225
 5451POPC   C2B69740  20.015   2.240   6.603
 5451POPC   C3B69741  20.035   2.382   6.985
 5451POPC   C4B69742  20.284   2.284   7.302
 5452POPC   NC369743  26.533  19.555   5.477
 5452POPC   PO469744  25.993  19.850   5.236
 5452POPC   GL169745  26.126  19.867   5.665
 5452POPC   GL269746  26.435  20.051   5.693
 5452POPC   C1A69747  26.194  19.816   6.111
 5452POPC   D2A69748  25.978  19.813   6.489
 5452POPC   C3A69749  26.189  19.936   6.863
 5452POPC   C4A69750  26.075  19.702   7.231
 5452POPC   C1B69751  26.241  20.313   6.034
 5452POPC   C2B69752  26.101  20.315   6.455
 5452POPC   C3B69753  26.019  20.436   6.879
 5452POPC   C4B69754  25.893  20.185   7.243
 5453POPC   NC369755  23.835  21.613   5.387
 5453POPC   PO469756  23.390  21.158   5.359
 5453POPC   GL169757  23.572  21.290   5.728
 5453POPC   GL269758  23.485  21.645   5.778
 5453POPC   C1A69759  23.725  21.048   6.097
 5453POPC   D2A69760  23.784  21.201   6.525
 5453POPC   C3A69761  23.584  21.016   6.881
 5453POPC   C4A69762  23.617  21.141   7.286
 5453POPC   C1B69763  23.782  21.546   6.126
 5453POPC   C2B69764  23.893  21.702   6.542
 5453POPC   C3B69765  23.780  21.530   6.941
 5453POPC   C4B69766  23.988  21.469   7.324
 5454POPC   NC369767  14.534  27.995   5.532
 5454POPC   PO469768  14.456  28.588   5.153
 5454POPC   GL169769  14.460  28.502   5.604
 5454POPC   GL269770  14.150  28.438   5.751
 5454POPC   C1A69771  14.573  28.420   6.051
 5454POPC   D2A69772  14.622  28.251   6.463
 5454POPC   C3A69773  14.558  28.488   6.790
 5454POPC   C4A69774  14.342  28.386   7.134
 5454POPC   C1B69775  14.023  28.356   6.187
 5454POPC   C2B69776  14.091  28.380   6.635
 5454POPC   C3B69777  13.957  28.098   6.978
 5454POPC   C4B69778  13.953  28.017   7.425
 5455POPC   NC369779   8.576  29.312   5.358
 5455POPC   PO469780   9.226  29.063   5.108
 5455POPC   GL169781   9.116  29.047   5.592
 5455POPC   GL269782   8.877  29.283   5.779
 5455POPC   C1A69783   9.036  28.884   6.061
 5455POPC   D2A69784   8.923  28.944   6.531
 5455POPC   C3A69785   9.277  28.986   6.829
 5455POPC   C4A69786   9.344  29.178   7.254
 5455POPC   C1B69787   8.769  29.544   6.144
 5455POPC   C2B69788   8.692  29.419   6.581
 5455POPC   C3B69789   8.950  29.371   6.930
 5455POPC   C4B69790   8.880  29.009   7.173
 5456POPC   NC369791  17.820  41.968   5.729
 5456POPC   PO469792  17.467  42.485   5.447
 5456POPC   GL169793  17.489  42.354   5.849
 5456POPC   GL269794  17.340  42.036   5.746
 5456POPC   C1A69795  17.603  42.265   6.272
 5456POPC   D2A69796  17.448  42.139   6.652
 5456POPC   C3A69797  17.687  42.244   7.001
 5456POPC   C4A69798  17.757  42.694   7.133
 5456POPC   C1B69799  17.113  42.042   6.111
 5456POPC   C2B69800  17.019  41.906   6.496
 5456POPC   C3B69801  16.991  42.083   6.896
 5456POPC   C4B69802  17.232  42.132   7.244
 5457POPC   NC369803  44.790  24.889   5.453
 5457POPC   PO469804  44.445  24.295   5.459
 5457POPC   GL169805  44.695  24.271   5.833
 5457POPC   GL269806  44.826  24.606   5.889
 5457POPC   C1A69807  44.679  24.170   6.263
 5457POPC   D2A69808  44.536  24.390   6.607
 5457POPC   C3A69809  44.748  24.706   6.797
 5457POPC   C4A69810  44.726  24.612   7.204
 5457POPC   C1B69811  44.563  24.775   6.245
 5457POPC   C2B69812  44.266  24.841   6.612
 5457POPC   C3B69813  44.328  24.979   7.046
 5457POPC   C4B69814  44.285  24.761   7.449
 5458POPC   NC369815  35.828  39.378   5.618
 5458POPC   PO469816  36.417  39.151   5.221
 5458POPC   GL169817  36.221  38.998   5.745
 5458POPC   GL269818  36.090  39.293   6.029
 5458POPC   C1A69819  36.311  38.908   6.228
 5458POPC   D2A69820  36.006  39.142   6.522
 5458POPC   C3A69821  36.166  39.297   6.881
 5458POPC   C4A69822  36.125  39.080   7.251
 5458POPC   C1B69823  35.941  39.640   6.371
 5458POPC   C2B69824  35.880  39.750   6.848
 5458POPC   C3B69825  35.977  39.566   7.281
 5458POPC   C4B69826  35.940  39.660   7.728
 5459POPC   NC369827  35.986  30.298   5.293
 5459POPC   PO469828  36.194  29.632   5.391
 5459POPC   GL169829  36.218  29.891   5.749
 5459POPC   GL269830  36.502  29.667   5.830
 5459POPC   C1A69831  35.968  30.005   6.151
 5459POPC   D2A69832  35.937  30.270   6.567
 5459POPC   C3A69833  36.007  30.066   6.966
 5459POPC   C4A69834  35.995  29.620   7.056
 5459POPC   C1B69835  36.471  29.947   6.188
 5459POPC   C2B69836  36.265  29.856   6.567
 5459POPC   C3B69837  36.471  29.860   6.970
 5459POPC   C4B69838  36.582  30.055   7.351
 5460POPC   NC369839  41.748   2.196   4.981
 5460POPC   PO469840  41.599   2.783   5.310
 5460POPC   GL169841  41.583   2.839   5.734
 5460POPC   GL269842  41.401   2.587   5.830
 5460POPC   C1A69843  41.775   2.751   6.154
 5460POPC   D2A69844  42.030   2.927   6.509
 5460POPC   C3A69845  41.811   2.795   6.919
 5460POPC   C4A69846  41.553   2.975   7.266
 5460POPC   C1B69847  41.241   2.649   6.184
 5460POPC   C2B69848  41.330   2.830   6.530
 5460POPC   C3B69849  41.305   2.700   6.913
 5460POPC   C4B69850  41.079   2.781   7.251
 5461POPC   NC369851  13.581  21.596   5.325
 5461POPC   PO469852  13.660  20.916   5.338
 5461POPC   GL169853  13.580  21.284   5.729
 5461POPC   GL269854  13.383  21.609   5.793
 5461POPC   C1A69855  13.766  21.567   6.125
 5461POPC   D2A69856  13.703  21.356   6.545
 5461POPC   C3A69857  13.751  21.423   6.980
 5461POPC   C4A69858  14.083  21.441   7.255
 5461POPC   C1B69859  13.282  21.468   6.225
 5461POPC   C2B69860  13.219  21.216   6.603
 5461POPC   C3B69861  13.398  21.044   6.988
 5461POPC   C4B69862  13.285  21.440   7.180
 5462POPC   NC369863  43.456  32.461   5.551
 5462POPC   PO469864  42.865  32.222   5.584
 5462POPC   GL169865  43.034  32.207   5.924
 5462POPC   GL269866  43.357  32.055   5.846
 5462POPC   C1A69867  42.939  32.070   6.324
 5462POPC   D2A69868  42.780  32.251   6.691
 5462POPC   C3A69869  42.870  31.968   7.010
 5462POPC   C4A69870  43.033  32.097   7.378
 5462POPC   C1B69871  43.417  32.208   6.234
 5462POPC   C2B69872  43.452  32.252   6.610
 5462POPC   C3B69873  43.372  32.161   6.997
 5462POPC   C4B69874  43.534  32.102   7.385
 5463POPC   NC369875   1.349  19.668   5.345
 5463POPC   PO469876   0.953  20.155   5.183
 5463POPC   GL169877   1.231  20.046   5.647
 5463POPC   GL269878   1.473  19.901   5.817
 5463POPC   C1A69879   1.075  19.991   6.135
 5463POPC   D2A69880   0.796  20.096   6.504
 5463POPC   C3A69881   1.013  20.047   6.906
 5463POPC   C4A69882   1.015  20.003   7.367
 5463POPC   C1B69883   1.526  19.696   6.222
 5463POPC   C2B69884   1.466  19.790   6.662
 5463POPC   C3B69885   1.651  19.691   7.050
 5463POPC   C4B69886   1.521  19.432   7.390
 5464POPC   NC369887  24.125  22.239   5.397
 5464POPC   PO469888  23.478  21.945   5.368
 5464POPC   GL169889  23.698  22.166   5.685
 5464POPC   GL269890  23.917  21.945   5.807
 5464POPC   C1A69891  23.850  22.422   6.073
 5464POPC   D2A69892  23.800  22.514   6.538
 5464POPC   C3A69893  23.890  22.153   6.842
 5464POPC   C4A69894  23.859  21.947   7.253
 5464POPC   C1B69895  23.575  21.996   6.160
 5464POPC   C2B69896  23.404  21.813   6.561
 5464POPC   C3B69897  23.419  21.917   6.998
 5464POPC   C4B69898  23.278  21.999   7.415
 5465POPC   NC369899  11.591   3.238   5.479
 5465POPC   PO469900  11.078   3.544   5.381
 5465POPC   GL169901  11.342   3.605   5.778
 5465POPC   GL269902  11.499   3.920   5.851
 5465POPC   C1A69903  11.280   3.517   6.234
 5465POPC   D2A69904  11.011   3.499   6.635
 5465POPC   C3A69905  11.257   3.474   7.017
 5465POPC   C4A69906  11.582   3.378   7.316
 5465POPC   C1B69907  11.184   4.014   6.164
 5465POPC   C2B69908  11.285   3.913   6.569
 5465POPC   C3B69909  11.221   3.978   6.975
 5465POPC   C4B69910  11.292   3.863   7.391
 5466POPC   NC369911  27.994  20.017   5.355
 5466POPC   PO469912  28.553  20.318   5.188
 5466POPC   GL169913  28.495  20.394   5.671
 5466POPC   GL269914  28.255  20.698   5.745
 5466POPC   C1A69915  28.638  20.540   6.096
 5466POPC   D2A69916  28.375  20.512   6.475
 5466POPC   C3A69917  28.574  20.705   6.834
 5466POPC   C4A69918  28.750  20.556   7.203
 5466POPC   C1B69919  27.990  20.834   6.137
 5466POPC   C2B69920  27.852  20.639   6.521
 5466POPC   C3B69921  28.072  20.431   6.872
 5466POPC   C4B69922  28.248  20.621   7.249
 5467POPC   NC369923  39.758   6.336   5.388
 5467POPC   PO469924  39.733   5.567   5.371
 5467POPC   GL169925  39.723   5.820   5.745
 5467POPC   GL269926  40.064   5.988   5.773
 5467POPC   C1A69927  39.712   5.989   6.167
 5467POPC   D2A69928  39.792   5.753   6.546
 5467POPC   C3A69929  39.879   5.972   6.902
 5467POPC   C4A69930  39.620   6.058   7.264
 5467POPC   C1B69931  40.193   5.750   6.175
 5467POPC   C2B69932  40.301   5.575   6.598
 5467POPC   C3B69933  40.338   5.779   7.022
 5467POPC   C4B69934  40.370   6.208   7.170
 5468POPC   NC369935  14.664  37.960   5.194
 5468POPC   PO469936  14.497  38.648   5.373
 5468POPC   GL169937  14.503  38.442   5.772
 5468POPC   GL269938  14.234  38.183   5.807
 5468POPC   C1A69939  14.773  38.501   6.136
 5468POPC   D2A69940  14.809  38.727   6.536
 5468POPC   C3A69941  14.440  38.782   6.811
 5468POPC   C4A69942  14.517  38.657   7.230
 5468POPC   C1B69943  14.292  38.341   6.235
 5468POPC   C2B69944  14.558  38.263   6.589
 5468POPC   C3B69945  14.353  38.259   6.965
 5468POPC   C4B69946  14.019  38.543   7.132
 5469POPC   NC369947  43.820   9.706   5.294
 5469POPC   PO469948  43.786  10.368   5.189
 5469POPC   GL169949  43.767  10.092   5.616
 5469POPC   GL269950  44.076   9.892   5.681
 5469POPC   C1A69951  43.710   9.726   6.012
 5469POPC   D2A69952  43.916   9.568   6.457
 5469POPC   C3A69953  43.716   9.559   6.872
 5469POPC   C4A69954  43.592   9.901   7.197
 5469POPC   C1B69955  44.222   9.760   6.092
 5469POPC   C2B69956  44.363   9.831   6.516
 5469POPC   C3B69957  44.342   9.617   6.887
 5469POPC   C4B69958  44.125   9.299   7.113
 5470POPC   NC369959   6.121  44.862   5.471
 5470POPC   PO469960   5.504  44.601   5.529
 5470POPC   GL169961   5.709  44.479   5.909
 5470POPC   GL269962   6.070  44.491   5.853
 5470POPC   C1A69963   5.681  44.598   6.341
 5470POPC   D2A69964   5.788  44.765   6.742
 5470POPC   C3A69965   5.637  44.540   7.062
 5470POPC   C4A69966   5.633  44.773   7.415
 5470POPC   C1B69967   6.180  44.740   6.217
 5470POPC   C2B69968   6.269  44.595   6.663
 5470POPC   C3B69969   6.149  44.587   7.107
 5470POPC   C4B69970   6.226  44.699   7.550
 5471POPC   NC369971  32.370   2.453   5.380
 5471POPC   PO469972  31.974   1.888   5.412
 5471POPC   GL169973  31.993   2.104   5.800
 5471POPC   GL269974  32.260   2.349   5.866
 5471POPC   C1A69975  32.134   1.980   6.230
 5471POPC   D2A69976  32.363   2.069   6.601
 5471POPC   C3A69977  32.449   1.824   6.979
 5471POPC   C4A69978  32.219   1.615   7.348
 5471POPC   C1B69979  32.349   2.483   6.270
 5471POPC   C2B69980  32.483   2.553   6.688
 5471POPC   C3B69981  32.386   2.338   7.068
 5471POPC   C4B69982  32.420   2.068   7.430
 5472POPC   NC369983   1.808   6.629   5.461
 5472POPC   PO469984   2.296   7.049   5.248
 5472POPC   GL169985   2.095   6.951   5.719
 5472POPC   GL269986   2.103   6.577   5.871
 5472POPC   C1A69987   1.766   6.859   6.101
 5472POPC   D2A69988   1.668   6.611   6.503
 5472POPC   C3A69989   1.760   6.750   6.917
 5472POPC   C4A69990   2.117   6.721   7.193
 5472POPC   C1B69991   1.952   6.290   6.194
 5472POPC   C2B69992   1.943   6.101   6.592
 5472POPC   C3B69993   2.083   6.280   6.956
 5472POPC   C4B69994   1.926   6.293   7.388
 5473POPC   NC369995  40.438  35.515   5.446
 5473POPC   PO469996  41.035  35.285   5.135
 5473POPC   GL169997  40.990  35.418   5.641
 5473POPC   GL269998  40.718  35.601   5.847
 5473POPC   C1A69999  41.029  35.355   6.147
 5473POPC   D2A70000  41.072  35.037   6.512
 5473POPC   C3A70001  41.001  35.246   6.910
 5473POPC   C4A70002  40.789  35.193   7.309
 5473POPC   C1B70003  40.629  35.770   6.246
 5473POPC   C2B70004  40.576  35.547   6.632
 5473POPC   C3B70005  40.662  35.635   7.038
 5473POPC   C4B70006  40.615  35.962   7.300
 5474POPC   NC370007   6.108   3.822   5.259
 5474POPC   PO470008   5.721   3.208   5.266
 5474POPC   GL170009   5.993   3.432   5.586
 5474POPC   GL270010   5.753   3.443   5.831
 5474POPC   C1A70011   6.232   3.520   5.989
 5474POPC   D2A70012   6.337   3.497   6.444
 5474POPC   C3A70013   6.195   3.521   6.893
 5474POPC   C4A70014   6.247   3.717   7.319
 5474POPC   C1B70015   5.791   3.631   6.193
 5474POPC   C2B70016   5.840   3.398   6.519
 5474POPC   C3B70017   5.700   3.605   6.812
 5474POPC   C4B70018   5.771   3.603   7.204
 5475POPC   NC370019  41.447  26.382   5.283
 5475POPC   PO470020  41.779  25.784   5.458
 5475POPC   GL170021  41.586  25.913   5.841
 5475POPC   GL270022  41.425  26.242   5.780
 5475POPC   C1A70023  41.564  25.894   6.292
 5475POPC   D2A70024  41.602  25.694   6.667
 5475POPC   C3A70025  41.471  25.917   7.007
 5475POPC   C4A70026  41.595  25.853   7.451
 5475POPC   C1B70027  41.634  26.381   6.156
 5475POPC   C2B70028  41.502  26.318   6.593
 5475POPC   C3B70029  41.659  26.431   6.985
 5475POPC   C4B70030  41.624  26.408   7.420
 5476POPC   NC370031  32.728  20.985   5.609
 5476POPC   PO470032  32.934  20.504   5.216
 5476POPC   GL170033  33.025  20.498   5.687
 5476POPC   GL270034  32.713  20.502   5.804
 5476POPC   C1A70035  33.129  20.682   6.129
 5476POPC   D2A70036  33.055  20.931   6.529
 5476POPC   C3A70037  33.113  20.736   6.938
 5476POPC   C4A70038  33.359  20.690   7.277
 5476POPC   C1B70039  32.730  20.293   6.193
 5476POPC   C2B70040  32.965  20.403   6.570
 5476POPC   C3B70041  32.866  20.238   6.989
 5476POPC   C4B70042  32.814  20.435   7.389
 5477POPC   NC370043   3.433   9.176   5.236
 5477POPC   PO470044   3.523   9.867   5.389
 5477POPC   GL170045   3.580   9.530   5.716
 5477POPC   GL270046   3.343   9.741   5.879
 5477POPC   C1A70047   3.637   9.473   6.201
 5477POPC   D2A70048   3.543   9.527   6.683
 5477POPC   C3A70049   3.849   9.767   7.002
 5477POPC   C4A70050   3.768   9.774   7.479
 5477POPC   C1B70051   3.515   9.992   6.178
 5477POPC   C2B70052   3.667  10.024   6.577
 5477POPC   C3B70053   3.406   9.985   6.917
 5477POPC   C4B70054   3.297   9.971   7.325
 5478POPC   NC370055  35.051  30.158   5.619
 5478POPC   PO470056  34.457  30.143   5.270
 5478POPC   GL170057  34.457  30.071   5.735
 5478POPC   GL270058  34.575  29.741   5.848
 5478POPC   C1A70059  34.517  30.110   6.202
 5478POPC   D2A70060  34.573  29.913   6.610
 5478POPC   C3A70061  34.759  30.108   6.972
 5478POPC   C4A70062  34.580  30.134   7.346
 5478POPC   C1B70063  34.703  29.507   6.262
 5478POPC   C2B70064  34.632  29.414   6.717
 5478POPC   C3B70065  34.569  29.649   7.125
 5478POPC   C4B70066  34.766  29.738   7.568
 5479POPC   NC370067  29.830  36.072   4.891
 5479POPC   PO470068  30.059  36.325   5.479
 5479POPC   GL170069  29.825  36.323   5.889
 5479POPC   GL270070  29.502  36.137   5.955
 5479POPC   C1A70071  29.831  36.227   6.368
 5479POPC   D2A70072  30.025  36.217   6.777
 5479POPC   C3A70073  29.914  36.470   7.104
 5479POPC   C4A70074  29.802  36.262   7.446
 5479POPC   C1B70075  29.416  35.929   6.388
 5479POPC   C2B70076  29.721  35.797   6.714
 5479POPC   C3B70077  29.799  35.835   7.174
 5479POPC   C4B70078  29.449  35.885   7.506
 5480POPC   NC370079  20.148  20.716   5.384
 5480POPC   PO470080  20.817  20.835   5.329
 5480POPC   GL170081  20.650  20.675   5.767
 5480POPC   GL270082  20.319  20.717   5.855
 5480POPC   C1A70083  20.561  20.507   6.238
 5480POPC   D2A70084  20.736  20.271   6.613
 5480POPC   C3A70085  20.568  20.359   7.037
 5480POPC   C4A70086  20.618  20.567   7.458
 5480POPC   C1B70087  20.201  20.968   6.203
 5480POPC   C2B70088  20.371  20.964   6.613
 5480POPC   C3B70089  20.314  20.805   7.038
 5480POPC   C4B70090  20.107  20.624   7.426
 5481POPC   NC370091   6.272  40.927   5.619
 5481POPC   PO470092   6.831  40.640   5.288
 5481POPC   GL170093   6.654  40.577   5.739
 5481POPC   GL270094   6.701  40.930   5.911
 5481POPC   C1A70095   6.517  40.564   6.205
 5481POPC   D2A70096   6.483  40.801   6.614
 5481POPC   C3A70097   6.421  40.564   6.939
 5481POPC   C4A70098   6.748  40.416   7.204
 5481POPC   C1B70099   6.355  41.095   6.226
 5481POPC   C2B70100   6.079  41.138   6.603
 5481POPC   C3B70101   6.212  41.078   7.030
 5481POPC   C4B70102   6.654  41.012   7.119
 5482POPC   NC370103   6.709  33.490   5.500
 5482POPC   PO470104   6.741  34.221   5.335
 5482POPC   GL170105   6.624  33.980   5.701
 5482POPC   GL270106   6.937  33.893   5.774
 5482POPC   C1A70107   6.569  33.732   6.118
 5482POPC   D2A70108   6.490  33.981   6.523
 5482POPC   C3A70109   6.460  33.828   6.970
 5482POPC   C4A70110   6.676  33.550   7.230
 5482POPC   C1B70111   6.919  34.080   6.207
 5482POPC   C2B70112   7.046  33.897   6.614
 5482POPC   C3B70113   6.970  33.938   7.049
 5482POPC   C4B70114   6.887  33.974   7.479
 5483POPC   NC370115  39.116  38.401   5.534
 5483POPC   PO470116  39.783  38.222   5.317
 5483POPC   GL170117  39.596  38.389   5.718
 5483POPC   GL270118  39.406  38.102   5.835
 5483POPC   C1A70119  39.415  38.507   6.136
 5483POPC   D2A70120  39.558  38.533   6.555
 5483POPC   C3A70121  39.329  38.567   6.947
 5483POPC   C4A70122  39.492  38.849   7.246
 5483POPC   C1B70123  39.191  38.008   6.241
 5483POPC   C2B70124  39.166  38.163   6.662
 5483POPC   C3B70125  39.111  38.112   7.124
 5483POPC   C4B70126  38.936  38.341   7.495
 5484POPC   NC370127  32.316  34.105   5.609
 5484POPC   PO470128  32.570  33.761   5.080
 5484POPC   GL170129  32.397  33.547   5.630
 5484POPC   GL270130  32.149  33.670   5.847
 5484POPC   C1A70131  32.563  33.558   6.121
 5484POPC   D2A70132  32.664  33.676   6.587
 5484POPC   C3A70133  32.443  33.601   7.018
 5484POPC   C4A70134  32.253  33.974   7.251
 5484POPC   C1B70135  32.108  33.713   6.298
 5484POPC   C2B70136  32.122  33.842   6.732
 5484POPC   C3B70137  31.826  33.759   7.080
 5484POPC   C4B70138  31.811  33.918   7.534
 5485POPC   NC370139   1.525  17.796   5.585
 5485POPC   PO470140   0.898  17.508   5.512
 5485POPC   GL170141   1.104  17.529   5.878
 5485POPC   GL270142   1.434  17.376   5.926
 5485POPC   C1A70143   1.086  17.367   6.291
 5485POPC   D2A70144   1.384  17.327   6.621
 5485POPC   C3A70145   1.152  17.359   6.984
 5485POPC   C4A70146   1.129  17.742   7.225
 5485POPC   C1B70147   1.507  17.694   6.253
 5485POPC   C2B70148   1.593  17.856   6.672
 5485POPC   C3B70149   1.603  17.614   7.035
 5485POPC   C4B70150   1.463  17.399   7.400
 5486POPC   NC370151   3.811   2.109   5.361
 5486POPC   PO470152   4.425   2.121   5.189
 5486POPC   GL170153   4.256   2.036   5.631
 5486POPC   GL270154   4.105   1.697   5.711
 5486POPC   C1A70155   4.224   2.225   6.067
 5486POPC   D2A70156   4.339   2.447   6.475
 5486POPC   C3A70157   4.155   2.256   6.846
 5486POPC   C4A70158   4.313   2.181   7.285
 5486POPC   C1B70159   4.250   1.610   6.128
 5486POPC   C2B70160   4.351   1.906   6.474
 5486POPC   C3B70161   4.515   1.886   6.880
 5486POPC   C4B70162   4.679   1.805   7.250
 5487POPC   NC370163  26.507  21.913   5.418
 5487POPC   PO470164  27.124  22.225   5.464
 5487POPC   GL170165  26.796  22.170   5.792
 5487POPC   GL270166  26.818  21.871   5.821
 5487POPC   C1A70167  26.568  22.121   6.216
 5487POPC   D2A70168  26.297  22.244   6.563
 5487POPC   C3A70169  26.507  22.216   6.955
 5487POPC   C4A70170  26.485  22.413   7.362
 5487POPC   C1B70171  27.056  21.971   6.181
 5487POPC   C2B70172  26.936  22.063   6.601
 5487POPC   C3B70173  27.136  22.097   6.997
 5487POPC   C4B70174  26.860  22.086   7.338
 5488POPC   NC370175  35.687  32.466   5.437
 5488POPC   PO470176  35.286  31.941   5.170
 5488POPC   GL170177  35.325  32.152   5.592
 5488POPC   GL270178  35.015  32.300   5.712
 5488POPC   C1A70179  35.552  32.205   6.043
 5488POPC   D2A70180  35.394  32.312   6.511
 5488POPC   C3A70181  35.543  32.139   6.918
 5488POPC   C4A70182  35.378  31.983   7.321
 5488POPC   C1B70183  35.091  32.414   6.122
 5488POPC   C2B70184  35.097  32.750   6.444
 5488POPC   C3B70185  35.003  32.772   6.873
 5488POPC   C4B70186  35.129  32.406   7.101
 5489POPC   NC370187   6.030   2.857   5.242
 5489POPC   PO470188   5.905   2.202   5.342
 5489POPC   GL170189   5.909   2.553   5.687
 5489POPC   GL270190   5.880   2.941   5.731
 5489POPC   C1A70191   5.926   2.607   6.144
 5489POPC   D2A70192   6.181   2.571   6.537
 5489POPC   C3A70193   6.004   2.673   6.967
 5489POPC   C4A70194   5.735   2.793   7.363
 5489POPC   C1B70195   5.694   3.062   6.152
 5489POPC   C2B70196   5.732   2.873   6.568
 5489POPC   C3B70197   5.744   3.119   6.968
 5489POPC   C4B70198   6.073   3.197   7.277
 5490POPC   NC370199  31.122  38.559   5.425
 5490POPC   PO470200  30.675  38.104   5.130
 5490POPC   GL170201  30.739  38.305   5.665
 5490POPC   GL270202  31.008  38.421   5.882
 5490POPC   C1A70203  30.581  38.429   6.119
 5490POPC   D2A70204  30.730  38.406   6.545
 5490POPC   C3A70205  30.426  38.401   6.874
 5490POPC   C4A70206  30.641  38.503   7.223
 5490POPC   C1B70207  31.048  38.694   6.230
 5490POPC   C2B70208  31.225  38.763   6.634
 5490POPC   C3B70209  30.930  38.808   6.964
 5490POPC   C4B70210  30.754  39.021   7.316
 5491POPC   NC370211  28.694  20.732   5.362
 5491POPC   PO470212  29.305  20.407   5.279
 5491POPC   GL170213  29.099  20.506   5.658
 5491POPC   GL270214  29.341  20.296   5.835
 5491POPC   C1A70215  29.140  20.722   6.078
 5491POPC   D2A70216  28.913  20.830   6.450
 5491POPC   C3A70217  29.093  20.702   6.835
 5491POPC   C4A70218  29.216  20.739   7.240
 5491POPC   C1B70219  29.136  20.223   6.226
 5491POPC   C2B70220  29.019  20.245   6.652
 5491POPC   C3B70221  29.172  20.234   7.073
 5491POPC   C4B70222  29.049  20.297   7.515
 5492POPC   NC370223   5.968  28.851   5.570
 5492POPC   PO470224   5.946  28.265   5.317
 5492POPC   GL170225   5.738  28.362   5.703
 5492POPC   GL270226   6.038  28.334   5.881
 5492POPC   C1A70227   5.580  28.506   6.135
 5492POPC   D2A70228   5.286  28.610   6.503
 5492POPC   C3A70229   5.489  28.680   6.922
 5492POPC   C4A70230   5.906  28.580   7.093
 5492POPC   C1B70231   5.912  28.056   6.216
 5492POPC   C2B70232   5.914  28.060   6.654
 5492POPC   C3B70233   5.956  27.911   7.049
 5492POPC   C4B70234   6.066  28.184   7.387
 5493POPC   NC370235  44.718  15.899   5.363
 5493POPC   PO470236  44.100  15.828   5.439
 5493POPC   GL170237  44.315  15.906   5.841
 5493POPC   GL270238  44.408  15.579   5.879
 5493POPC   C1A70239  44.448  15.865   6.320
 5493POPC   D2A70240  44.591  15.921   6.781
 5493POPC   C3A70241  44.895  16.174   7.005
 5493POPC   C4A70242  44.711  16.181   7.434
 5493POPC   C1B70243  44.830  15.729   6.030
 5493POPC   C2B70244   0.004  15.857   6.447
 5493POPC   C3B70245   0.033  15.677   6.862
 5493POPC   C4B70246  44.735  15.704   7.223
 5494POPC   NC370247   8.231  31.666   5.431
 5494POPC   PO470248   8.627  31.100   5.281
 5494POPC   GL170249   8.370  31.232   5.688
 5494POPC   GL270250   7.994  31.150   5.745
 5494POPC   C1A70251   8.202  31.501   6.090
 5494POPC   D2A70252   8.237  31.725   6.519
 5494POPC   C3A70253   8.169  31.569   6.950
 5494POPC   C4A70254   8.484  31.526   7.277
 5494POPC   C1B70255   7.823  31.147   6.169
 5494POPC   C2B70256   7.963  31.249   6.592
 5494POPC   C3B70257   7.943  31.098   7.031
 5494POPC   C4B70258   8.041  31.257   7.428
 5495POPC   NC370259   1.457   7.655   5.566
 5495POPC   PO470260   1.331   7.214   5.047
 5495POPC   GL170261   1.158   7.264   5.587
 5495POPC   GL270262   1.014   7.557   5.807
 5495POPC   C1A70263   1.285   7.145   6.066
 5495POPC   D2A70264   1.464   7.351   6.466
 5495POPC   C3A70265   1.451   7.202   6.908
 5495POPC   C4A70266   1.437   7.376   7.331
 5495POPC   C1B70267   0.919   7.430   6.250
 5495POPC   C2B70268   0.975   7.298   6.706
 5495POPC   C3B70269   1.022   7.548   7.097
 5495POPC   C4B70270   1.043   7.619   7.564
 5496POPC   NC370271  27.069  13.752   5.506
 5496POPC   PO470272  26.598  13.317   5.554
 5496POPC   GL170273  26.640  13.728   5.824
 5496POPC   GL270274  26.951  13.967   5.944
 5496POPC   C1A70275  26.607  13.768   6.272
 5496POPC   D2A70276  26.738  13.708   6.721
 5496POPC   C3A70277  26.626  13.484   7.103
 5496POPC   C4A70278  26.682  13.503   7.556
 5496POPC   C1B70279  27.101  13.899   6.371
 5496POPC   C2B70280  27.128  13.997   6.820
 5496POPC   C3B70281  27.059  13.756   7.192
 5496POPC   C4B70282  27.022  13.893   7.607
 5497POPC   NC370283  28.012  40.166   5.642
 5497POPC   PO470284  28.608  40.029   5.384
 5497POPC   GL170285  28.516  40.227   5.796
 5497POPC   GL270286  28.802  40.331   5.977
 5497POPC   C1A70287  28.344  40.257   6.240
 5497POPC   D2A70288  28.251  40.069   6.656
 5497POPC   C3A70289  28.340  40.276   7.053
 5497POPC   C4A70290  28.378  39.991   7.421
 5497POPC   C1B70291  28.744  39.905   6.198
 5497POPC   C2B70292  28.675  39.654   6.592
 5497POPC   C3B70293  28.695  39.847   7.010
 5497POPC   C4B70294  28.843  40.238   7.164
 5498POPC   NC370295  11.339  43.377   5.414
 5498POPC   PO470296  11.539  42.751   5.433
 5498POPC   GL170297  11.390  42.859   5.861
 5498POPC   GL270298  11.335  43.244   5.907
 5498POPC   C1A70299  11.337  42.921   6.324
 5498POPC   D2A70300  11.637  43.113   6.635
 5498POPC   C3A70301  11.718  42.923   7.032
 5498POPC   C4A70302  11.627  42.829   7.440
 5498POPC   C1B70303  11.385  43.412   6.321
 5498POPC   C2B70304  11.165  43.273   6.671
 5498POPC   C3B70305  11.223  43.144   7.144
 5498POPC   C4B70306  10.841  43.075   7.425
 5499POPC   NC370307  23.627  23.933   5.335
 5499POPC   PO470308  24.033  23.416   5.408
 5499POPC   GL170309  23.737  23.583   5.751
 5499POPC   GL270310  23.787  23.925   5.847
 5499POPC   C1A70311  23.689  23.485   6.229
 5499POPC   D2A70312  23.762  23.530   6.688
 5499POPC   C3A70313  23.465  23.383   7.052
 5499POPC   C4A70314  23.580  23.359   7.525
 5499POPC   C1B70315  23.424  23.906   6.136
 5499POPC   C2B70316  23.343  23.774   6.554
 5499POPC   C3B70317  23.507  23.882   6.985
 5499POPC   C4B70318  23.643  23.842   7.422
 5500POPC   NC370319  35.693  43.416   5.412
 5500POPC   PO470320  35.176  43.021   5.500
 5500POPC   GL170321  35.338  43.291   5.779
 5500POPC   GL270322  35.609  43.068   5.849
 5500POPC   C1A70323  35.276  43.305   6.204
 5500POPC   D2A70324  35.396  43.036   6.541
 5500POPC   C3A70325  35.325  43.291   6.882
 5500POPC   C4A70326  35.145  43.154   7.249
 5500POPC   C1B70327  35.787  43.242   6.243
 5500POPC   C2B70328  35.848  43.243   6.702
 5500POPC   C3B70329  35.744  43.139   7.161
 5500POPC   C4B70330  35.521  43.188   7.575
 5501POPC   NC370331   4.475  36.951   5.251
 5501POPC   PO470332   3.880  37.070   5.318
 5501POPC   GL170333   4.184  37.081   5.689
 5501POPC   GL270334   4.576  37.089   5.738
 5501POPC   C1A70335   4.265  36.989   6.140
 5501POPC   D2A70336   4.461  36.820   6.536
 5501POPC   C3A70337   4.188  36.908   6.897
 5501POPC   C4A70338   4.051  37.321   7.062
 5501POPC   C1B70339   4.731  36.741   6.029
 5501POPC   C2B70340   4.801  36.460   6.409
 5501POPC   C3B70341   4.600  36.402   6.835
 5501POPC   C4B70342   4.536  36.672   7.204
 5502POPC   NC370343  28.307   3.415   5.417
 5502POPC   PO470344  28.336   4.095   5.475
 5502POPC   GL170345  28.279   3.791   5.789
 5502POPC   GL270346  28.626   3.752   5.792
 5502POPC   C1A70347  28.400   3.434   6.128
 5502POPC   D2A70348  28.672   3.461   6.519
 5502POPC   C3A70349  28.511   3.534   6.945
 5502POPC   C4A70350  28.618   3.520   7.400
 5502POPC   C1B70351  28.618   3.900   6.228
 5502POPC   C2B70352  28.762   4.026   6.660
 5502POPC   C3B70353  28.630   3.992   7.125
 5502POPC   C4B70354  28.255   3.884   7.329
 5503POPC   NC370355  39.534  21.310   5.529
 5503POPC   PO470356  39.974  21.650   5.233
 5503POPC   GL170357  39.875  21.645   5.756
 5503POPC   GL270358  39.928  21.281   5.908
 5503POPC   C1A70359  39.730  21.628   6.203
 5503POPC   D2A70360  39.905  21.295   6.476
 5503POPC   C3A70361  40.095  21.378   6.871
 5503POPC   C4A70362  39.881  21.490   7.251
 5503POPC   C1B70363  39.582  21.051   6.132
 5503POPC   C2B70364  39.519  20.930   6.573
 5503POPC   C3B70365  39.708  21.043   7.000
 5503POPC   C4B70366  39.724  21.068   7.485
 5504POPC   NC370367  23.791  32.661   5.503
 5504POPC   PO470368  24.028  33.269   5.568
 5504POPC   GL170369  23.868  33.049   5.858
 5504POPC   GL270370  23.541  33.152   5.839
 5504POPC   C1A70371  23.906  33.155   6.269
 5504POPC   D2A70372  23.664  33.108   6.605
 5504POPC   C3A70373  23.940  32.978   6.891
 5504POPC   C4A70374  24.135  33.237   7.215
 5504POPC   C1B70375  23.498  32.835   6.154
 5504POPC   C2B70376  23.323  32.754   6.538
 5504POPC   C3B70377  23.474  32.686   6.932
 5504POPC   C4B70378  23.614  32.933   7.272
 5505POPC   NC370379   2.682  24.145   5.559
 5505POPC   PO470380   2.874  24.755   5.219
 5505POPC   GL170381   2.898  24.654   5.675
 5505POPC   GL270382   2.555  24.592   5.764
 5505POPC   C1A70383   2.950  24.441   6.109
 5505POPC   D2A70384   2.986  24.128   6.486
 5505POPC   C3A70385   2.895  24.304   6.905
 5505POPC   C4A70386   3.143  24.620   7.116
 5505POPC   C1B70387   2.438  24.593   6.195
 5505POPC   C2B70388   2.645  24.552   6.536
 5505POPC   C3B70389   2.819  24.858   6.774
 5505POPC   C4B70390   2.672  24.818   7.160
 5506POPC   NC370391  25.799  40.383   5.215
 5506POPC   PO470392  26.166  40.874   5.577
 5506POPC   GL170393  26.107  40.799   5.978
 5506POPC   GL270394  25.745  40.895   5.909
 5506POPC   C1A70395  26.306  40.437   6.208
 5506POPC   D2A70396  26.176  40.219   6.565
 5506POPC   C3A70397  26.143  40.547   6.882
 5506POPC   C4A70398  26.447  40.735   7.166
 5506POPC   C1B70399  25.740  40.930   6.351
 5506POPC   C2B70400  25.953  41.141   6.680
 5506POPC   C3B70401  25.913  40.964   7.096
 5506POPC   C4B70402  25.680  40.571   7.133
 5507POPC   NC370403  26.202  43.181   5.365
 5507POPC   PO470404  25.607  43.511   5.504
 5507POPC   GL170405  25.939  43.364   5.832
 5507POPC   GL270406  26.089  43.004   5.869
 5507POPC   C1A70407  25.758  43.180   6.209
 5507POPC   D2A70408  25.858  43.022   6.580
 5507POPC   C3A70409  25.810  43.223   6.945
 5507POPC   C4A70410  26.108  43.401   7.156
 5507POPC   C1B70411  26.245  42.839   6.284
 5507POPC   C2B70412  26.163  42.645   6.705
 5507POPC   C3B70413  26.133  42.826   7.102
 5507POPC   C4B70414  26.235  42.939   7.514
 5508POPC   NC370415   7.876  10.548   5.597
 5508POPC   PO470416   8.399  10.222   5.237
 5508POPC   GL170417   8.397  10.383   5.686
 5508POPC   GL270418   8.185  10.209   5.818
 5508POPC   C1A70419   8.245  10.521   6.210
 5508POPC   D2A70420   8.184  10.890   6.529
 5508POPC   C3A70421   8.382  10.826   6.928
 5508POPC   C4A70422   8.709  10.712   7.185
 5508POPC   C1B70423   8.528  10.113   6.105
 5508POPC   C2B70424   8.432  10.168   6.555
 5508POPC   C3B70425   8.118  10.391   6.836
 5508POPC   C4B70426   8.033  10.516   7.272
 5509POPC   NC370427  30.535   5.451   5.229
 5509POPC   PO470428  30.626   6.104   5.491
 5509POPC   GL170429  30.806   6.012   5.888
 5509POPC   GL270430  31.019   5.737   5.787
 5509POPC   C1A70431  30.732   6.116   6.327
 5509POPC   D2A70432  30.672   5.993   6.751
 5509POPC   C3A70433  30.423   5.673   6.991
 5509POPC   C4A70434  30.635   5.889   7.266
 5509POPC   C1B70435  30.800   5.619   6.197
 5509POPC   C2B70436  30.717   5.495   6.613
 5509POPC   C3B70437  30.908   5.511   7.018
 5509POPC   C4B70438  31.316   5.562   7.142
 5510POPC   NC370439  24.328  23.837   5.467
 5510POPC   PO470440  24.807  23.351   5.502
 5510POPC   GL170441  24.597  23.554   5.841
 5510POPC   GL270442  24.248  23.495   5.864
 5510POPC   C1A70443  24.605  23.963   6.079
 5510POPC   D2A70444  24.742  24.132   6.481
 5510POPC   C3A70445  24.713  23.836   6.818
 5510POPC   C4A70446  24.424  23.738   7.156
 5510POPC   C1B70447  24.123  23.773   6.212
 5510POPC   C2B70448  24.225  24.022   6.585
 5510POPC   C3B70449  24.006  23.968   6.980
 5510POPC   C4B70450  23.947  23.537   7.161
 5511POPC   NC370451  17.382  32.455   5.373
 5511POPC   PO470452  17.900  32.102   5.416
 5511POPC   GL170453  17.737  32.352   5.750
 5511POPC   GL270454  17.678  32.045   5.938
 5511POPC   C1A70455  17.671  32.472   6.195
 5511POPC   D2A70456  17.310  32.486   6.478
 5511POPC   C3A70457  17.489  32.397   6.857
 5511POPC   C4A70458  17.351  32.423   7.244
 5511POPC   C1B70459  17.243  32.107   6.136
 5511POPC   C2B70460  17.072  32.037   6.583
 5511POPC   C3B70461  17.235  31.974   7.029
 5511POPC   C4B70462  17.704  32.011   7.165
 5512POPC   NC370463  38.634  27.974   5.481
 5512POPC   PO470464  38.254  27.513   5.369
 5512POPC   GL170465  38.359  27.559   5.773
 5512POPC   GL270466  38.223  27.873   5.793
 5512POPC   C1A70467  38.417  27.614   6.215
 5512POPC   D2A70468  38.308  27.380   6.577
 5512POPC   C3A70469  38.465  27.562   6.927
 5512POPC   C4A70470  38.793  27.482   7.208
 5512POPC   C1B70471  37.991  27.921   6.133
 5512POPC   C2B70472  38.025  27.792   6.524
 5512POPC   C3B70473  38.107  27.944   6.930
 5512POPC   C4B70474  38.224  27.795   7.310
 5513POPC   NC370475  12.101  18.454   5.263
 5513POPC   PO470476  12.437  18.109   5.658
 5513POPC   GL170477  12.108  18.400   5.791
 5513POPC   GL270478  12.053  18.131   6.003
 5513POPC   C1A70479  11.973  18.583   6.194
 5513POPC   D2A70480  11.936  18.303   6.550
 5513POPC   C3A70481  11.989  18.500   6.941
 5513POPC   C4A70482  11.829  18.333   7.347
 5513POPC   C1B70483  12.395  18.124   6.331
 5513POPC   C2B70484  12.545  18.104   6.769
 5513POPC   C3B70485  12.409  18.266   7.157
 5513POPC   C4B70486  12.296  18.220   7.570
 5514POPC   NC370487  26.426  14.517   5.455
 5514POPC   PO470488  27.057  14.220   5.475
 5514POPC   GL170489  26.842  14.461   5.780
 5514POPC   GL270490  26.526  14.242   5.858
 5514POPC   C1A70491  27.014  14.641   6.158
 5514POPC   D2A70492  27.072  14.400   6.514
 5514POPC   C3A70493  26.977  14.507   6.946
 5514POPC   C4A70494  27.038  14.340   7.360
 5514POPC   C1B70495  26.633  14.329   6.260
 5514POPC   C2B70496  26.550  14.562   6.649
 5514POPC   C3B70497  26.470  14.354   7.061
 5514POPC   C4B70498  26.609  13.968   7.306
 5515POPC   NC370499  18.682  40.459   5.543
 5515POPC   PO470500  18.018  40.718   5.420
 5515POPC   GL170501  18.034  40.729   5.867
 5515POPC   GL270502  18.375  40.732   5.856
 5515POPC   C1A70503  18.153  40.704   6.335
 5515POPC   D2A70504  18.393  41.006   6.582
 5515POPC   C3A70505  18.199  41.111   6.986
 5515POPC   C4A70506  17.883  40.877   7.223
 5515POPC   C1B70507  18.637  40.559   6.199
 5515POPC   C2B70508  18.567  40.525   6.635
 5515POPC   C3B70509  18.632  40.818   7.014
 5515POPC   C4B70510  18.579  40.601   7.456
 5516POPC   NC370511  38.960  40.290   5.524
 5516POPC   PO470512  39.470  40.726   5.500
 5516POPC   GL170513  39.286  40.928   5.838
 5516POPC   GL270514  38.916  41.001   5.796
 5516POPC   C1A70515  39.463  40.867   6.233
 5516POPC   D2A70516  39.275  40.806   6.629
 5516POPC   C3A70517  39.486  40.870   7.012
 5516POPC   C4A70518  39.420  40.590   7.321
 5516POPC   C1B70519  38.935  40.736   6.183
 5516POPC   C2B70520  38.829  40.581   6.607
 5516POPC   C3B70521  39.001  40.618   7.026
 5516POPC   C4B70522  38.936  40.732   7.479
 5517POPC   NC370523   8.694   9.127   5.479
 5517POPC   PO470524   9.250   8.716   5.451
 5517POPC   GL170525   8.969   8.844   5.775
 5517POPC   GL270526   9.097   9.192   5.863
 5517POPC   C1A70527   8.719   8.897   6.169
 5517POPC   D2A70528   8.579   8.988   6.603
 5517POPC   C3A70529   8.883   9.015   6.939
 5517POPC   C4A70530   8.972   9.361   7.238
 5517POPC   C1B70531   9.260   8.853   6.164
 5517POPC   C2B70532   9.082   8.690   6.545
 5517POPC   C3B70533   9.314   8.684   6.894
 5517POPC   C4B70534   9.335   8.986   7.199
 5518POPC   NC370535  32.113  40.163   5.574
 5518POPC   PO470536  32.749  39.819   5.518
 5518POPC   GL170537  32.400  39.722   5.831
 5518POPC   GL270538  32.000  39.765   5.879
 5518POPC   C1A70539  32.371  39.882   6.241
 5518POPC   D2A70540  32.188  39.774   6.615
 5518POPC   C3A70541  32.430  39.984   6.935
 5518POPC   C4A70542  32.540  39.902   7.325
 5518POPC   C1B70543  31.881  40.044   6.259
 5518POPC   C2B70544  31.773  40.056   6.715
 5518POPC   C3B70545  31.997  40.187   7.088
 5518POPC   C4B70546  32.043  40.012   7.507
 5519POPC   NC370547  13.455   6.505   5.502
 5519POPC   PO470548  13.984   6.832   5.481
 5519POPC   GL170549  13.810   6.576   5.853
 5519POPC   GL270550  13.938   6.217   5.855
 5519POPC   C1A70551  13.661   6.694   6.281
 5519POPC   D2A70552  13.704   6.855   6.719
 5519POPC   C3A70553  13.412   6.729   7.067
 5519POPC   C4A70554  13.494   6.522   7.474
 5519POPC   C1B70555  14.065   6.373   6.241
 5519POPC   C2B70556  13.886   6.381   6.631
 5519POPC   C3B70557  13.771   6.371   7.032
 5519POPC   C4B70558  13.959   6.237   7.383
 5520POPC   NC370559   1.089  40.462   5.328
 5520POPC   PO470560   1.435  41.050   5.386
 5520POPC   GL170561   1.325  40.904   5.822
 5520POPC   GL270562   1.268  40.535   5.825
 5520POPC   C1A70563   1.104  41.067   6.216
 5520POPC   D2A70564   0.961  41.058   6.651
 5520POPC   C3A70565   1.122  40.875   7.041
 5520POPC   C4A70566   1.355  41.114   7.337
 5520POPC   C1B70567   0.976  40.575   6.191
 5520POPC   C2B70568   1.068  40.531   6.640
 5520POPC   C3B70569   1.339  40.401   6.992
 5520POPC   C4B70570   1.333  40.483   7.437
 5521POPC   NC370571  41.795  32.609   5.496
 5521POPC   PO470572  41.360  32.165   5.739
 5521POPC   GL170573  41.596  32.427   5.958
 5521POPC   GL270574  41.877  32.240   5.837
 5521POPC   C1A70575  41.466  32.515   6.396
 5521POPC   D2A70576  41.116  32.727   6.613
 5521POPC   C3A70577  41.168  32.662   7.047
 5521POPC   C4A70578  41.494  32.331   7.156
 5521POPC   C1B70579  41.705  32.027   6.239
 5521POPC   C2B70580  41.461  31.958   6.596
 5521POPC   C3B70581  41.638  31.885   6.976
 5521POPC   C4B70582  41.845  31.989   7.359
 5522POPC   NC370583   9.192  25.935   5.377
 5522POPC   PO470584   8.575  26.055   5.580
 5522POPC   GL170585   8.875  25.854   5.817
 5522POPC   GL270586   9.082  26.155   5.823
 5522POPC   C1A70587   8.994  25.887   6.273
 5522POPC   D2A70588   8.812  25.929   6.708
 5522POPC   C3A70589   9.082  25.901   7.065
 5522POPC   C4A70590   9.258  25.963   7.459
 5522POPC   C1B70591   8.921  26.395   6.173
 5522POPC   C2B70592   9.014  26.568   6.579
 5522POPC   C3B70593   8.935  26.401   7.017
 5522POPC   C4B70594   8.850  26.264   7.443
 5523POPC   NC370595  42.097  25.445   5.544
 5523POPC   PO470596  42.588  24.885   5.457
 5523POPC   GL170597  42.408  25.115   5.813
 5523POPC   GL270598  42.585  25.419   5.766
 5523POPC   C1A70599  42.223  25.057   6.240
 5523POPC   D2A70600  42.314  24.843   6.610
 5523POPC   C3A70601  42.439  25.031   6.980
 5523POPC   C4A70602  42.271  25.179   7.375
 5523POPC   C1B70603  42.355  25.542   6.157
 5523POPC   C2B70604  42.207  25.624   6.586
 5523POPC   C3B70605  42.340  25.540   6.997
 5523POPC   C4B70606  42.628  25.525   7.344
 5524POPC   NC370607   2.348  16.256   5.475
 5524POPC   PO470608   1.772  15.827   5.591
 5524POPC   GL170609   2.131  15.936   5.817
 5524POPC   GL270610   2.240  15.602   5.916
 5524POPC   C1A70611   2.095  16.191   6.185
 5524POPC   D2A70612   2.130  15.991   6.576
 5524POPC   C3A70613   1.908  16.169   6.898
 5524POPC   C4A70614   2.022  16.031   7.300
 5524POPC   C1B70615   1.887  15.688   6.207
 5524POPC   C2B70616   1.785  15.566   6.588
 5524POPC   C3B70617   1.942  15.667   6.962
 5524POPC   C4B70618   1.812  15.548   7.355
 5525POPC   NC370619  44.508  27.879   5.147
 5525POPC   PO470620  44.788  28.406   5.501
 5525POPC   GL170621  44.571  28.314   5.911
 5525POPC   GL270622  44.189  28.390   5.906
 5525POPC   C1A70623  44.660  28.543   6.292
 5525POPC   D2A70624  44.511  28.542   6.730
 5525POPC   C3A70625  44.726  28.199   6.854
 5525POPC   C4A70626  44.968  28.025   7.123
 5525POPC   C1B70627  44.182  28.377   6.360
 5525POPC   C2B70628  44.242  28.083   6.691
 5525POPC   C3B70629  44.283  28.167   7.111
 5525POPC   C4B70630  44.340  28.624   7.219
 5526POPC   NC370631  44.334  40.255   5.370
 5526POPC   PO470632  43.881  39.836   5.191
 5526POPC   GL170633  43.983  40.075   5.678
 5526POPC   GL270634  44.262  40.232   5.866
 5526POPC   C1A70635  43.833  40.125   6.142
 5526POPC   D2A70636  43.847  39.837   6.522
 5526POPC   C3A70637  43.866  39.911   6.979
 5526POPC   C4A70638  43.666  40.254   7.229
 5526POPC   C1B70639  44.281  40.378   6.281
 5526POPC   C2B70640  44.493  40.395   6.671
 5526POPC   C3B70641  44.209  40.287   6.974
 5526POPC   C4B70642  44.152  40.127   7.367
 5527POPC   NC370643  17.807  11.081   5.458
 5527POPC   PO470644  17.340  11.477   5.282
 5527POPC   GL170645  17.426  11.619   5.725
 5527POPC   GL270646  17.781  11.516   5.788
 5527POPC   C1A70647  17.407  11.458   6.182
 5527POPC   D2A70648  17.431  11.240   6.579
 5527POPC   C3A70649  17.314  11.352   7.005
 5527POPC   C4A70650  17.421  11.027   7.293
 5527POPC   C1B70651  17.900  11.348   6.202
 5527POPC   C2B70652  17.835  11.542   6.591
 5527POPC   C3B70653  17.816  11.456   7.032
 5527POPC   C4B70654  17.569  11.553   7.412
 5528POPC   NC370655  33.001  43.310   5.393
 5528POPC   PO470656  32.787  42.746   5.390
 5528POPC   GL170657  32.904  42.989   5.808
 5528POPC   GL270658  33.187  43.268   5.863
 5528POPC   C1A70659  33.016  43.032   6.278
 5528POPC   D2A70660  33.126  43.046   6.728
 5528POPC   C3A70661  32.847  42.898   7.065
 5528POPC   C4A70662  33.170  42.791   7.385
 5528POPC   C1B70663  32.812  43.489   6.066
 5528POPC   C2B70664  32.588  43.569   6.464
 5528POPC   C3B70665  32.712  43.481   6.911
 5528POPC   C4B70666  33.075  43.347   7.168
 5529POPC   NC370667   9.048  42.513   5.417
 5529POPC   PO470668   9.056  41.786   5.432
 5529POPC   GL170669   9.163  42.123   5.699
 5529POPC   GL270670   8.843  42.192   5.797
 5529POPC   C1A70671   9.238  42.225   6.111
 5529POPC   D2A70672   9.020  42.156   6.457
 5529POPC   C3A70673   9.142  42.161   6.848
 5529POPC   C4A70674   9.076  41.956   7.197
 5529POPC   C1B70675   8.669  42.366   6.147
 5529POPC   C2B70676   8.529  42.260   6.522
 5529POPC   C3B70677   8.639  42.069   6.831
 5529POPC   C4B70678   8.614  42.212   7.199
 5530POPC   NC370679  20.822   9.629   5.350
 5530POPC   PO470680  20.363  10.103   5.315
 5530POPC   GL170681  20.497  10.007   5.740
 5530POPC   GL270682  20.847  10.012   5.733
 5530POPC   C1A70683  20.565   9.994   6.202
 5530POPC   D2A70684  20.579   9.699   6.527
 5530POPC   C3A70685  20.526   9.830   6.938
 5530POPC   C4A70686  20.375   9.574   7.232
 5530POPC   C1B70687  20.949   9.668   6.050
 5530POPC   C2B70688  21.004   9.416   6.443
 5530POPC   C3B70689  20.910   9.470   6.889
 5530POPC   C4B70690  20.759   9.259   7.273
 5531POPC   NC370691  11.678   6.124   5.355
 5531POPC   PO470692  11.649   5.467   5.541
 5531POPC   GL170693  11.350   5.629   5.893
 5531POPC   GL270694  11.212   5.985   5.854
 5531POPC   C1A70695  11.232   5.784   6.344
 5531POPC   D2A70696  11.424   6.017   6.712
 5531POPC   C3A70697  11.384   5.946   7.157
 5531POPC   C4A70698  11.183   5.571   7.239
 5531POPC   C1B70699  10.908   6.158   6.186
 5531POPC   C2B70700  10.957   6.273   6.646
 5531POPC   C3B70701  10.862   6.119   7.086
 5531POPC   C4B70702  10.999   5.960   7.519
 5532POPC   NC370703  38.822   0.317   5.459
 5532POPC   PO470704  38.587   0.922   5.490
 5532POPC   GL170705  38.564   0.605   5.828
 5532POPC   GL270706  38.417   0.267   5.816
 5532POPC   C1A70707  38.513   0.482   6.267
 5532POPC   D2A70708  38.673   0.574   6.666
 5532POPC   C3A70709  38.502   0.395   7.030
 5532POPC   C4A70710  38.544   0.292   7.456
 5532POPC   C1B70711  38.127   0.132   6.150
 5532POPC   C2B70712  38.280   0.173   6.602
 5532POPC   C3B70713  38.644  44.972   6.765
 5532POPC   C4B70714  38.838  44.992   7.157
 5533POPC   NC370715  38.688  18.946   5.435
 5533POPC   PO470716  38.071  18.732   5.559
 5533POPC   GL170717  38.313  19.037   5.888
 5533POPC   GL270718  38.690  19.128   5.912
 5533POPC   C1A70719  38.300  19.364   6.197
 5533POPC   D2A70720  38.547  19.505   6.548
 5533POPC   C3A70721  38.411  19.269   6.907
 5533POPC   C4A70722  38.444  19.255   7.326
 5533POPC   C1B70723  38.823  18.758   6.152
 5533POPC   C2B70724  38.703  18.556   6.520
 5533POPC   C3B70725  38.826  18.612   6.946
 5533POPC   C4B70726  38.487  18.773   7.218
 5534POPC   NC370727  21.231  24.733   4.752
 5534POPC   PO470728  21.316  24.368   5.292
 5534POPC   GL170729  21.367  24.513   5.737
 5534POPC   GL270730  21.645  24.736   5.794
 5534POPC   C1A70731  21.507  24.332   6.143
 5534POPC   D2A70732  21.331  24.223   6.531
 5534POPC   C3A70733  21.410  24.328   6.951
 5534POPC   C4A70734  21.083  24.171   7.218
 5534POPC   C1B70735  21.455  24.838   6.173
 5534POPC   C2B70736  21.423  24.732   6.596
 5534POPC   C3B70737  21.472  24.944   6.976
 5534POPC   C4B70738  21.469  24.941   7.408
 5535POPC   NC370739  21.616  33.222   5.475
 5535POPC   PO470740  22.330  32.943   5.500
 5535POPC   GL170741  22.001  33.062   5.822
 5535POPC   GL270742  21.728  32.808   5.747
 5535POPC   C1A70743  21.932  33.274   6.266
 5535POPC   D2A70744  21.839  33.249   6.738
 5535POPC   C3A70745  22.141  33.311   7.096
 5535POPC   C4A70746  22.002  33.257   7.545
 5535POPC   C1B70747  21.807  32.754   6.180
 5535POPC   C2B70748  21.977  32.749   6.576
 5535POPC   C3B70749  21.786  32.774   6.958
 5535POPC   C4B70750  22.051  32.846   7.267
 5536POPC   NC370751   6.786   4.138   5.485
 5536POPC   PO470752   6.361   4.642   5.539
 5536POPC   GL170753   6.582   4.401   5.867
 5536POPC   GL270754   6.874   4.600   5.932
 5536POPC   C1A70755   6.843   4.186   6.193
 5536POPC   D2A70756   6.967   4.350   6.591
 5536POPC   C3A70757   6.762   4.285   6.950
 5536POPC   C4A70758   6.776   4.197   7.320
 5536POPC   C1B70759   6.637   4.645   6.325
 5536POPC   C2B70760   6.486   4.652   6.768
 5536POPC   C3B70761   6.503   4.654   7.258
 5536POPC   C4B70762   6.358   4.730   7.743
 5537POPC   NC370763  16.489  13.778   5.418
 5537POPC   PO470764  17.016  13.471   5.360
 5537POPC   GL170765  16.813  13.524   5.753
 5537POPC   GL270766  16.865  13.874   5.785
 5537POPC   C1A70767  16.744  13.539   6.211
 5537POPC   D2A70768  16.811  13.387   6.633
 5537POPC   C3A70769  16.603  13.476   7.025
 5537POPC   C4A70770  16.750  13.728   7.357
 5537POPC   C1B70771  16.943  14.021   6.190
 5537POPC   C2B70772  16.805  13.931   6.593
 5537POPC   C3B70773  17.025  13.819   6.938
 5537POPC   C4B70774  17.217  13.998   7.288
 5538POPC   NC370775  20.934  44.850   5.059
 5538POPC   PO470776  21.443  44.734   5.472
 5538POPC   GL170777  21.183  44.806   5.823
 5538POPC   GL270778  21.457  44.745   6.085
 5538POPC   C1A70779  21.035  44.955   6.247
 5538POPC   D2A70780  21.084  44.618   6.564
 5538POPC   C3A70781  21.176  44.727   6.970
 5538POPC   C4A70782  21.382  44.950   7.263
 5538POPC   C1B70783  21.583  44.383   6.403
 5538POPC   C2B70784  21.535  44.290   6.884
 5538POPC   C3B70785  21.467  44.368   7.373
 5538POPC   C4B70786  21.367  44.331   7.879
 5539POPC   NC370787  11.161  42.479   5.382
 5539POPC   PO470788  10.523  42.203   5.465
 5539POPC   GL170789  10.583  42.385   5.866
 5539POPC   GL270790  10.951  42.423   5.866
 5539POPC   C1A70791  10.488  42.270   6.293
 5539POPC   D2A70792  10.615  42.060   6.663
 5539POPC   C3A70793  10.444  42.199   7.015
 5539POPC   C4A70794  10.535  42.206   7.434
 5539POPC   C1B70795  10.884  42.611   6.266
 5539POPC   C2B70796  10.643  42.615   6.649
 5539POPC   C3B70797  10.693  42.623   7.109
 5539POPC   C4B70798  10.368  42.713   7.409
 5540POPC   NC370799  25.940   9.230   5.378
 5540POPC   PO470800  25.692   8.599   5.429
 5540POPC   GL170801  25.965   8.797   5.759
 5540POPC   GL270802  26.311   8.688   5.877
 5540POPC   C1A70803  25.989   8.750   6.243
 5540POPC   D2A70804  26.248   8.929   6.561
 5540POPC   C3A70805  25.902   8.910   6.812
 5540POPC   C4A70806  25.787   8.871   7.210
 5540POPC   C1B70807  26.223   9.152   6.043
 5540POPC   C2B70808  25.976   9.347   6.406
 5540POPC   C3B70809  26.097   9.372   6.859
 5540POPC   C4B70810  26.276   9.077   7.192
 5541POPC   NC370811  27.176  28.790   5.631
 5541POPC   PO470812  26.734  29.360   5.482
 5541POPC   GL170813  26.728  29.020   5.825
 5541POPC   GL270814  26.997  29.208   5.922
 5541POPC   C1A70815  26.928  28.870   6.268
 5541POPC   D2A70816  27.197  28.994   6.634
 5541POPC   C3A70817  27.023  29.004   7.039
 5541POPC   C4A70818  26.979  28.759   7.414
 5541POPC   C1B70819  26.559  29.403   6.103
 5541POPC   C2B70820  26.372  29.402   6.511
 5541POPC   C3B70821  26.442  29.499   6.911
 5541POPC   C4B70822  26.644  29.263   7.234
 5542POPC   NC370823  43.936  37.801   5.476
 5542POPC   PO470824  43.440  37.462   5.424
 5542POPC   GL170825  43.634  37.579   5.825
 5542POPC   GL270826  43.980  37.513   5.911
 5542POPC   C1A70827  43.656  37.781   6.222
 5542POPC   D2A70828  43.649  37.619   6.636
 5542POPC   C3A70829  43.760  37.752   7.045
 5542POPC   C4A70830  43.754  38.027   7.402
 5542POPC   C1B70831  44.145  37.632   6.302
 5542POPC   C2B70832  44.160  37.524   6.726
 5542POPC   C3B70833  44.389  37.639   7.067
 5542POPC   C4B70834  44.165  37.718   7.439
 5543POPC   NC370835  42.480  27.679   5.534
 5543POPC   PO470836  42.023  27.342   5.254
 5543POPC   GL170837  42.062  27.372   5.720
 5543POPC   GL270838  42.396  27.320   5.884
 5543POPC   C1A70839  42.138  27.688   6.088
 5543POPC   D2A70840  42.288  27.828   6.503
 5543POPC   C3A70841  42.179  27.681   6.956
 5543POPC   C4A70842  42.458  27.641   7.325
 5543POPC   C1B70843  42.694  27.110   6.149
 5543POPC   C2B70844  42.860  27.251   6.529
 5543POPC   C3B70845  42.690  27.356   6.930
 5543POPC   C4B70846  42.714  27.195   7.342
 5544POPC   NC370847   0.517  15.613   5.073
 5544POPC   PO470848   0.592  15.036   5.423
 5544POPC   GL170849   0.612  15.175   5.836
 5544POPC   GL270850   0.614  15.528   5.805
 5544POPC   C1A70851   0.600  15.093   6.284
 5544POPC   D2A70852   0.364  14.893   6.601
 5544POPC   C3A70853   0.332  15.047   7.028
 5544POPC   C4A70854   0.156  15.387   7.272
 5544POPC   C1B70855   0.951  15.439   6.130
 5544POPC   C2B70856   0.768  15.494   6.552
 5544POPC   C3B70857   0.588  15.516   6.977
 5544POPC   C4B70858   0.734  15.281   7.342
 5545POPC   NC370859  23.405  31.363   5.445
 5545POPC   PO470860  24.081  31.316   5.671
 5545POPC   GL170861  23.700  31.267   5.881
 5545POPC   GL270862  23.541  31.595   5.906
 5545POPC   C1A70863  23.723  31.251   6.316
 5545POPC   D2A70864  23.552  31.476   6.657
 5545POPC   C3A70865  23.709  31.263   7.012
 5545POPC   C4A70866  23.693  31.036   7.433
 5545POPC   C1B70867  23.914  31.708   6.183
 5545POPC   C2B70868  24.077  31.574   6.577
 5545POPC   C3B70869  23.850  31.821   6.854
 5545POPC   C4B70870  23.895  31.949   7.225
 5546POPC   NC370871  41.800  13.973   5.264
 5546POPC   PO470872  41.397  13.444   5.372
 5546POPC   GL170873  41.479  13.606   5.764
 5546POPC   GL270874  41.824  13.604   5.671
 5546POPC   C1A70875  41.370  13.706   6.219
 5546POPC   D2A70876  41.654  13.775   6.594
 5546POPC   C3A70877  41.545  13.614   7.000
 5546POPC   C4A70878  41.327  13.681   7.383
 5546POPC   C1B70879  41.864  13.648   6.107
 5546POPC   C2B70880  41.958  13.384   6.469
 5546POPC   C3B70881  42.027  13.362   6.915
 5546POPC   C4B70882  42.002  13.694   7.231
 5547POPC   NC370883  33.284  10.790   5.379
 5547POPC   PO470884  34.067  10.768   5.367
 5547POPC   GL170885  33.711  10.709   5.672
 5547POPC   GL270886  33.529  10.379   5.693
 5547POPC   C1A70887  33.793  10.728   6.112
 5547POPC   D2A70888  34.077  10.626   6.443
 5547POPC   C3A70889  33.872  10.648   6.838
 5547POPC   C4A70890  34.002  10.566   7.233
 5547POPC   C1B70891  33.735  10.212   6.082
 5547POPC   C2B70892  33.681  10.285   6.516
 5547POPC   C3B70893  33.682  10.161   6.952
 5547POPC   C4B70894  33.540  10.431   7.290
 5548POPC   NC370895  12.540  21.383   5.685
 5548POPC   PO470896  13.129  21.466   5.357
 5548POPC   GL170897  13.011  21.276   5.800
 5548POPC   GL270898  12.839  20.956   5.760
 5548POPC   C1A70899  12.787  21.429   6.254
 5548POPC   D2A70900  12.885  21.627   6.655
 5548POPC   C3A70901  12.568  21.494   6.925
 5548POPC   C4A70902  12.560  21.404   7.368
 5548POPC   C1B70903  12.964  20.966   6.212
 5548POPC   C2B70904  12.742  21.050   6.622
 5548POPC   C3B70905  12.899  21.140   7.040
 5548POPC   C4B70906  13.086  21.022   7.422
 5549POPC   NC370907  40.043  13.770   5.446
 5549POPC   PO470908  40.067  13.096   5.500
 5549POPC   GL170909  39.878  13.291   5.895
 5549POPC   GL270910  39.842  13.667   5.900
 5549POPC   C1A70911  39.866  13.431   6.350
 5549POPC   D2A70912  39.617  13.600   6.702
 5549POPC   C3A70913  39.751  13.446   7.071
 5549POPC   C4A70914  40.151  13.388   7.252
 5549POPC   C1B70915  40.266  13.690   6.115
 5549POPC   C2B70916  40.327  13.902   6.526
 5549POPC   C3B70917  40.097  13.781   6.904
 5549POPC   C4B70918  39.979  13.854   7.361
 5550POPC   NC370919  15.238   6.227   5.198
 5550POPC   PO470920  15.148   5.613   5.463
 5550POPC   GL170921  15.190   5.912   5.797
 5550POPC   GL270922  15.557   5.858   5.757
 5550POPC   C1A70923  14.958   5.912   6.217
 5550POPC   D2A70924  14.753   5.653   6.528
 5550POPC   C3A70925  14.913   5.584   6.953
 5550POPC   C4A70926  14.781   5.641   7.372
 5550POPC   C1B70927  15.403   5.549   6.110
 5550POPC   C2B70928  15.301   5.677   6.540
 5550POPC   C3B70929  15.282   5.939   6.885
 5550POPC   C4B70930  15.443   5.784   7.259
 5551POPC   NC370931  35.348  28.735   5.368
 5551POPC   PO470932  35.770  28.210   5.364
 5551POPC   GL170933  35.565  28.426   5.732
 5551POPC   GL270934  35.196  28.377   5.727
 5551POPC   C1A70935  35.502  28.274   6.159
 5551POPC   D2A70936  35.705  28.283   6.560
 5551POPC   C3A70937  35.663  28.127   6.973
 5551POPC   C4A70938  35.396  28.401   7.250
 5551POPC   C1B70939  35.026  28.516   6.119
 5551POPC   C2B70940  35.161  28.490   6.529
 5551POPC   C3B70941  35.064  28.621   6.927
 5551POPC   C4B70942  34.883  28.405   7.251
 5552POPC   NC370943  27.352  22.662   5.483
 5552POPC   PO470944  27.781  23.186   5.285
 5552POPC   GL170945  27.694  23.049   5.764
 5552POPC   GL270946  27.444  22.826   5.945
 5552POPC   C1A70947  27.665  23.155   6.249
 5552POPC   D2A70948  27.543  22.850   6.608
 5552POPC   C3A70949  27.769  22.864   6.993
 5552POPC   C4A70950  27.646  23.124   7.321
 5552POPC   C1B70951  27.170  22.980   6.283
 5552POPC   C2B70952  27.002  23.069   6.694
 5552POPC   C3B70953  27.250  22.952   7.039
 5552POPC   C4B70954  27.404  22.530   7.205
 5553POPC   NC370955  25.792  42.065   5.404
 5553POPC   PO470956  26.012  42.743   5.406
 5553POPC   GL170957  26.021  42.476   5.804
 5553POPC   GL270958  25.822  42.159   5.895
 5553POPC   C1A70959  26.096  42.358   6.250
 5553POPC   D2A70960  26.116  42.140   6.613
 5553POPC   C3A70961  26.431  42.267   6.910
 5553POPC   C4A70962  26.373  42.422   7.321
 5553POPC   C1B70963  25.621  42.091   6.333
 5553POPC   C2B70964  25.633  42.093   6.812
 5553POPC   C3B70965  25.920  42.329   7.089
 5553POPC   C4B70966  25.892  42.569   7.482
 5554POPC   NC370967   3.652  34.869   5.446
 5554POPC   PO470968   3.815  34.318   5.350
 5554POPC   GL170969   3.891  34.325   5.807
 5554POPC   GL270970   3.768  34.678   5.901
 5554POPC   C1A70971   3.670  34.271   6.233
 5554POPC   D2A70972   3.289  34.279   6.548
 5554POPC   C3A70973   3.320  34.557   6.971
 5554POPC   C4A70974   3.629  34.449   7.292
 5554POPC   C1B70975   3.731  34.779   6.334
 5554POPC   C2B70976   3.867  35.006   6.669
 5554POPC   C3B70977   3.826  34.833   7.053
 5554POPC   C4B70978   3.497  34.937   7.365
 5555POPC   NC370979  36.455  32.486   5.315
 5555POPC   PO470980  35.969  31.971   5.479
 5555POPC   GL170981  36.114  32.281   5.755
 5555POPC   GL270982  36.454  32.193   5.781
 5555POPC   C1A70983  36.029  32.485   6.170
 5555POPC   D2A70984  35.895  32.318   6.567
 5555POPC   C3A70985  35.882  32.522   6.982
 5555POPC   C4A70986  35.953  32.346   7.417
 5555POPC   C1B70987  36.385  32.113   6.235
 5555POPC   C2B70988  36.384  32.230   6.657
 5555POPC   C3B70989  36.266  32.148   7.057
 5555POPC   C4B70990  36.496  32.316   7.423
 5556POPC   NC370991  34.130  10.295   5.357
 5556POPC   PO470992  34.732  10.571   5.268
 5556POPC   GL170993  34.817  10.448   5.707
 5556POPC   GL270994  34.840  10.063   5.667
 5556POPC   C1A70995  34.717  10.631   6.150
 5556POPC   D2A70996  34.552  10.818   6.543
 5556POPC   C3A70997  34.647  10.696   6.963
 5556POPC   C4A70998  34.843  10.604   7.345
 5556POPC   C1B70999  34.520  10.152   6.002
 5556POPC   C2B71000  34.374  10.177   6.442
 5556POPC   C3B71001  34.241  10.236   6.873
 5556POPC   C4B71002  34.437  10.312   7.278
 5557POPC   NC371003   3.261  26.862   5.468
 5557POPC   PO471004   2.605  26.969   5.552
 5557POPC   GL171005   2.826  26.776   5.825
 5557POPC   GL271006   2.979  26.476   5.710
 5557POPC   C1A71007   2.661  26.833   6.231
 5557POPC   D2A71008   2.888  26.968   6.555
 5557POPC   C3A71009   2.724  26.905   6.938
 5557POPC   C4A71010   2.781  27.154   7.293
 5557POPC   C1B71011   2.807  26.347   6.112
 5557POPC   C2B71012   2.789  26.442   6.560
 5557POPC   C3B71013   3.070  26.521   6.907
 5557POPC   C4B71014   2.943  26.665   7.334
 5558POPC   NC371015  42.908   1.295   5.211
 5558POPC   PO471016  43.507   1.427   5.508
 5558POPC   GL171017  43.276   1.214   5.797
 5558POPC   GL271018  42.932   1.162   5.717
 5558POPC   C1A71019  43.371   1.020   6.183
 5558POPC   D2A71020  43.133   0.854   6.507
 5558POPC   C3A71021  43.163   1.044   6.880
 5558POPC   C4A71022  43.115   1.163   7.272
 5558POPC   C1B71023  42.873   1.156   6.178
 5558POPC   C2B71024  42.665   1.339   6.592
 5558POPC   C3B71025  42.684   1.267   7.034
 5558POPC   C4B71026  42.667   1.148   7.485
 5559POPC   NC371027  40.636   6.185   5.419
 5559POPC   PO471028  40.499   5.536   5.349
 5559POPC   GL171029  40.596   5.776   5.780
 5559POPC   GL271030  40.933   5.979   5.820
 5559POPC   C1A71031  40.705   5.790   6.259
 5559POPC   D2A71032  40.617   6.005   6.654
 5559POPC   C3A71033  40.816   5.948   7.065
 5559POPC   C4A71034  40.754   5.630   7.407
 5559POPC   C1B71035  41.101   6.145   6.229
 5559POPC   C2B71036  41.125   6.195   6.700
 5559POPC   C3B71037  41.150   6.343   7.136
 5559POPC   C4B71038  41.122   6.380   7.611
 5560POPC   NC371039   3.149  29.796   5.495
 5560POPC   PO471040   2.617  30.106   5.240
 5560POPC   GL171041   2.656  29.933   5.661
 5560POPC   GL271042   2.756  30.230   5.840
 5560POPC   C1A71043   2.834  29.790   6.085
 5560POPC   D2A71044   3.058  29.833   6.467
 5560POPC   C3A71045   2.829  29.672   6.801
 5560POPC   C4A71046   2.844  29.821   7.236
 5560POPC   C1B71047   2.363  30.035   6.084
 5560POPC   C2B71048   2.241  29.927   6.526
 5560POPC   C3B71049   2.412  29.922   6.951
 5560POPC   C4B71050   2.520  30.192   7.299
 5561POPC   NC371051  27.525  18.530   5.370
 5561POPC   PO471052  27.535  19.188   5.308
 5561POPC   GL171053  27.417  19.010   5.680
 5561POPC   GL271054  27.246  19.277   5.817
 5561POPC   C1A71055  27.678  19.089   6.060
 5561POPC   D2A71056  27.860  19.308   6.417
 5561POPC   C3A71057  27.684  19.073   6.751
 5561POPC   C4A71058  27.623  18.865   7.142
 5561POPC   C1B71059  27.162  19.009   6.166
 5561POPC   C2B71060  27.268  18.815   6.563
 5561POPC   C3B71061  27.145  18.938   6.967
 5561POPC   C4B71062  27.281  19.166   7.345
 5562POPC   NC371063  33.325  16.866   5.409
 5562POPC   PO471064  32.638  17.056   5.447
 5562POPC   GL171065  32.737  16.862   5.852
 5562POPC   GL271066  32.998  16.630   5.744
 5562POPC   C1A71067  32.869  16.658   6.236
 5562POPC   D2A71068  33.091  16.863   6.517
 5562POPC   C3A71069  32.831  16.972   6.852
 5562POPC   C4A71070  32.958  17.073   7.250
 5562POPC   C1B71071  33.319  16.456   6.042
 5562POPC   C2B71072  33.312  16.350   6.465
 5562POPC   C3B71073  33.083  16.481   6.848
 5562POPC   C4B71074  32.774  16.564   7.179
 5563POPC   NC371075  29.091  24.860   5.456
 5563POPC   PO471076  29.110  24.174   5.374
 5563POPC   GL171077  29.040  24.318   5.784
 5563POPC   GL271078  29.392  24.257   5.828
 5563POPC   C1A71079  29.098  24.365   6.247
 5563POPC   D2A71080  29.156  24.120   6.632
 5563POPC   C3A71081  29.100  24.309   7.000
 5563POPC   C4A71082  29.104  24.606   7.325
 5563POPC   C1B71083  29.569  24.533   6.148
 5563POPC   C2B71084  29.465  24.573   6.596
 5563POPC   C3B71085  29.549  24.588   7.045
 5563POPC   C4B71086  29.798  24.268   7.200
 5564POPC   NC371087  24.948   1.991   5.246
 5564POPC   PO471088  25.402   2.370   5.163
 5564POPC   GL171089  25.139   2.267   5.623
 5564POPC   GL271090  25.196   1.908   5.730
 5564POPC   C1A71091  25.192   2.248   6.122
 5564POPC   D2A71092  25.059   1.952   6.454
 5564POPC   C3A71093  25.242   2.056   6.857
 5564POPC   C4A71094  25.038   2.093   7.248
 5564POPC   C1B71095  25.456   1.806   6.123
 5564POPC   C2B71096  25.610   1.956   6.494
 5564POPC   C3B71097  25.706   1.783   6.891
 5564POPC   C4B71098  25.752   1.666   7.294
 5565POPC   NC371099  43.343  35.515   5.636
 5565POPC   PO471100  43.174  34.985   5.221
 5565POPC   GL171101  43.171  35.079   5.778
 5565POPC   GL271102  42.909  35.358   5.844
 5565POPC   C1A71103  43.268  35.243   6.237
 5565POPC   D2A71104  43.060  35.440   6.623
 5565POPC   C3A71105  43.287  35.360   7.018
 5565POPC   C4A71106  43.293  35.518   7.469
 5565POPC   C1B71107  42.768  35.181   6.219
 5565POPC   C2B71108  42.773  35.010   6.627
 5565POPC   C3B71109  42.759  35.200   7.022
 5565POPC   C4B71110  42.876  35.234   7.464
 5566POPC   NC371111   1.728  43.956   5.451
 5566POPC   PO471112   2.228  43.592   5.448
 5566POPC   GL171113   2.008  43.714   5.832
 5566POPC   GL271114   1.747  43.962   5.954
 5566POPC   C1A71115   2.156  43.822   6.236
 5566POPC   D2A71116   2.132  43.604   6.612
 5566POPC   C3A71117   2.238  43.789   7.008
 5566POPC   C4A71118   2.012  44.043   7.313
 5566POPC   C1B71119   1.679  43.901   6.394
 5566POPC   C2B71120   1.740  43.956   6.854
 5566POPC   C3B71121   1.498  44.078   7.240
 5566POPC   C4B71122   1.456  43.897   7.660
 5567POPC   NC371123  21.457  13.591   5.541
 5567POPC   PO471124  20.886  13.903   5.442
 5567POPC   GL171125  21.144  13.829   5.888
 5567POPC   GL271126  21.542  13.826   5.969
 5567POPC   C1A71127  21.250  13.775   6.371
 5567POPC   D2A71128  21.583  13.723   6.679
 5567POPC   C3A71129  21.377  13.499   7.025
 5567POPC   C4A71130  21.143  13.530   7.447
 5567POPC   C1B71131  21.644  13.423   6.209
 5567POPC   C2B71132  21.745  13.211   6.634
 5567POPC   C3B71133  21.770  13.161   7.111
 5567POPC   C4B71134  21.645  13.466   7.439
 5568POPC   NC371135  20.404  33.869   5.454
 5568POPC   PO471136  21.032  33.669   5.433
 5568POPC   GL171137  20.745  33.615   5.786
 5568POPC   GL271138  20.395  33.454   5.767
 5568POPC   C1A71139  20.835  33.811   6.175
 5568POPC   D2A71140  21.003  33.755   6.570
 5568POPC   C3A71141  20.892  34.007   6.890
 5568POPC   C4A71142  20.880  33.750   7.239
 5568POPC   C1B71143  20.333  33.696   6.157
 5568POPC   C2B71144  20.449  33.899   6.550
 5568POPC   C3B71145  20.488  33.674   6.915
 5568POPC   C4B71146  20.453  33.462   7.307
 5569POPC   NC371147  36.496  22.553   5.477
 5569POPC   PO471148  36.164  23.088   5.210
 5569POPC   GL171149  36.146  23.041   5.697
 5569POPC   GL271150  35.863  23.242   5.799
 5569POPC   C1A71151  36.274  22.867   6.124
 5569POPC   D2A71152  36.238  22.734   6.549
 5569POPC   C3A71153  36.300  22.879   6.977
 5569POPC   C4A71154  36.090  22.764   7.368
 5569POPC   C1B71155  35.950  23.229   6.262
 5569POPC   C2B71156  36.000  23.250   6.711
 5569POPC   C3B71157  35.857  23.162   7.136
 5569POPC   C4B71158  35.803  23.230   7.591
 5570POPC   NC371159  19.160  20.516   5.374
 5570POPC   PO471160  19.140  21.172   5.409
 5570POPC   GL171161  19.315  20.897   5.797
 5570POPC   GL271162  19.353  20.523   5.838
 5570POPC   C1A71163  19.214  20.785   6.276
 5570POPC   D2A71164  19.151  20.885   6.743
 5570POPC   C3A71165  18.907  20.596   7.010
 5570POPC   C4A71166  18.713  20.577   7.446
 5570POPC   C1B71167  19.547  20.343   6.214
 5570POPC   C2B71168  19.502  20.437   6.659
 5570POPC   C3B71169  19.424  20.596   7.065
 5570POPC   C4B71170  19.191  20.392   7.415
 5571POPC   NC371171   3.563  27.546   5.339
 5571POPC   PO471172   3.019  27.147   5.211
 5571POPC   GL171173   3.232  27.297   5.678
 5571POPC   GL271174   3.534  27.498   5.837
 5571POPC   C1A71175   3.226  27.248   6.149
 5571POPC   D2A71176   3.578  27.392   6.417
 5571POPC   C3A71177   3.533  27.365   6.850
 5571POPC   C4A71178   3.719  27.478   7.231
 5571POPC   C1B71179   3.334  27.759   6.164
 5571POPC   C2B71180   3.228  27.747   6.608
 5571POPC   C3B71181   3.427  27.840   7.022
 5571POPC   C4B71182   3.309  27.922   7.456
 5572POPC   NC371183  38.143   9.352   5.276
 5572POPC   PO471184  38.636   9.807   5.322
 5572POPC   GL171185  38.368   9.686   5.700
 5572POPC   GL271186  38.154   9.892   5.948
 5572POPC   C1A71187  38.462   9.537   6.130
 5572POPC   D2A71188  38.268   9.592   6.523
 5572POPC   C3A71189  38.513   9.644   6.895
 5572POPC   C4A71190  38.298   9.563   7.268
 5572POPC   C1B71191  38.539  10.055   6.175
 5572POPC   C2B71192  38.745  10.110   6.591
 5572POPC   C3B71193  38.644  10.153   7.046
 5572POPC   C4B71194  38.819   9.893   7.352
 5573POPC   NC371195  42.759  28.418   5.416
 5573POPC   PO471196  42.914  27.799   5.456
 5573POPC   GL171197  43.024  28.089   5.808
 5573POPC   GL271198  42.799  28.365   5.917
 5573POPC   C1A71199  43.262  28.274   6.165
 5573POPC   D2A71200  43.273  28.078   6.570
 5573POPC   C3A71201  43.334  28.293   6.936
 5573POPC   C4A71202  43.286  28.115   7.290
 5573POPC   C1B71203  42.787  28.171   6.318
 5573POPC   C2B71204  42.838  28.245   6.766
 5573POPC   C3B71205  42.753  28.265   7.210
 5573POPC   C4B71206  42.974  28.574   7.245
 5574POPC   NC371207  22.760  20.314   5.329
 5574POPC   PO471208  22.253  19.808   5.310
 5574POPC   GL171209  22.046  19.723   5.694
 5574POPC   GL271210  22.308  19.907   5.827
 5574POPC   C1A71211  21.935  19.752   6.155
 5574POPC   D2A71212  22.255  19.645   6.516
 5574POPC   C3A71213  22.221  19.845   6.928
 5574POPC   C4A71214  21.912  20.093   7.135
 5574POPC   C1B71215  22.304  20.082   6.241
 5574POPC   C2B71216  22.079  20.190   6.598
 5574POPC   C3B71217  22.270  20.438   6.885
 5574POPC   C4B71218  22.273  20.399   7.313
 5575POPC   NC371219  19.694  18.383   5.280
 5575POPC   PO471220  20.308  18.573   5.375
 5575POPC   GL171221  19.961  18.424   5.696
 5575POPC   GL271222  19.823  18.157   5.811
 5575POPC   C1A71223  19.696  18.584   6.057
 5575POPC   D2A71224  19.664  18.547   6.512
 5575POPC   C3A71225  19.934  18.403   6.871
 5575POPC   C4A71226  19.869  18.543   7.308
 5575POPC   C1B71227  19.877  18.140   6.263
 5575POPC   C2B71228  19.601  18.043   6.623
 5575POPC   C3B71229  19.538  18.163   7.089
 5575POPC   C4B71230  19.882  18.041   7.412
 5576POPC   NC371231  27.804  17.125   5.591
 5576POPC   PO471232  27.521  16.565   5.336
 5576POPC   GL171233  27.586  16.694   5.793
 5576POPC   GL271234  27.425  16.417   5.922
 5576POPC   C1A71235  27.494  16.937   6.215
 5576POPC   D2A71236  27.383  16.734   6.597
 5576POPC   C3A71237  27.416  16.933   6.969
 5576POPC   C4A71238  27.333  16.648   7.272
 5576POPC   C1B71239  27.728  16.490   6.262
 5576POPC   C2B71240  27.805  16.377   6.687
 5576POPC   C3B71241  27.743  16.352   7.147
 5576POPC   C4B71242  28.098  16.510   7.399
 5577POPC   NC371243  19.729  43.493   5.366
 5577POPC   PO471244  20.055  44.061   5.137
 5577POPC   GL171245  19.866  44.037   5.621
 5577POPC   GL271246  20.090  43.940   5.918
 5577POPC   C1A71247  19.608  44.023   6.077
 5577POPC   D2A71248  19.707  43.969   6.548
 5577POPC   C3A71249  19.409  43.909   6.870
 5577POPC   C4A71250  19.557  43.631   7.146
 5577POPC   C1B71251  19.923  43.604   6.255
 5577POPC   C2B71252  19.852  43.531   6.733
 5577POPC   C3B71253  20.041  43.827   7.050
 5577POPC   C4B71254  20.351  43.696   7.363
 5578POPC   NC371255   2.845  37.316   5.512
 5578POPC   PO471256   3.024  36.770   5.259
 5578POPC   GL171257   2.773  36.802   5.634
 5578POPC   GL271258   2.471  37.033   5.708
 5578POPC   C1A71259   2.721  36.740   6.080
 5578POPC   D2A71260   2.625  36.900   6.487
 5578POPC   C3A71261   2.780  36.742   6.879
 5578POPC   C4A71262   2.547  36.792   7.239
 5578POPC   C1B71263   2.565  37.268   6.120
 5578POPC   C2B71264   2.517  37.394   6.580
 5578POPC   C3B71265   2.656  37.248   6.998
 5578POPC   C4B71266   2.742  37.198   7.469
 5579POPC   NC371267  34.477  32.993   5.362
 5579POPC   PO471268  34.467  33.694   5.257
 5579POPC   GL171269  34.319  33.363   5.706
 5579POPC   GL271270  34.341  32.971   5.830
 5579POPC   C1A71271  34.514  33.260   6.170
 5579POPC   D2A71272  34.607  32.945   6.497
 5579POPC   C3A71273  34.585  33.099   6.925
 5579POPC   C4A71274  34.693  32.910   7.326
 5579POPC   C1B71275  34.141  32.891   6.235
 5579POPC   C2B71276  34.107  32.724   6.658
 5579POPC   C3B71277  34.215  32.785   7.102
 5579POPC   C4B71278  34.215  32.868   7.527
 5580POPC   NC371279   9.939  38.235   5.445
 5580POPC   PO471280   9.391  38.648   5.477
 5580POPC   GL171281   9.533  38.337   5.801
 5580POPC   GL271282   9.851  38.149   5.927
 5580POPC   C1A71283   9.543  38.367   6.258
 5580POPC   D2A71284   9.605  38.678   6.573
 5580POPC   C3A71285   9.654  38.617   7.033
 5580POPC   C4A71286   9.579  38.655   7.484
 5580POPC   C1B71287  10.018  38.567   6.134
 5580POPC   C2B71288  10.194  38.655   6.562
 5580POPC   C3B71289  10.189  38.460   6.965
 5580POPC   C4B71290  10.058  38.607   7.360
 5581POPC   NC371291  27.180   5.550   5.557
 5581POPC   PO471292  26.845   6.137   5.499
 5581POPC   GL171293  26.858   5.867   5.832
 5581POPC   GL271294  26.638   5.662   5.633
 5581POPC   C1A71295  26.920   5.744   6.271
 5581POPC   D2A71296  27.114   5.935   6.621
 5581POPC   C3A71297  27.065   5.771   7.037
 5581POPC   C4A71298  27.076   6.049   7.406
 5581POPC   C1B71299  26.498   5.554   6.054
 5581POPC   C2B71300  26.593   5.401   6.491
 5581POPC   C3B71301  26.597   5.563   6.913
 5581POPC   C4B71302  26.620   5.895   7.244
 5582POPC   NC371303  12.043   7.051   5.433
 5582POPC   PO471304  12.047   6.383   5.487
 5582POPC   GL171305  12.038   6.692   5.789
 5582POPC   GL271306  11.671   6.696   5.732
 5582POPC   C1A71307  12.164   6.813   6.219
 5582POPC   D2A71308  12.151   6.648   6.656
 5582POPC   C3A71309  12.231   6.716   7.089
 5582POPC   C4A71310  12.475   6.402   7.276
 5582POPC   C1B71311  11.784   6.459   6.144
 5582POPC   C2B71312  11.739   6.381   6.597
 5582POPC   C3B71313  11.804   6.254   7.042
 5582POPC   C4B71314  11.807   6.463   7.444
 5583POPC   NC371315  11.434  34.275   5.054
 5583POPC   PO471316  11.452  34.839   5.465
 5583POPC   GL171317  11.566  34.636   5.851
 5583POPC   GL271318  11.247  34.746   5.966
 5583POPC   C1A71319  11.500  34.376   6.245
 5583POPC   D2A71320  11.409  34.465   6.666
 5583POPC   C3A71321  11.569  34.537   7.071
 5583POPC   C4A71322  11.558  34.919   7.332
 5583POPC   C1B71323  11.115  34.814   6.387
 5583POPC   C2B71324  10.901  34.505   6.614
 5583POPC   C3B71325  11.046  34.319   6.987
 5583POPC   C4B71326  11.161  34.496   7.372
 5584POPC   NC371327  26.195  41.325   5.463
 5584POPC   PO471328  25.660  41.617   5.369
 5584POPC   GL171329  25.896  41.654   5.777
 5584POPC   GL271330  26.054  41.335   5.947
 5584POPC   C1A71331  26.014  41.793   6.216
 5584POPC   D2A71332  26.144  41.636   6.629
 5584POPC   C3A71333  26.158  41.871   7.066
 5584POPC   C4A71334  26.136  41.614   7.481
 5584POPC   C1B71335  25.671  41.421   6.188
 5584POPC   C2B71336  25.628  41.617   6.609
 5584POPC   C3B71337  25.827  41.511   7.017
 5584POPC   C4B71338  25.683  41.359   7.394
 5585POPC   NC371339  24.919  26.298   5.689
 5585POPC   PO471340  24.909  25.750   5.389
 5585POPC   GL171341  25.126  25.780   5.836
 5585POPC   GL271342  25.367  26.084   5.846
 5585POPC   C1A71343  25.411  25.823   6.260
 5585POPC   D2A71344  25.517  26.067   6.640
 5585POPC   C3A71345  25.416  25.827   7.012
 5585POPC   C4A71346  25.049  25.773   7.182
 5585POPC   C1B71347  25.250  26.336   6.248
 5585POPC   C2B71348  25.028  26.526   6.606
 5585POPC   C3B71349  24.941  26.310   6.983
 5585POPC   C4B71350  25.320  26.300   7.164
 5586POPC   NC371351  15.609  43.404   5.113
 5586POPC   PO471352  16.093  42.979   5.332
 5586POPC   GL171353  15.978  43.250   5.673
 5586POPC   GL271354  15.691  43.437   5.624
 5586POPC   C1A71355  16.040  43.166   6.101
 5586POPC   D2A71356  15.934  42.906   6.449
 5586POPC   C3A71357  16.049  43.059   6.852
 5586POPC   C4A71358  15.918  42.878   7.254
 5586POPC   C1B71359  15.758  43.594   6.053
 5586POPC   C2B71360  15.790  43.399   6.483
 5586POPC   C3B71361  15.573  43.203   6.855
 5586POPC   C4B71362  15.677  43.342   7.266
 5587POPC   NC371363  12.427   6.131   5.419
 5587POPC   PO471364  11.914   5.822   5.094
 5587POPC   GL171365  12.020   5.853   5.605
 5587POPC   GL271366  11.739   5.979   5.826
 5587POPC   C1A71367  12.187   5.882   6.052
 5587POPC   D2A71368  12.193   6.228   6.371
 5587POPC   C3A71369  12.270   6.184   6.840
 5587POPC   C4A71370  12.350   5.879   7.168
 5587POPC   C1B71371  11.710   5.970   6.266
 5587POPC   C2B71372  11.934   5.844   6.634
 5587POPC   C3B71373  11.854   5.714   7.050
 5587POPC   C4B71374  11.809   5.844   7.475
 5588POPC   NC371375  15.660  32.478   5.593
 5588POPC   PO471376  15.218  32.034   5.372
 5588POPC   GL171377  15.266  32.196   5.756
 5588POPC   GL271378  15.137  32.520   5.786
 5588POPC   C1A71379  15.284  32.175   6.182
 5588POPC   D2A71380  15.049  31.989   6.515
 5588POPC   C3A71381  15.202  32.030   6.946
 5588POPC   C4A71382  15.367  32.149   7.343
 5588POPC   C1B71383  15.202  32.682   6.213
 5588POPC   C2B71384  15.273  32.470   6.612
 5588POPC   C3B71385  15.148  32.508   7.015
 5588POPC   C4B71386  15.403  32.682   7.272
 5589POPC   NC371387  31.861  30.609   5.313
 5589POPC   PO471388  31.278  30.874   5.313
 5589POPC   GL171389  31.429  30.913   5.763
 5589POPC   GL271390  31.617  30.592   5.812
 5589POPC   C1A71391  31.422  31.174   6.182
 5589POPC   D2A71392  31.444  31.321   6.620
 5589POPC   C3A71393  31.511  31.006   6.942
 5589POPC   C4A71394  31.395  30.955   7.369
 5589POPC   C1B71395  31.548  30.656   6.260
 5589POPC   C2B71396  31.631  30.575   6.696
 5589POPC   C3B71397  31.485  30.513   7.140
 5589POPC   C4B71398  31.613  30.557   7.607
 5590POPC   NC371399  36.508  15.310   5.241
 5590POPC   PO471400  37.210  15.347   5.414
 5590POPC   GL171401  36.939  15.361   5.784
 5590POPC   GL271402  36.569  15.243   5.743
 5590POPC   C1A71403  37.117  15.266   6.221
 5590POPC   D2A71404  37.109  14.967   6.620
 5590POPC   C3A71405  37.245  15.102   7.044
 5590POPC   C4A71406  37.143  15.496   7.278
 5590POPC   C1B71407  36.609  15.295   6.193
 5590POPC   C2B71408  36.796  15.381   6.599
 5590POPC   C3B71409  36.737  15.245   7.011
 5590POPC   C4B71410  36.770  14.814   7.068
 5591POPC   NC371411  26.482  28.122   5.484
 5591POPC   PO471412  27.148  28.312   5.682
 5591POPC   GL171413  26.782  28.502   5.887
 5591POPC   GL271414  26.698  28.170   5.935
 5591POPC   C1A71415  26.616  28.457   6.332
 5591POPC   D2A71416  26.909  28.186   6.554
 5591POPC   C3A71417  27.027  28.377   6.942
 5591POPC   C4A71418  26.768  28.315   7.274
 5591POPC   C1B71419  26.334  28.063   6.128
 5591POPC   C2B71420  26.400  27.921   6.518
 5591POPC   C3B71421  26.506  28.086   6.885
 5591POPC   C4B71422  26.507  27.869   7.272
 5592POPC   NC371423  15.036  33.237   5.374
 5592POPC   PO471424  15.627  32.877   5.341
 5592POPC   GL171425  15.403  32.947   5.712
 5592POPC   GL271426  15.062  33.051   5.844
 5592POPC   C1A71427  15.486  33.120   6.112
 5592POPC   D2A71428  15.246  33.207   6.466
 5592POPC   C3A71429  15.358  32.990   6.851
 5592POPC   C4A71430  15.276  33.177   7.271
 5592POPC   C1B71431  14.817  33.025   6.189
 5592POPC   C2B71432  14.818  32.918   6.609
 5592POPC   C3B71433  14.876  32.914   7.036
 5592POPC   C4B71434  14.922  32.855   7.462
 5593POPC   NC371435   8.865  13.937   5.260
 5593POPC   PO471436   9.021  13.333   5.477
 5593POPC   GL171437   8.908  13.345   5.878
 5593POPC   GL271438   8.999  13.685   5.914
 5593POPC   C1A71439   9.241  13.376   6.229
 5593POPC   D2A71440   9.290  13.589   6.650
 5593POPC   C3A71441   9.176  13.354   7.010
 5593POPC   C4A71442   8.802  13.320   7.275
 5593POPC   C1B71443   8.786  13.582   6.305
 5593POPC   C2B71444   8.792  13.410   6.675
 5593POPC   C3B71445   8.790  13.729   6.963
 5593POPC   C4B71446   8.456  13.754   7.252
 5594POPC   NC371447  44.364  38.698   5.567
 5594POPC   PO471448  44.891  38.324   5.407
 5594POPC   GL171449  44.816  38.219   5.848
 5594POPC   GL271450  44.511  38.345   5.908
 5594POPC   C1A71451  44.857  38.413   6.272
 5594POPC   D2A71452  44.716  38.554   6.681
 5594POPC   C3A71453  44.957  38.551   7.030
 5594POPC   C4A71454  44.997  38.519   7.469
 5594POPC   C1B71455  44.349  38.492   6.332
 5594POPC   C2B71456  44.211  38.534   6.774
 5594POPC   C3B71457  44.412  38.555   7.181
 5594POPC   C4B71458  44.245  38.710   7.585
 5595POPC   NC371459  10.104   9.689   5.260
 5595POPC   PO471460   9.666  10.111   5.471
 5595POPC   GL171461   9.842   9.810   5.786
 5595POPC   GL271462  10.171   9.614   5.752
 5595POPC   C1A71463   9.738   9.806   6.222
 5595POPC   D2A71464   9.637   9.990   6.618
 5595POPC   C3A71465   9.726   9.783   6.991
 5595POPC   C4A71466   9.702   9.833   7.499
 5595POPC   C1B71467  10.066   9.405   6.149
 5595POPC   C2B71468   9.852   9.421   6.564
 5595POPC   C3B71469  10.039   9.355   6.957
 5595POPC   C4B71470  10.121   9.641   7.280
 5596POPC   NC371471  21.093  10.403   5.338
 5596POPC   PO471472  21.726  10.566   5.146
 5596POPC   GL171473  21.599  10.358   5.597
 5596POPC   GL271474  21.290  10.522   5.780
 5596POPC   C1A71475  21.648  10.367   6.095
 5596POPC   D2A71476  21.386  10.401   6.495
 5596POPC   C3A71477  21.497  10.358   6.935
 5596POPC   C4A71478  21.267  10.255   7.305
 5596POPC   C1B71479  21.131  10.713   6.154
 5596POPC   C2B71480  21.144  10.828   6.583
 5596POPC   C3B71481  21.067  10.616   6.966
 5596POPC   C4B71482  21.035  10.836   7.381
 5597POPC   NC371483  37.951  43.772   5.157
 5597POPC   PO471484  38.633  43.874   5.407
 5597POPC   GL171485  38.642  43.981   5.878
 5597POPC   GL271486  38.318  43.906   5.916
 5597POPC   C1A71487  38.516  43.918   6.377
 5597POPC   D2A71488  38.148  43.701   6.612
 5597POPC   C3A71489  38.249  43.566   7.016
 5597POPC   C4A71490  38.640  43.744   7.233
 5597POPC   C1B71491  38.022  44.113   6.177
 5597POPC   C2B71492  38.126  44.219   6.583
 5597POPC   C3B71493  38.307  44.094   6.940
 5597POPC   C4B71494  38.190  43.957   7.335
 5598POPC   NC371495   6.569  11.993   5.334
 5598POPC   PO471496   7.040  11.545   5.535
 5598POPC   GL171497   6.606  11.705   5.759
 5598POPC   GL271498   6.533  12.112   5.815
 5598POPC   C1A71499   6.293  11.796   6.108
 5598POPC   D2A71500   6.386  12.106   6.459
 5598POPC   C3A71501   6.646  11.937   6.772
 5598POPC   C4A71502   6.845  11.977   7.139
 5598POPC   C1B71503   6.814  12.260   6.125
 5598POPC   C2B71504   6.808  12.480   6.500
 5598POPC   C3B71505   6.967  12.422   6.909
 5598POPC   C4B71506   6.721  12.447   7.267
 5599POPC   NC371507  30.395  18.279   5.224
 5599POPC   PO471508  29.777  18.066   5.311
 5599POPC   GL171509  29.891  18.325   5.661
 5599POPC   GL271510  29.559  18.434   5.817
 5599POPC   C1A71511  29.998  18.290   6.101
 5599POPC   D2A71512  29.892  18.522   6.490
 5599POPC   C3A71513  30.029  18.394   6.910
 5599POPC   C4A71514  30.053  18.258   7.361
 5599POPC   C1B71515  29.528  18.206   6.264
 5599POPC   C2B71516  29.504  18.302   6.747
 5599POPC   C3B71517  29.615  18.461   7.173
 5599POPC   C4B71518  29.683  18.559   7.616
 5600POPC   NC371519  44.948  23.283   5.404
 5600POPC   PO471520  44.936  22.536   5.455
 5600POPC   GL171521  44.836  22.787   5.811
 5600POPC   GL271522  44.645  23.109   5.810
 5600POPC   C1A71523  44.934  22.900   6.232
 5600POPC   D2A71524  44.981  22.761   6.647
 5600POPC   C3A71525  44.766  23.038   6.937
 5600POPC   C4A71526  44.449  22.950   7.216
 5600POPC   C1B71527  44.439  23.129   6.232
 5600POPC   C2B71528  44.305  23.206   6.672
 5600POPC   C3B71529  44.207  23.362   7.095
 5600POPC   C4B71530  44.551  23.406   7.375
 5601POPC   NC371531  10.789  11.916   5.353
 5601POPC   PO471532  10.274  12.414   5.345
 5601POPC   GL171533  10.336  12.300   5.790
 5601POPC   GL271534  10.488  11.945   5.800
 5601POPC   C1A71535  10.531  12.271   6.189
 5601POPC   D2A71536  10.443  12.171   6.545
 5601POPC   C3A71537  10.604  12.331   6.844
 5601POPC   C4A71538  10.649  12.290   7.242
 5601POPC   C1B71539  10.411  11.748   6.167
 5601POPC   C2B71540  10.607  11.695   6.559
 5601POPC   C3B71541  10.508  11.828   6.980
 5601POPC   C4B71542  10.383  11.495   7.236
 5602POPC   NC371543   5.920   4.647   5.382
 5602POPC   PO471544   5.666   3.987   5.245
 5602POPC   GL171545   5.871   3.949   5.715
 5602POPC   GL271546   6.254   4.004   5.715
 5602POPC   C1A71547   5.853   4.182   6.168
 5602POPC   D2A71548   6.032   4.429   6.583
 5602POPC   C3A71549   5.781   4.431   6.986
 5602POPC   C4A71550   5.517   4.054   7.073
 5602POPC   C1B71551   6.331   3.996   6.160
 5602POPC   C2B71552   6.064   3.900   6.538
 5602POPC   C3B71553   6.020   3.990   6.937
 5602POPC   C4B71554   6.279   4.224   7.140
 5603POPC   NC371555  40.351  18.298   5.600
 5603POPC   PO471556  39.714  18.313   5.239
 5603POPC   GL171557  39.893  18.034   5.694
 5603POPC   GL271558  40.092  18.266   6.016
 5603POPC   C1A71559  39.992  17.811   6.113
 5603POPC   D2A71560  40.082  18.075   6.491
 5603POPC   C3A71561  39.858  18.008   6.864
 5603POPC   C4A71562  40.057  18.215   7.220
 5603POPC   C1B71563  39.896  18.526   6.298
 5603POPC   C2B71564  39.687  18.490   6.673
 5603POPC   C3B71565  39.752  18.588   7.042
 5603POPC   C4B71566  39.760  18.557   7.470
 5604POPC   NC371567   7.180  40.949   5.219
 5604POPC   PO471568   7.794  40.682   5.346
 5604POPC   GL171569   7.526  40.653   5.693
 5604POPC   GL271570   7.166  40.658   5.687
 5604POPC   C1A71571   7.484  40.861   6.097
 5604POPC   D2A71572   7.360  40.725   6.511
 5604POPC   C3A71573   7.501  40.955   6.877
 5604POPC   C4A71574   7.640  40.776   7.261
 5604POPC   C1B71575   7.024  40.564   6.128
 5604POPC   C2B71576   6.902  40.471   6.580
 5604POPC   C3B71577   7.048  40.716   6.947
 5604POPC   C4B71578   7.158  41.041   7.270
 5605POPC   NC371579  34.552  28.995   5.444
 5605POPC   PO471580  33.953  28.741   5.502
 5605POPC   GL171581  34.202  28.999   5.841
 5605POPC   GL271582  34.502  29.233   5.873
 5605POPC   C1A71583  34.328  29.061   6.302
 5605POPC   D2A71584  34.216  28.892   6.668
 5605POPC   C3A71585  34.405  29.067   7.027
 5605POPC   C4A71586  34.690  28.861   7.245
 5605POPC   C1B71587  34.810  28.999   6.146
 5605POPC   C2B71588  34.864  28.963   6.599
 5605POPC   C3B71589  35.030  29.148   6.958
 5605POPC   C4B71590  34.898  29.316   7.342
 5606POPC   NC371591  31.912  21.397   5.526
 5606POPC   PO471592  32.394  20.945   5.276
 5606POPC   GL171593  32.297  21.170   5.732
 5606POPC   GL271594  32.347  21.516   5.816
 5606POPC   C1A71595  32.216  21.164   6.173
 5606POPC   D2A71596  32.003  21.314   6.531
 5606POPC   C3A71597  32.113  21.358   6.948
 5606POPC   C4A71598  32.380  21.338   7.298
 5606POPC   C1B71599  32.202  21.678   6.206
 5606POPC   C2B71600  32.169  21.795   6.646
 5606POPC   C3B71601  32.345  21.808   7.062
 5606POPC   C4B71602  32.209  21.804   7.473
 5607POPC   NC371603  19.394  10.748   5.503
 5607POPC   PO471604  18.797  10.306   5.397
 5607POPC   GL171605  18.942  10.582   5.731
 5607POPC   GL271606  18.843  10.925   5.647
 5607POPC   C1A71607  19.160  10.612   6.156
 5607POPC   D2A71608  19.323  10.726   6.585
 5607POPC   C3A71609  19.324  10.469   6.946
 5607POPC   C4A71610  19.373  10.514   7.382
 5607POPC   C1B71611  18.695  10.863   6.079
 5607POPC   C2B71612  18.833  10.802   6.507
 5607POPC   C3B71613  18.821  10.610   6.892
 5607POPC   C4B71614  18.812  10.623   7.322
 5608POPC   NC371615  28.838  11.760   5.438
 5608POPC   PO471616  28.239  11.811   5.446
 5608POPC   GL171617  28.203  11.858   5.873
 5608POPC   GL271618  27.852  11.732   5.895
 5608POPC   C1A71619  28.536  11.836   6.260
 5608POPC   D2A71620  28.647  12.070   6.665
 5608POPC   C3A71621  28.479  11.989   7.093
 5608POPC   C4A71622  28.323  12.213   7.480
 5608POPC   C1B71623  28.106  11.575   6.273
 5608POPC   C2B71624  28.201  11.723   6.717
 5608POPC   C3B71625  28.043  11.721   7.159
 5608POPC   C4B71626  27.931  11.659   7.653
 5609POPC   NC371627   7.382  28.680   5.412
 5609POPC   PO471628   7.382  29.293   5.476
 5609POPC   GL171629   7.543  29.161   5.863
 5609POPC   GL271630   7.230  29.002   5.905
 5609POPC   C1A71631   7.542  29.168   6.329
 5609POPC   D2A71632   7.727  29.399   6.669
 5609POPC   C3A71633   7.473  29.299   7.000
 5609POPC   C4A71634   7.522  28.870   7.186
 5609POPC   C1B71635   7.102  29.366   6.144
 5609POPC   C2B71636   7.087  29.315   6.591
 5609POPC   C3B71637   6.960  29.430   6.985
 5609POPC   C4B71638   7.131  29.252   7.365
 5610POPC   NC371639  10.596  38.916   5.475
 5610POPC   PO471640  10.592  39.608   5.481
 5610POPC   GL171641  10.518  39.313   5.832
 5610POPC   GL271642  10.252  39.051   5.834
 5610POPC   C1A71643  10.323  39.399   6.238
 5610POPC   D2A71644  10.229  39.426   6.691
 5610POPC   C3A71645  10.636  39.502   6.827
 5610POPC   C4A71646  10.888  39.529   7.187
 5610POPC   C1B71647  10.458  38.894   6.191
 5610POPC   C2B71648  10.577  39.038   6.595
 5610POPC   C3B71649  10.734  39.012   7.013
 5610POPC   C4B71650  10.539  38.694   7.272
 5611POPC   NC371651  42.116  15.251   5.144
 5611POPC   PO471652  41.395  15.339   5.392
 5611POPC   GL171653  41.608  15.196   5.783
 5611POPC   GL271654  41.945  15.341   5.733
 5611POPC   C1A71655  41.499  15.168   6.229
 5611POPC   D2A71656  41.527  15.041   6.664
 5611POPC   C3A71657  41.630  15.378   6.974
 5611POPC   C4A71658  41.574  15.333   7.433
 5611POPC   C1B71659  42.029  15.189   6.190
 5611POPC   C2B71660  42.033  14.983   6.644
 5611POPC   C3B71661  41.821  14.917   7.082
 5611POPC   C4B71662  41.897  14.828   7.531
 5612POPC   NC371663  26.968   9.261   5.374
 5612POPC   PO471664  26.366   8.871   5.403
 5612POPC   GL171665  26.708   8.959   5.711
 5612POPC   GL271666  26.833   8.624   5.789
 5612POPC   C1A71667  26.731   9.079   6.174
 5612POPC   D2A71668  26.978   9.196   6.570
 5612POPC   C3A71669  26.772   9.074   6.957
 5612POPC   C4A71670  26.804   9.055   7.403
 5612POPC   C1B71671  27.026   8.660   6.201
 5612POPC   C2B71672  26.936   8.660   6.649
 5612POPC   C3B71673  27.127   8.692   7.053
 5612POPC   C4B71674  27.107   8.599   7.488
 5613POPC   NC371675  21.953  22.692   5.238
 5613POPC   PO471676  22.443  23.055   5.517
 5613POPC   GL171677  22.223  23.073   5.810
 5613POPC   GL271678  22.092  22.782   5.770
 5613POPC   C1A71679  22.197  23.195   6.202
 5613POPC   D2A71680  22.207  22.891   6.528
 5613POPC   C3A71681  22.343  23.053   6.912
 5613POPC   C4A71682  22.068  23.197   7.195
 5613POPC   C1B71683  21.911  22.647   6.138
 5613POPC   C2B71684  21.727  22.695   6.548
 5613POPC   C3B71685  21.946  22.735   6.955
 5613POPC   C4B71686  21.861  22.756   7.400
 5614POPC   NC371687  30.422  11.293   5.461
 5614POPC   PO471688  29.775  11.146   5.234
 5614POPC   GL171689  29.869  11.065   5.673
 5614POPC   GL271690  30.014  11.371   5.781
 5614POPC   C1A71691  29.733  11.072   6.107
 5614POPC   D2A71692  29.728  10.954   6.512
 5614POPC   C3A71693  29.763  11.265   6.831
 5614POPC   C4A71694  29.551  11.110   7.156
 5614POPC   C1B71695  30.241  11.151   6.132
 5614POPC   C2B71696  30.188  11.220   6.554
 5614POPC   C3B71697  30.260  11.250   6.976
 5614POPC   C4B71698  30.376  11.658   7.101
 5615POPC   NC371699   9.898   7.753   5.569
 5615POPC   PO471700   9.563   8.258   5.157
 5615POPC   GL171701   9.530   8.214   5.634
 5615POPC   GL271702   9.426   7.889   5.751
 5615POPC   C1A71703   9.596   8.450   6.052
 5615POPC   D2A71704   9.867   8.555   6.425
 5615POPC   C3A71705   9.895   8.381   6.842
 5615POPC   C4A71706  10.053   8.514   7.251
 5615POPC   C1B71707   9.291   8.049   6.144
 5615POPC   C2B71708   9.425   8.291   6.539
 5615POPC   C3B71709   9.425   8.189   6.986
 5615POPC   C4B71710   9.751   8.048   7.219
 5616POPC   NC371711  23.714  17.456   5.359
 5616POPC   PO471712  23.790  18.136   5.236
 5616POPC   GL171713  23.889  17.865   5.657
 5616POPC   GL271714  23.602  17.769   5.791
 5616POPC   C1A71715  23.975  17.662   6.116
 5616POPC   D2A71716  23.691  17.474   6.502
 5616POPC   C3A71717  23.868  17.389   6.956
 5616POPC   C4A71718  23.722  17.458   7.424
 5616POPC   C1B71719  23.514  17.904   6.194
 5616POPC   C2B71720  23.356  17.925   6.601
 5616POPC   C3B71721  23.462  17.691   6.952
 5616POPC   C4B71722  23.417  17.848   7.370
 5617POPC   NC371723  11.721  28.967   5.700
 5617POPC   PO471724  12.239  29.445   5.430
 5617POPC   GL171725  12.067  29.340   5.826
 5617POPC   GL271726  11.797  29.533   5.892
 5617POPC   C1A71727  12.183  29.179   6.239
 5617POPC   D2A71728  12.343  28.952   6.615
 5617POPC   C3A71729  12.199  29.142   7.022
 5617POPC   C4A71730  12.048  28.923   7.450
 5617POPC   C1B71731  11.685  29.392   6.275
 5617POPC   C2B71732  11.851  29.194   6.641
 5617POPC   C3B71733  11.714  29.049   7.044
 5617POPC   C4B71734  11.828  29.372   7.348
 5618POPC   NC371735  10.736  36.691   5.494
 5618POPC   PO471736  10.304  37.182   5.344
 5618POPC   GL171737  10.398  37.029   5.763
 5618POPC   GL271738  10.375  36.684   5.875
 5618POPC   C1A71739  10.506  37.094   6.192
 5618POPC   D2A71740  10.283  37.169   6.562
 5618POPC   C3A71741  10.324  36.905   6.884
 5618POPC   C4A71742  10.459  36.948   7.291
 5618POPC   C1B71743  10.725  36.565   6.151
 5618POPC   C2B71744  10.785  36.428   6.572
 5618POPC   C3B71745  10.741  36.603   6.989
 5618POPC   C4B71746  10.785  36.585   7.419
 5619POPC   NC371747  39.118  36.288   5.234
 5619POPC   PO471748  39.609  35.851   5.533
 5619POPC   GL171749  39.379  36.027   5.858
 5619POPC   GL271750  39.065  36.144   5.763
 5619POPC   C1A71751  39.214  35.898   6.230
 5619POPC   D2A71752  39.064  35.954   6.636
 5619POPC   C3A71753  39.268  35.744   6.978
 5619POPC   C4A71754  39.155  35.904   7.356
 5619POPC   C1B71755  39.186  36.418   6.134
 5619POPC   C2B71756  39.425  36.352   6.519
 5619POPC   C3B71757  39.312  36.272   6.949
 5619POPC   C4B71758  39.120  36.583   7.178
 5620POPC   NC371759  41.932  36.123   5.332
 5620POPC   PO471760  41.248  35.873   5.157
 5620POPC   GL171761  41.498  36.005   5.544
 5620POPC   GL271762  41.363  36.333   5.655
 5620POPC   C1A71763  41.647  36.074   5.993
 5620POPC   D2A71764  41.815  36.236   6.404
 5620POPC   C3A71765  41.775  36.293   6.854
 5620POPC   C4A71766  41.631  36.171   7.277
 5620POPC   C1B71767  41.344  36.467   6.090
 5620POPC   C2B71768  41.290  36.241   6.478
 5620POPC   C3B71769  41.289  36.402   6.886
 5620POPC   C4B71770  41.275  36.567   7.268
 5621POPC   NC371771  10.652  14.775   5.386
 5621POPC   PO471772  10.279  15.418   5.434
 5621POPC   GL171773  10.601  15.344   5.776
 5621POPC   GL271774  10.771  15.664   5.883
 5621POPC   C1A71775  10.554  15.110   6.182
 5621POPC   D2A71776  10.287  14.831   6.411
 5621POPC   C3A71777  10.352  14.853   6.868
 5621POPC   C4A71778  10.624  15.001   7.237
 5621POPC   C1B71779  10.939  15.440   6.232
 5621POPC   C2B71780  10.755  15.338   6.633
 5621POPC   C3B71781  10.712  15.477   7.062
 5621POPC   C4B71782  10.915  15.451   7.487
 5622POPC   NC371783  32.803  33.455   5.335
 5622POPC   PO471784  33.100  32.812   5.517
 5622POPC   GL171785  32.920  33.026   5.835
 5622POPC   GL271786  33.087  33.338   5.756
 5622POPC   C1A71787  32.882  32.883   6.265
 5622POPC   D2A71788  32.836  33.189   6.593
 5622POPC   C3A71789  32.724  33.171   7.016
 5622POPC   C4A71790  32.908  32.854   7.314
 5622POPC   C1B71791  33.074  33.431   6.202
 5622POPC   C2B71792  33.297  33.454   6.601
 5622POPC   C3B71793  33.232  33.209   6.986
 5622POPC   C4B71794  33.030  33.370   7.382
 5623POPC   NC371795   2.240  29.832   5.240
 5623POPC   PO471796   1.654  30.188   5.292
 5623POPC   GL171797   1.738  30.076   5.763
 5623POPC   GL271798   1.960  29.772   5.722
 5623POPC   C1A71799   1.824  30.097   6.257
 5623POPC   D2A71800   1.797  30.105   6.761
 5623POPC   C3A71801   2.002  30.115   7.168
 5623POPC   C4A71802   2.194  29.846   7.477
 5623POPC   C1B71803   2.087  29.576   6.139
 5623POPC   C2B71804   2.187  29.421   6.580
 5623POPC   C3B71805   2.032  29.576   6.994
 5623POPC   C4B71806   2.061  29.366   7.419
 5624POPC   NC371807  28.436  35.539   5.361
 5624POPC   PO471808  28.676  35.074   5.532
 5624POPC   GL171809  28.393  35.333   5.843
 5624POPC   GL271810  28.582  35.630   5.869
 5624POPC   C1A71811  28.100  35.449   6.244
 5624POPC   D2A71812  27.917  35.583   6.640
 5624POPC   C3A71813  27.992  35.340   7.054
 5624POPC   C4A71814  28.352  35.085   7.147
 5624POPC   C1B71815  28.584  35.454   6.309
 5624POPC   C2B71816  28.439  35.360   6.720
 5624POPC   C3B71817  28.652  35.548   7.077
 5624POPC   C4B71818  28.927  35.723   7.427
 5625POPC   NC371819  38.511  24.711   4.969
 5625POPC   PO471820  38.718  24.347   5.473
 5625POPC   GL171821  38.493  24.492   5.811
 5625POPC   GL271822  38.664  24.755   5.886
 5625POPC   C1A71823  38.312  24.569   6.232
 5625POPC   D2A71824  38.271  24.628   6.684
 5625POPC   C3A71825  38.433  24.289   6.930
 5625POPC   C4A71826  38.572  24.315   7.395
 5625POPC   C1B71827  38.836  24.687   6.285
 5625POPC   C2B71828  38.782  24.736   6.725
 5625POPC   C3B71829  38.564  24.746   7.101
 5625POPC   C4B71830  38.556  24.818   7.527
 5626POPC   NC371831  13.959  12.277   5.540
 5626POPC   PO471832  13.594  11.714   5.452
 5626POPC   GL171833  13.577  12.033   5.754
 5626POPC   GL271834  13.888  11.905   5.872
 5626POPC   C1A71835  13.511  12.323   6.101
 5626POPC   D2A71836  13.358  12.374   6.511
 5626POPC   C3A71837  13.573  12.344   6.911
 5626POPC   C4A71838  13.601  12.056   7.261
 5626POPC   C1B71839  13.994  12.205   6.210
 5626POPC   C2B71840  14.047  12.365   6.620
 5626POPC   C3B71841  14.041  12.157   7.015
 5626POPC   C4B71842  14.067  11.858   7.334
 5627POPC   NC371843  36.653   1.254   5.261
 5627POPC   PO471844  37.029   0.865   5.650
 5627POPC   GL171845  36.635   1.105   5.831
 5627POPC   GL271846  36.537   1.465   5.721
 5627POPC   C1A71847  36.662   1.129   6.303
 5627POPC   D2A71848  37.051   0.990   6.526
 5627POPC   C3A71849  37.097   1.126   6.955
 5627POPC   C4A71850  36.782   1.006   7.265
 5627POPC   C1B71851  36.663   1.627   6.139
 5627POPC   C2B71852  36.864   1.585   6.577
 5627POPC   C3B71853  36.870   1.619   7.048
 5627POPC   C4B71854  36.791   1.715   7.503
 5628POPC   NC371855   2.344  22.880   5.354
 5628POPC   PO471856   1.853  23.410   5.334
 5628POPC   GL171857   1.781  23.084   5.650
 5628POPC   GL271858   1.947  22.743   5.702
 5628POPC   C1A71859   1.780  23.039   6.102
 5628POPC   D2A71860   2.066  23.075   6.448
 5628POPC   C3A71861   1.907  22.944   6.814
 5628POPC   C4A71862   2.016  22.912   7.235
 5628POPC   C1B71863   2.160  22.692   6.113
 5628POPC   C2B71864   2.011  22.551   6.496
 5628POPC   C3B71865   2.180  22.545   6.915
 5628POPC   C4B71866   2.422  22.572   7.243
 5629POPC   NC371867  29.567  20.058   5.432
 5629POPC   PO471868  30.225  19.916   5.450
 5629POPC   GL171869  30.023  19.924   5.822
 5629POPC   GL271870  29.678  19.799   5.851
 5629POPC   C1A71871  30.126  19.774   6.204
 5629POPC   D2A71872  30.383  19.836   6.534
 5629POPC   C3A71873  30.256  20.018   6.932
 5629POPC   C4A71874  30.025  19.749   7.198
 5629POPC   C1B71875  29.694  20.091   6.187
 5629POPC   C2B71876  29.892  20.092   6.571
 5629POPC   C3B71877  29.709  20.178   6.957
 5629POPC   C4B71878  29.660  20.060   7.382
 5630POPC   NC371879  20.275  23.689   5.478
 5630POPC   PO471880  20.838  23.535   5.260
 5630POPC   GL171881  20.799  23.698   5.734
 5630POPC   GL271882  20.468  23.752   5.927
 5630POPC   C1A71883  20.880  23.945   6.167
 5630POPC   D2A71884  21.009  23.849   6.611
 5630POPC   C3A71885  20.857  23.723   7.004
 5630POPC   C4A71886  20.606  23.943   7.294
 5630POPC   C1B71887  20.640  23.492   6.243
 5630POPC   C2B71888  20.521  23.638   6.637
 5630POPC   C3B71889  20.219  23.602   6.953
 5630POPC   C4B71890  20.269  23.507   7.382
 5631POPC   NC371891  32.269  10.129   5.328
 5631POPC   PO471892  32.303  10.833   5.450
 5631POPC   GL171893  32.104  10.673   5.846
 5631POPC   GL271894  31.997  10.336   5.727
 5631POPC   C1A71895  32.212  10.464   6.266
 5631POPC   D2A71896  32.395  10.191   6.587
 5631POPC   C3A71897  32.298  10.393   6.985
 5631POPC   C4A71898  32.534  10.455   7.357
 5631POPC   C1B71899  31.783  10.254   6.096
 5631POPC   C2B71900  31.705  10.531   6.433
 5631POPC   C3B71901  31.774  10.554   6.864
 5631POPC   C4B71902  31.836  10.318   7.221
 5632POPC   NC371903  40.535  10.666   5.493
 5632POPC   PO471904  41.063  10.226   5.424
 5632POPC   GL171905  40.768  10.218   5.802
 5632POPC   GL271906  40.393  10.241   5.773
 5632POPC   C1A71907  40.773  10.285   6.278
 5632POPC   D2A71908  41.033  10.391   6.657
 5632POPC   C3A71909  40.889  10.743   6.913
 5632POPC   C4A71910  40.760  10.702   7.331
 5632POPC   C1B71911  40.271  10.365   6.192
 5632POPC   C2B71912  40.332  10.187   6.573
 5632POPC   C3B71913  40.542  10.322   6.933
 5632POPC   C4B71914  40.356  10.398   7.314
 5633POPC   NC371915  39.511  44.848   5.258
 5633POPC   PO471916  39.166  44.289   5.322
 5633POPC   GL171917  39.189  44.612   5.640
 5633POPC   GL271918  39.238  44.333   5.831
 5633POPC   C1A71919  39.360  44.823   6.044
 5633POPC   D2A71920  39.532  44.845   6.485
 5633POPC   C3A71921  39.279  44.963   6.872
 5633POPC   C4A71922  39.331  44.922   7.316
 5633POPC   C1B71923  38.947  44.510   6.121
 5633POPC   C2B71924  39.028  44.687   6.520
 5633POPC   C3B71925  39.104  44.498   6.928
 5633POPC   C4B71926  39.000  44.567   7.361
 5634POPC   NC371927  14.810   4.407   5.158
 5634POPC   PO471928  15.486   4.342   5.316
 5634POPC   GL171929  15.334   4.312   5.760
 5634POPC   GL271930  15.042   4.176   5.949
 5634POPC   C1A71931  15.392   4.460   6.197
 5634POPC   D2A71932  15.308   4.230   6.562
 5634POPC   C3A71933  15.474   4.427   6.915
 5634POPC   C4A71934  15.503   4.494   7.341
 5634POPC   C1B71935  14.820   4.270   6.366
 5634POPC   C2B71936  14.853   4.229   6.822
 5634POPC   C3B71937  15.124   4.181   7.190
 5634POPC   C4B71938  15.069   3.876   7.543
 5635POPC   NC371939  19.744   5.957   5.371
 5635POPC   PO471940  20.274   5.512   5.393
 5635POPC   GL171941  20.045   5.740   5.741
 5635POPC   GL271942  19.654   5.719   5.811
 5635POPC   C1A71943  20.020   5.869   6.173
 5635POPC   D2A71944  20.249   6.058   6.500
 5635POPC   C3A71945  20.064   6.015   6.892
 5635POPC   C4A71946  20.158   5.833   7.264
 5635POPC   C1B71947  19.490   5.911   6.196
 5635POPC   C2B71948  19.645   6.039   6.598
 5635POPC   C3B71949  19.538   5.887   7.000
 5635POPC   C4B71950  19.687   5.723   7.393
 5636POPC   NC371951  16.429   5.565   5.409
 5636POPC   PO471952  17.064   5.466   5.345
 5636POPC   GL171953  16.933   5.105   5.631
 5636POPC   GL271954  16.542   5.131   5.760
 5636POPC   C1A71955  16.937   5.148   6.096
 5636POPC   D2A71956  16.774   5.114   6.508
 5636POPC   C3A71957  17.035   5.180   6.846
 5636POPC   C4A71958  17.000   5.009   7.208
 5636POPC   C1B71959  16.367   4.975   6.198
 5636POPC   C2B71960  16.310   4.947   6.670
 5636POPC   C3B71961  16.546   5.175   6.995
 5636POPC   C4B71962  16.409   5.458   7.304
 5637POPC   NC371963   1.422  31.316   5.194
 5637POPC   PO471964   2.038  31.566   5.216
 5637POPC   GL171965   2.047  31.521   5.699
 5637POPC   GL271966   1.815  31.246   5.672
 5637POPC   C1A71967   2.222  31.529   6.170
 5637POPC   D2A71968   2.101  31.382   6.615
 5637POPC   C3A71969   2.016  31.682   6.981
 5637POPC   C4A71970   2.008  31.941   7.356
 5637POPC   C1B71971   1.884  31.135   6.127
 5637POPC   C2B71972   1.907  30.911   6.524
 5637POPC   C3B71973   1.820  31.030   6.924
 5637POPC   C4B71974   1.907  31.250   7.257
 5638POPC   NC371975   6.648  35.865   5.500
 5638POPC   PO471976   6.358  36.500   5.425
 5638POPC   GL171977   6.400  36.285   5.780
 5638POPC   GL271978   6.741  36.179   5.919
 5638POPC   C1A71979   6.343  36.415   6.170
 5638POPC   D2A71980   6.604  36.324   6.482
 5638POPC   C3A71981   6.442  36.182   6.847
 5638POPC   C4A71982   6.489  36.230   7.273
 5638POPC   C1B71983   6.988  36.052   6.306
 5638POPC   C2B71984   6.953  36.043   6.776
 5638POPC   C3B71985   6.958  36.025   7.228
 5638POPC   C4B71986   7.158  35.893   7.638
 5639POPC   NC371987   1.855  21.217   5.391
 5639POPC   PO471988   2.442  21.458   5.126
 5639POPC   GL171989   2.259  21.171   5.684
 5639POPC   GL271990   2.034  21.397   5.935
 5639POPC   C1A71991   2.431  21.179   6.139
 5639POPC   D2A71992   2.290  21.361   6.539
 5639POPC   C3A71993   2.130  21.338   6.978
 5639POPC   C4A71994   2.083  21.677   7.264
 5639POPC   C1B71995   2.040  21.747   6.305
 5639POPC   C2B71996   1.875  21.770   6.772
 5639POPC   C3B71997   1.637  21.520   7.071
 5639POPC   C4B71998   1.622  21.084   7.161
 5640POPC   NC371999  19.431   4.516   5.498
 5640POPC   PO472000  20.100   4.580   5.550
 5640POPC   GL172001  19.797   4.398   5.832
 5640POPC   GL272002  19.723   4.044   5.768
 5640POPC   C1A72003  19.802   4.337   6.262
 5640POPC   D2A72004  20.090   4.571   6.529
 5640POPC   C3A72005  19.931   4.523   6.936
 5640POPC   C4A72006  19.612   4.270   7.117
 5640POPC   C1B72007  20.130   4.011   6.010
 5640POPC   C2B72008  20.372   4.104   6.395
 5640POPC   C3B72009  20.169   4.076   6.795
 5640POPC   C4B72010  20.091   3.969   7.222
 5641POPC   NC372011  33.206  10.176   4.981
 5641POPC   PO472012  32.942  10.452   5.494
 5641POPC   GL172013  33.077  10.593   5.840
 5641POPC   GL272014  32.824  10.834   5.965
 5641POPC   C1A72015  33.317  10.532   6.190
 5641POPC   D2A72016  33.164  10.430   6.581
 5641POPC   C3A72017  33.211  10.667   6.952
 5641POPC   C4A72018  33.026  10.428   7.261
 5641POPC   C1B72019  32.737  10.495   6.209
 5641POPC   C2B72020  32.666  10.623   6.587
 5641POPC   C3B72021  32.697  10.725   6.966
 5641POPC   C4B72022  32.828  10.911   7.312
 5642POPC   NC372023  12.819  13.603   5.391
 5642POPC   PO472024  12.517  13.975   5.784
 5642POPC   GL172025  12.858  13.740   5.918
 5642POPC   GL272026  12.846  13.374   5.868
 5642POPC   C1A72027  12.983  13.730   6.352
 5642POPC   D2A72028  13.185  13.463   6.620
 5642POPC   C3A72029  13.208  13.568   7.027
 5642POPC   C4A72030  12.978  13.762   7.352
 5642POPC   C1B72031  12.589  13.427   6.221
 5642POPC   C2B72032  12.665  13.276   6.618
 5642POPC   C3B72033  12.766  13.335   7.045
 5642POPC   C4B72034  12.562  13.467   7.387
 5643POPC   NC372035  35.007   1.370   5.538
 5643POPC   PO472036  34.351   1.095   5.396
 5643POPC   GL172037  34.572   1.127   5.766
 5643POPC   GL272038  34.407   1.430   5.868
 5643POPC   C1A72039  34.505   1.058   6.209
 5643POPC   D2A72040  34.417   1.274   6.588
 5643POPC   C3A72041  34.715   1.054   6.861
 5643POPC   C4A72042  34.766   0.672   7.129
 5643POPC   C1B72043  34.762   1.532   6.184
 5643POPC   C2B72044  34.894   1.517   6.635
 5643POPC   C3B72045  34.612   1.542   6.978
 5643POPC   C4B72046  34.363   1.344   7.281
 5644POPC   NC372047  34.472  14.755   5.408
 5644POPC   PO472048  34.518  14.054   5.255
 5644POPC   GL172049  34.462  14.348   5.704
 5644POPC   GL272050  34.761  14.546   5.802
 5644POPC   C1A72051  34.471  14.295   6.177
 5644POPC   D2A72052  34.455  14.442   6.611
 5644POPC   C3A72053  34.393  14.108   6.948
 5644POPC   C4A72054  34.494  14.106   7.396
 5644POPC   C1B72055  34.557  14.797   6.160
 5644POPC   C2B72056  34.445  14.992   6.549
 5644POPC   C3B72057  34.264  14.839   6.886
 5644POPC   C4B72058  34.502  14.833   7.217
 5645POPC   NC372059  37.399  33.235   5.488
 5645POPC   PO472060  37.597  32.587   5.301
 5645POPC   GL172061  37.521  32.807   5.726
 5645POPC   GL272062  37.847  32.817   5.819
 5645POPC   C1A72063  37.594  33.092   6.135
 5645POPC   D2A72064  37.771  32.904   6.503
 5645POPC   C3A72065  37.759  33.067   6.887
 5645POPC   C4A72066  37.624  32.889   7.231
 5645POPC   C1B72067  38.042  32.637   6.171
 5645POPC   C2B72068  38.152  32.539   6.589
 5645POPC   C3B72069  38.152  32.725   6.992
 5645POPC   C4B72070  38.145  32.887   7.383
 5646POPC   NC372071  22.121   1.234   5.168
 5646POPC   PO472072  21.545   1.380   5.307
 5646POPC   GL172073  21.877   1.195   5.648
 5646POPC   GL272074  22.261   1.108   5.673
 5646POPC   C1A72075  21.959   1.129   6.101
 5646POPC   D2A72076  22.190   1.238   6.490
 5646POPC   C3A72077  22.131   0.981   6.840
 5646POPC   C4A72078  21.988   1.025   7.260
 5646POPC   C1B72079  22.493   1.281   6.069
 5646POPC   C2B72080  22.653   1.429   6.527
 5646POPC   C3B72081  22.507   1.330   6.984
 5646POPC   C4B72082  22.607   1.232   7.432
 5647POPC   NC372083  33.117   7.161   5.112
 5647POPC   PO472084  32.984   6.457   5.135
 5647POPC   GL172085  32.985   6.654   5.639
 5647POPC   GL272086  33.113   6.388   5.788
 5647POPC   C1A72087  33.070   6.760   6.136
 5647POPC   D2A72088  33.173   7.022   6.523
 5647POPC   C3A72089  33.282   6.868   6.952
 5647POPC   C4A72090  32.979   6.744   7.277
 5647POPC   C1B72091  33.019   6.274   6.213
 5647POPC   C2B72092  33.198   6.472   6.599
 5647POPC   C3B72093  33.199   6.324   7.034
 5647POPC   C4B72094  32.865   6.240   7.307
 5648POPC   NC372095   5.487   2.053   5.483
 5648POPC   PO472096   6.164   1.837   5.633
 5648POPC   GL172097   5.789   1.864   5.865
 5648POPC   GL272098   5.622   2.186   5.947
 5648POPC   C1A72099   5.743   1.614   6.242
 5648POPC   D2A72100   6.093   1.607   6.573
 5648POPC   C3A72101   6.037   1.905   6.928
 5648POPC   C4A72102   5.757   1.812   7.279
 5648POPC   C1B72103   5.896   2.121   6.310
 5648POPC   C2B72104   5.762   2.308   6.695
 5648POPC   C3B72105   5.715   2.304   7.142
 5648POPC   C4B72106   5.705   2.278   7.586
 5649POPC   NC372107  39.762  15.637   5.573
 5649POPC   PO472108  40.132  16.210   5.308
 5649POPC   GL172109  40.140  16.234   5.759
 5649POPC   GL272110  39.829  16.093   5.854
 5649POPC   C1A72111  40.300  16.183   6.190
 5649POPC   D2A72112  40.514  16.111   6.585
 5649POPC   C3A72113  40.314  16.194   6.963
 5649POPC   C4A72114  40.362  16.094   7.381
 5649POPC   C1B72115  39.911  15.836   6.236
 5649POPC   C2B72116  40.053  15.865   6.660
 5649POPC   C3B72117  39.838  15.819   7.050
 5649POPC   C4B72118  39.539  15.670   7.363
 5650POPC   NC372119  11.600  31.363   5.361
 5650POPC   PO472120  12.210  31.803   5.426
 5650POPC   GL172121  11.992  31.558   5.836
 5650POPC   GL272122  11.736  31.249   5.849
 5650POPC   C1A72123  12.183  31.554   6.227
 5650POPC   D2A72124  12.197  31.780   6.612
 5650POPC   C3A72125  12.408  31.733   7.004
 5650POPC   C4A72126  12.242  31.547   7.381
 5650POPC   C1B72127  11.942  31.096   6.222
 5650POPC   C2B72128  12.169  31.166   6.551
 5650POPC   C3B72129  12.124  31.294   6.937
 5650POPC   C4B72130  12.076  31.035   7.260
 5651POPC   NC372131  40.639  11.616   5.435
 5651POPC   PO472132  40.528  12.259   5.516
 5651POPC   GL172133  40.700  11.978   5.805
 5651POPC   GL272134  40.441  11.754   5.901
 5651POPC   C1A72135  40.881  11.883   6.235
 5651POPC   D2A72136  40.709  11.891   6.678
 5651POPC   C3A72137  40.953  11.958   7.081
 5651POPC   C4A72138  40.965  11.953   7.539
 5651POPC   C1B72139  40.418  12.106   6.223
 5651POPC   C2B72140  40.237  12.141   6.642
 5651POPC   C3B72141  40.417  12.091   7.096
 5651POPC   C4B72142  40.469  12.064   7.582
 5652POPC   NC372143  26.388   9.985   5.002
 5652POPC   PO472144  26.863   9.738   5.354
 5652POPC   GL172145  26.973   9.641   5.790
 5652POPC   GL272146  26.899  10.003   5.881
 5652POPC   C1A72147  26.795   9.591   6.227
 5652POPC   D2A72148  26.515   9.428   6.572
 5652POPC   C3A72149  26.703   9.587   6.984
 5652POPC   C4A72150  27.058   9.915   7.003
 5652POPC   C1B72151  26.561  10.065   6.197
 5652POPC   C2B72152  26.612   9.941   6.616
 5652POPC   C3B72153  26.625  10.180   6.964
 5652POPC   C4B72154  26.390  10.331   7.278
 5653POPC   NC372155   7.801  30.055   5.412
 5653POPC   PO472156   8.234  29.626   5.379
 5653POPC   GL172157   8.048  29.788   5.762
 5653POPC   GL272158   7.691  29.656   5.773
 5653POPC   C1A72159   8.265  30.031   6.110
 5653POPC   D2A72160   8.317  30.208   6.536
 5653POPC   C3A72161   8.171  30.087   6.937
 5653POPC   C4A72162   8.430  29.920   7.249
 5653POPC   C1B72163   7.925  29.496   6.160
 5653POPC   C2B72164   8.248  29.648   6.463
 5653POPC   C3B72165   8.228  29.583   6.915
 5653POPC   C4B72166   8.094  29.544   7.397
 5654POPC   NC372167  34.013  37.225   5.649
 5654POPC   PO472168  34.047  37.912   5.381
 5654POPC   GL172169  33.881  37.892   5.792
 5654POPC   GL272170  33.703  37.573   5.872
 5654POPC   C1A72171  33.916  37.904   6.235
 5654POPC   D2A72172  33.664  37.775   6.592
 5654POPC   C3A72173  33.881  37.609   6.928
 5654POPC   C4A72174  33.826  37.801   7.320
 5654POPC   C1B72175  33.846  37.394   6.294
 5654POPC   C2B72176  33.697  37.113   6.623
 5654POPC   C3B72177  33.606  37.036   7.041
 5654POPC   C4B72178  33.752  37.301   7.347
 5655POPC   NC372179  35.177   0.440   5.213
 5655POPC   PO472180  35.783   0.570   5.383
 5655POPC   GL172181  35.410   0.488   5.699
 5655POPC   GL272182  35.104   0.336   5.723
 5655POPC   C1A72183  35.300   0.621   6.154
 5655POPC   D2A72184  35.078   0.623   6.574
 5655POPC   C3A72185  35.279   0.695   6.974
 5655POPC   C4A72186  35.449   0.401   7.237
 5655POPC   C1B72187  35.145   0.112   6.152
 5655POPC   C2B72188  34.931   0.090   6.580
 5655POPC   C3B72189  35.011   0.223   7.019
 5655POPC   C4B72190  35.032   0.200   7.497
 5656POPC   NC372191  41.896  34.602   5.514
 5656POPC   PO472192  41.286  34.450   5.394
 5656POPC   GL172193  41.484  34.432   5.789
 5656POPC   GL272194  41.593  34.762   5.896
 5656POPC   C1A72195  41.603  34.323   6.198
 5656POPC   D2A72196  41.597  34.098   6.560
 5656POPC   C3A72197  41.578  34.343   6.993
 5656POPC   C4A72198  41.329  34.409   7.439
 5656POPC   C1B72199  41.763  34.799   6.314
 5656POPC   C2B72200  41.559  34.841   6.712
 5656POPC   C3B72201  41.724  34.824   7.129
 5656POPC   C4B72202  41.620  34.815   7.571
 5657POPC   NC372203  18.875  23.132   5.308
 5657POPC   PO472204  19.227  22.583   5.555
 5657POPC   GL172205  19.066  22.904   5.766
 5657POPC   GL272206  19.266  23.157   5.648
 5657POPC   C1A72207  18.900  23.007   6.177
 5657POPC   D2A72208  18.890  22.840   6.604
 5657POPC   C3A72209  18.741  22.967   7.006
 5657POPC   C4A72210  19.014  22.835   7.360
 5657POPC   C1B72211  19.243  23.364   6.045
 5657POPC   C2B72212  19.239  23.238   6.485
 5657POPC   C3B72213  19.197  23.155   6.902
 5657POPC   C4B72214  19.004  23.341   7.297
 5658POPC   NC372215   3.228  28.221   5.421
 5658POPC   PO472216   3.863  28.021   5.252
 5658POPC   GL172217   3.628  28.057   5.705
 5658POPC   GL272218   3.485  28.416   5.861
 5658POPC   C1A72219   3.736  28.088   6.162
 5658POPC   D2A72220   3.726  27.885   6.573
 5658POPC   C3A72221   3.797  28.182   6.899
 5658POPC   C4A72222   3.519  28.336   7.206
 5658POPC   C1B72223   3.426  28.714   6.271
 5658POPC   C2B72224   3.334  28.735   6.750
 5658POPC   C3B72225   3.233  28.750   7.224
 5658POPC   C4B72226   3.230  28.805   7.715
 5659POPC   NC372227  29.437   9.145   5.475
 5659POPC   PO472228  28.832   8.775   5.424
 5659POPC   GL172229  29.122   8.843   5.751
 5659POPC   GL272230  29.076   9.193   5.839
 5659POPC   C1A72231  29.396   8.880   6.117
 5659POPC   D2A72232  29.400   9.064   6.533
 5659POPC   C3A72233  29.315   8.890   6.941
 5659POPC   C4A72234  29.085   8.821   7.345
 5659POPC   C1B72235  29.063   9.405   6.236
 5659POPC   C2B72236  29.067   9.470   6.673
 5659POPC   C3B72237  29.110   9.350   7.111
 5659POPC   C4B72238  29.005   9.291   7.548
 5660POPC   NC372239   1.068   4.266   5.525
 5660POPC   PO472240   1.498   4.766   5.490
 5660POPC   GL172241   1.316   4.537   5.864
 5660POPC   GL272242   0.969   4.632   5.928
 5660POPC   C1A72243   1.385   4.255   6.253
 5660POPC   D2A72244   1.594   4.292   6.689
 5660POPC   C3A72245   1.290   4.231   6.985
 5660POPC   C4A72246   0.986   3.937   7.115
 5660POPC   C1B72247   1.273   4.760   6.313
 5660POPC   C2B72248   1.338   4.734   6.768
 5660POPC   C3B72249   1.329   4.675   7.213
 5660POPC   C4B72250   1.400   4.585   7.660
 5661POPC   NC372251  42.203  17.202   5.345
 5661POPC   PO472252  42.272  17.804   5.139
 5661POPC   GL172253  42.499  17.682   5.617
 5661POPC   GL272254  42.613  17.360   5.699
 5661POPC   C1A72255  42.461  17.620   6.138
 5661POPC   D2A72256  42.274  17.620   6.613
 5661POPC   C3A72257  42.360  17.742   7.073
 5661POPC   C4A72258  42.250  17.602   7.510
 5661POPC   C1B72259  42.673  17.122   6.106
 5661POPC   C2B72260  42.512  17.153   6.545
 5661POPC   C3B72261  42.343  17.239   6.982
 5661POPC   C4B72262  42.661  17.337   7.276
 5662POPC   NC372263  42.924  41.736   5.322
 5662POPC   PO472264  43.491  41.490   5.480
 5662POPC   GL172265  43.184  41.683   5.783
 5662POPC   GL272266  43.176  41.346   5.924
 5662POPC   C1A72267  42.979  41.705   6.209
 5662POPC   D2A72268  43.029  41.345   6.525
 5662POPC   C3A72269  43.032  41.498   6.963
 5662POPC   C4A72270  42.992  41.462   7.408
 5662POPC   C1B72271  43.447  41.495   6.302
 5662POPC   C2B72272  43.498  41.421   6.776
 5662POPC   C3B72273  43.406  41.192   7.168
 5662POPC   C4B72274  43.304  41.121   7.588
 5663POPC   NC372275   8.172   6.978   5.419
 5663POPC   PO472276   7.880   6.307   5.452
 5663POPC   GL172277   8.032   6.571   5.821
 5663POPC   GL272278   8.281   6.850   5.893
 5663POPC   C1A72279   8.143   6.452   6.258
 5663POPC   D2A72280   8.388   6.461   6.653
 5663POPC   C3A72281   8.124   6.415   7.028
 5663POPC   C4A72282   7.924   6.657   7.347
 5663POPC   C1B72283   8.568   7.062   6.189
 5663POPC   C2B72284   8.700   6.926   6.620
 5663POPC   C3B72285   8.615   7.110   7.035
 5663POPC   C4B72286   8.353   6.948   7.404
 5664POPC   NC372287   8.613  20.563   5.361
 5664POPC   PO472288   9.161  20.923   5.212
 5664POPC   GL172289   8.913  20.811   5.682
 5664POPC   GL272290   8.889  20.476   5.775
 5664POPC   C1A72291   9.069  20.737   6.178
 5664POPC   D2A72292   8.965  20.865   6.580
 5664POPC   C3A72293   9.136  20.754   6.932
 5664POPC   C4A72294   8.787  20.722   7.177
 5664POPC   C1B72295   8.716  20.370   6.164
 5664POPC   C2B72296   8.970  20.364   6.538
 5664POPC   C3B72297   8.932  20.279   6.954
 5664POPC   C4B72298   9.307  20.303   7.111
 5665POPC   NC372299   9.936  41.034   5.444
 5665POPC   PO472300   9.953  40.375   5.541
 5665POPC   GL172301   9.853  40.453   5.940
 5665POPC   GL272302   9.706  40.779   5.885
 5665POPC   C1A72303   9.952  40.711   6.296
 5665POPC   D2A72304   9.667  40.794   6.604
 5665POPC   C3A72305   9.905  40.942   6.931
 5665POPC   C4A72306   9.787  40.959   7.351
 5665POPC   C1B72307   9.431  41.001   6.171
 5665POPC   C2B72308   9.401  41.226   6.579
 5665POPC   C3B72309   9.426  41.124   7.011
 5665POPC   C4B72310   9.363  40.690   7.161
 5666POPC   NC372311  26.551   0.515   5.358
 5666POPC   PO472312  27.083   0.102   5.334
 5666POPC   GL172313  26.888   0.290   5.704
 5666POPC   GL272314  26.840   0.671   5.769
 5666POPC   C1A72315  26.701   0.315   6.109
 5666POPC   D2A72316  26.892   0.308   6.520
 5666POPC   C3A72317  26.755   0.388   6.961
 5666POPC   C4A72318  27.069   0.269   7.288
 5666POPC   C1B72319  26.631   0.822   6.166
 5666POPC   C2B72320  26.720   0.780   6.610
 5666POPC   C3B72321  26.819   0.923   7.013
 5666POPC   C4B72322  26.719   0.836   7.419
 5667POPC   NC372323   7.824  12.855   5.520
 5667POPC   PO472324   7.224  13.210   5.570
 5667POPC   GL172325   7.432  12.959   5.857
 5667POPC   GL272326   7.668  13.196   5.944
 5667POPC   C1A72327   7.521  12.830   6.276
 5667POPC   D2A72328   7.254  12.709   6.593
 5667POPC   C3A72329   7.491  12.608   6.909
 5667POPC   C4A72330   7.651  12.699   7.301
 5667POPC   C1B72331   7.330  13.324   6.237
 5667POPC   C2B72332   7.377  13.209   6.656
 5667POPC   C3B72333   7.505  13.132   7.055
 5667POPC   C4B72334   7.535  13.471   7.309
 5668POPC   NC372335  34.477  42.463   5.245
 5668POPC   PO472336  35.025  42.204   5.595
 5668POPC   GL172337  34.738  42.386   5.896
 5668POPC   GL272338  34.422  42.534   5.760
 5668POPC   C1A72339  34.569  42.279   6.309
 5668POPC   D2A72340  34.470  42.407   6.722
 5668POPC   C3A72341  34.782  42.327   7.032
 5668POPC   C4A72342  34.762  42.251   7.544
 5668POPC   C1B72343  34.348  42.717   6.173
 5668POPC   C2B72344  34.088  42.729   6.557
 5668POPC   C3B72345  34.074  42.633   6.977
 5668POPC   C4B72346  34.375  42.473   7.298
 5669POPC   NC372347   9.857  17.760   5.195
 5669POPC   PO472348   9.819  18.441   5.416
 5669POPC   GL172349   9.937  18.340   5.841
 5669POPC   GL272350   9.596  18.337   5.961
 5669POPC   C1A72351  10.020  18.471   6.287
 5669POPC   D2A72352   9.743  18.438   6.662
 5669POPC   C3A72353   9.829  18.147   6.979
 5669POPC   C4A72354  10.188  18.025   7.225
 5669POPC   C1B72355   9.531  18.698   6.267
 5669POPC   C2B72356   9.311  18.703   6.707
 5669POPC   C3B72357   9.449  18.509   7.098
 5669POPC   C4B72358   9.329  18.624   7.547
 5670POPC   NC372359  28.707   1.787   5.469
 5670POPC   PO472360  28.082   1.885   5.514
 5670POPC   GL172361  28.110   2.017   5.909
 5670POPC   GL272362  28.428   1.975   5.885
 5670POPC   C1A72363  28.228   2.132   6.317
 5670POPC   D2A72364  28.381   2.318   6.629
 5670POPC   C3A72365  28.371   2.041   6.937
 5670POPC   C4A72366  28.076   1.759   7.148
 5670POPC   C1B72367  28.682   1.673   6.127
 5670POPC   C2B72368  28.617   1.767   6.549
 5670POPC   C3B72369  28.498   1.547   6.913
 5670POPC   C4B72370  28.586   1.744   7.285
 5671POPC   NC372371  35.816   7.032   5.519
 5671POPC   PO472372  36.194   7.401   5.169
 5671POPC   GL172373  36.183   7.585   5.661
 5671POPC   GL272374  36.183   7.231   5.826
 5671POPC   C1A72375  36.116   7.594   6.157
 5671POPC   D2A72376  36.266   7.276   6.496
 5671POPC   C3A72377  36.359   7.382   6.912
 5671POPC   C4A72378  36.226   7.722   7.186
 5671POPC   C1B72379  35.850   7.176   6.166
 5671POPC   C2B72380  35.839   7.000   6.546
 5671POPC   C3B72381  35.696   7.201   6.870
 5671POPC   C4B72382  35.937   7.294   7.192
 5672POPC   NC372383  19.409   9.186   5.504
 5672POPC   PO472384  19.977   8.659   5.426
 5672POPC   GL172385  19.878   8.691   5.840
 5672POPC   GL272386  19.558   8.821   5.841
 5672POPC   C1A72387  19.871   9.004   6.191
 5672POPC   D2A72388  19.735   9.280   6.515
 5672POPC   C3A72389  19.937   9.121   6.860
 5672POPC   C4A72390  19.931   9.297   7.234
 5672POPC   C1B72391  19.502   8.635   6.222
 5672POPC   C2B72392  19.580   8.784   6.629
 5672POPC   C3B72393  19.472   8.601   6.999
 5672POPC   C4B72394  19.639   8.744   7.305
 5673POPC   NC372395  39.675  26.233   5.423
 5673POPC   PO472396  40.077  25.759   5.545
 5673POPC   GL172397  40.026  25.918   5.936
 5673POPC   GL272398  39.896  26.245   5.904
 5673POPC   C1A72399  39.849  25.911   6.337
 5673POPC   D2A72400  39.751  25.880   6.771
 5673POPC   C3A72401  40.122  25.994   7.016
 5673POPC   C4A72402  40.462  25.957   7.305
 5673POPC   C1B72403  40.203  26.326   6.243
 5673POPC   C2B72404  40.188  26.421   6.686
 5673POPC   C3B72405  39.811  26.399   6.930
 5673POPC   C4B72406  39.623  26.589   7.282
 5674POPC   NC372407  35.211  25.449   5.360
 5674POPC   PO472408  35.827  25.122   5.255
 5674POPC   GL172409  35.543  25.044   5.651
 5674POPC   GL272410  35.266  25.266   5.818
 5674POPC   C1A72411  35.531  25.013   6.150
 5674POPC   D2A72412  35.523  25.443   6.405
 5674POPC   C3A72413  35.478  25.436   6.872
 5674POPC   C4A72414  35.280  25.387   7.284
 5674POPC   C1B72415  35.037  25.281   6.207
 5674POPC   C2B72416  34.871  25.427   6.592
 5674POPC   C3B72417  34.884  25.538   7.016
 5674POPC   C4B72418  34.790  25.318   7.416
 5675POPC   NC372419  33.182  39.954   5.622
 5675POPC   PO472420  33.191  39.381   5.334
 5675POPC   GL172421  33.180  39.438   5.783
 5675POPC   GL272422  32.859  39.478   5.865
 5675POPC   C1A72423  33.110  39.171   6.174
 5675POPC   D2A72424  32.952  39.202   6.579
 5675POPC   C3A72425  33.201  39.038   6.900
 5675POPC   C4A72426  32.988  39.027   7.265
 5675POPC   C1B72427  32.652  39.459   6.233
 5675POPC   C2B72428  32.702  39.640   6.632
 5675POPC   C3B72429  32.870  39.479   7.028
 5675POPC   C4B72430  32.822  39.479   7.484
 5676POPC   NC372431  18.552  16.044   5.445
 5676POPC   PO472432  18.136  15.554   5.508
 5676POPC   GL172433  18.162  15.845   5.836
 5676POPC   GL272434  18.119  16.201   5.814
 5676POPC   C1A72435  18.414  15.911   6.190
 5676POPC   D2A72436  18.273  15.971   6.634
 5676POPC   C3A72437  18.403  16.061   7.055
 5676POPC   C4A72438  18.537  15.800   7.354
 5676POPC   C1B72439  18.005  16.204   6.235
 5676POPC   C2B72440  17.802  16.173   6.641
 5676POPC   C3B72441  17.902  15.983   7.024
 5676POPC   C4B72442  18.166  15.597   7.068
 5677POPC   NC372443  32.450  43.919   5.430
 5677POPC   PO472444  31.704  43.830   5.403
 5677POPC   GL172445  32.040  43.935   5.794
 5677POPC   GL272446  32.387  43.757   5.900
 5677POPC   C1A72447  32.236  44.130   6.201
 5677POPC   D2A72448  32.364  44.011   6.626
 5677POPC   C3A72449  32.154  44.078   7.021
 5677POPC   C4A72450  31.973  44.038   7.423
 5677POPC   C1B72451  32.102  43.487   6.121
 5677POPC   C2B72452  32.136  43.320   6.516
 5677POPC   C3B72453  32.189  43.584   6.845
 5677POPC   C4B72454  32.021  43.572   7.218
 5678POPC   NC372455   4.646   0.723   5.539
 5678POPC   PO472456   4.220   0.255   5.404
 5678POPC   GL172457   4.328   0.339   5.789
 5678POPC   GL272458   4.113   0.662   5.759
 5678POPC   C1A72459   4.388   0.133   6.210
 5678POPC   D2A72460   4.647   0.330   6.531
 5678POPC   C3A72461   4.547   0.335   6.937
 5678POPC   C4A72462   4.588   0.605   7.252
 5678POPC   C1B72463   4.250   0.640   6.186
 5678POPC   C2B72464   4.149   0.468   6.568
 5678POPC   C3B72465   4.213   0.712   6.899
 5678POPC   C4B72466   4.053   0.700   7.249
 5679POPC   NC372467   7.757   5.850   5.467
 5679POPC   PO472468   7.187   6.133   5.538
 5679POPC   GL172469   7.478   6.086   5.854
 5679POPC   GL272470   7.480   5.692   5.863
 5679POPC   C1A72471   7.320   6.261   6.255
 5679POPC   D2A72472   7.210   6.021   6.631
 5679POPC   C3A72473   7.530   6.104   6.929
 5679POPC   C4A72474   7.373   6.157   7.320
 5679POPC   C1B72475   7.529   5.794   6.290
 5679POPC   C2B72476   7.743   5.590   6.608
 5679POPC   C3B72477   7.587   5.454   6.935
 5679POPC   C4B72478   7.267   5.692   7.061
 5680POPC   NC372479   5.026   4.174   5.454
 5680POPC   PO472480   5.132   4.769   5.566
 5680POPC   GL172481   4.876   4.537   5.900
 5680POPC   GL272482   4.790   4.168   5.889
 5680POPC   C1A72483   4.974   4.387   6.344
 5680POPC   D2A72484   5.340   4.295   6.633
 5680POPC   C3A72485   5.262   4.504   7.025
 5680POPC   C4A72486   4.941   4.471   7.349
 5680POPC   C1B72487   4.913   3.882   6.188
 5680POPC   C2B72488   4.762   3.876   6.577
 5680POPC   C3B72489   4.970   4.073   6.940
 5680POPC   C4B72490   5.000   3.951   7.370
 5681POPC   NC372491  27.529   5.143   5.264
 5681POPC   PO472492  27.774   4.544   5.427
 5681POPC   GL172493  27.615   4.864   5.755
 5681POPC   GL272494  27.441   5.172   5.785
 5681POPC   C1A72495  27.357   4.794   6.156
 5681POPC   D2A72496  27.436   4.563   6.561
 5681POPC   C3A72497  27.395   4.801   6.970
 5681POPC   C4A72498  27.313   4.805   7.420
 5681POPC   C1B72499  27.632   5.231   6.177
 5681POPC   C2B72500  27.685   5.040   6.585
 5681POPC   C3B72501  27.719   5.215   7.002
 5681POPC   C4B72502  27.817   5.328   7.418
 5682POPC   NC372503  21.167  32.491   5.345
 5682POPC   PO472504  21.071  31.770   5.507
 5682POPC   GL172505  21.286  32.094   5.787
 5682POPC   GL272506  21.343  32.468   5.812
 5682POPC   C1A72507  21.091  32.232   6.180
 5682POPC   D2A72508  21.243  32.058   6.538
 5682POPC   C3A72509  21.244  31.872   6.908
 5682POPC   C4A72510  21.324  32.037   7.275
 5682POPC   C1B72511  21.582  32.295   6.166
 5682POPC   C2B72512  21.583  32.428   6.557
 5682POPC   C3B72513  21.623  32.265   6.933
 5682POPC   C4B72514  21.704  32.420   7.328
 5683POPC   NC372515  32.941  44.982   5.304
 5683POPC   PO472516  33.367   0.462   5.283
 5683POPC   GL172517  33.056   0.502   5.620
 5683POPC   GL272518  33.008   0.203   5.799
 5683POPC   C1A72519  33.004   0.687   6.043
 5683POPC   D2A72520  33.044   0.682   6.523
 5683POPC   C3A72521  32.866   0.633   6.971
 5683POPC   C4A72522  33.011   0.496   7.405
 5683POPC   C1B72523  32.774   0.257   6.211
 5683POPC   C2B72524  32.677   0.024   6.619
 5683POPC   C3B72525  32.779   0.107   7.085
 5683POPC   C4B72526  32.758   0.087   7.590
 5684POPC   NC372527   9.765  38.910   5.551
 5684POPC   PO472528   9.603  39.510   5.590
 5684POPC   GL172529   9.472  39.194   5.865
 5684POPC   GL272530   9.798  39.211   5.984
 5684POPC   C1A72531   9.439  39.105   6.325
 5684POPC   D2A72532   9.516  39.416   6.670
 5684POPC   C3A72533   9.525  39.275   7.083
 5684POPC   C4A72534   9.832  39.078   7.314
 5684POPC   C1B72535   9.953  39.062   6.352
 5684POPC   C2B72536   9.881  39.043   6.775
 5684POPC   C3B72537  10.211  38.975   6.996
 5684POPC   C4B72538  10.357  39.291   7.202
 5685POPC   NC372539  15.139   0.259   5.531
 5685POPC   PO472540  15.030   0.898   5.672
 5685POPC   GL172541  15.116   0.585   5.947
 5685POPC   GL272542  15.413   0.430   5.919
 5685POPC   C1A72543  15.073   0.393   6.332
 5685POPC   D2A72544  14.922   0.231   6.676
 5685POPC   C3A72545  15.017   0.540   6.981
 5685POPC   C4A72546  15.324   0.490   7.308
 5685POPC   C1B72547  15.571   0.384   6.330
 5685POPC   C2B72548  15.440   0.288   6.769
 5685POPC   C3B72549  15.568   0.025   7.110
 5685POPC   C4B72550  15.742   0.239   7.458
 5686POPC   NC372551  27.122  16.620   5.542
 5686POPC   PO472552  26.576  16.906   5.533
 5686POPC   GL172553  26.718  16.706   5.893
 5686POPC   GL272554  27.054  16.781   6.012
 5686POPC   C1A72555  26.624  16.723   6.320
 5686POPC   D2A72556  26.922  16.936   6.566
 5686POPC   C3A72557  26.860  16.882   6.994
 5686POPC   C4A72558  27.036  17.063   7.336
 5686POPC   C1B72559  27.065  16.468   6.320
 5686POPC   C2B72560  26.856  16.401   6.714
 5686POPC   C3B72561  26.867  16.388   7.165
 5686POPC   C4B72562  26.470  16.358   7.332
 5687POPC   NC372563  39.590  34.134   5.655
 5687POPC   PO472564  40.001  33.708   5.205
 5687POPC   GL172565  40.002  33.500   5.730
 5687POPC   GL272566  39.654  33.581   5.768
 5687POPC   C1A72567  40.095  33.649   6.186
 5687POPC   D2A72568  39.972  34.030   6.397
 5687POPC   C3A72569  40.041  34.035   6.865
 5687POPC   C4A72570  39.738  34.056   7.213
 5687POPC   C1B72571  39.589  33.625   6.210
 5687POPC   C2B72572  39.797  33.610   6.637
 5687POPC   C3B72573  39.976  33.557   7.050
 5687POPC   C4B72574  40.219  33.373   7.390
 5688POPC   NC372575  44.042  35.437   5.562
 5688POPC   PO472576  44.586  35.290   5.354
 5688POPC   GL172577  44.476  35.376   5.838
 5688POPC   GL272578  44.172  35.204   5.992
 5688POPC   C1A72579  44.448  35.508   6.293
 5688POPC   D2A72580  44.303  35.542   6.727
 5688POPC   C3A72581  44.638  35.464   7.039
 5688POPC   C4A72582  44.984  35.599   7.324
 5688POPC   C1B72583  44.216  35.055   6.428
 5688POPC   C2B72584  44.494  35.054   6.762
 5688POPC   C3B72585  44.720  34.927   7.126
 5688POPC   C4B72586  44.660  34.657   7.502
 5689POPC   NC372587   9.241  16.973   5.165
 5689POPC   PO472588   8.846  16.428   5.261
 5689POPC   GL172589   8.857  16.524   5.769
 5689POPC   GL272590   8.612  16.333   5.916
 5689POPC   C1A72591   9.110  16.631   6.216
 5689POPC   D2A72592   9.429  16.591   6.591
 5689POPC   C3A72593   9.168  16.564   6.991
 5689POPC   C4A72594   9.004  16.781   7.340
 5689POPC   C1B72595   8.601  16.555   6.284
 5689POPC   C2B72596   8.772  16.571   6.675
 5689POPC   C3B72597   8.618  16.499   7.076
 5689POPC   C4B72598   8.522  16.671   7.468
 5690POPC   NC372599  20.498   5.932   5.392
 5690POPC   PO472600  21.073   5.555   5.370
 5690POPC   GL172601  20.858   5.778   5.722
 5690POPC   GL272602  20.579   5.582   5.795
 5690POPC   C1A72603  20.713   5.940   6.154
 5690POPC   D2A72604  20.656   5.757   6.575
 5690POPC   C3A72605  20.576   5.933   6.982
 5690POPC   C4A72606  20.840   6.101   7.276
 5690POPC   C1B72607  20.396   5.511   6.180
 5690POPC   C2B72608  20.259   5.461   6.604
 5690POPC   C3B72609  20.431   5.424   7.054
 5690POPC   C4B72610  20.432   5.252   7.500
 5691POPC   NC372611  18.696  25.945   5.259
 5691POPC   PO472612  18.107  25.740   5.462
 5691POPC   GL172613  18.414  25.917   5.750
 5691POPC   GL272614  18.752  25.817   5.779
 5691POPC   C1A72615  18.382  26.091   6.175
 5691POPC   D2A72616  18.081  26.070   6.483
 5691POPC   C3A72617  18.161  25.916   6.883
 5691POPC   C4A72618  18.212  26.167   7.240
 5691POPC   C1B72619  18.570  25.632   6.178
 5691POPC   C2B72620  18.603  25.811   6.609
 5691POPC   C3B72621  18.599  25.715   7.060
 5691POPC   C4B72622  18.558  25.864   7.499
 5692POPC   NC372623  15.207  31.575   5.449
 5692POPC   PO472624  14.853  31.144   5.830
 5692POPC   GL172625  15.208  31.451   5.920
 5692POPC   GL272626  15.073  31.766   5.991
 5692POPC   C1A72627  15.543  31.717   6.164
 5692POPC   D2A72628  15.555  31.968   6.555
 5692POPC   C3A72629  15.410  31.615   6.824
 5692POPC   C4A72630  15.431  31.610   7.256
 5692POPC   C1B72631  15.083  31.494   6.401
 5692POPC   C2B72632  14.933  31.376   6.825
 5692POPC   C3B72633  14.918  31.659   7.161
 5692POPC   C4B72634  15.069  31.794   7.570
 5693POPC   NC372635  29.542   1.190   5.536
 5693POPC   PO472636  28.958   1.436   5.301
 5693POPC   GL172637  28.880   1.382   5.732
 5693POPC   GL272638  29.195   1.410   5.827
 5693POPC   C1A72639  28.883   1.083   6.084
 5693POPC   D2A72640  29.096   0.954   6.502
 5693POPC   C3A72641  29.074   1.271   6.788
 5693POPC   C4A72642  28.868   1.332   7.175
 5693POPC   C1B72643  29.344   1.298   6.218
 5693POPC   C2B72644  29.568   1.146   6.578
 5693POPC   C3B72645  29.466   0.925   6.929
 5693POPC   C4B72646  29.314   1.119   7.237
 5694POPC   NC372647  32.351   1.606   5.471
 5694POPC   PO472648  32.527   0.996   5.379
 5694POPC   GL172649  32.360   1.032   5.780
 5694POPC   GL272650  32.018   1.142   5.759
 5694POPC   C1A72651  32.347   1.267   6.173
 5694POPC   D2A72652  32.422   1.558   6.512
 5694POPC   C3A72653  32.290   1.353   6.897
 5694POPC   C4A72654  32.493   0.988   7.071
 5694POPC   C1B72655  32.005   0.882   6.146
 5694POPC   C2B72656  32.168   0.948   6.591
 5694POPC   C3B72657  31.931   1.011   7.013
 5694POPC   C4B72658  31.874   1.245   7.432
 5695POPC   NC372659   6.328   9.904   5.511
 5695POPC   PO472660   6.893   9.636   5.499
 5695POPC   GL172661   6.664   9.726   5.856
 5695POPC   GL272662   6.384   9.476   5.816
 5695POPC   C1A72663   6.702   9.981   6.220
 5695POPC   D2A72664   6.844  10.170   6.598
 5695POPC   C3A72665   6.528  10.101   6.914
 5695POPC   C4A72666   6.577   9.951   7.340
 5695POPC   C1B72667   6.252   9.729   6.172
 5695POPC   C2B72668   6.414   9.714   6.582
 5695POPC   C3B72669   6.502   9.573   7.002
 5695POPC   C4B72670   6.231   9.575   7.378
 5696POPC   NC372671  35.797  34.980   5.525
 5696POPC   PO472672  36.237  35.416   5.221
 5696POPC   GL172673  36.285  35.304   5.675
 5696POPC   GL272674  35.962  35.380   5.814
 5696POPC   C1A72675  36.336  35.076   6.071
 5696POPC   D2A72676  36.200  34.999   6.494
 5696POPC   C3A72677  36.366  35.121   6.889
 5696POPC   C4A72678  36.197  35.362   7.241
 5696POPC   C1B72679  35.736  35.239   6.181
 5696POPC   C2B72680  35.723  35.199   6.619
 5696POPC   C3B72681  35.826  35.097   7.021
 5696POPC   C4B72682  35.670  35.095   7.480
 5697POPC   NC372683  41.900  22.264   5.530
 5697POPC   PO472684  41.553  22.850   5.204
 5697POPC   GL172685  41.647  22.981   5.632
 5697POPC   GL272686  41.325  23.043   5.816
 5697POPC   C1A72687  41.739  22.954   6.087
 5697POPC   D2A72688  41.519  22.940   6.492
 5697POPC   C3A72689  41.661  22.804   6.870
 5697POPC   C4A72690  41.388  22.680   7.193
 5697POPC   C1B72691  41.428  23.338   6.190
 5697POPC   C2B72692  41.352  23.408   6.621
 5697POPC   C3B72693  41.317  23.168   6.976
 5697POPC   C4B72694  41.535  23.234   7.348
 5698POPC   NC372695  16.417  43.325   5.335
 5698POPC   PO472696  16.827  42.749   5.405
 5698POPC   GL172697  16.694  42.813   5.812
 5698POPC   GL272698  16.408  42.969   5.726
 5698POPC   C1A72699  16.776  42.863   6.260
 5698POPC   D2A72700  17.017  43.072   6.574
 5698POPC   C3A72701  16.797  42.997   6.942
 5698POPC   C4A72702  16.424  42.865   7.124
 5698POPC   C1B72703  16.543  43.257   6.054
 5698POPC   C2B72704  16.452  43.224   6.516
 5698POPC   C3B72705  16.450  43.373   6.970
 5698POPC   C4B72706  16.187  43.317   7.336
 5699POPC   NC372707  13.904  11.412   5.650
 5699POPC   PO472708  13.526  11.264   5.087
 5699POPC   GL172709  13.350  11.365   5.697
 5699POPC   GL272710  13.450  11.584   5.926
 5699POPC   C1A72711  13.342  11.178   6.171
 5699POPC   D2A72712  13.479  11.421   6.578
 5699POPC   C3A72713  13.776  11.186   6.850
 5699POPC   C4A72714  14.085  11.356   7.181
 5699POPC   C1B72715  13.613  11.821   6.256
 5699POPC   C2B72716  13.740  11.933   6.645
 5699POPC   C3B72717  13.703  11.663   6.984
 5699POPC   C4B72718  13.350  11.371   7.099
 5700POPC   NC372719   9.304  37.380   5.417
 5700POPC   PO472720   8.889  37.823   5.218
 5700POPC   GL172721   8.925  37.767   5.703
 5700POPC   GL272722   8.643  37.586   5.844
 5700POPC   C1A72723   8.890  38.014   6.143
 5700POPC   D2A72724   8.816  38.188   6.600
 5700POPC   C3A72725   8.988  37.930   6.945
 5700POPC   C4A72726   9.207  37.585   7.178
 5700POPC   C1B72727   8.991  37.499   6.143
 5700POPC   C2B72728   9.075  37.543   6.578
 5700POPC   C3B72729   8.796  37.464   6.899
 5700POPC   C4B72730   8.797  37.241   7.271
 5701POPC   NC372731  26.915   7.425   5.330
 5701POPC   PO472732  26.399   7.028   5.462
 5701POPC   GL172733  26.568   7.267   5.823
 5701POPC   GL272734  26.783   7.579   5.810
 5701POPC   C1A72735  26.551   7.333   6.268
 5701POPC   D2A72736  26.758   7.075   6.574
 5701POPC   C3A72737  26.778   7.279   6.946
 5701POPC   C4A72738  26.806   7.363   7.350
 5701POPC   C1B72739  26.959   7.676   6.244
 5701POPC   C2B72740  26.735   7.709   6.664
 5701POPC   C3B72741  26.945   7.766   7.060
 5701POPC   C4B72742  27.126   7.749   7.488
 5702POPC   NC372743  37.239  34.351   5.371
 5702POPC   PO472744  36.661  34.647   5.264
 5702POPC   GL172745  36.664  34.760   5.713
 5702POPC   GL272746  36.935  34.517   5.797
 5702POPC   C1A72747  36.586  34.613   6.167
 5702POPC   D2A72748  36.775  34.467   6.591
 5702POPC   C3A72749  36.756  34.706   7.010
 5702POPC   C4A72750  36.840  34.487   7.432
 5702POPC   C1B72751  37.124  34.603   6.210
 5702POPC   C2B72752  37.314  34.412   6.589
 5702POPC   C3B72753  37.123  34.337   6.990
 5702POPC   C4B72754  37.297  34.228   7.412
 5703POPC   NC372755   9.252  27.992   5.546
 5703POPC   PO472756   8.967  27.345   5.412
 5703POPC   GL172757   8.686  27.427   5.762
 5703POPC   GL272758   8.878  27.711   5.795
 5703POPC   C1A72759   8.612  27.434   6.184
 5703POPC   D2A72760   8.916  27.513   6.489
 5703POPC   C3A72761   8.900  27.384   6.916
 5703POPC   C4A72762   9.165  27.435   7.261
 5703POPC   C1B72763   8.857  27.919   6.155
 5703POPC   C2B72764   8.932  28.017   6.562
 5703POPC   C3B72765   8.805  28.119   6.939
 5703POPC   C4B72766   8.980  27.936   7.262
 5704POPC   NC372767  28.435  42.485   5.369
 5704POPC   PO472768  28.654  41.833   5.482
 5704POPC   GL172769  28.360  42.100   5.775
 5704POPC   GL272770  28.329  42.487   5.862
 5704POPC   C1A72771  28.174  42.045   6.192
 5704POPC   D2A72772  28.422  41.946   6.575
 5704POPC   C3A72773  28.373  42.097   6.999
 5704POPC   C4A72774  28.710  42.194   7.334
 5704POPC   C1B72775  28.527  42.419   6.271
 5704POPC   C2B72776  28.652  42.439   6.702
 5704POPC   C3B72777  28.457  42.581   7.081
 5704POPC   C4B72778  28.166  42.793   7.258
 5705POPC   NC372779  32.270  12.245   5.117
 5705POPC   PO472780  32.326  12.185   5.703
 5705POPC   GL172781  32.105  11.926   5.948
 5705POPC   GL272782  31.909  11.729   5.771
 5705POPC   C1A72783  32.058  12.064   6.350
 5705POPC   D2A72784  32.166  12.405   6.603
 5705POPC   C3A72785  32.229  12.187   6.977
 5705POPC   C4A72786  32.684  12.125   7.086
 5705POPC   C1B72787  31.710  11.665   6.185
 5705POPC   C2B72788  31.802  11.706   6.610
 5705POPC   C3B72789  31.766  11.880   7.024
 5705POPC   C4B72790  31.905  11.767   7.407
 5706POPC   NC372791   8.959  17.580   5.004
 5706POPC   PO472792   9.324  17.592   5.601
 5706POPC   GL172793   9.078  17.515   5.976
 5706POPC   GL272794   8.737  17.656   5.875
 5706POPC   C1A72795   9.110  17.198   6.310
 5706POPC   D2A72796   9.106  16.961   6.690
 5706POPC   C3A72797   9.101  17.226   7.064
 5706POPC   C4A72798   9.160  17.667   7.211
 5706POPC   C1B72799   8.653  17.443   6.272
 5706POPC   C2B72800   8.733  17.277   6.683
 5706POPC   C3B72801   8.666  17.501   7.110
 5706POPC   C4B72802   8.409  17.642   7.450
 5707POPC   NC372803  43.720  16.050   5.297
 5707POPC   PO472804  43.615  15.402   5.460
 5707POPC   GL172805  43.772  15.735   5.810
 5707POPC   GL272806  43.840  16.129   5.787
 5707POPC   C1A72807  43.930  15.855   6.245
 5707POPC   D2A72808  44.103  15.876   6.696
 5707POPC   C3A72809  43.905  15.874   7.107
 5707POPC   C4A72810  43.617  15.569   7.180
 5707POPC   C1B72811  43.848  16.375   6.174
 5707POPC   C2B72812  43.786  16.261   6.601
 5707POPC   C3B72813  44.010  16.352   6.967
 5707POPC   C4B72814  43.911  16.380   7.437
 5708POPC   NC372815   7.918   1.835   5.648
 5708POPC   PO472816   8.502   1.569   5.560
 5708POPC   GL172817   8.351   1.914   5.902
 5708POPC   GL272818   8.361   2.286   5.759
 5708POPC   C1A72819   8.181   1.848   6.389
 5708POPC   D2A72820   8.110   1.612   6.843
 5708POPC   C3A72821   7.896   1.881   7.123
 5708POPC   C4A72822   7.800   2.236   6.819
 5708POPC   C1B72823   8.445   2.321   6.213
 5708POPC   C2B72824   8.516   2.160   6.633
 5708POPC   C3B72825   8.294   2.192   7.013
 5708POPC   C4B72826   8.341   2.008   7.418
 5709POPC   NC372827   4.245  38.119   5.549
 5709POPC   PO472828   4.307  38.551   5.012
 5709POPC   GL172829   4.573  38.585   5.507
 5709POPC   GL272830   4.705  38.310   5.690
 5709POPC   C1A72831   4.469  38.592   6.046
 5709POPC   D2A72832   4.105  38.374   6.297
 5709POPC   C3A72833   4.044  38.347   6.758
 5709POPC   C4A72834   4.150  38.199   7.181
 5709POPC   C1B72835   4.659  38.134   6.148
 5709POPC   C2B72836   4.595  38.304   6.586
 5709POPC   C3B72837   4.688  38.203   7.027
 5709POPC   C4B72838   4.757  37.901   7.370
 5710POPC   NC372839  41.657  13.045   5.446
 5710POPC   PO472840  42.393  13.019   5.366
 5710POPC   GL172841  42.395  12.824   5.783
 5710POPC   GL272842  42.045  12.896   5.769
 5710POPC   C1A72843  42.581  12.740   6.206
 5710POPC   D2A72844  42.684  12.778   6.675
 5710POPC   C3A72845  42.521  12.436   6.987
 5710POPC   C4A72846  42.383  12.647   7.396
 5710POPC   C1B72847  42.018  12.758   6.180
 5710POPC   C2B72848  42.210  12.633   6.563
 5710POPC   C3B72849  42.199  12.819   6.932
 5710POPC   C4B72850  41.938  12.595   7.172
 5711POPC   NC372851  36.064  28.572   5.345
 5711POPC   PO472852  36.528  28.751   5.728
 5711POPC   GL172853  36.100  28.675   5.832
 5711POPC   GL272854  36.066  28.301   5.799
 5711POPC   C1A72855  35.913  28.584   6.190
 5711POPC   D2A72856  36.176  28.509   6.510
 5711POPC   C3A72857  35.961  28.611   6.856
 5711POPC   C4A72858  35.886  28.494   7.243
 5711POPC   C1B72859  36.023  28.066   6.203
 5711POPC   C2B72860  36.162  28.018   6.630
 5711POPC   C3B72861  36.249  28.139   7.036
 5711POPC   C4B72862  36.221  28.100   7.491
 5712POPC   NC372863  24.054  31.765   5.538
 5712POPC   PO472864  23.369  31.869   5.446
 5712POPC   GL172865  23.604  32.098   5.773
 5712POPC   GL272866  23.506  32.436   5.846
 5712POPC   C1A72867  23.859  32.244   6.150
 5712POPC   D2A72868  23.782  32.530   6.490
 5712POPC   C3A72869  23.841  32.333   6.871
 5712POPC   C4A72870  23.808  32.461   7.286
 5712POPC   C1B72871  23.352  32.319   6.240
 5712POPC   C2B72872  23.447  32.089   6.618
 5712POPC   C3B72873  23.416  32.128   7.067
 5712POPC   C4B72874  23.507  32.093   7.511
 5713POPC   NC372875  14.174  34.672   5.454
 5713POPC   PO472876  14.763  34.609   5.273
 5713POPC   GL172877  14.732  34.519   5.747
 5713POPC   GL272878  14.355  34.501   5.887
 5713POPC   C1A72879  14.721  34.394   6.207
 5713POPC   D2A72880  14.323  34.370   6.445
 5713POPC   C3A72881  14.428  34.244   6.872
 5713POPC   C4A72882  14.348  34.394   7.281
 5713POPC   C1B72883  14.037  34.768   6.127
 5713POPC   C2B72884  13.833  34.674   6.523
 5713POPC   C3B72885  14.024  34.565   6.894
 5713POPC   C4B72886  14.103  34.859   7.232
 5714POPC   NC372887  42.534  19.224   5.458
 5714POPC   PO472888  41.880  19.196   5.373
 5714POPC   GL172889  42.133  19.117   5.778
 5714POPC   GL272890  42.421  18.839   5.789
 5714POPC   C1A72891  42.376  19.255   6.155
 5714POPC   D2A72892  42.579  19.248   6.592
 5714POPC   C3A72893  42.315  19.087   6.950
 5714POPC   C4A72894  42.236  19.314   7.328
 5714POPC   C1B72895  42.309  18.733   6.228
 5714POPC   C2B72896  42.427  18.553   6.635
 5714POPC   C3B72897  42.686  18.727   6.978
 5714POPC   C4B72898  42.654  18.963   7.376
 5715POPC   NC372899  40.883  19.144   5.561
 5715POPC   PO472900  40.516  18.624   5.320
 5715POPC   GL172901  40.584  18.796   5.799
 5715POPC   GL272902  40.476  19.110   5.941
 5715POPC   C1A72903  40.926  18.976   6.178
 5715POPC   D2A72904  41.153  18.954   6.596
 5715POPC   C3A72905  40.955  19.218   6.926
 5715POPC   C4A72906  40.686  19.389   7.240
 5715POPC   C1B72907  40.503  18.743   6.299
 5715POPC   C2B72908  40.672  18.803   6.746
 5715POPC   C3B72909  40.706  18.853   7.216
 5715POPC   C4B72910  40.585  18.786   7.700
 5716POPC   NC372911  37.789   4.000   5.492
 5716POPC   PO472912  37.850   3.326   5.572
 5716POPC   GL172913  37.606   3.629   5.821
 5716POPC   GL272914  37.787   3.922   5.990
 5716POPC   C1A72915  37.388   3.646   6.214
 5716POPC   D2A72916  37.276   3.745   6.632
 5716POPC   C3A72917  37.308   3.469   6.981
 5716POPC   C4A72918  37.431   3.684   7.347
 5716POPC   C1B72919  37.879   3.539   6.223
 5716POPC   C2B72920  37.696   3.422   6.611
 5716POPC   C3B72921  37.841   3.529   7.010
 5716POPC   C4B72922  37.983   3.493   7.425
 5717POPC   NC372923   0.861  12.792   5.602
 5717POPC   PO472924   0.174  12.971   5.438
 5717POPC   GL172925   0.396  12.976   5.821
 5717POPC   GL272926   0.685  13.202   5.883
 5717POPC   C1A72927   0.431  12.685   6.178
 5717POPC   D2A72928   0.573  12.561   6.597
 5717POPC   C3A72929   0.273  12.684   6.920
 5717POPC   C4A72930   0.209  12.854   7.323
 5717POPC   C1B72931   0.762  13.068   6.317
 5717POPC   C2B72932   0.911  12.930   6.730
 5717POPC   C3B72933   0.687  12.942   7.106
 5717POPC   C4B72934   0.629  13.097   7.504
 5718POPC   NC372935  14.655  30.084   5.312
 5718POPC   PO472936  14.415  29.579   5.032
 5718POPC   GL172937  14.332  29.725   5.564
 5718POPC   GL272938  14.122  29.991   5.763
 5718POPC   C1A72939  14.392  29.741   6.094
 5718POPC   D2A72940  14.552  29.794   6.556
 5718POPC   C3A72941  14.399  29.938   6.944
 5718POPC   C4A72942  14.425  29.814   7.351
 5718POPC   C1B72943  14.199  30.252   6.148
 5718POPC   C2B72944  14.380  30.298   6.559
 5718POPC   C3B72945  14.234  30.415   6.960
 5718POPC   C4B72946  14.193  30.299   7.377
 5719POPC   NC372947   8.121  23.097   5.292
 5719POPC   PO472948   8.271  22.484   5.158
 5719POPC   GL172949   8.196  22.703   5.624
 5719POPC   GL272950   8.389  23.060   5.713
 5719POPC   C1A72951   8.060  22.897   6.046
 5719POPC   D2A72952   8.041  23.130   6.433
 5719POPC   C3A72953   8.209  22.938   6.809
 5719POPC   C4A72954   7.980  22.786   7.164
 5719POPC   C1B72955   8.480  23.221   6.143
 5719POPC   C2B72956   8.390  23.483   6.516
 5719POPC   C3B72957   8.499  23.358   6.931
 5719POPC   C4B72958   8.287  23.177   7.280
 5720POPC   NC372959   1.647  26.333   5.560
 5720POPC   PO472960   0.967  26.366   5.657
 5720POPC   GL172961   1.323  26.503   5.910
 5720POPC   GL272962   1.498  26.838   5.907
 5720POPC   C1A72963   1.335  26.581   6.314
 5720POPC   D2A72964   1.143  26.769   6.625
 5720POPC   C3A72965   1.149  26.565   6.967
 5720POPC   C4A72966   1.406  26.615   7.279
 5720POPC   C1B72967   1.493  27.081   6.302
 5720POPC   C2B72968   1.182  27.258   6.581
 5720POPC   C3B72969   1.111  27.139   7.010
 5720POPC   C4B72970   1.289  27.096   7.400
 5721POPC   NC372971  24.417   1.256   5.287
 5721POPC   PO472972  24.759   0.761   5.464
 5721POPC   GL172973  24.649   1.086   5.779
 5721POPC   GL272974  24.531   1.419   5.776
 5721POPC   C1A72975  24.706   1.076   6.225
 5721POPC   D2A72976  24.682   0.735   6.532
 5721POPC   C3A72977  24.494   0.886   6.916
 5721POPC   C4A72978  24.554   0.965   7.336
 5721POPC   C1B72979  24.680   1.601   6.200
 5721POPC   C2B72980  24.809   1.470   6.651
 5721POPC   C3B72981  24.611   1.399   7.055
 5721POPC   C4B72982  24.312   1.425   7.442
 5722POPC   NC372983  16.927   3.319   5.518
 5722POPC   PO472984  16.561   2.750   5.276
 5722POPC   GL172985  16.634   2.845   5.689
 5722POPC   GL272986  16.464   2.517   5.782
 5722POPC   C1A72987  16.820   3.022   6.086
 5722POPC   D2A72988  16.774   2.774   6.434
 5722POPC   C3A72989  16.838   2.689   6.844
 5722POPC   C4A72990  16.865   2.951   7.173
 5722POPC   C1B72991  16.350   2.292   6.176
 5722POPC   C2B72992  16.565   2.333   6.533
 5722POPC   C3B72993  16.441   2.347   6.904
 5722POPC   C4B72994  16.628   2.491   7.266
 5723POPC   NC372995  26.693  41.943   4.987
 5723POPC   PO472996  26.635  41.355   5.315
 5723POPC   GL172997  26.607  41.392   5.786
 5723POPC   GL272998  26.420  41.695   5.795
 5723POPC   C1A72999  26.811  41.605   6.182
 5723POPC   D2A73000  26.981  41.514   6.624
 5723POPC   C3A73001  27.027  41.790   6.982
 5723POPC   C4A73002  27.020  41.512   7.355
 5723POPC   C1B73003  26.471  41.985   6.142
 5723POPC   C2B73004  26.595  41.907   6.572
 5723POPC   C3B73005  26.565  41.615   6.914
 5723POPC   C4B73006  26.593  41.761   7.316
 5724POPC   NC373007  37.492   9.578   5.370
 5724POPC   PO473008  37.955  10.049   5.481
 5724POPC   GL173009  37.670   9.830   5.769
 5724POPC   GL273010  37.877   9.517   5.709
 5724POPC   C1A73011  37.520   9.709   6.187
 5724POPC   D2A73012  37.805   9.829   6.523
 5724POPC   C3A73013  37.686   9.834   6.951
 5724POPC   C4A73014  37.818   9.773   7.373
 5724POPC   C1B73015  37.943   9.443   6.146
 5724POPC   C2B73016  37.857   9.276   6.585
 5724POPC   C3B73017  37.869   9.355   7.046
 5724POPC   C4B73018  37.923   9.294   7.518
 5725POPC   NC373019  22.585  17.753   5.440
 5725POPC   PO473020  23.270  17.557   5.480
 5725POPC   GL173021  22.919  17.432   5.807
 5725POPC   GL273022  22.713  17.693   5.930
 5725POPC   C1A73023  22.828  17.237   6.236
 5725POPC   D2A73024  22.861  17.025   6.646
 5725POPC   C3A73025  22.940  17.214   7.040
 5725POPC   C4A73026  23.242  17.363   7.300
 5725POPC   C1B73027  23.027  17.694   6.263
 5725POPC   C2B73028  22.914  17.577   6.670
 5725POPC   C3B73029  22.985  17.736   7.066
 5725POPC   C4B73030  23.159  18.144   7.047
 5726POPC   NC373031   9.049  12.956   5.216
 5726POPC   PO473032   8.685  12.548   5.581
 5726POPC   GL173033   8.997  12.843   5.748
 5726POPC   GL273034   9.315  13.007   5.812
 5726POPC   C1A73035   8.974  12.943   6.207
 5726POPC   D2A73036   9.145  13.012   6.615
 5726POPC   C3A73037   8.826  12.936   6.917
 5726POPC   C4A73038   8.679  12.782   7.299
 5726POPC   C1B73039   9.311  12.597   6.089
 5726POPC   C2B73040   9.100  12.477   6.501
 5726POPC   C3B73041   9.105  12.478   6.964
 5726POPC   C4B73042   9.345  12.401   7.357
 5727POPC   NC373043  24.849  29.396   5.560
 5727POPC   PO473044  24.300  28.987   5.428
 5727POPC   GL173045  24.394  28.905   5.842
 5727POPC   GL273046  24.784  28.924   5.822
 5727POPC   C1A73047  24.518  28.883   6.274
 5727POPC   D2A73048  24.648  28.998   6.693
 5727POPC   C3A73049  24.457  28.967   7.100
 5727POPC   C4A73050  24.300  29.363   7.099
 5727POPC   C1B73051  24.994  29.127   6.217
 5727POPC   C2B73052  25.054  29.285   6.662
 5727POPC   C3B73053  24.821  29.354   7.072
 5727POPC   C4B73054  24.791  29.106   7.482
 5728POPC   NC373055  15.411  17.882   5.272
 5728POPC   PO473056  15.885  17.427   5.427
 5728POPC   GL173057  15.911  17.418   5.856
 5728POPC   GL273058  16.166  17.641   5.967
 5728POPC   C1A73059  15.846  17.306   6.268
 5728POPC   D2A73060  15.985  17.099   6.598
 5728POPC   C3A73061  15.792  17.248   6.933
 5728POPC   C4A73062  15.803  17.584   7.247
 5728POPC   C1B73063  15.865  17.805   6.292
 5728POPC   C2B73064  15.839  17.740   6.743
 5728POPC   C3B73065  16.029  18.000   7.085
 5728POPC   C4B73066  15.885  18.182   7.491
 5729POPC   NC373067  10.657  31.033   5.387
 5729POPC   PO473068  10.265  30.480   5.354
 5729POPC   GL173069  10.378  30.732   5.733
 5729POPC   GL273070  10.752  30.731   5.787
 5729POPC   C1A73071  10.398  30.812   6.193
 5729POPC   D2A73072  10.257  30.606   6.576
 5729POPC   C3A73073  10.532  30.634   6.919
 5729POPC   C4A73074  10.432  30.792   7.335
 5729POPC   C1B73075  10.906  30.886   6.159
 5729POPC   C2B73076  11.101  30.723   6.508
 5729POPC   C3B73077  11.215  31.020   6.799
 5729POPC   C4B73078  10.912  30.997   7.122
 5730POPC   NC373079  19.991  24.654   5.424
 5730POPC   PO473080  19.929  23.977   5.443
 5730POPC   GL173081  19.826  24.289   5.769
 5730POPC   GL273082  19.663  24.613   5.809
 5730POPC   C1A73083  20.031  24.318   6.163
 5730POPC   D2A73084  20.182  24.580   6.527
 5730POPC   C3A73085  20.083  24.353   6.899
 5730POPC   C4A73086  19.764  24.341   7.236
 5730POPC   C1B73087  19.778  24.744   6.210
 5730POPC   C2B73088  19.687  24.464   6.563
 5730POPC   C3B73089  19.679  24.702   6.908
 5730POPC   C4B73090  19.401  24.711   7.278
 5731POPC   NC373091  42.148   9.796   4.979
 5731POPC   PO473092  42.444   9.438   5.394
 5731POPC   GL173093  42.531   9.734   5.765
 5731POPC   GL273094  42.241   9.683   6.037
 5731POPC   C1A73095  42.667   9.885   6.186
 5731POPC   D2A73096  42.383   9.854   6.534
 5731POPC   C3A73097  42.537  10.051   6.890
 5731POPC   C4A73098  42.544   9.910   7.290
 5731POPC   C1B73099  41.958   9.982   6.278
 5731POPC   C2B73100  41.939  10.047   6.735
 5731POPC   C3B73101  42.024   9.874   7.147
 5731POPC   C4B73102  41.917   9.942   7.589
 5732POPC   NC373103  32.357  42.923   5.363
 5732POPC   PO473104  32.326  42.260   5.438
 5732POPC   GL173105  32.201  42.299   5.861
 5732POPC   GL273106  32.126  42.629   5.793
 5732POPC   C1A73107  32.218  42.452   6.330
 5732POPC   D2A73108  32.340  42.653   6.739
 5732POPC   C3A73109  32.355  42.364   7.110
 5732POPC   C4A73110  32.206  42.035   7.394
 5732POPC   C1B73111  31.784  42.510   6.105
 5732POPC   C2B73112  31.699  42.404   6.491
 5732POPC   C3B73113  31.935  42.346   6.810
 5732POPC   C4B73114  31.852  42.353   7.238
 5733POPC   NC373115  33.939   4.315   5.226
 5733POPC   PO473116  33.289   4.244   5.487
 5733POPC   GL173117  33.728   4.199   5.709
 5733POPC   GL273118  34.029   4.456   5.714
 5733POPC   C1A73119  33.898   4.137   6.158
 5733POPC   D2A73120  33.663   4.071   6.573
 5733POPC   C3A73121  33.866   4.125   6.983
 5733POPC   C4A73122  33.849   3.888   7.384
 5733POPC   C1B73123  33.721   4.597   6.019
 5733POPC   C2B73124  33.814   4.582   6.452
 5733POPC   C3B73125  34.062   4.604   6.832
 5733POPC   C4B73126  33.975   4.734   7.261
 5734POPC   NC373127  33.860   2.501   5.483
 5734POPC   PO473128  34.006   1.881   5.271
 5734POPC   GL173129  33.862   1.860   5.697
 5734POPC   GL273130  33.612   2.118   5.774
 5734POPC   C1A73131  33.723   1.665   6.077
 5734POPC   D2A73132  33.634   1.797   6.496
 5734POPC   C3A73133  33.633   1.628   6.926
 5734POPC   C4A73134  33.991   1.699   7.245
 5734POPC   C1B73135  33.904   2.179   6.127
 5734POPC   C2B73136  33.992   2.214   6.579
 5734POPC   C3B73137  33.773   2.102   6.962
 5734POPC   C4B73138  33.423   2.021   7.235
 5735POPC   NC373139  42.735  38.330   5.479
 5735POPC   PO473140  42.052  38.246   5.561
 5735POPC   GL173141  42.284  38.325   5.896
 5735POPC   GL273142  42.481  38.595   5.855
 5735POPC   C1A73143  42.173  38.260   6.319
 5735POPC   D2A73144  41.895  38.192   6.657
 5735POPC   C3A73145  41.991  38.369   7.030
 5735POPC   C4A73146  42.430  38.450   7.122
 5735POPC   C1B73147  42.227  38.781   6.177
 5735POPC   C2B73148  42.236  38.683   6.609
 5735POPC   C3B73149  42.158  38.852   6.982
 5735POPC   C4B73150  41.941  38.781   7.348
 5736POPC   NC373151  29.594  40.556   5.540
 5736POPC   PO473152  29.044  40.925   5.463
 5736POPC   GL173153  29.001  40.806   5.859
 5736POPC   GL273154  29.345  40.774   5.916
 5736POPC   C1A73155  29.026  40.669   6.286
 5736POPC   D2A73156  29.268  40.585   6.630
 5736POPC   C3A73157  29.173  40.784   6.997
 5736POPC   C4A73158  29.032  40.670   7.368
 5736POPC   C1B73159  29.539  40.887   6.283
 5736POPC   C2B73160  29.674  40.895   6.702
 5736POPC   C3B73161  29.567  41.096   7.092
 5736POPC   C4B73162  29.257  41.109   7.462
 5737POPC   NC373163  19.512  44.461   5.383
 5737POPC   PO473164  19.901  44.947   5.574
 5737POPC   GL173165  19.672  44.952   5.932
 5737POPC   GL273166  19.950   0.093   6.085
 5737POPC   C1A73167  19.590  44.715   6.258
 5737POPC   D2A73168  19.783  44.437   6.448
 5737POPC   C3A73169  19.684  44.403   6.901
 5737POPC   C4A73170  19.690  44.138   7.296
 5737POPC   C1B73171  19.652   0.205   6.385
 5737POPC   C2B73172  19.817  44.888   6.692
 5737POPC   C3B73173  20.076  44.936   7.051
 5737POPC   C4B73174  20.047  44.965   7.521
 5738POPC   NC373175  22.340  26.604   5.433
 5738POPC   PO473176  22.129  27.215   5.591
 5738POPC   GL173177  22.103  26.860   5.843
 5738POPC   GL273178  21.791  26.726   5.905
 5738POPC   C1A73179  22.135  26.832   6.296
 5738POPC   D2A73180  22.478  26.777   6.605
 5738POPC   C3A73181  22.322  26.711   7.005
 5738POPC   C4A73182  22.161  26.981   7.343
 5738POPC   C1B73183  21.657  27.029   6.181
 5738POPC   C2B73184  21.745  27.133   6.601
 5738POPC   C3B73185  21.842  26.855   6.944
 5738POPC   C4B73186  21.870  26.563   7.279
 5739POPC   NC373187  35.805  22.825   5.404
 5739POPC   PO473188  35.076  22.700   5.512
 5739POPC   GL173189  35.417  22.917   5.732
 5739POPC   GL273190  35.702  22.765   5.899
 5739POPC   C1A73191  35.381  23.112   6.119
 5739POPC   D2A73192  35.503  23.145   6.544
 5739POPC   C3A73193  35.293  22.922   6.858
 5739POPC   C4A73194  34.979  22.872   7.161
 5739POPC   C1B73195  35.671  22.711   6.326
 5739POPC   C2B73196  35.788  22.776   6.753
 5739POPC   C3B73197  35.658  22.663   7.112
 5739POPC   C4B73198  35.314  22.466   7.194
 5740POPC   NC373199  40.642   6.868   5.407
 5740POPC   PO473200  41.091   6.322   5.456
 5740POPC   GL173201  40.968   6.663   5.746
 5740POPC   GL273202  40.629   6.547   5.821
 5740POPC   C1A73203  40.952   6.770   6.187
 5740POPC   D2A73204  40.734   6.462   6.443
 5740POPC   C3A73205  40.719   6.453   6.880
 5740POPC   C4A73206  40.718   6.552   7.326
 5740POPC   C1B73207  40.407   6.756   6.159
 5740POPC   C2B73208  40.436   6.863   6.611
 5740POPC   C3B73209  40.342   6.755   7.017
 5740POPC   C4B73210  40.155   6.839   7.371
 5741POPC   NC373211  20.162   4.992   5.351
 5741POPC   PO473212  19.442   4.956   5.382
 5741POPC   GL173213  19.728   4.922   5.712
 5741POPC   GL273214  19.853   5.254   5.676
 5741POPC   C1A73215  19.826   4.850   6.153
 5741POPC   D2A73216  19.881   5.077   6.562
 5741POPC   C3A73217  19.743   4.998   6.960
 5741POPC   C4A73218  19.718   4.840   7.376
 5741POPC   C1B73219  19.905   5.361   6.111
 5741POPC   C2B73220  19.764   5.559   6.499
 5741POPC   C3B73221  19.882   5.519   6.934
 5741POPC   C4B73222  19.972   5.303   7.293
 5742POPC   NC373223  24.656  14.552   5.108
 5742POPC   PO473224  25.216  14.219   5.416
 5742POPC   GL173225  25.449  14.441   5.745
 5742POPC   GL273226  25.139  14.506   5.917
 5742POPC   C1A73227  25.530  14.416   6.214
 5742POPC   D2A73228  25.260  14.176   6.503
 5742POPC   C3A73229  25.424  14.142   6.916
 5742POPC   C4A73230  25.315  14.374   7.292
 5742POPC   C1B73231  24.834  14.389   6.223
 5742POPC   C2B73232  24.739  14.318   6.614
 5742POPC   C3B73233  24.924  14.336   6.967
 5742POPC   C4B73234  24.841  14.550   7.334
 5743POPC   NC373235  14.549  17.785   5.440
 5743POPC   PO473236  14.458  18.519   5.424
 5743POPC   GL173237  14.415  18.169   5.766
 5743POPC   GL273238  14.115  17.934   5.697
 5743POPC   C1A73239  14.491  18.153   6.236
 5743POPC   D2A73240  14.410  18.436   6.613
 5743POPC   C3A73241  14.575  18.345   7.045
 5743POPC   C4A73242  14.601  17.963   7.254
 5743POPC   C1B73243  13.995  18.134   6.090
 5743POPC   C2B73244  14.058  18.029   6.542
 5743POPC   C3B73245  14.086  18.200   6.940
 5743POPC   C4B73246  14.168  18.252   7.369
 5744POPC   NC373247   3.276  15.882   5.465
 5744POPC   PO473248   3.709  16.356   5.412
 5744POPC   GL173249   3.565  16.168   5.841
 5744POPC   GL273250   3.574  15.799   5.885
 5744POPC   C1A73251   3.683  16.085   6.288
 5744POPC   D2A73252   3.631  15.817   6.630
 5744POPC   C3A73253   3.663  16.011   7.021
 5744POPC   C4A73254   3.647  16.149   7.455
 5744POPC   C1B73255   3.208  15.897   6.138
 5744POPC   C2B73256   2.971  15.890   6.504
 5744POPC   C3B73257   3.133  15.857   6.885
 5744POPC   C4B73258   3.283  15.830   7.297
 5745POPC   NC373259  34.079  23.141   5.377
 5745POPC   PO473260  33.441  22.925   5.324
 5745POPC   GL173261  33.644  23.007   5.701
 5745POPC   GL273262  33.903  22.777   5.754
 5745POPC   C1A73263  33.554  22.964   6.149
 5745POPC   D2A73264  33.754  23.056   6.547
 5745POPC   C3A73265  33.596  22.920   6.956
 5745POPC   C4A73266  33.744  23.099   7.367
 5745POPC   C1B73267  34.035  22.756   6.196
 5745POPC   C2B73268  34.101  22.692   6.643
 5745POPC   C3B73269  34.089  22.994   6.980
 5745POPC   C4B73270  34.141  22.757   7.342
 5746POPC   NC373271   8.631  43.421   5.432
 5746POPC   PO473272   8.584  42.769   5.494
 5746POPC   GL173273   8.923  42.704   5.868
 5746POPC   GL273274   9.293  42.699   5.855
 5746POPC   C1A73275   9.088  42.656   6.329
 5746POPC   D2A73276   8.877  42.577   6.708
 5746POPC   C3A73277   8.943  42.816   7.035
 5746POPC   C4A73278   8.685  43.146   7.171
 5746POPC   C1B73279   9.093  43.110   6.125
 5746POPC   C2B73280   8.944  43.114   6.583
 5746POPC   C3B73281   8.954  43.454   6.893
 5746POPC   C4B73282   9.244  43.514   7.238
 5747POPC   NC373283  35.678   1.115   5.435
 5747POPC   PO473284  35.036   0.823   5.417
 5747POPC   GL173285  35.297   0.988   5.780
 5747POPC   GL273286  35.663   0.884   5.868
 5747POPC   C1A73287  35.230   1.175   6.194
 5747POPC   D2A73288  35.381   1.407   6.547
 5747POPC   C3A73289  35.204   1.205   6.915
 5747POPC   C4A73290  34.969   1.124   7.298
 5747POPC   C1B73291  35.745   1.095   6.215
 5747POPC   C2B73292  35.575   0.927   6.569
 5747POPC   C3B73293  35.681   1.032   6.953
 5747POPC   C4B73294  35.574   1.453   7.159
 5748POPC   NC373295  25.457  17.359   5.467
 5748POPC   PO473296  25.014  17.851   5.349
 5748POPC   GL173297  25.168  17.712   5.783
 5748POPC   GL273298  25.330  17.411   5.929
 5748POPC   C1A73299  25.063  17.704   6.238
 5748POPC   D2A73300  25.322  17.845   6.590
 5748POPC   C3A73301  25.217  17.688   7.005
 5748POPC   C4A73302  25.062  17.580   7.411
 5748POPC   C1B73303  25.496  17.347   6.290
 5748POPC   C2B73304  25.398  17.339   6.684
 5748POPC   C3B73305  25.576  17.246   7.062
 5748POPC   C4B73306  25.352  17.147   7.400
 5749POPC   NC373307   7.812  23.918   5.318
 5749POPC   PO473308   8.365  23.539   5.281
 5749POPC   GL173309   8.147  23.554   5.650
 5749POPC   GL273310   8.482  23.605   5.803
 5749POPC   C1A73311   8.043  23.514   6.092
 5749POPC   D2A73312   7.894  23.660   6.499
 5749POPC   C3A73313   8.000  23.423   6.869
 5749POPC   C4A73314   8.008  23.587   7.268
 5749POPC   C1B73315   8.305  23.951   6.038
 5749POPC   C2B73316   8.296  23.997   6.482
 5749POPC   C3B73317   8.305  23.837   6.919
 5749POPC   C4B73318   8.555  23.683   7.313
 5750POPC   NC373319  24.295   2.115   5.403
 5750POPC   PO473320  24.780   1.580   5.351
 5750POPC   GL173321  24.675   1.906   5.690
 5750POPC   GL273322  24.318   1.899   5.855
 5750POPC   C1A73323  24.707   2.132   6.078
 5750POPC   D2A73324  24.542   2.236   6.469
 5750POPC   C3A73325  24.707   2.138   6.865
 5750POPC   C4A73326  24.491   2.229   7.245
 5750POPC   C1B73327  24.239   1.852   6.287
 5750POPC   C2B73328  24.397   1.767   6.693
 5750POPC   C3B73329  24.240   1.798   7.100
 5750POPC   C4B73330  23.854   1.671   7.317
 5751POPC   NC373331   3.141   5.238   5.526
 5751POPC   PO473332   2.497   4.799   5.465
 5751POPC   GL173333   2.686   4.990   5.865
 5751POPC   GL273334   2.787   5.362   5.862
 5751POPC   C1A73335   2.888   5.071   6.272
 5751POPC   D2A73336   2.821   4.916   6.671
 5751POPC   C3A73337   2.856   5.155   6.990
 5751POPC   C4A73338   2.652   5.021   7.332
 5751POPC   C1B73339   2.903   5.585   6.202
 5751POPC   C2B73340   3.052   5.512   6.617
 5751POPC   C3B73341   2.760   5.645   6.914
 5751POPC   C4B73342   2.600   5.555   7.290
 5752POPC   NC373343  13.339  27.178   5.401
 5752POPC   PO473344  13.599  26.582   5.504
 5752POPC   GL173345  13.708  26.730   5.907
 5752POPC   GL273346  13.934  26.483   5.954
 5752POPC   C1A73347  13.571  26.905   6.322
 5752POPC   D2A73348  13.528  27.177   6.720
 5752POPC   C3A73349  13.672  26.961   7.088
 5752POPC   C4A73350  13.402  26.624   7.184
 5752POPC   C1B73351  13.823  26.449   6.356
 5752POPC   C2B73352  13.668  26.588   6.729
 5752POPC   C3B73353  13.877  26.458   7.084
 5752POPC   C4B73354  14.130  26.700   7.297
 5753POPC   NC373355  41.971  11.351   5.317
 5753POPC   PO473356  41.473  11.680   5.610
 5753POPC   GL173357  41.648  11.382   5.759
 5753POPC   GL273358  41.400  11.150   5.841
 5753POPC   C1A73359  41.709  11.462   6.196
 5753POPC   D2A73360  41.560  11.395   6.579
 5753POPC   C3A73361  41.856  11.468   6.894
 5753POPC   C4A73362  41.700  11.499   7.271
 5753POPC   C1B73363  41.810  11.001   6.033
 5753POPC   C2B73364  41.885  10.994   6.427
 5753POPC   C3B73365  41.746  10.972   6.802
 5753POPC   C4B73366  41.669  11.006   7.218
 5754POPC   NC373367   9.729  21.942   5.320
 5754POPC   PO473368   9.595  22.542   5.612
 5754POPC   GL173369   9.608  22.108   5.795
 5754POPC   GL273370   9.887  21.939   5.805
 5754POPC   C1A73371   9.624  22.047   6.257
 5754POPC   D2A73372   9.654  22.424   6.546
 5754POPC   C3A73373   9.650  22.284   6.963
 5754POPC   C4A73374   9.698  21.884   7.107
 5754POPC   C1B73375  10.026  22.291   6.092
 5754POPC   C2B73376  10.152  22.306   6.525
 5754POPC   C3B73377  10.162  22.083   6.912
 5754POPC   C4B73378  10.093  22.177   7.320
 5755POPC   NC373379  31.253  43.252   5.353
 5755POPC   PO473380  31.858  42.915   5.308
 5755POPC   GL173381  31.630  43.115   5.655
 5755POPC   GL273382  31.648  42.845   5.790
 5755POPC   C1A73383  31.588  43.226   6.113
 5755POPC   D2A73384  31.625  43.459   6.492
 5755POPC   C3A73385  31.741  43.288   6.870
 5755POPC   C4A73386  31.520  43.286   7.248
 5755POPC   C1B73387  31.343  42.758   6.132
 5755POPC   C2B73388  31.383  42.852   6.526
 5755POPC   C3B73389  31.426  42.870   6.926
 5755POPC   C4B73390  31.499  42.699   7.294
 5756POPC   NC373391  21.422  30.767   5.322
 5756POPC   PO473392  21.586  30.245   5.647
 5756POPC   GL173393  21.366  30.620   5.800
 5756POPC   GL273394  21.620  30.901   5.774
 5756POPC   C1A73395  21.127  30.708   6.171
 5756POPC   D2A73396  21.148  31.010   6.532
 5756POPC   C3A73397  21.221  30.747   6.891
 5756POPC   C4A73398  21.597  30.636   7.125
 5756POPC   C1B73399  21.600  30.842   6.209
 5756POPC   C2B73400  21.649  31.073   6.563
 5756POPC   C3B73401  21.525  31.150   6.947
 5756POPC   C4B73402  21.739  31.106   7.302
 5757POPC   NC373403  44.046   2.628   4.986
 5757POPC   PO473404  44.611   2.780   5.391
 5757POPC   GL173405  44.697   2.730   5.807
 5757POPC   GL273406  44.582   2.395   5.815
 5757POPC   C1A73407  44.630   2.843   6.252
 5757POPC   D2A73408  44.498   3.193   6.535
 5757POPC   C3A73409  44.601   3.158   6.969
 5757POPC   C4A73410  44.319   2.970   7.257
 5757POPC   C1B73411  44.928   2.374   6.117
 5757POPC   C2B73412  44.990   2.551   6.512
 5757POPC   C3B73413  44.716   2.621   6.848
 5757POPC   C4B73414  44.641   2.368   7.221
 5758POPC   NC373415  33.329   2.879   5.214
 5758POPC   PO473416  32.736   2.730   5.542
 5758POPC   GL173417  32.723   2.605   5.951
 5758POPC   GL273418  32.809   2.890   6.048
 5758POPC   C1A73419  32.900   2.471   6.350
 5758POPC   D2A73420  33.142   2.603   6.722
 5758POPC   C3A73421  32.880   2.701   7.031
 5758POPC   C4A73422  32.795   3.094   7.247
 5758POPC   C1B73423  32.993   3.002   6.438
 5758POPC   C2B73424  33.392   3.057   6.661
 5758POPC   C3B73425  33.428   2.947   7.093
 5758POPC   C4B73426  33.515   2.528   7.274
 5759POPC   NC373427  33.421   8.851   5.422
 5759POPC   PO473428  34.107   9.098   5.359
 5759POPC   GL173429  33.752   9.119   5.702
 5759POPC   GL273430  33.728   8.779   5.852
 5759POPC   C1A73431  33.618   9.154   6.158
 5759POPC   D2A73432  33.644   8.952   6.583
 5759POPC   C3A73433  33.914   8.882   6.950
 5759POPC   C4A73434  33.891   9.115   7.354
 5759POPC   C1B73435  33.532   8.583   6.244
 5759POPC   C2B73436  33.687   8.433   6.643
 5759POPC   C3B73437  33.559   8.463   7.068
 5759POPC   C4B73438  33.629   8.383   7.529
 5760POPC   NC373439  27.531  19.584   5.533
 5760POPC   PO473440  27.586  20.245   5.432
 5760POPC   GL173441  27.617  19.996   5.826
 5760POPC   GL273442  27.311  19.808   5.941
 5760POPC   C1A73443  27.752  19.823   6.238
 5760POPC   D2A73444  27.604  19.691   6.671
 5760POPC   C3A73445  27.780  19.890   7.017
 5760POPC   C4A73446  27.671  20.159   7.340
 5760POPC   C1B73447  27.377  19.477   6.259
 5760POPC   C2B73448  27.225  19.334   6.650
 5760POPC   C3B73449  27.074  19.524   7.042
 5760POPC   C4B73450  27.390  19.694   7.335
 5761POPC   NC373451   9.308  12.373   5.478
 5761POPC   PO473452   9.509  13.008   5.311
 5761POPC   GL173453   9.817  12.985   5.692
 5761POPC   GL273454   9.946  12.631   5.754
 5761POPC   C1A73455   9.730  12.890   6.141
 5761POPC   D2A73456   9.574  12.723   6.526
 5761POPC   C3A73457   9.790  12.904   6.878
 5761POPC   C4A73458   9.613  13.149   7.201
 5761POPC   C1B73459  10.098  12.534   6.190
 5761POPC   C2B73460   9.994  12.441   6.613
 5761POPC   C3B73461   9.679  12.405   6.927
 5761POPC   C4B73462   9.826  12.602   7.304
 5762POPC   NC373463  22.822  35.060   5.178
 5762POPC   PO473464  23.174  34.593   5.453
 5762POPC   GL173465  22.930  34.619   5.818
 5762POPC   GL273466  22.643  34.817   5.762
 5762POPC   C1A73467  22.995  34.629   6.252
 5762POPC   D2A73468  22.901  34.428   6.600
 5762POPC   C3A73469  23.044  34.650   6.925
 5762POPC   C4A73470  22.902  34.600   7.313
 5762POPC   C1B73471  22.503  34.729   6.187
 5762POPC   C2B73472  22.645  34.862   6.601
 5762POPC   C3B73473  22.560  34.891   7.053
 5762POPC   C4B73474  22.626  34.981   7.514
 5763POPC   NC373475  35.096  18.750   5.262
 5763POPC   PO473476  34.482  19.008   5.493
 5763POPC   GL173477  34.505  18.912   5.884
 5763POPC   GL273478  34.857  19.023   5.849
 5763POPC   C1A73479  34.382  19.128   6.245
 5763POPC   D2A73480  34.552  19.169   6.643
 5763POPC   C3A73481  34.430  19.058   7.038
 5763POPC   C4A73482  34.295  18.714   7.268
 5763POPC   C1B73483  34.864  18.979   6.264
 5763POPC   C2B73484  35.035  19.227   6.565
 5763POPC   C3B73485  34.940  19.189   6.982
 5763POPC   C4B73486  34.936  19.418   7.313
 5764POPC   NC373487  35.238   4.208   5.229
 5764POPC   PO473488  35.672   4.667   5.452
 5764POPC   GL173489  35.403   4.407   5.773
 5764POPC   GL273490  35.076   4.203   5.717
 5764POPC   C1A73491  35.543   4.298   6.208
 5764POPC   D2A73492  35.793   4.407   6.585
 5764POPC   C3A73493  35.560   4.539   6.941
 5764POPC   C4A73494  35.354   4.334   7.272
 5764POPC   C1B73495  35.015   4.299   6.151
 5764POPC   C2B73496  35.173   4.324   6.576
 5764POPC   C3B73497  35.001   4.170   6.949
 5764POPC   C4B73498  34.719   4.064   7.275
 5765POPC   NC373499  12.819  15.111   5.683
 5765POPC   PO473500  12.918  14.642   5.158
 5765POPC   GL173501  12.746  14.487   5.642
 5765POPC   GL273502  12.974  14.229   5.803
 5765POPC   C1A73503  12.704  14.487   6.146
 5765POPC   D2A73504  12.654  14.193   6.523
 5765POPC   C3A73505  12.715  14.380   6.939
 5765POPC   C4A73506  12.721  14.471   7.398
 5765POPC   C1B73507  13.216  14.445   6.147
 5765POPC   C2B73508  13.214  14.278   6.583
 5765POPC   C3B73509  13.152  14.128   7.027
 5765POPC   C4B73510  13.188  14.243   7.491
 5766POPC   NC373511   0.941  18.368   5.237
 5766POPC   PO473512   1.654  18.286   5.144
 5766POPC   GL173513   1.549  18.318   5.611
 5766POPC   GL273514   1.213  18.434   5.679
 5766POPC   C1A73515   1.465  18.195   6.095
 5766POPC   D2A73516   1.222  18.299   6.489
 5766POPC   C3A73517   1.269  18.189   6.936
 5766POPC   C4A73518   1.565  18.067   7.253
 5766POPC   C1B73519   1.140  18.635   6.079
 5766POPC   C2B73520   0.973  18.758   6.477
 5766POPC   C3B73521   1.045  18.730   6.889
 5766POPC   C4B73522   1.059  18.567   7.267
 5767POPC   NC373523  20.985  27.715   5.120
 5767POPC   PO473524  20.412  27.402   5.417
 5767POPC   GL173525  20.663  27.695   5.679
 5767POPC   GL273526  20.930  27.513   5.742
 5767POPC   C1A73527  20.630  27.740   6.167
 5767POPC   D2A73528  20.416  27.381   6.458
 5767POPC   C3A73529  20.518  27.412   6.912
 5767POPC   C4A73530  20.745  27.773   7.135
 5767POPC   C1B73531  20.800  27.285   6.083
 5767POPC   C2B73532  20.922  27.454   6.484
 5767POPC   C3B73533  21.042  27.456   6.871
 5767POPC   C4B73534  20.907  27.149   7.102
 5768POPC   NC373535  30.368  40.374   5.635
 5768POPC   PO473536  30.668  39.756   5.573
 5768POPC   GL173537  30.899  40.093   5.828
 5768POPC   GL273538  30.596  40.107   6.000
 5768POPC   C1A73539  30.941  40.304   6.282
 5768POPC   D2A73540  30.706  40.185   6.682
 5768POPC   C3A73541  30.762  40.275   7.138
 5768POPC   C4A73542  30.783  40.146   7.626
 5768POPC   C1B73543  30.516  39.715   6.237
 5768POPC   C2B73544  30.394  39.695   6.688
 5768POPC   C3B73545  30.391  39.914   7.091
 5768POPC   C4B73546  30.414  39.805   7.542
 5769POPC   NC373547  35.399  37.533   5.290
 5769POPC   PO473548  34.944  38.033   5.369
 5769POPC   GL173549  35.207  37.792   5.726
 5769POPC   GL273550  35.562  37.899   5.747
 5769POPC   C1A73551  35.229  37.563   6.157
 5769POPC   D2A73552  35.228  37.295   6.549
 5769POPC   C3A73553  35.424  37.374   6.944
 5769POPC   C4A73554  35.280  37.567   7.315
 5769POPC   C1B73555  35.560  37.940   6.203
 5769POPC   C2B73556  35.547  37.730   6.589
 5769POPC   C3B73557  35.498  37.903   7.002
 5769POPC   C4B73558  35.457  38.126   7.377
 5770POPC   NC373559  13.190  20.968   5.356
 5770POPC   PO473560  12.731  20.551   5.288
 5770POPC   GL173561  12.966  20.459   5.699
 5770POPC   GL273562  12.668  20.463   5.861
 5770POPC   C1A73563  13.073  20.468   6.188
 5770POPC   D2A73564  13.209  20.706   6.597
 5770POPC   C3A73565  13.107  20.570   7.010
 5770POPC   C4A73566  12.775  20.228   7.057
 5770POPC   C1B73567  12.562  20.660   6.231
 5770POPC   C2B73568  12.705  20.535   6.634
 5770POPC   C3B73569  12.629  20.718   7.022
 5770POPC   C4B73570  12.584  20.923   7.415
 5771POPC   NC373571  37.074   4.696   5.548
 5771POPC   PO473572  37.046   5.339   5.215
 5771POPC   GL173573  36.920   5.169   5.713
 5771POPC   GL273574  37.185   5.063   5.882
 5771POPC   C1A73575  36.762   4.941   6.131
 5771POPC   D2A73576  36.483   4.856   6.492
 5771POPC   C3A73577  36.526   5.161   6.829
 5771POPC   C4A73578  36.783   5.108   7.189
 5771POPC   C1B73579  37.235   5.000   6.325
 5771POPC   C2B73580  37.176   5.182   6.729
 5771POPC   C3B73581  37.278   5.033   7.122
 5771POPC   C4B73582  37.185   5.095   7.569
 5772POPC   NC373583  41.415  20.762   5.473
 5772POPC   PO473584  41.568  20.084   5.505
 5772POPC   GL173585  41.512  20.361   5.825
 5772POPC   GL273586  41.755  20.638   5.828
 5772POPC   C1A73587  41.411  20.447   6.231
 5772POPC   D2A73588  41.621  20.460   6.609
 5772POPC   C3A73589  41.387  20.524   6.964
 5772POPC   C4A73590  41.232  20.570   7.376
 5772POPC   C1B73591  41.846  20.762   6.230
 5772POPC   C2B73592  41.771  20.938   6.621
 5772POPC   C3B73593  41.786  20.823   7.030
 5772POPC   C4B73594  41.941  21.009   7.380
 5773POPC   NC373595  20.801  12.491   5.359
 5773POPC   PO473596  20.356  12.995   5.341
 5773POPC   GL173597  20.660  12.897   5.688
 5773POPC   GL273598  20.536  12.559   5.799
 5773POPC   C1A73599  20.735  12.950   6.159
 5773POPC   D2A73600  20.620  12.858   6.608
 5773POPC   C3A73601  20.826  12.998   6.984
 5773POPC   C4A73602  20.778  13.188   7.364
 5773POPC   C1B73603  20.560  12.364   6.206
 5773POPC   C2B73604  20.436  12.380   6.633
 5773POPC   C3B73605  20.597  12.539   7.044
 5773POPC   C4B73606  20.615  12.446   7.509
 5774POPC   NC373607  26.318   4.791   5.585
 5774POPC   PO473608  26.126   5.371   5.303
 5774POPC   GL173609  26.121   5.290   5.758
 5774POPC   GL273610  25.944   4.986   5.867
 5774POPC   C1A73611  26.071   5.331   6.218
 5774POPC   D2A73612  26.077   5.084   6.578
 5774POPC   C3A73613  25.965   5.299   6.953
 5774POPC   C4A73614  26.260   5.314   7.259
 5774POPC   C1B73615  26.087   4.700   6.200
 5774POPC   C2B73616  26.126   4.551   6.618
 5774POPC   C3B73617  26.096   4.791   7.018
 5774POPC   C4B73618  26.152   4.841   7.464
 5775POPC   NC373619  20.543  31.853   5.480
 5775POPC   PO473620  20.625  32.543   5.383
 5775POPC   GL173621  20.474  32.377   5.757
 5775POPC   GL273622  20.777  32.185   5.780
 5775POPC   C1A73623  20.417  32.538   6.201
 5775POPC   D2A73624  20.339  32.690   6.631
 5775POPC   C3A73625  20.450  32.399   6.976
 5775POPC   C4A73626  20.284  32.303   7.369
 5775POPC   C1B73627  20.608  32.062   6.201
 5775POPC   C2B73628  20.761  32.328   6.564
 5775POPC   C3B73629  21.025  32.339   6.941
 5775POPC   C4B73630  20.822  32.252   7.337
 5776POPC   NC373631  27.385  10.841   5.154
 5776POPC   PO473632  27.626  11.393   5.494
 5776POPC   GL173633  27.651  11.220   5.848
 5776POPC   GL273634  27.344  11.021   5.809
 5776POPC   C1A73635  27.614  11.395   6.235
 5776POPC   D2A73636  27.283  11.561   6.512
 5776POPC   C3A73637  27.511  11.549   6.907
 5776POPC   C4A73638  27.650  11.417   7.309
 5776POPC   C1B73639  27.222  11.073   6.241
 5776POPC   C2B73640  27.465  11.108   6.639
 5776POPC   C3B73641  27.587  10.983   7.035
 5776POPC   C4B73642  27.249  10.833   7.267
 5777POPC   NC373643  41.898   8.273   5.216
 5777POPC   PO473644  41.229   8.000   5.139
 5777POPC   GL173645  41.438   8.144   5.571
 5777POPC   GL273646  41.614   7.886   5.763
 5777POPC   C1A73647  41.498   8.302   6.044
 5777POPC   D2A73648  41.460   8.093   6.459
 5777POPC   C3A73649  41.506   8.108   6.918
 5777POPC   C4A73650  41.460   8.394   7.263
 5777POPC   C1B73651  41.873   7.955   6.172
 5777POPC   C2B73652  41.903   7.924   6.654
 5777POPC   C3B73653  41.964   7.895   7.099
 5777POPC   C4B73654  41.800   8.021   7.487
 5778POPC   NC373655  40.783  21.823   5.566
 5778POPC   PO473656  40.686  22.351   5.209
 5778POPC   GL173657  40.719  22.314   5.690
 5778POPC   GL273658  41.097  22.258   5.799
 5778POPC   C1A73659  40.718  22.292   6.170
 5778POPC   D2A73660  40.585  21.992   6.514
 5778POPC   C3A73661  40.596  22.244   6.884
 5778POPC   C4A73662  40.664  22.294   7.319
 5778POPC   C1B73663  41.231  22.285   6.255
 5778POPC   C2B73664  41.061  22.162   6.669
 5778POPC   C3B73665  41.131  22.236   7.127
 5778POPC   C4B73666  41.203  22.195   7.608
 5779POPC   NC373667  39.713   4.447   5.507
 5779POPC   PO473668  39.090   4.395   5.409
 5779POPC   GL173669  39.144   4.243   5.828
 5779POPC   GL273670  38.901   4.467   5.913
 5779POPC   C1A73671  39.379   4.047   6.207
 5779POPC   D2A73672  39.327   3.921   6.668
 5779POPC   C3A73673  39.347   4.316   6.968
 5779POPC   C4A73674  39.246   4.493   7.371
 5779POPC   C1B73675  38.913   4.751   6.242
 5779POPC   C2B73676  39.033   4.775   6.688
 5779POPC   C3B73677  38.826   4.664   7.056
 5779POPC   C4B73678  38.728   4.700   7.497
 5780POPC   NC373679  30.007  30.220   5.424
 5780POPC   PO473680  29.867  30.923   5.296
 5780POPC   GL173681  30.051  30.777   5.710
 5780POPC   GL273682  29.979  30.455   5.897
 5780POPC   C1A73683  30.035  30.898   6.147
 5780POPC   D2A73684  29.849  30.907   6.566
 5780POPC   C3A73685  29.988  30.608   6.844
 5780POPC   C4A73686  29.999  30.757   7.219
 5780POPC   C1B73687  29.621  30.600   6.213
 5780POPC   C2B73688  29.507  30.512   6.676
 5780POPC   C3B73689  29.571  30.429   7.135
 5780POPC   C4B73690  29.711  30.455   7.564
 5781POPC   NC373691   7.704  41.844   5.309
 5781POPC   PO473692   7.210  41.411   5.267
 5781POPC   GL173693   7.280  41.651   5.671
 5781POPC   GL273694   7.619  41.696   5.807
 5781POPC   C1A73695   7.215  41.558   6.128
 5781POPC   D2A73696   7.271  41.694   6.576
 5781POPC   C3A73697   7.112  41.512   7.003
 5781POPC   C4A73698   7.210  41.514   7.484
 5781POPC   C1B73699   7.714  41.708   6.256
 5781POPC   C2B73700   7.750  41.548   6.690
 5781POPC   C3B73701   7.604  41.476   7.131
 5781POPC   C4B73702   7.688  41.609   7.578
 5782POPC   NC373703  20.088  12.264   5.120
 5782POPC   PO473704  19.641  11.829   5.320
 5782POPC   GL173705  19.612  12.084   5.755
 5782POPC   GL273706  19.665  11.851   6.011
 5782POPC   C1A73707  19.839  12.305   6.139
 5782POPC   D2A73708  19.958  12.197   6.571
 5782POPC   C3A73709  19.990  12.432   6.937
 5782POPC   C4A73710  20.160  12.517   7.321
 5782POPC   C1B73711  19.537  11.923   6.444
 5782POPC   C2B73712  19.778  11.781   6.811
 5782POPC   C3B73713  19.845  11.988   7.192
 5782POPC   C4B73714  19.529  11.897   7.529
 5783POPC   NC373715   1.711  27.272   5.492
 5783POPC   PO473716   2.215  27.729   5.333
 5783POPC   GL173717   2.104  27.511   5.739
 5783POPC   GL273718   2.151  27.122   5.743
 5783POPC   C1A73719   1.961  27.685   6.153
 5783POPC   D2A73720   2.194  27.628   6.534
 5783POPC   C3A73721   2.087  27.864   6.871
 5783POPC   C4A73722   1.893  27.824   7.259
 5783POPC   C1B73723   2.156  27.197   6.190
 5783POPC   C2B73724   1.928  27.182   6.604
 5783POPC   C3B73725   1.972  27.383   6.994
 5783POPC   C4B73726   2.155  27.271   7.363
 5784POPC   NC373727  16.302  42.558   5.349
 5784POPC   PO473728  15.592  42.319   5.280
 5784POPC   GL173729  15.680  42.418   5.769
 5784POPC   GL273730  15.903  42.736   5.832
 5784POPC   C1A73731  15.695  42.412   6.234
 5784POPC   D2A73732  15.858  42.141   6.564
 5784POPC   C3A73733  15.649  42.198   6.947
 5784POPC   C4A73734  15.726  42.345   7.321
 5784POPC   C1B73735  16.287  42.707   6.143
 5784POPC   C2B73736  16.386  42.727   6.609
 5784POPC   C3B73737  16.084  42.518   6.929
 5784POPC   C4B73738  16.224  42.459   7.385
 5785POPC   NC373739  31.240  35.606   5.451
 5785POPC   PO473740  31.674  35.136   5.362
 5785POPC   GL173741  31.670  35.299   5.798
 5785POPC   GL273742  31.568  35.601   5.821
 5785POPC   C1A73743  31.610  35.363   6.271
 5785POPC   D2A73744  31.520  35.048   6.596
 5785POPC   C3A73745  31.312  35.198   6.936
 5785POPC   C4A73746  31.522  35.509   7.113
 5785POPC   C1B73747  31.264  35.738   6.152
 5785POPC   C2B73748  31.188  35.588   6.581
 5785POPC   C3B73749  31.077  35.700   7.005
 5785POPC   C4B73750  31.151  35.704   7.464
 5786POPC   NC373751  24.088   9.162   5.473
 5786POPC   PO473752  23.496   8.761   5.447
 5786POPC   GL173753  23.744   8.857   5.765
 5786POPC   GL273754  23.603   9.168   5.772
 5786POPC   C1A73755  23.805   8.946   6.188
 5786POPC   D2A73756  23.836   8.738   6.560
 5786POPC   C3A73757  23.727   8.916   6.954
 5786POPC   C4A73758  23.810   8.808   7.365
 5786POPC   C1B73759  23.309   9.131   6.128
 5786POPC   C2B73760  23.438   9.080   6.544
 5786POPC   C3B73761  23.256   9.088   6.945
 5786POPC   C4B73762  23.426   9.158   7.333
 5787POPC   NC373763  42.750   8.598   5.260
 5787POPC   PO473764  43.350   9.032   5.279
 5787POPC   GL173765  43.286   9.083   5.777
 5787POPC   GL273766  42.991   9.284   5.905
 5787POPC   C1A73767  43.421   9.251   6.203
 5787POPC   D2A73768  43.207   9.274   6.643
 5787POPC   C3A73769  43.200   8.886   6.910
 5787POPC   C4A73770  43.405   8.724   7.296
 5787POPC   C1B73771  42.963   9.002   6.243
 5787POPC   C2B73772  42.728   8.941   6.622
 5787POPC   C3B73773  42.711   9.047   7.055
 5787POPC   C4B73774  42.925   8.876   7.398
 5788POPC   NC373775   9.945   6.101   5.407
 5788POPC   PO473776   9.759   5.473   5.179
 5788POPC   GL173777   9.693   5.746   5.702
 5788POPC   GL273778   9.764   6.089   5.876
 5788POPC   C1A73779   9.838   5.711   6.189
 5788POPC   D2A73780   9.991   5.903   6.594
 5788POPC   C3A73781   9.726   5.847   6.976
 5788POPC   C4A73782   9.846   5.602   7.342
 5788POPC   C1B73783   9.500   6.101   6.268
 5788POPC   C2B73784   9.438   6.250   6.699
 5788POPC   C3B73785   9.699   6.390   7.047
 5788POPC   C4B73786  10.031   6.149   7.265
 5789POPC   NC373787  27.144  38.457   5.042
 5789POPC   PO473788  26.589  38.681   5.269
 5789POPC   GL173789  26.684  38.638   5.776
 5789POPC   GL273790  26.444  38.696   5.892
 5789POPC   C1A73791  26.874  38.394   6.138
 5789POPC   D2A73792  27.065  38.478   6.514
 5789POPC   C3A73793  26.922  38.349   6.903
 5789POPC   C4A73794  27.115  38.211   7.248
 5789POPC   C1B73795  26.384  38.435   6.272
 5789POPC   C2B73796  26.351  38.277   6.700
 5789POPC   C3B73797  26.444  38.425   7.109
 5789POPC   C4B73798  26.665  38.541   7.513
 5790POPC   NC373799  23.123  42.565   5.320
 5790POPC   PO473800  22.499  42.361   5.348
 5790POPC   GL173801  22.824  42.339   5.676
 5790POPC   GL273802  22.699  42.112   5.936
 5790POPC   C1A73803  23.153  42.366   6.017
 5790POPC   D2A73804  23.169  42.600   6.410
 5790POPC   C3A73805  23.198  42.423   6.803
 5790POPC   C4A73806  23.166  42.337   7.220
 5790POPC   C1B73807  22.695  42.498   6.231
 5790POPC   C2B73808  22.737  42.645   6.694
 5790POPC   C3B73809  22.663  42.406   7.090
 5790POPC   C4B73810  22.337  42.348   7.428
 5791POPC   NC373811  12.321  38.015   5.547
 5791POPC   PO473812  11.907  38.489   5.309
 5791POPC   GL173813  12.208  38.547   5.737
 5791POPC   GL273814  12.323  38.281   5.976
 5791POPC   C1A73815  12.437  38.736   6.130
 5791POPC   D2A73816  12.427  38.490   6.542
 5791POPC   C3A73817  12.222  38.627   6.944
 5791POPC   C4A73818  11.973  38.548   7.349
 5791POPC   C1B73819  11.939  38.189   6.229
 5791POPC   C2B73820  11.674  38.114   6.616
 5791POPC   C3B73821  11.625  38.252   7.037
 5791POPC   C4B73822  11.622  38.137   7.447
 5792POPC   NC373823  39.840  35.024   5.423
 5792POPC   PO473824  40.088  35.605   5.165
 5792POPC   GL173825  39.964  35.492   5.623
 5792POPC   GL273826  39.622  35.376   5.756
 5792POPC   C1A73827  40.102  35.468   6.058
 5792POPC   D2A73828  40.065  35.737   6.429
 5792POPC   C3A73829  40.113  35.603   6.891
 5792POPC   C4A73830  40.305  35.225   7.078
 5792POPC   C1B73831  39.605  35.549   6.173
 5792POPC   C2B73832  39.727  35.382   6.590
 5792POPC   C3B73833  39.576  35.270   7.008
 5792POPC   C4B73834  39.603  35.065   7.422
 5793POPC   NC373835  22.008  27.967   5.298
 5793POPC   PO473836  22.141  28.629   5.405
 5793POPC   GL173837  22.107  28.294   5.714
 5793POPC   GL273838  21.834  28.164   5.880
 5793POPC   C1A73839  22.305  28.163   6.101
 5793POPC   D2A73840  22.218  28.017   6.530
 5793POPC   C3A73841  22.373  28.214   6.906
 5793POPC   C4A73842  22.359  28.347   7.327
 5793POPC   C1B73843  21.906  28.480   6.227
 5793POPC   C2B73844  22.014  28.505   6.670
 5793POPC   C3B73845  21.896  28.365   7.097
 5793POPC   C4B73846  21.827  28.364   7.540
 5794POPC   NC373847  29.617   2.194   5.539
 5794POPC   PO473848  30.257   1.956   5.405
 5794POPC   GL173849  30.031   1.983   5.787
 5794POPC   GL273850  30.047   2.304   5.885
 5794POPC   C1A73851  29.735   1.967   6.157
 5794POPC   D2A73852  29.706   2.148   6.567
 5794POPC   C3A73853  29.787   1.874   6.911
 5794POPC   C4A73854  29.934   1.752   7.314
 5794POPC   C1B73855  30.211   2.169   6.289
 5794POPC   C2B73856  30.203   2.095   6.741
 5794POPC   C3B73857  29.991   2.293   7.122
 5794POPC   C4B73858  30.052   2.229   7.543
 5795POPC   NC373859   8.036  41.079   5.312
 5795POPC   PO473860   8.390  40.499   5.291
 5795POPC   GL173861   8.242  40.765   5.670
 5795POPC   GL273862   8.017  40.549   5.812
 5795POPC   C1A73863   8.015  40.964   6.090
 5795POPC   D2A73864   7.942  40.829   6.545
 5795POPC   C3A73865   7.979  41.134   6.907
 5795POPC   C4A73866   7.967  41.221   7.366
 5795POPC   C1B73867   8.386  40.617   6.144
 5795POPC   C2B73868   8.614  40.699   6.524
 5795POPC   C3B73869   8.515  40.662   6.944
 5795POPC   C4B73870   8.183  40.780   7.198
 5796POPC   NC373871  30.337  19.532   5.154
 5796POPC   PO473872  30.858  19.960   5.188
 5796POPC   GL173873  30.841  19.854   5.687
 5796POPC   GL273874  30.628  20.087   5.892
 5796POPC   C1A73875  30.776  19.686   6.167
 5796POPC   D2A73876  30.879  19.830   6.629
 5796POPC   C3A73877  30.582  19.627   6.963
 5796POPC   C4A73878  30.491  19.682   7.433
 5796POPC   C1B73879  31.050  20.112   6.199
 5796POPC   C2B73880  31.261  20.250   6.611
 5796POPC   C3B73881  31.249  20.171   7.064
 5796POPC   C4B73882  30.875  19.976   7.194
 5797POPC   NC373883  21.487  11.996   5.280
 5797POPC   PO473884  21.244  12.550   5.221
 5797POPC   GL173885  21.318  12.321   5.676
 5797POPC   GL273886  21.396  11.956   5.785
 5797POPC   C1A73887  21.426  12.340   6.157
 5797POPC   D2A73888  21.503  12.229   6.607
 5797POPC   C3A73889  21.325  12.055   6.983
 5797POPC   C4A73890  21.420  12.211   7.373
 5797POPC   C1B73891  21.610  11.873   6.192
 5797POPC   C2B73892  21.510  11.726   6.611
 5797POPC   C3B73893  21.744  11.756   7.002
 5797POPC   C4B73894  21.736  11.825   7.452
 5798POPC   NC373895  17.650  18.639   5.040
 5798POPC   PO473896  17.669  18.123   5.391
 5798POPC   GL173897  17.674  18.154   5.841
 5798POPC   GL273898  17.666  17.820   5.868
 5798POPC   C1A73899  17.489  18.297   6.276
 5798POPC   D2A73900  17.118  18.488   6.530
 5798POPC   C3A73901  17.172  18.497   6.969
 5798POPC   C4A73902  17.481  18.240   7.173
 5798POPC   C1B73903  17.538  17.786   6.271
 5798POPC   C2B73904  17.389  17.929   6.662
 5798POPC   C3B73905  17.598  17.761   7.029
 5798POPC   C4B73906  17.901  17.951   7.279
 5799POPC   NC373907  25.739  22.037   5.620
 5799POPC   PO473908  26.354  22.331   5.607
 5799POPC   GL173909  26.152  22.147   5.919
 5799POPC   GL273910  26.293  21.829   5.876
 5799POPC   C1A73911  25.862  22.249   6.260
 5799POPC   D2A73912  25.613  22.280   6.623
 5799POPC   C3A73913  25.844  22.307   7.002
 5799POPC   C4A73914  26.028  22.174   7.363
 5799POPC   C1B73915  26.133  21.820   6.316
 5799POPC   C2B73916  25.895  21.856   6.704
 5799POPC   C3B73917  26.013  21.752   7.094
 5799POPC   C4B73918  26.405  21.825   7.294
 5800POPC   NC373919  28.270  25.075   5.459
 5800POPC   PO473920  28.616  25.608   5.414
 5800POPC   GL173921  28.616  25.417   5.833
 5800POPC   GL273922  28.303  25.279   5.914
 5800POPC   C1A73923  28.565  25.447   6.310
 5800POPC   D2A73924  28.336  25.359   6.689
 5800POPC   C3A73925  28.512  25.403   7.110
 5800POPC   C4A73926  28.709  25.320   7.525
 5800POPC   C1B73927  28.059  25.159   6.269
 5800POPC   C2B73928  27.882  25.118   6.662
 5800POPC   C3B73929  28.049  25.152   7.067
 5800POPC   C4B73930  28.344  24.918   7.299
 5801POPC   NC373931   0.777  20.191   5.608
 5801POPC   PO473932   0.129  20.287   5.482
 5801POPC   GL173933   0.378  20.481   5.788
 5801POPC   GL273934   0.600  20.293   6.057
 5801POPC   C1A73935   0.417  20.743   6.139
 5801POPC   D2A73936   0.467  20.524   6.520
 5801POPC   C3A73937   0.429  20.815   6.824
 5801POPC   C4A73938   0.372  20.769   7.256
 5801POPC   C1B73939   0.134  20.309   6.198
 5801POPC   C2B73940  44.940  20.334   6.608
 5801POPC   C3B73941   0.215  20.356   6.945
 5801POPC   C4B73942   0.637  20.370   7.042
 5802POPC   NC373943  39.041  24.010   5.444
 5802POPC   PO473944  39.351  23.426   5.477
 5802POPC   GL173945  39.166  23.653   5.809
 5802POPC   GL273946  39.189  23.372   6.058
 5802POPC   C1A73947  39.084  23.848   6.196
 5802POPC   D2A73948  39.112  23.620   6.562
 5802POPC   C3A73949  39.067  23.861   6.878
 5802POPC   C4A73950  39.116  23.717   7.273
 5802POPC   C1B73951  39.554  23.462   6.348
 5802POPC   C2B73952  39.709  23.336   6.729
 5802POPC   C3B73953  39.415  23.347   7.062
 5802POPC   C4B73954  39.479  23.423   7.497
 5803POPC   NC373955  25.461  11.127   5.341
 5803POPC   PO473956  25.022  11.627   5.370
 5803POPC   GL173957  25.126  11.348   5.723
 5803POPC   GL273958  24.830  11.197   5.851
 5803POPC   C1A73959  25.158  11.377   6.194
 5803POPC   D2A73960  25.251  11.611   6.575
 5803POPC   C3A73961  25.233  11.363   6.974
 5803POPC   C4A73962  25.143  11.213   7.416
 5803POPC   C1B73963  24.784  11.002   6.254
 5803POPC   C2B73964  25.036  10.994   6.625
 5803POPC   C3B73965  24.890  10.986   7.029
 5803POPC   C4B73966  24.771  10.773   7.394
 5804POPC   NC373967   5.418  11.973   5.376
 5804POPC   PO473968   4.935  12.412   5.370
 5804POPC   GL173969   5.029  12.098   5.675
 5804POPC   GL273970   4.771  12.121   5.869
 5804POPC   C1A73971   5.206  11.943   6.082
 5804POPC   D2A73972   5.192  12.195   6.498
 5804POPC   C3A73973   5.267  12.112   6.943
 5804POPC   C4A73974   5.483  12.386   7.227
 5804POPC   C1B73975   4.754  11.955   6.315
 5804POPC   C2B73976   4.853  11.846   6.760
 5804POPC   C3B73977   4.791  12.029   7.187
 5804POPC   C4B73978   4.749  11.937   7.636
 5805POPC   NC373979  37.059   0.401   5.516
 5805POPC   PO473980  36.717   0.819   5.125
 5805POPC   GL173981  36.613   0.602   5.678
 5805POPC   GL273982  36.689   0.244   5.838
 5805POPC   C1A73983  36.745   0.626   6.165
 5805POPC   D2A73984  36.784   0.414   6.568
 5805POPC   C3A73985  37.038   0.607   6.888
 5805POPC   C4A73986  37.108   0.600   7.319
 5805POPC   C1B73987  37.016   0.124   6.155
 5805POPC   C2B73988  37.264   0.192   6.529
 5805POPC   C3B73989  37.133   0.091   6.930
 5805POPC   C4B73990  36.808   0.222   7.188
 5806POPC   NC373991  33.080  22.624   5.346
 5806POPC   PO473992  32.495  22.806   5.586
 5806POPC   GL173993  32.856  22.905   5.879
 5806POPC   GL273994  33.189  22.781   5.818
 5806POPC   C1A73995  33.028  22.963   6.305
 5806POPC   D2A73996  33.021  22.749   6.677
 5806POPC   C3A73997  33.085  23.006   7.035
 5806POPC   C4A73998  32.963  23.104   7.456
 5806POPC   C1B73999  33.285  22.525   6.200
 5806POPC   C2B74000  33.496  22.541   6.602
 5806POPC   C3B74001  33.295  22.501   7.026
 5806POPC   C4B74002  33.365  22.751   7.394
 5807POPC   NC374003  12.265  20.590   5.337
 5807POPC   PO474004  11.531  20.481   5.332
 5807POPC   GL174005  11.902  20.472   5.695
 5807POPC   GL274006  12.187  20.610   5.835
 5807POPC   C1A74007  11.806  20.541   6.173
 5807POPC   D2A74008  11.679  20.319   6.558
 5807POPC   C3A74009  11.769  20.574   6.888
 5807POPC   C4A74010  11.851  20.490   7.293
 5807POPC   C1B74011  12.227  20.280   6.112
 5807POPC   C2B74012  12.191  20.455   6.543
 5807POPC   C3B74013  12.265  20.352   6.958
 5807POPC   C4B74014  12.398  20.439   7.378
 5808POPC   NC374015  21.014   4.468   5.344
 5808POPC   PO474016  21.747   4.212   5.356
 5808POPC   GL174017  21.588   4.190   5.747
 5808POPC   GL274018  21.306   4.393   5.764
 5808POPC   C1A74019  21.760   4.306   6.139
 5808POPC   D2A74020  21.587   4.387   6.524
 5808POPC   C3A74021  21.735   4.211   6.879
 5808POPC   C4A74022  21.404   4.266   7.129
 5808POPC   C1B74023  21.356   4.648   6.140
 5808POPC   C2B74024  21.164   4.670   6.541
 5808POPC   C3B74025  21.013   4.566   6.919
 5808POPC   C4B74026  21.117   4.673   7.312
 5809POPC   NC374027   8.468  37.055   5.341
 5809POPC   PO474028   7.990  36.595   5.503
 5809POPC   GL174029   8.056  36.859   5.851
 5809POPC   GL274030   8.298  37.095   5.805
 5809POPC   C1A74031   8.188  36.928   6.278
 5809POPC   D2A74032   7.992  36.986   6.654
 5809POPC   C3A74033   8.183  36.722   6.958
 5809POPC   C4A74034   8.116  36.873   7.352
 5809POPC   C1B74035   8.590  37.172   6.133
 5809POPC   C2B74036   8.481  37.278   6.530
 5809POPC   C3B74037   8.405  37.156   6.919
 5809POPC   C4B74038   8.299  37.335   7.252
 5810POPC   NC374039  31.063  21.634   5.361
 5810POPC   PO474040  30.472  21.451   5.351
 5810POPC   GL174041  30.738  21.400   5.729
 5810POPC   GL274042  30.983  21.128   5.641
 5810POPC   C1A74043  30.797  21.530   6.185
 5810POPC   D2A74044  30.691  21.346   6.618
 5810POPC   C3A74045  30.570  21.625   6.986
 5810POPC   C4A74046  30.570  21.474   7.423
 5810POPC   C1B74047  30.858  20.990   6.075
 5810POPC   C2B74048  31.061  20.867   6.480
 5810POPC   C3B74049  30.997  20.995   6.906
 5810POPC   C4B74050  31.018  20.761   7.286
 5811POPC   NC374051   7.780  28.312   5.117
 5811POPC   PO474052   7.067  28.348   5.388
 5811POPC   GL174053   7.254  28.479   5.870
 5811POPC   GL274054   7.605  28.648   5.916
 5811POPC   C1A74055   7.305  28.687   6.304
 5811POPC   D2A74056   7.444  28.601   6.717
 5811POPC   C3A74057   7.328  28.240   6.933
 5811POPC   C4A74058   7.252  28.432   7.328
 5811POPC   C1B74059   7.658  28.311   6.238
 5811POPC   C2B74060   7.847  28.208   6.641
 5811POPC   C3B74061   7.794  28.324   7.068
 5811POPC   C4B74062   7.616  28.082   7.402
 5812POPC   NC374063  23.553   6.797   5.316
 5812POPC   PO474064  24.156   6.454   5.239
 5812POPC   GL174065  23.940   6.645   5.672
 5812POPC   GL274066  23.593   6.547   5.782
 5812POPC   C1A74067  23.772   6.944   6.054
 5812POPC   D2A74068  23.495   7.029   6.449
 5812POPC   C3A74069  23.754   6.935   6.820
 5812POPC   C4A74070  24.005   7.032   7.208
 5812POPC   C1B74071  23.389   6.590   6.193
 5812POPC   C2B74072  23.185   6.613   6.624
 5812POPC   C3B74073  23.275   6.499   7.062
 5812POPC   C4B74074  23.643   6.669   7.239
 5813POPC   NC374075  16.107  28.027   5.517
 5813POPC   PO474076  15.798  27.452   5.452
 5813POPC   GL174077  15.781  27.701   5.820
 5813POPC   GL274078  15.619  27.998   5.713
 5813POPC   C1A74079  15.911  27.691   6.284
 5813POPC   D2A74080  15.927  27.424   6.684
 5813POPC   C3A74081  16.129  27.527   7.099
 5813POPC   C4A74082  16.024  27.532   7.561
 5813POPC   C1B74083  15.474  27.967   6.143
 5813POPC   C2B74084  15.499  27.893   6.594
 5813POPC   C3B74085  15.638  27.726   7.013
 5813POPC   C4B74086  15.619  27.822   7.468
 5814POPC   NC374087  37.640  17.611   5.053
 5814POPC   PO474088  37.591  17.263   5.626
 5814POPC   GL174089  37.741  17.624   5.892
 5814POPC   GL274090  37.425  17.697   6.034
 5814POPC   C1A74091  37.799  17.707   6.363
 5814POPC   D2A74092  37.615  17.421   6.666
 5814POPC   C3A74093  37.533  17.576   7.047
 5814POPC   C4A74094  37.677  17.464   7.437
 5814POPC   C1B74095  37.246  17.425   6.299
 5814POPC   C2B74096  37.065  17.141   6.553
 5814POPC   C3B74097  37.247  17.123   6.934
 5814POPC   C4B74098  37.368  17.074   7.327
 5815POPC   NC374099  24.949  24.528   5.244
 5815POPC   PO474100  25.519  24.314   5.221
 5815POPC   GL174101  25.368  24.372   5.641
 5815POPC   GL274102  25.438  24.727   5.704
 5815POPC   C1A74103  25.188  24.301   6.076
 5815POPC   D2A74104  25.164  24.430   6.521
 5815POPC   C3A74105  25.120  24.178   6.890
 5815POPC   C4A74106  25.152  24.452   7.216
 5815POPC   C1B74107  25.616  24.880   6.091
 5815POPC   C2B74108  25.653  24.679   6.480
 5815POPC   C3B74109  25.720  24.829   6.895
 5815POPC   C4B74110  25.513  24.806   7.279
 5816POPC   NC374111   4.596  20.610   5.247
 5816POPC   PO474112   4.064  21.052   5.378
 5816POPC   GL174113   4.030  20.786   5.752
 5816POPC   GL274114   4.252  21.030   5.867
 5816POPC   C1A74115   4.220  20.437   6.049
 5816POPC   D2A74116   4.434  20.483   6.491
 5816POPC   C3A74117   4.277  20.475   6.960
 5816POPC   C4A74118   4.003  20.437   7.337
 5816POPC   C1B74119   4.125  20.876   6.259
 5816POPC   C2B74120   3.971  20.703   6.621
 5816POPC   C3B74121   3.950  20.880   7.022
 5816POPC   C4B74122   4.155  21.052   7.362
 5817POPC   NC374123  15.129  25.434   5.314
 5817POPC   PO474124  15.053  24.748   5.426
 5817POPC   GL174125  15.126  25.110   5.707
 5817POPC   GL274126  14.889  25.426   5.763
 5817POPC   C1A74127  15.372  25.269   6.037
 5817POPC   D2A74128  15.412  25.214   6.499
 5817POPC   C3A74129  15.249  25.548   6.782
 5817POPC   C4A74130  15.315  25.639   7.233
 5817POPC   C1B74131  14.881  25.301   6.208
 5817POPC   C2B74132  14.838  25.180   6.634
 5817POPC   C3B74133  15.089  25.001   6.923
 5817POPC   C4B74134  15.100  25.052   7.339
 5818POPC   NC374135  44.922  27.022   5.434
 5818POPC   PO474136  44.195  26.865   5.521
 5818POPC   GL174137  44.467  26.774   5.898
 5818POPC   GL274138  44.766  26.941   5.898
 5818POPC   C1A74139  44.759  26.591   6.248
 5818POPC   D2A74140  44.752  26.636   6.679
 5818POPC   C3A74141  44.851  26.656   7.132
 5818POPC   C4A74142  44.486  26.818   7.284
 5818POPC   C1B74143  44.905  27.187   6.174
 5818POPC   C2B74144  44.900  27.118   6.559
 5818POPC   C3B74145  44.734  27.089   6.903
 5818POPC   C4B74146  44.818  27.241   7.210
 5819POPC   NC374147   9.055  36.589   5.490
 5819POPC   PO474148   8.857  37.244   5.505
 5819POPC   GL174149   8.900  36.953   5.813
 5819POPC   GL274150   8.622  36.701   5.740
 5819POPC   C1A74151   9.051  36.975   6.249
 5819POPC   D2A74152   9.280  36.880   6.622
 5819POPC   C3A74153   9.216  37.133   6.930
 5819POPC   C4A74154   9.156  36.904   7.289
 5819POPC   C1B74155   8.763  36.569   6.154
 5819POPC   C2B74156   8.636  36.781   6.517
 5819POPC   C3B74157   8.798  36.844   6.901
 5819POPC   C4B74158   8.618  36.746   7.270
 5820POPC   NC374159   4.512  35.266   5.475
 5820POPC   PO474160   3.988  35.673   5.270
 5820POPC   GL174161   4.028  35.541   5.724
 5820POPC   GL274162   4.088  35.197   5.807
 5820POPC   C1A74163   4.249  35.565   6.146
 5820POPC   D2A74164   4.446  35.649   6.543
 5820POPC   C3A74165   4.416  35.452   6.922
 5820POPC   C4A74166   4.099  35.255   7.050
 5820POPC   C1B74167   4.348  35.043   6.115
 5820POPC   C2B74168   4.398  35.113   6.532
 5820POPC   C3B74169   4.586  34.967   6.887
 5820POPC   C4B74170   4.353  34.822   7.188
 5821POPC   NC374171   6.213  10.592   5.527
 5821POPC   PO474172   6.882  10.484   5.350
 5821POPC   GL174173   6.635  10.347   5.750
 5821POPC   GL274174   6.919  10.369   5.966
 5821POPC   C1A74175   6.454  10.445   6.222
 5821POPC   D2A74176   6.547  10.581   6.687
 5821POPC   C3A74177   6.395  10.611   7.126
 5821POPC   C4A74178   6.416  10.402   7.519
 5821POPC   C1B74179   6.918  10.668   6.320
 5821POPC   C2B74180   7.072  10.624   6.747
 5821POPC   C3B74181   6.891  10.418   7.090
 5821POPC   C4B74182   6.893  10.587   7.482
 5822POPC   NC374183  23.901   0.698   5.373
 5822POPC   PO474184  23.342   0.332   5.413
 5822POPC   GL174185  23.541   0.541   5.790
 5822POPC   GL274186  23.885   0.461   5.831
 5822POPC   C1A74187  23.679   0.606   6.249
 5822POPC   D2A74188  23.752   0.316   6.559
 5822POPC   C3A74189  23.494   0.371   6.892
 5822POPC   C4A74190  23.473   0.733   7.153
 5822POPC   C1B74191  24.114   0.251   6.162
 5822POPC   C2B74192  24.102  44.965   6.531
 5822POPC   C3B74193  24.057   0.114   6.971
 5822POPC   C4B74194  23.804   0.329   7.302
 5823POPC   NC374195  17.472  12.258   5.396
 5823POPC   PO474196  18.073  11.975   5.732
 5823POPC   GL174197  17.666  12.026   5.952
 5823POPC   GL274198  17.320  12.260   5.874
 5823POPC   C1A74199  17.551  12.231   6.346
 5823POPC   D2A74200  17.526  12.305   6.780
 5823POPC   C3A74201  17.664  11.983   7.127
 5823POPC   C4A74202  17.799  11.973   7.600
 5823POPC   C1B74203  17.227  11.909   6.131
 5823POPC   C2B74204  17.392  11.820   6.580
 5823POPC   C3B74205  17.177  11.992   6.951
 5823POPC   C4B74206  17.110  11.850   7.289
 5824POPC   NC374207  13.194  10.994   5.432
 5824POPC   PO474208  12.638  11.422   5.424
 5824POPC   GL174209  12.848  11.274   5.751
 5824POPC   GL274210  12.905  11.628   5.819
 5824POPC   C1A74211  12.742  11.108   6.156
 5824POPC   D2A74212  12.547  11.208   6.548
 5824POPC   C3A74213  12.700  11.087   6.982
 5824POPC   C4A74214  12.556  11.011   7.418
 5824POPC   C1B74215  13.012  11.545   6.220
 5824POPC   C2B74216  12.989  11.411   6.632
 5824POPC   C3B74217  12.871  11.573   6.994
 5824POPC   C4B74218  12.884  11.374   7.397
 5825POPC   NC374219   5.522   9.315   5.461
 5825POPC   PO474220   5.010   8.912   5.412
 5825POPC   GL174221   5.025   8.934   5.843
 5825POPC   GL274222   5.389   8.915   5.797
 5825POPC   C1A74223   4.820   9.010   6.278
 5825POPC   D2A74224   4.764   8.871   6.721
 5825POPC   C3A74225   5.007   9.058   7.069
 5825POPC   C4A74226   5.228   9.359   7.366
 5825POPC   C1B74227   5.314   8.900   6.253
 5825POPC   C2B74228   5.294   8.735   6.671
 5825POPC   C3B74229   5.454   8.821   7.077
 5825POPC   C4B74230   5.514   8.964   7.491
 5826POPC   NC374231  14.914  28.547   5.310
 5826POPC   PO474232  14.980  27.894   5.477
 5826POPC   GL174233  15.118  28.194   5.745
 5826POPC   GL274234  15.356  28.431   5.662
 5826POPC   C1A74235  15.036  28.225   6.165
 5826POPC   D2A74236  15.192  28.330   6.556
 5826POPC   C3A74237  14.987  28.231   6.914
 5826POPC   C4A74238  14.860  28.510   7.205
 5826POPC   C1B74239  15.477  28.484   6.126
 5826POPC   C2B74240  15.623  28.582   6.573
 5826POPC   C3B74241  15.398  28.732   6.924
 5826POPC   C4B74242  15.339  28.614   7.308
 5827POPC   NC374243  17.813  16.292   5.398
 5827POPC   PO474244  17.546  16.907   5.550
 5827POPC   GL174245  17.718  16.810   5.922
 5827POPC   GL274246  17.637  16.466   5.872
 5827POPC   C1A74247  17.761  16.627   6.335
 5827POPC   D2A74248  17.478  16.552   6.659
 5827POPC   C3A74249  17.730  16.685   6.980
 5827POPC   C4A74250  17.762  16.401   7.281
 5827POPC   C1B74251  17.281  16.618   6.158
 5827POPC   C2B74252  17.163  16.915   6.506
 5827POPC   C3B74253  17.275  16.942   6.933
 5827POPC   C4B74254  17.300  16.639   7.251
 5828POPC   NC374255   6.235  37.016   5.470
 5828POPC   PO474256   5.631  36.747   5.364
 5828POPC   GL174257   5.680  36.744   5.803
 5828POPC   GL274258   6.018  36.662   5.815
 5828POPC   C1A74259   5.616  37.001   6.191
 5828POPC   D2A74260   5.808  37.065   6.611
 5828POPC   C3A74261   5.786  36.888   7.040
 5828POPC   C4A74262   5.628  36.688   7.430
 5828POPC   C1B74263   6.102  36.856   6.228
 5828POPC   C2B74264   6.204  36.647   6.639
 5828POPC   C3B74265   6.295  36.720   7.081
 5828POPC   C4B74266   6.092  36.892   7.458
 5829POPC   NC374267  26.937  33.659   5.456
 5829POPC   PO474268  26.435  33.967   5.455
 5829POPC   GL174269  26.538  33.746   5.837
 5829POPC   GL274270  26.595  33.387   5.761
 5829POPC   C1A74271  26.630  33.792   6.308
 5829POPC   D2A74272  26.904  33.751   6.698
 5829POPC   C3A74273  26.759  33.996   7.050
 5829POPC   C4A74274  26.429  34.321   7.085
 5829POPC   C1B74275  26.739  33.313   6.208
 5829POPC   C2B74276  26.745  33.252   6.693
 5829POPC   C3B74277  26.656  33.475   7.073
 5829POPC   C4B74278  26.694  33.502   7.506
 5830POPC   NC374279  10.169  39.820   5.458
 5830POPC   PO474280  10.685  40.187   5.181
 5830POPC   GL174281  10.689  40.093   5.636
 5830POPC   GL274282  10.380  40.202   5.727
 5830POPC   C1A74283  10.686  40.013   6.119
 5830POPC   D2A74284  10.786  40.202   6.551
 5830POPC   C3A74285  10.735  39.988   6.931
 5830POPC   C4A74286  10.450  39.779   7.229
 5830POPC   C1B74287  10.192  40.098   6.120
 5830POPC   C2B74288  10.317  39.920   6.509
 5830POPC   C3B74289  10.253  40.114   6.884
 5830POPC   C4B74290  10.077  40.114   7.256
 5831POPC   NC374291  13.959  22.455   5.357
 5831POPC   PO474292  13.322  22.868   5.316
 5831POPC   GL174293  13.542  22.891   5.751
 5831POPC   GL274294  13.471  23.167   5.841
 5831POPC   C1A74295  13.565  22.749   6.185
 5831POPC   D2A74296  13.572  22.932   6.593
 5831POPC   C3A74297  13.674  22.757   7.004
 5831POPC   C4A74298  13.923  22.927   7.348
 5831POPC   C1B74299  13.707  23.275   6.179
 5831POPC   C2B74300  13.743  23.426   6.563
 5831POPC   C3B74301  13.747  23.271   6.972
 5831POPC   C4B74302  13.544  23.243   7.375
 5832POPC   NC374303  22.212  21.965   5.111
 5832POPC   PO474304  22.058  21.344   5.389
 5832POPC   GL174305  22.045  21.218   5.765
 5832POPC   GL274306  21.985  20.853   5.714
 5832POPC   C1A74307  22.102  21.415   6.179
 5832POPC   D2A74308  22.390  21.498   6.524
 5832POPC   C3A74309  22.205  21.443   6.917
 5832POPC   C4A74310  22.358  21.333   7.312
 5832POPC   C1B74311  21.915  20.927   6.155
 5832POPC   C2B74312  21.732  21.160   6.477
 5832POPC   C3B74313  21.719  21.078   6.908
 5832POPC   C4B74314  21.849  21.334   7.267
 5833POPC   NC374315   3.054  16.571   5.556
 5833POPC   PO474316   2.456  16.890   5.344
 5833POPC   GL174317   2.473  16.736   5.810
 5833POPC   GL274318   2.628  16.383   5.903
 5833POPC   C1A74319   2.591  16.725   6.284
 5833POPC   D2A74320   2.918  16.681   6.618
 5833POPC   C3A74321   2.780  16.541   7.025
 5833POPC   C4A74322   2.657  16.463   7.451
 5833POPC   C1B74323   2.996  16.358   6.221
 5833POPC   C2B74324   3.283  16.290   6.617
 5833POPC   C3B74325   3.238  16.315   7.085
 5833POPC   C4B74326   3.136  16.265   7.515
 5834POPC   NC374327  26.459  26.676   5.515
 5834POPC   PO474328  27.111  26.712   5.473
 5834POPC   GL174329  26.863  26.856   5.822
 5834POPC   GL274330  26.890  27.208   5.751
 5834POPC   C1A74331  26.687  26.683   6.239
 5834POPC   D2A74332  26.544  26.595   6.686
 5834POPC   C3A74333  26.894  26.637   7.003
 5834POPC   C4A74334  27.219  26.598   7.331
 5834POPC   C1B74335  26.833  27.197   6.216
 5834POPC   C2B74336  26.816  27.027   6.651
 5834POPC   C3B74337  26.972  27.134   7.071
 5834POPC   C4B74338  27.110  27.496   7.285
 5835POPC   NC374339  19.633  35.449   5.547
 5835POPC   PO474340  20.279  35.315   5.492
 5835POPC   GL174341  20.030  35.338   5.879
 5835POPC   GL274342  19.819  35.027   5.825
 5835POPC   C1A74343  19.835  35.623   6.215
 5835POPC   D2A74344  19.494  35.636   6.538
 5835POPC   C3A74345  19.706  35.639   6.909
 5835POPC   C4A74346  19.949  35.641   7.256
 5835POPC   C1B74347  19.642  35.158   6.244
 5835POPC   C2B74348  19.776  35.202   6.678
 5835POPC   C3B74349  19.730  35.154   7.124
 5835POPC   C4B74350  19.759  35.284   7.559
 5836POPC   NC374351  37.927  42.725   5.514
 5836POPC   PO474352  37.881  43.409   5.427
 5836POPC   GL174353  37.682  43.302   5.848
 5836POPC   GL274354  37.694  42.965   5.886
 5836POPC   C1A74355  37.431  43.317   6.249
 5836POPC   D2A74356  37.587  43.437   6.699
 5836POPC   C3A74357  37.583  43.359   7.191
 5836POPC   C4A74358  37.365  43.492   7.645
 5836POPC   C1B74359  37.890  43.086   6.287
 5836POPC   C2B74360  37.867  42.958   6.707
 5836POPC   C3B74361  37.911  42.666   6.998
 5836POPC   C4B74362  37.723  42.810   7.300
 5837POPC   NC374363  34.293  17.031   5.218
 5837POPC   PO474364  33.834  16.571   5.411
 5837POPC   GL174365  33.886  16.562   5.870
 5837POPC   GL274366  34.038  16.876   5.823
 5837POPC   C1A74367  33.821  16.540   6.354
 5837POPC   D2A74368  33.566  16.730   6.692
 5837POPC   C3A74369  33.464  16.648   7.123
 5837POPC   C4A74370  33.509  17.014   7.339
 5837POPC   C1B74371  34.146  16.953   6.249
 5837POPC   C2B74372  34.055  16.916   6.687
 5837POPC   C3B74373  33.930  16.799   7.080
 5837POPC   C4B74374  34.074  16.584   7.400
 5838POPC   NC374375   4.191  21.874   5.459
 5838POPC   PO474376   4.301  22.532   5.296
 5838POPC   GL174377   4.376  22.411   5.783
 5838POPC   GL274378   4.372  22.042   5.895
 5838POPC   C1A74379   4.288  22.353   6.260
 5838POPC   D2A74380   4.486  22.148   6.607
 5838POPC   C3A74381   4.257  22.266   6.989
 5838POPC   C4A74382   4.037  22.562   7.225
 5838POPC   C1B74383   4.125  21.849   6.271
 5838POPC   C2B74384   4.163  21.766   6.730
 5838POPC   C3B74385   4.473  21.831   7.063
 5838POPC   C4B74386   4.392  22.044   7.436
 5839POPC   NC374387  12.626  33.106   5.270
 5839POPC   PO474388  12.916  32.510   5.393
 5839POPC   GL174389  12.970  32.921   5.627
 5839POPC   GL274390  12.678  33.107   5.785
 5839POPC   C1A74391  13.103  32.996   6.071
 5839POPC   D2A74392  12.894  33.046   6.489
 5839POPC   C3A74393  13.051  32.858   6.857
 5839POPC   C4A74394  13.220  32.988   7.238
 5839POPC   C1B74395  12.478  33.180   6.198
 5839POPC   C2B74396  12.482  33.314   6.641
 5839POPC   C3B74397  12.630  33.147   7.045
 5839POPC   C4B74398  12.653  32.981   7.457
 5840POPC   NC374399  19.499  42.639   5.615
 5840POPC   PO474400  19.886  43.078   5.207
 5840POPC   GL174401  19.897  43.004   5.665
 5840POPC   GL274402  19.615  43.170   5.775
 5840POPC   C1A74403  20.095  42.908   6.098
 5840POPC   D2A74404  19.963  42.802   6.553
 5840POPC   C3A74405  20.123  42.975   6.950
 5840POPC   C4A74406  20.032  43.344   7.194
 5840POPC   C1B74407  19.653  43.150   6.218
 5840POPC   C2B74408  19.552  43.091   6.640
 5840POPC   C3B74409  19.598  43.119   7.069
 5840POPC   C4B74410  19.808  42.971   7.426
 5841POPC   NC374411  10.381  34.085   5.336
 5841POPC   PO474412  10.393  33.453   5.367
 5841POPC   GL174413  10.283  33.691   5.711
 5841POPC   GL274414  10.625  33.690   5.793
 5841POPC   C1A74415  10.290  33.790   6.166
 5841POPC   D2A74416  10.420  33.851   6.589
 5841POPC   C3A74417  10.177  33.881   6.925
 5841POPC   C4A74418  10.362  33.863   7.294
 5841POPC   C1B74419  10.806  33.816   6.193
 5841POPC   C2B74420  10.865  33.640   6.605
 5841POPC   C3B74421  10.940  33.798   7.014
 5841POPC   C4B74422  10.850  33.644   7.432
 5842POPC   NC374423  36.080  40.551   5.410
 5842POPC   PO474424  36.156  41.193   5.443
 5842POPC   GL174425  36.018  40.902   5.801
 5842POPC   GL274426  35.785  40.610   5.839
 5842POPC   C1A74427  36.216  40.620   6.115
 5842POPC   D2A74428  36.461  40.727   6.483
 5842POPC   C3A74429  36.215  40.699   6.853
 5842POPC   C4A74430  36.098  40.989   7.173
 5842POPC   C1B74431  35.706  40.733   6.314
 5842POPC   C2B74432  35.687  40.752   6.803
 5842POPC   C3B74433  35.654  40.787   7.264
 5842POPC   C4B74434  35.949  40.860   7.667
 5843POPC   NC374435  27.855  14.037   5.456
 5843POPC   PO474436  27.492  13.492   5.467
 5843POPC   GL174437  27.488  13.800   5.810
 5843POPC   GL274438  27.281  13.558   6.015
 5843POPC   C1A74439  27.669  13.810   6.234
 5843POPC   D2A74440  27.459  13.624   6.632
 5843POPC   C3A74441  27.547  13.555   7.090
 5843POPC   C4A74442  27.480  13.688   7.527
 5843POPC   C1B74443  27.627  13.307   6.253
 5843POPC   C2B74444  27.892  13.282   6.667
 5843POPC   C3B74445  27.989  13.301   7.148
 5843POPC   C4B74446  28.008  13.584   7.541
 5844POPC   NC374447   1.675  18.744   5.143
 5844POPC   PO474448   1.065  18.830   5.346
 5844POPC   GL174449   1.305  19.003   5.747
 5844POPC   GL274450   1.308  19.394   5.800
 5844POPC   C1A74451   1.387  19.089   6.222
 5844POPC   D2A74452   1.212  19.189   6.639
 5844POPC   C3A74453   1.372  19.093   7.052
 5844POPC   C4A74454   1.399  18.889   7.489
 5844POPC   C1B74455   1.049  19.474   6.193
 5844POPC   C2B74456   0.942  19.611   6.634
 5844POPC   C3B74457   1.115  19.561   7.079
 5844POPC   C4B74458   1.043  19.268   7.459
 5845POPC   NC374459  41.580  44.295   5.310
 5845POPC   PO474460  41.826  44.865   5.208
 5845POPC   GL174461  41.614  44.745   5.640
 5845POPC   GL274462  41.330  44.485   5.721
 5845POPC   C1A74463  41.544  44.751   6.111
 5845POPC   D2A74464  41.564  44.539   6.519
 5845POPC   C3A74465  41.735  44.788   6.867
 5845POPC   C4A74466  41.422   0.025   7.126
 5845POPC   C1B74467  41.516  44.206   6.040
 5845POPC   C2B74468  41.706  44.056   6.426
 5845POPC   C3B74469  41.563  44.143   6.862
 5845POPC   C4B74470  41.414  44.477   7.136
 5846POPC   NC374471  16.067  16.562   5.470
 5846POPC   PO474472  15.348  16.731   5.349
 5846POPC   GL174473  15.636  16.683   5.745
 5846POPC   GL274474  15.772  16.358   5.931
 5846POPC   C1A74475  15.832  16.800   6.172
 5846POPC   D2A74476  15.818  16.602   6.595
 5846POPC   C3A74477  16.066  16.733   6.945
 5846POPC   C4A74478  15.790  16.865   7.269
 5846POPC   C1B74479  15.947  16.184   6.340
 5846POPC   C2B74480  16.006  16.170   6.837
 5846POPC   C3B74481  15.959  16.356   7.287
 5846POPC   C4B74482  16.144  16.310   7.716
 5847POPC   NC374483  26.703  32.676   5.262
 5847POPC   PO474484  26.731  32.050   5.444
 5847POPC   GL174485  26.663  32.275   5.828
 5847POPC   GL274486  26.813  32.581   5.761
 5847POPC   C1A74487  26.483  32.407   6.206
 5847POPC   D2A74488  26.405  32.334   6.616
 5847POPC   C3A74489  26.658  32.051   6.831
 5847POPC   C4A74490  27.006  32.134   7.066
 5847POPC   C1B74491  27.008  32.497   6.178
 5847POPC   C2B74492  26.905  32.450   6.632
 5847POPC   C3B74493  26.908  32.658   7.010
 5847POPC   C4B74494  27.161  32.566   7.360
 5848POPC   NC374495  38.168  38.258   5.552
 5848POPC   PO474496  38.698  38.654   5.495
 5848POPC   GL174497  38.463  38.541   5.869
 5848POPC   GL274498  38.139  38.690   5.836
 5848POPC   C1A74499  38.451  38.165   6.187
 5848POPC   D2A74500  38.580  38.077   6.648
 5848POPC   C3A74501  38.791  38.435   6.886
 5848POPC   C4A74502  38.706  38.704   7.228
 5848POPC   C1B74503  37.910  38.595   6.207
 5848POPC   C2B74504  38.128  38.383   6.533
 5848POPC   C3B74505  38.277  38.386   6.938
 5848POPC   C4B74506  38.188  38.659   7.239
 5849POPC   NC374507  38.844  17.667   5.508
 5849POPC   PO474508  39.504  17.624   5.469
 5849POPC   GL174509  39.255  17.550   5.817
 5849POPC   GL274510  38.964  17.307   5.867
 5849POPC   C1A74511  39.279  17.767   6.208
 5849POPC   D2A74512  39.134  17.638   6.626
 5849POPC   C3A74513  39.373  17.673   7.000
 5849POPC   C4A74514  39.057  17.483   7.259
 5849POPC   C1B74515  39.193  17.264   6.261
 5849POPC   C2B74516  39.375  17.175   6.673
 5849POPC   C3B74517  39.224  17.043   7.077
 5849POPC   C4B74518  39.309  17.092   7.520
 5850POPC   NC374519   9.394  39.807   5.313
 5850POPC   PO474520   8.975  40.333   5.504
 5850POPC   GL174521   8.979  40.011   5.787
 5850POPC   GL274522   9.287  40.128   5.921
 5850POPC   C1A74523   8.940  39.867   6.235
 5850POPC   D2A74524   8.611  39.813   6.555
 5850POPC   C3A74525   8.763  39.763   6.952
 5850POPC   C4A74526   8.984  39.972   7.284
 5850POPC   C1B74527   9.439  40.459   6.254
 5850POPC   C2B74528   9.389  40.335   6.681
 5850POPC   C3B74529   9.281  39.921   6.856
 5850POPC   C4B74530   9.436  39.746   7.242
 5851POPC   NC374531  40.313  28.206   5.156
 5851POPC   PO474532  40.924  28.478   5.312
 5851POPC   GL174533  40.713  28.518   5.695
 5851POPC   GL274534  40.572  28.197   5.661
 5851POPC   C1A74535  40.950  28.541   6.084
 5851POPC   D2A74536  40.985  28.393   6.505
 5851POPC   C3A74537  40.735  28.600   6.816
 5851POPC   C4A74538  40.929  28.458   7.179
 5851POPC   C1B74539  40.655  28.100   6.121
 5851POPC   C2B74540  40.473  28.238   6.530
 5851POPC   C3B74541  40.600  28.106   6.950
 5851POPC   C4B74542  40.761  28.022   7.381
 5852POPC   NC374543  41.939  43.598   5.413
 5852POPC   PO474544  41.365  43.884   5.209
 5852POPC   GL174545  41.489  43.803   5.678
 5852POPC   GL274546  41.817  43.762   5.897
 5852POPC   C1A74547  41.347  43.721   6.126
 5852POPC   D2A74548  41.202  43.926   6.505
 5852POPC   C3A74549  41.251  43.731   6.906
 5852POPC   C4A74550  41.309  43.928   7.304
 5852POPC   C1B74551  41.846  43.568   6.291
 5852POPC   C2B74552  41.712  43.618   6.701
 5852POPC   C3B74553  41.756  43.747   7.128
 5852POPC   C4B74554  41.700  43.680   7.559
 5853POPC   NC374555  25.206  41.587   5.450
 5853POPC   PO474556  24.789  42.106   5.334
 5853POPC   GL174557  24.959  41.884   5.825
 5853POPC   GL274558  25.339  41.719   5.910
 5853POPC   C1A74559  25.135  41.923   6.302
 5853POPC   D2A74560  25.074  41.694   6.697
 5853POPC   C3A74561  25.333  41.647   7.079
 5853POPC   C4A74562  25.302  41.765   7.538
 5853POPC   C1B74563  24.982  41.458   6.131
 5853POPC   C2B74564  24.833  41.247   6.528
 5853POPC   C3B74565  25.016  41.258   6.960
 5853POPC   C4B74566  25.108  41.326   7.439
 5854POPC   NC374567   1.360  22.704   5.348
 5854POPC   PO474568   1.113  23.267   5.342
 5854POPC   GL174569   1.288  23.197   5.791
 5854POPC   GL274570   1.370  22.839   5.836
 5854POPC   C1A74571   1.285  23.085   6.269
 5854POPC   D2A74572   1.130  22.967   6.678
 5854POPC   C3A74573   1.205  23.225   7.054
 5854POPC   C4A74574   1.055  22.955   7.389
 5854POPC   C1B74575   1.519  22.605   6.191
 5854POPC   C2B74576   1.524  22.655   6.633
 5854POPC   C3B74577   1.473  22.779   7.072
 5854POPC   C4B74578   1.567  22.991   7.477
 5855POPC   NC374579   6.048  21.639   5.683
 5855POPC   PO474580   5.597  22.104   5.352
 5855POPC   GL174581   5.881  22.125   5.711
 5855POPC   GL274582   5.646  21.914   5.885
 5855POPC   C1A74583   6.028  22.151   6.172
 5855POPC   D2A74584   5.878  22.365   6.592
 5855POPC   C3A74585   6.059  22.280   7.015
 5855POPC   C4A74586   6.260  21.963   7.273
 5855POPC   C1B74587   5.526  22.198   6.239
 5855POPC   C2B74588   5.398  22.151   6.667
 5855POPC   C3B74589   5.564  22.179   7.061
 5855POPC   C4B74590   5.611  22.569   7.252
 5856POPC   NC374591  21.503  19.219   5.400
 5856POPC   PO474592  21.294  18.664   5.516
 5856POPC   GL174593  21.226  19.011   5.776
 5856POPC   GL274594  21.033  19.281   5.626
 5856POPC   C1A74595  21.467  19.088   6.139
 5856POPC   D2A74596  21.695  18.999   6.513
 5856POPC   C3A74597  21.489  19.163   6.862
 5856POPC   C4A74598  21.567  19.302   7.261
 5856POPC   C1B74599  20.957  19.353   6.084
 5856POPC   C2B74600  21.037  19.331   6.562
 5856POPC   C3B74601  21.049  19.339   7.047
 5856POPC   C4B74602  21.098  19.070   7.424
 5857POPC   NC374603  35.749  26.300   5.126
 5857POPC   PO474604  36.169  25.874   5.465
 5857POPC   GL174605  36.346  26.144   5.785
 5857POPC   GL274606  36.076  26.184   6.010
 5857POPC   C1A74607  36.508  26.106   6.226
 5857POPC   D2A74608  36.211  26.146   6.529
 5857POPC   C3A74609  36.367  26.181   6.907
 5857POPC   C4A74610  36.255  26.165   7.307
 5857POPC   C1B74611  35.787  25.983   6.274
 5857POPC   C2B74612  35.686  26.102   6.694
 5857POPC   C3B74613  35.786  26.273   7.078
 5857POPC   C4B74614  35.775  26.108   7.481
 5858POPC   NC374615  25.051  32.762   5.325
 5858POPC   PO474616  25.590  33.181   5.464
 5858POPC   GL174617  25.282  33.164   5.723
 5858POPC   GL274618  25.389  33.363   5.997
 5858POPC   C1A74619  25.051  32.969   6.030
 5858POPC   D2A74620  24.962  32.882   6.480
 5858POPC   C3A74621  25.126  32.997   6.910
 5858POPC   C4A74622  25.355  32.899   7.333
 5858POPC   C1B74623  25.544  32.991   6.179
 5858POPC   C2B74624  25.499  32.805   6.585
 5858POPC   C3B74625  25.638  33.032   6.949
 5858POPC   C4B74626  25.513  33.379   7.248
 5859POPC   NC374627  15.387   2.402   5.271
 5859POPC   PO474628  15.141   1.804   5.354
 5859POPC   GL174629  15.305   1.871   5.752
 5859POPC   GL274630  15.405   2.240   5.784
 5859POPC   C1A74631  15.460   1.860   6.174
 5859POPC   D2A74632  15.655   1.702   6.524
 5859POPC   C3A74633  15.352   1.780   6.820
 5859POPC   C4A74634  15.409   1.900   7.212
 5859POPC   C1B74635  15.103   2.245   6.113
 5859POPC   C2B74636  15.033   2.150   6.544
 5859POPC   C3B74637  15.183   2.290   6.938
 5859POPC   C4B74638  15.010   2.240   7.337
 5860POPC   NC374639  18.773  22.511   5.423
 5860POPC   PO474640  18.716  21.922   5.363
 5860POPC   GL174641  19.031  22.108   5.664
 5860POPC   GL274642  18.893  22.358   5.883
 5860POPC   C1A74643  19.191  22.013   6.125
 5860POPC   D2A74644  19.251  21.726   6.497
 5860POPC   C3A74645  19.236  21.935   6.929
 5860POPC   C4A74646  18.933  21.994   7.260
 5860POPC   C1B74647  19.062  22.510   6.236
 5860POPC   C2B74648  18.999  22.329   6.624
 5860POPC   C3B74649  18.936  22.456   7.028
 5860POPC   C4B74650  19.281  22.386   7.284
 5861POPC   NC374651  26.308  32.233   5.463
 5861POPC   PO474652  25.734  32.250   5.609
 5861POPC   GL174653  26.045  32.256   5.919
 5861POPC   GL274654  26.138  32.561   5.865
 5861POPC   C1A74655  26.035  32.079   6.336
 5861POPC   D2A74656  26.134  31.923   6.720
 5861POPC   C3A74657  25.890  31.806   7.046
 5861POPC   C4A74658  25.914  31.992   7.472
 5861POPC   C1B74659  25.821  32.546   6.251
 5861POPC   C2B74660  25.940  32.522   6.677
 5861POPC   C3B74661  25.979  32.320   7.055
 5861POPC   C4B74662  25.712  32.502   7.311
 5862POPC   NC374663  23.599  25.437   5.366
 5862POPC   PO474664  24.115  25.144   5.412
 5862POPC   GL174665  23.853  25.275   5.771
 5862POPC   GL274666  23.479  25.175   5.784
 5862POPC   C1A74667  23.809  25.427   6.173
 5862POPC   D2A74668  23.783  25.181   6.518
 5862POPC   C3A74669  23.845  25.355   6.896
 5862POPC   C4A74670  23.955  25.069   7.249
 5862POPC   C1B74671  23.354  25.172   6.210
 5862POPC   C2B74672  23.314  25.392   6.596
 5862POPC   C3B74673  23.334  25.554   6.954
 5862POPC   C4B74674  23.508  25.316   7.260
 5863POPC   NC374675  24.933  42.489   5.117
 5863POPC   PO474676  25.303  42.065   5.529
 5863POPC   GL174677  25.340  42.274   5.943
 5863POPC   GL274678  25.376  42.645   5.818
 5863POPC   C1A74679  25.190  42.455   6.337
 5863POPC   D2A74680  25.213  42.504   6.796
 5863POPC   C3A74681  25.181  42.138   7.103
 5863POPC   C4A74682  24.927  42.087   7.505
 5863POPC   C1B74683  25.669  42.654   6.149
 5863POPC   C2B74684  25.696  42.537   6.562
 5863POPC   C3B74685  25.650  42.730   6.946
 5863POPC   C4B74686  25.448  42.525   7.260
 5864POPC   NC374687  22.193  36.533   5.315
 5864POPC   PO474688  21.664  36.677   5.628
 5864POPC   GL174689  22.104  36.645   5.832
 5864POPC   GL274690  22.390  36.900   5.832
 5864POPC   C1A74691  22.310  36.623   6.257
 5864POPC   D2A74692  22.520  36.757   6.639
 5864POPC   C3A74693  22.321  36.705   7.066
 5864POPC   C4A74694  21.936  36.794   7.336
 5864POPC   C1B74695  22.550  37.100   6.250
 5864POPC   C2B74696  22.745  37.248   6.666
 5864POPC   C3B74697  22.589  37.271   7.100
 5864POPC   C4B74698  22.316  37.118   7.458
 5865POPC   NC374699   8.202  13.772   5.215
 5865POPC   PO474700   8.040  13.280   5.619
 5865POPC   GL174701   8.329  13.449   5.903
 5865POPC   GL274702   8.536  13.696   5.665
 5865POPC   C1A74703   8.230  13.555   6.336
 5865POPC   D2A74704   8.310  13.580   6.776
 5865POPC   C3A74705   7.957  13.457   7.018
 5865POPC   C4A74706   8.003  13.614   7.448
 5865POPC   C1B74707   8.485  13.891   6.064
 5865POPC   C2B74708   8.516  13.972   6.516
 5865POPC   C3B74709   8.364  14.143   6.885
 5865POPC   C4B74710   8.235  14.231   7.294
 5866POPC   NC374711  44.255  31.797   5.539
 5866POPC   PO474712  43.783  31.290   5.587
 5866POPC   GL174713  43.588  31.263   5.990
 5866POPC   GL274714  43.896  31.461   6.085
 5866POPC   C1A74715  43.593  31.287   6.457
 5866POPC   D2A74716  43.868  31.568   6.625
 5866POPC   C3A74717  43.791  31.578   7.008
 5866POPC   C4A74718  43.737  31.199   7.183
 5866POPC   C1B74719  44.266  31.642   6.317
 5866POPC   C2B74720  44.287  31.819   6.764
 5866POPC   C3B74721  44.259  31.695   7.222
 5866POPC   C4B74722  44.268  31.760   7.697
 5867POPC   NC374723  42.618  31.190   5.432
 5867POPC   PO474724  42.288  30.656   5.113
 5867POPC   GL174725  42.398  30.731   5.538
 5867POPC   GL274726  42.711  30.664   5.674
 5867POPC   C1A74727  42.258  30.656   5.965
 5867POPC   D2A74728  42.222  30.710   6.418
 5867POPC   C3A74729  42.148  30.726   6.865
 5867POPC   C4A74730  42.276  30.896   7.268
 5867POPC   C1B74731  42.737  30.793   6.142
 5867POPC   C2B74732  42.692  30.630   6.580
 5867POPC   C3B74733  42.667  30.806   6.977
 5867POPC   C4B74734  42.726  30.704   7.435
 5868POPC   NC374735  44.551  41.200   5.125
 5868POPC   PO474736  44.271  40.671   5.578
 5868POPC   GL174737  44.497  40.698   5.941
 5868POPC   GL274738  44.837  40.839   5.938
 5868POPC   C1A74739  44.578  40.808   6.363
 5868POPC   D2A74740  44.537  41.003   6.720
 5868POPC   C3A74741  44.728  40.732   6.976
 5868POPC   C4A74742  44.650  40.809   7.353
 5868POPC   C1B74743   0.067  41.026   6.286
 5868POPC   C2B74744   0.053  41.046   6.736
 5868POPC   C3B74745   0.096  41.031   7.205
 5868POPC   C4B74746  44.935  41.106   7.644
 5869POPC   NC374747   5.374   5.157   5.418
 5869POPC   PO474748   4.761   5.408   5.444
 5869POPC   GL174749   5.041   5.293   5.824
 5869POPC   GL274750   5.416   5.303   5.905
 5869POPC   C1A74751   5.028   4.977   6.186
 5869POPC   D2A74752   5.243   4.825   6.583
 5869POPC   C3A74753   5.123   5.016   6.969
 5869POPC   C4A74754   4.865   4.984   7.327
 5869POPC   C1B74755   5.400   5.281   6.371
 5869POPC   C2B74756   5.544   5.273   6.799
 5869POPC   C3B74757   5.613   4.915   7.070
 5869POPC   C4B74758   5.352   4.809   7.421
 5870POPC   NC374759   9.209  38.091   5.411
 5870POPC   PO474760   8.566  38.296   5.597
 5870POPC   GL174761   8.859  38.639   5.886
 5870POPC   GL274762   9.203  38.756   5.964
 5870POPC   C1A74763   8.794  38.953   6.270
 5870POPC   D2A74764   8.538  38.814   6.646
 5870POPC   C3A74765   8.742  38.619   6.996
 5870POPC   C4A74766   8.677  38.242   7.179
 5870POPC   C1B74767   9.098  38.571   6.395
 5870POPC   C2B74768   9.199  38.453   6.835
 5870POPC   C3B74769   9.181  38.377   7.288
 5870POPC   C4B74770   9.354  38.260   7.715
 5871POPC   NC374771  41.083  34.034   5.384
 5871POPC   PO474772  41.737  33.822   5.324
 5871POPC   GL174773  41.706  33.944   5.743
 5871POPC   GL274774  41.861  33.652   5.814
 5871POPC   C1A74775  41.489  33.784   6.143
 5871POPC   D2A74776  41.439  33.610   6.565
 5871POPC   C3A74777  41.268  33.881   6.891
 5871POPC   C4A74778  41.452  33.941   7.285
 5871POPC   C1B74779  42.026  33.406   6.131
 5871POPC   C2B74780  41.798  33.265   6.450
 5871POPC   C3B74781  41.828  33.319   6.869
 5871POPC   C4B74782  41.814  33.530   7.257
 5872POPC   NC374783  38.767  16.827   5.343
 5872POPC   PO474784  38.002  16.671   5.365
 5872POPC   GL174785  38.320  16.758   5.724
 5872POPC   GL274786  38.637  16.537   5.740
 5872POPC   C1A74787  38.222  16.967   6.160
 5872POPC   D2A74788  38.417  16.868   6.546
 5872POPC   C3A74789  38.370  17.078   6.932
 5872POPC   C4A74790  38.249  16.910   7.313
 5872POPC   C1B74791  38.720  16.837   6.084
 5872POPC   C2B74792  38.918  16.913   6.521
 5872POPC   C3B74793  38.816  16.771   6.924
 5872POPC   C4B74794  38.808  16.876   7.357
 5873POPC   NC374795   4.076  42.937   5.494
 5873POPC   PO474796   4.013  42.240   5.457
 5873POPC   GL174797   4.401  42.289   5.730
 5873POPC   GL274798   4.632  42.610   5.745
 5873POPC   C1A74799   4.452  42.105   6.139
 5873POPC   D2A74800   4.329  42.373   6.469
 5873POPC   C3A74801   4.409  42.260   6.876
 5873POPC   C4A74802   4.313  42.053   7.253
 5873POPC   C1B74803   4.772  42.511   6.185
 5873POPC   C2B74804   4.852  42.463   6.633
 5873POPC   C3B74805   4.761  42.558   7.091
 5873POPC   C4B74806   4.744  42.249   7.403
 5874POPC   NC374807  39.052  32.859   5.416
 5874POPC   PO474808  39.509  33.342   5.338
 5874POPC   GL174809  39.319  33.163   5.734
 5874POPC   GL274810  39.366  32.760   5.802
 5874POPC   C1A74811  39.064  33.081   6.096
 5874POPC   D2A74812  39.025  32.972   6.516
 5874POPC   C3A74813  39.048  33.252   6.856
 5874POPC   C4A74814  39.132  32.993   7.190
 5874POPC   C1B74815  39.506  32.576   6.187
 5874POPC   C2B74816  39.557  32.739   6.616
 5874POPC   C3B74817  39.511  32.675   7.064
 5874POPC   C4B74818  39.498  32.787   7.520
 5875POPC   NC374819  32.985  27.671   5.324
 5875POPC   PO474820  32.674  27.281   5.594
 5875POPC   GL174821  32.848  27.649   5.833
 5875POPC   GL274822  33.203  27.741   5.790
 5875POPC   C1A74823  32.892  27.933   6.199
 5875POPC   D2A74824  33.128  27.967   6.615
 5875POPC   C3A74825  32.896  27.846   7.001
 5875POPC   C4A74826  32.794  27.565   7.386
 5875POPC   C1B74827  33.283  27.626   6.241
 5875POPC   C2B74828  33.205  27.451   6.678
 5875POPC   C3B74829  33.258  27.501   7.149
 5875POPC   C4B74830  33.500  27.378   7.540
 5876POPC   NC374831  33.498  42.423   5.424
 5876POPC   PO474832  34.201  42.057   5.400
 5876POPC   GL174833  34.065  42.176   5.832
 5876POPC   GL274834  33.732  42.312   5.868
 5876POPC   C1A74835  34.037  42.305   6.274
 5876POPC   D2A74836  33.821  42.284   6.679
 5876POPC   C3A74837  34.120  42.133   6.994
 5876POPC   C4A74838  34.069  41.864   7.331
 5876POPC   C1B74839  33.498  42.234   6.253
 5876POPC   C2B74840  33.287  41.973   6.556
 5876POPC   C3B74841  33.270  41.973   6.967
 5876POPC   C4B74842  33.637  42.072   7.141
 5877POPC   NC374843  14.594  23.061   5.440
 5877POPC   PO474844  13.942  22.901   5.450
 5877POPC   GL174845  14.031  23.037   5.844
 5877POPC   GL274846  14.295  23.267   5.814
 5877POPC   C1A74847  14.040  22.927   6.270
 5877POPC   D2A74848  14.254  22.910   6.604
 5877POPC   C3A74849  14.195  22.654   6.937
 5877POPC   C4A74850  14.470  22.740   7.298
 5877POPC   C1B74851  14.540  23.091   6.173
 5877POPC   C2B74852  14.686  23.192   6.609
 5877POPC   C3B74853  14.746  23.297   7.068
 5877POPC   C4B74854  14.851  23.100   7.490
 5878POPC   NC374855  18.117   4.460   5.580
 5878POPC   PO474856  18.328   3.862   5.335
 5878POPC   GL174857  18.433   4.081   5.768
 5878POPC   GL274858  18.148   4.182   5.989
 5878POPC   C1A74859  18.528   4.015   6.250
 5878POPC   D2A74860  18.563   4.290   6.629
 5878POPC   C3A74861  18.461   4.114   7.023
 5878POPC   C4A74862  18.257   4.231   7.418
 5878POPC   C1B74863  18.249   4.496   6.261
 5878POPC   C2B74864  18.099   4.625   6.648
 5878POPC   C3B74865  18.040   4.467   7.036
 5878POPC   C4B74866  18.046   4.689   7.453
 5879POPC   NC374867  44.466  41.993   5.342
 5879POPC   PO474868  44.497  42.594   5.595
 5879POPC   GL174869  44.734  42.337   5.859
 5879POPC   GL274870  44.939  42.617   5.974
 5879POPC   C1A74871  44.725  42.112   6.274
 5879POPC   D2A74872  44.472  42.268   6.629
 5879POPC   C3A74873  44.612  42.249   7.004
 5879POPC   C4A74874  44.588  41.946   7.314
 5879POPC   C1B74875  44.649  42.614   6.309
 5879POPC   C2B74876  44.844  42.662   6.724
 5879POPC   C3B74877  44.920  42.667   7.164
 5879POPC   C4B74878  44.704  42.434   7.476
 5880POPC   NC374879  17.023   2.025   5.502
 5880POPC   PO474880  17.382   2.467   5.182
 5880POPC   GL174881  17.404   2.262   5.707
 5880POPC   GL274882  17.270   1.944   5.926
 5880POPC   C1A74883  17.511   2.292   6.204
 5880POPC   D2A74884  17.692   2.417   6.634
 5880POPC   C3A74885  17.717   2.198   7.039
 5880POPC   C4A74886  17.436   2.082   7.363
 5880POPC   C1B74887  17.601   1.782   6.173
 5880POPC   C2B74888  17.611   1.904   6.597
 5880POPC   C3B74889  17.349   1.835   6.931
 5880POPC   C4B74890  17.396   1.571   7.279
 5881POPC   NC374891  17.969  43.679   5.473
 5881POPC   PO474892  18.421  44.164   5.260
 5881POPC   GL174893  18.407  43.950   5.678
 5881POPC   GL274894  18.314  43.650   5.866
 5881POPC   C1A74895  18.393  44.092   6.128
 5881POPC   D2A74896  18.086  44.111   6.495
 5881POPC   C3A74897  18.239  44.173   6.909
 5881POPC   C4A74898  18.153  43.999   7.278
 5881POPC   C1B74899  18.248  43.648   6.326
 5881POPC   C2B74900  18.436  43.722   6.739
 5881POPC   C3B74901  18.263  43.529   7.116
 5881POPC   C4B74902  17.972  43.545   7.474
 5882POPC   NC374903  25.141   8.701   5.471
 5882POPC   PO474904  25.472   9.312   5.329
 5882POPC   GL174905  25.500   9.039   5.668
 5882POPC   GL274906  25.165   9.088   5.824
 5882POPC   C1A74907  25.522   8.829   6.070
 5882POPC   D2A74908  25.314   8.954   6.452
 5882POPC   C3A74909  25.356   8.844   6.886
 5882POPC   C4A74910  25.047   8.761   7.205
 5882POPC   C1B74911  25.010   9.313   6.205
 5882POPC   C2B74912  24.965   9.251   6.668
 5882POPC   C3B74913  25.112   9.269   7.109
 5882POPC   C4B74914  25.158   9.390   7.548
 5883POPC   NC374915  12.361  22.365   5.596
 5883POPC   PO474916  12.345  21.722   5.438
 5883POPC   GL174917  12.093  21.923   5.770
 5883POPC   GL274918  11.848  22.212   5.711
 5883POPC   C1A74919  12.167  22.111   6.194
 5883POPC   D2A74920  12.276  22.294   6.601
 5883POPC   C3A74921  12.110  22.071   6.946
 5883POPC   C4A74922  12.336  21.830   7.240
 5883POPC   C1B74923  11.757  22.410   6.136
 5883POPC   C2B74924  11.834  22.560   6.579
 5883POPC   C3B74925  12.003  22.553   7.003
 5883POPC   C4B74926  11.903  22.473   7.423
 5884POPC   NC374927  17.111  26.585   5.575
 5884POPC   PO474928  16.406  26.728   5.481
 5884POPC   GL174929  16.693  26.695   5.870
 5884POPC   GL274930  16.681  27.014   5.984
 5884POPC   C1A74931  16.836  26.670   6.349
 5884POPC   D2A74932  16.672  26.779   6.799
 5884POPC   C3A74933  16.952  26.636   7.134
 5884POPC   C4A74934  16.896  26.511   7.559
 5884POPC   C1B74935  16.457  26.999   6.376
 5884POPC   C2B74936  16.430  27.244   6.754
 5884POPC   C3B74937  16.624  27.224   7.139
 5884POPC   C4B74938  16.448  27.232   7.558
 5885POPC   NC374939  43.342  10.281   5.304
 5885POPC   PO474940  42.870  10.693   5.425
 5885POPC   GL174941  43.111  10.503   5.775
 5885POPC   GL274942  43.486  10.507   5.763
 5885POPC   C1A74943  42.975  10.371   6.194
 5885POPC   D2A74944  42.990  10.118   6.567
 5885POPC   C3A74945  42.942  10.396   6.922
 5885POPC   C4A74946  42.758  10.389   7.332
 5885POPC   C1B74947  43.642  10.584   6.182
 5885POPC   C2B74948  43.412  10.435   6.516
 5885POPC   C3B74949  43.433  10.231   6.856
 5885POPC   C4B74950  43.390  10.370   7.230
 5886POPC   NC374951  17.734  26.122   5.465
 5886POPC   PO474952  17.406  25.631   5.241
 5886POPC   GL174953  17.462  25.623   5.720
 5886POPC   GL274954  17.803  25.674   5.882
 5886POPC   C1A74955  17.367  25.660   6.174
 5886POPC   D2A74956  17.638  25.804   6.550
 5886POPC   C3A74957  17.346  25.973   6.858
 5886POPC   C4A74958  17.247  25.748   7.231
 5886POPC   C1B74959  17.701  26.079   6.118
 5886POPC   C2B74960  17.636  26.339   6.504
 5886POPC   C3B74961  17.796  26.260   6.902
 5886POPC   C4B74962  17.728  25.921   7.185
 5887POPC   NC374963  28.701   7.494   5.301
 5887POPC   PO474964  28.289   6.944   5.406
 5887POPC   GL174965  28.527   7.223   5.689
 5887POPC   GL274966  28.396   7.607   5.702
 5887POPC   C1A74967  28.517   7.276   6.113
 5887POPC   D2A74968  28.529   7.102   6.517
 5887POPC   C3A74969  28.488   7.300   6.922
 5887POPC   C4A74970  28.427   7.064   7.300
 5887POPC   C1B74971  28.559   7.795   6.086
 5887POPC   C2B74972  28.559   7.633   6.486
 5887POPC   C3B74973  28.629   7.781   6.880
 5887POPC   C4B74974  28.374   7.726   7.250
 5888POPC   NC374975  36.256  30.928   5.491
 5888POPC   PO474976  35.818  30.663   5.080
 5888POPC   GL174977  35.829  30.668   5.611
 5888POPC   GL274978  36.050  30.423   5.803
 5888POPC   C1A74979  35.904  30.849   6.080
 5888POPC   D2A74980  35.987  30.793   6.526
 5888POPC   C3A74981  36.189  30.835   6.914
 5888POPC   C4A74982  35.864  30.819   7.195
 5888POPC   C1B74983  36.270  30.437   6.216
 5888POPC   C2B74984  36.502  30.298   6.619
 5888POPC   C3B74985  36.535  30.466   7.049
 5888POPC   C4B74986  36.166  30.417   7.315
 5889POPC   NC374987  32.996  31.697   5.326
 5889POPC   PO474988  33.183  31.116   5.636
 5889POPC   GL174989  32.859  31.307   5.894
 5889POPC   GL274990  32.977  31.640   5.842
 5889POPC   C1A74991  32.675  31.594   6.243
 5889POPC   D2A74992  32.836  31.730   6.672
 5889POPC   C3A74993  32.788  31.502   7.082
 5889POPC   C4A74994  32.632  31.500   7.514
 5889POPC   C1B74995  33.237  31.743   6.252
 5889POPC   C2B74996  33.577  31.764   6.615
 5889POPC   C3B74997  33.614  31.570   7.056
 5889POPC   C4B74998  33.273  31.331   7.281
 5890POPC   NC374999  33.311  34.125   5.512
 5890POPC   PO475000  32.727  33.884   5.550
 5890POPC   GL175001  32.916  33.811   5.879
 5890POPC   GL275002  33.258  33.811   5.904
 5890POPC   C1A75003  32.911  33.989   6.260
 5890POPC   D2A75004  33.067  34.004   6.681
 5890POPC   C3A75005  32.953  33.714   7.014
 5890POPC   C4A75006  32.734  33.782   7.417
 5890POPC   C1B75007  33.415  33.920   6.302
 5890POPC   C2B75008  33.601  34.243   6.596
 5890POPC   C3B75009  33.353  34.322   6.938
 5890POPC   C4B75010  33.396  33.949   7.144
 5891POPC   NC375011  30.673  23.327   5.436
 5891POPC   PO475012  31.237  23.582   5.475
 5891POPC   GL175013  30.927  23.627   5.833
 5891POPC   GL275014  30.601  23.480   5.913
 5891POPC   C1A75015  30.800  23.824   6.254
 5891POPC   D2A75016  30.586  23.827   6.672
 5891POPC   C3A75017  30.739  24.009   7.092
 5891POPC   C4A75018  30.912  24.039   7.547
 5891POPC   C1B75019  30.379  23.490   6.309
 5891POPC   C2B75020  30.362  23.338   6.738
 5891POPC   C3B75021  30.590  23.494   7.077
 5891POPC   C4B75022  30.517  23.680   7.455
 5892POPC   NC375023  13.086  25.451   5.567
 5892POPC   PO475024  12.514  25.151   5.285
 5892POPC   GL175025  12.653  25.199   5.737
 5892POPC   GL275026  12.587  25.563   5.769
 5892POPC   C1A75027  12.896  25.013   6.133
 5892POPC   D2A75028  13.157  25.007   6.564
 5892POPC   C3A75029  12.915  25.079   6.986
 5892POPC   C4A75030  12.533  24.923   7.206
 5892POPC   C1B75031  12.752  25.505   6.158
 5892POPC   C2B75032  12.733  25.330   6.541
 5892POPC   C3B75033  12.954  25.573   6.797
 5892POPC   C4B75034  12.823  25.572   7.169
 5893POPC   NC375035  42.981  27.378   5.278
 5893POPC   PO475036  43.623  27.463   5.563
 5893POPC   GL175037  43.223  27.586   5.850
 5893POPC   GL275038  42.898  27.432   5.806
 5893POPC   C1A75039  43.207  27.686   6.259
 5893POPC   D2A75040  43.519  27.594   6.572
 5893POPC   C3A75041  43.375  27.716   6.967
 5893POPC   C4A75042  43.160  27.411   7.162
 5893POPC   C1B75043  42.699  27.652   6.172
 5893POPC   C2B75044  42.805  27.756   6.611
 5893POPC   C3B75045  42.873  27.815   7.047
 5893POPC   C4B75046  42.955  27.774   7.487
 5894POPC   NC375047  15.431  17.191   5.474
 5894POPC   PO475048  14.974  17.677   5.264
 5894POPC   GL175049  15.103  17.552   5.700
 5894POPC   GL275050  15.056  17.274   5.954
 5894POPC   C1A75051  15.394  17.637   6.059
 5894POPC   D2A75052  15.442  17.525   6.500
 5894POPC   C3A75053  15.180  17.671   6.856
 5894POPC   C4A75054  15.015  17.677   7.256
 5894POPC   C1B75055  15.398  17.103   6.133
 5894POPC   C2B75056  15.477  16.990   6.532
 5894POPC   C3B75057  15.293  17.179   6.856
 5894POPC   C4B75058  15.383  17.308   7.219
 5895POPC   NC375059  31.914   3.944   5.566
 5895POPC   PO475060  32.408   3.543   5.349
 5895POPC   GL175061  32.239   3.528   5.744
 5895POPC   GL275062  32.297   3.856   5.907
 5895POPC   C1A75063  32.160   3.334   6.121
 5895POPC   D2A75064  32.315   3.463   6.530
 5895POPC   C3A75065  32.158   3.297   6.920
 5895POPC   C4A75066  32.300   3.305   7.331
 5895POPC   C1B75067  31.987   3.797   6.254
 5895POPC   C2B75068  31.912   3.742   6.716
 5895POPC   C3B75069  32.262   3.783   6.995
 5895POPC   C4B75070  32.586   3.869   7.266
 5896POPC   NC375071   4.119  15.386   5.340
 5896POPC   PO475072   4.543  14.929   5.479
 5896POPC   GL175073   4.303  15.157   5.767
 5896POPC   GL275074   4.593  15.248   5.924
 5896POPC   C1A75075   4.179  15.144   6.206
 5896POPC   D2A75076   4.421  14.997   6.558
 5896POPC   C3A75077   4.246  15.060   6.948
 5896POPC   C4A75078   4.352  14.887   7.322
 5896POPC   C1B75079   4.587  15.413   6.308
 5896POPC   C2B75080   4.323  15.510   6.669
 5896POPC   C3B75081   4.441  15.506   7.083
 5896POPC   C4B75082   4.739  15.192   7.111
 5897POPC   NC375083  39.994   9.415   5.087
 5897POPC   PO475084  39.935   8.884   5.569
 5897POPC   GL175085  40.067   8.980   5.939
 5897POPC   GL275086  40.315   8.759   5.904
 5897POPC   C1A75087  40.242   9.091   6.367
 5897POPC   D2A75088  40.014   9.111   6.744
 5897POPC   C3A75089  40.139   9.254   7.124
 5897POPC   C4A75090  39.947   9.220   7.535
 5897POPC   C1B75091  40.100   8.616   6.298
 5897POPC   C2B75092  40.180   8.641   6.711
 5897POPC   C3B75093  40.191   8.758   7.130
 5897POPC   C4B75094  40.185   8.777   7.528
 5898POPC   NC375095   0.862  31.217   5.463
 5898POPC   PO475096   0.287  30.839   5.405
 5898POPC   GL175097   0.350  30.639   5.787
 5898POPC   GL275098   0.473  30.931   5.908
 5898POPC   C1A75099   0.315  30.541   6.231
 5898POPC   D2A75100   0.584  30.632   6.604
 5898POPC   C3A75101   0.407  30.679   7.000
 5898POPC   C4A75102   0.019  30.473   7.046
 5898POPC   C1B75103   0.473  31.054   6.346
 5898POPC   C2B75104   0.591  31.137   6.786
 5898POPC   C3B75105   0.431  31.161   7.194
 5898POPC   C4B75106   0.451  31.084   7.626
 5899POPC   NC375107   5.452  43.426   5.100
 5899POPC   PO475108   4.954  43.862   5.282
 5899POPC   GL175109   4.883  43.764   5.729
 5899POPC   GL275110   4.626  43.520   5.760
 5899POPC   C1A75111   5.023  43.591   6.133
 5899POPC   D2A75112   5.107  43.874   6.453
 5899POPC   C3A75113   5.077  43.838   6.878
 5899POPC   C4A75114   5.049  43.966   7.291
 5899POPC   C1B75115   4.532  43.464   6.209
 5899POPC   C2B75116   4.741  43.511   6.614
 5899POPC   C3B75117   4.658  43.600   7.049
 5899POPC   C4B75118   4.841  43.532   7.466
 5900POPC   NC375119  11.590  23.985   5.373
 5900POPC   PO475120  10.943  23.786   5.336
 5900POPC   GL175121  11.183  23.894   5.734
 5900POPC   GL275122  11.514  23.721   5.818
 5900POPC   C1A75123  11.006  23.840   6.171
 5900POPC   D2A75124  10.926  23.626   6.604
 5900POPC   C3A75125  11.182  23.662   6.956
 5900POPC   C4A75126  11.144  23.518   7.370
 5900POPC   C1B75127  11.435  23.615   6.268
 5900POPC   C2B75128  11.347  23.960   6.562
 5900POPC   C3B75129  11.552  24.031   6.940
 5900POPC   C4B75130  11.575  23.772   7.284
 5901POPC   NC375131   7.018   9.200   5.343
 5901POPC   PO475132   7.584   8.791   5.394
 5901POPC   GL175133   7.278   8.818   5.705
 5901POPC   GL275134   7.357   9.163   5.789
 5901POPC   C1A75135   7.360   8.616   6.109
 5901POPC   D2A75136   7.609   8.831   6.430
 5901POPC   C3A75137   7.529   8.757   6.847
 5901POPC   C4A75138   7.420   8.930   7.220
 5901POPC   C1B75139   7.470   9.285   6.216
 5901POPC   C2B75140   7.245   9.233   6.625
 5901POPC   C3B75141   7.138   9.360   7.070
 5901POPC   C4B75142   7.426   9.383   7.440
 5902POPC   NC375143  11.330   6.984   5.446
 5902POPC   PO475144  11.248   6.381   5.483
 5902POPC   GL175145  11.185   6.505   5.880
 5902POPC   GL275146  11.155   6.828   5.890
 5902POPC   C1A75147  11.303   6.443   6.292
 5902POPC   D2A75148  11.317   6.685   6.627
 5902POPC   C3A75149  11.337   6.457   6.975
 5902POPC   C4A75150  11.194   6.401   7.359
 5902POPC   C1B75151  11.520   6.891   6.159
 5902POPC   C2B75152  11.763   6.940   6.513
 5902POPC   C3B75153  11.740   6.798   6.936
 5902POPC   C4B75154  11.501   6.849   7.295
 5903POPC   NC375155  40.948  29.587   5.521
 5903POPC   PO475156  40.565  30.084   5.412
 5903POPC   GL175157  40.617  29.900   5.825
 5903POPC   GL275158  40.949  29.980   5.907
 5903POPC   C1A75159  40.580  29.923   6.289
 5903POPC   D2A75160  40.832  30.232   6.558
 5903POPC   C3A75161  40.786  30.217   7.008
 5903POPC   C4A75162  40.593  29.966   7.297
 5903POPC   C1B75163  41.086  29.825   6.330
 5903POPC   C2B75164  40.945  29.771   6.783
 5903POPC   C3B75165  41.092  29.826   7.218
 5903POPC   C4B75166  40.944  29.671   7.640
 5904POPC   NC375167  38.340  36.659   5.416
 5904POPC   PO475168  38.855  37.151   5.521
 5904POPC   GL175169  38.696  36.830   5.790
 5904POPC   GL275170  38.336  36.846   5.883
 5904POPC   C1A75171  38.680  36.671   6.216
 5904POPC   D2A75172  38.463  36.808   6.596
 5904POPC   C3A75173  38.732  36.831   6.955
 5904POPC   C4A75174  38.681  36.714   7.420
 5904POPC   C1B75175  38.115  36.667   6.226
 5904POPC   C2B75176  38.086  36.450   6.655
 5904POPC   C3B75177  38.237  36.673   7.051
 5904POPC   C4B75178  38.388  37.120   7.178
 5905POPC   NC375179  30.843  11.948   5.414
 5905POPC   PO475180  30.471  11.639   5.756
 5905POPC   GL175181  30.660  12.008   5.986
 5905POPC   GL275182  30.989  12.079   5.877
 5905POPC   C1A75183  30.736  12.091   6.441
 5905POPC   D2A75184  30.807  11.914   6.854
 5905POPC   C3A75185  30.594  12.102   7.245
 5905POPC   C4A75186  30.274  12.355   7.480
 5905POPC   C1B75187  31.128  12.344   6.201
 5905POPC   C2B75188  31.171  12.312   6.668
 5905POPC   C3B75189  31.067  12.270   7.122
 5905POPC   C4B75190  31.194  12.506   7.495
 5906POPC   NC375191   2.021  37.330   5.354
 5906POPC   PO475192   1.963  36.707   5.329
 5906POPC   GL175193   1.970  36.901   5.746
 5906POPC   GL275194   1.751  37.197   5.811
 5906POPC   C1A75195   2.197  36.888   6.162
 5906POPC   D2A75196   2.176  36.667   6.590
 5906POPC   C3A75197   2.043  36.780   7.012
 5906POPC   C4A75198   1.644  36.650   7.221
 5906POPC   C1B75199   1.580  37.363   6.231
 5906POPC   C2B75200   1.608  37.270   6.705
 5906POPC   C3B75201   1.800  37.228   7.119
 5906POPC   C4B75202   2.233  37.189   7.270
 5907POPC   NC375203  32.986   9.972   5.485
 5907POPC   PO475204  33.347   9.335   5.340
 5907POPC   GL175205  33.226   9.326   5.770
 5907POPC   GL275206  33.280   9.674   5.765
 5907POPC   C1A75207  33.046   9.523   6.175
 5907POPC   D2A75208  32.820   9.740   6.509
 5907POPC   C3A75209  32.975   9.539   6.874
 5907POPC   C4A75210  32.946   9.647   7.299
 5907POPC   C1B75211  33.253  10.012   6.093
 5907POPC   C2B75212  33.304   9.938   6.530
 5907POPC   C3B75213  33.130  10.037   6.923
 5907POPC   C4B75214  33.317   9.992   7.296
 5908POPC   NC375215  14.370  27.412   5.192
 5908POPC   PO475216  14.071  27.971   5.531
 5908POPC   GL175217  14.298  27.582   5.741
 5908POPC   GL275218  14.538  27.310   5.664
 5908POPC   C1A75219  14.254  27.551   6.174
 5908POPC   D2A75220  14.215  27.912   6.452
 5908POPC   C3A75221  14.425  27.921   6.850
 5908POPC   C4A75222  14.177  27.635   7.122
 5908POPC   C1B75223  14.627  27.226   6.102
 5908POPC   C2B75224  14.620  27.458   6.517
 5908POPC   C3B75225  14.677  27.479   6.970
 5908POPC   C4B75226  14.828  27.680   7.372
 5909POPC   NC375227  42.942  26.794   5.601
 5909POPC   PO475228  43.358  27.109   5.235
 5909POPC   GL175229  43.295  27.110   5.717
 5909POPC   GL275230  43.430  26.815   5.897
 5909POPC   C1A75231  43.211  27.179   6.158
 5909POPC   D2A75232  43.331  26.982   6.539
 5909POPC   C3A75233  43.050  26.966   6.907
 5909POPC   C4A75234  43.164  26.907   7.308
 5909POPC   C1B75235  43.286  26.527   6.237
 5909POPC   C2B75236  43.019  26.566   6.589
 5909POPC   C3B75237  43.065  26.447   7.019
 5909POPC   C4B75238  42.792  26.541   7.294
 5910POPC   NC375239  14.115  19.258   5.316
 5910POPC   PO475240  13.622  18.860   5.262
 5910POPC   GL175241  13.556  18.909   5.746
 5910POPC   GL275242  13.631  19.227   5.951
 5910POPC   C1A75243  13.476  18.825   6.214
 5910POPC   D2A75244  13.668  18.956   6.630
 5910POPC   C3A75245  13.628  19.006   7.085
 5910POPC   C4A75246  14.055  19.053   7.300
 5910POPC   C1B75247  13.474  19.349   6.376
 5910POPC   C2B75248  13.209  19.335   6.768
 5910POPC   C3B75249  13.282  19.364   7.233
 5910POPC   C4B75250  13.362  19.335   7.682
 5911POPC   NC375251  21.534   5.321   5.391
 5911POPC   PO475252  21.035   4.883   5.551
 5911POPC   GL175253  21.488   4.954   5.746
 5911POPC   GL275254  21.756   4.678   5.759
 5911POPC   C1A75255  21.563   5.198   6.092
 5911POPC   D2A75256  21.256   5.138   6.389
 5911POPC   C3A75257  21.362   5.203   6.796
 5911POPC   C4A75258  21.232   5.152   7.170
 5911POPC   C1B75259  21.877   4.801   6.165
 5911POPC   C2B75260  21.706   4.905   6.555
 5911POPC   C3B75261  21.532   4.731   6.947
 5911POPC   C4B75262  21.619   4.627   7.400
 5912POPC   NC375263  25.054  43.650   5.383
 5912POPC   PO475264  24.598  44.074   5.656
 5912POPC   GL175265  24.976  43.973   5.884
 5912POPC   GL275266  25.340  43.898   5.758
 5912POPC   C1A75267  25.129  43.985   6.300
 5912POPC   D2A75268  25.128  43.704   6.624
 5912POPC   C3A75269  25.200  43.947   6.953
 5912POPC   C4A75270  24.842  44.084   7.117
 5912POPC   C1B75271  25.579  44.097   6.123
 5912POPC   C2B75272  25.560  44.023   6.571
 5912POPC   C3B75273  25.584  44.287   6.940
 5912POPC   C4B75274  25.672  44.117   7.338
 5913POPC   NC375275  13.210  33.902   5.113
 5913POPC   PO475276  12.638  33.572   5.298
 5913POPC   GL175277  12.754  33.770   5.697
 5913POPC   GL275278  12.994  33.511   5.711
 5913POPC   C1A75279  12.849  33.962   6.143
 5913POPC   D2A75280  12.811  33.738   6.573
 5913POPC   C3A75281  12.704  33.767   7.028
 5913POPC   C4A75282  12.587  34.076   7.349
 5913POPC   C1B75283  12.933  33.461   6.149
 5913POPC   C2B75284  13.228  33.444   6.501
 5913POPC   C3B75285  13.054  33.371   6.872
 5913POPC   C4B75286  13.107  33.481   7.263
 5914POPC   NC375287  24.121   6.039   5.436
 5914POPC   PO475288  23.593   5.638   5.370
 5914POPC   GL175289  23.808   5.700   5.737
 5914POPC   GL275290  23.787   6.064   5.823
 5914POPC   C1A75291  23.909   5.697   6.163
 5914POPC   D2A75292  23.993   5.911   6.542
 5914POPC   C3A75293  23.865   5.747   6.891
 5914POPC   C4A75294  24.054   5.784   7.271
 5914POPC   C1B75295  23.690   6.193   6.251
 5914POPC   C2B75296  23.556   6.208   6.694
 5914POPC   C3B75297  23.807   6.211   7.097
 5914POPC   C4B75298  23.727   6.262   7.549
 5915POPC   NC375299  43.196  44.495   5.469
 5915POPC   PO475300  42.918  43.847   5.620
 5915POPC   GL175301  43.134  44.041   5.923
 5915POPC   GL275302  43.438  44.223   5.814
 5915POPC   C1A75303  43.248  43.815   6.298
 5915POPC   D2A75304  43.276  43.461   6.612
 5915POPC   C3A75305  43.281  43.773   6.929
 5915POPC   C4A75306  43.081  43.920   7.302
 5915POPC   C1B75307  43.399  44.331   6.244
 5915POPC   C2B75308  43.521  44.155   6.634
 5915POPC   C3B75309  43.361  44.292   7.038
 5915POPC   C4B75310  43.461  44.221   7.465
 5916POPC   NC375311  22.749  12.797   5.300
 5916POPC   PO475312  22.758  13.477   5.458
 5916POPC   GL175313  22.875  13.113   5.746
 5916POPC   GL275314  22.779  12.737   5.798
 5916POPC   C1A75315  22.877  13.032   6.209
 5916POPC   D2A75316  22.697  13.112   6.615
 5916POPC   C3A75317  22.837  12.810   6.915
 5916POPC   C4A75318  22.879  12.877   7.346
 5916POPC   C1B75319  23.099  12.577   6.106
 5916POPC   C2B75320  23.140  12.561   6.563
 5916POPC   C3B75321  23.233  12.429   6.995
 5916POPC   C4B75322  23.232  12.513   7.453
 5917POPC   NC375323  26.912  21.074   5.510
 5917POPC   PO475324  26.607  20.450   5.383
 5917POPC   GL175325  26.651  20.523   5.812
 5917POPC   GL275326  26.906  20.731   5.901
 5917POPC   C1A75327  26.618  20.550   6.270
 5917POPC   D2A75328  26.746  20.859   6.538
 5917POPC   C3A75329  26.801  20.749   6.933
 5917POPC   C4A75330  26.911  20.417   7.210
 5917POPC   C1B75331  27.111  20.481   6.258
 5917POPC   C2B75332  27.056  20.342   6.705
 5917POPC   C3B75333  27.246  20.087   7.069
 5917POPC   C4B75334  27.225  20.233   7.563
 5918POPC   NC375335  26.043   8.678   5.148
 5918POPC   PO475336  26.172   8.000   5.406
 5918POPC   GL175337  26.040   8.271   5.738
 5918POPC   GL275338  25.731   8.365   5.914
 5918POPC   C1A75339  26.148   8.264   6.178
 5918POPC   D2A75340  25.923   8.125   6.548
 5918POPC   C3A75341  26.095   8.116   6.950
 5918POPC   C4A75342  26.196   8.541   7.068
 5918POPC   C1B75343  25.592   8.006   6.169
 5918POPC   C2B75344  25.600   7.738   6.604
 5918POPC   C3B75345  25.555   7.965   7.031
 5918POPC   C4B75346  25.818   8.154   7.383
 5919POPC   NC375347   8.336  43.921   5.334
 5919POPC   PO475348   7.671  43.866   5.426
 5919POPC   GL175349   7.987  43.795   5.709
 5919POPC   GL275350   8.086  44.081   5.736
 5919POPC   C1A75351   8.077  43.593   6.108
 5919POPC   D2A75352   8.214  43.462   6.498
 5919POPC   C3A75353   8.048  43.633   6.876
 5919POPC   C4A75354   8.491  43.731   6.873
 5919POPC   C1B75355   7.915  44.078   6.116
 5919POPC   C2B75356   8.090  43.982   6.498
 5919POPC   C3B75357   8.070  44.135   6.908
 5919POPC   C4B75358   7.891  44.160   7.338
 5920POPC   NC375359  39.817   0.297   5.357
 5920POPC   PO475360  40.206   0.798   5.428
 5920POPC   GL175361  40.057   0.467   5.778
 5920POPC   GL275362  39.771   0.181   5.841
 5920POPC   C1A75363  39.979   0.527   6.222
 5920POPC   D2A75364  39.821   0.779   6.583
 5920POPC   C3A75365  39.968   0.631   7.024
 5920POPC   C4A75366  40.174   0.209   7.136
 5920POPC   C1B75367  39.517   0.310   6.208
 5920POPC   C2B75368  39.543   0.345   6.654
 5920POPC   C3B75369  39.651   0.236   7.083
 5920POPC   C4B75370  39.822  44.929   7.411
 5921POPC   NC375371   6.160  44.036   5.578
 5921POPC   PO475372   5.683  43.639   5.426
 5921POPC   GL175373   5.623  43.946   5.812
 5921POPC   GL275374   5.915  44.014   5.992
 5921POPC   C1A75375   5.537  44.083   6.292
 5921POPC   D2A75376   5.574  43.824   6.694
 5921POPC   C3A75377   5.519  44.027   7.098
 5921POPC   C4A75378   5.534  43.967   7.561
 5921POPC   C1B75379   6.051  44.248   6.323
 5921POPC   C2B75380   5.872  44.260   6.717
 5921POPC   C3B75381   6.027  44.092   7.098
 5921POPC   C4B75382   6.353  44.178   7.402
 5922POPC   NC375383  24.911  10.458   5.453
 5922POPC   PO475384  24.264  10.534   5.474
 5922POPC   GL175385  24.389  10.613   5.890
 5922POPC   GL275386  24.717  10.705   5.842
 5922POPC   C1A75387  24.367  10.641   6.331
 5922POPC   D2A75388  24.207  10.433   6.700
 5922POPC   C3A75389  24.448  10.511   7.069
 5922POPC   C4A75390  24.338  10.524   7.498
 5922POPC   C1B75391  24.869  10.484   6.205
 5922POPC   C2B75392  24.769  10.474   6.643
 5922POPC   C3B75393  24.854  10.177   6.988
 5922POPC   C4B75394  24.817  10.240   7.449
 5923POPC   NC375395  10.012  36.641   5.334
 5923POPC   PO475396   9.340  36.919   5.319
 5923POPC   GL175397   9.432  36.935   5.762
 5923POPC   GL275398   9.797  36.837   5.774
 5923POPC   C1A75399   9.558  36.930   6.216
 5923POPC   D2A75400   9.834  36.798   6.619
 5923POPC   C3A75401   9.835  37.074   6.970
 5923POPC   C4A75402   9.557  37.227   7.287
 5923POPC   C1B75403  10.045  36.904   6.165
 5923POPC   C2B75404  10.305  36.628   6.436
 5923POPC   C3B75405  10.311  36.368   6.819
 5923POPC   C4B75406  10.061  36.546   7.141
 5924POPC   NC375407   7.578  31.979   5.514
 5924POPC   PO475408   7.184  32.524   5.290
 5924POPC   GL175409   7.363  32.456   5.744
 5924POPC   GL275410   7.533  32.179   5.969
 5924POPC   C1A75411   7.244  32.513   6.223
 5924POPC   D2A75412   7.540  32.447   6.581
 5924POPC   C3A75413   7.522  32.409   7.036
 5924POPC   C4A75414   7.620  31.991   7.187
 5924POPC   C1B75415   7.319  32.007   6.342
 5924POPC   C2B75416   7.291  32.040   6.791
 5924POPC   C3B75417   7.095  31.910   7.163
 5924POPC   C4B75418   7.135  31.760   7.593
 5925POPC   NC375419  27.098  18.103   5.498
 5925POPC   PO475420  26.488  18.096   5.573
 5925POPC   GL175421  26.737  18.046   5.896
 5925POPC   GL275422  26.832  18.362   5.891
 5925POPC   C1A75423  26.636  18.118   6.310
 5925POPC   D2A75424  26.876  18.149   6.648
 5925POPC   C3A75425  26.698  17.907   6.947
 5925POPC   C4A75426  26.872  17.982   7.329
 5925POPC   C1B75427  26.978  18.521   6.243
 5925POPC   C2B75428  26.774  18.651   6.597
 5925POPC   C3B75429  26.780  18.523   7.003
 5925POPC   C4B75430  26.571  18.729   7.293
 5926POPC   NC375431  24.423  44.416   5.424
 5926POPC   PO475432  24.815  44.838   5.176
 5926POPC   GL175433  24.637  44.849   5.652
 5926POPC   GL275434  24.735  44.524   5.852
 5926POPC   C1A75435  24.458  44.848   6.113
 5926POPC   D2A75436  24.715  44.751   6.492
 5926POPC   C3A75437  24.511  44.867   6.845
 5926POPC   C4A75438  24.418  44.740   7.222
 5926POPC   C1B75439  24.735  44.295   6.269
 5926POPC   C2B75440  24.973  44.335   6.669
 5926POPC   C3B75441  24.887  44.583   7.060
 5926POPC   C4B75442  24.773  44.464   7.492
 5927POPC   NC375443  22.960   4.134   5.622
 5927POPC   PO475444  22.839   3.413   5.438
 5927POPC   GL175445  22.879   3.481   5.851
 5927POPC   GL275446  23.085   3.723   5.891
 5927POPC   C1A75447  22.925   3.244   6.238
 5927POPC   D2A75448  22.775   3.287   6.648
 5927POPC   C3A75449  23.067   3.251   6.967
 5927POPC   C4A75450  23.351   3.516   7.154
 5927POPC   C1B75451  22.800   3.746   6.281
 5927POPC   C2B75452  22.679   3.803   6.698
 5927POPC   C3B75453  22.839   3.707   7.087
 5927POPC   C4B75454  22.827   3.983   7.429
 5928POPC   NC375455  33.370  19.216   5.370
 5928POPC   PO475456  32.676  18.911   5.383
 5928POPC   GL175457  33.034  19.047   5.741
 5928POPC   GL275458  33.303  19.307   5.851
 5928POPC   C1A75459  32.994  19.165   6.218
 5928POPC   D2A75460  32.900  19.426   6.579
 5928POPC   C3A75461  33.129  19.289   6.922
 5928POPC   C4A75462  33.051  19.102   7.296
 5928POPC   C1B75463  33.499  19.091   6.218
 5928POPC   C2B75464  33.466  18.978   6.673
 5928POPC   C3B75465  33.496  18.945   7.148
 5928POPC   C4B75466  33.351  18.817   7.616
 5929POPC   NC375467   2.292  24.964   5.139
 5929POPC   PO475468   1.780  24.873   5.577
 5929POPC   GL175469   1.920  24.486   5.807
 5929POPC   GL275470   1.575  24.338   5.823
 5929POPC   C1A75471   2.029  24.300   6.237
 5929POPC   D2A75472   1.997  24.299   6.703
 5929POPC   C3A75473   2.367  24.438   6.990
 5929POPC   C4A75474   2.350  24.499   7.446
 5929POPC   C1B75475   1.627  24.615   6.210
 5929POPC   C2B75476   1.700  24.745   6.667
 5929POPC   C3B75477   1.904  24.653   7.087
 5929POPC   C4B75478   1.958  24.238   7.230
 5930POPC   NC375479  17.069  42.396   5.225
 5930POPC   PO475480  16.476  42.056   5.298
 5930POPC   GL175481  16.647  42.316   5.670
 5930POPC   GL275482  16.985  42.390   5.758
 5930POPC   C1A75483  16.667  42.359   6.147
 5930POPC   D2A75484  16.389  42.243   6.484
 5930POPC   C3A75485  16.546  42.337   6.912
 5930POPC   C4A75486  16.647  42.169   7.290
 5930POPC   C1B75487  17.149  42.524   6.226
 5930POPC   C2B75488  16.932  42.541   6.647
 5930POPC   C3B75489  16.968  42.562   7.127
 5930POPC   C4B75490  16.695  42.667   7.490
 5931POPC   NC375491  19.225   5.363   5.338
 5931POPC   PO475492  18.747   4.894   5.113
 5931POPC   GL175493  18.842   5.065   5.625
 5931POPC   GL275494  19.206   5.116   5.804
 5931POPC   C1A75495  18.862   4.970   6.154
 5931POPC   D2A75496  19.076   5.085   6.586
 5931POPC   C3A75497  18.873   5.048   7.032
 5931POPC   C4A75498  18.893   4.885   7.501
 5931POPC   C1B75499  19.355   5.407   6.151
 5931POPC   C2B75500  19.263   5.612   6.571
 5931POPC   C3B75501  19.389   5.370   6.926
 5931POPC   C4B75502  19.297   5.118   7.296
 5932POPC   NC375503  40.997  40.896   5.343
 5932POPC   PO475504  40.689  40.295   5.370
 5932POPC   GL175505  40.894  40.537   5.716
 5932POPC   GL275506  40.751  40.886   5.803
 5932POPC   C1A75507  40.736  40.481   6.126
 5932POPC   D2A75508  40.508  40.790   6.355
 5932POPC   C3A75509  40.534  40.768   6.822
 5932POPC   C4A75510  40.353  40.700   7.223
 5932POPC   C1B75511  41.100  40.837   6.131
 5932POPC   C2B75512  41.265  40.854   6.572
 5932POPC   C3B75513  41.127  41.013   6.989
 5932POPC   C4B75514  40.843  40.870   7.312
 5933POPC   NC375515   0.267  21.781   5.447
 5933POPC   PO475516   0.764  22.208   5.179
 5933POPC   GL175517   0.650  22.106   5.632
 5933POPC   GL275518   0.908  21.881   5.794
 5933POPC   C1A75519   0.320  22.215   5.980
 5933POPC   D2A75520   0.284  22.042   6.392
 5933POPC   C3A75521   0.264  22.253   6.800
 5933POPC   C4A75522   0.375  22.323   7.258
 5933POPC   C1B75523   0.791  22.132   6.152
 5933POPC   C2B75524   0.740  22.089   6.589
 5933POPC   C3B75525   0.713  22.061   6.990
 5933POPC   C4B75526   0.987  21.922   7.261
 5934POPC   NC375527  20.106  27.032   5.387
 5934POPC   PO475528  19.544  26.750   5.382
 5934POPC   GL175529  19.805  26.774   5.756
 5934POPC   GL275530  19.966  26.473   5.829
 5934POPC   C1A75531  19.596  26.721   6.175
 5934POPC   D2A75532  19.647  26.729   6.634
 5934POPC   C3A75533  19.680  27.085   6.918
 5934POPC   C4A75534  19.970  27.160   7.291
 5934POPC   C1B75535  20.088  26.633   6.212
 5934POPC   C2B75536  20.153  26.859   6.579
 5934POPC   C3B75537  20.020  26.720   6.992
 5934POPC   C4B75538  20.239  26.609   7.331
 5935POPC   NC375539  40.696  24.007   5.385
 5935POPC   PO475540  41.059  24.519   5.473
 5935POPC   GL175541  40.890  24.447   5.867
 5935POPC   GL275542  40.695  24.167   5.848
 5935POPC   C1A75543  40.671  24.520   6.246
 5935POPC   D2A75544  40.717  24.627   6.687
 5935POPC   C3A75545  40.988  24.369   6.939
 5935POPC   C4A75546  41.129  24.425   7.361
 5935POPC   C1B75547  40.885  24.002   6.177
 5935POPC   C2B75548  40.733  24.123   6.563
 5935POPC   C3B75549  40.553  24.077   6.943
 5935POPC   C4B75550  40.756  24.080   7.311
 5936POPC   NC375551  38.679   8.711   5.512
 5936POPC   PO475552  38.070   9.023   5.576
 5936POPC   GL175553  38.282   9.169   5.848
 5936POPC   GL275554  38.595   9.207   5.660
 5936POPC   C1A75555  38.241   9.054   6.287
 5936POPC   D2A75556  38.415   8.840   6.634
 5936POPC   C3A75557  38.225   8.987   6.998
 5936POPC   C4A75558  38.118   8.694   7.281
 5936POPC   C1B75559  38.725   9.082   6.103
 5936POPC   C2B75560  38.658   9.265   6.527
 5936POPC   C3B75561  38.715   9.096   6.961
 5936POPC   C4B75562  38.790   9.361   7.266
 5937POPC   NC375563   2.112  25.630   5.363
 5937POPC   PO475564   2.096  26.235   5.580
 5937POPC   GL175565   2.064  26.087   5.933
 5937POPC   GL275566   1.760  25.907   5.941
 5937POPC   C1A75567   2.060  25.922   6.366
 5937POPC   D2A75568   1.770  25.822   6.655
 5937POPC   C3A75569   1.894  25.979   7.060
 5937POPC   C4A75570   2.231  26.133   7.353
 5937POPC   C1B75571   1.748  26.290   6.250
 5937POPC   C2B75572   1.957  26.338   6.678
 5937POPC   C3B75573   1.886  26.487   7.124
 5937POPC   C4B75574   1.707  26.277   7.510
 5938POPC   NC375575   3.267  31.330   5.503
 5938POPC   PO475576   3.770  31.736   5.393
 5938POPC   GL175577   3.657  31.504   5.806
 5938POPC   GL275578   3.302  31.553   5.946
 5938POPC   C1A75579   3.630  31.317   6.245
 5938POPC   D2A75580   3.592  31.573   6.615
 5938POPC   C3A75581   3.648  31.411   6.980
 5938POPC   C4A75582   3.783  31.308   7.373
 5938POPC   C1B75583   3.162  31.661   6.339
 5938POPC   C2B75584   3.306  32.023   6.571
 5938POPC   C3B75585   3.348  31.894   6.975
 5938POPC   C4B75586   3.232  31.551   7.220
 5939POPC   NC375587  38.690  12.767   5.434
 5939POPC   PO475588  38.008  12.924   5.285
 5939POPC   GL175589  38.156  12.891   5.722
 5939POPC   GL275590  38.084  12.589   5.965
 5939POPC   C1A75591  38.315  13.033   6.116
 5939POPC   D2A75592  38.254  12.927   6.544
 5939POPC   C3A75593  38.558  13.025   6.861
 5939POPC   C4A75594  38.442  12.934   7.285
 5939POPC   C1B75595  38.408  12.488   6.260
 5939POPC   C2B75596  38.712  12.543   6.577
 5939POPC   C3B75597  38.623  12.526   6.996
 5939POPC   C4B75598  38.855  12.592   7.361
 5940POPC   NC375599  44.693  39.648   5.100
 5940POPC   PO475600  44.514  39.066   5.280
 5940POPC   GL175601  44.666  39.093   5.723
 5940POPC   GL275602  44.812  38.761   5.831
 5940POPC   C1A75603  44.544  39.363   6.108
 5940POPC   D2A75604  44.701  39.528   6.511
 5940POPC   C3A75605  44.465  39.423   6.877
 5940POPC   C4A75606  44.555  39.382   7.285
 5940POPC   C1B75607  44.691  38.893   6.254
 5940POPC   C2B75608  44.459  38.987   6.621
 5940POPC   C3B75609  44.672  38.968   7.019
 5940POPC   C4B75610  44.670  38.918   7.471
 5941POPC   NC375611  42.970  37.544   5.469
 5941POPC   PO475612  43.203  38.211   5.529
 5941POPC   GL175613  43.173  37.837   5.860
 5941POPC   GL275614  42.884  37.573   5.960
 5941POPC   C1A75615  43.039  37.895   6.310
 5941POPC   D2A75616  42.970  37.608   6.639
 5941POPC   C3A75617  43.222  37.678   6.989
 5941POPC   C4A75618  42.977  37.710   7.363
 5941POPC   C1B75619  43.263  37.449   6.203
 5941POPC   C2B75620  43.340  37.234   6.561
 5941POPC   C3B75621  43.151  37.159   6.967
 5941POPC   C4B75622  43.343  37.325   7.339
 5942POPC   NC375623   9.559   4.227   5.479
 5942POPC   PO475624   9.991   4.789   5.442
 5942POPC   GL175625   9.884   4.491   5.810
 5942POPC   GL275626   9.886   4.129   5.859
 5942POPC   C1A75627   9.928   4.528   6.287
 5942POPC   D2A75628  10.078   4.462   6.742
 5942POPC   C3A75629   9.768   4.516   7.085
 5942POPC   C4A75630   9.336   4.401   7.236
 5942POPC   C1B75631   9.525   4.245   6.135
 5942POPC   C2B75632   9.412   4.074   6.528
 5942POPC   C3B75633   9.553   4.058   6.927
 5942POPC   C4B75634   9.941   3.896   7.090
 5943POPC   NC375635  19.460   7.455   5.118
 5943POPC   PO475636  18.892   7.244   5.273
 5943POPC   GL175637  18.992   7.328   5.758
 5943POPC   GL275638  18.693   7.480   5.931
 5943POPC   C1A75639  19.122   7.268   6.222
 5943POPC   D2A75640  19.371   7.566   6.508
 5943POPC   C3A75641  19.313   7.608   6.953
 5943POPC   C4A75642  19.121   7.367   7.323
 5943POPC   C1B75643  18.800   7.648   6.349
 5943POPC   C2B75644  18.857   7.545   6.773
 5943POPC   C3B75645  18.824   7.741   7.182
 5943POPC   C4B75646  18.668   7.441   7.503
 5944POPC   NC375647  10.806   6.555   5.494
 5944POPC   PO475648  10.136   6.465   5.603
 5944POPC   GL175649  10.184   6.812   5.886
 5944POPC   GL275650  10.552   6.785   5.884
 5944POPC   C1A75651  10.267   6.830   6.339
 5944POPC   D2A75652  10.509   6.526   6.558
 5944POPC   C3A75653  10.398   6.357   6.904
 5944POPC   C4A75654  10.470   6.421   7.285
 5944POPC   C1B75655  10.824   6.753   6.237
 5944POPC   C2B75656  10.860   6.903   6.640
 5944POPC   C3B75657  10.850   6.646   6.994
 5944POPC   C4B75658  10.852   6.753   7.421
 5945POPC   NC375659  33.220  30.008   5.303
 5945POPC   PO475660  32.548  29.753   5.308
 5945POPC   GL175661  32.784  29.813   5.703
 5945POPC   GL275662  33.131  29.727   5.763
 5945POPC   C1A75663  32.714  29.890   6.164
 5945POPC   D2A75664  32.518  29.870   6.587
 5945POPC   C3A75665  32.762  29.979   6.979
 5945POPC   C4A75666  32.905  29.778   7.353
 5945POPC   C1B75667  33.219  29.965   6.154
 5945POPC   C2B75668  33.088  30.095   6.582
 5945POPC   C3B75669  33.259  29.863   6.958
 5945POPC   C4B75670  33.449  29.603   7.300
 5946POPC   NC375671  25.117  23.001   5.423
 5946POPC   PO475672  25.426  22.401   5.504
 5946POPC   GL175673  25.277  22.703   5.815
 5946POPC   GL275674  25.511  22.968   5.773
 5946POPC   C1A75675  25.135  22.895   6.219
 5946POPC   D2A75676  24.926  22.797   6.630
 5946POPC   C3A75677  25.128  22.960   7.009
 5946POPC   C4A75678  25.253  22.782   7.401
 5946POPC   C1B75679  25.584  23.233   6.137
 5946POPC   C2B75680  25.580  23.359   6.577
 5946POPC   C3B75681  25.606  23.314   7.031
 5946POPC   C4B75682  25.300  23.321   7.352
 5947POPC   NC375683  35.568  16.035   5.463
 5947POPC   PO475684  34.925  15.948   5.573
 5947POPC   GL175685  35.035  15.882   5.945
 5947POPC   GL275686  35.394  15.866   5.902
 5947POPC   C1A75687  35.120  16.186   6.255
 5947POPC   D2A75688  35.426  16.300   6.537
 5947POPC   C3A75689  35.303  16.106   6.902
 5947POPC   C4A75690  35.221  16.142   7.302
 5947POPC   C1B75691  35.446  15.815   6.331
 5947POPC   C2B75692  35.223  15.653   6.641
 5947POPC   C3B75693  35.508  15.639   6.932
 5947POPC   C4B75694  35.527  15.710   7.300
 5948POPC   NC375695  15.020  27.022   5.381
 5948POPC   PO475696  15.128  26.468   5.013
 5948POPC   GL175697  15.042  26.455   5.622
 5948POPC   GL275698  14.867  26.730   5.748
 5948POPC   C1A75699  15.228  26.495   6.073
 5948POPC   D2A75700  15.248  26.752   6.475
 5948POPC   C3A75701  15.235  26.552   6.878
 5948POPC   C4A75702  15.127  26.657   7.291
 5948POPC   C1B75703  14.801  26.753   6.180
 5948POPC   C2B75704  14.631  26.926   6.554
 5948POPC   C3B75705  14.763  26.921   6.974
 5948POPC   C4B75706  14.812  27.159   7.342
 5949POPC   NC375707  22.095   4.569   5.372
 5949POPC   PO475708  22.614   4.070   5.298
 5949POPC   GL175709  22.399   4.164   5.687
 5949POPC   GL275710  22.558   3.907   5.868
 5949POPC   C1A75711  22.250   4.385   6.099
 5949POPC   D2A75712  22.080   4.523   6.547
 5949POPC   C3A75713  22.172   4.445   7.010
 5949POPC   C4A75714  21.955   4.224   7.368
 5949POPC   C1B75715  22.286   3.882   6.251
 5949POPC   C2B75716  22.217   4.029   6.686
 5949POPC   C3B75717  22.372   3.955   7.131
 5949POPC   C4B75718  22.319   3.957   7.610
 5950POPC   NC375719  41.143   1.786   5.456
 5950POPC   PO475720  40.831   1.210   5.280
 5950POPC   GL175721  40.669   1.253   5.745
 5950POPC   GL275722  40.782   1.579   5.880
 5950POPC   C1A75723  40.774   1.175   6.222
 5950POPC   D2A75724  40.646   1.095   6.679
 5950POPC   C3A75725  40.902   0.895   7.030
 5950POPC   C4A75726  41.070   1.057   7.423
 5950POPC   C1B75727  40.404   1.545   6.162
 5950POPC   C2B75728  40.246   1.724   6.539
 5950POPC   C3B75729  40.424   1.528   6.913
 5950POPC   C4B75730  40.738   1.359   7.158
 5951POPC   NC375731  40.925  44.005   5.212
 5951POPC   PO475732  40.752  43.398   5.327
 5951POPC   GL175733  40.759  43.764   5.653
 5951POPC   GL275734  41.027  44.051   5.725
 5951POPC   C1A75735  40.813  43.793   6.110
 5951POPC   D2A75736  40.796  43.613   6.503
 5951POPC   C3A75737  40.762  43.835   6.868
 5951POPC   C4A75738  40.847  43.699   7.262
 5951POPC   C1B75739  40.998  44.276   6.169
 5951POPC   C2B75740  41.041  44.392   6.651
 5951POPC   C3B75741  40.971  44.239   7.088
 5951POPC   C4B75742  41.079  44.348   7.538
 5952POPC   NC375743  29.531  29.586   5.388
 5952POPC   PO475744  30.176  29.785   5.336
 5952POPC   GL175745  30.086  29.623   5.738
 5952POPC   GL275746  29.749  29.746   5.819
 5952POPC   C1A75747  30.001  29.514   6.196
 5952POPC   D2A75748  29.659  29.730   6.449
 5952POPC   C3A75749  29.675  29.639   6.859
 5952POPC   C4A75750  30.083  29.615   7.076
 5952POPC   C1B75751  29.656  30.093   6.086
 5952POPC   C2B75752  29.867  30.229   6.458
 5952POPC   C3B75753  29.867  30.103   6.868
 5952POPC   C4B75754  29.993  30.138   7.262
 5953POPC   NC375755  43.803  39.501   5.532
 5953POPC   PO475756  43.953  38.858   5.390
 5953POPC   GL175757  43.933  38.991   5.817
 5953POPC   GL275758  44.257  38.953   5.993
 5953POPC   C1A75759  43.864  39.310   6.150
 5953POPC   D2A75760  44.147  39.402   6.473
 5953POPC   C3A75761  43.951  39.407   6.871
 5953POPC   C4A75762  44.077  39.562   7.297
 5953POPC   C1B75763  44.038  38.888   6.347
 5953POPC   C2B75764  43.681  38.981   6.568
 5953POPC   C3B75765  43.756  38.903   6.978
 5953POPC   C4B75766  44.169  39.035   7.183
 5954POPC   NC375767  39.546  11.439   5.560
 5954POPC   PO475768  40.181  11.524   5.303
 5954POPC   GL175769  40.135  11.242   5.696
 5954POPC   GL275770  39.806  11.005   5.669
 5954POPC   C1A75771  40.140  11.317   6.185
 5954POPC   D2A75772  40.152  11.224   6.666
 5954POPC   C3A75773  40.078  11.532   7.038
 5954POPC   C4A75774  40.153  11.606   7.498
 5954POPC   C1B75775  39.692  11.061   6.122
 5954POPC   C2B75776  39.613  11.133   6.565
 5954POPC   C3B75777  39.773  11.035   6.980
 5954POPC   C4B75778  39.777  11.270   7.377
 5955POPC   NC375779   9.012   0.298   5.157
 5955POPC   PO475780   9.333   0.572   5.529
 5955POPC   GL175781   9.224   0.643   5.999
 5955POPC   GL275782   8.914   0.797   6.134
 5955POPC   C1A75783   9.224   0.525   6.462
 5955POPC   D2A75784   9.090   0.189   6.759
 5955POPC   C3A75785   8.992   0.280   7.184
 5955POPC   C4A75786   8.934   0.192   7.603
 5955POPC   C1B75787   8.697   0.537   6.462
 5955POPC   C2B75788   8.605   0.374   6.875
 5955POPC   C3B75789   8.653   0.627   7.289
 5955POPC   C4B75790   9.098   0.784   7.361
 5956POPC   NC375791  29.445  43.672   5.478
 5956POPC   PO475792  29.049  44.053   5.171
 5956POPC   GL175793  29.078  43.944   5.733
 5956POPC   GL275794  29.383  43.968   5.906
 5956POPC   C1A75795  29.060  43.686   6.159
 5956POPC   D2A75796  28.976  43.849   6.555
 5956POPC   C3A75797  29.143  43.720   6.943
 5956POPC   C4A75798  29.160  44.010   7.263
 5956POPC   C1B75799  29.476  43.954   6.357
 5956POPC   C2B75800  29.374  44.145   6.758
 5956POPC   C3B75801  29.571  44.292   7.138
 5956POPC   C4B75802  29.552  44.138   7.583
 5957POPC   NC375803   8.054  35.273   5.548
 5957POPC   PO475804   8.622  34.933   5.662
 5957POPC   GL175805   8.371  35.192   5.936
 5957POPC   GL275806   8.280  35.570   5.900
 5957POPC   C1A75807   8.256  35.308   6.345
 5957POPC   D2A75808   8.100  35.281   6.735
 5957POPC   C3A75809   8.350  35.502   7.014
 5957POPC   C4A75810   8.789  35.404   7.123
 5957POPC   C1B75811   7.910  35.660   6.173
 5957POPC   C2B75812   7.796  35.694   6.617
 5957POPC   C3B75813   7.692  35.434   6.971
 5957POPC   C4B75814   7.950  35.283   7.263
 5958POPC   NC375815  42.656   2.267   5.394
 5958POPC   PO475816  42.530   1.558   5.315
 5958POPC   GL175817  42.707   1.643   5.767
 5958POPC   GL275818  42.863   1.982   5.868
 5958POPC   C1A75819  42.565   1.676   6.228
 5958POPC   D2A75820  42.272   1.953   6.533
 5958POPC   C3A75821  42.290   2.090   6.985
 5958POPC   C4A75822  42.035   2.057   7.369
 5958POPC   C1B75823  42.612   2.184   6.238
 5958POPC   C2B75824  42.722   2.388   6.646
 5958POPC   C3B75825  42.674   2.444   7.107
 5958POPC   C4B75826  42.482   2.304   7.507
 5959POPC   NC375827  17.364  41.249   5.170
 5959POPC   PO475828  17.892  41.580   5.430
 5959POPC   GL175829  17.535  41.547   5.762
 5959POPC   GL275830  17.452  41.282   5.959
 5959POPC   C1A75831  17.475  41.712   6.217
 5959POPC   D2A75832  17.513  41.473   6.566
 5959POPC   C3A75833  17.396  41.701   6.917
 5959POPC   C4A75834  17.624  41.809   7.303
 5959POPC   C1B75835  17.294  41.027   6.327
 5959POPC   C2B75836  17.104  40.889   6.727
 5959POPC   C3B75837  17.109  41.194   7.066
 5959POPC   C4B75838  17.158  41.570   7.338
 5960POPC   NC375839  24.321  20.536   5.282
 5960POPC   PO475840  24.893  20.198   5.096
 5960POPC   GL175841  24.721  20.432   5.557
 5960POPC   GL275842  24.485  20.757   5.711
 5960POPC   C1A75843  24.667  20.443   6.054
 5960POPC   D2A75844  24.692  20.319   6.518
 5960POPC   C3A75845  24.445  20.377   6.927
 5960POPC   C4A75846  24.480  20.799   7.102
 5960POPC   C1B75847  24.248  20.870   6.107
 5960POPC   C2B75848  24.189  20.852   6.579
 5960POPC   C3B75849  24.078  21.085   6.961
 5960POPC   C4B75850  24.107  20.964   7.410
 5961POPC   NC375851  27.049   6.510   5.308
 5961POPC   PO475852  27.823   6.546   5.403
 5961POPC   GL175853  27.679   6.522   5.777
 5961POPC   GL275854  27.399   6.722   5.727
 5961POPC   C1A75855  27.830   6.586   6.185
 5961POPC   D2A75856  27.778   6.905   6.507
 5961POPC   C3A75857  27.644   6.678   6.880
 5961POPC   C4A75858  27.423   6.603   7.268
 5961POPC   C1B75859  27.314   6.723   6.193
 5961POPC   C2B75860  27.270   6.939   6.608
 5961POPC   C3B75861  27.058   6.842   6.982
 5961POPC   C4B75862  27.048   6.937   7.403
 5962POPC   NC375863  42.865  11.141   5.487
 5962POPC   PO475864  43.257  11.665   5.362
 5962POPC   GL175865  43.163  11.438   5.755
 5962POPC   GL275866  43.269  11.058   5.793
 5962POPC   C1A75867  43.023  11.383   6.162
 5962POPC   D2A75868  43.267  11.422   6.525
 5962POPC   C3A75869  43.100  11.296   6.897
 5962POPC   C4A75870  43.091  11.267   7.321
 5962POPC   C1B75871  43.280  10.930   6.225
 5962POPC   C2B75872  43.345  10.902   6.672
 5962POPC   C3B75873  43.455  10.941   7.102
 5962POPC   C4B75874  43.095  10.769   7.268
 5963POPC   NC375875  22.300   9.335   5.466
 5963POPC   PO475876  22.177  10.020   5.359
 5963POPC   GL175877  22.246   9.793   5.773
 5963POPC   GL275878  21.973   9.491   5.842
 5963POPC   C1A75879  22.332   9.969   6.217
 5963POPC   D2A75880  22.331  10.237   6.607
 5963POPC   C3A75881  22.404  10.012   6.995
 5963POPC   C4A75882  22.439   9.601   7.120
 5963POPC   C1B75883  21.826   9.880   6.061
 5963POPC   C2B75884  21.752  10.039   6.492
 5963POPC   C3B75885  21.881  10.010   6.928
 5963POPC   C4B75886  22.041   9.847   7.349
 5964POPC   NC375887   9.232  10.052   5.588
 5964POPC   PO475888   8.809   9.606   5.573
 5964POPC   GL175889   8.924   9.817   5.931
 5964POPC   GL275890   9.273   9.711   5.954
 5964POPC   C1A75891   8.832   9.757   6.363
 5964POPC   D2A75892   8.848   9.496   6.727
 5964POPC   C3A75893   8.759   9.805   7.021
 5964POPC   C4A75894   8.563  10.208   7.050
 5964POPC   C1B75895   9.269  10.021   6.276
 5964POPC   C2B75896   9.140   9.987   6.735
 5964POPC   C3B75897   9.254   9.854   7.178
 5964POPC   C4B75898   9.310  10.138   7.547
 5965POPC   NC375899   0.272  39.885   5.300
 5965POPC   PO475900   0.635  40.534   5.424
 5965POPC   GL175901   0.630  40.291   5.800
 5965POPC   GL275902   0.379  40.021   5.781
 5965POPC   C1A75903   0.596  40.170   6.232
 5965POPC   D2A75904   0.363  40.219   6.597
 5965POPC   C3A75905   0.641  40.181   6.919
 5965POPC   C4A75906   0.684  39.890   7.276
 5965POPC   C1B75907   0.125  39.943   6.146
 5965POPC   C2B75908   0.241  39.719   6.537
 5965POPC   C3B75909   0.256  39.811   6.986
 5965POPC   C4B75910  44.954  39.698   7.297
 5966POPC   NC375911  36.616  25.894   5.430
 5966POPC   PO475912  37.050  26.345   5.494
 5966POPC   GL175913  36.864  26.121   5.847
 5966POPC   GL275914  36.690  25.761   5.914
 5966POPC   C1A75915  37.038  25.993   6.248
 5966POPC   D2A75916  37.088  25.773   6.653
 5966POPC   C3A75917  36.861  25.930   7.026
 5966POPC   C4A75918  36.748  26.321   7.240
 5966POPC   C1B75919  36.743  25.568   6.301
 5966POPC   C2B75920  36.557  25.767   6.630
 5966POPC   C3B75921  36.398  25.653   7.010
 5966POPC   C4B75922  36.584  25.681   7.392
 5967POPC   NC375923   6.813  43.267   5.548
 5967POPC   PO475924   6.653  42.735   5.278
 5967POPC   GL175925   6.608  42.824   5.722
 5967POPC   GL275926   6.384  43.136   5.772
 5967POPC   C1A75927   6.811  42.883   6.128
 5967POPC   D2A75928   6.720  43.080   6.532
 5967POPC   C3A75929   6.630  42.856   6.887
 5967POPC   C4A75930   6.927  42.858   7.198
 5967POPC   C1B75931   6.503  43.348   6.150
 5967POPC   C2B75932   6.309  43.386   6.570
 5967POPC   C3B75933   6.257  43.222   6.980
 5967POPC   C4B75934   6.685  43.310   7.121
 5968POPC   NC375935  26.520  27.395   5.385
 5968POPC   PO475936  27.180  27.496   5.406
 5968POPC   GL175937  26.918  27.717   5.770
 5968POPC   GL275938  26.577  27.692   5.780
 5968POPC   C1A75939  26.902  27.719   6.251
 5968POPC   D2A75940  27.023  27.534   6.695
 5968POPC   C3A75941  26.967  27.868   6.986
 5968POPC   C4A75942  27.202  28.041   7.331
 5968POPC   C1B75943  26.427  27.549   6.149
 5968POPC   C2B75944  26.542  27.449   6.567
 5968POPC   C3B75945  26.572  27.445   7.000
 5968POPC   C4B75946  26.630  27.374   7.452
 5969POPC   NC375947  33.574  17.708   5.372
 5969POPC   PO475948  34.192  17.474   5.174
 5969POPC   GL175949  34.111  17.352   5.607
 5969POPC   GL275950  34.010  17.680   5.696
 5969POPC   C1A75951  33.858  17.315   6.018
 5969POPC   D2A75952  33.912  17.366   6.486
 5969POPC   C3A75953  33.790  17.284   6.950
 5969POPC   C4A75954  33.781  17.441   7.397
 5969POPC   C1B75955  34.024  17.821   6.137
 5969POPC   C2B75956  34.227  17.746   6.550
 5969POPC   C3B75957  34.037  17.757   6.991
 5969POPC   C4B75958  34.214  17.709   7.401
 5970POPC   NC375959  40.361   1.259   5.324
 5970POPC   PO475960  39.772   1.365   5.130
 5970POPC   GL175961  39.898   1.207   5.617
 5970POPC   GL275962  40.141   1.379   5.777
 5970POPC   C1A75963  39.932   1.041   6.097
 5970POPC   D2A75964  40.111   1.215   6.547
 5970POPC   C3A75965  39.864   1.140   6.954
 5970POPC   C4A75966  39.671   1.333   7.312
 5970POPC   C1B75967  39.885   1.549   6.160
 5970POPC   C2B75968  39.734   1.582   6.616
 5970POPC   C3B75969  39.945   1.645   7.009
 5970POPC   C4B75970  40.178   1.417   7.363
 5971POPC   NC375971  43.401  33.123   4.804
 5971POPC   PO475972  43.110  33.169   5.377
 5971POPC   GL175973  43.040  33.103   5.823
 5971POPC   GL275974  43.110  32.733   5.909
 5971POPC   C1A75975  43.161  33.135   6.290
 5971POPC   D2A75976  43.271  33.112   6.728
 5971POPC   C3A75977  43.086  32.981   7.122
 5971POPC   C4A75978  43.117  33.184   7.497
 5971POPC   C1B75979  43.088  32.588   6.357
 5971POPC   C2B75980  43.149  32.592   6.821
 5971POPC   C3B75981  43.266  32.551   7.288
 5971POPC   C4B75982  42.962  32.596   7.548
 5972POPC   NC375983  24.676   4.699   5.383
 5972POPC   PO475984  24.667   4.001   5.517
 5972POPC   GL175985  24.371   4.226   5.829
 5972POPC   GL275986  23.998   4.183   5.834
 5972POPC   C1A75987  24.515   4.294   6.261
 5972POPC   D2A75988  24.499   4.065   6.649
 5972POPC   C3A75989  24.486   4.263   7.062
 5972POPC   C4A75990  24.545   4.269   7.533
 5972POPC   C1B75991  24.052   4.495   6.177
 5972POPC   C2B75992  24.227   4.516   6.625
 5972POPC   C3B75993  24.022   4.524   7.053
 5972POPC   C4B75994  24.061   4.433   7.545
 5973POPC   NC375995  23.346  24.347   5.642
 5973POPC   PO475996  23.996  24.189   5.460
 5973POPC   GL175997  23.842  24.449   5.776
 5973POPC   GL275998  23.779  24.771   5.641
 5973POPC   C1A75999  23.717  24.347   6.193
 5973POPC   D2A76000  23.695  24.144   6.573
 5973POPC   C3A76001  23.644  24.410   6.925
 5973POPC   C4A76002  23.694  24.327   7.361
 5973POPC   C1B76003  23.748  24.860   6.095
 5973POPC   C2B76004  23.509  24.744   6.484
 5973POPC   C3B76005  23.457  24.965   6.874
 5973POPC   C4B76006  23.501  24.779   7.270
 5974POPC   NC376007  10.584  15.772   5.432
 5974POPC   PO476008  10.072  16.225   5.469
 5974POPC   GL176009  10.326  16.031   5.812
 5974POPC   GL276010  10.249  15.688   5.897
 5974POPC   C1A76011  10.476  16.132   6.233
 5974POPC   D2A76012  10.386  16.321   6.640
 5974POPC   C3A76013  10.647  16.149   6.957
 5974POPC   C4A76014  10.660  16.256   7.429
 5974POPC   C1B76015  10.457  15.610   6.269
 5974POPC   C2B76016  10.412  15.785   6.648
 5974POPC   C3B76017  10.196  15.829   6.983
 5974POPC   C4B76018  10.432  15.830   7.281
 5975POPC   NC376019  22.422   3.638   5.356
 5975POPC   PO476020  21.938   3.233   5.274
 5975POPC   GL176021  22.014   3.418   5.690
 5975POPC   GL276022  22.359   3.418   5.809
 5975POPC   C1A76023  21.911   3.501   6.143
 5975POPC   D2A76024  21.791   3.387   6.572
 5975POPC   C3A76025  21.908   3.679   6.919
 5975POPC   C4A76026  22.074   3.571   7.322
 5975POPC   C1B76027  22.423   3.381   6.247
 5975POPC   C2B76028  22.297   3.460   6.668
 5975POPC   C3B76029  22.459   3.338   7.077
 5975POPC   C4B76030  22.560   3.546   7.481
 5976POPC   NC376031  15.070  30.980   5.470
 5976POPC   PO476032  15.067  30.310   5.321
 5976POPC   GL176033  15.228  30.525   5.714
 5976POPC   GL276034  15.447  30.807   5.772
 5976POPC   C1A76035  15.132  30.670   6.159
 5976POPC   D2A76036  15.038  30.982   6.485
 5976POPC   C3A76037  15.060  30.841   6.915
 5976POPC   C4A76038  15.254  30.524   7.191
 5976POPC   C1B76039  15.440  31.092   6.155
 5976POPC   C2B76040  15.513  31.181   6.594
 5976POPC   C3B76041  15.456  31.138   7.050
 5976POPC   C4B76042  15.455  30.911   7.441
 5977POPC   NC376043  10.242   2.633   5.452
 5977POPC   PO476044  10.551   2.063   5.135
 5977POPC   GL176045  10.501   2.110   5.639
 5977POPC   GL276046  10.367   1.823   5.841
 5977POPC   C1A76047  10.445   2.224   6.131
 5977POPC   D2A76048  10.204   2.111   6.528
 5977POPC   C3A76049  10.227   2.253   6.958
 5977POPC   C4A76050  10.593   2.350   7.256
 5977POPC   C1B76051  10.405   1.709   6.283
 5977POPC   C2B76052  10.310   1.557   6.713
 5977POPC   C3B76053  10.232   1.614   7.181
 5977POPC   C4B76054  10.238   1.585   7.649
 5978POPC   NC376055   8.787  34.507   5.561
 5978POPC   PO476056   9.380  34.807   5.231
 5978POPC   GL176057   9.253  34.732   5.721
 5978POPC   GL276058   9.090  34.442   5.946
 5978POPC   C1A76059   9.176  34.840   6.201
 5978POPC   D2A76060   8.928  34.732   6.588
 5978POPC   C3A76061   9.083  34.964   6.943
 5978POPC   C4A76062   9.363  34.872   7.263
 5978POPC   C1B76063   8.734  34.405   6.214
 5978POPC   C2B76064   8.782  34.213   6.602
 5978POPC   C3B76065   8.762  34.375   7.003
 5978POPC   C4B76066   8.967  34.574   7.315
 5979POPC   NC376067   8.515  24.014   5.353
 5979POPC   PO476068   9.201  23.744   5.362
 5979POPC   GL176069   9.001  23.732   5.733
 5979POPC   GL276070   9.181  23.983   5.912
 5979POPC   C1A76071   9.081  23.472   6.088
 5979POPC   D2A76072   8.883  23.466   6.471
 5979POPC   C3A76073   8.899  23.678   6.864
 5979POPC   C4A76074   9.066  23.488   7.238
 5979POPC   C1B76075   8.814  23.936   6.194
 5979POPC   C2B76076   8.766  24.129   6.610
 5979POPC   C3B76077   8.670  24.160   7.044
 5979POPC   C4B76078   9.018  23.985   7.262
 5980POPC   NC376079   6.568  32.136   5.694
 5980POPC   PO476080   7.123  31.934   5.535
 5980POPC   GL176081   7.017  32.128   5.920
 5980POPC   GL276082   6.869  32.496   5.863
 5980POPC   C1A76083   6.822  32.198   6.302
 5980POPC   D2A76084   6.888  32.364   6.658
 5980POPC   C3A76085   6.662  32.116   6.929
 5980POPC   C4A76086   6.389  32.110   7.250
 5980POPC   C1B76087   6.698  32.694   6.234
 5980POPC   C2B76088   6.542  32.840   6.648
 5980POPC   C3B76089   6.636  32.661   7.029
 5980POPC   C4B76090   6.998  32.423   7.151
 5981POPC   NC376091  28.358  27.809   5.385
 5981POPC   PO476092  28.053  27.183   5.146
 5981POPC   GL176093  28.147  27.369   5.605
 5981POPC   GL276094  28.043  27.721   5.765
 5981POPC   C1A76095  28.225  27.358   6.078
 5981POPC   D2A76096  28.528  27.236   6.400
 5981POPC   C3A76097  28.461  27.349   6.832
 5981POPC   C4A76098  28.330  27.353   7.243
 5981POPC   C1B76099  27.932  27.744   6.217
 5981POPC   C2B76100  28.180  27.711   6.554
 5981POPC   C3B76101  28.159  27.750   6.983
 5981POPC   C4B76102  28.559  27.831   7.222
 5982POPC   NC376103  16.379  44.121   5.480
 5982POPC   PO476104  15.812  43.792   5.255
 5982POPC   GL176105  15.991  43.867   5.685
 5982POPC   GL276106  16.302  43.663   5.728
 5982POPC   C1A76107  16.112  44.129   6.077
 5982POPC   D2A76108  15.904  44.086   6.461
 5982POPC   C3A76109  16.057  44.131   6.870
 5982POPC   C4A76110  16.056  44.320   7.252
 5982POPC   C1B76111  16.250  43.646   6.178
 5982POPC   C2B76112  16.229  43.683   6.602
 5982POPC   C3B76113  15.964  43.606   6.931
 5982POPC   C4B76114  16.107  43.816   7.271
 5983POPC   NC376115  17.782  25.409   5.371
 5983POPC   PO476116  17.170  25.180   5.618
 5983POPC   GL176117  17.366  25.120   5.959
 5983POPC   GL276118  17.685  25.172   5.845
 5983POPC   C1A76119  17.193  25.165   6.371
 5983POPC   D2A76120  17.324  25.436   6.721
 5983POPC   C3A76121  17.330  25.240   7.127
 5983POPC   C4A76122  17.184  24.835   7.240
 5983POPC   C1B76123  17.697  25.310   6.307
 5983POPC   C2B76124  17.935  25.130   6.634
 5983POPC   C3B76125  17.826  25.048   7.063
 5983POPC   C4B76126  17.942  25.043   7.494
 5984POPC   NC376127  35.987  23.486   5.350
 5984POPC   PO476128  36.443  23.453   5.761
 5984POPC   GL176129  36.074  23.745   5.786
 5984POPC   GL276130  35.716  23.780   5.672
 5984POPC   C1A76131  35.950  24.001   6.118
 5984POPC   D2A76132  36.064  23.761   6.483
 5984POPC   C3A76133  36.328  23.724   6.854
 5984POPC   C4A76134  36.249  23.866   7.278
 5984POPC   C1B76135  35.651  23.592   6.096
 5984POPC   C2B76136  35.584  23.628   6.556
 5984POPC   C3B76137  35.822  23.684   6.932
 5984POPC   C4B76138  35.786  23.666   7.345
 5985POPC   NC376139   4.073  13.269   5.515
 5985POPC   PO476140   4.113  12.646   5.319
 5985POPC   GL176141   4.339  12.794   5.714
 5985POPC   GL276142   4.683  12.643   5.782
 5985POPC   C1A76143   4.259  12.863   6.182
 5985POPC   D2A76144   4.337  12.694   6.612
 5985POPC   C3A76145   4.269  13.022   6.913
 5985POPC   C4A76146   4.413  13.128   7.343
 5985POPC   C1B76147   4.576  12.451   6.206
 5985POPC   C2B76148   4.726  12.342   6.665
 5985POPC   C3B76149   4.659  12.522   7.070
 5985POPC   C4B76150   4.257  12.614   7.212
 5986POPC   NC376151  30.322  44.143   5.573
 5986POPC   PO476152  29.632  44.249   5.572
 5986POPC   GL176153  29.907  44.020   5.868
 5986POPC   GL276154  30.155  43.725   5.837
 5986POPC   C1A76155  30.025  44.035   6.292
 5986POPC   D2A76156  29.900  44.074   6.718
 5986POPC   C3A76157  29.680  43.711   6.820
 5986POPC   C4A76158  29.597  43.760   7.225
 5986POPC   C1B76159  30.304  43.600   6.259
 5986POPC   C2B76160  30.283  43.720   6.715
 5986POPC   C3B76161  30.142  43.653   7.157
 5986POPC   C4B76162  30.265  43.457   7.597
 5987POPC   NC376163  19.264  12.500   5.434
 5987POPC   PO476164  19.202  13.202   5.415
 5987POPC   GL176165  19.190  13.116   5.847
 5987POPC   GL276166  18.990  12.808   5.834
 5987POPC   C1A76167  19.273  12.883   6.252
 5987POPC   D2A76168  19.089  12.748   6.641
 5987POPC   C3A76169  19.246  12.707   7.008
 5987POPC   C4A76170  19.252  13.107   7.162
 5987POPC   C1B76171  18.820  13.087   6.209
 5987POPC   C2B76172  18.647  13.030   6.607
 5987POPC   C3B76173  18.743  12.885   7.036
 5987POPC   C4B76174  18.768  13.208   7.357
 5988POPC   NC376175  38.638  34.257   5.773
 5988POPC   PO476176  38.583  34.777   5.317
 5988POPC   GL176177  38.344  34.710   5.749
 5988POPC   GL276178  38.004  34.505   5.784
 5988POPC   C1A76179  38.273  34.702   6.219
 5988POPC   D2A76180  38.144  34.961   6.585
 5988POPC   C3A76181  38.165  34.743   6.978
 5988POPC   C4A76182  38.367  34.496   7.258
 5988POPC   C1B76183  38.056  34.222   6.166
 5988POPC   C2B76184  38.283  34.234   6.547
 5988POPC   C3B76185  38.120  34.177   6.934
 5988POPC   C4B76186  38.103  33.980   7.310
 5989POPC   NC376187   5.837   7.957   5.276
 5989POPC   PO476188   5.887   8.672   5.332
 5989POPC   GL176189   5.694   8.494   5.721
 5989POPC   GL276190   5.626   8.132   5.717
 5989POPC   C1A76191   5.815   8.328   6.161
 5989POPC   D2A76192   6.159   8.304   6.488
 5989POPC   C3A76193   5.980   8.180   6.873
 5989POPC   C4A76194   5.559   8.309   7.005
 5989POPC   C1B76195   5.644   7.836   6.049
 5989POPC   C2B76196   5.813   7.881   6.457
 5989POPC   C3B76197   5.635   7.794   6.817
 5989POPC   C4B76198   5.473   7.820   7.188
 5990POPC   NC376199  36.327   0.617   5.279
 5990POPC   PO476200  36.196   1.334   5.315
 5990POPC   GL176201  36.103   1.184   5.733
 5990POPC   GL276202  36.143   0.838   5.694
 5990POPC   C1A76203  36.214   1.319   6.150
 5990POPC   D2A76204  36.345   1.547   6.523
 5990POPC   C3A76205  36.479   1.311   6.874
 5990POPC   C4A76206  36.438   1.399   7.309
 5990POPC   C1B76207  36.251   0.804   6.121
 5990POPC   C2B76208  36.139   0.964   6.543
 5990POPC   C3B76209  36.183   0.894   6.994
 5990POPC   C4B76210  35.992   1.163   7.321
 5991POPC   NC376211  37.187  28.928   5.256
 5991POPC   PO476212  36.947  29.543   5.388
 5991POPC   GL176213  36.981  29.200   5.682
 5991POPC   GL276214  36.699  29.194   5.930
 5991POPC   C1A76215  37.175  29.159   6.096
 5991POPC   D2A76216  36.952  29.244   6.485
 5991POPC   C3A76217  37.065  29.114   6.918
 5991POPC   C4A76218  37.238  29.417   7.240
 5991POPC   C1B76219  36.487  29.423   6.263
 5991POPC   C2B76220  36.525  29.442   6.668
 5991POPC   C3B76221  36.415  29.325   7.019
 5991POPC   C4B76222  36.651  29.038   7.250
 5992POPC   NC376223  43.744   6.416   5.384
 5992POPC   PO476224  44.138   6.888   5.158
 5992POPC   GL176225  44.084   6.736   5.598
 5992POPC   GL276226  44.133   6.376   5.710
 5992POPC   C1A76227  43.935   6.793   6.038
 5992POPC   D2A76228  43.977   6.687   6.475
 5992POPC   C3A76229  44.005   6.959   6.835
 5992POPC   C4A76230  43.786   6.827   7.207
 5992POPC   C1B76231  43.891   6.279   6.099
 5992POPC   C2B76232  43.743   6.209   6.519
 5992POPC   C3B76233  43.614   6.140   6.943
 5992POPC   C4B76234  43.802   6.260   7.357
 5993POPC   NC376235  35.165  18.076   5.567
 5993POPC   PO476236  35.500  18.564   5.432
 5993POPC   GL176237  35.523  18.295   5.848
 5993POPC   GL276238  35.455  17.896   5.914
 5993POPC   C1A76239  35.539  18.218   6.297
 5993POPC   D2A76240  35.542  18.523   6.598
 5993POPC   C3A76241  35.394  18.358   6.951
 5993POPC   C4A76242  35.346  18.122   7.306
 5993POPC   C1B76243  35.053  18.052   6.172
 5993POPC   C2B76244  35.059  18.206   6.564
 5993POPC   C3B76245  34.977  18.067   6.958
 5993POPC   C4B76246  34.847  18.117   7.372
 5994POPC   NC376247  31.293   0.135   5.290
 5994POPC   PO476248  31.901   0.227   5.509
 5994POPC   GL176249  31.541   0.393   5.755
 5994POPC   GL276250  31.315   0.098   5.844
 5994POPC   C1A76251  31.522   0.621   6.169
 5994POPC   D2A76252  31.659   0.875   6.543
 5994POPC   C3A76253  31.454   0.728   6.914
 5994POPC   C4A76254  31.105   0.825   7.206
 5994POPC   C1B76255  31.648   0.103   6.183
 5994POPC   C2B76256  31.620   0.270   6.632
 5994POPC   C3B76257  31.369   0.212   7.031
 5994POPC   C4B76258  31.425   0.206   7.491
 5995POPC   NC376259  23.377  18.071   5.432
 5995POPC   PO476260  22.764  18.299   5.362
 5995POPC   GL176261  23.030  18.302   5.754
 5995POPC   GL276262  23.126  17.990   5.862
 5995POPC   C1A76263  23.098  18.552   6.131
 5995POPC   D2A76264  23.201  18.639   6.591
 5995POPC   C3A76265  22.916  18.578   6.941
 5995POPC   C4A76266  22.627  18.418   7.246
 5995POPC   C1B76267  22.806  18.141   6.178
 5995POPC   C2B76268  22.849  18.152   6.618
 5995POPC   C3B76269  22.590  18.009   6.947
 5995POPC   C4B76270  22.620  17.856   7.385
 5996POPC   NC376271  15.100  41.687   5.261
 5996POPC   PO476272  15.327  41.085   5.456
 5996POPC   GL176273  15.361  41.435   5.735
 5996POPC   GL276274  15.586  41.364   5.993
 5996POPC   C1A76275  15.177  41.624   6.137
 5996POPC   D2A76276  14.952  41.551   6.519
 5996POPC   C3A76277  15.062  41.728   6.895
 5996POPC   C4A76278  15.054  41.466   7.262
 5996POPC   C1B76279  15.498  41.151   6.390
 5996POPC   C2B76280  15.371  41.279   6.835
 5996POPC   C3B76281  15.544  41.297   7.283
 5996POPC   C4B76282  15.770  41.217   7.718
 5997POPC   NC376283  44.511  28.743   5.650
 5997POPC   PO476284  44.603  29.393   5.446
 5997POPC   GL176285  44.435  29.270   5.815
 5997POPC   GL276286  44.199  29.528   5.812
 5997POPC   C1A76287  44.520  29.057   6.225
 5997POPC   D2A76288  44.754  28.959   6.566
 5997POPC   C3A76289  44.593  29.020   6.959
 5997POPC   C4A76290  44.809  29.183   7.283
 5997POPC   C1B76291  44.394  29.543   6.249
 5997POPC   C2B76292  44.366  29.378   6.676
 5997POPC   C3B76293  44.559  29.574   7.050
 5997POPC   C4B76294  44.523  29.526   7.550
 5998POPC   NC376295  10.876  28.472   5.498
 5998POPC   PO476296  10.170  28.660   5.515
 5998POPC   GL176297  10.441  28.315   5.824
 5998POPC   GL276298  10.791  28.187   5.922
 5998POPC   C1A76299  10.339  28.168   6.267
 5998POPC   D2A76300  10.146  28.447   6.609
 5998POPC   C3A76301  10.343  28.390   7.021
 5998POPC   C4A76302  10.245  28.072   7.322
 5998POPC   C1B76303  10.734  28.485   6.227
 5998POPC   C2B76304  10.660  28.487   6.637
 5998POPC   C3B76305  10.818  28.574   7.009
 5998POPC   C4B76306  10.809  28.736   7.360
 5999POPC   NC376307  20.762  18.490   5.461
 5999POPC   PO476308  20.596  19.212   5.310
 5999POPC   GL176309  20.570  19.128   5.759
 5999POPC   GL276310  20.731  18.832   5.824
 5999POPC   C1A76311  20.472  19.010   6.205
 5999POPC   D2A76312  20.669  18.916   6.580
 5999POPC   C3A76313  20.586  19.178   6.893
 5999POPC   C4A76314  20.612  19.221   7.319
 5999POPC   C1B76315  20.996  18.859   6.194
 5999POPC   C2B76316  21.180  18.847   6.601
 5999POPC   C3B76317  20.966  18.808   6.997
 5999POPC   C4B76318  20.698  18.711   7.348
 6000POPC   NC376319  40.242  21.410   5.514
 6000POPC   PO476320  40.951  21.416   5.446
 6000POPC   GL176321  40.645  21.308   5.805
 6000POPC   GL276322  40.646  20.968   5.940
 6000POPC   C1A76323  40.398  21.310   6.234
 6000POPC   D2A76324  40.582  21.363   6.651
 6000POPC   C3A76325  40.599  21.683   6.956
 6000POPC   C4A76326  40.410  21.470   7.290
 6000POPC   C1B76327  40.931  21.239   6.254
 6000POPC   C2B76328  41.020  21.614   6.584
 6000POPC   C3B76329  41.093  21.515   7.023
 6000POPC   C4B76330  40.809  21.202   7.106
 6001POPC   NC376331  25.604  37.370   5.538
 6001POPC   PO476332  25.251  37.729   5.118
 6001POPC   GL176333  25.096  37.685   5.573
 6001POPC   GL276334  24.757  37.831   5.625
 6001POPC   C1A76335  25.184  37.633   6.068
 6001POPC   D2A76336  25.314  37.835   6.495
 6001POPC   C3A76337  25.409  37.634   6.911
 6001POPC   C4A76338  25.620  37.672   7.331
 6001POPC   C1B76339  24.833  38.011   6.056
 6001POPC   C2B76340  24.940  38.180   6.473
 6001POPC   C3B76341  24.969  37.983   6.892
 6001POPC   C4B76342  25.131  37.827   7.314
 6002POPC   NC376343  15.411  30.040   5.504
 6002POPC   PO476344  14.853  29.673   5.451
 6002POPC   GL176345  15.060  29.767   5.783
 6002POPC   GL276346  14.943  30.100   5.769
 6002POPC   C1A76347  14.912  29.803   6.203
 6002POPC   D2A76348  15.074  29.810   6.626
 6002POPC   C3A76349  14.914  29.792   7.036
 6002POPC   C4A76350  15.265  29.607   7.310
 6002POPC   C1B76351  15.239  30.181   6.129
 6002POPC   C2B76352  15.282  30.271   6.578
 6002POPC   C3B76353  15.347  30.071   7.004
 6002POPC   C4B76354  15.319  30.088   7.459
 6003POPC   NC376355  39.873  24.561   5.515
 6003POPC   PO476356  40.232  23.954   5.463
 6003POPC   GL176357  39.990  24.105   5.795
 6003POPC   GL276358  40.235  24.389   5.835
 6003POPC   C1A76359  39.817  24.354   6.141
 6003POPC   D2A76360  39.750  24.556   6.511
 6003POPC   C3A76361  39.782  24.323   6.857
 6003POPC   C4A76362  39.843  24.643   7.179
 6003POPC   C1B76363  40.330  24.116   6.189
 6003POPC   C2B76364  40.210  24.229   6.571
 6003POPC   C3B76365  40.256  24.497   6.906
 6003POPC   C4B76366  40.265  24.312   7.304
 6004POPC   NC376367   9.003  21.483   5.381
 6004POPC   PO476368   9.355  21.017   5.708
 6004POPC   GL176369   9.001  21.274   5.882
 6004POPC   GL276370   8.908  21.632   5.870
 6004POPC   C1A76371   8.962  21.287   6.310
 6004POPC   D2A76372   9.212  21.272   6.699
 6004POPC   C3A76373   8.929  21.213   7.020
 6004POPC   C4A76374   9.053  21.175   7.422
 6004POPC   C1B76375   8.812  21.767   6.281
 6004POPC   C2B76376   8.867  21.645   6.717
 6004POPC   C3B76377   8.789  21.713   7.152
 6004POPC   C4B76378   8.885  21.641   7.584
 6005POPC   NC376379  10.342  35.723   5.382
 6005POPC   PO476380  10.393  36.386   5.472
 6005POPC   GL176381  10.548  36.196   5.825
 6005POPC   GL276382  10.875  36.245   5.721
 6005POPC   C1A76383  10.461  36.129   6.290
 6005POPC   D2A76384  10.383  35.801   6.631
 6005POPC   C3A76385  10.253  35.868   7.072
 6005POPC   C4A76386  10.117  36.136   7.427
 6005POPC   C1B76387  10.932  35.924   6.053
 6005POPC   C2B76388  10.880  35.918   6.495
 6005POPC   C3B76389  10.823  35.872   6.929
 6005POPC   C4B76390  10.635  36.136   7.256
 6006POPC   NC376391   6.050  31.729   5.375
 6006POPC   PO476392   6.267  32.405   5.459
 6006POPC   GL176393   5.979  32.320   5.796
 6006POPC   GL276394   5.999  31.976   5.816
 6006POPC   C1A76395   6.002  32.482   6.204
 6006POPC   D2A76396   6.352  32.388   6.455
 6006POPC   C3A76397   6.233  32.375   6.834
 6006POPC   C4A76398   5.878  32.318   7.075
 6006POPC   C1B76399   5.956  31.968   6.257
 6006POPC   C2B76400   5.677  32.028   6.585
 6006POPC   C3B76401   5.515  31.970   6.961
 6006POPC   C4B76402   5.688  31.695   7.234
 6007POPC   NC376403   5.062  27.307   5.431
 6007POPC   PO476404   5.363  27.892   5.159
 6007POPC   GL176405   5.352  27.665   5.652
 6007POPC   GL276406   5.010  27.696   5.773
 6007POPC   C1A76407   5.213  27.362   6.088
 6007POPC   D2A76408   5.323  27.266   6.556
 6007POPC   C3A76409   5.105  27.397   6.956
 6007POPC   C4A76410   5.071  27.456   7.453
 6007POPC   C1B76411   5.022  27.838   6.208
 6007POPC   C2B76412   4.974  27.894   6.666
 6007POPC   C3B76413   5.003  27.853   7.133
 6007POPC   C4B76414   4.701  27.837   7.493
 6008POPC   NC376415  20.357  10.990   5.674
 6008POPC   PO476416  19.900  10.570   5.396
 6008POPC   GL176417  19.782  10.524   5.803
 6008POPC   GL276418  19.848  10.861   5.824
 6008POPC   C1A76419  19.815  10.456   6.247
 6008POPC   D2A76420  19.599  10.257   6.571
 6008POPC   C3A76421  19.817  10.266   6.961
 6008POPC   C4A76422  20.234  10.247   7.153
 6008POPC   C1B76423  19.604  10.922   6.189
 6008POPC   C2B76424  19.787  10.922   6.605
 6008POPC   C3B76425  19.744  10.785   7.009
 6008POPC   C4B76426  19.956  10.659   7.373
 6009POPC   NC376427  37.980  14.907   5.341
 6009POPC   PO476428  37.426  14.689   5.450
 6009POPC   GL176429  37.573  14.600   5.839
 6009POPC   GL276430  37.909  14.639   5.800
 6009POPC   C1A76431  37.594  14.515   6.270
 6009POPC   D2A76432  37.715  14.174   6.533
 6009POPC   C3A76433  37.497  14.201   6.899
 6009POPC   C4A76434  37.401  14.588   7.121
 6009POPC   C1B76435  38.028  14.344   6.093
 6009POPC   C2B76436  38.120  14.497   6.505
 6009POPC   C3B76437  37.916  14.473   6.933
 6009POPC   C4B76438  37.828  14.483   7.382
 6010POPC   NC376439  27.280   9.915   5.474
 6010POPC   PO476440  27.651  10.448   5.150
 6010POPC   GL176441  27.516  10.570   5.590
 6010POPC   GL276442  27.808  10.718   5.774
 6010POPC   C1A76443  27.365  10.560   6.039
 6010POPC   D2A76444  27.322  10.648   6.508
 6010POPC   C3A76445  27.514  10.478   6.906
 6010POPC   C4A76446  27.357  10.254   7.245
 6010POPC   C1B76447  27.723  10.875   6.214
 6010POPC   C2B76448  27.847  10.734   6.605
 6010POPC   C3B76449  28.027  10.452   6.894
 6010POPC   C4B76450  27.914  10.613   7.270
 6011POPC   NC376451  18.446   1.082   5.320
 6011POPC   PO476452  17.896   1.442   5.295
 6011POPC   GL176453  18.061   1.151   5.707
 6011POPC   GL276454  18.408   0.945   5.810
 6011POPC   C1A76455  18.242   1.268   6.165
 6011POPC   D2A76456  18.456   1.331   6.606
 6011POPC   C3A76457  18.216   1.246   7.025
 6011POPC   C4A76458  18.173   1.477   7.446
 6011POPC   C1B76459  18.662   0.946   6.226
 6011POPC   C2B76460  18.679   0.870   6.707
 6011POPC   C3B76461  18.592   0.924   7.188
 6011POPC   C4B76462  18.682   1.029   7.653
 6012POPC   NC376463  31.678  17.897   5.292
 6012POPC   PO476464  31.661  18.517   5.314
 6012POPC   GL176465  31.407  18.294   5.623
 6012POPC   GL276466  31.697  18.167   5.794
 6012POPC   C1A76467  31.304  18.344   6.087
 6012POPC   D2A76468  31.609  18.443   6.439
 6012POPC   C3A76469  31.549  18.354   6.879
 6012POPC   C4A76470  31.236  18.583   7.123
 6012POPC   C1B76471  31.676  18.000   6.206
 6012POPC   C2B76472  31.840  17.968   6.605
 6012POPC   C3B76473  31.744  17.879   7.026
 6012POPC   C4B76474  31.386  17.999   7.221
 6013POPC   NC376475   3.093  25.884   5.351
 6013POPC   PO476476   2.594  26.208   5.165
 6013POPC   GL176477   2.583  26.147   5.668
 6013POPC   GL276478   2.833  25.953   5.757
 6013POPC   C1A76479   2.496  25.934   6.112
 6013POPC   D2A76480   2.517  25.787   6.547
 6013POPC   C3A76481   2.400  26.104   6.835
 6013POPC   C4A76482   2.671  26.288   7.132
 6013POPC   C1B76483   2.992  25.841   6.126
 6013POPC   C2B76484   2.994  25.969   6.553
 6013POPC   C3B76485   2.857  25.816   6.962
 6013POPC   C4B76486   3.140  25.610   7.241
 6014POPC   NC376487  38.079  40.737   5.487
 6014POPC   PO476488  37.540  40.370   5.721
 6014POPC   GL176489  37.600  40.712   5.916
 6014POPC   GL276490  37.964  40.692   5.981
 6014POPC   C1A76491  37.638  40.839   6.340
 6014POPC   D2A76492  37.688  41.009   6.727
 6014POPC   C3A76493  37.594  40.708   6.991
 6014POPC   C4A76494  37.226  40.579   7.203
 6014POPC   C1B76495  38.081  41.070   6.195
 6014POPC   C2B76496  38.039  41.351   6.571
 6014POPC   C3B76497  38.102  41.210   7.010
 6014POPC   C4B76498  37.819  41.035   7.289
 6015POPC   NC376499  17.102  16.974   5.487
 6015POPC   PO476500  16.551  16.683   5.480
 6015POPC   GL176501  16.825  16.714   5.854
 6015POPC   GL276502  17.008  17.019   5.985
 6015POPC   C1A76503  16.782  16.641   6.285
 6015POPC   D2A76504  16.986  16.368   6.565
 6015POPC   C3A76505  16.901  16.569   6.945
 6015POPC   C4A76506  16.795  16.655   7.386
 6015POPC   C1B76507  16.760  17.161   6.345
 6015POPC   C2B76508  16.477  16.960   6.621
 6015POPC   C3B76509  16.538  16.947   7.046
 6015POPC   C4B76510  16.913  17.113   7.217
 6016POPC   NC376511  25.274  16.570   5.241
 6016POPC   PO476512  25.034  17.175   5.397
 6016POPC   GL176513  25.283  16.917   5.684
 6016POPC   GL276514  25.229  16.548   5.741
 6016POPC   C1A76515  25.372  16.881   6.118
 6016POPC   D2A76516  25.193  16.693   6.490
 6016POPC   C3A76517  25.295  16.871   6.884
 6016POPC   C4A76518  25.594  16.729   7.205
 6016POPC   C1B76519  25.435  16.366   6.085
 6016POPC   C2B76520  25.391  16.207   6.506
 6016POPC   C3B76521  25.249  16.369   6.899
 6016POPC   C4B76522  25.233  16.380   7.313
 6017POPC   NC376523  16.576   4.250   5.451
 6017POPC   PO476524  16.512   3.569   5.410
 6017POPC   GL176525  16.606   3.800   5.808
 6017POPC   GL276526  16.976   3.827   5.839
 6017POPC   C1A76527  16.539   3.638   6.253
 6017POPC   D2A76528  16.582   3.244   6.528
 6017POPC   C3A76529  16.577   3.342   6.980
 6017POPC   C4A76530  16.725   3.718   7.191
 6017POPC   C1B76531  17.065   3.594   6.239
 6017POPC   C2B76532  16.999   3.517   6.697
 6017POPC   C3B76533  17.141   3.391   7.129
 6017POPC   C4B76534  17.130   3.678   7.511
 6018POPC   NC376535  23.662  30.258   5.276
 6018POPC   PO476536  23.598  30.941   5.320
 6018POPC   GL176537  23.701  30.777   5.701
 6018POPC   GL276538  23.432  30.556   5.799
 6018POPC   C1A76539  23.913  30.810   6.096
 6018POPC   D2A76540  23.747  30.589   6.422
 6018POPC   C3A76541  23.734  30.675   6.846
 6018POPC   C4A76542  23.645  30.534   7.249
 6018POPC   C1B76543  23.391  30.876   6.149
 6018POPC   C2B76544  23.394  31.002   6.621
 6018POPC   C3B76545  23.347  30.917   7.083
 6018POPC   C4B76546  23.191  30.998   7.569
 6019POPC   NC376547   5.360  34.765   5.406
 6019POPC   PO476548   4.767  34.409   5.237
 6019POPC   GL176549   4.982  34.546   5.677
 6019POPC   GL276550   5.270  34.337   5.777
 6019POPC   C1A76551   5.103  34.862   6.051
 6019POPC   D2A76552   4.917  34.900   6.475
 6019POPC   C3A76553   5.099  34.884   6.911
 6019POPC   C4A76554   4.888  34.750   7.302
 6019POPC   C1B76555   5.352  34.456   6.200
 6019POPC   C2B76556   5.151  34.453   6.612
 6019POPC   C3B76557   5.216  34.384   7.056
 6019POPC   C4B76558   5.310  34.516   7.498
 6020POPC   NC376559  36.629  43.764   5.476
 6020POPC   PO476560  37.329  44.031   5.401
 6020POPC   GL176561  37.017  43.997   5.744
 6020POPC   GL276562  37.036  43.625   5.826
 6020POPC   C1A76563  36.843  44.098   6.161
 6020POPC   D2A76564  36.786  44.386   6.513
 6020POPC   C3A76565  36.658  44.240   6.930
 6020POPC   C4A76566  36.956  44.145   7.252
 6020POPC   C1B76567  36.763  43.596   6.193
 6020POPC   C2B76568  36.688  43.833   6.604
 6020POPC   C3B76569  36.682  43.730   7.055
 6020POPC   C4B76570  36.663  43.547   7.491
 6021POPC   NC376571  44.179   2.650   5.566
 6021POPC   PO476572  43.706   2.896   5.158
 6021POPC   GL176573  43.689   2.599   5.760
 6021POPC   GL276574  43.924   2.451   5.931
 6021POPC   C1A76575  43.554   2.524   6.245
 6021POPC   D2A76576  43.614   2.733   6.686
 6021POPC   C3A76577  43.718   2.653   7.148
 6021POPC   C4A76578  43.866   2.878   7.541
 6021POPC   C1B76579  44.257   2.468   6.206
 6021POPC   C2B76580  44.356   2.341   6.597
 6021POPC   C3B76581  44.209   2.580   6.942
 6021POPC   C4B76582  44.163   2.494   7.367
 6022POPC   NC376583  38.917  13.547   5.444
 6022POPC   PO476584  39.607  13.566   5.454
 6022POPC   GL176585  39.388  13.439   5.837
 6022POPC   GL276586  39.156  13.662   5.933
 6022POPC   C1A76587  39.354  13.323   6.294
 6022POPC   D2A76588  39.105  13.592   6.586
 6022POPC   C3A76589  39.035  13.579   7.023
 6022POPC   C4A76590  39.312  13.448   7.327
 6022POPC   C1B76591  39.458  13.834   6.274
 6022POPC   C2B76592  39.414  14.080   6.678
 6022POPC   C3B76593  39.414  13.930   7.115
 6022POPC   C4B76594  39.104  13.890   7.463
 6023POPC   NC376595   2.725  21.711   5.408
 6023POPC   PO476596   2.592  22.425   5.332
 6023POPC   GL176597   2.805  22.308   5.721
 6023POPC   GL276598   2.691  21.988   5.836
 6023POPC   C1A76599   2.785  22.446   6.126
 6023POPC   D2A76600   2.835  22.174   6.462
 6023POPC   C3A76601   2.673  22.295   6.834
 6023POPC   C4A76602   2.780  22.192   7.248
 6023POPC   C1B76603   3.053  21.832   6.054
 6023POPC   C2B76604   3.120  21.746   6.484
 6023POPC   C3B76605   3.024  21.886   6.884
 6023POPC   C4B76606   3.069  21.747   7.298
 6024POPC   NC376607  41.626  18.819   5.353
 6024POPC   PO476608  41.044  18.661   5.621
 6024POPC   GL176609  41.417  18.888   5.845
 6024POPC   GL276610  41.597  19.233   5.801
 6024POPC   C1A76611  41.808  18.874   6.132
 6024POPC   D2A76612  41.890  18.635   6.533
 6024POPC   C3A76613  41.624  18.814   6.838
 6024POPC   C4A76614  41.381  19.041   7.134
 6024POPC   C1B76615  41.882  19.426   6.130
 6024POPC   C2B76616  42.024  19.274   6.552
 6024POPC   C3B76617  41.828  19.309   6.971
 6024POPC   C4B76618  41.697  19.346   7.415
 6025POPC   NC376619  27.007  41.618   5.499
 6025POPC   PO476620  27.726  41.556   5.470
 6025POPC   GL176621  27.557  41.482   5.852
 6025POPC   GL276622  27.272  41.709   5.940
 6025POPC   C1A76623  27.719  41.632   6.236
 6025POPC   D2A76624  28.050  41.600   6.519
 6025POPC   C3A76625  27.896  41.589   6.927
 6025POPC   C4A76626  27.811  41.487   7.355
 6025POPC   C1B76627  27.278  41.366   6.249
 6025POPC   C2B76628  27.507  41.347   6.619
 6025POPC   C3B76629  27.409  41.421   7.019
 6025POPC   C4B76630  27.450  41.804   7.257
 6026POPC   NC376631  24.043  13.852   5.354
 6026POPC   PO476632  24.676  13.987   5.365
 6026POPC   GL176633  24.546  13.625   5.671
 6026POPC   GL276634  24.680  13.288   5.724
 6026POPC   C1A76635  24.539  13.511   6.145
 6026POPC   D2A76636  24.246  13.374   6.483
 6026POPC   C3A76637  24.375  13.446   6.909
 6026POPC   C4A76638  24.233  13.740   7.222
 6026POPC   C1B76639  24.936  13.187   6.118
 6026POPC   C2B76640  24.794  13.256   6.550
 6026POPC   C3B76641  24.861  13.319   6.986
 6026POPC   C4B76642  24.671  13.471   7.360
 6027POPC   NC376643  38.206  31.745   5.045
 6027POPC   PO476644  38.233  32.345   5.404
 6027POPC   GL176645  38.298  32.422   5.806
 6027POPC   GL276646  38.376  32.082   5.881
 6027POPC   C1A76647  38.496  32.401   6.234
 6027POPC   D2A76648  38.532  32.176   6.608
 6027POPC   C3A76649  38.497  32.348   7.039
 6027POPC   C4A76650  38.716  32.209   7.419
 6027POPC   C1B76651  38.191  31.927   6.225
 6027POPC   C2B76652  38.092  31.857   6.635
 6027POPC   C3B76653  38.328  31.864   6.969
 6027POPC   C4B76654  38.344  31.851   7.381
 6028POPC   NC376655  22.816   0.199   5.427
 6028POPC   PO476656  23.255  44.584   5.412
 6028POPC   GL176657  23.029  44.535   5.808
 6028POPC   GL276658  22.760  44.761   5.790
 6028POPC   C1A76659  22.775  44.366   6.156
 6028POPC   D2A76660  23.017  44.338   6.535
 6028POPC   C3A76661  22.895  44.456   6.937
 6028POPC   C4A76662  23.213  44.542   7.226
 6028POPC   C1B76663  22.944  44.863   6.239
 6028POPC   C2B76664  22.840  44.912   6.696
 6028POPC   C3B76665  22.904  44.959   7.166
 6028POPC   C4B76666  22.613  44.906   7.549
 6029POPC   NC376667  38.117  20.871   5.487
 6029POPC   PO476668  38.540  20.331   5.409
 6029POPC   GL176669  38.457  20.463   5.836
 6029POPC   GL276670  38.747  20.659   5.888
 6029POPC   C1A76671  38.599  20.333   6.285
 6029POPC   D2A76672  38.447  20.342   6.744
 6029POPC   C3A76673  38.546  20.581   7.138
 6029POPC   C4A76674  38.594  20.436   7.584
 6029POPC   C1B76675  38.430  20.830   6.225
 6029POPC   C2B76676  38.290  20.835   6.683
 6029POPC   C3B76677  38.163  20.934   7.127
 6029POPC   C4B76678  38.405  20.896   7.543
 6030POPC   NC376679  41.731  38.573   5.517
 6030POPC   PO476680  41.466  37.994   5.377
 6030POPC   GL176681  41.615  38.127   5.779
 6030POPC   GL276682  41.446  38.442   5.927
 6030POPC   C1A76683  41.693  38.062   6.200
 6030POPC   D2A76684  41.426  38.288   6.492
 6030POPC   C3A76685  41.457  38.293   6.928
 6030POPC   C4A76686  41.555  38.432   7.325
 6030POPC   C1B76687  41.755  38.595   6.257
 6030POPC   C2B76688  41.697  38.689   6.709
 6030POPC   C3B76689  41.371  38.805   7.015
 6030POPC   C4B76690  41.440  38.926   7.443
 6031POPC   NC376691  33.277   8.127   5.315
 6031POPC   PO476692  32.763   7.753   5.335
 6031POPC   GL176693  32.958   8.042   5.699
 6031POPC   GL276694  33.304   7.955   5.820
 6031POPC   C1A76695  33.057   8.322   6.120
 6031POPC   D2A76696  32.847   8.408   6.544
 6031POPC   C3A76697  33.013   8.303   6.958
 6031POPC   C4A76698  33.139   8.559   7.304
 6031POPC   C1B76699  33.020   7.817   6.158
 6031POPC   C2B76700  32.850   7.858   6.579
 6031POPC   C3B76701  32.999   7.793   6.996
 6031POPC   C4B76702  32.790   7.924   7.361
 6032POPC   NC376703  24.942  19.121   5.445
 6032POPC   PO476704  25.542  18.962   5.175
 6032POPC   GL176705  25.432  19.011   5.682
 6032POPC   GL276706  25.116  19.049   5.904
 6032POPC   C1A76707  25.563  18.990   6.166
 6032POPC   D2A76708  25.736  18.840   6.605
 6032POPC   C3A76709  25.405  18.802   6.961
 6032POPC   C4A76710  25.443  18.927   7.398
 6032POPC   C1B76711  25.152  19.310   6.263
 6032POPC   C2B76712  25.363  19.234   6.651
 6032POPC   C3B76713  25.271  19.330   7.086
 6032POPC   C4B76714  25.197  19.349   7.536
 6033POPC   NC376715   8.403  14.808   5.090
 6033POPC   PO476716   8.459  14.153   5.372
 6033POPC   GL176717   8.123  14.383   5.625
 6033POPC   GL276718   8.298  14.289   5.867
 6033POPC   C1A76719   8.045  14.591   6.135
 6033POPC   D2A76720   8.049  14.391   6.551
 6033POPC   C3A76721   8.063  14.588   6.949
 6033POPC   C4A76722   7.783  14.432   7.225
 6033POPC   C1B76723   8.491  14.409   6.256
 6033POPC   C2B76724   8.451  14.685   6.624
 6033POPC   C3B76725   8.585  14.623   7.048
 6033POPC   C4B76726   8.579  14.560   7.506
 6034POPC   NC376727  24.399  25.508   5.364
 6034POPC   PO476728  24.702  24.893   5.385
 6034POPC   GL176729  24.513  25.105   5.733
 6034POPC   GL276730  24.663  25.442   5.825
 6034POPC   C1A76731  24.230  25.103   6.097
 6034POPC   D2A76732  24.275  25.340   6.480
 6034POPC   C3A76733  24.314  25.162   6.890
 6034POPC   C4A76734  24.257  25.516   7.203
 6034POPC   C1B76735  24.725  25.205   6.212
 6034POPC   C2B76736  24.783  25.150   6.652
 6034POPC   C3B76737  24.750  25.356   7.064
 6034POPC   C4B76738  24.531  25.135   7.401
 6035POPC   NC376739   5.918  40.455   5.268
 6035POPC   PO476740   5.625  41.136   5.290
 6035POPC   GL176741   5.771  40.955   5.692
 6035POPC   GL276742   5.616  40.667   5.710
 6035POPC   C1A76743   5.909  40.853   6.147
 6035POPC   D2A76744   6.056  40.541   6.435
 6035POPC   C3A76745   5.923  40.704   6.796
 6035POPC   C4A76746   5.893  40.701   7.197
 6035POPC   C1B76747   5.463  40.608   6.129
 6035POPC   C2B76748   5.561  40.435   6.544
 6035POPC   C3B76749   5.495  40.467   6.987
 6035POPC   C4B76750   5.464  40.563   7.433
 6036POPC   NC376751  16.994   0.615   5.390
 6036POPC   PO476752  16.622   0.173   5.415
 6036POPC   GL176753  16.664   0.452   5.761
 6036POPC   GL276754  16.357   0.427   5.893
 6036POPC   C1A76755  16.864   0.485   6.170
 6036POPC   D2A76756  17.023   0.151   6.443
 6036POPC   C3A76757  16.884   0.146   6.864
 6036POPC   C4A76758  17.012  44.974   7.255
 6036POPC   C1B76759  16.529   0.078   6.159
 6036POPC   C2B76760  16.398   0.048   6.601
 6036POPC   C3B76761  16.432   0.439   6.843
 6036POPC   C4B76762  16.635   0.481   7.218
 6037POPC   NC376763  18.350  35.736   5.461
 6037POPC   PO476764  17.966  35.172   5.399
 6037POPC   GL176765  18.117  35.354   5.764
 6037POPC   GL276766  18.461  35.325   5.751
 6037POPC   C1A76767  18.006  35.439   6.181
 6037POPC   D2A76768  17.978  35.611   6.601
 6037POPC   C3A76769  17.923  35.357   6.953
 6037POPC   C4A76770  17.988  35.088   7.297
 6037POPC   C1B76771  18.557  35.466   6.203
 6037POPC   C2B76772  18.503  35.589   6.654
 6037POPC   C3B76773  18.731  35.539   7.044
 6037POPC   C4B76774  18.819  35.128   7.230
 6038POPC   NC376775  43.727  41.142   5.271
 6038POPC   PO476776  44.154  41.660   5.482
 6038POPC   GL176777  43.898  41.484   5.824
 6038POPC   GL276778  43.676  41.716   5.922
 6038POPC   C1A76779  43.942  41.392   6.271
 6038POPC   D2A76780  44.085  41.316   6.687
 6038POPC   C3A76781  43.900  41.516   7.063
 6038POPC   C4A76782  44.033  41.191   7.270
 6038POPC   C1B76783  43.856  41.908   6.240
 6038POPC   C2B76784  43.824  41.774   6.626
 6038POPC   C3B76785  43.633  41.959   6.973
 6038POPC   C4B76786  43.420  41.703   7.253
 6039POPC   NC376787  24.871  40.645   5.479
 6039POPC   PO476788  24.549  39.962   5.394
 6039POPC   GL176789  24.602  40.225   5.766
 6039POPC   GL276790  24.634  39.969   5.983
 6039POPC   C1A76791  24.502  40.408   6.207
 6039POPC   D2A76792  24.497  40.043   6.519
 6039POPC   C3A76793  24.416  40.153   6.947
 6039POPC   C4A76794  24.617  40.500   7.115
 6039POPC   C1B76795  24.340  39.685   6.193
 6039POPC   C2B76796  24.410  39.487   6.620
 6039POPC   C3B76797  24.381  39.565   7.084
 6039POPC   C4B76798  24.083  39.450   7.451
 6040POPC   NC376799  38.586  32.048   5.435
 6040POPC   PO476800  39.178  32.400   5.413
 6040POPC   GL176801  39.138  32.230   5.801
 6040POPC   GL276802  38.811  32.369   5.806
 6040POPC   C1A76803  39.340  32.086   6.175
 6040POPC   D2A76804  39.560  32.206   6.555
 6040POPC   C3A76805  39.349  32.129   6.904
 6040POPC   C4A76806  39.217  32.008   7.288
 6040POPC   C1B76807  38.988  32.556   6.183
 6040POPC   C2B76808  39.088  32.470   6.622
 6040POPC   C3B76809  39.015  32.480   7.087
 6040POPC   C4B76810  39.159  32.434   7.549
 6041POPC   NC376811  22.120  10.483   5.403
 6041POPC   PO476812  21.651  10.850   5.592
 6041POPC   GL176813  21.960  10.757   5.872
 6041POPC   GL276814  22.301  10.788   5.797
 6041POPC   C1A76815  22.104  10.594   6.274
 6041POPC   D2A76816  21.867  10.510   6.630
 6041POPC   C3A76817  21.913  10.671   7.039
 6041POPC   C4A76818  22.323  10.514   7.062
 6041POPC   C1B76819  22.545  10.847   6.169
 6041POPC   C2B76820  22.563  10.700   6.614
 6041POPC   C3B76821  22.755  10.819   7.011
 6041POPC   C4B76822  22.611  10.692   7.437
 6042POPC   NC376823  24.498  41.806   5.164
 6042POPC   PO476824  24.729  41.254   5.412
 6042POPC   GL176825  24.586  41.510   5.773
 6042POPC   GL276826  24.249  41.575   5.832
 6042POPC   C1A76827  24.467  41.413   6.227
 6042POPC   D2A76828  24.333  41.379   6.637
 6042POPC   C3A76829  24.599  41.550   6.894
 6042POPC   C4A76830  24.643  41.399   7.283
 6042POPC   C1B76831  24.212  41.874   6.171
 6042POPC   C2B76832  24.371  41.966   6.582
 6042POPC   C3B76833  24.211  41.886   6.975
 6042POPC   C4B76834  24.157  41.491   7.157
 6043POPC   NC376835  11.045  29.457   5.475
 6043POPC   PO476836  11.406  29.979   5.281
 6043POPC   GL176837  11.377  29.832   5.701
 6043POPC   GL276838  11.668  30.014   5.807
 6043POPC   C1A76839  11.119  29.817   6.097
 6043POPC   D2A76840  11.347  29.774   6.497
 6043POPC   C3A76841  11.126  29.796   6.887
 6043POPC   C4A76842  11.265  29.824   7.311
 6043POPC   C1B76843  11.451  30.191   6.131
 6043POPC   C2B76844  11.387  30.297   6.531
 6043POPC   C3B76845  11.487  30.147   6.913
 6043POPC   C4B76846  11.322  30.300   7.268
 6044POPC   NC376847  38.157  18.251   5.613
 6044POPC   PO476848  38.881  18.145   5.551
 6044POPC   GL176849  38.620  18.281   5.894
 6044POPC   GL276850  38.517  18.589   5.796
 6044POPC   C1A76851  38.433  18.143   6.296
 6044POPC   D2A76852  38.227  17.915   6.623
 6044POPC   C3A76853  38.368  17.984   7.041
 6044POPC   C4A76854  38.614  18.286   7.263
 6044POPC   C1B76855  38.273  18.640   6.210
 6044POPC   C2B76856  38.125  18.438   6.609
 6044POPC   C3B76857  38.120  18.426   7.065
 6044POPC   C4B76858  37.958  18.534   7.463
 6045POPC   NC376859  28.843  29.014   5.503
 6045POPC   PO476860  28.318  29.265   5.138
 6045POPC   GL176861  28.196  28.996   5.568
 6045POPC   GL276862  28.468  28.946   5.815
 6045POPC   C1A76863  28.052  28.951   6.068
 6045POPC   D2A76864  28.065  29.231   6.467
 6045POPC   C3A76865  28.202  29.184   6.926
 6045POPC   C4A76866  28.079  29.489   7.238
 6045POPC   C1B76867  28.503  29.227   6.180
 6045POPC   C2B76868  28.614  29.210   6.614
 6045POPC   C3B76869  28.750  29.153   7.047
 6045POPC   C4B76870  28.615  29.007   7.434
 6046POPC   NC376871  25.739  32.706   5.527
 6046POPC   PO476872  25.132  32.304   5.337
 6046POPC   GL176873  25.268  32.408   5.748
 6046POPC   GL276874  25.341  32.059   5.874
 6046POPC   C1A76875  25.273  32.541   6.183
 6046POPC   D2A76876  25.149  32.379   6.586
 6046POPC   C3A76877  25.292  32.517   6.980
 6046POPC   C4A76878  25.198  32.428   7.402
 6046POPC   C1B76879  25.517  32.116   6.302
 6046POPC   C2B76880  25.597  32.162   6.751
 6046POPC   C3B76881  25.484  32.068   7.180
 6046POPC   C4B76882  25.464  32.088   7.675
 6047POPC   NC376883  10.552   7.612   5.235
 6047POPC   PO476884  10.877   7.034   5.497
 6047POPC   GL176885  10.812   7.231   5.925
 6047POPC   GL276886  10.586   7.524   5.889
 6047POPC   C1A76887  10.589   7.260   6.331
 6047POPC   D2A76888  10.480   7.509   6.699
 6047POPC   C3A76889  10.630   7.221   6.970
 6047POPC   C4A76890  10.442   6.910   7.162
 6047POPC   C1B76891  10.424   7.775   6.252
 6047POPC   C2B76892  10.203   7.997   6.599
 6047POPC   C3B76893  10.163   7.831   7.013
 6047POPC   C4B76894  10.390   7.539   7.268
 6048POPC   NC376895   9.397   5.762   5.309
 6048POPC   PO476896   8.771   5.991   5.336
 6048POPC   GL176897   9.048   5.819   5.688
 6048POPC   GL276898   9.263   6.092   5.784
 6048POPC   C1A76899   9.170   5.686   6.142
 6048POPC   D2A76900   9.135   5.498   6.590
 6048POPC   C3A76901   8.753   5.594   6.868
 6048POPC   C4A76902   8.848   5.713   7.298
 6048POPC   C1B76903   8.992   6.168   6.120
 6048POPC   C2B76904   8.961   5.982   6.543
 6048POPC   C3B76905   9.178   5.885   6.939
 6048POPC   C4B76906   9.299   6.169   7.265
 6049POPC   NC376907   1.291  30.402   5.073
 6049POPC   PO476908   1.271  30.992   5.503
 6049POPC   GL176909   1.226  30.559   5.675
 6049POPC   GL276910   0.888  30.513   5.776
 6049POPC   C1A76911   1.308  30.401   6.126
 6049POPC   D2A76912   1.592  30.507   6.504
 6049POPC   C3A76913   1.449  30.593   6.934
 6049POPC   C4A76914   1.251  30.661   7.350
 6049POPC   C1B76915   0.888  30.740   6.160
 6049POPC   C2B76916   1.081  30.651   6.559
 6049POPC   C3B76917   0.947  30.812   6.967
 6049POPC   C4B76918   0.945  31.114   7.334
 6050POPC   NC376919  41.427  36.986   5.305
 6050POPC   PO476920  41.798  36.534   5.493
 6050POPC   GL176921  41.581  36.847   5.758
 6050POPC   GL276922  41.860  37.064   5.867
 6050POPC   C1A76923  41.464  37.062   6.170
 6050POPC   D2A76924  41.165  37.231   6.479
 6050POPC   C3A76925  41.243  37.023   6.866
 6050POPC   C4A76926  41.413  37.068   7.277
 6050POPC   C1B76927  41.824  36.671   6.140
 6050POPC   C2B76928  41.576  36.680   6.519
 6050POPC   C3B76929  41.684  36.796   6.915
 6050POPC   C4B76930  41.772  36.654   7.291
 6051POPC   NC376931  31.431  41.413   5.335
 6051POPC   PO476932  31.517  42.062   5.340
 6051POPC   GL176933  31.281  41.860   5.748
 6051POPC   GL276934  31.275  41.485   5.846
 6051POPC   C1A76935  31.459  41.755   6.203
 6051POPC   D2A76936  31.628  41.415   6.467
 6051POPC   C3A76937  31.587  41.477   6.906
 6051POPC   C4A76938  31.515  41.451   7.346
 6051POPC   C1B76939  31.055  41.424   6.255
 6051POPC   C2B76940  31.154  41.322   6.664
 6051POPC   C3B76941  31.083  41.236   7.074
 6051POPC   C4B76942  31.045  41.380   7.468
 6052POPC   NC376943  14.416   6.761   5.399
 6052POPC   PO476944  14.804   6.260   5.440
 6052POPC   GL176945  14.578   6.322   5.853
 6052POPC   GL276946  14.317   6.588   5.861
 6052POPC   C1A76947  14.577   6.521   6.285
 6052POPC   D2A76948  14.282   6.687   6.597
 6052POPC   C3A76949  14.306   6.458   6.989
 6052POPC   C4A76950  14.730   6.389   7.154
 6052POPC   C1B76951  14.111   6.914   6.145
 6052POPC   C2B76952  14.088   7.170   6.531
 6052POPC   C3B76953  14.137   7.024   6.967
 6052POPC   C4B76954  13.996   6.743   7.294
 6053POPC   NC376955   3.777  11.685   5.560
 6053POPC   PO476956   3.411  12.166   5.187
 6053POPC   GL176957   3.374  12.079   5.643
 6053POPC   GL276958   3.698  12.174   5.783
 6053POPC   C1A76959   3.274  12.074   6.115
 6053POPC   D2A76960   3.461  12.093   6.550
 6053POPC   C3A76961   3.290  12.059   6.954
 6053POPC   C4A76962   3.443  12.368   7.218
 6053POPC   C1B76963   3.791  11.963   6.185
 6053POPC   C2B76964   3.907  11.834   6.626
 6053POPC   C3B76965   3.759  11.802   7.032
 6053POPC   C4B76966   3.638  11.918   7.451
 6054POPC   NC376967  17.046  39.985   5.334
 6054POPC   PO476968  16.415  39.926   5.447
 6054POPC   GL176969  16.699  39.864   5.787
 6054POPC   GL276970  16.799  40.228   5.715
 6054POPC   C1A76971  16.684  39.767   6.281
 6054POPC   D2A76972  16.400  39.884   6.629
 6054POPC   C3A76973  16.509  40.150   6.959
 6054POPC   C4A76974  16.455  40.006   7.350
 6054POPC   C1B76975  16.964  40.141   6.111
 6054POPC   C2B76976  16.827  40.228   6.552
 6054POPC   C3B76977  16.997  40.369   6.964
 6054POPC   C4B76978  16.780  40.391   7.381
 6055POPC   NC376979  44.062  44.360   5.228
 6055POPC   PO476980  43.595  44.800   5.160
 6055POPC   GL176981  43.727  44.597   5.563
 6055POPC   GL276982  43.860  44.900   5.688
 6055POPC   C1A76983  43.848  44.488   6.020
 6055POPC   D2A76984  43.775  44.622   6.480
 6055POPC   C3A76985  43.856  44.475   6.914
 6055POPC   C4A76986  44.023  44.680   7.301
 6055POPC   C1B76987  43.785   0.003   6.125
 6055POPC   C2B76988  43.696   0.140   6.555
 6055POPC   C3B76989  43.911   0.022   6.930
 6055POPC   C4B76990  44.093   0.201   7.295
 6056POPC   NC376991  36.553   3.766   5.414
 6056POPC   PO476992  36.076   3.230   5.341
 6056POPC   GL176993  36.198   3.435   5.747
 6056POPC   GL276994  36.151   3.777   5.820
 6056POPC   C1A76995  36.314   3.403   6.233
 6056POPC   D2A76996  36.324   3.265   6.715
 6056POPC   C3A76997  36.236   3.561   7.016
 6056POPC   C4A76998  36.368   3.700   7.418
 6056POPC   C1B76999  35.835   3.577   6.115
 6056POPC   C2B77000  35.891   3.504   6.552
 6056POPC   C3B77001  35.748   3.523   6.965
 6056POPC   C4B77002  35.778   3.707   7.383
 6057POPC   NC377003  33.198   2.879   5.745
 6057POPC   PO477004  33.782   2.902   5.269
 6057POPC   GL177005  33.822   2.935   5.750
 6057POPC   GL277006  33.647   2.641   5.936
 6057POPC   C1A77007  34.063   2.829   6.161
 6057POPC   D2A77008  34.158   2.805   6.595
 6057POPC   C3A77009  33.905   3.084   6.836
 6057POPC   C4A77010  33.937   2.950   7.224
 6057POPC   C1B77011  33.537   2.550   6.366
 6057POPC   C2B77012  33.690   2.602   6.787
 6057POPC   C3B77013  34.059   2.497   7.043
 6057POPC   C4B77014  34.129   2.197   7.374
 6058POPC   NC377015   0.152  25.731   5.377
 6058POPC   PO477016   0.602  26.197   5.167
 6058POPC   GL177017   0.483  26.119   5.657
 6058POPC   GL277018   0.407  25.851   5.847
 6058POPC   C1A77019   0.452  26.368   6.071
 6058POPC   D2A77020   0.219  26.417   6.461
 6058POPC   C3A77021   0.449  26.215   6.810
 6058POPC   C4A77022   0.456  26.450   7.171
 6058POPC   C1B77023   0.084  26.013   6.103
 6058POPC   C2B77024  44.952  25.986   6.515
 6058POPC   C3B77025  44.944  26.219   6.864
 6058POPC   C4B77026   0.102  26.092   7.197
 6059POPC   NC377027  33.005   0.974   5.408
 6059POPC   PO477028  32.795   1.738   5.428
 6059POPC   GL177029  32.812   1.368   5.697
 6059POPC   GL277030  33.176   1.418   5.768
 6059POPC   C1A77031  32.849   1.166   6.130
 6059POPC   D2A77032  32.692   1.080   6.569
 6059POPC   C3A77033  32.793   1.419   6.856
 6059POPC   C4A77034  32.696   1.445   7.287
 6059POPC   C1B77035  33.373   1.287   6.184
 6059POPC   C2B77036  33.236   1.176   6.613
 6059POPC   C3B77037  33.129   1.086   7.040
 6059POPC   C4B77038  33.333   0.901   7.371
 6060POPC   NC377039   5.693  39.938   5.447
 6060POPC   PO477040   6.126  40.486   5.665
 6060POPC   GL177041   5.971  40.182   5.876
 6060POPC   GL277042   5.649  40.184   5.869
 6060POPC   C1A77043   5.872  39.985   6.296
 6060POPC   D2A77044   6.057  39.864   6.686
 6060POPC   C3A77045   6.015  40.230   6.950
 6060POPC   C4A77046   5.801  40.205   7.337
 6060POPC   C1B77047   5.384  40.112   6.170
 6060POPC   C2B77048   5.433  39.948   6.548
 6060POPC   C3B77049   5.594  39.986   6.889
 6060POPC   C4B77050   5.758  39.734   7.161
 6061POPC   NC377051  30.689   6.519   5.224
 6061POPC   PO477052  30.899   7.063   5.565
 6061POPC   GL177053  30.616   6.835   5.818
 6061POPC   GL277054  30.772   6.525   5.791
 6061POPC   C1A77055  30.589   6.650   6.270
 6061POPC   D2A77056  30.733   6.525   6.724
 6061POPC   C3A77057  30.545   6.741   7.123
 6061POPC   C4A77058  30.232   6.790   7.500
 6061POPC   C1B77059  31.090   6.448   6.145
 6061POPC   C2B77060  31.195   6.298   6.568
 6061POPC   C3B77061  31.244   6.508   6.945
 6061POPC   C4B77062  31.009   6.606   7.273
 6062POPC   NC377063   1.289  37.709   5.387
 6062POPC   PO477064   0.877  38.198   5.300
 6062POPC   GL177065   0.950  37.947   5.717
 6062POPC   GL277066   0.771  38.029   6.046
 6062POPC   C1A77067   1.110  37.656   6.072
 6062POPC   D2A77068   0.924  37.665   6.485
 6062POPC   C3A77069   1.208  37.560   6.784
 6062POPC   C4A77070   1.345  37.438   7.187
 6062POPC   C1B77071   1.185  38.080   6.347
 6062POPC   C2B77072   1.250  38.085   6.794
 6062POPC   C3B77073   1.110  37.873   7.159
 6062POPC   C4B77074   1.049  37.971   7.592
 6063POPC   NC377075  42.015   5.572   5.432
 6063POPC   PO477076  42.372   4.977   5.395
 6063POPC   GL177077  42.365   4.928   5.823
 6063POPC   GL277078  42.141   5.203   5.809
 6063POPC   C1A77079  42.488   4.839   6.269
 6063POPC   D2A77080  42.419   5.005   6.698
 6063POPC   C3A77081  42.744   4.937   7.010
 6063POPC   C4A77082  42.622   4.816   7.458
 6063POPC   C1B77083  42.031   5.070   6.200
 6063POPC   C2B77084  42.017   5.289   6.560
 6063POPC   C3B77085  41.969   5.188   6.948
 6063POPC   C4B77086  42.283   5.099   7.194
 6064POPC   NC377087  16.908  31.271   5.516
 6064POPC   PO477088  16.406  31.621   5.582
 6064POPC   GL177089  16.647  31.779   5.936
 6064POPC   GL277090  16.466  32.044   6.080
 6064POPC   C1A77091  16.798  31.570   6.334
 6064POPC   D2A77092  16.679  31.209   6.657
 6064POPC   C3A77093  16.871  31.167   7.099
 6064POPC   C4A77094  17.259  31.182   7.407
 6064POPC   C1B77095  16.557  31.972   6.524
 6064POPC   C2B77096  16.795  31.684   6.827
 6064POPC   C3B77097  16.830  31.671   7.235
 6064POPC   C4B77098  17.118  31.654   7.513
 6065POPC   NC377099  40.808  38.229   5.344
 6065POPC   PO477100  40.874  38.793   5.476
 6065POPC   GL177101  40.857  38.484   5.801
 6065POPC   GL277102  40.544  38.612   5.821
 6065POPC   C1A77103  40.880  38.473   6.271
 6065POPC   D2A77104  41.037  38.545   6.689
 6065POPC   C3A77105  40.907  38.340   7.043
 6065POPC   C4A77106  41.088  38.183   7.410
 6065POPC   C1B77107  40.376  38.537   6.170
 6065POPC   C2B77108  40.475  38.720   6.542
 6065POPC   C3B77109  40.374  38.704   6.938
 6065POPC   C4B77110  40.437  38.507   7.297
 6066POPC   NC377111  19.786  33.325   5.478
 6066POPC   PO477112  19.659  32.706   5.584
 6066POPC   GL177113  19.755  33.075   5.910
 6066POPC   GL277114  19.551  33.494   5.882
 6066POPC   C1A77115  19.834  33.020   6.362
 6066POPC   D2A77116  19.677  33.186   6.754
 6066POPC   C3A77117  19.637  32.820   7.025
 6066POPC   C4A77118  20.045  32.743   7.201
 6066POPC   C1B77119  19.842  33.511   6.219
 6066POPC   C2B77120  20.062  33.543   6.626
 6066POPC   C3B77121  19.976  33.489   7.071
 6066POPC   C4B77122  19.632  33.315   7.319
 6067POPC   NC377123  29.279  42.135   5.356
 6067POPC   PO477124  28.931  42.651   5.286
 6067POPC   GL177125  29.045  42.483   5.690
 6067POPC   GL277126  28.815  42.679   5.898
 6067POPC   C1A77127  28.904  42.175   6.018
 6067POPC   D2A77128  28.908  42.051   6.469
 6067POPC   C3A77129  29.168  42.322   6.752
 6067POPC   C4A77130  29.193  42.363   7.218
 6067POPC   C1B77131  29.082  42.605   6.265
 6067POPC   C2B77132  29.123  42.819   6.658
 6067POPC   C3B77133  28.925  42.731   7.029
 6067POPC   C4B77134  28.917  42.700   7.497
 6068POPC   NC377135   7.740  44.336   5.449
 6068POPC   PO477136   7.278  44.763   5.226
 6068POPC   GL177137   7.350  44.933   5.668
 6068POPC   GL277138   7.422  44.599   5.766
 6068POPC   C1A77139   7.564  44.953   6.108
 6068POPC   D2A77140   7.530  44.757   6.547
 6068POPC   C3A77141   7.622   0.008   6.887
 6068POPC   C4A77142   7.448   0.078   7.265
 6068POPC   C1B77143   7.577  44.447   6.158
 6068POPC   C2B77144   7.651  44.263   6.571
 6068POPC   C3B77145   7.515  44.387   6.972
 6068POPC   C4B77146   7.644  44.598   7.331
 6069POPC   NC377147  19.422  19.250   5.499
 6069POPC   PO477148  18.848  19.023   5.410
 6069POPC   GL177149  19.105  18.974   5.801
 6069POPC   GL277150  19.113  19.309   5.915
 6069POPC   C1A77151  19.389  18.965   6.174
 6069POPC   D2A77152  19.253  18.861   6.613
 6069POPC   C3A77153  19.504  18.715   6.970
 6069POPC   C4A77154  19.396  18.714   7.410
 6069POPC   C1B77155  18.900  19.114   6.288
 6069POPC   C2B77156  18.741  19.350   6.668
 6069POPC   C3B77157  18.774  19.252   7.109
 6069POPC   C4B77158  18.680  18.856   7.231
 6070POPC   NC377159  32.608  19.378   5.341
 6070POPC   PO477160  32.159  18.857   5.545
 6070POPC   GL177161  32.269  18.814   5.930
 6070POPC   GL277162  32.567  19.019   5.917
 6070POPC   C1A77163  32.160  18.948   6.357
 6070POPC   D2A77164  32.231  19.266   6.674
 6070POPC   C3A77165  32.122  19.123   7.094
 6070POPC   C4A77166  32.035  18.748   7.346
 6070POPC   C1B77167  32.641  18.809   6.267
 6070POPC   C2B77168  32.682  18.975   6.626
 6070POPC   C3B77169  32.632  19.178   6.977
 6070POPC   C4B77170  32.553  18.958   7.316
 6071POPC   NC377171  13.804  30.104   5.382
 6071POPC   PO477172  13.117  29.909   5.315
 6071POPC   GL177173  13.406  29.997   5.697
 6071POPC   GL277174  13.650  29.742   5.736
 6071POPC   C1A77175  13.351  29.949   6.169
 6071POPC   D2A77176  13.529  29.769   6.563
 6071POPC   C3A77177  13.492  30.009   6.959
 6071POPC   C4A77178  13.421  30.044   7.402
 6071POPC   C1B77179  13.866  29.723   6.138
 6071POPC   C2B77180  14.031  29.903   6.519
 6071POPC   C3B77181  13.931  29.715   6.916
 6071POPC   C4B77182  13.897  29.911   7.283
 6072POPC   NC377183  24.084  29.388   5.531
 6072POPC   PO477184  24.077  30.065   5.267
 6072POPC   GL177185  23.911  30.015   5.704
 6072POPC   GL277186  23.680  29.723   5.798
 6072POPC   C1A77187  23.710  30.173   6.095
 6072POPC   D2A77188  23.595  30.112   6.550
 6072POPC   C3A77189  23.750  29.854   6.903
 6072POPC   C4A77190  23.845  30.050   7.302
 6072POPC   C1B77191  23.675  29.627   6.265
 6072POPC   C2B77192  23.352  29.611   6.623
 6072POPC   C3B77193  23.270  29.696   7.058
 6072POPC   C4B77194  23.471  29.713   7.465
 6073POPC   NC377195  39.158  39.446   5.314
 6073POPC   PO477196  39.266  38.844   5.460
 6073POPC   GL177197  39.408  38.977   5.861
 6073POPC   GL277198  39.424  39.339   5.918
 6073POPC   C1A77199  39.469  39.005   6.315
 6073POPC   D2A77200  39.494  39.013   6.746
 6073POPC   C3A77201  39.089  39.020   6.981
 6073POPC   C4A77202  38.970  39.312   7.271
 6073POPC   C1B77203  39.517  39.608   6.276
 6073POPC   C2B77204  39.504  39.535   6.718
 6073POPC   C3B77205  39.474  39.362   7.116
 6073POPC   C4B77206  39.525  39.593   7.408
 6074POPC   NC377207  30.663  39.344   5.372
 6074POPC   PO477208  30.492  38.742   5.554
 6074POPC   GL177209  30.794  39.036   5.789
 6074POPC   GL277210  30.955  39.396   5.783
 6074POPC   C1A77211  30.710  39.218   6.193
 6074POPC   D2A77212  30.701  38.976   6.550
 6074POPC   C3A77213  30.671  39.277   6.885
 6074POPC   C4A77214  30.345  39.404   7.172
 6074POPC   C1B77215  31.059  39.669   6.133
 6074POPC   C2B77216  30.928  39.759   6.543
 6074POPC   C3B77217  30.873  39.753   6.971
 6074POPC   C4B77218  30.814  39.542   7.329
 6075POPC   NC377219  18.090  17.084   5.597
 6075POPC   PO477220  18.258  16.415   5.373
 6075POPC   GL177221  18.499  16.565   5.714
 6075POPC   GL277222  18.218  16.709   5.937
 6075POPC   C1A77223  18.568  16.409   6.133
 6075POPC   D2A77224  18.314  16.583   6.451
 6075POPC   C3A77225  18.173  16.458   6.824
 6075POPC   C4A77226  18.245  16.517   7.222
 6075POPC   C1B77227  18.093  17.022   6.285
 6075POPC   C2B77228  18.130  16.984   6.760
 6075POPC   C3B77229  18.094  16.987   7.210
 6075POPC   C4B77230  18.076  17.157   7.637
 6076POPC   NC377231  12.789  21.773   5.242
 6076POPC   PO477232  12.827  22.422   5.487
 6076POPC   GL177233  12.774  22.157   5.822
 6076POPC   GL277234  12.877  21.791   5.760
 6076POPC   C1A77235  12.664  22.316   6.233
 6076POPC   D2A77236  12.869  22.213   6.609
 6076POPC   C3A77237  12.635  22.038   6.889
 6076POPC   C4A77238  12.649  22.235   7.289
 6076POPC   C1B77239  12.974  21.892   6.205
 6076POPC   C2B77240  13.296  21.939   6.507
 6076POPC   C3B77241  13.254  21.921   6.961
 6076POPC   C4B77242  12.898  21.750   7.211
 6077POPC   NC377243  25.581  27.693   5.556
 6077POPC   PO477244  24.919  27.418   5.297
 6077POPC   GL177245  25.067  27.556   5.725
 6077POPC   GL277246  25.369  27.351   5.890
 6077POPC   C1A77247  25.033  27.587   6.188
 6077POPC   D2A77248  24.957  27.604   6.620
 6077POPC   C3A77249  25.251  27.792   6.883
 6077POPC   C4A77250  25.223  27.649   7.294
 6077POPC   C1B77251  25.520  27.461   6.324
 6077POPC   C2B77252  25.480  27.354   6.758
 6077POPC   C3B77253  25.571  27.281   7.185
 6077POPC   C4B77254  25.704  27.401   7.605
 6078POPC   NC377255   9.901   3.510   5.651
 6078POPC   PO477256   9.425   3.832   5.298
 6078POPC   GL177257   9.490   3.792   5.827
 6078POPC   GL277258   9.552   3.446   5.999
 6078POPC   C1A77259   9.767   3.801   6.259
 6078POPC   D2A77260   9.935   3.589   6.654
 6078POPC   C3A77261   9.589   3.542   6.885
 6078POPC   C4A77262   9.503   3.688   7.278
 6078POPC   C1B77263   9.735   3.267   6.314
 6078POPC   C2B77264   9.687   3.057   6.675
 6078POPC   C3B77265   9.816   3.133   7.065
 6078POPC   C4B77266   9.991   3.434   7.296
 6079POPC   NC377267  32.543  17.463   5.231
 6079POPC   PO477268  32.055  17.862   5.549
 6079POPC   GL177269  32.140  17.723   5.951
 6079POPC   GL277270  32.120  17.378   6.033
 6079POPC   C1A77271  32.235  17.747   6.379
 6079POPC   D2A77272  32.530  17.438   6.554
 6079POPC   C3A77273  32.522  17.364   6.971
 6079POPC   C4A77274  32.592  17.390   7.402
 6079POPC   C1B77275  32.061  17.273   6.457
 6079POPC   C2B77276  32.055  17.530   6.815
 6079POPC   C3B77277  32.115  17.549   7.249
 6079POPC   C4B77278  32.135  17.271   7.606
 6080POPC   NC377279  40.274  11.112   5.111
 6080POPC   PO477280  40.114  10.510   5.354
 6080POPC   GL177281  39.930  10.452   5.755
 6080POPC   GL277282  40.162  10.720   5.861
 6080POPC   C1A77283  39.773  10.541   6.175
 6080POPC   D2A77284  39.994  10.756   6.496
 6080POPC   C3A77285  40.016  10.543   6.906
 6080POPC   C4A77286  39.966  10.720   7.337
 6080POPC   C1B77287  40.425  10.872   6.188
 6080POPC   C2B77288  40.492  10.690   6.587
 6080POPC   C3B77289  40.393  10.867   7.000
 6080POPC   C4B77290  40.289  11.145   7.337
 6081POPC   NC377291  40.672   0.810   5.437
 6081POPC   PO477292  40.894   0.213   5.317
 6081POPC   GL177293  40.583   0.393   5.725
 6081POPC   GL277294  40.457   0.771   5.882
 6081POPC   C1A77295  40.586   0.401   6.216
 6081POPC   D2A77296  40.825   0.586   6.601
 6081POPC   C3A77297  40.868   0.275   6.944
 6081POPC   C4A77298  40.681   0.164   7.336
 6081POPC   C1B77299  40.372   0.854   6.303
 6081POPC   C2B77300  40.314   0.567   6.642
 6081POPC   C3B77301  40.482   0.609   7.035
 6081POPC   C4B77302  40.352   1.016   7.093
 6082POPC   NC377303  41.664   2.330   5.504
 6082POPC   PO477304  41.530   1.798   5.151
 6082POPC   GL177305  41.551   1.889   5.708
 6082POPC   GL277306  41.876   1.965   5.856
 6082POPC   C1A77307  41.543   1.741   6.180
 6082POPC   D2A77308  41.751   1.874   6.564
 6082POPC   C3A77309  41.467   1.847   6.901
 6082POPC   C4A77310  41.568   1.803   7.317
 6082POPC   C1B77311  41.626   2.246   6.166
 6082POPC   C2B77312  41.497   2.328   6.597
 6082POPC   C3B77313  41.757   2.275   6.966
 6082POPC   C4B77314  41.682   2.485   7.341
 6083POPC   NC377315  36.187   7.848   5.170
 6083POPC   PO477316  35.916   8.361   5.217
 6083POPC   GL177317  36.089   8.140   5.672
 6083POPC   GL277318  36.325   8.289   5.869
 6083POPC   C1A77319  35.944   8.087   6.128
 6083POPC   D2A77320  36.157   8.273   6.489
 6083POPC   C3A77321  35.951   8.350   6.912
 6083POPC   C4A77322  35.838   8.085   7.265
 6083POPC   C1B77323  36.447   7.960   6.120
 6083POPC   C2B77324  36.395   7.808   6.545
 6083POPC   C3B77325  36.407   8.094   6.887
 6083POPC   C4B77326  36.573   8.127   7.258
 6084POPC   NC377327  34.455  30.761   5.197
 6084POPC   PO477328  35.008  30.611   5.573
 6084POPC   GL177329  34.672  30.547   5.799
 6084POPC   GL277330  34.364  30.719   5.712
 6084POPC   C1A77331  34.783  30.549   6.202
 6084POPC   D2A77332  34.725  30.416   6.577
 6084POPC   C3A77333  34.936  30.610   6.890
 6084POPC   C4A77334  34.849  30.552   7.289
 6084POPC   C1B77335  34.254  30.607   6.157
 6084POPC   C2B77336  34.220  30.402   6.579
 6084POPC   C3B77337  34.398  30.494   6.985
 6084POPC   C4B77338  34.180  30.775   7.209
 6085POPC   NC377339  44.877  30.459   5.581
 6085POPC   PO477340  44.417  30.881   5.271
 6085POPC   GL177341  44.577  30.868   5.721
 6085POPC   GL277342  44.932  30.953   5.789
 6085POPC   C1A77343  44.554  30.695   6.154
 6085POPC   D2A77344  44.821  30.448   6.431
 6085POPC   C3A77345  44.576  30.372   6.807
 6085POPC   C4A77346  44.573  30.678   7.141
 6085POPC   C1B77347  44.985  30.934   6.233
 6085POPC   C2B77348  44.735  30.932   6.621
 6085POPC   C3B77349  44.973  30.983   6.987
 6085POPC   C4B77350  44.974  31.068   7.402
 6086POPC   NC377351  30.160  42.151   5.500
 6086POPC   PO477352  29.599  42.480   5.362
 6086POPC   GL177353  29.684  42.163   5.715
 6086POPC   GL277354  29.384  42.083   5.853
 6086POPC   C1A77355  29.867  42.162   6.163
 6086POPC   D2A77356  30.090  42.410   6.494
 6086POPC   C3A77357  30.043  42.388   6.949
 6086POPC   C4A77358  30.198  42.647   7.288
 6086POPC   C1B77359  29.372  42.132   6.284
 6086POPC   C2B77360  29.630  42.015   6.621
 6086POPC   C3B77361  29.585  42.131   7.030
 6086POPC   C4B77362  29.682  42.448   7.326
 6087POPC   NC377363  40.222  28.901   5.487
 6087POPC   PO477364  39.635  29.152   5.548
 6087POPC   GL177365  39.888  29.034   5.869
 6087POPC   GL277366  40.108  29.313   5.787
 6087POPC   C1A77367  39.769  29.088   6.300
 6087POPC   D2A77368  39.528  29.105   6.667
 6087POPC   C3A77369  39.819  28.916   6.916
 6087POPC   C4A77370  40.062  28.815   7.253
 6087POPC   C1B77371  40.251  29.283   6.200
 6087POPC   C2B77372  40.220  29.040   6.568
 6087POPC   C3B77373  40.396  29.060   6.930
 6087POPC   C4B77374  40.356  29.199   7.333
 6088POPC   NC377375  20.340  42.157   5.369
 6088POPC   PO477376  20.733  42.682   5.384
 6088POPC   GL177377  20.536  42.484   5.733
 6088POPC   GL277378  20.796  42.499   5.973
 6088POPC   C1A77379  20.354  42.217   6.063
 6088POPC   D2A77380  20.255  42.114   6.477
 6088POPC   C3A77381  20.280  42.461   6.774
 6088POPC   C4A77382  20.425  42.358   7.159
 6088POPC   C1B77383  21.132  42.541   6.280
 6088POPC   C2B77384  21.064  42.657   6.744
 6088POPC   C3B77385  20.950  42.331   7.084
 6088POPC   C4B77386  21.122  42.077   7.456
 6089POPC   NC377387  42.323  21.165   5.362
 6089POPC   PO477388  42.672  21.771   5.460
 6089POPC   GL177389  42.474  21.453   5.772
 6089POPC   GL277390  42.096  21.411   5.730
 6089POPC   C1A77391  42.560  21.439   6.246
 6089POPC   D2A77392  42.562  21.295   6.669
 6089POPC   C3A77393  42.464  21.602   6.995
 6089POPC   C4A77394  42.535  21.623   7.461
 6089POPC   C1B77395  42.096  21.199   6.106
 6089POPC   C2B77396  42.067  21.328   6.503
 6089POPC   C3B77397  42.118  21.214   6.931
 6089POPC   C4B77398  42.072  21.494   7.285
 6090POPC   NC377399  30.618   4.809   5.555
 6090POPC   PO477400  30.943   5.381   5.402
 6090POPC   GL177401  30.722   5.292   5.799
 6090POPC   GL277402  30.886   5.020   5.925
 6090POPC   C1A77403  30.524   5.181   6.231
 6090POPC   D2A77404  30.676   4.997   6.600
 6090POPC   C3A77405  30.530   5.140   6.976
 6090POPC   C4A77406  30.373   4.844   7.269
 6090POPC   C1B77407  31.063   5.205   6.295
 6090POPC   C2B77408  31.175   5.149   6.723
 6090POPC   C3B77409  31.035   5.019   7.112
 6090POPC   C4B77410  31.148   5.217   7.475
 6091POPC   NC377411  20.555  25.406   5.083
 6091POPC   PO477412  21.089  25.025   5.079
 6091POPC   GL177413  20.789  25.198   5.501
 6091POPC   GL277414  20.624  25.068   5.779
 6091POPC   C1A77415  20.793  25.479   5.960
 6091POPC   D2A77416  20.738  25.482   6.434
 6091POPC   C3A77417  20.432  25.312   6.747
 6091POPC   C4A77418  20.550  25.334   7.209
 6091POPC   C1B77419  20.472  24.897   6.164
 6091POPC   C2B77420  20.628  24.827   6.549
 6091POPC   C3B77421  20.677  24.907   6.958
 6091POPC   C4B77422  20.616  24.861   7.376
 6092POPC   NC377423  38.049   7.697   5.552
 6092POPC   PO477424  38.642   7.395   5.400
 6092POPC   GL177425  38.456   7.445   5.797
 6092POPC   GL277426  38.478   7.831   5.777
 6092POPC   C1A77427  38.407   7.212   6.213
 6092POPC   D2A77428  38.575   6.998   6.589
 6092POPC   C3A77429  38.572   7.227   6.986
 6092POPC   C4A77430  38.399   7.249   7.419
 6092POPC   C1B77431  38.319   7.742   6.189
 6092POPC   C2B77432  38.401   7.579   6.579
 6092POPC   C3B77433  38.541   7.744   6.937
 6092POPC   C4B77434  38.692   7.647   7.286
 6093POPC   NC377435  42.668  20.802   5.076
 6093POPC   PO477436  42.364  20.249   5.316
 6093POPC   GL177437  42.421  20.558   5.673
 6093POPC   GL277438  42.222  20.850   5.748
 6093POPC   C1A77439  42.323  20.537   6.148
 6093POPC   D2A77440  42.278  20.849   6.498
 6093POPC   C3A77441  42.266  20.688   6.904
 6093POPC   C4A77442  42.225  20.541   7.299
 6093POPC   C1B77443  42.558  20.979   6.033
 6093POPC   C2B77444  42.777  20.864   6.407
 6093POPC   C3B77445  42.747  20.861   6.861
 6093POPC   C4B77446  42.490  21.011   7.252
 6094POPC   NC377447  26.394  29.693   5.480
 6094POPC   PO477448  25.839  29.957   5.161
 6094POPC   GL177449  25.965  29.970   5.593
 6094POPC   GL277450  25.774  29.734   5.782
 6094POPC   C1A77451  26.078  30.088   6.024
 6094POPC   D2A77452  26.137  29.847   6.432
 6094POPC   C3A77453  26.285  29.988   6.847
 6094POPC   C4A77454  26.249  29.802   7.277
 6094POPC   C1B77455  25.655  29.841   6.187
 6094POPC   C2B77456  25.648  29.728   6.589
 6094POPC   C3B77457  25.912  29.615   6.902
 6094POPC   C4B77458  25.749  29.767   7.276
 6095POPC   NC377459  10.095  43.385   4.974
 6095POPC   PO477460  10.308  43.015   5.552
 6095POPC   GL177461   9.904  43.033   5.785
 6095POPC   GL277462   9.851  42.714   5.848
 6095POPC   C1A77463   9.584  42.996   6.163
 6095POPC   D2A77464   9.467  43.199   6.542
 6095POPC   C3A77465   9.342  43.111   6.947
 6095POPC   C4A77466   9.446  42.910   7.343
 6095POPC   C1B77467  10.072  42.891   6.256
 6095POPC   C2B77468   9.988  43.196   6.620
 6095POPC   C3B77469   9.835  43.041   7.014
 6095POPC   C4B77470   9.900  42.607   7.155
 6096POPC   NC377471  26.756  15.824   5.059
 6096POPC   PO477472  27.155  16.090   5.549
 6096POPC   GL177473  26.943  16.219   5.900
 6096POPC   GL277474  26.887  15.869   5.957
 6096POPC   C1A77475  26.646  16.161   6.277
 6096POPC   D2A77476  26.664  15.781   6.533
 6096POPC   C3A77477  26.755  15.907   6.943
 6096POPC   C4A77478  26.577  15.882   7.314
 6096POPC   C1B77479  27.099  15.660   6.259
 6096POPC   C2B77480  27.165  15.735   6.672
 6096POPC   C3B77481  27.081  15.513   7.032
 6096POPC   C4B77482  27.041  15.683   7.423
 6097POPC   NC377483  25.605   5.067   5.345
 6097POPC   PO477484  25.140   5.507   5.206
 6097POPC   GL177485  25.254   5.207   5.687
 6097POPC   GL277486  25.449   4.912   5.782
 6097POPC   C1A77487  25.276   5.150   6.184
 6097POPC   D2A77488  25.030   5.042   6.569
 6097POPC   C3A77489  25.256   5.012   6.935
 6097POPC   C4A77490  25.313   5.404   7.085
 6097POPC   C1B77491  25.557   4.682   6.120
 6097POPC   C2B77492  25.397   4.679   6.511
 6097POPC   C3B77493  25.582   4.617   6.890
 6097POPC   C4B77494  25.380   4.644   7.293
 6098POPC   NC377495  18.288  12.380   5.615
 6098POPC   PO477496  18.751  11.848   5.492
 6098POPC   GL177497  18.538  12.034   5.910
 6098POPC   GL277498  18.578  12.416   6.002
 6098POPC   C1A77499  18.334  12.179   6.343
 6098POPC   D2A77500  17.964  12.043   6.553
 6098POPC   C3A77501  18.095  11.867   6.888
 6098POPC   C4A77502  18.202  12.021   7.238
 6098POPC   C1B77503  18.830  12.578   6.252
 6098POPC   C2B77504  18.639  12.518   6.599
 6098POPC   C3B77505  18.416  12.298   6.847
 6098POPC   C4B77506  18.383  12.517   7.237
 6099POPC   NC377507  38.726   1.372   5.576
 6099POPC   PO477508  39.415   1.407   5.479
 6099POPC   GL177509  39.200   1.194   5.801
 6099POPC   GL277510  39.019   0.889   5.768
 6099POPC   C1A77511  39.119   1.296   6.237
 6099POPC   D2A77512  39.201   1.482   6.627
 6099POPC   C3A77513  39.306   1.238   6.970
 6099POPC   C4A77514  39.180   1.382   7.378
 6099POPC   C1B77515  38.799   0.913   6.182
 6099POPC   C2B77516  38.817   1.058   6.607
 6099POPC   C3B77517  38.814   1.112   7.049
 6099POPC   C4B77518  39.078   0.884   7.314
 6100POPC   NC377519  34.463  44.745   5.124
 6100POPC   PO477520  34.823  44.348   5.489
 6100POPC   GL177521  34.570  44.682   5.673
 6100POPC   GL277522  34.254  44.514   5.763
 6100POPC   C1A77523  34.600  44.929   6.084
 6100POPC   D2A77524  34.415   0.047   6.487
 6100POPC   C3A77525  34.552  44.831   6.901
 6100POPC   C4A77526  34.891  44.749   7.217
 6100POPC   C1B77527  34.495  44.442   6.147
 6100POPC   C2B77528  34.771  44.557   6.515
 6100POPC   C3B77529  34.775  44.342   6.936
 6100POPC   C4B77530  34.477  44.415   7.304
 6101POPC   NC377531  18.562   0.287   5.470
 6101POPC   PO477532  18.071   0.712   5.327
 6101POPC   GL177533  18.165   0.509   5.720
 6101POPC   GL277534  18.039   0.201   5.805
 6101POPC   C1A77535  18.305   0.549   6.151
 6101POPC   D2A77536  18.212   0.851   6.476
 6101POPC   C3A77537  18.225   0.659   6.874
 6101POPC   C4A77538  18.073   0.765   7.250
 6101POPC   C1B77539  18.151   0.055   6.212
 6101POPC   C2B77540  18.041   0.200   6.611
 6101POPC   C3B77541  17.878   0.284   7.004
 6101POPC   C4B77542  18.231   0.222   7.234
 6102POPC   NC377543   0.273  38.166   5.613
 6102POPC   PO477544   0.583  38.645   5.248
 6102POPC   GL177545   0.598  38.565   5.747
 6102POPC   GL277546   0.267  38.518   5.958
 6102POPC   C1A77547   0.647  38.691   6.222
 6102POPC   D2A77548   0.738  38.337   6.504
 6102POPC   C3A77549   0.455  38.392   6.822
 6102POPC   C4A77550   0.445  38.542   7.211
 6102POPC   C1B77551   0.297  38.180   6.301
 6102POPC   C2B77552   0.036  38.142   6.691
 6102POPC   C3B77553   0.148  38.106   7.144
 6102POPC   C4B77554   0.357  38.179   7.577
 6103POPC   NC377555  17.665  15.474   5.516
 6103POPC   PO477556  17.378  16.125   5.419
 6103POPC   GL177557  17.614  15.962   5.797
 6103POPC   GL277558  17.447  15.652   5.955
 6103POPC   C1A77559  17.485  16.112   6.231
 6103POPC   D2A77560  17.376  15.891   6.622
 6103POPC   C3A77561  17.386  16.149   6.999
 6103POPC   C4A77562  17.054  16.206   7.296
 6103POPC   C1B77563  17.816  15.710   6.217
 6103POPC   C2B77564  17.882  15.647   6.637
 6103POPC   C3B77565  17.588  15.576   6.997
 6103POPC   C4B77566  17.273  15.735   7.307
 6104POPC   NC377567  44.848   0.210   5.534
 6104POPC   PO477568   0.468   0.542   5.500
 6104POPC   GL177569   0.644   0.503   5.871
 6104POPC   GL277570   0.929   0.639   5.752
 6104POPC   C1A77571   0.485   0.354   6.279
 6104POPC   D2A77572   0.155   0.275   6.581
 6104POPC   C3A77573   0.344   0.402   6.955
 6104POPC   C4A77574   0.327   0.225   7.363
 6104POPC   C1B77575   0.966   0.828   6.142
 6104POPC   C2B77576   0.781   0.770   6.532
 6104POPC   C3B77577   0.920   0.674   6.923
 6104POPC   C4B77578   0.739   0.513   7.268
 6105POPC   NC377579   6.303  28.074   5.531
 6105POPC   PO477580   6.435  28.731   5.558
 6105POPC   GL177581   6.546  28.616   5.943
 6105POPC   GL277582   6.662  28.275   5.827
 6105POPC   C1A77583   6.868  28.443   6.240
 6105POPC   D2A77584   6.951  28.217   6.592
 6105POPC   C3A77585   6.848  28.411   6.978
 6105POPC   C4A77586   6.758  28.245   7.378
 6105POPC   C1B77587   6.393  28.256   6.236
 6105POPC   C2B77588   6.437  28.077   6.608
 6105POPC   C3B77589   6.358  28.250   6.988
 6105POPC   C4B77590   6.413  28.600   7.254
 6106POPC   NC377591  39.423  30.310   5.539
 6106POPC   PO477592  39.020  29.770   5.549
 6106POPC   GL177593  39.258  29.929   5.877
 6106POPC   GL277594  39.632  29.856   5.852
 6106POPC   C1A77595  39.114  29.929   6.291
 6106POPC   D2A77596  38.969  30.085   6.665
 6106POPC   C3A77597  39.095  29.861   7.004
 6106POPC   C4A77598  39.067  29.526   7.309
 6106POPC   C1B77599  39.592  30.128   6.215
 6106POPC   C2B77600  39.434  30.269   6.601
 6106POPC   C3B77601  39.482  30.217   7.029
 6106POPC   C4B77602  39.496  29.903   7.326
 6107POPC   NC377603  37.196   9.039   5.343
 6107POPC   PO477604  36.454   8.947   5.304
 6107POPC   GL177605  36.624   8.914   5.745
 6107POPC   GL277606  36.961   9.080   5.800
 6107POPC   C1A77607  36.655   8.988   6.207
 6107POPC   D2A77608  36.841   9.169   6.554
 6107POPC   C3A77609  36.748   8.990   6.935
 6107POPC   C4A77610  36.610   9.047   7.324
 6107POPC   C1B77611  37.150   8.796   6.137
 6107POPC   C2B77612  37.033   8.668   6.570
 6107POPC   C3B77613  37.226   8.817   6.962
 6107POPC   C4B77614  37.142   8.938   7.392
 6108POPC   NC377615  29.759  36.707   5.497
 6108POPC   PO477616  30.149  37.296   5.397
 6108POPC   GL177617  30.050  37.071   5.785
 6108POPC   GL277618  30.152  36.733   5.821
 6108POPC   C1A77619  29.978  37.166   6.247
 6108POPC   D2A77620  30.137  37.123   6.677
 6108POPC   C3A77621  29.985  36.991   7.134
 6108POPC   C4A77622  30.181  37.102   7.566
 6108POPC   C1B77623  29.967  36.680   6.219
 6108POPC   C2B77624  29.813  36.707   6.646
 6108POPC   C3B77625  29.494  36.772   6.965
 6108POPC   C4B77626  29.408  36.544   7.334
 6109POPC   NC377627   7.230  31.723   5.133
 6109POPC   PO477628   7.746  31.521   5.497
 6109POPC   GL177629   7.718  31.666   5.891
 6109POPC   GL277630   7.345  31.695   5.926
 6109POPC   C1A77631   7.707  31.627   6.303
 6109POPC   D2A77632   7.433  31.574   6.605
 6109POPC   C3A77633   7.648  31.533   6.957
 6109POPC   C4A77634   7.523  31.519   7.353
 6109POPC   C1B77635   7.217  31.338   6.170
 6109POPC   C2B77636   7.029  31.272   6.592
 6109POPC   C3B77637   7.116  31.416   7.030
 6109POPC   C4B77638   7.096  31.248   7.486
 6110W        W77639  43.774   0.030   3.388
 6111W        W77640  37.430  40.645  11.701
 6112W        W77641   4.423  20.638  14.017
 6113W        W77642   7.645  34.111  10.803
 6114W        W77643  26.373  43.771   4.287
 6115W        W77644  31.413   0.393  14.960
 6116W        W77645  30.874  11.268  14.344
 6117W        W77646   4.385  42.953  12.984
 6118W        W77647  14.798  22.502   0.294
 6119W        W77648  44.648  28.036   4.006
 6120W        W77649  38.749   7.579   4.900
 6121W        W77650  15.610   6.182  12.932
 6122W        W77651  19.760  22.565   2.640
 6123W        W77652  40.761  34.031  10.733
 6124W        W77653  21.867   0.146   0.311
 6125W        W77654  29.832  11.188   2.884
 6126W        W77655  33.536  43.776   4.169
 6127W        W77656  14.569  42.060   2.674
 6128W        W77657   3.445  20.721  13.057
 6129W        W77658  17.697  24.542   4.511
 6130W        W77659  25.079  44.286   3.574
 6131W        W77660  42.950  16.148   4.155
 6132W        W77661  11.868  28.491  12.032
 6133W        W77662  29.055  33.848  11.614
 6134W        W77663  26.830   9.269  11.990
 6135W        W77664  24.268   6.933  11.971
 6136W        W77665   6.223  19.741   1.198
 6137W        W77666  30.191  34.685   5.520
 6138W        W77667   3.923  29.789   2.179
 6139W        W77668   3.819  10.908   2.378
 6140W        W77669  43.404  14.027   9.867
 6141W        W77670   3.768  41.867   0.413
 6142W        W77671  13.887  42.252   1.671
 6143W        W77672  26.520   7.312  10.917
 6144W        W77673  44.331  10.402  14.369
 6145W        W77674  31.684   1.234   3.662
 6146W        W77675  19.689  25.618   0.138
 6147W        W77676  11.329  15.886   0.237
 6148W        W77677  39.025  43.263   0.766
 6149W        W77678  21.820  28.701   0.412
 6150W        W77679   3.069  35.943  13.198
 6151W        W77680  30.533  35.717   0.190
 6152W        W77681  27.671  28.743  11.220
 6153W        W77682   6.672  27.068  13.990
 6154W        W77683  34.130   2.459   0.396
 6155W        W77684   1.259  26.472  14.879
 6156W        W77685  26.051   6.244  10.690
 6157W        W77686  38.022  32.937   3.783
 6158W        W77687  33.058  40.522  10.745
 6159W        W77688  11.392  20.657  13.005
 6160W        W77689  22.514   9.869  11.555
 6161W        W77690  43.681  29.872  12.946
 6162W        W77691  18.163  13.380  11.606
 6163W        W77692  26.692  27.230   3.157
 6164W        W77693   8.107  10.263  10.815
 6165W        W77694   2.817   6.281  11.944
 6166W        W77695  39.288  40.971  14.413
 6167W        W77696   2.264  36.574   1.391
 6168W        W77697  22.783  24.151  11.604
 6169W        W77698  34.508  18.810   1.888
 6170W        W77699  34.052  27.563  10.326
 6171W        W77700  10.686  17.106  12.561
 6172W        W77701  19.645   2.865   0.176
 6173W        W77702   0.511   4.750   0.784
 6174W        W77703  34.195  32.998   0.916
 6175W        W77704  17.853   2.749  13.337
 6176W        W77705  23.142  14.715  11.473
 6177W        W77706  37.485  39.591  11.974
 6178W        W77707  37.481  20.085  11.151
 6179W        W77708   1.508   5.960   4.502
 6180W        W77709   9.842  38.584   3.141
 6181W        W77710  12.086   8.858   4.393
 6182W        W77711  32.270  35.970   2.851
 6183W        W77712  25.682   0.812  12.395
 6184W        W77713  14.695   4.353   4.513
 6185W        W77714  34.073  16.696  11.434
 6186W        W77715  40.612   6.251   0.920
 6187W        W77716  20.839  20.665  13.575
 6188W        W77717  25.090  25.240  13.324
 6189W        W77718  13.371  21.749   1.351
 6190W        W77719  38.122   9.700   2.329
 6191W        W77720  28.580   0.988  14.985
 6192W        W77721  23.676   3.726  13.762
 6193W        W77722  40.777  14.651  13.847
 6194W        W77723  20.841  22.761  13.883
 6195W        W77724  35.429  44.861   0.702
 6196W        W77725   1.939  10.278   2.557
 6197W        W77726  42.775   1.434  11.606
 6198W        W77727  12.144  20.802  11.026
 6199W        W77728  34.919   6.687   1.325
 6200W        W77729  25.438  42.837  13.025
 6201W        W77730  34.901  12.085  11.194
 6202W        W77731  33.434  33.584  14.929
 6203W        W77732   2.246  40.856   1.464
 6204W        W77733  40.026  27.305  12.989
 6205W        W77734  38.348  34.950  12.105
 6206W        W77735  38.100  42.260  11.947
 6207W        W77736   7.710   5.905  13.615
 6208W        W77737  34.493   0.491  10.457
 6209W        W77738  12.907  39.854   4.575
 6210W        W77739   0.480   9.642  14.457
 6211W        W77740  43.920   6.965   4.281
 6212W        W77741  36.022  23.248   4.095
 6213W        W77742  27.608  11.594  10.718
 6214W        W77743  30.423   6.242   0.927
 6215W        W77744  21.465   9.222  12.001
 6216W        W77745  33.520   2.458  11.518
 6217W        W77746  30.215  12.415   1.385
 6218W        W77747   1.954  12.722   3.810
 6219W        W77748  18.175  32.384  13.075
 6220W        W77749   0.567  15.849   0.374
 6221W        W77750  14.598  42.271  12.109
 6222W        W77751  36.411   1.120   4.827
 6223W        W77752  12.168  41.226   2.640
 6224W        W77753  40.386  32.187  12.388
 6225W        W77754  22.892   0.950   0.146
 6226W        W77755  20.050  30.662  11.978
 6227W        W77756  22.587  44.854  10.641
 6228W        W77757  16.770  44.959  11.977
 6229W        W77758   7.763  16.234  11.658
 6230W        W77759  22.663  20.150   4.469
 6231W        W77760  35.294  10.288  12.144
 6232W        W77761  39.609   0.912   2.565
 6233W        W77762  21.771   9.285  10.713
 6234W        W77763  19.968  12.755   5.054
 6235W        W77764  38.102  42.833  13.561
 6236W        W77765  25.577  26.523  14.390
 6237W        W77766  23.993   6.156  12.248
 6238W        W77767  14.782  36.002   1.467
 6239W        W77768  12.547  23.672  10.709
 6240W        W77769  28.112  12.313   0.408
 6241W        W77770   0.809  37.618   4.526
 6242W        W77771   2.090  25.693   2.401
 6243W        W77772  13.235  37.159  12.479
 6244W        W77773   1.670  18.686   2.157
 6245W        W77774   2.537  36.170  10.653
 6246W        W77775  31.504  36.382   2.614
 6247W        W77776  43.308   4.557   3.121
 6248W        W77777   3.849  39.131  11.881
 6249W        W77778   1.357   9.623  14.323
 6250W        W77779   0.852  36.563   1.488
 6251W        W77780  25.479  16.606   2.381
 6252W        W77781  21.098  10.315  13.872
 6253W        W77782  28.447   8.599  10.453
 6254W        W77783  41.135  21.937   0.728
 6255W        W77784  42.414  31.131   3.201
 6256W        W77785   3.162  16.073   0.377
 6257W        W77786  12.793  44.119   3.097
 6258W        W77787  26.924  19.798   1.873
 6259W        W77788  38.824  23.916  11.164
 6260W        W77789  21.231   4.750   1.741
 6261W        W77790  26.984   5.214  10.443
 6262W        W77791  23.699  42.300  12.536
 6263W        W77792  11.093   6.922   1.969
 6264W        W77793  18.580  31.141   4.224
 6265W        W77794  20.777   6.680   4.661
 6266W        W77795  41.866  31.071  11.533
 6267W        W77796  28.612  16.086   2.321
 6268W        W77797  35.994  39.981   4.566
 6269W        W77798  22.401  29.618   3.366
 6270W        W77799  14.315  43.081   1.436
 6271W        W77800  35.210  15.656   1.198
 6272W        W77801  17.052  41.724  13.565
 6273W        W77802  44.292   3.696   3.934
 6274W        W77803  22.771   2.879  10.701
 6275W        W77804  22.993  42.999  11.166
 6276W        W77805  43.414  26.077   0.527
 6277W        W77806  20.454  25.672  11.696
 6278W        W77807  20.669  35.753   4.650
 6279W        W77808  28.567  14.584   1.341
 6280W        W77809  10.536   0.551   3.722
 6281W        W77810  29.171   5.502   1.729
 6282W        W77811   2.919  43.377   3.625
 6283W        W77812  31.701  23.492  11.021
 6284W        W77813  13.853  25.202  14.052
 6285W        W77814   5.912  31.843  11.139
 6286W        W77815  13.270  22.091   3.847
 6287W        W77816  27.513  18.185   1.581
 6288W        W77817   0.551  31.947   2.657
 6289W        W77818  18.501  28.107  11.062
 6290W        W77819   4.225   0.028  10.919
 6291W        W77820  11.727  43.300   1.505
 6292W        W77821  26.223   1.481  12.589
 6293W        W77822  35.392   6.220   1.638
 6294W        W77823  39.987  32.857  14.946
 6295W        W77824  19.366  20.103   4.115
 6296W        W77825   3.467  33.998  10.469
 6297W        W77826  37.609  14.231  13.898
 6298W        W77827  39.234   1.529  11.046
 6299W        W77828  27.499  25.308   2.073
 6300W        W77829  12.780  36.020   1.093
 6301W        W77830  24.522  23.502  12.067
 6302W        W77831   7.285   0.351  11.195
 6303W        W77832  43.456  37.894   4.087
 6304W        W77833  33.344  24.298   0.286
 6305W        W77834  30.901  14.960  13.043
 6306W        W77835  12.383  23.141   0.674
 6307W        W77836  29.479  44.431   0.859
 6308W        W77837  42.307  40.551  11.575
 6309W        W77838  29.823   1.020  13.341
 6310W        W77839  42.419  26.479   0.475
 6311W        W77840  18.210  30.609  10.084
 6312W        W77841  38.820  24.448  13.917
 6313W        W77842  20.789  36.577  11.448
 6314W        W77843   1.671   2.454  13.011
 6315W        W77844  11.161  12.920  12.008
 6316W        W77845  11.883  18.147  13.047
 6317W        W77846  24.510  43.010   3.598
 6318W        W77847  41.406  41.443   0.092
 6319W        W77848  10.062   4.208   4.815
 6320W        W77849  30.949  19.969  11.549
 6321W        W77850  38.054   5.140   0.205
 6322W        W77851  11.136  41.540   0.897
 6323W        W77852  22.422  14.812  13.104
 6324W        W77853  33.559   7.419  13.494
 6325W        W77854  33.507  31.247  10.763
 6326W        W77855  14.269  11.879   2.912
 6327W        W77856  39.856  12.913   0.725
 6328W        W77857  10.771  23.262  14.565
 6329W        W77858  28.087  36.746  14.554
 6330W        W77859  21.676   0.863   3.357
 6331W        W77860  31.560  37.569   2.602
 6332W        W77861  14.396  26.048   1.951
 6333W        W77862  39.025   1.879   1.365
 6334W        W77863  42.080  12.323  12.001
 6335W        W77864  21.159  43.977  11.978
 6336W        W77865  15.814  44.299  14.422
 6337W        W77866   7.306  37.090   0.797
 6338W        W77867  44.401  41.092   0.523
 6339W        W77868  17.582  42.815  12.842
 6340W        W77869  38.617  14.141  12.886
 6341W        W77870  31.601  18.512   3.298
 6342W        W77871  40.390  38.480   3.200
 6343W        W77872  15.206  35.100   4.293
 6344W        W77873  29.508  17.281  11.098
 6345W        W77874  30.971   1.017   2.408
 6346W        W77875   4.316  44.287  11.498
 6347W        W77876  27.571  17.058  14.080
 6348W        W77877   2.989   0.306  12.518
 6349W        W77878  43.703  27.062  11.690
 6350W        W77879  17.681  17.519   3.935
 6351W        W77880  15.250   6.590  14.757
 6352W        W77881   6.386  37.241  12.047
 6353W        W77882  30.591  10.581   1.870
 6354W        W77883   1.918  25.480  11.061
 6355W        W77884  33.152  32.363  14.542
 6356W        W77885  30.313   3.886   0.004
 6357W        W77886  20.243  11.798  12.439
 6358W        W77887  21.468   8.926  12.461
 6359W        W77888  28.524  37.995   0.954
 6360W        W77889  16.781   6.303   3.203
 6361W        W77890  12.369   5.327  13.989
 6362W        W77891  32.369   9.676   0.817
 6363W        W77892  19.584  12.963  12.035
 6364W        W77893  17.209  18.978   4.800
 6365W        W77894  40.799  28.560  12.938
 6366W        W77895   9.410  34.807   0.878
 6367W        W77896  12.767  22.276   1.398
 6368W        W77897  41.859  13.570   0.914
 6369W        W77898   0.198   7.207   1.440
 6370W        W77899  10.155  43.717   2.274
 6371W        W77900  20.828  23.071   3.250
 6372W        W77901   4.891  13.682  14.936
 6373W        W77902  33.610  30.127   0.693
 6374W        W77903  18.360  36.088  12.979
 6375W        W77904  39.874  36.484   0.917
 6376W        W77905  44.295  28.632  11.637
 6377W        W77906  11.438  17.232   3.161
 6378W        W77907  29.823  24.091   3.119
 6379W        W77908  11.347  40.807   3.597
 6380W        W77909  17.095  24.034  13.275
 6381W        W77910  10.627  44.834   0.446
 6382W        W77911  22.180  22.725   2.798
 6383W        W77912   9.655  31.851  14.285
 6384W        W77913   5.392  30.935   3.586
 6385W        W77914  44.291  44.918  13.590
 6386W        W77915  10.601  38.326  14.105
 6387W        W77916  19.143  37.334   3.373
 6388W        W77917  16.779   0.799   0.740
 6389W        W77918   5.231  14.168   1.970
 6390W        W77919   7.333  18.897   0.535
 6391W        W77920  25.046   6.874   3.237
 6392W        W77921  32.109  26.269   0.905
 6393W        W77922   1.566  16.967   1.940
 6394W        W77923  24.786  42.056  13.863
 6395W        W77924  34.451   0.760  14.158
 6396W        W77925  12.235  36.654   3.776
 6397W        W77926  39.931  42.535   5.282
 6398W        W77927   8.090  17.690  13.521
 6399W        W77928  35.041  38.857  11.427
 6400W        W77929  44.391  39.565  14.386
 6401W        W77930   5.698   6.358  14.810
 6402W        W77931  41.347  36.537  12.938
 6403W        W77932  35.041  15.527   1.721
 6404W        W77933   7.279  19.790   3.273
 6405W        W77934  23.009  41.755  13.923
 6406W        W77935  13.278  37.595   3.733
 6407W        W77936  24.609   0.733  13.939
 6408W        W77937   6.721   9.309  13.850
 6409W        W77938  32.517  37.541   1.892
 6410W        W77939  31.922   6.731  10.512
 6411W        W77940  28.956   9.964   2.172
 6412W        W77941  12.626  42.524   3.746
 6413W        W77942  39.393  32.114   0.785
 6414W        W77943   4.851   0.819   3.883
 6415W        W77944  18.890  35.853   0.392
 6416W        W77945   1.042  20.985  14.253
 6417W        W77946  36.517  18.583   2.613
 6418W        W77947  39.312   4.327   2.641
 6419W        W77948  18.271  40.835  12.078
 6420W        W77949   2.402  32.649  14.690
 6421W        W77950  34.793  38.579   3.319
 6422W        W77951  24.734  33.820  12.993
 6423W        W77952   3.330   6.246  10.759
 6424W        W77953  29.515  35.844   1.766
 6425W        W77954  42.728  15.255   2.730
 6426W        W77955  43.887   2.938  12.344
 6427W        W77956  36.618  33.884  13.379
 6428W        W77957  19.045  33.539   2.942
 6429W        W77958  30.240  41.150   2.200
 6430W        W77959  23.738  29.211  13.698
 6431W        W77960  10.330  33.123  11.025
 6432W        W77961  21.323  42.230   2.844
 6433W        W77962  22.156  14.634   2.844
 6434W        W77963  30.127   2.842   1.947
 6435W        W77964  38.407   8.125  12.913
 6436W        W77965  25.678  26.394   3.723
 6437W        W77966  40.328   3.914  12.422
 6438W        W77967   3.274   3.041   1.778
 6439W        W77968  13.203  19.660   1.583
 6440W        W77969  39.781   6.904  12.955
 6441W        W77970  16.356  42.357   2.292
 6442W        W77971  38.047  21.181   4.509
 6443W        W77972  34.947  12.652   4.576
 6444W        W77973  17.320  26.659  10.722
 6445W        W77974  16.081   9.375  10.777
 6446W        W77975   5.614  10.929  11.210
 6447W        W77976   5.299  40.903  13.363
 6448W        W77977  25.785  39.764   1.609
 6449W        W77978  36.626  39.496  13.537
 6450W        W77979  28.066  33.428  14.025
 6451W        W77980   8.339  22.400  11.147
 6452W        W77981  28.476  37.408   2.359
 6453W        W77982  36.878  18.927  13.450
 6454W        W77983  19.213  19.618   3.219
 6455W        W77984  11.915  38.948  13.387
 6456W        W77985  17.563  16.615  12.180
 6457W        W77986  33.482  15.322   1.500
 6458W        W77987  15.965  28.904   2.241
 6459W        W77988  43.769  11.540  14.843
 6460W        W77989  31.673  30.550   1.324
 6461W        W77990  28.366  31.054   4.716
 6462W        W77991  36.892  35.038   0.443
 6463W        W77992  38.874  42.618   4.640
 6464W        W77993  29.297  37.323   5.026
 6465W        W77994  27.113  14.093  11.144
 6466W        W77995   5.379  40.486  11.612
 6467W        W77996  38.565   1.424   4.335
 6468W        W77997  10.672  11.355  11.505
 6469W        W77998  36.205  32.278   3.599
 6470W        W77999  42.823  31.145  11.620
 6471W        W78000  11.558  31.478  14.765
 6472W        W78001  20.315  38.329   0.754
 6473W        W78002   6.720  35.032  11.044
 6474W        W78003  24.565  25.970  11.731
 6475W        W78004   3.514   1.391  12.119
 6476W        W78005  42.441   8.867  14.033
 6477W        W78006  23.506  22.460   3.182
 6478W        W78007  12.496  37.205   5.034
 6479W        W78008  31.341  21.009  14.343
 6480W        W78009  44.782  43.983   3.431
 6481W        W78010  42.283  28.502   1.509
 6482W        W78011   1.994  44.502  12.954
 6483W        W78012  15.310   2.029   0.507
 6484W        W78013  14.347  42.814   0.962
 6485W        W78014  34.711   5.893  14.378
 6486W        W78015  19.032   1.608  14.968
 6487W        W78016  22.207   7.442  12.809
 6488W        W78017  35.939  31.699   2.789
 6489W        W78018  15.088  11.112   1.157
 6490W        W78019   6.848   9.385  12.914
 6491W        W78020  21.682   1.919   4.273
 6492W        W78021   0.225   8.194   4.186
 6493W        W78022  35.634   6.772   4.733
 6494W        W78023  32.368  16.356  13.831
 6495W        W78024  19.103  10.343   0.855
 6496W        W78025  44.290  22.027   2.379
 6497W        W78026  26.580  14.964  14.963
 6498W        W78027  19.902  16.265  13.896
 6499W        W78028   0.344  39.403  13.408
 6500W        W78029  38.076  36.839  14.803
 6501W        W78030  21.828  20.110   2.711
 6502W        W78031  32.057   5.171  12.838
 6503W        W78032  41.772   9.699  11.038
 6504W        W78033  34.513   9.775   2.785
 6505W        W78034  28.499  36.632   4.075
 6506W        W78035  43.294  38.892  12.939
 6507W        W78036  41.747  30.472  11.158
 6508W        W78037  30.913  43.304   4.977
 6509W        W78038   4.234   8.905  13.861
 6510W        W78039  28.914  15.236  13.352
 6511W        W78040  17.100  36.385  12.532
 6512W        W78041  27.680   0.418  10.557
 6513W        W78042  41.000  26.318   0.278
 6514W        W78043   9.819  33.109   2.438
 6515W        W78044  32.391  17.771   4.787
 6516W        W78045  21.033  16.576  10.728
 6517W        W78046   2.018  15.411  14.797
 6518W        W78047  42.903  18.830   3.832
 6519W        W78048  13.766  34.520   2.654
 6520W        W78049  44.219   3.816   2.918
 6521W        W78050   9.846  29.102   0.738
 6522W        W78051  17.105  29.122   4.193
 6523W        W78052   1.188  19.649  14.998
 6524W        W78053  10.981  11.165  11.876
 6525W        W78054   1.181  11.672  13.519
 6526W        W78055  30.132   1.919   3.461
 6527W        W78056   0.062  44.962  13.009
 6528W        W78057   7.299  18.274   1.301
 6529W        W78058  35.689  13.359  12.071
 6530W        W78059  38.653  33.584  10.309
 6531W        W78060  18.516  44.339  13.432
 6532W        W78061  42.807  28.792   0.607
 6533W        W78062  17.113  26.678   0.002
 6534W        W78063  25.123   7.416   2.289
 6535W        W78064  36.605  10.933   0.358
 6536W        W78065  15.646  19.653   1.451
 6537W        W78066  42.491  16.887   4.093
 6538W        W78067  30.565  20.497  10.789
 6539W        W78068  25.689  44.848  12.532
 6540W        W78069  29.955   6.450   3.709
 6541W        W78070  23.531  40.099  12.813
 6542W        W78071  16.777  39.120   0.240
 6543W        W78072  14.356  34.436  11.057
 6544W        W78073   3.145  38.276  11.105
 6545W        W78074   2.422  40.319  13.492
 6546W        W78075  30.205   8.424   2.516
 6547W        W78076  34.010  29.582  14.345
 6548W        W78077  31.110  25.671   4.318
 6549W        W78078  16.813   8.163  12.850
 6550W        W78079   3.094  33.498   0.186
 6551W        W78080   1.966  27.820   0.286
 6552W        W78081  25.424  44.544  14.473
 6553W        W78082  42.931  21.153   2.188
 6554W        W78083  37.126  14.342  11.741
 6555W        W78084  11.772  44.707   1.345
 6556W        W78085   4.932  28.953  13.482
 6557W        W78086  44.505  41.701   1.938
 6558W        W78087   1.543   6.715   4.052
 6559W        W78088  18.664  32.115   0.418
 6560W        W78089   8.968  33.113  13.845
 6561W        W78090   1.532  41.559  11.158
 6562W        W78091   6.261   4.985   3.769
 6563W        W78092  29.790  44.468  11.790
 6564W        W78093  14.258   0.326  13.593
 6565W        W78094  41.316  25.506   4.690
 6566W        W78095  28.734  39.181  11.071
 6567W        W78096  41.996  14.161  10.474
 6568W        W78097   8.851  30.006  10.433
 6569W        W78098  28.439  35.058   1.707
 6570W        W78099  18.763  26.067  11.494
 6571W        W78100  36.328   3.168   0.329
 6572W        W78101  17.293   4.788  11.181
 6573W        W78102  31.169   5.230   4.972
 6574W        W78103  37.414  23.998   4.672
 6575W        W78104  12.277   7.111  10.672
 6576W        W78105  42.737   4.978   3.611
 6577W        W78106   2.557  36.710   0.121
 6578W        W78107  42.126  22.868   0.916
 6579W        W78108  14.814  13.167  14.038
 6580W        W78109  43.772  31.322   1.894
 6581W        W78110  20.135  30.330  10.222
 6582W        W78111   2.236  32.380  13.628
 6583W        W78112  44.782  28.666  11.907
 6584W        W78113  37.786  28.508   3.631
 6585W        W78114  40.509  25.893   0.808
 6586W        W78115   4.732   2.588   0.633
 6587W        W78116  10.362   2.849   5.024
 6588W        W78117   4.481  16.169   0.261
 6589W        W78118  25.707   2.251   1.891
 6590W        W78119   4.497  21.009  12.011
 6591W        W78120  33.913  36.323  10.587
 6592W        W78121  30.329   0.927  12.051
 6593W        W78122  44.359  35.448  13.056
 6594W        W78123  16.873  40.440   2.741
 6595W        W78124   0.990  39.064   3.281
 6596W        W78125  26.114  25.308   2.400
 6597W        W78126  10.689  38.861  14.956
 6598W        W78127  39.279   2.847  12.524
 6599W        W78128  28.715  37.322  11.137
 6600W        W78129  36.824  42.955   2.940
 6601W        W78130   2.336  28.515   1.616
 6602W        W78131   0.925  28.878   0.373
 6603W        W78132  15.795  39.853   2.212
 6604W        W78133  22.243   6.641  13.858
 6605W        W78134  26.193  16.762  14.832
 6606W        W78135  10.345  29.084  11.568
 6607W        W78136  38.366  17.936   1.609
 6608W        W78137  10.528  17.609  12.614
 6609W        W78138  22.598  38.481  11.669
 6610W        W78139  26.687  28.727  14.119
 6611W        W78140   1.320  35.487  11.099
 6612W        W78141  34.234  39.645   3.441
 6613W        W78142  44.356  14.522   4.121
 6614W        W78143  42.114  32.479  10.605
 6615W        W78144   7.517  27.178   3.732
 6616W        W78145   7.874  21.991  14.208
 6617W        W78146  17.236   0.978   4.818
 6618W        W78147   9.280   0.968  11.959
 6619W        W78148  11.681  10.109   3.316
 6620W        W78149  13.594  28.049  14.292
 6621W        W78150  14.037  28.127   1.906
 6622W        W78151   4.358  22.733  14.407
 6623W        W78152   6.729   9.736   2.626
 6624W        W78153  42.273  12.762   0.726
 6625W        W78154  23.106  18.030   0.369
 6626W        W78155  11.390  28.241  12.611
 6627W        W78156  30.847  40.496  12.521
 6628W        W78157   0.841  17.359  12.975
 6629W        W78158   5.904  29.608   2.195
 6630W        W78159  17.219  12.419   0.449
 6631W        W78160  41.007   4.769  12.426
 6632W        W78161  10.329  42.921   5.040
 6633W        W78162   2.263  44.726   3.161
 6634W        W78163  38.114  15.824   2.838
 6635W        W78164   9.078  26.221  12.993
 6636W        W78165  14.877  30.058  12.482
 6637W        W78166   0.890  42.491  13.456
 6638W        W78167  20.637   1.296  14.865
 6639W        W78168  20.212   3.459   4.644
 6640W        W78169  13.848  29.502  12.921
 6641W        W78170  36.349  11.793  14.890
 6642W        W78171   0.390  10.366  14.723
 6643W        W78172   4.689   9.616   0.609
 6644W        W78173   1.369   1.680   4.229
 6645W        W78174  33.114  19.530   2.786
 6646W        W78175  31.241   3.993   2.889
 6647W        W78176  30.214   1.485   2.768
 6648W        W78177   3.212  33.456   3.911
 6649W        W78178   3.883   1.471   2.950
 6650W        W78179  37.910  32.992  13.891
 6651W        W78180  13.740   6.705   1.916
 6652W        W78181  40.541  38.126   0.467
 6653W        W78182  43.803  10.261  14.385
 6654W        W78183  36.455   8.270   1.934
 6655W        W78184  13.587  18.475  11.550
 6656W        W78185   8.536   2.879  13.793
 6657W        W78186   1.532   2.916   3.835
 6658W        W78187   6.425  39.577  14.010
 6659W        W78188  34.923  14.201  12.191
 6660W        W78189   0.701  24.093  14.976
 6661W        W78190  16.042  26.062  12.521
 6662W        W78191  44.029  42.246  10.740
 6663W        W78192  29.888  35.057   3.431
 6664W        W78193  41.816  13.414   1.421
 6665W        W78194  27.889  10.632   4.093
 6666W        W78195  40.328  18.130   1.722
 6667W        W78196  15.828   8.363  14.769
 6668W        W78197  40.084  43.020  12.591
 6669W        W78198  25.277  23.453  13.834
 6670W        W78199   8.927  42.553  11.205
 6671W        W78200  19.845  31.997   3.792
 6672W        W78201  42.479  10.847  13.410
 6673W        W78202  37.158  27.983   2.245
 6674W        W78203  44.993   4.558  10.271
 6675W        W78204  38.964  40.390   2.114
 6676W        W78205  18.840  24.310  12.936
 6677W        W78206   6.814   1.867   3.269
 6678W        W78207  37.023  21.532   2.699
 6679W        W78208   5.932   9.424  11.875
 6680W        W78209  21.551  35.207   0.206
 6681W        W78210  37.703  39.029   1.522
 6682W        W78211  36.512  14.675   3.531
 6683W        W78212  31.894  31.211   3.760
 6684W        W78213   3.070  35.529   1.286
 6685W        W78214   7.895  19.579  13.045
 6686W        W78215   6.873  27.987  12.301
 6687W        W78216  43.887  16.357   4.173
 6688W        W78217  44.294  26.214   3.335
 6689W        W78218  16.512  31.991   3.501
 6690W        W78219  20.342  14.822   0.322
 6691W        W78220  23.205  24.612  12.485
 6692W        W78221  15.144  36.849   1.456
 6693W        W78222  30.578  42.474   4.605
 6694W        W78223  35.265   6.990   1.566
 6695W        W78224  34.083  37.338   4.693
 6696W        W78225  10.657  34.986   1.992
 6697W        W78226  18.779   2.727   2.406
 6698W        W78227  24.453  37.351  12.135
 6699W        W78228  11.462  20.468   2.993
 6700W        W78229  33.052  10.150  13.571
 6701W        W78230   2.449  18.211   1.832
 6702W        W78231   4.807  36.146  14.484
 6703W        W78232   3.241  16.768   4.385
 6704W        W78233  31.265  37.262  14.011
 6705W        W78234  29.065  35.920   3.613
 6706W        W78235  42.469   8.555   2.338
 6707W        W78236   1.321  33.646   1.642
 6708W        W78237  33.644  20.591  11.096
 6709W        W78238  37.238  17.681  13.946
 6710W        W78239  26.085  33.922  13.097
 6711W        W78240  43.004  42.357   2.787
 6712W        W78241  36.436  23.070  12.380
 6713W        W78242  41.979  19.527   4.995
 6714W        W78243  41.837  23.100   4.739
 6715W        W78244  13.437   4.263  13.444
 6716W        W78245  43.013   4.605   2.675
 6717W        W78246  10.564  17.604   2.955
 6718W        W78247   6.331   9.602   1.675
 6719W        W78248  40.326  17.288  13.421
 6720W        W78249  14.681  14.211   3.563
 6721W        W78250  39.830   8.090  14.281
 6722W        W78251   2.243   3.283  12.092
 6723W        W78252  23.095   2.405   4.139
 6724W        W78253   0.499  23.725   0.358
 6725W        W78254   4.838  35.994   0.789
 6726W        W78255  32.179  16.156   0.873
 6727W        W78256   8.458   5.877   3.371
 6728W        W78257  10.159  15.206   2.687
 6729W        W78258   3.863   6.255   0.254
 6730W        W78259   2.374  12.390  14.614
 6731W        W78260   5.940  36.813   1.470
 6732W        W78261   2.616  27.982   4.540
 6733W        W78262   6.471  20.776  10.343
 6734W        W78263  29.561  44.443   4.775
 6735W        W78264   4.214   8.623   2.911
 6736W        W78265  33.051  14.014   1.546
 6737W        W78266  29.565  16.208   2.654
 6738W        W78267  32.670   9.485  11.510
 6739W        W78268  21.026  37.683  10.165
 6740W        W78269  35.495  40.014  12.986
 6741W        W78270  22.754  26.400  11.946
 6742W        W78271  19.134  41.342   3.981
 6743W        W78272  23.735  14.502   1.149
 6744W        W78273  21.056  14.774  14.880
 6745W        W78274   4.021  29.083  13.343
 6746W        W78275  43.777  42.165  14.012
 6747W        W78276  32.908  23.207  14.202
 6748W        W78277  28.923  31.042   2.207
 6749W        W78278  32.676  31.412   0.879
 6750W        W78279   9.105  24.760  11.342
 6751W        W78280   4.321   9.227   0.501
 6752W        W78281  12.814  14.301   1.388
 6753W        W78282  38.703  16.665   3.184
 6754W        W78283  34.693  27.469   4.912
 6755W        W78284  20.291  15.588   2.244
 6756W        W78285  43.877  37.110   1.829
 6757W        W78286   9.111   3.420  13.323
 6758W        W78287  15.602  15.416  14.930
 6759W        W78288  23.179  16.010   1.288
 6760W        W78289  27.122  21.955   4.120
 6761W        W78290   9.195  16.210  14.516
 6762W        W78291  42.992  26.622  14.353
 6763W        W78292  12.405  19.131   0.293
 6764W        W78293  16.454  31.805   4.796
 6765W        W78294  11.074  25.527   3.672
 6766W        W78295   3.319  35.958  12.032
 6767W        W78296  12.170  42.710   4.592
 6768W        W78297  29.720  10.725  13.358
 6769W        W78298  11.050  32.579   1.393
 6770W        W78299  13.654  23.094   0.378
 6771W        W78300  18.396   5.725  10.375
 6772W        W78301   4.936  21.316   3.488
 6773W        W78302  15.283  18.081  13.515
 6774W        W78303  40.348  16.644   4.428
 6775W        W78304  20.668   3.289   0.275
 6776W        W78305  35.849  44.246   2.349
 6777W        W78306  10.596   0.669   2.670
 6778W        W78307  11.259   9.893   3.128
 6779W        W78308  36.528  37.036  12.417
 6780W        W78309  21.394  33.675   4.241
 6781W        W78310  27.592  16.967  13.176
 6782W        W78311  14.456   7.851   2.252
 6783W        W78312  30.957  21.274   4.102
 6784W        W78313   6.157   0.495   4.635
 6785W        W78314   7.727  29.108  13.394
 6786W        W78315  26.814  10.487  12.357
 6787W        W78316   5.319  37.633  12.429
 6788W        W78317  34.418   1.013   2.377
 6789W        W78318   9.260  30.672   4.661
 6790W        W78319   7.312  14.098   0.842
 6791W        W78320  30.550  21.503   3.257
 6792W        W78321  21.782  26.203   3.662
 6793W        W78322  12.313  11.639   0.971
 6794W        W78323   6.899  15.694  11.611
 6795W        W78324  15.519   2.711  11.895
 6796W        W78325   2.720  33.274  14.281
 6797W        W78326  40.240  31.034  14.304
 6798W        W78327  35.981  20.927  14.746
 6799W        W78328  13.287   0.205   1.824
 6800W        W78329  28.167  29.390  11.643
 6801W        W78330  42.839   2.349   4.862
 6802W        W78331   2.966  27.593   2.470
 6803W        W78332  19.033  11.598   3.042
 6804W        W78333  31.718  17.322   1.867
 6805W        W78334  37.243  11.185  12.810
 6806W        W78335  30.371  28.526   4.744
 6807W        W78336  17.867  22.115   2.886
 6808W        W78337  24.727  14.285   1.816
 6809W        W78338  26.601   0.276  12.668
 6810W        W78339  40.871   8.637  13.073
 6811W        W78340   2.809  37.163   1.335
 6812W        W78341  11.682   8.421  11.277
 6813W        W78342  14.837  19.566   3.243
 6814W        W78343   2.294  34.411   1.017
 6815W        W78344   0.959   4.322   0.301
 6816W        W78345  22.149   2.360  12.889
 6817W        W78346  32.383  11.860  13.579
 6818W        W78347  35.834  12.431   3.658
 6819W        W78348  15.711   5.649  11.380
 6820W        W78349  42.424   9.143  10.899
 6821W        W78350  42.115  11.780  12.171
 6822W        W78351   6.205  27.273  11.977
 6823W        W78352  24.069  34.009   3.207
 6824W        W78353   4.939  39.475   1.730
 6825W        W78354  39.964  15.663   0.694
 6826W        W78355  19.797  34.169   1.703
 6827W        W78356  44.067  13.536   2.252
 6828W        W78357  35.784  12.262  10.719
 6829W        W78358  43.548  25.579   0.767
 6830W        W78359  30.487  16.199   4.548
 6831W        W78360  31.529  17.473   0.755
 6832W        W78361  36.428  13.315  12.596
 6833W        W78362  29.723  31.850  13.978
 6834W        W78363  12.129  17.023   1.441
 6835W        W78364   4.790  40.927  13.873
 6836W        W78365  10.218  22.955   9.913
 6837W        W78366  32.801  19.862   4.046
 6838W        W78367  12.543  35.565   1.030
 6839W        W78368  43.252   4.446  12.169
 6840W        W78369   0.838  23.558  11.743
 6841W        W78370   8.172  11.816   4.217
 6842W        W78371  40.391  39.195  10.718
 6843W        W78372  12.157  36.613   2.901
 6844W        W78373  25.634  36.975  13.905
 6845W        W78374  17.316  32.843  10.590
 6846W        W78375  11.343  34.130  12.216
 6847W        W78376  15.870   6.732  11.698
 6848W        W78377  33.812  37.070  13.953
 6849W        W78378  27.538  28.917  13.955
 6850W        W78379  25.550   4.155  12.538
 6851W        W78380  27.571  43.306   4.384
 6852W        W78381  22.427  29.315  10.714
 6853W        W78382   4.699   4.635  12.538
 6854W        W78383  32.817   8.884  10.760
 6855W        W78384   6.590  15.765   3.242
 6856W        W78385  22.160   2.508  14.697
 6857W        W78386  16.337  44.373  12.956
 6858W        W78387   8.298  25.870  14.416
 6859W        W78388  13.762  35.940   4.001
 6860W        W78389   6.667   3.014  10.449
 6861W        W78390  34.323  37.536  13.806
 6862W        W78391   8.344  34.867   2.433
 6863W        W78392  29.972  15.600   2.325
 6864W        W78393   8.158   8.355  14.002
 6865W        W78394  35.945  27.439  11.693
 6866W        W78395  18.408   9.370  11.872
 6867W        W78396  28.017  43.361   3.589
 6868W        W78397  37.365  28.611   1.382
 6869W        W78398   2.389   2.170   5.077
 6870W        W78399   9.152  38.461   3.675
 6871W        W78400  40.251   6.441   1.747
 6872W        W78401  19.614  30.717   3.572
 6873W        W78402   5.330  10.222   4.095
 6874W        W78403   0.050  44.450   3.702
 6875W        W78404  36.542  36.605  14.399
 6876W        W78405  27.681  31.105  13.250
 6877W        W78406  18.796  27.955  11.481
 6878W        W78407  14.652  10.874  13.425
 6879W        W78408  43.922   3.991   3.714
 6880W        W78409  37.620  20.144  14.414
 6881W        W78410  40.483  18.954   9.959
 6882W        W78411   9.435  41.937  10.706
 6883W        W78412   3.386  37.277   0.536
 6884W        W78413  14.881  40.494  11.308
 6885W        W78414  34.949   6.281   2.797
 6886W        W78415  28.040  35.875   1.670
 6887W        W78416  29.070   4.253   0.159
 6888W        W78417  39.393  32.602   2.729
 6889W        W78418  38.486   9.302   2.316
 6890W        W78419  17.256  44.114  14.471
 6891W        W78420  41.456  16.727  13.089
 6892W        W78421  16.551  28.185   1.014
 6893W        W78422  44.486  30.468   2.743
 6894W        W78423   6.724   9.620  13.402
 6895W        W78424   6.829   5.629  12.645
 6896W        W78425  30.662   8.754  13.322
 6897W        W78426  34.866  16.699  11.958
 6898W        W78427   2.852   9.655  12.317
 6899W        W78428  39.499  44.871   0.656
 6900W        W78429   4.528  20.536  12.946
 6901W        W78430  33.078  21.963  11.496
 6902W        W78431  26.097  18.720  10.514
 6903W        W78432   4.498  37.613   0.871
 6904W        W78433  35.052  10.121   3.609
 6905W        W78434  37.396   1.140  10.974
 6906W        W78435   9.624  36.053  13.963
 6907W        W78436  11.943  37.788  10.555
 6908W        W78437  38.961  34.057  14.113
 6909W        W78438   1.669  44.819  13.301
 6910W        W78439  11.125  26.428   3.555
 6911W        W78440   3.328  40.539  12.964
 6912W        W78441  35.820   7.352   3.677
 6913W        W78442   3.406  42.573  12.075
 6914W        W78443  25.085  40.968  13.308
 6915W        W78444  16.295   7.628  10.726
 6916W        W78445  17.072  35.925  10.769
 6917W        W78446  15.091  44.010   1.447
 6918W        W78447  12.203  16.315  12.968
 6919W        W78448  23.156  37.922  11.973
 6920W        W78449   6.406  28.647  11.777
 6921W        W78450   0.717  18.804  12.114
 6922W        W78451   7.788  20.723   4.666
 6923W        W78452  30.644  20.560   3.762
 6924W        W78453  29.523  18.804  12.076
 6925W        W78454   8.168  34.373   2.443
 6926W        W78455  25.387  37.336  11.672
 6927W        W78456  12.320  39.628   1.760
 6928W        W78457  24.453  28.042   3.713
 6929W        W78458  12.264   7.430  11.965
 6930W        W78459  41.455  15.126   0.807
 6931W        W78460  17.679   4.951   2.033
 6932W        W78461  10.246   2.825  12.455
 6933W        W78462   8.469  38.991   2.654
 6934W        W78463  39.016  13.617   0.118
 6935W        W78464  17.365  23.102  10.384
 6936W        W78465  37.113   3.771  10.884
 6937W        W78466   7.615   9.696   4.554
 6938W        W78467   6.726  25.524  14.738
 6939W        W78468  41.269  32.530  13.350
 6940W        W78469   7.491  25.132   4.612
 6941W        W78470  27.492  36.841   0.228
 6942W        W78471  42.358  37.736  10.247
 6943W        W78472  25.181  14.834   4.180
 6944W        W78473  40.480  35.193  14.930
 6945W        W78474  20.631   8.401   4.412
 6946W        W78475  25.255  32.968  13.348
 6947W        W78476  34.603   2.252   2.191
 6948W        W78477   8.387  40.247  12.209
 6949W        W78478  12.622   7.273   3.573
 6950W        W78479  38.779  11.741  13.480
 6951W        W78480   0.243  12.570   0.838
 6952W        W78481  32.058  21.705   4.178
 6953W        W78482  20.594  23.264  11.090
 6954W        W78483   9.752  23.152  11.494
 6955W        W78484  31.653  24.168   3.601
 6956W        W78485   6.605   5.231   1.905
 6957W        W78486   1.296  18.675   2.516
 6958W        W78487  18.618   0.471  11.996
 6959W        W78488  16.949  37.253  10.922
 6960W        W78489  10.625  40.588  14.370
 6961W        W78490   7.298  23.513  13.830
 6962W        W78491   2.471   5.709  14.096
 6963W        W78492  25.584   5.637  11.553
 6964W        W78493  31.833  16.775   2.632
 6965W        W78494  12.184   3.886   3.363
 6966W        W78495  41.728   1.908  13.458
 6967W        W78496  40.082  14.582  14.727
 6968W        W78497  28.124   3.383   1.707
 6969W        W78498  39.655  10.814  12.547
 6970W        W78499  26.409  18.900   0.254
 6971W        W78500  19.856  39.860  13.376
 6972W        W78501  17.074  32.484   4.943
 6973W        W78502  26.987  33.579   3.696
 6974W        W78503  36.606  38.802   3.276
 6975W        W78504   5.608  31.332   0.234
 6976W        W78505  32.735  17.068   3.890
 6977W        W78506  28.900   1.903  10.609
 6978W        W78507  44.227  27.124  12.580
 6979W        W78508  12.533  10.180  10.181
 6980W        W78509  39.989  28.946  13.868
 6981W        W78510  36.793  11.362   3.211
 6982W        W78511  44.922  37.156  11.438
 6983W        W78512  27.415  39.349  14.970
 6984W        W78513  24.166   3.957  11.150
 6985W        W78514  30.988  31.649  12.951
 6986W        W78515  28.411  38.958   2.110
 6987W        W78516  30.415  34.110   2.144
 6988W        W78517  19.091  15.992  12.973
 6989W        W78518   6.436   8.875  13.973
 6990W        W78519   0.773  40.282   4.037
 6991W        W78520  38.553  14.759  10.664
 6992W        W78521  38.145  30.152  13.843
 6993W        W78522   8.363  22.934   2.323
 6994W        W78523   6.446  22.356   0.333
 6995W        W78524  27.277  24.146   0.258
 6996W        W78525  16.949  37.379  12.768
 6997W        W78526  22.258  26.907   4.167
 6998W        W78527  25.504   6.224  13.996
 6999W        W78528  44.708   5.181  11.576
 7000W        W78529   3.266  31.434   4.201
 7001W        W78530  38.537  20.059   3.011
 7002W        W78531  37.102  24.652   1.396
 7003W        W78532  32.104   8.967  14.238
 7004W        W78533  30.177  37.365  12.035
 7005W        W78534  13.848   9.806  14.152
 7006W        W78535  32.428   0.993   2.596
 7007W        W78536  17.827  28.054   3.375
 7008W        W78537  10.461  33.593  14.996
 7009W        W78538   1.750  41.453   0.900
 7010W        W78539   1.741  10.830  13.285
 7011W        W78540  18.114  36.097   0.001
 7012W        W78541  17.234  24.088   0.425
 7013W        W78542  38.332  28.652  10.691
 7014W        W78543  12.181  26.656   2.438
 7015W        W78544  22.298  14.201  10.714
 7016W        W78545  39.586  32.995  12.447
 7017W        W78546  20.774   6.641  11.662
 7018W        W78547  31.440   2.834   4.149
 7019W        W78548  35.365  29.322  14.995
 7020W        W78549  16.336  27.487   3.101
 7021W        W78550  38.683  28.471   0.768
 7022W        W78551  42.763  26.207  10.580
 7023W        W78552  35.089   1.431  12.566
 7024W        W78553  17.681  34.180   0.597
 7025W        W78554  11.633  16.193  11.620
 7026W        W78555  14.516  31.956   3.216
 7027W        W78556  20.794  34.678  11.592
 7028W        W78557   8.008  31.865  14.680
 7029W        W78558  28.697  10.305   4.276
 7030W        W78559  40.024   3.459  14.070
 7031W        W78560  10.653  33.134  14.823
 7032W        W78561  29.841  42.777   2.545
 7033W        W78562  31.967   3.783   4.515
 7034W        W78563   8.343  22.109  14.054
 7035W        W78564  40.053  35.622  11.582
 7036W        W78565  41.218   5.835  11.640
 7037W        W78566  11.836  18.188   1.485
 7038W        W78567  20.522   4.802   2.117
 7039W        W78568  12.867  15.504  14.895
 7040W        W78569  12.310   8.905  10.946
 7041W        W78570  33.609   3.903   1.317
 7042W        W78571  26.043  26.490   1.354
 7043W        W78572  21.399   0.826   5.120
 7044W        W78573   0.035   9.402  11.159
 7045W        W78574  10.801  39.412   0.076
 7046W        W78575  37.990  10.922  14.323
 7047W        W78576  11.792  40.910  11.421
 7048W        W78577  37.819   4.932  12.503
 7049W        W78578   8.429  44.037   0.783
 7050W        W78579   5.743  34.053   3.156
 7051W        W78580  19.868  43.082  13.277
 7052W        W78581  16.197  44.933   2.679
 7053W        W78582  15.398  22.821   1.253
 7054W        W78583   8.333  14.217  12.458
 7055W        W78584  43.423   8.868   3.208
 7056W        W78585  16.672  28.914   1.662
 7057W        W78586  37.805  26.914  11.981
 7058W        W78587  27.332  44.292  11.101
 7059W        W78588  12.234  22.224   0.748
 7060W        W78589  34.572  22.544   3.654
 7061W        W78590   0.300  17.734   1.899
 7062W        W78591   1.991  28.066  13.181
 7063W        W78592  10.230   0.126   1.695
 7064W        W78593  14.363   7.167  12.359
 7065W        W78594  22.796  14.343  13.769
 7066W        W78595  30.183  19.243   2.383
 7067W        W78596  20.933  18.822  14.028
 7068W        W78597   8.178  38.967   1.268
 7069W        W78598   5.072   5.712   1.162
 7070W        W78599   7.589  19.155  14.227
 7071W        W78600  32.333  11.950   4.123
 7072W        W78601  30.596  25.995  12.771
 7073W        W78602  30.506  42.173  13.272
 7074W        W78603  36.429  10.853  12.408
 7075W        W78604  15.133  11.886   3.209
 7076W        W78605  42.851   9.971   3.721
 7077W        W78606  17.509  19.401   0.066
 7078W        W78607   8.168  24.407   0.821
 7079W        W78608  10.033  17.953   2.080
 7080W        W78609  41.751  21.571   1.355
 7081W        W78610  19.019   3.898  12.914
 7082W        W78611  29.300  10.906  12.014
 7083W        W78612  19.400  22.387   2.278
 7084W        W78613  24.787  17.097   2.150
 7085W        W78614   2.980  44.045   2.895
 7086W        W78615  22.534   9.657  12.448
 7087W        W78616  43.853  31.513   3.256
 7088W        W78617  43.424  24.215   0.321
 7089W        W78618  15.456  13.097   3.200
 7090W        W78619  25.272  31.497   0.814
 7091W        W78620  11.273  14.425  11.908
 7092W        W78621  23.202  17.702  12.118
 7093W        W78622  29.888  18.807  12.458
 7094W        W78623  38.902  32.376   2.858
 7095W        W78624  19.509   9.752  12.472
 7096W        W78625  37.182  17.824  11.237
 7097W        W78626  39.362   1.357  14.211
 7098W        W78627  25.040  30.846  11.603
 7099W        W78628  32.058   4.868  12.417
 7100W        W78629  34.476  12.110  13.406
 7101W        W78630   4.360  33.008  11.187
 7102W        W78631  36.503  39.403  13.037
 7103W        W78632  34.506  37.553   4.246
 7104W        W78633  39.272  22.643  12.432
 7105W        W78634  28.052  16.990   3.815
 7106W        W78635   0.483  15.109   2.105
 7107W        W78636  33.856  44.824  12.613
 7108W        W78637  12.236   1.516  14.455
 7109W        W78638  27.599  30.615  13.381
 7110W        W78639  28.710  32.554   2.384
 7111W        W78640  14.335   1.319  13.335
 7112W        W78641  22.741  10.573  10.943
 7113W        W78642   4.227  28.383  11.618
 7114W        W78643  15.796  18.732  10.733
 7115W        W78644  32.677  43.940  12.440
 7116W        W78645  25.475  42.832  14.030
 7117W        W78646  26.503  26.130   0.041
 7118W        W78647  41.345   9.067   3.409
 7119W        W78648  34.743  40.066   1.134
 7120W        W78649  42.869  11.163   0.758
 7121W        W78650  36.154   3.562   3.431
 7122W        W78651  24.759  20.685   4.972
 7123W        W78652  21.311   2.879   4.193
 7124W        W78653  10.109  30.521   1.074
 7125W        W78654   1.473  23.530   3.135
 7126W        W78655  43.825  28.248  10.425
 7127W        W78656   7.945  23.964   0.951
 7128W        W78657   4.749  15.215  11.448
 7129W        W78658  23.207   0.328   2.594
 7130W        W78659  34.012  17.124  11.720
 7131W        W78660  21.894  37.960  10.585
 7132W        W78661  12.673  26.180  11.552
 7133W        W78662  42.499  19.143   2.155
 7134W        W78663  24.711  16.370   3.712
 7135W        W78664  21.026  44.795  14.788
 7136W        W78665  41.328  37.318   0.314
 7137W        W78666  20.198   8.532  13.916
 7138W        W78667  39.125  38.636   1.992
 7139W        W78668  34.831  18.306  12.455
 7140W        W78669  21.952  31.927  12.325
 7141W        W78670   8.204  42.928   0.432
 7142W        W78671   5.339  14.859  11.945
 7143W        W78672  32.645   7.460  11.635
 7144W        W78673  20.689  26.034  13.786
 7145W        W78674   4.921  34.602   1.621
 7146W        W78675  20.014   2.257   1.908
 7147W        W78676   3.071  20.158   1.910
 7148W        W78677  22.968  12.905   1.270
 7149W        W78678  27.385  15.640   1.266
 7150W        W78679  21.105  44.437   1.141
 7151W        W78680  10.392   4.326   2.918
 7152W        W78681  15.069  37.983  13.821
 7153W        W78682   9.351  37.622  13.333
 7154W        W78683   4.157  12.379   3.229
 7155W        W78684  34.103  28.145   4.782
 7156W        W78685  15.637  37.947   1.362
 7157W        W78686   2.226  34.030   1.846
 7158W        W78687  12.578   2.865  11.489
 7159W        W78688  27.727  13.274   4.580
 7160W        W78689  42.797  32.480  12.146
 7161W        W78690  11.154  28.379  11.030
 7162W        W78691  41.339   1.518   1.860
 7163W        W78692  44.744  35.481   3.107
 7164W        W78693  18.231  15.615   4.561
 7165W        W78694  37.684  26.169   2.849
 7166W        W78695  22.053  38.164   0.372
 7167W        W78696  43.089  32.665   0.558
 7168W        W78697  12.233  44.260   1.885
 7169W        W78698  15.169   6.883   3.113
 7170W        W78699   1.720  21.525  11.917
 7171W        W78700  17.598   7.853  14.289
 7172W        W78701   0.868  34.188  13.372
 7173W        W78702   6.465  18.649   4.866
 7174W        W78703  30.093  20.219   0.921
 7175W        W78704  32.484  13.180   3.069
 7176W        W78705  27.810   7.181   1.728
 7177W        W78706  43.755   5.061  13.459
 7178W        W78707  23.984  30.642   4.525
 7179W        W78708   0.720  23.105   0.513
 7180W        W78709  38.972  43.488   3.673
 7181W        W78710  33.847   4.012  11.112
 7182W        W78711   5.332   8.456  12.446
 7183W        W78712  38.955   7.945   2.385
 7184W        W78713  18.741  18.206  14.476
 7185W        W78714  40.241   8.390  10.450
 7186W        W78715  28.045  35.386   1.484
 7187W        W78716  24.213  43.875  13.307
 7188W        W78717  19.216  43.793  13.939
 7189W        W78718  35.165  35.975   0.887
 7190W        W78719   4.330   6.817   0.794
 7191W        W78720  41.368  21.050   3.148
 7192W        W78721  25.084  37.124   3.440
 7193W        W78722  44.359   9.985  10.725
 7194W        W78723  34.624  17.599  13.340
 7195W        W78724  29.722  13.225   4.511
 7196W        W78725  26.098  43.700   1.005
 7197W        W78726  13.368  10.211  11.540
 7198W        W78727  28.478   3.323   2.811
 7199W        W78728  29.360  24.604   4.658
 7200W        W78729  24.379  41.474  14.267
 7201W        W78730   9.393  43.945   0.747
 7202W        W78731  15.139  42.298  13.439
 7203W        W78732  33.013  41.008  14.717
 7204W        W78733  37.202  24.693  14.962
 7205W        W78734  34.549  11.211  11.102
 7206W        W78735  28.170  19.228   0.372
 7207W        W78736   4.913  27.734  14.967
 7208W        W78737  36.102  34.348   3.908
 7209W        W78738  19.695  10.671  11.212
 7210W        W78739  38.998   2.107  13.054
 7211W        W78740  41.735  26.327   4.557
 7212W        W78741  11.146  42.971   0.718
 7213W        W78742  36.189   7.319   4.172
 7214W        W78743  20.966   1.212   3.808
 7215W        W78744  26.385  41.186  11.969
 7216W        W78745  37.239  18.203  13.863
 7217W        W78746  10.228  13.863   3.178
 7218W        W78747  38.808   8.790   9.790
 7219W        W78748  35.944   7.283   0.846
 7220W        W78749  17.816  41.422  10.746
 7221W        W78750  39.012  19.264   3.556
 7222W        W78751  24.073  13.486  11.534
 7223W        W78752  34.838  42.474  10.689
 7224W        W78753  17.890  25.951  13.946
 7225W        W78754  21.989  22.539  13.610
 7226W        W78755   6.724  18.089  12.520
 7227W        W78756   2.115  30.350   5.210
 7228W        W78757   5.745  40.138  11.486
 7229W        W78758  38.827  24.469  12.959
 7230W        W78759  40.471   5.258   4.168
 7231W        W78760  17.702  33.457   1.320
 7232W        W78761  28.264  17.254   0.388
 7233W        W78762  34.463  20.785  14.535
 7234W        W78763   9.659  22.650  11.575
 7235W        W78764  35.611  32.953  12.651
 7236W        W78765  37.382  43.002   0.310
 7237W        W78766  15.329   2.696  14.913
 7238W        W78767  19.663  37.093   5.032
 7239W        W78768  20.913  33.136  12.678
 7240W        W78769  36.118  37.812   3.760
 7241W        W78770  35.577  30.071   4.529
 7242W        W78771  43.959  11.960   4.767
 7243W        W78772  21.521  10.252   3.145
 7244W        W78773  14.789  12.406  14.738
 7245W        W78774  10.099   9.105  11.122
 7246W        W78775  25.858   2.882  14.740
 7247W        W78776  31.525  25.925   2.233
 7248W        W78777  17.061  14.703  13.956
 7249W        W78778  20.638  26.181   4.134
 7250W        W78779  44.279   7.391  10.475
 7251W        W78780  28.449   7.911   3.173
 7252W        W78781   1.123  19.292  14.182
 7253W        W78782  42.851   9.656   3.185
 7254W        W78783  14.531  10.750  11.627
 7255W        W78784  11.217   5.797   3.671
 7256W        W78785  24.391   7.392  12.402
 7257W        W78786  10.910  43.296   4.167
 7258W        W78787  27.644  38.385  10.448
 7259W        W78788  21.024  20.195  12.302
 7260W        W78789  30.289  23.787   0.002
 7261W        W78790  20.073  24.649  14.889
 7262W        W78791   6.051  42.419   1.558
 7263W        W78792  34.843   3.969   2.823
 7264W        W78793  37.436   3.445   4.767
 7265W        W78794   4.331  21.018  13.023
 7266W        W78795  10.485   6.150   0.076
 7267W        W78796  38.086  21.076   4.027
 7268W        W78797  43.986  27.680   0.477
 7269W        W78798   4.280  18.271   1.718
 7270W        W78799   9.849  24.198   3.061
 7271W        W78800  18.841  18.695   0.819
 7272W        W78801  10.865  24.227   0.993
 7273W        W78802  24.759  35.144   0.446
 7274W        W78803  29.239  26.712  13.660
 7275W        W78804  22.324  24.986   3.476
 7276W        W78805  24.685  44.660  12.280
 7277W        W78806   7.937  17.106  14.273
 7278W        W78807  19.589  30.443   4.559
 7279W        W78808  16.184  36.914   2.732
 7280W        W78809   8.067  36.172   1.216
 7281W        W78810  40.534  13.994  14.341
 7282W        W78811  25.362  28.155  12.564
 7283W        W78812   9.558   9.846   0.821
 7284W        W78813   1.730  25.518   3.246
 7285W        W78814   9.858  39.909  10.651
 7286W        W78815  40.938  13.902   1.746
 7287W        W78816  13.923   3.665  13.476
 7288W        W78817  30.849  35.937   3.721
 7289W        W78818   2.301  31.464  11.448
 7290W        W78819   3.872   4.619  13.911
 7291W        W78820  42.022  34.405  12.659
 7292W        W78821  16.348   9.280  11.206
 7293W        W78822  32.906   0.611   3.333
 7294W        W78823  21.018   9.907   0.444
 7295W        W78824  10.903   0.266   0.463
 7296W        W78825  19.336   2.178   4.553
 7297W        W78826  18.363  24.127  14.803
 7298W        W78827  11.640   7.358   0.422
 7299W        W78828  38.437  38.916  13.540
 7300W        W78829   1.994  20.785  13.367
 7301W        W78830  29.417  27.150  13.883
 7302W        W78831   6.719   6.720  14.031
 7303W        W78832  41.524  22.438  13.121
 7304W        W78833   2.499  36.121   1.326
 7305W        W78834   2.692  41.470   1.104
 7306W        W78835  28.328  17.617   0.802
 7307W        W78836  21.164   2.905   4.730
 7308W        W78837  14.680  38.364   1.838
 7309W        W78838  32.652  24.864  11.525
 7310W        W78839  13.505  19.806  11.336
 7311W        W78840  26.521  37.160  12.130
 7312W        W78841  31.824  17.609  12.074
 7313W        W78842  29.590  18.141  13.100
 7314W        W78843  25.491  42.867   3.612
 7315W        W78844  22.866  15.556   1.225
 7316W        W78845  21.544  20.143  13.007
 7317W        W78846  34.107  37.908  13.150
 7318W        W78847  23.298  32.048  10.175
 7319W        W78848   4.556  33.427   4.247
 7320W        W78849  10.955  17.943   1.263
 7321W        W78850  27.386   2.372  12.303
 7322W        W78851   8.111  43.901  14.416
 7323W        W78852   6.372  34.617   1.456
 7324W        W78853  25.611  11.973   3.699
 7325W        W78854  19.255   4.867  12.105
 7326W        W78855  19.179  11.636  14.734
 7327W        W78856   4.317   7.299   1.007
 7328W        W78857  36.361  32.195   2.192
 7329W        W78858  13.700  39.666   2.180
 7330W        W78859   9.919  36.395   3.811
 7331W        W78860  32.974  31.137  10.761
 7332W        W78861  30.555  27.516   4.532
 7333W        W78862  24.979  29.497   2.992
 7334W        W78863  20.111   1.508  10.357
 7335W        W78864  13.223  25.410  10.665
 7336W        W78865  39.544  15.659  12.857
 7337W        W78866  35.961  11.538  12.377
 7338W        W78867  19.226  30.642   2.674
 7339W        W78868  40.485   8.066  11.640
 7340W        W78869  32.039  37.891   0.468
 7341W        W78870  32.421   1.343  10.680
 7342W        W78871  20.680  15.123   1.860
 7343W        W78872  12.770   9.287   0.465
 7344W        W78873  43.429  24.725   3.572
 7345W        W78874   4.255  17.516   3.781
 7346W        W78875  22.724  24.108   1.294
 7347W        W78876  30.939  41.931  14.513
 7348W        W78877  24.745  24.148  12.846
 7349W        W78878   6.107  24.955   4.969
 7350W        W78879  40.848  24.696   4.182
 7351W        W78880  40.425  32.003   4.471
 7352W        W78881  19.329  16.763   1.304
 7353W        W78882   2.775  27.258  14.431
 7354W        W78883  22.624  27.450  13.684
 7355W        W78884  25.978  14.637   4.768
 7356W        W78885  19.666   6.022  14.794
 7357W        W78886  26.730  28.121  10.808
 7358W        W78887  11.939  12.427   0.940
 7359W        W78888   8.425  15.571  13.522
 7360W        W78889   3.188  10.272   4.625
 7361W        W78890  11.639  33.416  13.367
 7362W        W78891   9.501   7.130  11.862
 7363W        W78892   0.299  19.610  14.791
 7364W        W78893  31.628  31.042   1.160
 7365W        W78894  25.459  26.981   0.707
 7366W        W78895  35.387   6.727   0.533
 7367W        W78896  34.157  19.666  12.003
 7368W        W78897  22.715  44.238  14.797
 7369W        W78898  33.971   3.026  11.007
 7370W        W78899   0.639  40.953   4.572
 7371W        W78900  35.682  44.597  13.689
 7372W        W78901  41.137  13.775   4.594
 7373W        W78902  13.117  36.137   3.637
 7374W        W78903  28.060  33.945  14.318
 7375W        W78904  25.617  44.270   4.316
 7376W        W78905  42.040  42.098   3.604
 7377W        W78906  43.841  21.883  11.604
 7378W        W78907  39.931  23.961  12.556
 7379W        W78908  30.601  11.837  13.985
 7380W        W78909  41.859  37.789  13.104
 7381W        W78910  14.293  35.353   2.354
 7382W        W78911  36.289  34.444  11.248
 7383W        W78912   8.331   1.204  13.308
 7384W        W78913  19.584   7.369   3.059
 7385W        W78914  23.765  31.798  11.064
 7386W        W78915  37.880  42.385  12.962
 7387W        W78916   9.067   8.312   1.729
 7388W        W78917  41.953  31.925   0.273
 7389W        W78918  10.465  33.951  14.228
 7390W        W78919   3.674  38.107   0.511
 7391W        W78920  23.909   2.736   2.507
 7392W        W78921  34.352  12.199  12.107
 7393W        W78922   2.427  21.782   4.168
 7394W        W78923  25.032  12.693  13.979
 7395W        W78924   7.638  34.987  12.894
 7396W        W78925   2.304  42.662   9.790
 7397W        W78926  25.452  37.420  14.123
 7398W        W78927  20.558  42.526  12.659
 7399W        W78928  28.021  26.490   2.616
 7400W        W78929  33.872  36.423  13.320
 7401W        W78930   0.852  41.049   0.079
 7402W        W78931  10.243  43.944  12.433
 7403W        W78932  23.868  31.584  14.364
 7404W        W78933  21.947   5.888   3.545
 7405W        W78934   6.213  20.781  13.917
 7406W        W78935  17.599  36.427  10.761
 7407W        W78936  23.915  33.082  11.810
 7408W        W78937  22.700  22.950  11.532
 7409W        W78938   2.931   8.695   4.028
 7410W        W78939   5.673  22.236  13.753
 7411W        W78940  16.229  14.402  14.129
 7412W        W78941  41.982  21.499   4.252
 7413W        W78942  34.968  37.404  13.433
 7414W        W78943  25.175  14.259  13.915
 7415W        W78944  17.576  32.786  14.755
 7416W        W78945  14.267  16.263  11.732
 7417W        W78946  19.579  38.090   0.706
 7418W        W78947  35.658   8.288   2.898
 7419W        W78948  25.669   4.405  11.151
 7420W        W78949  14.751  31.961  10.060
 7421W        W78950  17.145  29.383  14.034
 7422W        W78951  21.885  23.722   1.203
 7423W        W78952  23.138  39.063   0.781
 7424W        W78953  22.074  33.758  12.274
 7425W        W78954  31.429  34.377  13.974
 7426W        W78955   3.238  24.094  10.758
 7427W        W78956  44.014  24.308   4.381
 7428W        W78957  35.971  18.381  13.949
 7429W        W78958  11.330   0.216   1.235
 7430W        W78959  44.587  29.652   4.153
 7431W        W78960  12.741   8.355   2.835
 7432W        W78961  12.772   1.840  12.536
 7433W        W78962  28.770  38.327   1.268
 7434W        W78963  15.992  40.585   1.137
 7435W        W78964   7.709  33.181  12.566
 7436W        W78965  22.411  39.884   0.501
 7437W        W78966  16.126  34.041  10.978
 7438W        W78967  36.693  26.661   3.854
 7439W        W78968  31.554  27.699   1.543
 7440W        W78969   5.374  15.772  11.621
 7441W        W78970  27.797  16.248  10.734
 7442W        W78971   7.818   3.462  11.090
 7443W        W78972   7.648  14.425   2.205
 7444W        W78973  36.496  17.170   4.674
 7445W        W78974  16.785  37.374   3.219
 7446W        W78975   9.830  10.625  13.015
 7447W        W78976  16.506  17.849   0.346
 7448W        W78977  12.776  19.768  10.691
 7449W        W78978  25.632   0.534   0.374
 7450W        W78979   4.975  36.822  12.096
 7451W        W78980  18.527  16.827   0.179
 7452W        W78981  27.236  10.764   4.666
 7453W        W78982  13.528  25.876   1.815
 7454W        W78983  39.497  13.754  11.420
 7455W        W78984   1.871  31.699   4.174
 7456W        W78985  16.365   6.779   0.379
 7457W        W78986  13.122  44.958   2.258
 7458W        W78987   9.233  29.112   3.092
 7459W        W78988  41.279   4.213   4.294
 7460W        W78989  29.055  33.045  12.653
 7461W        W78990  21.937  20.093  12.171
 7462W        W78991   8.468  30.123  14.370
 7463W        W78992  29.141  12.151   3.757
 7464W        W78993  37.471  24.534   0.421
 7465W        W78994  33.543  13.157   1.901
 7466W        W78995  43.300  22.710   1.496
 7467W        W78996  42.964  28.004  10.423
 7468W        W78997  39.864  32.031   1.898
 7469W        W78998  43.240   5.337   0.357
 7470W        W78999  21.598  11.128   3.400
 7471W        W79000   0.240  14.294  14.490
 7472W        W79001  24.394  43.925   0.920
 7473W        W79002  15.914  42.717  11.931
 7474W        W79003  13.721   5.783  14.738
 7475W        W79004  15.337  14.729  14.909
 7476W        W79005  10.383  11.939  13.945
 7477W        W79006  42.832   8.857  13.557
 7478W        W79007   6.611  21.692   2.831
 7479W        W79008   2.438  21.000   4.661
 7480W        W79009  10.268  11.708  11.663
 7481W        W79010   1.033  20.199   4.143
 7482W        W79011  22.530  39.980   3.678
 7483W        W79012  21.131  41.845   4.781
 7484W        W79013  36.324  25.091  14.811
 7485W        W79014  38.849  12.475  14.864
 7486W        W79015   9.674  21.643  12.538
 7487W        W79016  38.111  22.545   4.546
 7488W        W79017  16.279  28.374  11.698
 7489W        W79018   5.482  38.442  11.642
 7490W        W79019  14.969  43.448  12.617
 7491W        W79020  30.046   4.122   2.062
 7492W        W79021  23.071  37.802   2.322
 7493W        W79022  20.369  18.981   1.300
 7494W        W79023   5.776   0.219   4.405
 7495W        W79024  34.936  12.605  11.145
 7496W        W79025  42.295  11.188  14.554
 7497W        W79026  14.188  35.909   0.771
 7498W        W79027  41.841   8.875  14.961
 7499W        W79028   9.178  19.354   4.326
 7500W        W79029  44.970   1.074  11.009
 7501W        W79030  20.305  44.826   0.885
 7502W        W79031  21.561   7.128  14.357
 7503W        W79032  30.998  41.457   0.383
 7504W        W79033   5.914  18.960  14.908
 7505W        W79034   2.018  12.780   0.952
 7506W        W79035  15.653  19.911  13.470
 7507W        W79036  30.652   1.249  12.352
 7508W        W79037   1.585  40.253   1.485
 7509W        W79038  18.339  16.897   1.007
 7510W        W79039  38.912  38.717  13.505
 7511W        W79040   3.263  40.943   3.109
 7512W        W79041  30.755  44.667   4.850
 7513W        W79042   2.993  26.234  10.588
 7514W        W79043  32.725  28.767   1.474
 7515W        W79044   0.731  14.474  14.447
 7516W        W79045  22.747  26.869   4.314
 7517W        W79046  14.874  43.277   3.356
 7518W        W79047  19.189  10.305   0.315
 7519W        W79048   1.949   6.756   4.965
 7520W        W79049  31.638  12.673   2.165
 7521W        W79050  11.945  12.802   3.151
 7522W        W79051  18.103  21.603   3.718
 7523W        W79052   2.565  18.954   0.358
 7524W        W79053  34.371  10.408  10.691
 7525W        W79054  42.865   2.021  10.227
 7526W        W79055   0.939  19.162   1.136
 7527W        W79056   9.333  21.704  10.833
 7528W        W79057   4.964  35.442  14.910
 7529W        W79058  30.465  34.532  12.906
 7530W        W79059  30.013  33.530   1.939
 7531W        W79060  40.785  31.087   3.006
 7532W        W79061   7.804  21.705  13.794
 7533W        W79062  23.272  32.901   2.643
 7534W        W79063   9.981  28.694  14.257
 7535W        W79064  36.945   0.842   2.239
 7536W        W79065   9.362   6.821   4.339
 7537W        W79066  31.670  15.582   3.140
 7538W        W79067   1.477  28.509   1.718
 7539W        W79068  37.909  10.595  14.776
 7540W        W79069  28.279  43.859   1.883
 7541W        W79070   2.156  35.656  10.647
 7542W        W79071  11.748  38.741   9.962
 7543W        W79072  44.440  23.206   3.935
 7544W        W79073   4.555   0.850   0.486
 7545W        W79074  29.467   8.488   0.173
 7546W        W79075  38.836  24.707   2.818
 7547W        W79076   2.759  37.617  14.969
 7548W        W79077  41.074  23.114  11.164
 7549W        W79078  35.605  34.921  13.360
 7550W        W79079  14.811  30.558   1.300
 7551W        W79080  29.649  37.595  12.924
 7552W        W79081  22.064  40.549   1.925
 7553W        W79082  10.810  12.836  14.828
 7554W        W79083  34.066  16.807  14.275
 7555W        W79084  15.445  38.334  11.084
 7556W        W79085   8.232  31.524   0.877
 7557W        W79086  43.212  35.368  11.129
 7558W        W79087  42.516   7.127   0.023
 7559W        W79088   0.437  32.052   9.767
 7560W        W79089  29.132  37.053   4.576
 7561W        W79090  37.279  39.289   3.161
 7562W        W79091  39.752  14.139   1.365
 7563W        W79092  29.084  13.787   1.691
 7564W        W79093   4.799  29.131  10.675
 7565W        W79094   2.453  41.519  10.970
 7566W        W79095  23.512  38.082  10.517
 7567W        W79096  35.629   9.234  13.504
 7568W        W79097  17.164   5.888   3.546
 7569W        W79098  11.855   3.145   1.648
 7570W        W79099  38.795  15.126   3.769
 7571W        W79100   8.270   0.772   1.185
 7572W        W79101  40.691  13.340   0.458
 7573W        W79102  40.200  41.662   4.107
 7574W        W79103   9.991   4.622  12.776
 7575W        W79104   4.490  32.045  11.585
 7576W        W79105  20.619  23.058   1.469
 7577W        W79106  29.280  22.483  14.419
 7578W        W79107  44.869  30.790   2.718
 7579W        W79108   2.353  13.057  11.640
 7580W        W79109  38.850  42.506   2.093
 7581W        W79110  18.968  20.805   1.457
 7582W        W79111  21.743  14.304  14.333
 7583W        W79112  40.759  36.356  14.832
 7584W        W79113  23.560  42.076  13.022
 7585W        W79114  39.871  15.672   2.584
 7586W        W79115  31.026   8.194   4.316
 7587W        W79116   0.665  44.843   2.268
 7588W        W79117  16.520  18.559  12.563
 7589W        W79118  31.241  16.120   4.047
 7590W        W79119  15.796  12.093   1.475
 7591W        W79120   0.820  23.011   3.339
 7592W        W79121   8.727  21.215   3.866
 7593W        W79122   1.966  22.018   1.564
 7594W        W79123  32.114  14.082   1.320
 7595W        W79124  41.115  39.896   1.325
 7596W        W79125   2.888   5.797  14.999
 7597W        W79126  36.346  10.419   5.120
 7598W        W79127  13.546  37.505   1.495
 7599W        W79128  26.453  24.714  11.962
 7600W        W79129   7.921  14.749   2.824
 7601W        W79130  39.740  41.283   1.754
 7602W        W79131  17.289   2.086  10.493
 7603W        W79132  32.779  13.450  11.001
 7604W        W79133  27.784  34.019   4.000
 7605W        W79134   4.178  38.954   4.082
 7606W        W79135  17.086  43.746   4.918
 7607W        W79136   1.796  43.313  13.498
 7608W        W79137  42.586  34.559   1.412
 7609W        W79138  37.179  14.268   3.150
 7610W        W79139  12.382  30.646  11.479
 7611W        W79140  25.504  16.334  13.842
 7612W        W79141  36.521  42.345   4.564
 7613W        W79142  43.993  34.505  13.475
 7614W        W79143   3.758  31.710  10.672
 7615W        W79144  14.178  19.726  13.435
 7616W        W79145  11.392  33.704  11.905
 7617W        W79146   3.838  40.390   3.519
 7618W        W79147  42.009  11.016   2.200
 7619W        W79148  35.423   9.636   0.768
 7620W        W79149   6.196  37.187  13.319
 7621W        W79150  16.816  19.352   2.242
 7622W        W79151  21.580  28.242   2.261
 7623W        W79152  43.742  18.489  13.896
 7624W        W79153   2.713   6.378   2.260
 7625W        W79154   6.831   8.877  11.055
 7626W        W79155  22.511  11.908   2.233
 7627W        W79156  30.003   2.082  12.657
 7628W        W79157   8.876  12.959  13.098
 7629W        W79158  11.893  44.029   4.651
 7630W        W79159  14.523  42.953  12.467
 7631W        W79160   6.233  24.654   1.087
 7632W        W79161  18.249   8.625   4.290
 7633W        W79162  14.335  30.597  12.188
 7634W        W79163   7.288  13.255   1.498
 7635W        W79164  13.225  23.847   1.301
 7636W        W79165  18.905   0.335  10.625
 7637W        W79166  40.342  33.026   1.105
 7638W        W79167  35.394  23.560   2.250
 7639W        W79168  27.448  26.742  14.827
 7640W        W79169  33.528  40.267  10.765
 7641W        W79170  24.557  41.297   4.249
 7642W        W79171  40.932  29.990   2.172
 7643W        W79172  44.730  27.987   0.314
 7644W        W79173  35.672  21.088   1.484
 7645W        W79174  31.582  43.964   2.356
 7646W        W79175  10.756  17.554   4.372
 7647W        W79176  41.882  21.013  10.626
 7648W        W79177  25.615  37.667  12.025
 7649W        W79178  37.777  22.613   4.144
 7650W        W79179  41.039  41.345   3.605
 7651W        W79180  23.108   4.937  11.551
 7652W        W79181  32.807  12.827  11.469
 7653W        W79182   6.713  14.320  12.989
 7654W        W79183   3.434  27.534  13.910
 7655W        W79184  41.487  18.239  12.227
 7656W        W79185   3.733   7.331   4.718
 7657W        W79186  21.373  17.533   1.265
 7658W        W79187  27.447  10.433   2.839
 7659W        W79188  17.666  15.697  13.565
 7660W        W79189  15.362  43.412  10.886
 7661W        W79190  35.902  40.394   2.579
 7662W        W79191  16.797  11.177  14.512
 7663W        W79192   8.886  28.264   1.005
 7664W        W79193   3.825  41.759  13.413
 7665W        W79194  13.622  33.640  13.025
 7666W        W79195   6.364  31.380  14.923
 7667W        W79196  27.911  12.489   0.886
 7668W        W79197  39.004  32.864  13.524
 7669W        W79198  33.958  10.559  13.864
 7670W        W79199  24.134   5.910   1.838
 7671W        W79200   8.874  27.408  12.969
 7672W        W79201   9.225  24.130   1.884
 7673W        W79202   7.685   6.791  13.313
 7674W        W79203   2.178  41.084  14.811
 7675W        W79204  33.110  17.309  10.859
 7676W        W79205   9.402  37.307   1.878
 7677W        W79206  30.964  29.881  14.032
 7678W        W79207  37.483  32.662  12.221
 7679W        W79208  14.882  42.891  14.358
 7680W        W79209  38.281  27.580   0.743
 7681W        W79210   7.867  30.926  12.925
 7682W        W79211  11.902  15.868   2.710
 7683W        W79212  17.654  43.542  10.842
 7684W        W79213  28.241  36.632  11.189
 7685W        W79214   5.852  21.582   1.815
 7686W        W79215  15.079  33.340  10.622
 7687W        W79216  10.663  24.678  13.341
 7688W        W79217  10.334  28.173   1.454
 7689W        W79218  26.503  14.022   0.749
 7690W        W79219  31.600   8.309  12.314
 7691W        W79220  36.341  18.293   2.212
 7692W        W79221  22.743  17.179  14.319
 7693W        W79222  27.463   5.351   2.866
 7694W        W79223  40.829  29.213   2.722
 7695W        W79224  27.384  20.642   0.720
 7696W        W79225  39.864   3.936  13.925
 7697W        W79226  13.079  10.298  11.137
 7698W        W79227  34.192  25.076   4.129
 7699W        W79228  10.231  35.414  13.042
 7700W        W79229  25.231  17.071   4.118
 7701W        W79230  23.768  11.672  11.992
 7702W        W79231   3.774  16.695   0.668
 7703W        W79232   7.762  38.553   2.407
 7704W        W79233  12.342   9.713  12.198
 7705W        W79234  23.185  15.354  12.886
 7706W        W79235   5.615  39.800  11.965
 7707W        W79236   3.491  25.104  13.969
 7708W        W79237  17.657  23.683  11.049
 7709W        W79238  32.287  35.171   0.387
 7710W        W79239  32.989  27.987  13.847
 7711W        W79240  18.264   7.112   0.998
 7712W        W79241   4.684  41.343  11.490
 7713W        W79242  44.935  21.517   0.239
 7714W        W79243  17.993  38.054   1.883
 7715W        W79244  41.589  31.644  10.635
 7716W        W79245  44.896  41.862   2.233
 7717W        W79246  25.559  11.665   1.168
 7718W        W79247   2.983  18.783   1.704
 7719W        W79248  12.747   1.345   1.920
 7720W        W79249  23.731  43.810  12.408
 7721W        W79250  15.112  12.170   2.202
 7722W        W79251   1.605  26.119  13.672
 7723W        W79252  18.367  21.634   1.363
 7724W        W79253   2.408  11.223  11.831
 7725W        W79254  41.272  25.426   0.487
 7726W        W79255  23.225  22.805  14.463
 7727W        W79256   4.927  37.608  14.981
 7728W        W79257  40.760  13.183   3.214
 7729W        W79258  37.396  31.685   1.474
 7730W        W79259  42.835   1.813   3.375
 7731W        W79260  14.667   2.043  12.425
 7732W        W79261  22.708   7.814   1.087
 7733W        W79262  19.454  41.269  13.445
 7734W        W79263  21.533  17.516   2.786
 7735W        W79264  15.736   0.541   0.874
 7736W        W79265  28.617  21.506  14.073
 7737W        W79266  33.067  31.913   3.696
 7738W        W79267  44.166   7.378   5.025
 7739W        W79268   0.697  38.547  13.147
 7740W        W79269  22.661  40.207   3.237
 7741W        W79270  21.460  21.659   4.675
 7742W        W79271  37.718   9.143  14.470
 7743W        W79272  35.633  43.395  12.331
 7744W        W79273   6.184  23.516  13.674
 7745W        W79274  31.732   1.143   0.372
 7746W        W79275  19.987   7.402  14.417
 7747W        W79276  35.906  13.953  13.785
 7748W        W79277   6.458  14.375   1.737
 7749W        W79278  43.843  22.528   3.085
 7750W        W79279  25.358  19.763   4.644
 7751W        W79280  41.716  37.217   3.433
 7752W        W79281   4.319  43.025   0.914
 7753W        W79282  24.225  34.130   1.401
 7754W        W79283  12.819  38.943   2.425
 7755W        W79284  27.416  15.368  14.136
 7756W        W79285  36.346  30.874   2.744
 7757W        W79286  16.155  20.779  11.477
 7758W        W79287  43.420  20.264  14.088
 7759W        W79288   8.334  35.064  11.898
 7760W        W79289  10.851   1.671   4.711
 7761W        W79290  23.776  38.613   0.389
 7762W        W79291  26.502   0.850  10.992
 7763W        W79292  16.263  10.724   4.552
 7764W        W79293  24.208  32.297   4.295
 7765W        W79294  38.757  12.916   3.809
 7766W        W79295  14.181  38.234  14.439
 7767W        W79296  16.343  32.630   0.412
 7768W        W79297  12.681  38.256  13.399
 7769W        W79298  13.313  22.491  14.111
 7770W        W79299  18.328  42.873  10.709
 7771W        W79300  44.745  23.667   4.079
 7772W        W79301  30.620  24.998  12.085
 7773W        W79302   0.362   2.725  14.141
 7774W        W79303  23.988  26.322  10.952
 7775W        W79304  26.692  15.167  11.169
 7776W        W79305  39.683  44.503   3.316
 7777W        W79306  16.626  13.285   3.710
 7778W        W79307   7.856   1.962   2.321
 7779W        W79308   2.499  32.560   2.115
 7780W        W79309  38.934  13.796   4.056
 7781W        W79310  36.893  41.811  11.393
 7782W        W79311  43.376  16.598   4.782
 7783W        W79312  23.047  12.674  13.148
 7784W        W79313   2.209  38.569  12.149
 7785W        W79314   2.441  19.485   0.362
 7786W        W79315  42.142  30.106  12.375
 7787W        W79316  30.033  36.845  14.770
 7788W        W79317   8.169   7.285   2.258
 7789W        W79318  38.737  22.157   0.336
 7790W        W79319  29.166  20.826  10.694
 7791W        W79320  18.607  37.320  13.232
 7792W        W79321  30.167  19.850  13.393
 7793W        W79322   2.475   5.161   1.939
 7794W        W79323  27.084  10.103  12.796
 7795W        W79324   9.634  11.097  11.004
 7796W        W79325  42.535  30.405   1.883
 7797W        W79326  11.268  34.110  11.172
 7798W        W79327  16.874  25.459  13.382
 7799W        W79328  19.908  35.099  13.082
 7800W        W79329  34.013  12.598   0.005
 7801W        W79330  25.266   6.786  10.947
 7802W        W79331  21.635  24.267   3.686
 7803W        W79332  28.422   7.889   3.716
 7804W        W79333  34.029  44.418  11.952
 7805W        W79334  16.127   9.803   3.724
 7806W        W79335  32.074  11.836  14.398
 7807W        W79336  27.780  42.915  13.471
 7808W        W79337  12.789  10.295   1.862
 7809W        W79338   4.998  40.821   0.924
 7810W        W79339  42.931  13.805   0.491
 7811W        W79340  25.095  24.237   1.222
 7812W        W79341   1.539  43.682   3.126
 7813W        W79342  12.370   2.993   0.727
 7814W        W79343  43.055  19.054   0.422
 7815W        W79344   4.935  32.044   1.325
 7816W        W79345  37.053   6.892   2.732
 7817W        W79346   5.374   4.518  10.304
 7818W        W79347   2.756  42.920   1.320
 7819W        W79348  39.859   0.943   0.420
 7820W        W79349  38.600  32.551   1.122
 7821W        W79350  15.814   8.210  14.277
 7822W        W79351  11.638   3.303   2.599
 7823W        W79352  44.037  24.602  12.997
 7824W        W79353   4.789   3.403  11.427
 7825W        W79354  43.874   7.427   4.596
 7826W        W79355  22.336  36.571   2.157
 7827W        W79356  36.123  40.899  10.688
 7828W        W79357   2.310   6.813  14.450
 7829W        W79358   0.084  25.252   1.028
 7830W        W79359  13.052  32.100   0.455
 7831W        W79360  16.156  22.799  10.662
 7832W        W79361  12.198  29.589  14.936
 7833W        W79362  43.590  38.793  12.526
 7834W        W79363   4.614   8.520  12.996
 7835W        W79364  37.376  22.772  11.126
 7836W        W79365   0.383   0.073  12.633
 7837W        W79366   2.248  28.125   4.976
 7838W        W79367  44.970  23.540   0.486
 7839W        W79368   1.904  21.065  14.097
 7840W        W79369  34.066  29.174   1.244
 7841W        W79370  28.683  10.714   3.606
 7842W        W79371  30.868  35.347   4.992
 7843W        W79372  18.669  24.166   1.899
 7844W        W79373   5.792  15.181   4.531
 7845W        W79374  13.257  34.583  14.858
 7846W        W79375   2.921  16.732   3.669
 7847W        W79376  30.870  18.724   3.940
 7848W        W79377  14.210  14.187  10.643
 7849W        W79378  10.227   3.253  11.484
 7850W        W79379  42.341  33.629  14.422
 7851W        W79380  38.472  22.018  13.390
 7852W        W79381  21.483  37.642  10.726
 7853W        W79382   2.517  19.570   2.246
 7854W        W79383  24.962  24.520  13.992
 7855W        W79384  42.968  11.299   2.342
 7856W        W79385  27.173  25.945  12.146
 7857W        W79386  17.180  43.255   5.207
 7858W        W79387  23.133  29.911  11.193
 7859W        W79388  15.218  14.797   2.596
 7860W        W79389  40.897   7.715   0.940
 7861W        W79390  37.620  12.328   0.018
 7862W        W79391  36.204   9.664  12.793
 7863W        W79392  15.784  31.419   1.241
 7864W        W79393  43.814  11.070   0.775
 7865W        W79394  43.915  22.638   0.231
 7866W        W79395   9.667  21.508   2.916
 7867W        W79396   8.437  10.914  10.661
 7868W        W79397  16.382  13.055   3.273
 7869W        W79398  10.251  22.738   2.166
 7870W        W79399  40.422  24.264   2.285
 7871W        W79400  24.180  33.854   3.699
 7872W        W79401  17.303  24.083  14.026
 7873W        W79402   1.365  43.980  12.363
 7874W        W79403  23.727  41.322  13.463
 7875W        W79404  28.547   1.562   2.144
 7876W        W79405  28.350   9.973   4.503
 7877W        W79406  44.437  23.278   3.426
 7878W        W79407  27.373  35.783   4.117
 7879W        W79408   7.172  27.968  14.511
 7880W        W79409  36.057  40.899   1.284
 7881W        W79410  19.843  23.079  12.459
 7882W        W79411  28.821  32.472  10.183
 7883W        W79412   1.688   3.848  13.892
 7884W        W79413  37.323  29.478  11.792
 7885W        W79414   3.816  36.523   4.995
 7886W        W79415  24.937  23.494  12.432
 7887W        W79416  33.082   8.361  10.701
 7888W        W79417  16.069   9.771   0.281
 7889W        W79418  21.272  38.448  11.136
 7890W        W79419  41.278  37.578   3.742
 7891W        W79420   6.740   8.603  14.320
 7892W        W79421   3.793   7.626  11.484
 7893W        W79422  34.457  43.334  11.052
 7894W        W79423  30.729  42.396  14.282
 7895W        W79424   8.144  25.181  11.899
 7896W        W79425  42.999  36.281   2.175
 7897W        W79426  44.758  43.002  14.276
 7898W        W79427  12.669  21.706   2.418
 7899W        W79428  10.359  33.879   1.396
 7900W        W79429  32.569  40.369   3.162
 7901W        W79430  40.114   3.810  11.954
 7902W        W79431  31.483  41.924   0.385
 7903W        W79432   6.672  30.175   1.044
 7904W        W79433  42.838  13.641  13.846
 7905W        W79434  40.255  13.186   3.295
 7906W        W79435  24.645   6.400  13.772
 7907W        W79436   3.535  27.425  14.808
 7908W        W79437  41.817  21.444  13.340
 7909W        W79438  13.764  16.266   4.460
 7910W        W79439   0.181  18.406  13.282
 7911W        W79440  10.134  40.796   5.023
 7912W        W79441  38.406  29.353   4.194
 7913W        W79442  16.495  22.912   2.500
 7914W        W79443  44.868  28.425   2.320
 7915W        W79444   2.319  34.449  13.658
 7916W        W79445  25.926  22.052   1.786
 7917W        W79446   6.184   4.777   4.226
 7918W        W79447   7.805  44.427   4.196
 7919W        W79448  14.784  11.109   0.375
 7920W        W79449  15.109  27.300  13.043
 7921W        W79450  38.573  37.447   3.660
 7922W        W79451   6.431  41.445   0.684
 7923W        W79452   2.781   7.132  14.848
 7924W        W79453  33.658  14.853   3.580
 7925W        W79454   7.799   6.887   1.353
 7926W        W79455  41.073  18.688   1.698
 7927W        W79456  20.112  27.051   2.619
 7928W        W79457  12.555  41.815   1.804
 7929W        W79458  32.879  17.675  11.140
 7930W        W79459  15.055  18.257   3.866
 7931W        W79460  33.136  23.055   2.383
 7932W        W79461   6.252  42.125   3.167
 7933W        W79462  39.518  15.199   1.302
 7934W        W79463   0.912  15.136   0.631
 7935W        W79464  10.147  36.628  13.454
 7936W        W79465   0.104  20.620   0.570
 7937W        W79466  20.856  28.025  13.441
 7938W        W79467  37.472  13.903  13.452
 7939W        W79468  41.568  17.452   3.818
 7940W        W79469  24.705  44.250  12.611
 7941W        W79470  30.852  21.650  11.946
 7942W        W79471  13.308   3.457   3.541
 7943W        W79472  38.626  38.797  14.014
 7944W        W79473  20.565  21.215   1.353
 7945W        W79474  34.059  33.593   0.313
 7946W        W79475   2.410  10.613   3.722
 7947W        W79476  36.632  38.923  14.088
 7948W        W79477  26.195   1.229  11.205
 7949W        W79478  17.809   8.780   4.107
 7950W        W79479  38.479  21.361   0.788
 7951W        W79480  30.159  14.757  13.534
 7952W        W79481   3.913  29.547  12.462
 7953W        W79482  37.537  31.781  12.031
 7954W        W79483  32.684   9.736   1.319
 7955W        W79484  20.144  16.238   1.045
 7956W        W79485  18.721  24.245   3.145
 7957W        W79486   3.936   4.110   2.205
 7958W        W79487  44.610   6.375  13.907
 7959W        W79488   4.346  42.390   4.205
 7960W        W79489  42.581  10.898   4.359
 7961W        W79490  14.052   6.023   4.491
 7962W        W79491  25.454  11.859  10.665
 7963W        W79492  40.477  13.062   2.818
 7964W        W79493   9.840  15.771  10.669
 7965W        W79494  18.136  40.817   3.120
 7966W        W79495  17.326  36.702   4.829
 7967W        W79496  34.862   3.937  10.770
 7968W        W79497   6.565  20.074   3.196
 7969W        W79498  12.358   6.862   4.228
 7970W        W79499  37.038  18.662   3.830
 7971W        W79500  27.247  26.988   3.057
 7972W        W79501  37.997  17.185   1.593
 7973W        W79502   5.421  22.958  14.789
 7974W        W79503  32.344   0.984  11.949
 7975W        W79504   4.657  22.215  12.754
 7976W        W79505  17.829   6.587  11.286
 7977W        W79506  26.865  43.829   4.176
 7978W        W79507   3.894   4.719   0.293
 7979W        W79508  33.413  38.923  13.308
 7980W        W79509  14.705   8.282   2.229
 7981W        W79510  19.817  34.355  12.116
 7982W        W79511  43.417  21.355  12.818
 7983W        W79512  28.459  13.804   0.907
 7984W        W79513  36.535   7.953  12.553
 7985W        W79514  39.035  19.291  13.801
 7986W        W79515   1.529  35.544   1.858
 7987W        W79516  35.051  17.887  14.057
 7988W        W79517  15.715  14.800   4.831
 7989W        W79518  43.722  40.278  11.564
 7990W        W79519  30.115  21.292  10.750
 7991W        W79520  34.434  14.986  10.865
 7992W        W79521  42.296   7.945  11.999
 7993W        W79522   2.072  27.991   4.525
 7994W        W79523  15.062   2.213   0.919
 7995W        W79524  31.703  41.237  11.121
 7996W        W79525   6.035  19.637   3.971
 7997W        W79526  18.649   3.883   4.257
 7998W        W79527   2.207  30.596  14.260
 7999W        W79528  19.090  21.888   0.688
 8000W        W79529  15.612  14.634   1.759
 8001W        W79530  39.309  33.986  10.943
 8002W        W79531  17.727  22.592   2.658
 8003W        W79532  21.171  25.842  11.634
 8004W        W79533  44.403  26.583   2.841
 8005W        W79534  37.592   8.107  14.305
 8006W        W79535  15.662   2.491   4.173
 8007W        W79536  33.667  12.601  11.093
 8008W        W79537   5.130  18.611  13.413
 8009W        W79538  18.674  39.897  12.412
 8010W        W79539  37.064  12.423  11.551
 8011W        W79540  27.706  17.340  14.513
 8012W        W79541  27.684   6.396  13.549
 8013W        W79542  28.009   1.519  13.478
 8014W        W79543   2.308  10.226   9.845
 8015W        W79544   4.490   9.818   1.670
 8016W        W79545  26.632  21.068  11.456
 8017W        W79546  18.162  35.153  12.077
 8018W        W79547  27.892   3.763  14.424
 8019W        W79548  16.799   7.364  14.315
 8020W        W79549  28.569  13.889  13.692
 8021W        W79550  44.706  20.795  12.898
 8022W        W79551   6.150  22.474   3.235
 8023W        W79552  28.244   5.921   4.541
 8024W        W79553   4.413   2.469   2.925
 8025W        W79554  43.787   5.683  14.756
 8026W        W79555  10.385  32.725   3.163
 8027W        W79556   8.077  14.414  12.026
 8028W        W79557  35.869  14.796   1.894
 8029W        W79558  38.940  37.302   0.549
 8030W        W79559  14.610  26.848  11.445
 8031W        W79560  22.453   9.262  12.786
 8032W        W79561  15.095   3.175   4.108
 8033W        W79562  14.591   4.820  12.439
 8034W        W79563  19.183  16.027   2.137
 8035W        W79564  43.832  12.289   2.310
 8036W        W79565  23.424  10.988  13.413
 8037W        W79566  21.384  22.520   4.304
 8038W        W79567   2.208  29.461   1.475
 8039W        W79568   4.831  18.026  14.035
 8040W        W79569  19.286   5.712  13.015
 8041W        W79570  13.735   6.805   2.876
 8042W        W79571  38.318  30.957   2.859
 8043W        W79572  18.301   6.822  13.111
 8044W        W79573   4.266  39.908   0.452
 8045W        W79574   5.630  43.822   0.651
 8046W        W79575   9.807  18.796   4.936
 8047W        W79576  27.936  31.664   0.467
 8048W        W79577  28.175  41.396  11.874
 8049W        W79578   0.785   6.272   0.392
 8050W        W79579   1.855  37.461   1.718
 8051W        W79580  43.275  19.025  13.252
 8052W        W79581  43.990  19.649  11.144
 8053W        W79582  30.630  32.150  14.929
 8054W        W79583  27.659  13.637  10.459
 8055W        W79584   0.228  20.459  13.947
 8056W        W79585  26.585   1.779  10.561
 8057W        W79586  16.057  41.515  14.358
 8058W        W79587  16.315  18.680   2.696
 8059W        W79588  42.896   8.945  10.788
 8060W        W79589  25.625  41.201  11.512
 8061W        W79590  30.495  38.369   4.748
 8062W        W79591  42.900  40.480   3.557
 8063W        W79592  42.933  19.206   4.186
 8064W        W79593  32.458  31.890   3.351
 8065W        W79594   3.792  34.870  13.384
 8066W        W79595   9.366  17.691   1.496
 8067W        W79596  19.037   3.722   0.697
 8068W        W79597  42.932   8.433  12.866
 8069W        W79598  39.977  16.262  12.543
 8070W        W79599  22.634  16.087  11.172
 8071W        W79600  27.672  15.292  14.970
 8072W        W79601  28.706  41.264   1.954
 8073W        W79602   3.428  40.378   1.296
 8074W        W79603  24.970   7.406   0.844
 8075W        W79604  14.299  15.750   3.303
 8076W        W79605  33.310  40.195  10.303
 8077W        W79606  44.805  26.568   0.239
 8078W        W79607   2.181  22.480   1.860
 8079W        W79608  35.567  13.772   4.511
 8080W        W79609  14.257  35.848  13.316
 8081W        W79610  15.501  22.663   4.473
 8082W        W79611  19.291  35.345   3.841
 8083W        W79612  35.506  11.348  12.609
 8084W        W79613   4.868   8.126  13.728
 8085W        W79614  31.538  18.822  13.946
 8086W        W79615  27.154  12.261  12.636
 8087W        W79616  12.107   8.142   0.313
 8088W        W79617   9.633  16.304  13.872
 8089W        W79618  12.611  12.756   0.209
 8090W        W79619  10.163  24.148   2.640
 8091W        W79620  12.846  25.598  12.605
 8092W        W79621   1.278   1.247  13.902
 8093W        W79622  29.247   4.478  14.231
 8094W        W79623   4.810  24.599   0.226
 8095W        W79624  16.702   2.965   1.914
 8096W        W79625  13.800   2.865   4.842
 8097W        W79626  16.424  24.149  13.838
 8098W        W79627  30.889  42.779  10.590
 8099W        W79628  43.588  10.847   3.735
 8100W        W79629   5.802   3.373  11.498
 8101W        W79630  18.720  10.435   1.291
 8102W        W79631  42.225  19.176   2.921
 8103W        W79632  39.932  40.856  11.666
 8104W        W79633  15.742  23.160  11.933
 8105W        W79634   1.905  35.159  14.436
 8106W        W79635  17.000   6.512  11.126
 8107W        W79636   8.911   9.222   0.813
 8108W        W79637  16.665  12.304   3.895
 8109W        W79638  42.395  19.085  11.935
 8110W        W79639  42.395  42.286   0.826
 8111W        W79640  40.869  28.209  12.552
 8112W        W79641  33.135  31.675   0.910
 8113W        W79642   4.087  28.637   4.578
 8114W        W79643  35.407  26.899   1.806
 8115W        W79644  35.343   7.951  12.070
 8116W        W79645  13.759  10.035  10.761
 8117W        W79646  44.978  19.123  10.692
 8118W        W79647   1.240  24.634  13.019
 8119W        W79648  29.621   3.167  13.080
 8120W        W79649  26.709  40.298   1.305
 8121W        W79650  40.803  12.399   1.757
 8122W        W79651  35.868  44.501   4.695
 8123W        W79652  27.043  19.057  12.463
 8124W        W79653  31.763  38.372  12.291
 8125W        W79654  32.113  14.826  13.987
 8126W        W79655  11.856  10.168   2.335
 8127W        W79656  35.369   5.181   4.654
 8128W        W79657  39.076   3.964   3.506
 8129W        W79658  32.634  18.472  11.534
 8130W        W79659  26.618   1.183  12.429
 8131W        W79660   6.672  41.761  10.638
 8132W        W79661  18.775  38.529  10.806
 8133W        W79662  28.229   7.761   5.214
 8134W        W79663  17.630   7.652   0.281
 8135W        W79664  21.126   3.034   0.301
 8136W        W79665  41.509  44.502  12.349
 8137W        W79666  44.480   4.817  10.933
 8138W        W79667   3.263  26.522   4.364
 8139W        W79668  34.633  42.268  12.401
 8140W        W79669  23.082  11.247   3.016
 8141W        W79670   4.146   0.514  11.170
 8142W        W79671  10.145  27.927   4.546
 8143W        W79672   8.703  36.865   0.316
 8144W        W79673  31.950  31.054   1.578
 8145W        W79674   2.000   7.710   0.279
 8146W        W79675  21.006   6.109   1.072
 8147W        W79676  18.745  19.484  10.427
 8148W        W79677  13.686  24.554  14.747
 8149W        W79678  38.374  38.060   1.918
 8150W        W79679  39.326   9.977   3.743
 8151W        W79680  28.472  20.225   2.153
 8152W        W79681   4.417   5.679  11.999
 8153W        W79682  36.581  12.365  14.421
 8154W        W79683  22.184  40.582   4.118
 8155W        W79684   1.568  18.668  10.924
 8156W        W79685  31.098  15.230   3.713
 8157W        W79686   7.329  44.707  13.456
 8158W        W79687  35.152   5.275   0.797
 8159W        W79688  24.185  12.077  11.323
 8160W        W79689   9.554  36.910  11.506
 8161W        W79690  21.753  25.686   2.766
 8162W        W79691  34.876  30.945   0.976
 8163W        W79692  25.938  12.374   3.734
 8164W        W79693   0.183  31.178   3.689
 8165W        W79694  37.647   5.289  13.484
 8166W        W79695  17.042  28.609   3.547
 8167W        W79696  26.118  31.892  13.955
 8168W        W79697  19.061  43.250  12.696
 8169W        W79698   8.306  26.006   4.375
 8170W        W79699  25.812  16.004  12.863
 8171W        W79700   9.089  15.063   0.039
 8172W        W79701  28.085   4.285   1.625
 8173W        W79702  36.487  41.845   4.759
 8174W        W79703   3.341  19.510   0.440
 8175W        W79704   8.318  29.144   1.627
 8176W        W79705  13.090  24.056   3.680
 8177W        W79706   7.528  42.828  11.165
 8178W        W79707  23.705  32.056   0.266
 8179W        W79708   5.816  36.040   0.447
 8180W        W79709  44.027   7.772  11.530
 8181W        W79710  19.058  38.233   4.007
 8182W        W79711  14.635   3.703  11.987
 8183W        W79712  25.196  43.293   1.395
 8184W        W79713  37.994   8.763   3.735
 8185W        W79714  34.985  28.606  14.767
 8186W        W79715  13.828  18.738   0.500
 8187W        W79716   3.217  16.785   3.272
 8188W        W79717  23.045  44.252  14.001
 8189W        W79718  30.323  18.032   3.463
 8190W        W79719  34.438  37.563  14.873
 8191W        W79720  17.139   6.148   2.433
 8192W        W79721  13.061  27.116   2.201
 8193W        W79722  15.975  35.779   1.887
 8194W        W79723  39.282  18.599  14.453
 8195W        W79724  15.758  13.826  11.931
 8196W        W79725   2.437  15.709   1.075
 8197W        W79726  44.411  39.809   4.686
 8198W        W79727  21.695   2.672  13.507
 8199W        W79728   7.846  19.210  13.381
 8200W        W79729   1.394   9.695  10.577
 8201W        W79730  16.540   1.410  14.537
 8202W        W79731  25.177  28.096   4.407
 8203W        W79732   6.901  36.456   0.339
 8204W        W79733  17.227  35.355  11.632
 8205W        W79734   8.750  37.916  12.579
 8206W        W79735  35.210   4.159  12.071
 8207W        W79736  30.414  22.576   4.719
 8208W        W79737  16.358  41.848  11.465
 8209W        W79738   2.912  15.748   3.686
 8210W        W79739   4.657  27.280  11.927
 8211W        W79740  30.502  11.064   3.123
 8212W        W79741  32.288   9.162   0.810
 8213W        W79742  24.911  29.941  10.960
 8214W        W79743  26.134  21.061   1.631
 8215W        W79744  12.607  19.733  14.410
 8216W        W79745   6.411  36.683  13.336
 8217W        W79746  29.463  23.760   2.100
 8218W        W79747  17.161  12.643  13.649
 8219W        W79748   6.325  40.639  13.917
 8220W        W79749  16.296  19.801   0.844
 8221W        W79750  28.021   3.759  13.931
 8222W        W79751  14.267  21.072  11.625
 8223W        W79752   5.948   5.364  11.141
 8224W        W79753  39.850  15.673  10.991
 8225W        W79754   6.927  38.975   1.670
 8226W        W79755  21.873  21.843   2.326
 8227W        W79756  32.398   0.932  11.013
 8228W        W79757  39.877  22.101   0.377
 8229W        W79758   3.727  43.445   0.339
 8230W        W79759  35.058  20.056   1.751
 8231W        W79760  38.764  42.027   4.968
 8232W        W79761   7.639  25.006   0.433
 8233W        W79762   0.398  42.465   4.511
 8234W        W79763  12.302  24.075  12.802
 8235W        W79764  43.073   3.673  12.399
 8236W        W79765  22.242  30.425   3.851
 8237W        W79766  12.095   3.378   4.189
 8238W        W79767   9.658  24.174   3.593
 8239W        W79768   5.366  33.888   3.837
 8240W        W79769  16.264   1.258  10.537
 8241W        W79770  39.333  39.810  12.957
 8242W        W79771   0.894  18.156  14.951
 8243W        W79772  44.933  17.165  14.904
 8244W        W79773   1.847   2.010  13.866
 8245W        W79774  29.713  29.455  14.260
 8246W        W79775   1.888  27.478  11.863
 8247W        W79776  41.394  35.808  11.848
 8248W        W79777  43.801  44.963   0.710
 8249W        W79778  38.428  23.481  13.982
 8250W        W79779   2.242  27.755   3.147
 8251W        W79780  12.358  28.154  14.929
 8252W        W79781  13.665  42.454  14.983
 8253W        W79782  35.326   2.772  11.469
 8254W        W79783  31.878   9.886  10.532
 8255W        W79784  40.833  15.642  11.354
 8256W        W79785   4.018  21.040   1.400
 8257W        W79786   9.609   3.330   1.803
 8258W        W79787  25.699  30.629   1.863
 8259W        W79788  22.543  25.258  12.437
 8260W        W79789   1.885  12.201  11.121
 8261W        W79790  21.114  19.228   0.740
 8262W        W79791  18.056   7.580   2.882
 8263W        W79792  40.777  39.509   0.452
 8264W        W79793  30.037   0.334   0.061
 8265W        W79794   2.922  32.943  11.958
 8266W        W79795  37.642  22.813   1.394
 8267W        W79796  31.191  14.551   2.853
 8268W        W79797   1.924  22.316   3.472
 8269W        W79798  21.483  28.581  12.386
 8270W        W79799  44.895  21.785  12.806
 8271W        W79800  21.939  32.606   4.015
 8272W        W79801   1.806  18.650   4.647
 8273W        W79802  38.033  11.396   3.704
 8274W        W79803  14.005  43.840   1.892
 8275W        W79804  35.215   9.685  14.310
 8276W        W79805  21.840  22.599  14.108
 8277W        W79806  14.317  42.979   2.355
 8278W        W79807  13.099  14.302  13.541
 8279W        W79808  30.380  25.118   4.251
 8280W        W79809  30.209  20.128  12.965
 8281W        W79810   0.974  16.575   0.751
 8282W        W79811  29.175  15.812   2.779
 8283W        W79812   5.370  30.019   4.324
 8284W        W79813  44.860  28.356  14.923
 8285W        W79814  33.446  12.373  12.925
 8286W        W79815   4.377   1.042   1.469
 8287W        W79816   1.961  42.803   1.797
 8288W        W79817  35.175  41.056   2.785
 8289W        W79818  12.429  44.367   4.814
 8290W        W79819  40.323  29.392  10.710
 8291W        W79820  19.057   7.181  12.859
 8292W        W79821  33.526  24.508  11.430
 8293W        W79822  16.149  32.957   3.634
 8294W        W79823  44.686  24.721  12.149
 8295W        W79824   7.995  30.995   1.457
 8296W        W79825  24.653  21.229  11.264
 8297W        W79826  41.925  44.425   3.311
 8298W        W79827   0.296  42.859  12.101
 8299W        W79828  34.166   5.799  13.121
 8300W        W79829  10.667  15.637   3.265
 8301W        W79830   9.680  39.000  13.429
 8302W        W79831  14.762  32.462  14.721
 8303W        W79832   7.163  19.574   0.870
 8304W        W79833   9.615  33.281  12.433
 8305W        W79834  11.294  36.002  11.402
 8306W        W79835  21.934  42.956   0.919
 8307W        W79836  22.759  18.040  11.953
 8308W        W79837  27.904  23.209   0.328
 8309W        W79838  36.110  32.737  14.932
 8310W        W79839  18.897  25.929   4.352
 8311W        W79840  16.017  22.671   4.562
 8312W        W79841   9.589  35.508   2.888
 8313W        W79842  29.004   4.466   1.655
 8314W        W79843  29.451   0.828   3.635
 8315W        W79844   3.100  19.004   3.290
 8316W        W79845  32.689  20.706   3.027
 8317W        W79846  28.424   3.435   1.293
 8318W        W79847   7.166  32.399  12.611
 8319W        W79848   8.914   9.474  13.426
 8320W        W79849  26.419   9.443  12.886
 8321W        W79850  20.566  15.138   3.394
 8322W        W79851   9.171  37.870  10.638
 8323W        W79852   4.426  44.306  14.416
 8324W        W79853  19.312   0.548   3.195
 8325W        W79854  24.051  21.094   4.090
 8326W        W79855  34.590  18.311   1.906
 8327W        W79856  36.425   3.199  13.568
 8328W        W79857   9.191  22.342  11.190
 8329W        W79858  22.085  31.631  10.857
 8330W        W79859  29.324  11.872   4.165
 8331W        W79860   2.390   0.412  14.774
 8332W        W79861  40.154  11.207   1.499
 8333W        W79862  21.739  23.960   4.117
 8334W        W79863  36.686  16.705   2.172
 8335W        W79864  44.924  38.619  13.869
 8336W        W79865  27.298  38.326  11.898
 8337W        W79866  41.015   0.191  14.803
 8338W        W79867  23.783   4.386  11.225
 8339W        W79868  39.616  13.479  12.288
 8340W        W79869  28.849  32.410  11.604
 8341W        W79870  26.119  27.637  13.753
 8342W        W79871  18.064  26.850   2.131
 8343W        W79872  24.785  25.649   2.827
 8344W        W79873  25.648  17.546  12.600
 8345W        W79874  40.224  33.010  14.454
 8346W        W79875  31.374  32.501  14.121
 8347W        W79876  24.653  36.887   3.202
 8348W        W79877  35.517  11.609  11.678
 8349W        W79878  15.509  11.084   2.804
 8350W        W79879  18.083  43.371   0.764
 8351W        W79880  15.581   7.416  11.964
 8352W        W79881  35.629   8.663   1.928
 8353W        W79882  37.786  37.777  12.146
 8354W        W79883  30.941  11.400  12.193
 8355W        W79884  22.702  28.691  13.221
 8356W        W79885  11.713  18.793  13.390
 8357W        W79886   6.954  15.233  14.398
 8358W        W79887  43.223  42.047   2.124
 8359W        W79888   3.037  38.837   3.280
 8360W        W79889  13.644   5.308   2.786
 8361W        W79890   1.485  37.400  12.079
 8362W        W79891  34.697  19.959   3.192
 8363W        W79892  34.557  19.499  13.074
 8364W        W79893  18.827   1.864   2.615
 8365W        W79894  20.898  14.033  12.908
 8366W        W79895  26.455  28.096   0.716
 8367W        W79896  35.576  21.999  10.740
 8368W        W79897  24.798  40.413  10.771
 8369W        W79898  10.046   5.867   1.877
 8370W        W79899  26.561  40.562   4.508
 8371W        W79900   8.773   6.681  11.861
 8372W        W79901  36.795  26.799   0.350
 8373W        W79902  20.269  17.773   3.358
 8374W        W79903  35.529  33.099   1.724
 8375W        W79904  13.863  21.053   2.222
 8376W        W79905  40.609  29.195   4.684
 8377W        W79906   9.532  29.596  10.686
 8378W        W79907  25.264  11.322  13.468
 8379W        W79908  27.727  39.835  14.018
 8380W        W79909  26.560  29.605   3.741
 8381W        W79910  10.370  14.897   3.855
 8382W        W79911  13.039  42.119  13.309
 8383W        W79912  11.210   1.927  14.309
 8384W        W79913  33.182  34.381   0.480
 8385W        W79914   9.266  13.205  13.351
 8386W        W79915  42.280  29.015   1.772
 8387W        W79916   2.226   0.890   1.831
 8388W        W79917   7.876  43.801  13.926
 8389W        W79918  22.763  23.750  14.372
 8390W        W79919  36.984   8.470   2.888
 8391W        W79920  18.927   4.407  12.967
 8392W        W79921  24.427   2.467   0.933
 8393W        W79922   4.566  14.219   3.743
 8394W        W79923  27.941  29.635  12.050
 8395W        W79924   9.855  11.774  14.046
 8396W        W79925  19.206  24.136   4.059
 8397W        W79926  17.777  24.631   5.035
 8398W        W79927  20.553   6.954   1.492
 8399W        W79928  29.444   4.652   1.302
 8400W        W79929  35.292  11.503   1.847
 8401W        W79930   5.046  32.733   0.056
 8402W        W79931  27.936  15.605  13.010
 8403W        W79932   8.278  23.665  10.365
 8404W        W79933   5.771   2.455  12.720
 8405W        W79934  31.894  25.917   0.589
 8406W        W79935  42.920  21.909  12.092
 8407W        W79936   3.376  43.008  11.083
 8408W        W79937  33.852  40.515  14.842
 8409W        W79938  27.958   7.723   1.016
 8410W        W79939   5.174  37.211   0.268
 8411W        W79940  40.707  18.539  12.908
 8412W        W79941  41.717  10.315  12.480
 8413W        W79942  12.102  29.577  12.471
 8414W        W79943  15.778  31.781  11.337
 8415W        W79944   9.351  25.936  13.859
 8416W        W79945  43.245  16.597   0.667
 8417W        W79946   9.784  30.787   3.414
 8418W        W79947  25.855  44.509   1.650
 8419W        W79948  30.552  15.026  11.888
 8420W        W79949  18.830  34.441   1.178
 8421W        W79950  22.171  18.066   3.372
 8422W        W79951  17.494   0.675   5.161
 8423W        W79952   3.484  11.323   0.741
 8424W        W79953   8.384   2.714   3.833
 8425W        W79954  30.556   2.297  10.957
 8426W        W79955  44.721  35.043   4.557
 8427W        W79956  31.044  11.778  10.277
 8428W        W79957  39.060  26.140   0.470
 8429W        W79958  33.886  24.571  13.859
 8430W        W79959  18.215  16.869  11.086
 8431W        W79960  43.113  33.403  10.306
 8432W        W79961  24.654  33.409   2.904
 8433W        W79962  18.141  18.625  12.576
 8434W        W79963   7.774   0.340   4.789
 8435W        W79964  10.086  17.195   9.996
 8436W        W79965  13.324   0.715   3.618
 8437W        W79966  33.625  27.111   4.315
 8438W        W79967  20.776  13.896  13.532
 8439W        W79968   4.888  20.066  12.505
 8440W        W79969  28.925  13.593  11.272
 8441W        W79970  37.044  29.150  13.984
 8442W        W79971  21.331  26.160   4.740
 8443W        W79972  11.100  22.554   0.820
 8444W        W79973   5.178  35.066   1.847
 8445W        W79974   3.288   2.031  10.767
 8446W        W79975  19.669  38.242  14.408
 8447W        W79976   3.478  19.680  11.020
 8448W        W79977  36.505  18.262   3.571
 8449W        W79978  26.224   4.902  14.484
 8450W        W79979  16.536  38.475  12.260
 8451W        W79980  34.492   0.031   3.682
 8452W        W79981  41.395  17.840   3.377
 8453W        W79982  12.111  21.525   4.517
 8454W        W79983  31.116  11.692  14.039
 8455W        W79984  37.166  34.403  10.935
 8456W        W79985  28.935  24.885  13.486
 8457W        W79986  22.684  26.556  10.210
 8458W        W79987   3.631  36.020  11.598
 8459W        W79988   5.570  13.634  12.876
 8460W        W79989  10.238  16.671   0.053
 8461W        W79990   3.394  12.975   2.185
 8462W        W79991  25.699  18.112   1.244
 8463W        W79992  29.685  19.227   4.623
 8464W        W79993  30.002   5.414  10.592
 8465W        W79994  19.071  43.958  11.434
 8466W        W79995   8.220  40.711   2.365
 8467W        W79996  24.548  41.663   1.845
 8468W        W79997  13.133   9.627   1.221
 8469W        W79998  13.580   5.842   4.539
 8470W        W79999  31.314   4.628   1.244
 8471W        W80000  38.536  11.161   3.825
 8472W        W80001  15.005  43.545   1.723
 8473W        W80002   0.343  16.158  10.705
 8474W        W80003  38.735  36.780  13.847
 8475W        W80004  35.479   0.698  14.593
 8476W        W80005  16.441  20.711   2.161
 8477W        W80006  21.340  14.594   0.280
 8478W        W80007  42.998  18.200  10.729
 8479W        W80008  39.289  43.497  11.204
 8480W        W80009  28.687   9.696  14.869
 8481W        W80010  40.819  36.342  10.639
 8482W        W80011  16.203  32.614   0.945
 8483W        W80012  35.394   3.782   4.426
 8484W        W80013  44.767  29.173   4.168
 8485W        W80014  25.433   4.822   2.143
 8486W        W80015  23.007  27.270   1.717
 8487W        W80016  16.573  41.425  11.273
 8488W        W80017  43.903  31.668  13.425
 8489W        W80018  24.865  28.638   0.277
 8490W        W80019  19.122  39.717   0.056
 8491W        W80020  44.374  21.854   3.255
 8492W        W80021  44.428   4.343   4.247
 8493W        W80022  17.206   7.214   4.789
 8494W        W80023  32.047  42.345   2.434
 8495W        W80024   8.114  29.408  13.550
 8496W        W80025  25.706  12.711   1.231
 8497W        W80026  41.027   9.400  13.375
 8498W        W80027  16.302  24.238   0.016
 8499W        W80028  43.397  44.009   0.063
 8500W        W80029   6.660   8.791  14.804
 8501W        W80030   2.531  25.981  10.599
 8502W        W80031  39.336  41.485   2.748
 8503W        W80032   5.631  33.181  13.580
 8504W        W80033   6.352  16.050   5.067
 8505W        W80034  31.696  20.672   3.572
 8506W        W80035  42.744  11.652  13.935
 8507W        W80036  44.942  19.836   1.373
 8508W        W80037  28.536  26.418   2.717
 8509W        W80038  15.752   7.674   4.154
 8510W        W80039  10.888  28.393  14.308
 8511W        W80040   7.853   8.727   1.656
 8512W        W80041   3.852  35.317  11.093
 8513W        W80042   7.251  44.726   0.427
 8514W        W80043   0.269   7.453   4.639
 8515W        W80044  32.553  13.624  10.580
 8516W        W80045  40.044  35.537   3.293
 8517W        W80046  26.060  41.471  12.951
 8518W        W80047  33.849  27.083   0.312
 8519W        W80048  40.804   5.355  10.667
 8520W        W80049  19.907  26.639  10.629
 8521W        W80050   6.895  38.782   4.068
 8522W        W80051  21.648  23.638   4.538
 8523W        W80052  23.922  27.941  10.371
 8524W        W80053  10.513   8.721   3.495
 8525W        W80054  41.405  14.842   2.014
 8526W        W80055  28.604  30.200   2.299
 8527W        W80056  42.399  27.541  11.545
 8528W        W80057  19.756  37.385  11.114
 8529W        W80058   2.893  41.712   3.552
 8530W        W80059  33.016  19.075  14.746
 8531W        W80060  42.373  29.447   2.646
 8532W        W80061  34.680  21.984   0.314
 8533W        W80062   6.262  14.091  12.902
 8534W        W80063  41.237  35.148  14.389
 8535W        W80064  18.566   0.271  13.562
 8536W        W80065  13.969  14.051   2.754
 8537W        W80066  37.380  31.311  12.169
 8538W        W80067  20.713  30.849  10.785
 8539W        W80068  22.683  21.667   1.864
 8540W        W80069  34.762  37.069  14.428
 8541W        W80070  29.048   7.718  13.972
 8542W        W80071  10.387  38.581  12.442
 8543W        W80072  24.964   6.129  12.021
 8544W        W80073  42.968  37.014   1.858
 8545W        W80074  22.604  44.475  13.841
 8546W        W80075   7.352   7.842  12.526
 8547W        W80076  10.561  29.055  12.039
 8548W        W80077  39.917   1.296  10.686
 8549W        W80078  39.057   6.444   0.801
 8550W        W80079  41.018  41.890  14.456
 8551W        W80080   0.585  25.949   1.471
 8552W        W80081  15.195  15.202   2.287
 8553W        W80082  37.106  32.308  11.022
 8554W        W80083  22.201  11.388   4.441
 8555W        W80084  42.058  20.127   2.173
 8556W        W80085  30.686  35.887   2.819
 8557W        W80086   7.260  15.066  12.116
 8558W        W80087  15.358  20.065  11.572
 8559W        W80088  26.428  24.446  12.403
 8560W        W80089  18.217  18.613  10.674
 8561W        W80090  24.977  24.565   2.210
 8562W        W80091  43.857  17.393  11.184
 8563W        W80092   9.336  38.604  13.416
 8564W        W80093  39.567  23.029  13.458
 8565W        W80094  22.095  20.685   0.325
 8566W        W80095  43.281   8.146   1.414
 8567W        W80096  37.292  33.131  12.104
 8568W        W80097  19.016  26.420   4.519
 8569W        W80098  42.932  39.842  11.473
 8570W        W80099  13.104  40.566  12.514
 8571W        W80100  21.624  31.065   0.311
 8572W        W80101  26.506  26.022   2.888
 8573W        W80102  15.173   7.208   4.593
 8574W        W80103   7.957  27.428  12.311
 8575W        W80104  40.865  37.779  11.035
 8576W        W80105  23.152  39.537  13.414
 8577W        W80106  39.583  37.606   1.800
 8578W        W80107  40.136   4.603   0.786
 8579W        W80108  11.068   1.952   0.267
 8580W        W80109   3.689  16.778  12.396
 8581W        W80110   4.905  29.863  11.026
 8582W        W80111   9.811  17.703  11.657
 8583W        W80112  28.706  31.289   1.226
 8584W        W80113   2.267  43.530  13.467
 8585W        W80114  44.672  22.549  13.200
 8586W        W80115  15.118  42.463  11.223
 8587W        W80116  23.032  44.761  13.932
 8588W        W80117  19.123  44.811   1.359
 8589W        W80118  42.432  17.165   0.851
 8590W        W80119  21.147  24.129   3.522
 8591W        W80120  43.893  31.153  11.622
 8592W        W80121  27.515   7.820   2.141
 8593W        W80122  11.303  21.403  10.934
 8594W        W80123  38.330  34.384  12.053
 8595W        W80124  33.254  31.907  13.449
 8596W        W80125  24.232  31.658   2.295
 8597W        W80126  44.875  37.590  12.703
 8598W        W80127  27.557  26.233   3.602
 8599W        W80128  14.694  32.537  14.227
 8600W        W80129  42.720  43.916  13.950
 8601W        W80130  38.943  16.112   4.794
 8602W        W80131  14.554   0.985   0.949
 8603W        W80132  18.879  10.344  11.180
 8604W        W80133  37.453  24.323  11.676
 8605W        W80134  39.778  18.630   1.212
 8606W        W80135  15.096  22.948   1.684
 8607W        W80136   8.229  21.045  11.398
 8608W        W80137  29.894  11.296   0.735
 8609W        W80138  39.851  20.749   4.165
 8610W        W80139   2.747  38.678   1.872
 8611W        W80140   8.424  27.412  10.340
 8612W        W80141  33.427   0.571   4.621
 8613W        W80142  32.365  17.491   2.105
 8614W        W80143  29.244   4.371   4.049
 8615W        W80144  34.823  22.192   1.286
 8616W        W80145   6.990  16.293   5.267
 8617W        W80146  25.811  26.463  11.929
 8618W        W80147  26.339  19.421   0.192
 8619W        W80148  11.271   9.711  12.071
 8620W        W80149   8.351  21.584  13.895
 8621W        W80150   9.300  25.370   5.102
 8622W        W80151   7.506  30.997  11.030
 8623W        W80152  15.026  13.911   2.056
 8624W        W80153  39.402  10.395  14.335
 8625W        W80154  29.574  44.296  13.490
 8626W        W80155  14.639  19.205  13.887
 8627W        W80156   6.106  14.572   4.174
 8628W        W80157  17.982   6.003  13.812
 8629W        W80158  29.060  32.588   0.787
 8630W        W80159   6.688  44.176   2.647
 8631W        W80160   4.204   9.389  12.657
 8632W        W80161   4.396  11.347   4.550
 8633W        W80162  12.740  21.992   2.836
 8634W        W80163   7.878  14.388   4.159
 8635W        W80164   9.309  15.732   1.422
 8636W        W80165  10.723  23.561  13.854
 8637W        W80166  18.601  14.019   4.974
 8638W        W80167  32.883  41.438  12.539
 8639W        W80168   0.038   8.919   1.806
 8640W        W80169  40.619   7.853  13.403
 8641W        W80170  24.625   3.412  11.977
 8642W        W80171  41.784  28.609   4.367
 8643W        W80172   1.174  35.025  14.029
 8644W        W80173  17.340  20.979  11.468
 8645W        W80174  37.382  19.318   0.775
 8646W        W80175  35.697  33.736   2.725
 8647W        W80176  10.164   9.575   1.868
 8648W        W80177  30.858  38.938   2.906
 8649W        W80178   8.287  43.728  14.956
 8650W        W80179  20.280   0.153  14.449
 8651W        W80180  39.472  34.147   0.921
 8652W        W80181  12.587   3.474   4.088
 8653W        W80182  12.676  44.944  11.084
 8654W        W80183  17.151  30.948   0.936
 8655W        W80184   9.139  20.247   3.349
 8656W        W80185  24.963   6.282  10.761
 8657W        W80186  33.707  11.466  11.996
 8658W        W80187  21.044  12.733  11.408
 8659W        W80188  11.979   9.307  13.982
 8660W        W80189  36.043  16.190  12.384
 8661W        W80190  41.514  26.386   0.401
 8662W        W80191  42.241  16.921  13.495
 8663W        W80192  30.326  33.121  14.742
 8664W        W80193  29.906   4.106   1.109
 8665W        W80194  25.029  15.704   0.965
 8666W        W80195  30.417   8.282  14.440
 8667W        W80196  36.425  23.850  13.592
 8668W        W80197  31.483  17.739  11.298
 8669W        W80198  11.182   0.048   1.710
 8670W        W80199  30.227  35.050  10.266
 8671W        W80200  39.225  17.774   2.416
 8672W        W80201  16.157   3.237   0.783
 8673W        W80202  10.403  30.916   1.248
 8674W        W80203   7.150  14.706   4.178
 8675W        W80204   8.877  17.749  14.002
 8676W        W80205  20.328  31.939   3.642
 8677W        W80206  41.997  19.203   4.605
 8678W        W80207  26.624  36.218  11.114
 8679W        W80208  43.537  35.906  11.497
 8680W        W80209   7.081  44.411  13.049
 8681W        W80210  27.597  11.182  14.475
 8682W        W80211   7.864  24.943   1.359
 8683W        W80212  40.412  22.810   2.112
 8684W        W80213  27.935  26.040   4.300
 8685W        W80214  40.438   0.094   3.417
 8686W        W80215   6.667   6.352   4.011
 8687W        W80216  12.242   3.525   3.710
 8688W        W80217   0.209  17.327   2.651
 8689W        W80218  44.436   1.686  14.817
 8690W        W80219  25.127  17.321  13.482
 8691W        W80220  22.019   9.316  13.056
 8692W        W80221  37.421   4.877   1.781
 8693W        W80222  37.428   6.080   3.945
 8694W        W80223  16.654  10.041  13.083
 8695W        W80224  41.603   2.856  11.075
 8696W        W80225  29.627  35.587   2.770
 8697W        W80226  32.962  36.385   4.069
 8698W        W80227   7.706   7.780  12.150
 8699W        W80228  19.744   6.611   3.745
 8700W        W80229   3.844  44.805  12.651
 8701W        W80230  38.285   3.488  13.839
 8702W        W80231  27.951  26.427  12.709
 8703W        W80232  36.127  28.507   4.450
 8704W        W80233  38.624  15.569  11.544
 8705W        W80234  42.884   9.324  11.138
 8706W        W80235  34.002  20.083   0.181
 8707W        W80236  39.723  20.582  10.778
 8708W        W80237  15.656   5.678  12.257
 8709W        W80238   4.464   8.200  11.277
 8710W        W80239  24.463  17.459  12.917
 8711W        W80240  19.111   7.229   1.288
 8712W        W80241  24.032  43.402  11.627
 8713W        W80242  32.730  28.430  13.782
 8714W        W80243  30.645  25.947   0.046
 8715W        W80244  39.199   0.832   2.225
 8716W        W80245  10.690  37.988   0.480
 8717W        W80246  24.759   5.107  12.987
 8718W        W80247  22.640  32.682  14.191
 8719W        W80248  44.819  42.489  14.351
 8720W        W80249  42.829  21.854   2.786
 8721W        W80250  19.272   5.057  11.629
 8722W        W80251  11.140  24.651   4.258
 8723W        W80252  21.437  21.739   3.118
 8724W        W80253  24.474  18.430   2.112
 8725W        W80254   8.843  28.033  14.035
 8726W        W80255  17.330  40.947   3.819
 8727W        W80256  28.565  35.473  14.312
 8728W        W80257  32.589  23.497  11.008
 8729W        W80258  44.715  10.720  12.881
 8730W        W80259  18.983   6.445   2.085
 8731W        W80260  17.646   3.497  11.510
 8732W        W80261  31.848   9.329   1.896
 8733W        W80262   0.183  43.357  14.321
 8734W        W80263  37.478   7.307  10.674
 8735W        W80264   8.948  32.097   2.740
 8736W        W80265  12.781  12.872   4.349
 8737W        W80266   8.800  23.789   0.427
 8738W        W80267  25.768  23.575  12.002
 8739W        W80268  18.287  34.708  13.213
 8740W        W80269  28.992  18.495  12.206
 8741W        W80270  38.868  26.728   1.137
 8742W        W80271  10.052   2.794  13.775
 8743W        W80272   1.212  34.425   3.289
 8744W        W80273  12.100  44.009  11.143
 8745W        W80274  29.028  21.190   3.162
 8746W        W80275   6.395  13.643  11.717
 8747W        W80276   8.462  15.298   1.663
 8748W        W80277   9.521   1.073   9.747
 8749W        W80278  16.049  38.809   3.242
 8750W        W80279   0.453   3.766   4.583
 8751W        W80280  43.937  24.922   2.190
 8752W        W80281  24.794   9.544  11.972
 8753W        W80282   4.747  33.255   2.831
 8754W        W80283  12.219  14.921   4.082
 8755W        W80284   1.353   9.365   1.781
 8756W        W80285  21.696   7.276   4.514
 8757W        W80286   1.737  10.805  11.334
 8758W        W80287  14.802   5.685   1.804
 8759W        W80288  26.597  44.901  14.900
 8760W        W80289  44.778  42.152  14.748
 8761W        W80290  12.456  25.427   1.447
 8762W        W80291  33.201  37.012  13.510
 8763W        W80292  29.762  38.810   1.907
 8764W        W80293  33.327   1.105  12.029
 8765W        W80294  23.169  38.557  12.458
 8766W        W80295   5.408  19.631   1.651
 8767W        W80296  25.502  12.350  11.669
 8768W        W80297   5.253  36.000  14.300
 8769W        W80298   1.669  30.693   1.968
 8770W        W80299  41.878  20.497  10.624
 8771W        W80300  26.980   8.684  14.752
 8772W        W80301  19.089  37.083  14.623
 8773W        W80302  19.834   3.808   3.129
 8774W        W80303  43.391  18.061   4.634
 8775W        W80304  19.569  20.080   4.607
 8776W        W80305   2.920  13.848  10.787
 8777W        W80306   2.468  32.858   1.194
 8778W        W80307  30.736  39.880  10.805
 8779W        W80308  22.924   2.463   1.774
 8780W        W80309  12.816  15.740   1.976
 8781W        W80310  15.340  17.937  12.694
 8782W        W80311  11.039  16.097   3.922
 8783W        W80312  32.595  15.102   2.793
 8784W        W80313  39.922  44.325   2.400
 8785W        W80314   8.493   3.414   0.831
 8786W        W80315  31.042   2.810   1.898
 8787W        W80316   7.808  24.372   4.513
 8788W        W80317  41.326  40.042  13.869
 8789W        W80318  24.110  10.536   4.938
 8790W        W80319  44.234  27.053  13.113
 8791W        W80320  20.609  28.971  12.477
 8792W        W80321  18.802  26.564   0.354
 8793W        W80322  39.950  15.780  11.842
 8794W        W80323  43.794  31.874   1.870
 8795W        W80324  33.043   4.147   3.733
 8796W        W80325  11.211  10.686  11.805
 8797W        W80326  31.015  17.645  11.518
 8798W        W80327  36.571  34.430   4.265
 8799W        W80328  39.379  31.914   2.176
 8800W        W80329  37.953   8.260   3.698
 8801W        W80330  31.804  37.440  10.423
 8802W        W80331  28.182  34.053  11.773
 8803W        W80332   6.484   3.404   0.193
 8804W        W80333   3.781  29.154   3.006
 8805W        W80334  20.172  32.815   1.846
 8806W        W80335  37.070  13.704  11.986
 8807W        W80336   1.930  27.483  14.920
 8808W        W80337  27.899  11.601   5.103
 8809W        W80338  35.360  18.094   0.921
 8810W        W80339   4.744  35.082   3.728
 8811W        W80340  17.739  17.465   0.073
 8812W        W80341  42.674   9.945  13.076
 8813W        W80342  37.970  26.058   2.419
 8814W        W80343   4.309  23.251  14.535
 8815W        W80344  18.242   1.915   4.706
 8816W        W80345  37.432  16.144   3.623
 8817W        W80346  24.262  17.069  14.294
 8818W        W80347  31.405  12.677  10.751
 8819W        W80348   9.933  19.702  13.086
 8820W        W80349  15.512   0.986   4.558
 8821W        W80350  40.777   3.889   1.787
 8822W        W80351  43.233  32.012  12.934
 8823W        W80352  29.983   1.689   1.856
 8824W        W80353  30.363   5.145   2.722
 8825W        W80354  12.258   9.760   1.014
 8826W        W80355  27.114   8.143   2.793
 8827W        W80356  16.780  40.977   0.345
 8828W        W80357  35.251   2.370  11.160
 8829W        W80358  11.785  44.028   0.504
 8830W        W80359  24.709   6.867   4.992
 8831W        W80360  24.580  12.678   2.097
 8832W        W80361   2.277   2.707   2.917
 8833W        W80362  31.465  27.136  12.378
 8834W        W80363  22.349  18.064   4.172
 8835W        W80364  17.285  29.213  11.599
 8836W        W80365  24.992  31.011   3.249
 8837W        W80366   5.369  34.507   4.946
 8838W        W80367   0.640  38.989   1.325
 8839W        W80368  17.566  29.397   0.631
 8840W        W80369   6.164  37.565  10.862
 8841W        W80370   8.857   3.902   3.170
 8842W        W80371  18.371  33.889  13.376
 8843W        W80372  41.442  10.005   2.215
 8844W        W80373  23.268   9.209   0.371
 8845W        W80374  30.786  22.584  10.618
 8846W        W80375   9.215  28.003  11.505
 8847W        W80376  12.692  29.169   2.052
 8848W        W80377  16.325   5.293   4.234
 8849W        W80378  39.795  22.835   3.178
 8850W        W80379   7.105  25.153   2.255
 8851W        W80380   0.410  39.277   2.144
 8852W        W80381  19.102   2.443  14.438
 8853W        W80382  17.334  36.427   1.693
 8854W        W80383   1.352  10.290  11.979
 8855W        W80384  21.281  41.888   4.143
 8856W        W80385   6.938  33.922   0.382
 8857W        W80386   8.107  32.817  12.573
 8858W        W80387  12.753   7.903   1.326
 8859W        W80388   7.187   6.676  11.516
 8860W        W80389   6.755  17.371  13.767
 8861W        W80390   8.368  23.525  14.690
 8862W        W80391  16.792  16.938  11.122
 8863W        W80392   9.555   1.875   0.284
 8864W        W80393  31.139  38.310   4.957
 8865W        W80394  32.037   2.950  14.030
 8866W        W80395  20.117  35.563  10.773
 8867W        W80396  40.257  18.794   2.784
 8868W        W80397  27.426  35.194   2.724
 8869W        W80398  15.140   2.486   0.346
 8870W        W80399  33.441  36.056  11.548
 8871W        W80400   4.955  15.794  14.812
 8872W        W80401   4.855  24.493   3.169
 8873W        W80402   4.532  44.887   3.579
 8874W        W80403  39.290   6.210  14.365
 8875W        W80404  31.190   4.963   3.155
 8876W        W80405   7.725  16.574  13.939
 8877W        W80406  14.251  11.110  11.137
 8878W        W80407  20.124   0.546   2.097
 8879W        W80408  31.045  14.662  14.052
 8880W        W80409   3.415  32.999   3.731
 8881W        W80410  35.832  23.038  14.509
 8882W        W80411   6.701  44.130  14.276
 8883W        W80412  32.032  10.437  12.043
 8884W        W80413   7.395  17.069   2.262
 8885W        W80414  24.458  27.983  10.578
 8886W        W80415  13.656   2.552   3.890
 8887W        W80416   7.323  36.670  11.208
 8888W        W80417  25.458   6.738  13.247
 8889W        W80418   8.917  14.239  11.467
 8890W        W80419  24.932  27.025   3.766
 8891W        W80420  40.137  31.409  12.471
 8892W        W80421  16.066  10.962  11.436
 8893W        W80422  35.105  18.235  14.480
 8894W        W80423  28.080   3.978   3.139
 8895W        W80424  15.646  24.468  14.386
 8896W        W80425  30.597  17.021  10.038
 8897W        W80426   8.703  31.412  14.910
 8898W        W80427  28.336   6.678  10.619
 8899W        W80428  13.663  18.239   4.668
 8900W        W80429   2.970  41.923  12.940
 8901W        W80430  28.625  17.812   2.734
 8902W        W80431  21.505  23.376  11.531
 8903W        W80432  13.544  20.274   3.091
 8904W        W80433  40.706   7.930   2.623
 8905W        W80434  10.908  25.616   2.213
 8906W        W80435  22.738  13.320   0.997
 8907W        W80436  14.831  13.098   0.074
 8908W        W80437  32.997  20.898  12.262
 8909W        W80438   9.231  35.551   0.354
 8910W        W80439   9.056  20.326   0.986
 8911W        W80440  30.894   7.172   3.688
 8912W        W80441  24.490  18.736   1.697
 8913W        W80442  39.940  30.658  14.990
 8914W        W80443   8.351   1.516   4.310
 8915W        W80444  14.286  31.613   0.891
 8916W        W80445   8.101  35.913  11.552
 8917W        W80446   5.231  33.450  10.288
 8918W        W80447  26.661  20.275   0.328
 8919W        W80448  15.181   2.300   3.245
 8920W        W80449  14.301  11.347  11.573
 8921W        W80450  27.378  19.094   1.474
 8922W        W80451   1.263  26.629  11.049
 8923W        W80452   5.964  35.341  14.854
 8924W        W80453  31.195   3.607  12.612
 8925W        W80454  29.788  16.144   3.120
 8926W        W80455  20.542   3.850   1.751
 8927W        W80456   8.934  35.398  14.380
 8928W        W80457  27.645  29.936   1.707
 8929W        W80458   2.696  37.072   2.696
 8930W        W80459   8.167  23.434   2.322
 8931W        W80460  29.002   1.035  10.991
 8932W        W80461  41.762  32.700   0.719
 8933W        W80462   6.029  15.535  12.051
 8934W        W80463   4.920  10.268  12.374
 8935W        W80464  28.609  13.595  12.824
 8936W        W80465   4.781  25.147  13.409
 8937W        W80466  17.055   5.580  10.253
 8938W        W80467  13.497  29.624  14.396
 8939W        W80468  13.890  28.031   2.441
 8940W        W80469  10.471   7.895  11.016
 8941W        W80470  33.424   9.041   4.248
 8942W        W80471   3.434  22.688  14.306
 8943W        W80472  32.084  35.375   4.639
 8944W        W80473  33.022   3.306   5.102
 8945W        W80474  20.101  18.180  12.063
 8946W        W80475  39.308  34.478  11.477
 8947W        W80476  17.606   5.177  11.295
 8948W        W80477  40.511  38.083   3.531
 8949W        W80478  34.553   6.384   2.469
 8950W        W80479  19.781   2.333  12.500
 8951W        W80480  31.326  10.663  13.024
 8952W        W80481   8.285  20.124  11.875
 8953W        W80482  18.193   1.333  10.370
 8954W        W80483  40.400  19.247  11.437
 8955W        W80484   2.392  34.836  11.116
 8956W        W80485  16.084  32.499   2.867
 8957W        W80486   3.724   7.625   3.298
 8958W        W80487   3.734  35.766   9.669
 8959W        W80488  40.308  14.005   2.045
 8960W        W80489   5.305   8.176   4.281
 8961W        W80490  18.120  44.274   3.608
 8962W        W80491  29.728  31.511  10.754
 8963W        W80492  36.128  16.052  14.873
 8964W        W80493  17.527  18.752   0.436
 8965W        W80494  22.973  18.500   2.590
 8966W        W80495  31.938  44.012   1.713
 8967W        W80496   0.922  15.450   3.328
 8968W        W80497   7.164  30.691  12.278
 8969W        W80498  40.235  35.012  14.496
 8970W        W80499  19.177  35.674  14.864
 8971W        W80500  16.836  36.051  11.721
 8972W        W80501   2.478  11.156   3.181
 8973W        W80502   0.181  10.874   1.735
 8974W        W80503  39.642  36.255  13.514
 8975W        W80504  27.153  21.603  14.081
 8976W        W80505  22.466  20.403  14.504
 8977W        W80506  33.926  44.887   1.907
 8978W        W80507  23.527  38.745   0.814
 8979W        W80508  43.156  39.603  11.004
 8980W        W80509  13.230  15.649   0.268
 8981W        W80510   0.285  30.287   3.127
 8982W        W80511  13.545  41.884   1.749
 8983W        W80512  10.228  25.395  10.469
 8984W        W80513  36.799   5.954  13.360
 8985W        W80514  10.888  27.611   1.337
 8986W        W80515  35.884   4.415   1.458
 8987W        W80516  19.479  24.003  14.524
 8988W        W80517  23.037  38.541   0.900
 8989W        W80518  15.134   8.841   0.261
 8990W        W80519   6.315  44.749   1.906
 8991W        W80520  41.864  14.928   2.909
 8992W        W80521  18.529  13.010   4.169
 8993W        W80522   8.649  14.232   3.656
 8994W        W80523  11.850  19.559  11.973
 8995W        W80524   6.319  14.283  14.747
 8996W        W80525  37.081  20.531  13.341
 8997W        W80526  43.325  15.051   3.562
 8998W        W80527  33.997  22.312  12.469
 8999W        W80528  17.067  42.308   3.567
 9000W        W80529  23.992  28.415   3.285
 9001W        W80530  12.611  26.544  13.348
 9002W        W80531  14.817  16.142   4.209
 9003W        W80532  44.037  26.081   1.242
 9004W        W80533   4.586   5.880   1.251
 9005W        W80534  12.590  43.883  11.076
 9006W        W80535  37.849  19.838   0.438
 9007W        W80536  42.592  39.420  14.984
 9008W        W80537  11.846  41.228  14.507
 9009W        W80538  25.626  34.555  10.219
 9010W        W80539  11.178  40.720  13.526
 9011W        W80540   5.626   6.331   3.370
 9012W        W80541   1.320   3.248   0.363
 9013W        W80542  18.004   0.730   1.807
 9014W        W80543  27.803   9.467   0.743
 9015W        W80544  35.474  43.888   3.353
 9016W        W80545  18.128  38.890   1.384
 9017W        W80546  16.493  40.558  14.572
 9018W        W80547  35.797   5.384  14.983
 9019W        W80548  23.041   4.218  12.379
 9020W        W80549  24.433  39.361  13.957
 9021W        W80550  10.852  31.391   3.788
 9022W        W80551  22.547   0.919   3.018
 9023W        W80552   0.546  23.789   1.285
 9024W        W80553  30.940  18.264   4.177
 9025W        W80554  41.767  22.616  11.561
 9026W        W80555  27.725  39.783   0.344
 9027W        W80556  44.921  39.723   4.632
 9028W        W80557  14.378  30.083  11.619
 9029W        W80558  32.363  26.273  12.459
 9030W        W80559   2.194  14.810   2.749
 9031W        W80560  30.023  38.516   0.964
 9032W        W80561  31.968  39.450  14.152
 9033W        W80562  37.481  19.230   4.566
 9034W        W80563  41.090  12.192   2.137
 9035W        W80564  16.677  37.670   2.778
 9036W        W80565  12.882  20.575  11.233
 9037W        W80566  10.169  11.249  11.432
 9038W        W80567  18.252  14.783  11.453
 9039W        W80568  42.562  34.907  14.804
 9040W        W80569  43.897  17.668   4.955
 9041W        W80570  23.468   6.059  14.927
 9042W        W80571  31.913   5.901   1.308
 9043W        W80572  31.557   6.533  10.830
 9044W        W80573  37.953  11.304   4.206
 9045W        W80574  40.840  25.853   0.414
 9046W        W80575  28.200  30.214  14.055
 9047W        W80576  21.832  37.032  10.220
 9048W        W80577  33.806  36.395  14.766
 9049W        W80578  24.740  24.677   2.654
 9050W        W80579   9.159  25.471  13.823
 9051W        W80580  24.040  42.932   2.795
 9052W        W80581  42.744   9.834   1.888
 9053W        W80582  21.406   9.249   3.298
 9054W        W80583  21.393   2.813  10.416
 9055W        W80584  22.945  23.724   3.596
 9056W        W80585   1.024   0.477  11.977
 9057W        W80586  19.611  15.041   3.275
 9058W        W80587  11.137   2.785  11.566
 9059W        W80588   6.839   7.901  12.072
 9060W        W80589  35.880  25.356  14.637
 9061W        W80590   0.571  21.693  11.087
 9062W        W80591  11.054   2.696  12.924
 9063W        W80592  17.582  14.833   4.489
 9064W        W80593  16.178  28.650   0.366
 9065W        W80594  32.470  10.406  10.640
 9066W        W80595  41.480  30.951   4.572
 9067W        W80596   3.061   5.893   1.342
 9068W        W80597   3.730   7.351  10.041
 9069W        W80598  44.431  20.232  14.108
 9070W        W80599  24.720   2.669  11.679
 9071W        W80600   9.825  26.653  12.903
 9072W        W80601   7.373  37.843  12.653
 9073W        W80602  41.478  17.242  13.005
 9074W        W80603  14.565  18.632   2.906
 9075W        W80604  23.228   5.382   3.995
 9076W        W80605  15.634  14.932  11.053
 9077W        W80606  16.117  33.058   4.633
 9078W        W80607  33.551   0.904   5.034
 9079W        W80608  22.540  43.818  11.620
 9080W        W80609  11.816  34.831   2.196
 9081W        W80610   9.656  21.935   4.144
 9082W        W80611  35.198   6.420   3.815
 9083W        W80612  37.054  28.823  14.418
 9084W        W80613  29.664   0.391  13.118
 9085W        W80614  42.199  37.136   2.716
 9086W        W80615  34.539  22.444   3.151
 9087W        W80616   2.935  28.679   1.335
 9088W        W80617   0.333  36.011   4.565
 9089W        W80618  24.745   6.787  11.473
 9090W        W80619  11.075   9.663  12.958
 9091W        W80620  15.664  24.627  12.948
 9092W        W80621  30.323  42.472   3.648
 9093W        W80622  16.290  36.602  11.148
 9094W        W80623  38.082  38.083   1.498
 9095W        W80624   0.398  13.561  14.822
 9096W        W80625   0.730   2.162  13.049
 9097W        W80626  35.111   9.252   0.909
 9098W        W80627  24.916  21.127   3.853
 9099W        W80628   0.407   1.848  10.990
 9100W        W80629  18.074  16.322   3.277
 9101W        W80630   7.741  30.725  11.593
 9102W        W80631  35.053   7.603   3.331
 9103W        W80632  44.737   9.222  11.605
 9104W        W80633  37.335   7.232  11.486
 9105W        W80634  12.715  40.361  14.839
 9106W        W80635  43.919  39.345   4.240
 9107W        W80636   7.981   1.313  11.399
 9108W        W80637  10.826  18.709   0.320
 9109W        W80638  36.028   7.797  11.554
 9110W        W80639  42.026  30.193   0.503
 9111W        W80640  17.027  15.705  12.390
 9112W        W80641  40.811  25.759   3.981
 9113W        W80642  35.035  32.231  11.799
 9114W        W80643  29.785  23.683  14.785
 9115W        W80644  42.477  24.045   2.835
 9116W        W80645   8.984  18.339  14.896
 9117W        W80646   7.126  20.610  11.947
 9118W        W80647  27.878  27.009   3.094
 9119W        W80648   8.559  15.549  10.223
 9120W        W80649   9.087   3.103  12.925
 9121W        W80650  42.968  17.709   1.030
 9122W        W80651  16.497  41.989  12.431
 9123W        W80652  34.587   0.896   3.535
 9124W        W80653   9.558   0.522  13.850
 9125W        W80654  41.330  35.495  14.913
 9126W        W80655   1.952  24.146  12.128
 9127W        W80656  40.066  36.453   3.140
 9128W        W80657  17.398  10.832  12.081
 9129W        W80658  29.045  31.865  14.335
 9130W        W80659  34.928  11.566  11.111
 9131W        W80660  31.066  17.636  10.994
 9132W        W80661  42.761  38.331  13.308
 9133W        W80662   5.276  10.354  10.284
 9134W        W80663  25.125  37.138  13.809
 9135W        W80664  14.723  29.396  11.400
 9136W        W80665  18.463  14.186   2.384
 9137W        W80666   3.742  37.098   1.432
 9138W        W80667  31.266  20.092  11.952
 9139W        W80668  13.453  12.176   0.520
 9140W        W80669  11.747   4.700   0.297
 9141W        W80670  17.221  31.200  14.413
 9142W        W80671  14.886  30.252  13.294
 9143W        W80672  25.545   0.399   0.870
 9144W        W80673  31.878  41.812  13.756
 9145W        W80674  41.041  21.362  11.137
 9146W        W80675  36.490  27.402  12.460
 9147W        W80676  13.649  36.842   4.521
 9148W        W80677   1.242  18.230  12.492
 9149W        W80678  12.186  37.849   0.358
 9150W        W80679  42.243   9.302  14.250
 9151W        W80680  19.592   0.799   4.994
 9152W        W80681   8.187   3.528   3.587
 9153W        W80682  41.305  25.986  12.350
 9154W        W80683  27.100   3.064  12.965
 9155W        W80684  28.192   7.353   3.025
 9156W        W80685  11.769  22.193  13.867
 9157W        W80686  13.500  30.617   2.611
 9158W        W80687  11.582   2.778   0.350
 9159W        W80688  15.524   1.234   1.142
 9160W        W80689  15.705   0.223  12.044
 9161W        W80690  43.944  17.195   3.187
 9162W        W80691  29.553  41.270   3.677
 9163W        W80692  32.994   0.383  13.883
 9164W        W80693  16.548  21.836   5.643
 9165W        W80694  13.520  17.777  10.778
 9166W        W80695  29.713  42.662  11.262
 9167W        W80696  15.190   6.311   0.874
 9168W        W80697  20.545  20.619   2.735
 9169W        W80698  10.476  14.415   0.985
 9170W        W80699  23.444  36.001   2.593
 9171W        W80700  21.656   3.866   3.913
 9172W        W80701  27.003  28.035  12.146
 9173W        W80702  33.338  12.674   1.877
 9174W        W80703   7.853  30.979  14.303
 9175W        W80704   4.239  35.585  13.092
 9176W        W80705  22.121   5.317  11.362
 9177W        W80706  18.340  26.000  14.748
 9178W        W80707   3.282  11.317  12.227
 9179W        W80708   5.963  24.535  13.274
 9180W        W80709  31.152   3.669  13.944
 9181W        W80710  16.640  10.397   5.119
 9182W        W80711  31.767  36.393  12.334
 9183W        W80712  43.683  41.891   4.140
 9184W        W80713   6.059  43.707   0.362
 9185W        W80714  21.646   5.420  10.938
 9186W        W80715  24.356  31.302   1.898
 9187W        W80716  41.953  15.692  10.593
 9188W        W80717  36.783  42.142  11.760
 9189W        W80718  41.501   7.328  14.098
 9190W        W80719  30.994  42.948  13.391
 9191W        W80720  30.493  10.757   0.483
 9192W        W80721  31.645   7.700   1.406
 9193W        W80722  32.598  31.137  10.378
 9194W        W80723  36.325   0.319   0.792
 9195W        W80724  39.064  28.878  11.138
 9196W        W80725  12.883  24.227   2.280
 9197W        W80726  19.380  29.076  11.842
 9198W        W80727  18.637  23.877   1.472
 9199W        W80728  12.329  31.491   2.147
 9200W        W80729  29.891  25.804   0.392
 9201W        W80730  29.683   2.604  13.060
 9202W        W80731   7.769  21.048   2.398
 9203W        W80732  23.334   8.422  14.593
 9204W        W80733  24.711  37.790  11.169
 9205W        W80734   1.975  23.170  10.912
 9206W        W80735  16.881  23.843  14.985
 9207W        W80736   3.759  21.038   2.138
 9208W        W80737  39.692  10.246  10.983
 9209W        W80738  29.662   5.032  11.887
 9210W        W80739   4.784   3.539  13.084
 9211W        W80740  14.184   6.261  12.464
 9212W        W80741  26.561  24.288   2.871
 9213W        W80742  15.098  14.268  13.431
 9214W        W80743  34.518  42.032  13.139
 9215W        W80744   6.270   7.661  14.975
 9216W        W80745  40.014  17.382  11.747
 9217W        W80746  16.109   1.842   0.881
 9218W        W80747   5.679   9.350   1.990
 9219W        W80748  10.004   2.179   3.468
 9220W        W80749   1.042   0.853  11.572
 9221W        W80750  12.757  23.778  12.530
 9222W        W80751  22.009   3.376   0.192
 9223W        W80752  24.874  36.438   2.852
 9224W        W80753   3.986  39.443  11.500
 9225W        W80754  33.628  36.879   1.403
 9226W        W80755  24.202  21.675  13.627
 9227W        W80756  43.535   1.185   3.428
 9228W        W80757  12.895  13.374   4.454
 9229W        W80758  31.531   9.388  10.929
 9230W        W80759  26.637  38.779   3.593
 9231W        W80760  12.530  38.993  12.273
 9232W        W80761  38.850  15.800   2.247
 9233W        W80762  39.276   0.837  14.155
 9234W        W80763  28.907  11.911   3.336
 9235W        W80764  10.570  14.574  14.398
 9236W        W80765  19.158  20.666  11.481
 9237W        W80766   5.958   1.658  13.589
 9238W        W80767  17.539  22.738   0.280
 9239W        W80768  19.069  44.746  12.158
 9240W        W80769  12.157  24.438  12.421
 9241W        W80770  26.537  15.541  13.036
 9242W        W80771  25.516  15.308   0.437
 9243W        W80772  30.048  44.305  12.760
 9244W        W80773   7.275  16.822   0.520
 9245W        W80774  28.921   5.804   1.321
 9246W        W80775  23.622  38.632  10.581
 9247W        W80776  42.951  37.542   1.835
 9248W        W80777  11.601  25.008  12.085
 9249W        W80778   8.839   0.995   3.089
 9250W        W80779  13.832  21.340   3.695
 9251W        W80780  25.223  11.232  14.297
 9252W        W80781   9.694  40.196  11.053
 9253W        W80782  23.921  23.500   0.406
 9254W        W80783  19.661   5.929   4.578
 9255W        W80784  35.649   4.906  14.811
 9256W        W80785  35.166  44.431   4.137
 9257W        W80786  36.388   7.339  14.303
 9258W        W80787  19.223  37.743   4.589
 9259W        W80788   7.903   3.138  10.689
 9260W        W80789  33.102   5.903   1.962
 9261W        W80790   7.907  24.092  13.534
 9262W        W80791   8.144   2.613   3.390
 9263W        W80792  12.905  32.318  11.481
 9264W        W80793  15.627  34.868  14.965
 9265W        W80794   9.415  35.505   1.976
 9266W        W80795  13.023  15.730  13.114
 9267W        W80796  26.922  27.514   1.851
 9268W        W80797  27.569   8.853   4.916
 9269W        W80798  33.348   9.284  13.751
 9270W        W80799  28.045   6.244  10.574
 9271W        W80800  17.773  26.325   4.067
 9272W        W80801   7.330  24.037  11.046
 9273W        W80802  38.046  14.659  13.450
 9274W        W80803   5.819   3.981   0.479
 9275W        W80804  41.769  34.989   0.288
 9276W        W80805  31.804   4.655  14.848
 9277W        W80806  44.877  36.172  11.655
 9278W        W80807  16.212   0.828  11.504
 9279W        W80808  25.843   9.431  12.524
 9280W        W80809  30.885  33.872   2.213
 9281W        W80810  21.803  24.647  11.603
 9282W        W80811  39.826  23.220  13.039
 9283W        W80812  14.357   0.751  14.445
 9284W        W80813  36.980  30.927   1.382
 9285W        W80814  19.783  19.072  14.410
 9286W        W80815  19.676  10.141   2.348
 9287W        W80816  30.951   8.321   0.541
 9288W        W80817  41.598  39.112  13.065
 9289W        W80818  20.227  35.697  12.334
 9290W        W80819  19.394   4.193   1.901
 9291W        W80820   7.954   1.463  10.380
 9292W        W80821  14.248  29.291   1.375
 9293W        W80822  44.762  40.236   1.745
 9294W        W80823  20.806   6.197   0.487
 9295W        W80824  24.995  20.703   0.737
 9296W        W80825  29.620  22.151   3.574
 9297W        W80826   9.477   7.686   4.539
 9298W        W80827  26.623  23.185   3.767
 9299W        W80828  18.136  27.618  14.215
 9300W        W80829  10.885  29.119   4.472
 9301W        W80830  27.568   3.434   4.345
 9302W        W80831  38.433  18.880  14.912
 9303W        W80832  13.117  40.266  13.350
 9304W        W80833  13.378   3.944  12.587
 9305W        W80834  17.503  33.846   2.872
 9306W        W80835  28.088  40.300   3.184
 9307W        W80836   3.321  15.724   1.488
 9308W        W80837  15.543   0.835  10.415
 9309W        W80838   1.232   2.745   0.232
 9310W        W80839  32.828   5.271   4.501
 9311W        W80840  41.640  22.618   0.807
 9312W        W80841  28.033  30.385   0.933
 9313W        W80842   2.986  11.510   0.895
 9314W        W80843  14.022  39.520  12.077
 9315W        W80844  21.978  16.511  12.084
 9316W        W80845  30.307  18.516  12.565
 9317W        W80846   0.973  24.725   2.796
 9318W        W80847  44.524  23.119   0.823
 9319W        W80848  18.206  14.280   4.317
 9320W        W80849  37.403  31.390  11.578
 9321W        W80850  26.611  17.322   0.962
 9322W        W80851  14.792  41.984   1.711
 9323W        W80852  43.899  18.317  12.594
 9324W        W80853  20.779  37.900   5.088
 9325W        W80854  13.282  10.208  10.703
 9326W        W80855  11.863   0.861  14.873
 9327W        W80856  38.995  26.124   4.564
 9328W        W80857  18.512   6.419   4.512
 9329W        W80858  18.305  41.018  11.548
 9330W        W80859  37.534  24.213   3.687
 9331W        W80860  39.795   4.337   2.836
 9332W        W80861  33.035  32.883  14.376
 9333W        W80862  24.498  39.999  14.536
 9334W        W80863  21.598  36.898   3.640
 9335W        W80864  31.859  19.519   0.488
 9336W        W80865  13.967  14.831  13.270
 9337W        W80866  34.600  39.981   3.611
 9338W        W80867  44.780  35.007   2.889
 9339W        W80868  37.559   2.888  13.980
 9340W        W80869  42.309  12.351   2.410
 9341W        W80870  12.468  13.582   3.576
 9342W        W80871  10.831  19.828   3.667
 9343W        W80872   8.872  44.430  11.603
 9344W        W80873  24.523  36.861   2.135
 9345W        W80874  22.745  20.591   2.833
 9346W        W80875   1.382  13.657   2.246
 9347W        W80876  18.292   0.850  11.997
 9348W        W80877  24.377  43.325   2.599
 9349W        W80878  36.305   3.119   4.539
 9350W        W80879  18.782  26.106   0.103
 9351W        W80880  32.561  17.013   4.924
 9352W        W80881   5.144  27.434  13.783
 9353W        W80882  23.545  16.330  14.391
 9354W        W80883   0.870   3.716   2.254
 9355W        W80884  11.164  21.561  12.504
 9356W        W80885   3.748  15.151   0.772
 9357W        W80886  33.267  14.268  11.271
 9358W        W80887  10.821  13.806   2.432
 9359W        W80888  19.612  30.942   3.095
 9360W        W80889  23.115  24.059  12.442
 9361W        W80890  23.112  12.239   0.002
 9362W        W80891  10.603   5.377  12.973
 9363W        W80892  26.050  42.412   1.135
 9364W        W80893  19.512  32.155  11.958
 9365W        W80894   7.949   9.776  10.628
 9366W        W80895  26.529  39.817  11.776
 9367W        W80896  34.350  39.382  14.825
 9368W        W80897  17.143  32.760  12.123
 9369W        W80898  13.093  30.668  14.524
 9370W        W80899  38.081  34.793   4.043
 9371W        W80900   5.758   6.675   4.225
 9372W        W80901   6.426  13.652  12.501
 9373W        W80902  10.353   2.670  13.351
 9374W        W80903  38.182  23.963  13.959
 9375W        W80904   5.549  14.239   0.402
 9376W        W80905  25.443  24.672   0.409
 9377W        W80906  23.787  30.436   0.032
 9378W        W80907  11.100  25.125  13.000
 9379W        W80908  19.208  15.306   1.489
 9380W        W80909  44.994  10.430   3.385
 9381W        W80910  34.866   3.421  12.494
 9382W        W80911  11.798  40.472   5.132
 9383W        W80912   7.883  16.715  14.965
 9384W        W80913  42.037  16.569  11.148
 9385W        W80914  39.058  14.010   2.788
 9386W        W80915  33.563  31.463  14.250
 9387W        W80916  14.992  15.393  14.360
 9388W        W80917  41.604  11.267  11.077
 9389W        W80918  38.066  42.937   0.820
 9390W        W80919  21.787  24.945   0.380
 9391W        W80920  35.497   4.670  13.041
 9392W        W80921  19.004  13.283  13.388
 9393W        W80922  34.019   1.896   1.822
 9394W        W80923  14.823  36.540  13.081
 9395W        W80924   9.481  29.194  12.025
 9396W        W80925  31.415  24.450  11.145
 9397W        W80926  39.308   3.333  10.942
 9398W        W80927  31.617  18.307  10.488
 9399W        W80928   6.433  17.581  14.779
 9400W        W80929   0.795  30.786  13.663
 9401W        W80930  24.491  31.407  10.724
 9402W        W80931  17.202  35.472  13.603
 9403W        W80932   3.388  44.916   2.272
 9404W        W80933  21.667  42.447   0.522
 9405W        W80934  19.445  13.120   3.295
 9406W        W80935  28.635  34.838   4.790
 9407W        W80936  24.438   8.456   1.490
 9408W        W80937  18.789  33.529   2.402
 9409W        W80938   9.904   1.766   0.689
 9410W        W80939  36.379  18.047  14.906
 9411W        W80940  28.032   0.773  13.792
 9412W        W80941  25.913  21.111  13.530
 9413W        W80942   8.945  35.754   2.036
 9414W        W80943  32.406  10.447   2.315
 9415W        W80944   9.574   2.392  12.137
 9416W        W80945  21.571   3.039  13.096
 9417W        W80946  43.959  40.950   1.943
 9418W        W80947  18.519  33.555  10.640
 9419W        W80948   0.788  23.589   3.594
 9420W        W80949  31.495  34.398   3.210
 9421W        W80950  38.144  13.759  11.582
 9422W        W80951   1.000   7.377  14.538
 9423W        W80952  12.883  15.779  12.314
 9424W        W80953   8.394  36.486   2.607
 9425W        W80954  19.155   4.563   3.291
 9426W        W80955   4.901  28.227  11.981
 9427W        W80956   8.957  22.463   2.010
 9428W        W80957  40.038  21.298   0.777
 9429W        W80958  17.202   2.508  12.430
 9430W        W80959  22.193  16.558  13.383
 9431W        W80960  20.608  19.568  14.265
 9432W        W80961  40.900  37.263  10.976
 9433W        W80962   0.285  20.613   2.695
 9434W        W80963  26.239   1.196  13.910
 9435W        W80964  39.089  34.502  10.523
 9436W        W80965   5.513  36.255   3.664
 9437W        W80966  16.560  21.418  14.665
 9438W        W80967   0.171   8.015   0.927
 9439W        W80968  36.986  26.948  14.846
 9440W        W80969   9.129  15.459  13.485
 9441W        W80970  38.487  22.703   3.780
 9442W        W80971  31.599   3.649   4.879
 9443W        W80972   0.944  39.997   4.725
 9444W        W80973  15.871  36.585  14.967
 9445W        W80974  21.335   2.331  13.298
 9446W        W80975   9.673  37.159   0.036
 9447W        W80976  34.428  39.574  12.549
 9448W        W80977   0.419  27.506   2.716
 9449W        W80978  40.279  15.596   3.529
 9450W        W80979  40.012  28.582   4.831
 9451W        W80980  14.020  19.775   3.661
 9452W        W80981  39.548  40.911  13.032
 9453W        W80982  43.323  39.493  11.490
 9454W        W80983  24.927  38.541  13.786
 9455W        W80984   4.457   7.384  13.891
 9456W        W80985   2.320  43.716  12.042
 9457W        W80986  40.898  27.155   4.500
 9458W        W80987  38.112  38.420   2.976
 9459W        W80988  13.138  20.131   2.818
 9460W        W80989  13.322  25.563  12.796
 9461W        W80990   2.701  35.919   3.731
 9462W        W80991  15.295  33.625   3.172
 9463W        W80992  44.462  17.224   3.162
 9464W        W80993  17.082  34.901  11.491
 9465W        W80994  12.287  39.255   0.257
 9466W        W80995  44.463  25.074   4.349
 9467W        W80996  41.003  40.551   2.362
 9468W        W80997  10.725  11.870  11.448
 9469W        W80998   7.309  16.987  12.014
 9470W        W80999  22.865  27.223   3.412
 9471W        W81000   7.252  13.370   5.086
 9472W        W81001  29.206  25.187   1.107
 9473W        W81002  28.871   2.538  12.779
 9474W        W81003  22.815  18.302   4.094
 9475W        W81004  14.863  15.946   0.805
 9476W        W81005  10.066   9.419  12.017
 9477W        W81006  42.489   4.344   1.355
 9478W        W81007  43.609   9.634   2.189
 9479W        W81008  28.838  44.290  12.158
 9480W        W81009  35.864  36.922  11.558
 9481W        W81010  42.278  14.463  11.278
 9482W        W81011  37.104  33.577  11.946
 9483W        W81012  29.517  26.392   4.537
 9484W        W81013  40.789  40.550  12.438
 9485W        W81014  28.007  11.605   0.804
 9486W        W81015  18.618  36.532   4.095
 9487W        W81016   1.826   7.985  12.949
 9488W        W81017  17.679  44.348  14.322
 9489W        W81018  21.874  42.916  14.301
 9490W        W81019   3.654  15.296  10.438
 9491W        W81020  28.526   4.466   1.336
 9492W        W81021   9.638  36.533  11.173
 9493W        W81022  26.315   5.134   3.628
 9494W        W81023   7.230  15.140  11.141
 9495W        W81024   6.410   5.939  11.840
 9496W        W81025  33.892  11.139   0.092
 9497W        W81026  16.306  31.836   2.542
 9498W        W81027  38.043  44.213  13.432
 9499W        W81028  44.215  20.446   0.875
 9500W        W81029   5.260  41.707   2.440
 9501W        W81030  16.250   3.670  11.205
 9502W        W81031  10.920   2.507  14.790
 9503W        W81032  13.070  29.464  11.630
 9504W        W81033  32.125   4.659  12.909
 9505W        W81034  15.696  27.679  10.703
 9506W        W81035  41.041  20.933   0.943
 9507W        W81036  32.124  33.450   0.258
 9508W        W81037  20.501  33.377  11.866
 9509W        W81038  31.870  16.320  11.627
 9510W        W81039  20.560   1.853  13.406
 9511W        W81040  27.632  36.999   2.686
 9512W        W81041  33.536   6.943   0.412
 9513W        W81042  39.710   7.648  14.514
 9514W        W81043  30.118  27.942  10.658
 9515W        W81044  38.088  30.901  13.639
 9516W        W81045  31.861  18.548  14.364
 9517W        W81046  37.129   0.450   0.305
 9518W        W81047   4.841  20.151  12.004
 9519W        W81048  12.675  41.273   4.184
 9520W        W81049  24.962  42.272   0.309
 9521W        W81050  35.430  40.088   3.255
 9522W        W81051  18.330  11.067   0.880
 9523W        W81052  13.333  14.749   0.820
 9524W        W81053  14.652  28.635  12.073
 9525W        W81054  41.270   3.737  14.588
 9526W        W81055   6.871  26.563   4.419
 9527W        W81056  33.926  20.118   4.912
 9528W        W81057  37.153  34.982   0.896
 9529W        W81058  29.043  11.278   0.281
 9530W        W81059  36.854   1.519  11.108
 9531W        W81060   0.796  41.859   1.154
 9532W        W81061   3.294  10.058  13.796
 9533W        W81062   1.895  40.108   2.709
 9534W        W81063  27.649  11.228   2.184
 9535W        W81064  42.270  34.107   0.204
 9536W        W81065  24.028  16.764   1.190
 9537W        W81066  11.394   0.755   3.576
 9538W        W81067  33.854  40.563   3.141
 9539W        W81068  43.109   1.523   2.222
 9540W        W81069  40.385  33.400   0.266
 9541W        W81070  15.697  30.391  11.074
 9542W        W81071  29.669   7.402  13.795
 9543W        W81072  12.237  22.523  11.865
 9544W        W81073  12.377  21.062  10.618
 9545W        W81074  37.106  38.329  11.032
 9546W        W81075   4.930  12.395   1.004
 9547W        W81076  42.526  34.518   2.314
 9548W        W81077  14.921  34.567   2.372
 9549W        W81078   8.234  19.040  13.073
 9550W        W81079  36.807  27.923   2.655
 9551W        W81080  17.345   6.861   3.638
 9552W        W81081   6.137  22.735  14.028
 9553W        W81082   4.223  44.675   3.229
 9554W        W81083   5.241   6.524  15.000
 9555W        W81084  26.491  19.773  12.596
 9556W        W81085  37.057  35.331  14.220
 9557W        W81086  18.418  32.017  10.280
 9558W        W81087  27.575   4.673  14.908
 9559W        W81088  13.853  27.034  14.311
 9560W        W81089  36.342  42.544  14.313
 9561W        W81090  41.930  10.664   3.172
 9562W        W81091  41.892   6.874   5.063
 9563W        W81092  43.476  35.527  13.025
 9564W        W81093  38.272   2.646  12.403
 9565W        W81094  29.057  19.429   2.832
 9566W        W81095  19.956  20.127   1.903
 9567W        W81096  31.602  19.721  13.109
 9568W        W81097  27.592   3.749   2.996
 9569W        W81098  37.673   4.422  12.677
 9570W        W81099  21.480   1.796  12.103
 9571W        W81100   6.504  18.858  10.880
 9572W        W81101  32.543  20.946   3.971
 9573W        W81102  16.226  24.161  10.521
 9574W        W81103  29.550  16.425   0.507
 9575W        W81104  18.577   2.324   2.698
 9576W        W81105  18.386   0.234   1.158
 9577W        W81106  22.185   5.667   1.912
 9578W        W81107  20.807  15.535   2.176
 9579W        W81108  33.032  15.895  14.469
 9580W        W81109  11.061  37.550   2.256
 9581W        W81110  34.963  19.882   5.104
 9582W        W81111  27.061  43.846  10.987
 9583W        W81112  32.191  17.238   1.688
 9584W        W81113  36.183  21.005   0.590
 9585W        W81114   5.247  13.165   0.567
 9586W        W81115  27.988   9.169   4.888
 9587W        W81116   9.210  12.022  13.020
 9588W        W81117  38.249   0.811   2.778
 9589W        W81118  43.901  27.457   3.120
 9590W        W81119   0.914  12.751  14.898
 9591W        W81120  11.312  21.800   0.484
 9592W        W81121  44.062  19.242  13.456
 9593W        W81122   3.883   2.420  11.855
 9594W        W81123  13.623   7.296  13.078
 9595W        W81124  30.038  37.894   4.069
 9596W        W81125  14.361   2.635  13.022
 9597W        W81126  19.555  31.635   1.761
 9598W        W81127   1.947   6.797   4.439
 9599W        W81128   1.442   5.184  14.972
 9600W        W81129  10.977   3.865  11.653
 9601W        W81130   8.778  13.082  11.086
 9602W        W81131  44.085  36.004   0.719
 9603W        W81132  30.229   9.775  13.484
 9604W        W81133  19.610  29.410   2.798
 9605W        W81134  19.281  16.888  12.445
 9606W        W81135  41.920  32.869  11.515
 9607W        W81136  37.642   5.221  14.364
 9608W        W81137  32.663  23.558   1.797
 9609W        W81138  32.980  20.741   0.677
 9610W        W81139  14.859  17.799  12.541
 9611W        W81140  11.582  21.931   2.786
 9612W        W81141  33.499  29.565  14.491
 9613W        W81142   6.685  11.883  11.492
 9614W        W81143   2.598   6.781  11.990
 9615W        W81144  38.066  29.954  12.556
 9616W        W81145   6.707   6.756  13.533
 9617W        W81146  44.432  39.459   4.294
 9618W        W81147  20.136  31.055   1.988
 9619W        W81148   2.475  33.476  13.103
 9620W        W81149  39.780  26.502   2.005
 9621W        W81150  16.593  13.103   0.919
 9622W        W81151  34.962  36.510  12.902
 9623W        W81152  29.632  40.567   2.288
 9624W        W81153   9.998  12.611  13.255
 9625W        W81154  43.489  42.008  14.413
 9626W        W81155   2.583  39.995  13.897
 9627W        W81156   9.773  30.222  13.426
 9628W        W81157   8.829  41.262   3.426
 9629W        W81158  27.705   0.343   1.417
 9630W        W81159  28.957  42.856  14.450
 9631W        W81160   3.742  28.289  11.472
 9632W        W81161  29.753   2.693  13.943
 9633W        W81162  43.833  34.777   3.321
 9634W        W81163  31.416  16.727  10.498
 9635W        W81164   0.229   4.911  14.375
 9636W        W81165  41.140  38.590   4.293
 9637W        W81166   9.796  41.399   2.454
 9638W        W81167  40.295  31.891   1.612
 9639W        W81168   7.901  44.748  11.397
 9640W        W81169   7.401  13.253  13.127
 9641W        W81170   7.292  14.607   0.860
 9642W        W81171  33.988  35.786  10.619
 9643W        W81172  10.191  17.855  14.494
 9644W        W81173  12.595   9.133   3.274
 9645W        W81174   1.293  36.028   4.941
 9646W        W81175  25.142  30.606   3.818
 9647W        W81176  21.243  35.158   4.500
 9648W        W81177  31.978  34.602   1.122
 9649W        W81178  29.604  18.376   4.097
 9650W        W81179  23.207  25.568  11.924
 9651W        W81180  13.107   7.716  10.715
 9652W        W81181   0.815  37.742   3.681
 9653W        W81182   3.769   5.590  12.626
 9654W        W81183   1.297   6.921   2.317
 9655W        W81184  41.744   0.909  14.938
 9656W        W81185  15.972   8.314   0.806
 9657W        W81186  34.466  36.401  12.987
 9658W        W81187  17.214  39.011   1.432
 9659W        W81188  26.703   0.822   3.138
 9660W        W81189  12.905  38.580   2.830
 9661W        W81190  35.390  13.728   3.652
 9662W        W81191  29.169  39.245  10.753
 9663W        W81192  12.233  34.433  11.518
 9664W        W81193  43.446  23.695  11.693
 9665W        W81194  17.488  11.765  13.499
 9666W        W81195  10.892  36.559  11.615
 9667W        W81196  17.149  34.501  13.516
 9668W        W81197  30.141  11.053  12.037
 9669W        W81198  12.144  12.246   2.295
 9670W        W81199  36.367  42.384  12.970
 9671W        W81200  29.317  28.158  13.758
 9672W        W81201  11.057  33.489   3.399
 9673W        W81202  28.022  19.020  12.534
 9674W        W81203  15.265  39.524  12.261
 9675W        W81204  26.806  29.107   0.796
 9676W        W81205   6.221   2.635  12.455
 9677W        W81206  15.926  37.561  10.683
 9678W        W81207  19.862  14.176  12.952
 9679W        W81208   1.700  13.196  12.409
 9680W        W81209   7.505  28.153   4.482
 9681W        W81210   4.431  28.292   3.179
 9682W        W81211  16.814  37.632   1.286
 9683W        W81212   3.891  23.585   4.562
 9684W        W81213   2.577  41.402   4.982
 9685W        W81214  38.108  39.433   2.807
 9686W        W81215  20.577  13.391   1.259
 9687W        W81216  26.139   7.577   0.440
 9688W        W81217  26.003  14.160   3.894
 9689W        W81218  39.954  16.483   4.116
 9690W        W81219  38.001   3.604   5.103
 9691W        W81220  29.428  44.410  10.002
 9692W        W81221  31.494  19.482  14.746
 9693W        W81222   0.860  39.080   3.796
 9694W        W81223  14.140  43.776   2.406
 9695W        W81224  41.953  15.238  12.891
 9696W        W81225   8.010  27.190   3.592
 9697W        W81226  11.450  24.214   3.257
 9698W        W81227  14.646  34.982  11.645
 9699W        W81228  17.322  19.125  12.367
 9700W        W81229  44.495   0.773  13.001
 9701W        W81230   8.857   9.171   3.814
 9702W        W81231  24.993   6.867   2.294
 9703W        W81232  15.556   1.807   2.375
 9704W        W81233  16.547  29.462  11.990
 9705W        W81234  38.006   8.637   3.231
 9706W        W81235  36.001  11.170   4.721
 9707W        W81236  18.645  41.315  11.875
 9708W        W81237  14.797  13.612  14.970
 9709W        W81238   7.345  28.469   0.837
 9710W        W81239   0.205  31.352   4.355
 9711W        W81240  10.233  42.652   4.599
 9712W        W81241  31.386   8.195  13.519
 9713W        W81242  24.246  30.569  12.982
 9714W        W81243   8.033  23.590   0.582
 9715W        W81244  39.964  33.875   4.699
 9716W        W81245  35.332  18.282   2.235
 9717W        W81246  31.617  42.228   2.147
 9718W        W81247  43.541  17.332   4.222
 9719W        W81248  21.282  32.806   3.700
 9720W        W81249   1.433  39.622   4.246
 9721W        W81250  42.060  42.287  12.751
 9722W        W81251  44.423  38.453   1.087
 9723W        W81252  25.759  18.041  11.202
 9724W        W81253   7.898  39.970  11.544
 9725W        W81254  29.078  19.027  14.095
 9726W        W81255  11.340  30.570   1.583
 9727W        W81256  27.745  18.071  11.701
 9728W        W81257   5.738  23.944   4.624
 9729W        W81258  27.740  41.603  14.318
 9730W        W81259  31.942   4.638  10.991
 9731W        W81260  26.929  17.275   3.636
 9732W        W81261  11.713  23.313  10.629
 9733W        W81262  29.020  13.706   2.701
 9734W        W81263  23.766  11.209  13.729
 9735W        W81264  17.615   8.868  13.987
 9736W        W81265  13.450   6.213   1.851
 9737W        W81266  30.365  34.435  13.873
 9738W        W81267  31.964  36.877  10.675
 9739W        W81268  35.669  14.882   3.707
 9740W        W81269  11.927  27.901  11.524
 9741W        W81270  11.182  36.727   2.669
 9742W        W81271  11.981  30.642  12.130
 9743W        W81272  19.629  35.071  11.898
 9744W        W81273   0.972  22.220   2.799
 9745W        W81274  23.594  40.340  14.241
 9746W        W81275  39.833  22.210  11.999
 9747W        W81276  17.201  43.783   2.487
 9748W        W81277  30.766   0.810  14.322
 9749W        W81278  20.042   9.344   2.187
 9750W        W81279  25.190  32.985  10.647
 9751W        W81280  18.869   7.226   4.291
 9752W        W81281  27.570  30.119   3.160
 9753W        W81282   5.649  10.653  13.508
 9754W        W81283  23.562   4.619   1.921
 9755W        W81284  28.578  42.922   0.145
 9756W        W81285   6.421   3.291   3.711
 9757W        W81286  33.693  24.993  14.480
 9758W        W81287  17.941  33.118  13.061
 9759W        W81288  36.027  15.563   1.529
 9760W        W81289  22.905  40.657   5.382
 9761W        W81290  21.052  17.044  12.446
 9762W        W81291  34.987  13.627  13.877
 9763W        W81292  23.025  34.126   4.329
 9764W        W81293  39.645  11.387  13.481
 9765W        W81294  24.641  30.575  10.570
 9766W        W81295  13.152  31.869  11.563
 9767W        W81296  26.166  38.623   0.451
 9768W        W81297   8.555  37.410  12.594
 9769W        W81298   5.808  31.359  13.887
 9770W        W81299  19.183  27.899  14.342
 9771W        W81300   7.162  22.810  14.467
 9772W        W81301  31.809  35.617  11.127
 9773W        W81302   5.936   4.259  13.401
 9774W        W81303  10.653  44.444   4.517
 9775W        W81304   0.009  39.106  11.622
 9776W        W81305  10.776  12.391  14.526
 9777W        W81306  20.660  27.046  12.671
 9778W        W81307  13.648  36.056   1.746
 9779W        W81308   3.925  17.105  10.997
 9780W        W81309   6.848  36.951  13.171
 9781W        W81310  19.292  27.566  10.790
 9782W        W81311  38.297  21.564  11.534
 9783W        W81312  25.692  20.993   3.803
 9784W        W81313   3.436   5.190   1.705
 9785W        W81314   6.313  40.576   4.108
 9786W        W81315  11.021  40.892  14.533
 9787W        W81316   5.484  20.639   4.664
 9788W        W81317  29.990   0.984  10.770
 9789W        W81318  27.137  27.361  10.784
 9790W        W81319  28.091  42.357  14.810
 9791W        W81320  23.409  31.929   3.179
 9792W        W81321  27.096  42.376  10.913
 9793W        W81322  34.391  14.452   3.511
 9794W        W81323  25.227  19.800  11.241
 9795W        W81324   1.495  42.987   1.653
 9796W        W81325  29.541  44.060  11.070
 9797W        W81326  25.624  24.581  14.941
 9798W        W81327  21.570  40.410  11.096
 9799W        W81328   5.621   0.564   1.504
 9800W        W81329   4.275  31.956  14.412
 9801W        W81330  32.401  20.764   0.054
 9802W        W81331  18.525   6.199   2.084
 9803W        W81332   8.801  29.678   2.594
 9804W        W81333  27.542  43.400   3.869
 9805W        W81334  38.014  26.722   1.161
 9806W        W81335  34.481  26.991  12.022
 9807W        W81336  34.410  23.561   3.909
 9808W        W81337  22.119  34.245  12.094
 9809W        W81338   7.255  22.647   2.576
 9810W        W81339   1.746  13.267   1.638
 9811W        W81340  39.370  15.655  14.945
 9812W        W81341   7.658  16.926  12.401
 9813W        W81342  18.795   4.590   0.895
 9814W        W81343   0.436   1.516   0.003
 9815W        W81344  37.813  44.985  14.891
 9816W        W81345   3.311  19.631  10.528
 9817W        W81346  44.963  12.610  12.838
 9818W        W81347  23.218   8.604  13.323
 9819W        W81348  37.350  12.571  10.558
 9820W        W81349   4.690  41.239   2.754
 9821W        W81350   2.277  27.587   3.777
 9822W        W81351  17.834  27.663   4.088
 9823W        W81352  25.695  31.810  11.008
 9824W        W81353  40.521  23.576  12.164
 9825W        W81354  25.759  44.369   2.460
 9826W        W81355  38.396   3.214   2.178
 9827W        W81356  12.141  26.479   0.987
 9828W        W81357   0.696   7.933   0.918
 9829W        W81358  40.354  33.387   2.096
 9830W        W81359  20.643  22.747  11.102
 9831W        W81360   3.478   7.384   1.732
 9832W        W81361  41.943  33.032  10.614
 9833W        W81362   3.926  11.189  13.926
 9834W        W81363  36.825   1.811   1.256
 9835W        W81364  26.376  19.612   4.750
 9836W        W81365  32.594  24.313  11.506
 9837W        W81366  13.185  33.611  10.443
 9838W        W81367  11.824  17.150  12.045
 9839W        W81368  39.461  28.891   1.767
 9840W        W81369  19.807   0.759  13.402
 9841W        W81370  40.409  42.883   2.117
 9842W        W81371  23.026  20.909   3.246
 9843W        W81372  30.973  23.594   2.713
 9844W        W81373  15.185  18.199   4.898
 9845W        W81374  39.866  38.578   4.549
 9846W        W81375   4.033  14.318  14.460
 9847W        W81376  36.797  26.544   0.916
 9848W        W81377   3.886  13.813   2.850
 9849W        W81378   4.971  27.628  13.192
 9850W        W81379  44.629   6.684   3.739
 9851W        W81380  28.673   1.964   0.603
 9852W        W81381  25.021  26.144   3.724
 9853W        W81382  29.872  16.078   0.310
 9854W        W81383   2.360  39.945  12.157
 9855W        W81384  17.192  26.998   1.798
 9856W        W81385   7.770  41.623   0.177
 9857W        W81386  31.145  31.823   3.239
 9858W        W81387  13.601  30.629   0.401
 9859W        W81388   9.243  17.044   0.123
 9860W        W81389   7.092   9.940   2.128
 9861W        W81390  11.405  36.491  11.596
 9862W        W81391  35.603  30.416  11.107
 9863W        W81392  20.680  17.092   2.134
 9864W        W81393  21.686  18.839  15.000
 9865W        W81394  39.326  10.117   1.779
 9866W        W81395   8.902  12.152   2.612
 9867W        W81396  32.495   9.126   3.204
 9868W        W81397  17.276   0.334  10.722
 9869W        W81398  15.349  18.676  11.035
 9870W        W81399  29.651  29.944   2.733
 9871W        W81400  30.471  27.488  14.997
 9872W        W81401  29.130  43.208   3.747
 9873W        W81402   8.447  44.332   2.480
 9874W        W81403   8.710  42.905   0.332
 9875W        W81404   8.689   9.443  12.255
 9876W        W81405   2.873  44.506   4.387
 9877W        W81406  21.649   1.364  11.420
 9878W        W81407  26.618  24.580   2.438
 9879W        W81408  36.063   6.208   0.321
 9880W        W81409  28.048  15.173   1.744
 9881W        W81410  32.238   7.744   5.235
 9882W        W81411  25.483  15.225  11.025
 9883W        W81412  18.589   8.802  14.954
 9884W        W81413   0.726  40.059  11.540
 9885W        W81414   7.933  36.756   4.180
 9886W        W81415   6.557  15.555   5.017
 9887W        W81416  42.796   7.449  11.935
 9888W        W81417  24.536  23.430  11.539
 9889W        W81418  33.123   3.907  12.623
 9890W        W81419  33.131  21.606  11.086
 9891W        W81420  28.098  37.338   0.441
 9892W        W81421  19.805  37.148  13.875
 9893W        W81422  19.376  22.216   4.251
 9894W        W81423  38.373  30.913  14.893
 9895W        W81424   4.144  27.927  11.405
 9896W        W81425  11.527  17.751   3.193
 9897W        W81426  27.301  19.717   2.223
 9898W        W81427  25.025  31.590  13.385
 9899W        W81428  31.908  44.183  12.652
 9900W        W81429   5.191   3.223  12.667
 9901W        W81430   5.185  22.091   4.081
 9902W        W81431  18.841  18.491  13.556
 9903W        W81432  10.140  12.765  13.741
 9904W        W81433  17.869  21.797   2.212
 9905W        W81434  22.237  23.261  14.979
 9906W        W81435   1.468  16.782  11.706
 9907W        W81436   9.221   1.365   0.431
 9908W        W81437  20.302  22.989   3.380
 9909W        W81438  42.179  31.871  14.353
 9910W        W81439  23.652  23.341  12.380
 9911W        W81440   5.316  25.632  12.972
 9912W        W81441  37.073   4.696   1.409
 9913W        W81442  36.694  21.442  13.424
 9914W        W81443  24.984  11.206   0.241
 9915W        W81444  38.395  27.927  13.548
 9916W        W81445   3.359   8.549   2.856
 9917W        W81446  34.029  15.627   2.219
 9918W        W81447  11.574  29.408   3.218
 9919W        W81448  11.287  10.631   2.615
 9920W        W81449  34.480  42.424   4.718
 9921W        W81450  42.951  23.528  11.819
 9922W        W81451   7.170   8.838  14.538
 9923W        W81452  29.141  40.323  14.019
 9924W        W81453  19.079   1.303   3.657
 9925W        W81454  34.994  17.072   0.231
 9926W        W81455  39.116  43.894   2.446
 9927W        W81456   3.298   5.297  14.505
 9928W        W81457  43.462  27.216  10.738
 9929W        W81458  18.119   1.533  14.623
 9930W        W81459  31.955   4.999  10.642
 9931W        W81460  16.167  37.520  13.446
 9932W        W81461  32.420  11.320   0.208
 9933W        W81462  36.825  44.961  10.978
 9934W        W81463  29.696   1.504  13.074
 9935W        W81464  12.426  41.661   2.330
 9936W        W81465   6.184  15.855  12.433
 9937W        W81466   9.415  36.498   2.841
 9938W        W81467  43.034  22.219   1.376
 9939W        W81468  30.149  12.789  11.139
 9940W        W81469   2.520  30.037  13.892
 9941W        W81470  34.603  42.897   0.905
 9942W        W81471   0.461  31.929  13.790
 9943W        W81472  24.082  36.650   4.301
 9944W        W81473  37.475  20.964   3.340
 9945W        W81474  20.671  33.681  13.975
 9946W        W81475  26.606  26.634  14.892
 9947W        W81476   2.638  10.818   4.152
 9948W        W81477  15.441  16.821  14.821
 9949W        W81478  27.523  25.911  11.524
 9950W        W81479  25.495  14.431   2.710
 9951W        W81480  34.203   5.882  11.105
 9952W        W81481   1.870  40.788   3.446
 9953W        W81482  17.536  27.613  13.021
 9954W        W81483  37.361  25.333  11.541
 9955W        W81484  31.211  11.302   1.131
 9956W        W81485  35.617  28.760   2.879
 9957W        W81486  20.035  38.306  14.009
 9958W        W81487   9.892  44.379   2.830
 9959W        W81488  41.889   3.152   4.890
 9960W        W81489  40.188  31.332   0.745
 9961W        W81490   1.725   8.395   3.758
 9962W        W81491   6.929  17.107  10.379
 9963W        W81492  21.027  33.650   3.287
 9964W        W81493  11.890  30.652  11.281
 9965W        W81494  31.390  33.559   0.461
 9966W        W81495  26.504  43.500   0.410
 9967W        W81496  10.446  24.110   2.211
 9968W        W81497  13.137  26.554  14.761
 9969W        W81498   3.429  44.227   2.604
 9970W        W81499  15.736  37.531   3.185
 9971W        W81500  25.690   4.920  10.653
 9972W        W81501  28.548  31.416  10.683
 9973W        W81502  41.794   6.096   2.328
 9974W        W81503  36.128  13.939  12.975
 9975W        W81504  12.983  13.809   3.437
 9976W        W81505   9.202  40.451   4.095
 9977W        W81506  15.114  16.665   3.309
 9978W        W81507   0.975  35.050   1.124
 9979W        W81508  13.339  36.082   0.278
 9980W        W81509  17.533  10.731   1.319
 9981W        W81510   0.588   3.656  11.662
 9982W        W81511   6.775   0.554   0.061
 9983W        W81512  31.151  34.478   4.911
 9984W        W81513  32.582  21.678  10.612
 9985W        W81514  23.919  40.112   3.737
 9986W        W81515   6.755  30.579  11.930
 9987W        W81516  42.926  11.788  13.469
 9988W        W81517  14.683  26.629  13.483
 9989W        W81518  44.769  40.585   4.426
 9990W        W81519  18.709  19.051   1.202
 9991W        W81520  18.215  13.764   2.595
 9992W        W81521  16.591   0.816  13.069
 9993W        W81522  27.596  19.598  11.597
 9994W        W81523   4.839  42.618  12.096
 9995W        W81524  10.615  29.218  11.136
 9996W        W81525   5.910  20.553   1.675
 9997W        W81526   1.331  36.796  10.756
 9998W        W81527   9.414  25.757   2.259
 9999W        W81528  31.001  35.970   0.026
10000W        W81529   5.351   0.865   0.703
10001W        W81530  20.501  28.573  14.893
10002W        W81531  10.645   6.721  10.433
10003W        W81532   6.887   5.669  13.953
10004W        W81533  11.720  42.452   3.693
10005W        W81534  22.534  15.661  10.642
10006W        W81535  16.805  21.553  12.935
10007W        W81536  17.092  44.871  10.544
10008W        W81537  38.280  35.064   1.555
10009W        W81538  14.606  27.090   3.304
10010W        W81539  19.729  26.719  13.090
10011W        W81540  24.191  30.559   3.531
10012W        W81541  27.893  25.513  12.429
10013W        W81542  29.063  15.866   0.963
10014W        W81543  32.836   5.998   0.794
10015W        W81544  35.481  39.766  13.972
10016W        W81545   5.020  17.466   2.357
10017W        W81546  36.673  14.343   3.108
10018W        W81547   2.296  34.920  12.428
10019W        W81548  21.198  41.016   3.527
10020W        W81549  27.155  10.194   0.417
10021W        W81550  42.457  19.123   4.399
10022W        W81551   7.681   7.928  11.230
10023W        W81552   7.841  27.156   2.628
10024W        W81553  21.752  23.752   2.236
10025W        W81554   3.456  27.948  14.836
10026W        W81555   7.691  16.727  11.771
10027W        W81556  32.193  38.294   3.154
10028W        W81557   0.988   1.465  10.503
10029W        W81558  13.807  30.144  11.629
10030W        W81559   7.622  15.693  12.697
10031W        W81560  27.775  38.408  14.930
10032W        W81561  34.402  10.914   1.854
10033W        W81562  19.395  31.905  11.061
10034W        W81563  24.985   9.798   2.454
10035W        W81564  32.506  41.266   3.286
10036W        W81565   4.460  24.746  12.550
10037W        W81566  32.722  37.303   4.190
10038W        W81567  19.753  27.010   4.139
10039W        W81568  12.455  27.209   3.699
10040W        W81569  21.258   6.818   4.837
10041W        W81570  32.163  37.569  12.191
10042W        W81571   0.857  15.141   4.711
10043W        W81572  31.538  14.780   1.357
10044W        W81573   5.482   6.964   2.584
10045W        W81574  33.856  21.103   2.767
10046W        W81575  27.456  34.185  12.983
10047W        W81576  41.823  15.752  11.573
10048W        W81577   7.838  37.171   2.806
10049W        W81578  10.847  15.245  11.486
10050W        W81579   7.029  31.567  14.466
10051W        W81580  15.759  10.289   2.937
10052W        W81581  39.583  38.418  13.049
10053W        W81582  25.587  43.394  12.583
10054W        W81583   5.900  11.602   1.763
10055W        W81584  10.845   1.527   3.812
10056W        W81585  41.646  18.608  11.913
10057W        W81586  28.908  27.409  12.834
10058W        W81587  39.912  40.844   0.277
10059W        W81588   6.559  31.238  12.284
10060W        W81589  41.527  28.294   0.950
10061W        W81590  19.111   9.289  13.678
10062W        W81591  23.752  16.815  14.354
10063W        W81592  28.862  29.215  11.141
10064W        W81593  11.673   1.344  11.749
10065W        W81594  32.413  25.475  12.930
10066W        W81595   9.360  24.513  12.155
10067W        W81596  11.404   8.286   1.791
10068W        W81597   4.354   9.148   4.297
10069W        W81598  23.984  41.965   3.933
10070W        W81599  43.988  31.563  12.459
10071W        W81600  30.424  37.468  14.361
10072W        W81601  30.852  42.194   0.863
10073W        W81602  18.617   3.993  11.229
10074W        W81603  43.516  16.342  13.390
10075W        W81604  27.865  27.578  11.955
10076W        W81605   1.836  38.608   2.458
10077W        W81606  36.808   6.425   1.827
10078W        W81607  43.537  43.478  14.937
10079W        W81608  14.655  27.615  13.536
10080W        W81609  33.235  18.493  12.104
10081W        W81610   1.778  13.850  13.460
10082W        W81611  38.610  17.860  13.047
10083W        W81612  39.847   5.412  11.063
10084W        W81613  18.335  30.831  14.859
10085W        W81614  22.662   8.729  14.040
10086W        W81615  34.106   2.252   2.389
10087W        W81616  17.548  26.615   3.238
10088W        W81617  17.599  41.993   0.827
10089W        W81618  27.547   8.880   1.365
10090W        W81619  18.721  40.605   1.408
10091W        W81620  29.949  14.744  11.125
10092W        W81621   4.693   4.779   1.726
10093W        W81622  26.152  32.110  14.433
10094W        W81623   1.050   6.236   0.854
10095W        W81624   3.904  24.714   3.846
10096W        W81625   2.161   4.753   1.966
10097W        W81626  11.077  17.535  13.439
10098W        W81627  35.916   5.434  11.769
10099W        W81628  44.385  11.568   1.200
10100W        W81629  24.001  42.520   3.139
10101W        W81630  12.741  18.772   0.391
10102W        W81631  40.426  29.538   5.025
10103W        W81632  18.343   3.336  14.066
10104W        W81633  40.844  11.698  11.621
10105W        W81634  18.245  19.426  11.107
10106W        W81635   8.832  39.819  10.723
10107W        W81636  28.711  10.151  10.744
10108W        W81637  44.383  39.352   3.270
10109W        W81638  14.908   6.022   2.159
10110W        W81639   0.926  36.028   0.178
10111W        W81640  22.298   9.309   2.740
10112W        W81641  23.558  15.767  12.165
10113W        W81642  38.658  10.193   4.135
10114W        W81643  21.505  37.716  11.546
10115W        W81644  10.231  12.761   1.661
10116W        W81645   8.842  24.672  14.106
10117W        W81646  43.462  28.489   1.045
10118W        W81647  29.828   8.084   0.284
10119W        W81648  19.319  15.104  12.079
10120W        W81649  30.616  22.694   2.854
10121W        W81650  33.585  43.301   0.026
10122W        W81651  35.673  20.722   0.794
10123W        W81652  30.939   0.553   1.403
10124W        W81653  26.935  14.834   4.909
10125W        W81654   4.923  19.445   1.429
10126W        W81655  15.888  22.757  13.944
10127W        W81656  37.029  34.872  14.448
10128W        W81657  24.275   7.485  14.511
10129W        W81658  31.659  35.085  12.359
10130W        W81659   5.625  31.502  10.836
10131W        W81660  40.983   8.218   0.792
10132W        W81661  31.497  36.811  14.731
10133W        W81662  31.865  27.870  11.092
10134W        W81663  21.665  15.263  11.570
10135W        W81664  13.781   3.472   2.231
10136W        W81665  18.270  17.842   1.067
10137W        W81666  43.289  37.790  14.978
10138W        W81667  30.870  33.072  14.764
10139W        W81668  33.208  36.434   3.601
10140W        W81669  38.382  21.125   2.215
10141W        W81670  24.895  14.801  12.895
10142W        W81671  26.634  11.767  14.810
10143W        W81672   5.872   0.957  14.823
10144W        W81673   1.985  30.680  12.993
10145W        W81674  33.723   9.384  11.793
10146W        W81675   8.638  10.401  10.723
10147W        W81676  20.725  11.546  13.379
10148W        W81677  42.759  23.775   2.306
10149W        W81678  20.779  41.965   4.062
10150W        W81679  44.975  39.615  11.673
10151W        W81680   3.557  36.854   4.118
10152W        W81681   8.621  12.931   4.196
10153W        W81682  13.668  10.879   1.023
10154W        W81683  10.635  25.443   2.654
10155W        W81684  41.563  11.725   5.109
10156W        W81685  14.597  18.669  13.924
10157W        W81686  27.378  16.727   2.193
10158W        W81687  15.815  41.510  13.900
10159W        W81688  23.083  41.233   1.402
10160W        W81689  39.610  27.949  14.017
10161W        W81690  19.808  34.671   4.963
10162W        W81691  25.425  35.114   0.841
10163W        W81692  15.648  40.522  13.474
10164W        W81693  22.595  15.161   3.191
10165W        W81694  27.143   1.923  12.340
10166W        W81695  42.074  23.273  12.399
10167W        W81696  17.674   2.248   1.679
10168W        W81697  10.159  17.658   0.323
10169W        W81698   1.503  43.289   2.795
10170W        W81699  34.329   8.494  12.749
10171W        W81700  29.868  44.492   2.793
10172W        W81701  18.212  26.695   3.883
10173W        W81702  11.242  29.684  12.685
10174W        W81703   4.408  12.358   4.328
10175W        W81704   0.024   9.238   4.165
10176W        W81705  17.357  24.394  11.411
10177W        W81706  34.309  17.699   4.742
10178W        W81707  23.377  20.340  11.069
10179W        W81708  17.071  24.156  11.073
10180W        W81709  26.450  35.352   3.159
10181W        W81710  41.579  23.237  12.474
10182W        W81711  34.875  35.247  10.907
10183W        W81712  30.729  10.131   4.221
10184W        W81713  41.476   0.325  11.056
10185W        W81714  44.303  37.576   1.433
10186W        W81715  23.011  22.706   1.899
10187W        W81716  41.059  16.690  14.877
10188W        W81717  43.953  35.970   2.374
10189W        W81718   4.936  43.709  11.081
10190W        W81719  19.824  14.536   3.125
10191W        W81720  44.347   6.010   1.001
10192W        W81721  24.568   2.011   0.191
10193W        W81722  13.189   9.076  13.469
10194W        W81723  23.446   1.644  14.006
10195W        W81724  26.991  10.143  13.326
10196W        W81725  43.775   9.284   3.197
10197W        W81726  32.918  37.001  11.895
10198W        W81727  31.062  14.344   3.315
10199W        W81728   1.719  32.425  13.455
10200W        W81729  24.037  21.732  11.418
10201W        W81730  29.574  27.233   4.078
10202W        W81731  33.852  34.493  11.989
10203W        W81732  43.248   6.887   0.475
10204W        W81733  15.094  15.835   2.924
10205W        W81734  39.245  36.153   1.950
10206W        W81735   0.527  13.629   3.834
10207W        W81736   8.556  19.306   3.550
10208W        W81737  16.714  34.983   3.287
10209W        W81738  34.876  11.283  14.494
10210W        W81739  20.704   0.743   4.639
10211W        W81740  33.725  34.403   0.466
10212W        W81741  25.211   4.484   1.412
10213W        W81742  18.032   2.302   2.691
10214W        W81743   5.269  21.994   0.810
10215W        W81744  14.076  22.461  14.745
10216W        W81745  10.595  40.977   4.881
10217W        W81746  17.875   5.317  13.940
10218W        W81747   1.453  13.644   3.642
10219W        W81748  38.170   8.834   5.115
10220W        W81749   8.432   9.350  11.468
10221W        W81750  20.758  40.787  11.463
10222W        W81751   6.497  30.997  11.170
10223W        W81752  19.650  14.891  12.458
10224W        W81753  15.710  31.667   3.738
10225W        W81754  20.049   7.147  13.571
10226W        W81755   8.762  26.056   4.664
10227W        W81756  22.016  12.057   2.531
10228W        W81757  41.367   2.524   1.993
10229W        W81758   4.332  14.299  13.477
10230W        W81759  23.523   6.186  12.031
10231W        W81760  14.569  24.527  11.023
10232W        W81761  31.376  25.489  14.421
10233W        W81762   6.839  20.234   0.289
10234W        W81763  41.161  30.318  11.376
10235W        W81764  41.741  42.990   0.464
10236W        W81765  33.950  34.975  14.277
10237W        W81766  42.841  34.869  12.540
10238W        W81767   9.834  39.033  11.627
10239W        W81768  15.108  33.959  12.517
10240W        W81769  13.567  43.840  10.819
10241W        W81770   4.764  20.375   1.335
10242W        W81771   2.717  30.198  10.737
10243W        W81772  20.160   3.746  13.451
10244W        W81773  11.287  39.154  12.676
10245W        W81774   8.230  19.916  12.833
10246W        W81775  16.593  30.263  11.331
10247W        W81776   4.525  10.023  14.939
10248W        W81777   6.262  28.387   3.292
10249W        W81778  15.767  38.594  12.899
10250W        W81779  32.678  41.516  13.928
10251W        W81780  34.303  17.143  13.192
10252W        W81781  25.015  26.516   2.681
10253W        W81782   4.422  17.042   3.754
10254W        W81783   8.639  16.079   4.077
10255W        W81784  44.069  10.350   2.271
10256W        W81785  38.967  36.883   0.258
10257W        W81786  32.545  25.462   2.774
10258W        W81787  43.354  38.802   1.757
10259W        W81788  39.577  41.034   2.638
10260W        W81789   2.807  16.974   1.481
10261W        W81790  15.118  22.696  12.591
10262W        W81791  43.445  16.720  11.585
10263W        W81792  19.277  15.285   2.712
10264W        W81793  17.216  27.728   1.255
10265W        W81794  42.343  19.884  11.889
10266W        W81795  43.925  13.516   4.739
10267W        W81796  22.205   9.304   4.618
10268W        W81797   2.328  42.788  10.424
10269W        W81798  11.865  16.678   0.292
10270W        W81799  15.294  26.576   2.670
10271W        W81800  42.567  36.094  11.508
10272W        W81801   3.071   5.472   3.113
10273W        W81802  17.253  30.387  13.068
10274W        W81803  27.630  21.621  11.193
10275W        W81804  38.644  35.518  10.449
10276W        W81805   5.652   1.165   2.837
10277W        W81806  40.294  39.482   2.920
10278W        W81807  20.705  18.730  12.671
10279W        W81808  42.970  44.435  13.502
10280W        W81809  20.928  41.204   0.394
10281W        W81810   5.713  27.130  14.840
10282W        W81811   2.262  17.042  10.811
10283W        W81812  23.726  16.515  13.923
10284W        W81813  23.157  21.592  13.013
10285W        W81814  39.951   4.442  11.257
10286W        W81815  32.377  21.695  14.968
10287W        W81816   0.834   7.925  12.356
10288W        W81817   5.208  42.845   0.469
10289W        W81818  15.851  39.337  14.302
10290W        W81819  38.124  22.987   2.714
10291W        W81820  22.138  36.545  13.338
10292W        W81821  21.520  25.221  13.153
10293W        W81822  13.286  28.113  11.064
10294W        W81823   6.396  14.961   2.883
10295W        W81824  14.681  17.486   4.372
10296W        W81825  19.500   9.954  10.596
10297W        W81826   5.057  33.593   4.203
10298W        W81827  33.663  16.092   2.895
10299W        W81828   4.879  34.138   0.304
10300W        W81829  44.732  30.742   0.421
10301W        W81830  24.048  41.438   1.290
10302W        W81831  34.849   3.109   1.454
10303W        W81832  36.733  30.306  10.290
10304W        W81833  30.074  35.430  13.678
10305W        W81834   5.222  29.177   4.772
10306W        W81835   3.256  40.917   2.310
10307W        W81836   8.259  20.086   1.626
10308W        W81837  43.478  20.998   1.285
10309W        W81838  33.998  29.355   1.723
10310W        W81839  25.408  26.931   1.761
10311W        W81840  26.242   2.473   1.398
10312W        W81841  33.173  30.352   2.937
10313W        W81842  15.779  39.078   2.385
10314W        W81843  37.551  18.523   1.780
10315W        W81844  18.534  13.151   3.681
10316W        W81845  32.208  32.856  12.461
10317W        W81846  27.824  21.591  11.674
10318W        W81847  10.835  16.555   3.228
10319W        W81848  13.312  28.264   1.238
10320W        W81849  27.634  21.554  13.875
10321W        W81850   6.784  17.337   4.746
10322W        W81851  11.613  13.142  13.026
10323W        W81852  14.846  22.698  13.024
10324W        W81853  44.968   7.682   2.183
10325W        W81854  26.733  26.991  11.668
10326W        W81855   6.868  33.445   3.115
10327W        W81856   5.673  43.436  12.884
10328W        W81857   7.467  21.773   2.381
10329W        W81858  29.555  31.161  11.941
10330W        W81859  11.540  19.071   0.467
10331W        W81860   3.725  44.757  11.087
10332W        W81861  31.995   4.736  11.496
10333W        W81862   0.193   0.959   2.811
10334W        W81863  34.160  17.135   4.199
10335W        W81864  15.886  16.911   1.002
10336W        W81865  17.789   3.538   0.318
10337W        W81866  33.435  37.054   1.846
10338W        W81867   1.243   7.142  11.699
10339W        W81868  40.784  32.507  13.899
10340W        W81869  18.800  10.260   4.581
10341W        W81870  38.998  38.737   3.665
10342W        W81871  12.969   3.456   2.315
10343W        W81872  14.707  32.802   3.397
10344W        W81873  16.774  43.354  12.901
10345W        W81874  43.251   7.337  11.727
10346W        W81875  41.590   1.836   4.640
10347W        W81876  11.341   3.793   4.011
10348W        W81877  15.580  33.146  13.540
10349W        W81878  25.597  34.817  13.017
10350W        W81879  31.108   4.393   1.713
10351W        W81880  19.967  20.696  12.495
10352W        W81881  11.738   5.175   3.996
10353W        W81882  10.223   4.954  10.889
10354W        W81883   6.702  33.580  14.023
10355W        W81884   7.345  17.004  13.178
10356W        W81885  28.611  12.697   4.458
10357W        W81886  23.309   4.884   0.350
10358W        W81887  19.788  44.081  13.787
10359W        W81888  21.187  13.611  10.926
10360W        W81889  10.578  28.646  11.661
10361W        W81890   2.770  23.004  12.616
10362W        W81891  31.163  30.478  11.027
10363W        W81892   0.359  38.308  12.757
10364W        W81893  19.864  42.466  14.752
10365W        W81894  23.256   9.735   3.115
10366W        W81895  38.306  22.218   1.614
10367W        W81896   9.365   2.500  12.823
10368W        W81897   1.522  20.771  14.299
10369W        W81898  10.299  27.472  12.643
10370W        W81899  10.063  41.618  12.536
10371W        W81900  11.642  13.774  11.872
10372W        W81901   4.022   9.507   3.193
10373W        W81902   7.485  43.292   0.101
10374W        W81903  19.857  19.097   2.233
10375W        W81904  36.076  30.672   1.273
10376W        W81905   9.196  39.853  12.206
10377W        W81906  28.788  18.995   1.717
10378W        W81907   7.383  13.414  12.056
10379W        W81908  30.634   5.768   0.913
10380W        W81909  24.637  44.644   4.600
10381W        W81910   5.849  25.356   0.009
10382W        W81911  31.151   9.480  13.846
10383W        W81912  23.280   9.579  13.571
10384W        W81913  29.532  42.706  12.109
10385W        W81914  16.646   5.753  10.524
10386W        W81915  35.843  11.164   3.661
10387W        W81916  13.716  27.158   4.272
10388W        W81917  31.040  31.204   4.074
10389W        W81918  33.915   6.963  11.578
10390W        W81919  29.640  23.675   3.382
10391W        W81920   0.024  25.790  13.042
10392W        W81921  37.071  39.395  12.661
10393W        W81922  23.612  34.626  13.364
10394W        W81923  33.022  16.783   0.725
10395W        W81924   5.881   7.382  10.566
10396W        W81925  20.090   3.050   0.432
10397W        W81926  17.523  22.269   3.790
10398W        W81927  24.223   6.809  14.770
10399W        W81928  38.186  21.207  11.155
10400W        W81929  16.186  42.293  12.131
10401W        W81930   3.435  13.125   4.372
10402W        W81931   4.362  32.783   1.280
10403W        W81932  32.168  41.059  11.216
10404W        W81933  39.811   0.283   1.328
10405W        W81934  23.585  22.496   1.285
10406W        W81935  13.741  27.136  10.579
10407W        W81936  12.199  33.513  13.180
10408W        W81937   3.967  44.328   4.327
10409W        W81938  19.739   0.493   2.890
10410W        W81939   3.532  43.927   0.326
10411W        W81940  27.898  20.820   4.568
10412W        W81941  23.660  30.509   3.561
10413W        W81942  18.071  16.603  10.662
10414W        W81943  22.666  33.160   1.002
10415W        W81944  12.503  15.144   1.703
10416W        W81945  16.196   5.743   2.202
10417W        W81946  15.284  28.638  10.375
10418W        W81947   3.407  36.391   2.814
10419W        W81948   8.325  44.423  12.412
10420W        W81949  17.675  42.989   3.150
10421W        W81950  39.175  14.063  14.426
10422W        W81951  28.922   1.128  14.306
10423W        W81952  18.805   0.042  13.139
10424W        W81953  37.673  11.896  14.455
10425W        W81954  16.601  21.317   4.120
10426W        W81955  10.859  43.508  14.917
10427W        W81956  17.010  20.462   2.606
10428W        W81957  16.872  37.091  13.230
10429W        W81958  11.573  27.949   5.084
10430W        W81959  26.125  36.933   4.295
10431W        W81960  30.639  18.047   0.736
10432W        W81961  40.760  38.997   0.494
10433W        W81962  11.381  13.531   3.645
10434W        W81963  10.357   2.480  11.964
10435W        W81964  29.240  41.841   2.109
10436W        W81965  29.121  27.652  13.247
10437W        W81966  16.477  15.453   0.406
10438W        W81967  26.627  28.404  14.495
10439W        W81968  35.915  18.685   4.546
10440W        W81969  16.715  38.142  14.579
10441W        W81970  17.736  11.513  13.066
10442W        W81971  30.986  37.608   1.777
10443W        W81972  42.513  44.508  14.846
10444W        W81973  32.126  42.386  10.631
10445W        W81974  25.192  36.885  11.983
10446W        W81975  44.073  37.437   0.683
10447W        W81976  12.630  25.502   2.755
10448W        W81977  24.947   5.803   2.910
10449W        W81978  32.097  38.046  11.992
10450W        W81979   7.695  33.609   0.837
10451W        W81980   8.372  13.706  12.339
10452W        W81981   6.875  11.086   4.166
10453W        W81982  39.175  11.128   0.817
10454W        W81983  18.546  34.615   3.605
10455W        W81984   7.126   8.221   2.045
10456W        W81985  34.704  33.400   2.783
10457W        W81986  32.961   6.503  12.513
10458W        W81987  15.263  10.563   3.576
10459W        W81988   5.155  23.076   3.177
10460W        W81989   6.134  37.331  12.495
10461W        W81990  33.219  44.926   2.413
10462W        W81991  26.115  34.630   0.365
10463W        W81992  38.820   7.837  12.956
10464W        W81993   4.278  15.353  11.591
10465W        W81994  25.909   1.305  12.209
10466W        W81995  28.219  40.786   0.810
10467W        W81996  32.338   6.412  13.270
10468W        W81997  12.168  21.299  13.413
10469W        W81998  41.700  23.620   1.564
10470W        W81999  21.023  34.390   3.749
10471W        W82000   5.083   5.803  10.250
10472W        W82001  30.964  40.082   2.623
10473W        W82002   8.460  43.926   1.641
10474W        W82003  31.322  30.841  12.972
10475W        W82004  38.047  17.561  14.807
10476W        W82005   7.748  36.448  11.404
10477W        W82006  15.297   6.183  11.613
10478W        W82007  28.472  25.403   2.713
10479W        W82008   6.723  17.411   2.867
10480W        W82009  25.896   5.188  11.513
10481W        W82010  11.098  20.044  13.366
10482W        W82011  43.733  38.946   1.255
10483W        W82012  32.606   0.545  11.256
10484W        W82013  18.060  17.702   0.585
10485W        W82014   0.104  13.165   4.226
10486W        W82015  41.251  16.781   3.303
10487W        W82016  21.196  31.377  14.880
10488W        W82017  20.811  15.252  10.695
10489W        W82018   1.203   3.845   3.246
10490W        W82019  27.195   8.801   0.527
10491W        W82020  39.747  43.372  10.307
10492W        W82021  33.663  21.564   2.515
10493W        W82022  31.018  42.448   2.694
10494W        W82023  38.829  21.742   1.311
10495W        W82024  36.920  44.802  10.465
10496W        W82025  17.608  33.355   2.731
10497W        W82026  42.795   6.332  14.786
10498W        W82027  35.609   3.358   1.263
10499W        W82028  31.437   3.819  11.022
10500W        W82029  23.551  32.620  11.314
10501W        W82030   2.961  44.001   4.272
10502W        W82031   6.369  29.404   4.891
10503W        W82032  10.108   2.782   4.590
10504W        W82033  12.622  22.779  14.014
10505W        W82034  17.232  32.701   3.634
10506W        W82035  18.613   7.891   4.486
10507W        W82036  10.852   9.678   0.887
10508W        W82037  31.753  18.604   4.138
10509W        W82038  29.547  26.911  10.180
10510W        W82039  11.972   7.093   3.944
10511W        W82040  39.516  21.199   4.628
10512W        W82041   5.333   6.763   3.267
10513W        W82042  44.678  23.705  11.014
10514W        W82043   3.640  26.863   1.657
10515W        W82044  14.990   2.546   4.736
10516W        W82045   3.492  24.524  14.896
10517W        W82046  17.639  32.430  11.522
10518W        W82047  19.577  20.443  10.691
10519W        W82048   0.447  25.206   1.861
10520W        W82049  16.557  32.928   3.326
10521W        W82050  42.471  22.667  13.608
10522W        W82051  38.971  19.437   5.005
10523W        W82052  31.589  13.565   3.901
10524W        W82053  38.965  37.690  13.397
10525W        W82054  35.013  35.917   2.603
10526W        W82055  15.265  32.290   3.501
10527W        W82056  40.265  28.158  11.050
10528W        W82057  42.261  32.403  12.302
10529W        W82058  41.808   3.664   1.712
10530W        W82059  36.525  13.596  13.024
10531W        W82060  39.441  36.180  14.710
10532W        W82061  32.616  28.690   0.351
10533W        W82062   6.198  32.173  10.814
10534W        W82063  17.115  18.827   4.279
10535W        W82064  41.154  39.393  13.064
10536W        W82065   9.611  12.857   2.386
10537W        W82066  17.056  42.521  10.636
10538W        W82067  10.841  27.453   0.490
10539W        W82068  31.444   1.224  11.581
10540W        W82069  44.509   5.677  10.622
10541W        W82070  32.784  37.330   1.429
10542W        W82071   1.799  27.670   0.750
10543W        W82072  33.159  26.169   0.827
10544W        W82073  38.072  20.936  10.475
10545W        W82074  36.072  41.327  11.580
10546W        W82075  11.011  21.498  13.000
10547W        W82076  16.161   4.508  13.037
10548W        W82077  22.791  28.472  10.915
10549W        W82078  37.896  20.130   1.713
10550W        W82079  28.954   2.570   1.336
10551W        W82080  40.695  32.318   4.168
10552W        W82081  22.651  23.952   1.889
10553W        W82082  36.983  16.195  14.296
10554W        W82083  20.099  22.103  14.332
10555W        W82084  35.926  24.713   3.858
10556W        W82085  27.508  34.307  12.463
10557W        W82086  41.916  22.418  13.465
10558W        W82087   1.369  35.379   9.804
10559W        W82088  23.596  44.089   3.538
10560W        W82089   0.140  40.686  13.279
10561W        W82090  29.539   2.785   0.335
10562W        W82091  43.263  15.222   4.695
10563W        W82092  14.811  27.749   4.753
10564W        W82093  27.199   4.698   3.359
10565W        W82094  40.009  24.569   0.424
10566W        W82095  33.637  25.390   0.477
10567W        W82096  42.468  33.631   0.362
10568W        W82097  44.322   3.975  11.251
10569W        W82098  36.788  31.124   2.867
10570W        W82099  13.237   8.127   1.182
10571W        W82100  17.538  26.073   3.138
10572W        W82101  24.365  31.663  14.525
10573W        W82102   2.842  12.232  10.697
10574W        W82103  27.118   2.498   4.091
10575W        W82104  39.534  18.178  12.083
10576W        W82105  25.044   2.043  12.055
10577W        W82106  22.719   6.865   0.158
10578W        W82107  43.447  17.322   3.313
10579W        W82108  43.736   2.490   0.946
10580W        W82109  30.699   5.198  13.194
10581W        W82110  20.282   9.625   2.775
10582W        W82111  15.351  13.197   1.349
10583W        W82112   8.255   7.269  13.799
10584W        W82113   7.793  27.656  14.870
10585W        W82114  18.508  26.656   1.881
10586W        W82115  41.538  30.954  11.160
10587W        W82116   4.718  31.153   3.993
10588W        W82117  36.820   7.312   3.458
10589W        W82118  44.067  22.330  11.516
10590W        W82119  28.131  29.097   0.392
10591W        W82120   2.970  38.173  13.919
10592W        W82121  39.414  40.540   1.936
10593W        W82122  19.420  15.520   3.155
10594W        W82123   5.409   4.363  13.945
10595W        W82124  24.961  36.064   4.454
10596W        W82125  29.043  26.251  12.191
10597W        W82126  40.525  20.214  14.431
10598W        W82127  41.417  13.229  11.964
10599W        W82128  17.637  44.806   3.296
10600W        W82129  28.572  20.251  10.957
10601W        W82130  20.554  43.477  14.927
10602W        W82131  33.105  10.832  13.052
10603W        W82132  10.667  21.710  11.435
10604W        W82133  34.328  25.725   2.263
10605W        W82134  22.576  37.838   0.412
10606W        W82135  16.584  35.358  14.771
10607W        W82136  10.821   3.941   1.776
10608W        W82137  42.960  20.795   1.325
10609W        W82138  27.145   1.666   2.804
10610W        W82139  34.849  23.248   0.672
10611W        W82140   1.331  43.715  11.043
10612W        W82141  34.842  21.144  14.605
10613W        W82142   3.693  36.592   1.307
10614W        W82143  33.139  37.048   2.333
10615W        W82144  41.887   2.855   4.371
10616W        W82145  27.157  12.070   4.577
10617W        W82146  14.826  18.269  10.687
10618W        W82147  17.251  16.258  11.543
10619W        W82148  13.127  37.428   4.210
10620W        W82149  30.841  18.564  11.805
10621W        W82150  25.224  26.365  12.601
10622W        W82151  39.956   1.865   0.922
10623W        W82152  30.517  11.156  12.376
10624W        W82153  37.013  32.686  11.959
10625W        W82154  37.554  41.515  12.406
10626W        W82155  22.752   9.329   0.234
10627W        W82156  41.982  36.183   4.622
10628W        W82157  18.614  38.204  12.962
10629W        W82158   0.962  28.787  10.654
10630W        W82159  22.118  38.840  11.497
10631W        W82160  25.568  17.783  13.055
10632W        W82161  32.464  15.639   4.544
10633W        W82162  24.979  43.516   1.807
10634W        W82163   9.207  43.845  12.156
10635W        W82164  32.268   5.863   2.276
10636W        W82165   7.497   4.647   4.062
10637W        W82166  11.690   6.386   0.512
10638W        W82167  24.052   3.305   1.939
10639W        W82168  14.975   7.017   9.808
10640W        W82169  27.980  32.077  12.088
10641W        W82170   6.410  34.862   3.898
10642W        W82171  32.209  17.434  14.454
10643W        W82172   6.192  40.904   4.637
10644W        W82173  39.795  10.142   3.585
10645W        W82174  23.535  10.758  13.888
10646W        W82175  36.821  23.272   1.319
10647W        W82176  12.836   8.907   0.121
10648W        W82177  22.504  25.179   4.719
10649W        W82178   1.304  21.262  12.128
10650W        W82179  22.770  41.328  13.773
10651W        W82180  44.539   2.660   0.018
10652W        W82181   4.798  14.196   4.250
10653W        W82182  28.324  13.567   5.428
10654W        W82183  22.979  41.048  10.768
10655W        W82184  18.550   5.360   4.969
10656W        W82185   7.949   1.829  14.446
10657W        W82186   2.987  32.951   0.881
10658W        W82187   3.191  30.473   3.250
10659W        W82188  41.468  41.718  12.078
10660W        W82189  10.389  12.458  14.873
10661W        W82190  43.219   4.928  12.367
10662W        W82191   8.940   5.276   0.386
10663W        W82192  29.505  37.798   4.775
10664W        W82193   1.474   7.287   0.910
10665W        W82194   5.163   2.664   0.350
10666W        W82195  17.054   0.541   3.665
10667W        W82196  35.450  39.415  13.596
10668W        W82197  29.193  20.521   3.805
10669W        W82198   6.781  31.100   0.986
10670W        W82199  14.810  21.289   1.148
10671W        W82200  35.530  38.372   0.294
10672W        W82201  21.065  25.250   4.602
10673W        W82202   6.089  17.354  10.700
10674W        W82203  10.749  33.336  13.085
10675W        W82204  38.287  37.153   0.566
10676W        W82205  16.724   5.911  14.235
10677W        W82206   6.774  27.183   3.085
10678W        W82207  11.228  36.384  14.343
10679W        W82208  14.773   0.612  11.488
10680W        W82209  23.255   8.951   0.815
10681W        W82210  32.711   1.473  11.166
10682W        W82211  35.119  26.238  11.976
10683W        W82212  11.798  31.232  10.567
10684W        W82213  29.560   3.886  13.497
10685W        W82214  38.292  13.522  12.409
10686W        W82215  43.719  35.258  11.045
10687W        W82216  14.219  39.897   0.048
10688W        W82217  37.805  12.601  13.322
10689W        W82218   5.044  39.121  11.209
10690W        W82219  16.679  28.440  10.140
10691W        W82220   0.463   9.915  12.431
10692W        W82221  25.882   9.350  13.368
10693W        W82222  17.132   0.703  13.128
10694W        W82223  35.091  37.838   1.235
10695W        W82224   8.602   0.210  14.934
10696W        W82225  30.278  25.014  10.184
10697W        W82226  19.774  43.507  13.024
10698W        W82227   6.584   1.705  10.837
10699W        W82228  11.579  14.253   5.079
10700W        W82229  28.771  33.215  14.399
10701W        W82230  34.898   9.697  14.718
10702W        W82231  26.012  21.166   1.131
10703W        W82232  17.288  37.996   4.628
10704W        W82233  28.602  14.550   3.170
10705W        W82234   6.746  40.649  13.380
10706W        W82235   8.688  13.708  11.882
10707W        W82236   8.302  38.705   4.045
10708W        W82237  21.532  36.903  14.413
10709W        W82238  23.186   9.816   2.621
10710W        W82239  37.805  24.924  13.975
10711W        W82240   5.472  31.904  14.903
10712W        W82241  21.593  36.627  10.675
10713W        W82242  17.031  38.941   3.281
10714W        W82243  42.271  43.393  11.466
10715W        W82244  21.233   0.443  12.121
10716W        W82245  25.676  15.162  13.162
10717W        W82246  43.092  19.827  11.451
10718W        W82247  20.276  44.432   0.336
10719W        W82248  17.591  43.482   0.926
10720W        W82249  16.280  10.282   4.170
10721W        W82250  29.885  20.527  11.178
10722W        W82251  10.732  37.820  11.821
10723W        W82252   0.819  23.133   4.385
10724W        W82253  44.842  32.125   4.920
10725W        W82254  37.836   1.784  13.537
10726W        W82255  23.038  24.017   4.761
10727W        W82256  10.822  25.983   3.651
10728W        W82257   4.111  19.522  11.939
10729W        W82258   5.632  32.085  10.790
10730W        W82259  19.178  44.508  12.639
10731W        W82260  21.364  14.318   2.714
10732W        W82261  35.347  40.278  13.835
10733W        W82262  16.500   4.522  11.023
10734W        W82263  39.946  18.105  13.774
10735W        W82264   1.858  17.098   2.428
10736W        W82265  21.097  41.921  12.840
10737W        W82266  42.997  24.630   3.219
10738W        W82267  10.664  14.152  11.973
10739W        W82268  43.259  26.003   3.777
10740W        W82269   7.786   4.518   0.340
10741W        W82270  22.076  36.981   0.326
10742W        W82271  26.375  27.108   1.424
10743W        W82272  24.747  29.652   1.697
10744W        W82273  25.400  12.118  14.079
10745W        W82274  29.482   6.941   3.240
10746W        W82275   8.171  23.133   2.763
10747W        W82276  14.136  28.219   0.309
10748W        W82277  17.722  19.818  11.900
10749W        W82278  11.140  28.457   0.378
10750W        W82279  32.412  35.966  14.227
10751W        W82280  41.368  10.823   1.726
10752W        W82281   9.228   4.005   2.302
10753W        W82282  43.467  34.953  11.852
10754W        W82283  25.236   2.025   4.802
10755W        W82284  32.749   9.849   2.692
10756W        W82285  14.808   0.335  13.622
10757W        W82286  38.324  14.990  14.090
10758W        W82287  28.001  18.524  13.244
10759W        W82288  37.847  41.268  13.496
10760W        W82289   8.707   4.842   1.243
10761W        W82290  27.634  41.368   2.911
10762W        W82291  13.138  18.086   1.031
10763W        W82292  18.662  20.572   3.542
10764W        W82293  36.828  40.282   0.468
10765W        W82294   6.883  19.764   4.958
10766W        W82295   7.426   1.328   1.074
10767W        W82296   2.683  15.577   3.223
10768W        W82297   1.243  38.796  14.724
10769W        W82298  24.521  28.427   1.205
10770W        W82299  32.053  27.512   1.848
10771W        W82300  37.682  28.182   1.413
10772W        W82301  44.192   5.209  11.617
10773W        W82302  27.180  17.737  13.973
10774W        W82303  42.803  39.723  12.584
10775W        W82304  17.160  13.864  13.049
10776W        W82305  20.048  23.331  12.890
10777W        W82306  17.316  21.202   3.247
10778W        W82307  16.117  43.611  11.996
10779W        W82308  24.457  14.142   1.373
10780W        W82309   0.250  37.438  12.376
10781W        W82310  38.145  31.594   1.896
10782W        W82311  20.880  31.421   4.658
10783W        W82312   7.325  21.584  12.136
10784W        W82313   6.488  40.078  10.721
10785W        W82314  19.141  33.506   2.003
10786W        W82315   7.172  27.614  11.995
10787W        W82316  26.152   9.030  12.443
10788W        W82317  27.152  40.573   2.509
10789W        W82318  16.223   3.815   0.812
10790W        W82319  29.814  17.879  12.125
10791W        W82320  33.890  19.103  14.774
10792W        W82321  26.010  12.785   3.177
10793W        W82322  32.014  14.041  12.445
10794W        W82323  30.514   0.988   2.706
10795W        W82324  28.597  28.640  14.251
10796W        W82325  23.698  24.180   3.711
10797W        W82326  28.062  39.284  12.995
10798W        W82327  15.805  23.437  14.292
10799W        W82328  36.939   0.310  11.576
10800W        W82329  37.485  26.483  13.057
10801W        W82330   5.112  13.707  13.178
10802W        W82331  25.868   3.954  13.921
10803W        W82332  19.757  23.188   4.758
10804W        W82333  40.942  29.475  10.697
10805W        W82334  18.307   7.778   4.873
10806W        W82335  13.744  16.284   1.323
10807W        W82336  44.644  23.222  13.533
10808W        W82337  37.406  32.057   4.171
10809W        W82338  30.052   9.757   4.373
10810W        W82339  39.555  11.833   4.682
10811W        W82340   8.981  10.132  14.799
10812W        W82341  28.605  24.548   1.305
10813W        W82342  10.708  21.227   1.832
10814W        W82343  34.100   0.979   3.747
10815W        W82344  27.042  21.305   0.478
10816W        W82345  35.620  28.937  14.288
10817W        W82346  16.001  34.063  12.069
10818W        W82347  30.295  37.946  10.629
10819W        W82348  24.515   3.661  13.992
10820W        W82349  32.754  35.884   2.957
10821W        W82350  27.014  22.649  11.690
10822W        W82351  30.583   2.434   2.831
10823W        W82352  22.105   9.411   1.396
10824W        W82353  16.317  19.540   2.164
10825W        W82354  39.661  15.399   1.771
10826W        W82355  20.677  32.505   4.860
10827W        W82356  43.309  44.815  12.616
10828W        W82357  18.062  14.415   2.183
10829W        W82358  26.481  24.267  11.222
10830W        W82359  28.323  32.604   5.069
10831W        W82360  29.883   7.669  14.974
10832W        W82361  18.307  38.614   3.218
10833W        W82362  36.313  28.269   3.184
10834W        W82363  34.963  27.565  12.073
10835W        W82364  18.032  11.394  12.642
10836W        W82365   2.224  43.977  10.669
10837W        W82366  11.540  15.358   3.206
10838W        W82367   0.085  34.612   3.573
10839W        W82368  23.742  11.719  13.853
10840W        W82369  22.134  20.008  10.879
10841W        W82370  38.007  24.756   3.221
10842W        W82371   8.351  35.660   2.896
10843W        W82372  14.455  39.832   4.415
10844W        W82373  25.934   6.459  11.140
10845W        W82374  43.866  22.281  12.009
10846W        W82375  40.560  16.367  13.362
10847W        W82376  20.106  32.887   0.981
10848W        W82377  34.082  17.212   4.727
10849W        W82378  21.561  31.734  14.789
10850W        W82379  19.797  15.310  10.866
10851W        W82380  25.553  41.580   4.435
10852W        W82381  18.021  44.471  13.574
10853W        W82382  33.669  11.161   0.544
10854W        W82383  39.246  37.895  14.096
10855W        W82384   2.338   8.715  12.829
10856W        W82385   1.008  14.763  12.024
10857W        W82386  40.803  33.105   4.650
10858W        W82387  14.030  39.798  13.364
10859W        W82388  17.371   8.562   0.357
10860W        W82389  42.334  38.273   3.087
10861W        W82390  34.174  25.197  14.429
10862W        W82391  16.028  36.622   3.552
10863W        W82392  44.242   9.472   0.695
10864W        W82393   2.303  21.518   4.593
10865W        W82394  44.855  14.606  12.393
10866W        W82395  18.460  31.331   0.003
10867W        W82396  15.813   0.382  12.839
10868W        W82397  18.622   2.901  13.976
10869W        W82398  26.975  40.448  14.832
10870W        W82399  36.789  22.260   4.139
10871W        W82400  21.189  17.136  13.380
10872W        W82401   9.863   9.266  10.699
10873W        W82402  13.403   7.798   0.216
10874W        W82403  27.712  41.850  11.019
10875W        W82404  42.131  31.090   2.378
10876W        W82405   2.157  16.723  12.488
10877W        W82406  27.810  11.838  13.913
10878W        W82407  23.295  35.455  13.072
10879W        W82408  18.477   7.866   1.314
10880W        W82409  12.471  37.046  11.352
10881W        W82410  21.049  22.730  14.353
10882W        W82411   7.457  33.934   4.305
10883W        W82412  44.167  32.172  13.552
10884W        W82413   3.835  44.059  11.670
10885W        W82414  10.917  35.564  14.304
10886W        W82415  10.164  19.254  14.329
10887W        W82416  23.609   8.108  14.282
10888W        W82417  27.990   9.626   4.650
10889W        W82418  42.524  43.405  13.977
10890W        W82419  43.264  15.225   2.673
10891W        W82420  41.512  43.322  11.087
10892W        W82421  12.413  41.781  11.556
10893W        W82422  17.653  25.666  12.935
10894W        W82423  39.978  30.055  14.335
10895W        W82424  38.019  26.495  12.438
10896W        W82425  43.597  44.317  11.045
10897W        W82426  17.957  36.404  11.452
10898W        W82427  18.087  13.887  11.697
10899W        W82428  14.910  22.709  11.325
10900W        W82429  23.914  15.390  11.610
10901W        W82430  24.734  16.673   1.855
10902W        W82431  44.842  16.562  12.464
10903W        W82432  30.941  41.971   4.656
10904W        W82433  41.180   1.374  12.543
10905W        W82434  21.099  44.734  10.865
10906W        W82435  21.456  33.357   1.313
10907W        W82436   3.893   2.889  13.008
10908W        W82437   6.408  25.203  10.637
10909W        W82438  41.169  11.330  10.813
10910W        W82439   0.169   2.772   1.898
10911W        W82440   1.682  28.695   2.676
10912W        W82441   3.404  18.847   5.135
10913W        W82442  30.177  15.174   4.053
10914W        W82443   6.260  34.069   1.220
10915W        W82444  27.443  15.045   0.911
10916W        W82445  42.508  23.130   3.936
10917W        W82446  26.535  42.191   2.175
10918W        W82447   0.437   1.222   4.948
10919W        W82448  34.943   6.626   0.794
10920W        W82449  13.529  27.991   4.978
10921W        W82450  29.969  12.602  11.983
10922W        W82451  19.375  35.869   2.201
10923W        W82452  23.450  32.588   4.221
10924W        W82453  19.215  41.297   2.572
10925W        W82454  38.640  26.520  11.999
10926W        W82455   4.427   4.867  12.939
10927W        W82456  43.447  39.554  14.365
10928W        W82457  35.035  24.634   0.860
10929W        W82458  19.524  15.079  11.262
10930W        W82459   4.831  33.093   3.678
10931W        W82460  40.081  30.624   4.316
10932W        W82461  26.411  14.611  13.986
10933W        W82462  10.941  32.193   0.724
10934W        W82463  21.019  38.195  11.533
10935W        W82464  29.561  22.577   1.769
10936W        W82465  13.384  44.376  13.494
10937W        W82466  26.964  16.555   1.337
10938W        W82467  23.726  31.424  12.874
10939W        W82468  27.214  10.606  12.651
10940W        W82469  33.889  10.197   1.419
10941W        W82470  20.204  26.886   1.714
10942W        W82471   0.408  27.246   1.853
10943W        W82472  21.759  42.980  10.448
10944W        W82473   0.359   1.855  11.525
10945W        W82474  16.302  22.739  11.578
10946W        W82475   6.651   0.304   4.602
10947W        W82476  37.297   0.922   1.130
10948W        W82477   2.573  24.135  13.007
10949W        W82478  29.365   5.280  12.852
10950W        W82479  33.113  33.978  12.134
10951W        W82480  26.405  30.510   2.670
10952W        W82481  40.900   1.115  12.123
10953W        W82482   9.394   0.205  12.444
10954W        W82483  29.624  23.685  10.713
10955W        W82484  15.185  10.337   0.191
10956W        W82485  11.579  30.734   4.174
10957W        W82486  17.157  38.143  10.426
10958W        W82487  31.408  26.246  12.517
10959W        W82488  27.624  12.748   4.623
10960W        W82489  18.609  19.753   1.944
10961W        W82490  27.560   3.475  11.313
10962W        W82491  26.265  11.697  11.890
10963W        W82492  43.539  22.626   4.543
10964W        W82493   7.468  16.375  10.735
10965W        W82494   8.566  25.034  13.343
10966W        W82495  20.229   2.184   0.294
10967W        W82496   8.763   9.848   4.386
10968W        W82497  44.336  25.498  10.673
10969W        W82498  10.382  21.900   5.069
10970W        W82499  15.915  43.201   3.138
10971W        W82500  20.128  36.102   2.302
10972W        W82501   0.451  41.227  12.471
10973W        W82502  29.107  25.613  10.009
10974W        W82503  34.303  19.563   1.384
10975W        W82504  34.823   7.685   1.310
10976W        W82505  10.411  25.459  14.883
10977W        W82506  21.912  22.262   2.810
10978W        W82507  42.871   2.338  11.641
10979W        W82508  24.183   4.076   2.508
10980W        W82509  36.879  28.127  11.450
10981W        W82510   7.908   4.963  13.407
10982W        W82511  10.144  28.138   3.355
10983W        W82512   5.704  39.927   4.827
10984W        W82513   4.855   6.922   2.449
10985W        W82514  16.070  13.548   0.040
10986W        W82515   1.185  22.476   0.426
10987W        W82516  37.589   2.324  13.938
10988W        W82517  32.611  15.537  13.988
10989W        W82518  44.960  29.277   0.332
10990W        W82519  32.931   7.895  12.797
10991W        W82520   6.972  26.079  13.147
10992W        W82521   3.343  37.938   4.983
10993W        W82522  40.455  13.641  11.884
10994W        W82523  43.479  23.072   4.254
10995W        W82524  13.070  18.649  14.708
10996W        W82525  42.999   9.529   1.494
10997W        W82526  32.907  44.411  13.571
10998W        W82527  15.297  38.890   1.743
10999W        W82528  28.581  14.905   1.742
11000W        W82529   5.851  14.636   3.716
11001W        W82530  19.139  41.467   2.063
11002W        W82531  39.340  29.879   4.275
11003W        W82532  23.809  37.502   4.657
11004W        W82533  10.181  39.843  14.109
11005W        W82534  22.580  17.887   0.287
11006W        W82535  14.244  30.852   0.365
11007W        W82536  27.531   0.788  10.884
11008W        W82537  41.321  11.109  12.968
11009W        W82538  33.915   5.954   2.748
11010W        W82539   7.284   6.173   2.804
11011W        W82540   3.492  28.488   3.193
11012W        W82541  12.548  27.040  13.556
11013W        W82542   0.810  31.869  14.349
11014W        W82543  29.230  23.240   4.399
11015W        W82544   6.397  25.636  14.224
11016W        W82545  28.154  21.314  12.965
11017W        W82546  37.021  43.045   2.461
11018W        W82547  29.692   4.438   2.339
11019W        W82548   2.655   4.195  14.832
11020W        W82549  28.927  20.679   0.940
11021W        W82550  30.545  32.663  14.849
11022W        W82551  38.757  11.551   3.119
11023W        W82552  30.707  31.658  11.131
11024W        W82553  31.649  36.113  11.086
11025W        W82554  37.867  16.881  12.723
11026W        W82555  36.636  15.136   0.902
11027W        W82556  21.697  15.004  11.060
11028W        W82557  34.542  16.152  12.081
11029W        W82558   7.606  12.237  10.749
11030W        W82559  38.386  12.381  10.662
11031W        W82560   3.283  11.135   2.841
11032W        W82561  35.609  44.751  12.075
11033W        W82562  15.875  20.730   0.875
11034W        W82563  23.206  33.927  13.694
11035W        W82564  42.426  44.246  11.907
11036W        W82565   6.233   4.170  11.616
11037W        W82566   2.446  26.145  13.915
11038W        W82567  31.197  16.014   0.828
11039W        W82568  19.268   4.259   3.711
11040W        W82569  15.814  25.453  14.755
11041W        W82570  32.085  32.428   4.377
11042W        W82571  30.730  20.058   3.622
11043W        W82572   0.185   6.396   2.146
11044W        W82573   9.376   0.455   0.509
11045W        W82574  32.490  26.735   0.245
11046W        W82575   0.707  18.615  14.828
11047W        W82576  14.356   9.151  14.805
11048W        W82577   0.999  26.983   4.616
11049W        W82578   7.268  26.992   3.211
11050W        W82579  39.129   0.380  13.865
11051W        W82580  33.933  17.201   0.596
11052W        W82581  34.304  14.889  13.426
11053W        W82582  22.220  22.686  14.456
11054W        W82583  33.908  26.688  14.987
11055W        W82584  37.968  26.242  11.510
11056W        W82585  14.380  13.284   0.943
11057W        W82586   9.735  25.137  10.201
11058W        W82587  29.917  43.748  11.239
11059W        W82588  39.895  37.271   4.930
11060W        W82589  32.625  27.640   2.683
11061W        W82590   7.206   3.229   0.919
11062W        W82591  34.421  44.448  13.616
11063W        W82592  14.897  35.080  12.934
11064W        W82593  22.968  28.191  12.135
11065W        W82594  27.872  15.911   0.334
11066W        W82595  26.154  13.037   4.654
11067W        W82596  14.732   8.415   4.104
11068W        W82597  27.031  22.268  12.117
11069W        W82598   8.006   4.684   4.169
11070W        W82599  24.525  35.556   0.248
11071W        W82600  16.670  14.331   4.657
11072W        W82601  41.313  13.028   2.179
11073W        W82602   2.836  27.063   2.419
11074W        W82603  44.442  20.209  11.156
11075W        W82604  39.669   8.357   0.476
11076W        W82605   1.063  11.232  13.783
11077W        W82606   6.124   3.304   4.179
11078W        W82607  37.931  20.128   1.164
11079W        W82608  31.759   5.164  14.926
11080W        W82609  34.953   4.483   1.907
11081W        W82610  34.625   8.705  11.529
11082W        W82611  11.817  38.696   0.764
11083W        W82612  17.066  10.193  11.826
11084W        W82613  22.869  38.942  12.156
11085W        W82614  36.780  41.386  13.539
11086W        W82615  41.905  22.720   2.844
11087W        W82616   5.748  43.604   4.625
11088W        W82617  19.335   6.811   4.902
11089W        W82618   5.992   5.454   4.483
11090W        W82619  38.969  17.807   1.957
11091W        W82620   3.297   6.520   5.052
11092W        W82621  35.129   9.268   4.489
11093W        W82622  13.402  40.879  13.824
11094W        W82623  43.266  16.088   4.690
11095W        W82624  42.316  15.886  11.713
11096W        W82625  21.040  11.143   1.219
11097W        W82626  32.231  28.528   1.349
11098W        W82627  39.060  21.905   2.195
11099W        W82628   6.826  40.945   2.416
11100W        W82629  37.506   2.063   2.706
11101W        W82630  43.755  21.389  11.729
11102W        W82631  28.408   2.669   3.265
11103W        W82632   6.856  30.510   2.207
11104W        W82633  29.764  17.251   0.219
11105W        W82634  29.491  33.922   1.533
11106W        W82635  17.670   5.666  12.143
11107W        W82636  21.495  23.719  10.711
11108W        W82637  27.074  24.636   4.549
11109W        W82638   5.507  35.815   0.107
11110W        W82639  40.372  33.950   2.093
11111W        W82640  11.350   1.265  13.036
11112W        W82641  15.717  19.210  10.564
11113W        W82642  41.535   4.656  11.061
11114W        W82643  32.652  19.431   2.545
11115W        W82644  16.813  20.983   2.359
11116W        W82645  37.152  31.795  11.072
11117W        W82646  21.161  41.948   3.627
11118W        W82647   1.368   9.426   0.291
11119W        W82648   9.422   1.428   2.729
11120W        W82649  44.998  17.734  12.151
11121W        W82650  21.100   2.316  12.797
11122W        W82651  35.986  10.569   3.390
11123W        W82652   8.852  25.613   2.836
11124W        W82653  20.121  21.090  11.457
11125W        W82654  25.652  10.365  10.673
11126W        W82655  44.707   5.259  12.414
11127W        W82656   5.365  19.236   1.285
11128W        W82657  27.151  29.577  11.688
11129W        W82658   1.757  39.322   3.021
11130W        W82659  44.679   1.922  12.241
11131W        W82660  13.195   6.681   4.523
11132W        W82661   9.231  32.443   2.948
11133W        W82662  33.170  36.102  12.016
11134W        W82663  35.779  22.350   1.519
11135W        W82664   4.770   5.130   4.990
11136W        W82665  31.628  40.031   3.186
11137W        W82666  35.667  25.653  10.575
11138W        W82667   8.602  38.046  12.092
11139W        W82668   5.485   3.594   0.398
11140W        W82669  10.226  24.616   3.383
11141W        W82670  44.436  37.938  11.691
11142W        W82671  35.601  18.225   4.649
11143W        W82672  25.605  39.806   0.702
11144W        W82673  42.268  23.016   0.406
11145W        W82674  28.521  18.921  12.428
11146W        W82675  35.939  23.289  12.315
11147W        W82676  43.914  14.851   4.187
11148W        W82677  37.376   2.093  12.515
11149W        W82678  10.991  17.306   3.964
11150W        W82679  42.391  30.118   3.240
11151W        W82680  38.879   5.231   3.447
11152W        W82681  31.134   7.674   4.206
11153W        W82682  38.421  31.057  14.043
11154W        W82683  40.055   3.966   2.593
11155W        W82684  13.155  22.808   4.070
11156W        W82685  22.935  20.873   2.420
11157W        W82686  20.170  28.758   0.741
11158W        W82687  25.899  26.000   4.603
11159W        W82688  12.720  21.911  11.208
11160W        W82689  27.136  32.660  13.343
11161W        W82690  38.588  38.003   1.423
11162W        W82691  34.421  10.767   0.827
11163W        W82692   2.598   8.054   0.861
11164W        W82693   0.771  19.680   5.077
11165W        W82694   4.780   5.284   1.686
11166W        W82695  29.046  21.706   4.779
11167W        W82696  14.058   9.948  12.068
11168W        W82697  34.865  43.952  12.423
11169W        W82698  43.747  21.572   4.255
11170W        W82699   0.792  31.957  11.967
11171W        W82700  41.758  18.868  13.274
11172W        W82701  16.152  33.889   3.646
11173W        W82702  21.779  30.482  10.880
11174W        W82703  43.652  20.270   4.195
11175W        W82704  31.601   7.661   3.382
11176W        W82705  23.768  11.492   0.582
11177W        W82706  39.355  31.645  12.052
11178W        W82707  43.916  38.251  13.422
11179W        W82708  30.345  13.371  14.876
11180W        W82709  42.443  43.757   0.816
11181W        W82710  42.560   1.924  14.295
11182W        W82711  19.271  10.719   2.836
11183W        W82712  38.850  24.590   0.736
11184W        W82713  15.742  17.085   0.146
11185W        W82714  32.546  22.213  14.253
11186W        W82715  39.593  28.281   0.809
11187W        W82716  22.794  40.208  12.417
11188W        W82717  13.255  34.901   1.345
11189W        W82718  26.914  30.573  11.694
11190W        W82719   8.109   1.992   0.786
11191W        W82720  21.485   4.672   5.336
11192W        W82721  41.468  16.508  11.243
11193W        W82722  11.694   4.452   1.915
11194W        W82723  12.380  33.463   0.252
11195W        W82724   4.191  34.164   0.935
11196W        W82725  21.623  33.498  11.150
11197W        W82726  16.939   7.791  12.481
11198W        W82727  41.714   5.513   1.181
11199W        W82728  31.621   4.885   1.882
11200W        W82729  22.222   2.014   0.400
11201W        W82730  26.091  22.812  12.984
11202W        W82731  20.686  16.653  12.581
11203W        W82732   6.963   3.812   0.778
11204W        W82733  21.844  41.576   0.203
11205W        W82734   4.455  16.684   0.034
11206W        W82735  44.041  27.435  13.852
11207W        W82736  25.462  38.921   2.828
11208W        W82737  26.498  13.369  13.416
11209W        W82738   9.059  43.012   0.715
11210W        W82739  12.385  16.768  11.631
11211W        W82740  28.599  22.271   1.325
11212W        W82741  24.326  10.811  12.045
11213W        W82742  21.630  41.287  14.278
11214W        W82743  18.241  31.062   1.984
11215W        W82744  13.089  29.906  14.255
11216W        W82745   7.903  16.144   3.204
11217W        W82746   3.524  16.589  13.314
11218W        W82747  11.757  30.392   3.350
11219W        W82748  28.870  14.154   2.896
11220W        W82749  36.443  40.052   0.245
11221W        W82750  34.574  26.845   4.138
11222W        W82751  37.555  33.993   2.718
11223W        W82752  20.743   2.117  14.040
11224W        W82753  24.295  10.335   0.907
11225W        W82754  35.253  33.426   2.690
11226W        W82755  21.808  24.608  12.117
11227W        W82756  29.025  33.075   3.329
11228W        W82757   9.074  44.329  11.136
11229W        W82758   4.870  24.587  14.723
11230W        W82759   4.984  26.160  11.632
11231W        W82760  42.862  18.238  13.253
11232W        W82761  33.437   0.446  12.614
11233W        W82762  27.948  20.680   3.622
11234W        W82763  40.569  30.624   1.231
11235W        W82764  14.722  15.333   1.420
11236W        W82765  15.468  26.737   4.518
11237W        W82766   5.841  37.286  14.786
11238W        W82767   2.356   0.991   1.345
11239W        W82768  16.045  42.289  13.521
11240W        W82769  41.319  15.699  13.911
11241W        W82770   4.233  41.046  14.849
11242W        W82771  27.425  34.855   3.120
11243W        W82772  30.522  23.490   3.123
11244W        W82773  21.709  19.256   0.843
11245W        W82774   2.555  35.076   2.776
11246W        W82775  40.128  19.584  12.064
11247W        W82776  30.963  33.916   0.470
11248W        W82777  18.507  12.048   0.506
11249W        W82778  20.019   2.336  14.309
11250W        W82779  33.648   0.300   0.937
11251W        W82780  11.720  32.128   4.264
11252W        W82781   9.716   7.512  14.916
11253W        W82782  25.679  16.282  11.091
11254W        W82783  21.902  27.754  12.308
11255W        W82784  18.225  20.562  14.320
11256W        W82785  38.547  27.680   2.756
11257W        W82786   1.719  18.101  11.662
11258W        W82787  17.158  40.006   2.771
11259W        W82788   1.241   8.629  13.937
11260W        W82789  43.969  26.926   1.008
11261W        W82790  39.858  28.600  10.697
11262W        W82791  42.829  21.509  14.848
11263W        W82792  39.890  28.413   3.316
11264W        W82793  23.733  25.737   4.012
11265W        W82794  12.386   6.553   2.674
11266W        W82795  11.359   2.785  13.505
11267W        W82796  29.233   5.297  12.013
11268W        W82797  39.316  14.206   4.611
11269W        W82798   1.043   0.774  13.969
11270W        W82799  28.883  28.581   3.671
11271W        W82800  41.279  32.260  14.389
11272W        W82801  15.707  38.549  10.683
11273W        W82802   4.668   5.386   4.143
11274W        W82803  12.404   9.657   0.389
11275W        W82804   0.224  20.135   0.745
11276W        W82805   2.822   3.862   4.268
11277W        W82806  28.029  16.342  14.447
11278W        W82807  32.119  21.237   2.796
11279W        W82808  13.793   6.058  11.641
11280W        W82809  29.924  33.981  14.688
11281W        W82810  39.005   0.628   3.773
11282W        W82811  39.009  14.416  10.129
11283W        W82812  42.804  16.517   0.410
11284W        W82813  12.046  34.956  12.218
11285W        W82814  31.598  14.094   4.157
11286W        W82815  41.863  24.079   4.616
11287W        W82816  39.019  40.248  13.636
11288W        W82817  36.516  12.848  10.174
11289W        W82818  20.832  40.980   3.176
11290W        W82819  28.570   3.981  13.949
11291W        W82820  18.645  36.965  11.716
11292W        W82821  20.838   1.296   0.345
11293W        W82822   8.623  24.701  11.145
11294W        W82823   1.986  34.065   3.216
11295W        W82824   0.974  42.834   1.124
11296W        W82825  16.027  40.019  10.231
11297W        W82826  40.001  25.449  12.499
11298W        W82827  12.425  27.652   4.631
11299W        W82828  29.822  23.036   1.770
11300W        W82829  31.170   1.431   2.684
11301W        W82830  32.956   3.981   1.761
11302W        W82831   3.891   8.663  10.481
11303W        W82832  37.900  36.988   5.030
11304W        W82833  33.103   6.692   0.194
11305W        W82834   9.162  27.221   1.277
11306W        W82835  15.286  15.798  13.702
11307W        W82836  12.662  23.974   0.302
11308W        W82837  33.197   9.676  14.326
11309W        W82838   3.433  34.956   4.957
11310W        W82839  30.913   7.369  11.949
11311W        W82840  27.899  12.039   9.993
11312W        W82841  19.380  35.611   0.733
11313W        W82842   1.200  27.627   3.367
11314W        W82843   0.765   8.238   1.385
11315W        W82844  21.215   5.683  10.078
11316W        W82845  40.308  19.145  14.868
11317W        W82846  43.698  30.384   2.436
11318W        W82847  18.521  29.141  13.024
11319W        W82848   8.205  21.693  12.521
11320W        W82849  17.296  40.582  14.033
11321W        W82850  12.089   4.388   1.594
11322W        W82851  32.052  35.619   0.899
11323W        W82852  17.034  36.292   0.723
11324W        W82853   0.737  36.069   5.307
11325W        W82854  22.966  32.326  12.037
11326W        W82855  35.716   7.169   1.343
11327W        W82856  11.321  22.783   3.239
11328W        W82857  34.080   2.639  12.092
11329W        W82858  22.684  42.221   0.366
11330W        W82859  35.059  38.048  14.502
11331W        W82860  22.339  11.702   2.698
11332W        W82861  10.126  24.086   4.203
11333W        W82862  31.940  33.280   1.498
11334W        W82863  43.202  41.346   1.368
11335W        W82864   7.291  12.776   0.687
11336W        W82865  28.409   6.001  14.093
11337W        W82866  15.127   7.957  12.160
11338W        W82867   2.501  42.206  13.424
11339W        W82868  40.089   6.949   4.189
11340W        W82869   9.717  12.459  10.687
11341W        W82870  39.709  40.316  11.020
11342W        W82871   7.845   7.726   9.796
11343W        W82872  16.779  36.321   4.327
11344W        W82873  24.949  18.846   4.644
11345W        W82874  25.020  23.181   0.247
11346W        W82875  31.654  27.475   3.751
11347W        W82876  38.673  12.720   1.166
11348W        W82877   2.201  30.947   0.047
11349W        W82878   3.887  37.979  14.577
11350W        W82879  21.686  20.486   1.310
11351W        W82880  32.417   1.412  11.598
11352W        W82881   3.497  36.347   0.502
11353W        W82882  14.611  37.515   2.435
11354W        W82883  30.961   4.454   2.214
11355W        W82884   3.279  23.046   3.370
11356W        W82885  16.256  38.840  11.642
11357W        W82886   5.407  41.382  13.652
11358W        W82887  40.685  22.174   1.526
11359W        W82888  16.271  35.434  12.454
11360W        W82889   0.539  42.829  12.545
11361W        W82890  26.579  28.592  10.660
11362W        W82891  20.148  44.035  12.575
11363W        W82892  10.206  29.933   2.287
11364W        W82893  42.697  10.444   2.713
11365W        W82894  36.776  42.097  13.118
11366W        W82895  35.639  30.698  12.492
11367W        W82896  21.192  18.227   2.765
11368W        W82897   0.178  34.698   2.133
11369W        W82898  44.121   8.437  14.812
11370W        W82899  10.971  24.627  12.936
11371W        W82900  33.351  11.748   4.170
11372W        W82901  12.008  15.221   1.828
11373W        W82902  36.808  14.334  13.526
11374W        W82903  11.109   0.735   1.343
11375W        W82904  29.099  17.131  10.825
11376W        W82905  28.756  33.149  13.060
11377W        W82906  11.925  31.105   4.070
11378W        W82907  31.981  10.720  13.848
11379W        W82908   1.441   5.848  13.569
11380W        W82909  13.733  11.061  13.815
11381W        W82910  40.478   9.741  14.436
11382W        W82911  20.012  22.637  14.225
11383W        W82912  15.236   8.318   3.245
11384W        W82913  22.456  17.253  11.546
11385W        W82914   3.265  31.994   5.322
11386W        W82915  29.197  38.939   3.068
11387W        W82916  43.267  41.469  10.867
11388W        W82917  37.114  15.610  14.449
11389W        W82918  20.038  32.319  12.405
11390W        W82919  41.668  16.018   1.670
11391W        W82920  15.042   5.352  12.109
11392W        W82921  37.960  29.935   1.225
11393W        W82922   5.382  40.660   3.188
11394W        W82923   6.642  30.082   4.872
11395W        W82924   3.801  40.805  10.626
11396W        W82925   2.390  34.657  11.991
11397W        W82926  22.960  23.517  13.114
11398W        W82927   0.524  18.519   0.375
11399W        W82928   5.701  25.412   2.833
11400W        W82929  24.729  11.854   3.882
11401W        W82930  15.122  33.565   4.362
11402W        W82931  22.548  40.476  10.262
11403W        W82932  12.250  18.763   2.263
11404W        W82933  15.417  19.194   1.805
11405W        W82934   2.218  26.387   3.208
11406W        W82935   8.086   2.851   2.797
11407W        W82936  35.799  32.523   1.643
11408W        W82937   0.205   7.705  13.127
11409W        W82938   2.855   8.392   2.986
11410W        W82939  29.276  40.959   2.338
11411W        W82940  18.936  16.579   2.285
11412W        W82941  11.421  32.965  13.623
11413W        W82942  12.784   2.209  12.133
11414W        W82943  33.389  19.191  12.893
11415W        W82944  36.885  44.971  11.967
11416W        W82945  14.793  31.139   2.628
11417W        W82946   9.756   4.813   4.491
11418W        W82947  15.605  11.574   1.473
11419W        W82948  22.619  26.724   0.933
11420W        W82949   0.262  18.032   4.700
11421W        W82950   2.181  40.051   4.000
11422W        W82951  32.515   4.947   2.356
11423W        W82952   0.119  30.037   4.046
11424W        W82953  42.436  42.406  13.957
11425W        W82954   3.518  41.416   1.668
11426W        W82955  13.357  32.887   3.721
11427W        W82956   4.732  26.015  11.199
11428W        W82957  41.477   7.682  11.621
11429W        W82958   4.164  35.389  10.665
11430W        W82959  12.826  27.563   3.356
11431W        W82960  32.509  40.576  10.654
11432W        W82961  15.720  33.010  13.008
11433W        W82962  12.211  27.711  13.133
11434W        W82963  17.527  24.419  14.598
11435W        W82964  30.118  43.859   1.719
11436W        W82965   3.653   0.439  13.342
11437W        W82966  30.050  36.054  13.403
11438W        W82967  14.825   4.821   1.860
11439W        W82968  44.503  31.456   4.539
11440W        W82969   7.321  37.466   2.779
11441W        W82970  22.482  16.171   3.659
11442W        W82971  15.281  28.431   0.864
11443W        W82972  12.887  22.250  14.882
11444W        W82973   2.770  21.377  14.023
11445W        W82974  19.199  32.058   0.214
11446W        W82975   8.603  44.543   4.098
11447W        W82976   6.513   2.836  11.563
11448W        W82977  22.135  16.993  12.290
11449W        W82978  23.954  19.825   0.378
11450W        W82979  19.496  39.747   2.149
11451W        W82980  30.530  22.143   4.445
11452W        W82981  13.326  28.811   1.435
11453W        W82982  12.264  29.408   2.208
11454W        W82983  41.520   7.886   3.838
11455W        W82984   5.403  20.257  11.988
11456W        W82985   7.384  28.503  13.000
11457W        W82986  43.913  14.167  14.917
11458W        W82987   8.366  22.065  10.761
11459W        W82988  37.971  20.338   2.926
11460W        W82989  37.903   4.881  11.150
11461W        W82990  31.903   9.924  14.090
11462W        W82991  18.583  20.030  10.968
11463W        W82992  17.279  18.177   3.194
11464W        W82993  18.655   6.573  13.409
11465W        W82994  20.288  14.230  11.534
11466W        W82995  30.926   3.532   4.171
11467W        W82996   0.936  16.287   3.113
11468W        W82997  11.367  37.511  13.386
11469W        W82998  39.785  39.534  13.836
11470W        W82999  40.744  19.201   4.158
11471W        W83000  22.234  20.721   1.749
11472W        W83001  13.257  26.946   2.647
11473W        W83002  15.301  35.501   2.266
11474W        W83003   7.170   6.709  12.386
11475W        W83004   2.466  11.705  12.031
11476W        W83005   0.303  43.790  11.305
11477W        W83006  43.062  42.422   4.550
11478W        W83007  33.606  22.047  11.570
11479W        W83008  28.353  31.706   5.034
11480W        W83009   5.460  19.621   3.104
11481W        W83010   2.766  18.124   0.387
11482W        W83011  30.415  30.976  10.718
11483W        W83012  24.738  41.179  11.842
11484W        W83013  29.942  24.597   4.907
11485W        W83014  27.398   9.734   0.469
11486W        W83015  42.250   3.199   4.493
11487W        W83016  40.730  38.567   1.414
11488W        W83017  25.446  10.223  14.489
11489W        W83018  40.212  15.662   1.146
11490W        W83019  25.227  40.464  13.407
11491W        W83020  20.003   6.111  11.580
11492W        W83021  38.112   1.189  11.695
11493W        W83022  17.091   8.313  12.422
11494W        W83023  44.808   0.221  12.025
11495W        W83024  19.960  15.799  10.993
11496W        W83025  25.092  36.896  10.520
11497W        W83026  42.279   9.416   2.087
11498W        W83027  41.892  39.925  12.132
11499W        W83028  17.897  33.962  11.049
11500W        W83029   2.621  18.533  10.749
11501W        W83030  43.745  34.251   3.413
11502W        W83031   2.043  24.216   4.009
11503W        W83032  33.599  35.813   5.059
11504W        W83033   6.668  20.734   9.846
11505W        W83034  44.222  41.951   4.013
11506W        W83035  26.306  27.375   0.968
11507W        W83036  14.203  16.267   3.459
11508W        W83037  15.195  33.110   4.107
11509W        W83038  12.061  13.410  12.987
11510W        W83039  26.447  13.589  12.928
11511W        W83040   9.822  38.989   2.456
11512W        W83041  41.477   5.450  13.859
11513W        W83042  32.006  19.183   4.728
11514W        W83043  41.335  37.064  12.940
11515W        W83044   8.132   3.901   4.546
11516W        W83045  25.555  17.506   4.183
11517W        W83046  33.672   8.917  13.961
11518W        W83047   4.459  42.359   0.348
11519W        W83048  36.094   1.663   1.011
11520W        W83049  24.306  32.531  14.822
11521W        W83050   1.073  24.462  14.938
11522W        W83051   1.161  38.272  13.098
11523W        W83052  18.989  33.816   5.061
11524W        W83053  31.555  32.733  11.175
11525W        W83054  36.008  32.689   0.793
11526W        W83055   8.629  14.056   1.306
11527W        W83056  38.025  38.962   4.872
11528W        W83057  41.144   8.326  14.929
11529W        W83058   1.581  16.381   1.850
11530W        W83059  42.492  22.594   4.896
11531W        W83060  25.672  34.061   4.046
11532W        W83061  27.118   2.885  13.445
11533W        W83062  25.918  31.427   2.940
11534W        W83063  24.973  15.635  13.020
11535W        W83064  19.363   0.851   4.543
11536W        W83065  23.797  23.999  13.068
11537W        W83066   9.735  30.824  11.054
11538W        W83067   2.234  23.468   3.702
11539W        W83068   6.582  36.459   0.736
11540W        W83069  10.336  33.247  12.675
11541W        W83070  10.163  13.763  12.664
11542W        W83071  16.615  21.859   1.672
11543W        W83072   5.007   6.712   1.451
11544W        W83073  40.886  40.829   4.829
11545W        W83074  34.598  44.336  11.637
11546W        W83075   3.614  15.919   3.451
11547W        W83076  17.853  25.672   0.749
11548W        W83077   1.711  43.204  12.519
11549W        W83078  31.446   0.941   2.637
11550W        W83079  19.982  16.815  13.838
11551W        W83080  36.327  41.657   3.019
11552W        W83081  44.881  24.298  13.326
11553W        W83082  40.168  26.653  11.040
11554W        W83083  12.310  32.421   3.803
11555W        W83084  29.275   6.432  13.277
11556W        W83085  41.783   1.801  14.975
11557W        W83086   4.449  16.326  10.667
11558W        W83087  30.202  29.095  10.651
11559W        W83088  13.338   7.265   5.011
11560W        W83089  15.283  32.862  13.228
11561W        W83090  26.865  37.698  14.826
11562W        W83091  37.066  22.241   2.291
11563W        W83092  17.617   9.409   1.990
11564W        W83093   6.116  22.372   5.293
11565W        W83094  26.220  26.797   2.365
11566W        W83095  26.588  25.533   2.734
11567W        W83096  12.139  35.902   0.310
11568W        W83097  31.548   9.418   4.196
11569W        W83098  23.285   0.531  12.555
11570W        W83099  41.299  18.566   0.386
11571W        W83100  23.254  44.492   0.028
11572W        W83101  22.966  31.416  11.465
11573W        W83102  36.064  27.489   2.859
11574W        W83103  29.068  19.121   4.182
11575W        W83104  35.951  40.380   1.425
11576W        W83105   4.214  20.809  14.874
11577W        W83106  12.712  38.663  13.716
11578W        W83107  10.282  38.979   0.919
11579W        W83108  27.385  25.400  12.526
11580W        W83109  21.588  20.245  14.846
11581W        W83110  38.794  18.315  12.905
11582W        W83111   2.792  42.438   4.060
11583W        W83112  16.164  22.608   0.171
11584W        W83113  36.749  13.370   3.833
11585W        W83114   4.069  29.045   1.430
11586W        W83115  29.097  30.507  11.929
11587W        W83116   3.179  13.821   0.877
11588W        W83117  26.125   4.301   4.578
11589W        W83118  27.074   6.144  10.698
11590W        W83119  37.137   6.858  14.767
11591W        W83120  10.237  34.001   0.923
11592W        W83121  24.245  18.579   0.058
11593W        W83122   5.296  14.054   2.506
11594W        W83123  10.300  32.198  11.159
11595W        W83124   4.820   8.191  14.754
11596W        W83125  39.323  36.553   0.073
11597W        W83126  41.532  36.290  11.750
11598W        W83127  12.849  32.382   3.718
11599W        W83128  22.643  30.989  11.599
11600W        W83129  39.644  19.788   0.839
11601W        W83130   5.526  32.023  11.472
11602W        W83131  21.536  35.840  11.572
11603W        W83132  44.753  32.859   3.196
11604W        W83133  26.907  18.515  13.039
11605W        W83134  40.457  14.349   2.839
11606W        W83135  31.742  43.215  14.389
11607W        W83136  44.277  37.681   2.789
11608W        W83137  17.386  28.413   3.130
11609W        W83138  15.578  40.366   4.534
11610W        W83139   6.741  41.930   2.185
11611W        W83140  20.654  17.339  14.865
11612W        W83141  33.458  37.396   3.159
11613W        W83142  12.168  26.080  13.956
11614W        W83143  43.942  40.142  11.102
11615W        W83144  14.661  31.997  14.530
11616W        W83145   7.626  34.076   1.374
11617W        W83146  32.889  20.142   1.367
11618W        W83147  32.080   7.802  14.951
11619W        W83148  13.788  11.318  11.677
11620W        W83149  15.818  11.355  13.018
11621W        W83150  16.457  18.680   1.343
11622W        W83151   5.394  18.735  14.415
11623W        W83152   1.679   4.383  12.328
11624W        W83153  44.532   9.283   4.044
11625W        W83154  33.580  23.924  12.100
11626W        W83155  27.178   8.587  13.889
11627W        W83156   7.939  19.439   2.274
11628W        W83157  33.977  11.304   0.944
11629W        W83158  17.266  44.271   4.097
11630W        W83159  28.570   4.254  14.982
11631W        W83160  43.084  44.860  12.116
11632W        W83161  19.405  39.044   2.243
11633W        W83162  37.608  31.084   1.653
11634W        W83163  39.877  27.443   1.073
11635W        W83164  21.269   9.429  10.662
11636W        W83165  21.971  25.867  13.545
11637W        W83166  22.794   9.440  11.581
11638W        W83167  31.845  37.941   3.162
11639W        W83168  29.600   3.096   3.864
11640W        W83169   4.244  29.596  14.472
11641W        W83170  22.635  25.514   2.820
11642W        W83171  43.688  20.203  12.331
11643W        W83172  10.630  37.236   2.258
11644W        W83173  22.109  24.020   1.940
11645W        W83174  14.714   5.111  13.267
11646W        W83175   8.299  39.548   2.710
11647W        W83176  26.344  14.819   2.266
11648W        W83177   9.707  41.528   3.717
11649W        W83178  20.852   2.496   4.838
11650W        W83179  32.475  31.399   3.197
11651W        W83180  32.609  13.298   2.133
11652W        W83181   3.884  40.439   3.018
11653W        W83182   5.787  25.993  12.956
11654W        W83183  42.308  36.580   3.859
11655W        W83184  34.336   7.090  11.280
11656W        W83185  14.101  27.047   3.200
11657W        W83186   9.728  36.618  12.604
11658W        W83187  43.943  31.612   2.299
11659W        W83188  26.091   7.703   4.765
11660W        W83189  41.332  26.641   4.649
11661W        W83190   5.174  44.571  13.324
11662W        W83191  23.540  38.453  13.128
11663W        W83192   1.374   4.695   4.459
11664W        W83193  21.691  31.231  14.811
11665W        W83194  42.417  27.161   4.982
11666W        W83195   8.753  16.286   2.640
11667W        W83196  44.129  37.833   0.339
11668W        W83197  42.889  20.757  11.475
11669W        W83198  32.993  20.327   3.181
11670W        W83199  34.279  26.603   9.999
11671W        W83200  28.634  33.544   2.137
11672W        W83201  36.898  24.554  14.456
11673W        W83202  26.181  10.446  10.657
11674W        W83203  23.191  43.553   1.737
11675W        W83204  44.272  39.049   1.693
11676W        W83205   1.412  34.781   2.353
11677W        W83206  22.861  36.751  14.291
11678W        W83207  20.545  24.118   2.808
11679W        W83208  16.793  40.254   0.109
11680W        W83209  28.870   2.653   4.052
11681W        W83210  26.013   4.324   2.728
11682W        W83211  32.912  27.905  12.313
11683W        W83212   1.584  11.570  11.870
11684W        W83213  41.806  35.539  11.986
11685W        W83214  21.715   0.973  14.038
11686W        W83215   0.727  23.935   2.154
11687W        W83216   4.794  29.468  13.112
11688W        W83217  14.310  22.095  10.582
11689W        W83218   8.361  24.911   3.253
11690W        W83219  29.433   5.441   2.239
11691W        W83220  29.862  13.669   4.705
11692W        W83221  22.661  42.742   1.786
11693W        W83222  20.965  15.503   3.292
11694W        W83223  33.283  29.511   4.649
11695W        W83224  29.812  24.586  13.442
11696W        W83225  42.493  16.202   1.893
11697W        W83226  22.773  36.974  10.683
11698W        W83227  23.303  11.398  13.900
11699W        W83228  21.467  10.326   2.312
11700W        W83229   7.749  20.092  12.610
11701W        W83230   6.498  43.584  11.990
11702W        W83231  30.519  44.429   4.443
11703W        W83232  44.742  15.297  14.922
11704W        W83233   7.493  15.241   0.266
11705W        W83234  30.990  15.066   2.744
11706W        W83235  14.503   1.479  14.481
11707W        W83236  29.506  13.545  10.054
11708W        W83237   6.162  14.702  13.968
11709W        W83238  28.114  22.235   4.624
11710W        W83239  18.670   2.886  10.948
11711W        W83240   3.279  29.182   4.934
11712W        W83241   6.737  32.076  10.869
11713W        W83242  37.786   3.933  13.296
11714W        W83243   7.356  27.721   1.325
11715W        W83244  20.169  33.131   1.424
11716W        W83245   6.716  35.152  12.975
11717W        W83246  36.415  31.623   1.369
11718W        W83247   7.779  33.111  14.353
11719W        W83248   3.794   8.159  14.901
11720W        W83249   2.473  11.864  14.760
11721W        W83250   6.356   9.280  13.007
11722W        W83251  20.931  11.741  14.971
11723W        W83252   0.376  24.162   3.083
11724W        W83253   8.946  37.355   4.359
11725W        W83254  24.821   1.045  11.856
11726W        W83255  36.928  44.274  14.490
11727W        W83256  39.875  37.376   3.292
11728W        W83257  23.916  18.029   2.909
11729W        W83258  42.019  44.677  13.082
11730W        W83259  25.558  20.910   4.852
11731W        W83260  24.421  19.400  13.543
11732W        W83261   8.301  11.708  11.791
11733W        W83262  12.706  21.987  12.978
11734W        W83263  38.599   5.456  12.788
11735W        W83264  11.305  34.638   3.711
11736W        W83265   4.786  33.148  10.963
11737W        W83266  35.801  38.413   1.637
11738W        W83267  39.635   7.823   1.400
11739W        W83268  21.264  17.944   1.873
11740W        W83269   5.207  10.119  13.865
11741W        W83270  17.518  37.519   2.530
11742W        W83271  40.773  17.348   3.303
11743W        W83272  42.018  26.477  10.824
11744W        W83273  27.086  14.883   2.249
11745W        W83274  32.798   8.973  14.950
11746W        W83275  16.604  23.504  14.007
11747W        W83276  29.094   2.498   4.487
11748W        W83277  14.359  12.284  14.996
11749W        W83278  17.609  35.268   4.610
11750W        W83279  42.305  33.511  13.298
11751W        W83280  16.113  18.150  11.618
11752W        W83281  25.334  20.581  11.108
11753W        W83282  29.613  40.120   1.786
11754W        W83283  13.858   2.856   1.356
11755W        W83284   1.927   7.922   3.658
11756W        W83285   3.297  41.950   3.258
11757W        W83286  42.720  15.439   0.980
11758W        W83287  37.586  28.845  13.110
11759W        W83288  39.044   6.433   2.111
11760W        W83289  18.553  17.669   0.398
11761W        W83290   2.804  26.423   4.595
11762W        W83291   1.813  12.940  14.847
11763W        W83292  35.536  20.198   3.622
11764W        W83293  36.525   8.725   2.185
11765W        W83294  21.215   7.651   2.258
11766W        W83295   9.157  41.794  12.102
11767W        W83296  17.556  16.703  10.745
11768W        W83297  26.408  26.140   4.147
11769W        W83298  30.511  33.900   1.241
11770W        W83299  33.796   0.921  13.522
11771W        W83300  38.400   8.506  14.406
11772W        W83301  19.455  10.306   1.933
11773W        W83302  43.502  20.353   0.612
11774W        W83303  21.219  36.473  11.064
11775W        W83304  38.886  22.532  13.967
11776W        W83305  24.528  37.202   1.731
11777W        W83306  28.984  18.022   4.684
11778W        W83307  10.098  36.119   5.153
11779W        W83308  31.675  35.321  14.455
11780W        W83309  35.980  44.314   0.751
11781W        W83310  29.366  39.439  14.475
11782W        W83311  26.898   1.485  12.093
11783W        W83312  41.829  11.233  12.834
11784W        W83313   5.575  16.601   0.930
11785W        W83314  39.395  40.573   2.789
11786W        W83315  23.177  10.360  13.874
11787W        W83316  23.134  44.004   4.644
11788W        W83317  36.780   3.913   4.355
11789W        W83318  31.381  42.240   0.851
11790W        W83319  22.466  39.360   0.332
11791W        W83320  21.011   7.340   3.460
11792W        W83321  33.247  38.406  12.549
11793W        W83322  27.774  13.240   1.900
11794W        W83323  18.997  23.787  11.504
11795W        W83324   0.700  34.809  11.267
11796W        W83325   5.446  15.777   2.201
11797W        W83326  24.367  24.382  13.923
11798W        W83327  34.400  38.848  10.711
11799W        W83328  41.367   2.863  12.467
11800W        W83329  14.573   1.509   0.942
11801W        W83330  13.369  15.875   3.206
11802W        W83331   8.154  22.753   9.907
11803W        W83332  40.331  24.538   2.819
11804W        W83333  43.865  21.984   2.022
11805W        W83334  15.930  37.868  13.116
11806W        W83335  44.128  21.775  14.369
11807W        W83336  42.511  34.639  13.336
11808W        W83337   0.366  35.631  11.220
11809W        W83338  27.558  13.280  11.972
11810W        W83339  18.143  23.043   3.684
11811W        W83340   7.393  14.370  14.237
11812W        W83341  10.677  33.375  11.490
11813W        W83342  44.487  22.049   3.776
11814W        W83343  36.683  24.354  11.105
11815W        W83344   9.755  30.361   0.233
11816W        W83345  13.145  38.801   3.251
11817W        W83346  18.693   1.995  12.934
11818W        W83347  10.874  40.452  14.833
11819W        W83348  19.043  21.335  13.937
11820W        W83349  19.818  11.786   9.819
11821W        W83350  25.888  21.043  14.304
11822W        W83351   8.328   8.247  12.846
11823W        W83352  27.891  11.714   2.297
11824W        W83353  43.872  37.408   1.174
11825W        W83354  14.633  21.481   4.579
11826W        W83355  12.274  23.570  12.619
11827W        W83356  35.674  10.614  11.403
11828W        W83357   7.880  20.660  13.926
11829W        W83358  34.662  14.840   3.769
11830W        W83359  24.555  26.400  13.383
11831W        W83360  30.990  13.713  13.115
11832W        W83361   7.592  44.299  12.985
11833W        W83362  16.556  12.579  12.012
11834W        W83363   2.433  34.915   0.921
11835W        W83364  43.824  14.895  11.538
11836W        W83365  31.094  41.270  10.574
11837W        W83366  19.503  18.632   1.474
11838W        W83367   6.240  32.400  14.728
11839W        W83368  27.954   2.940   3.165
11840W        W83369  16.653  22.896   1.367
11841W        W83370  18.599  10.005   5.013
11842W        W83371   8.584   3.004   2.802
11843W        W83372  44.456  21.015   1.381
11844W        W83373  33.918   8.006   4.510
11845W        W83374   5.637  18.804   2.086
11846W        W83375  19.115   7.627  11.953
11847W        W83376  43.883   4.414   1.856
11848W        W83377  15.697   2.218   1.717
11849W        W83378  17.853  35.716   3.118
11850W        W83379  16.131  26.099   3.876
11851W        W83380  23.580  14.990  13.964
11852W        W83381  28.061   5.205  11.386
11853W        W83382  23.673  36.451  13.997
11854W        W83383  19.232  11.554  11.177
11855W        W83384  21.505   5.432   4.187
11856W        W83385  18.051  31.664  12.429
11857W        W83386  24.048  21.609   2.306
11858W        W83387  29.609  27.036   2.833
11859W        W83388  13.171   9.379   0.763
11860W        W83389  26.688  27.484   1.296
11861W        W83390   8.625  40.205   3.087
11862W        W83391  40.765   4.170   1.327
11863W        W83392   6.501  24.341   1.392
11864W        W83393  10.288  17.560  11.875
11865W        W83394   9.701  20.976  10.608
11866W        W83395   9.178   6.147  11.926
11867W        W83396  17.239  22.440   2.801
11868W        W83397  21.539  26.072  13.333
11869W        W83398  26.083  37.822   0.850
11870W        W83399  29.942  27.159  13.341
11871W        W83400  24.623  44.180   2.808
11872W        W83401  15.042  10.389   2.086
11873W        W83402  25.928  14.686  11.596
11874W        W83403  36.872  40.486   2.901
11875W        W83404  12.129  25.228  12.861
11876W        W83405  43.056  18.668   1.778
11877W        W83406   7.887  22.188   0.479
11878W        W83407  36.486  41.027  13.885
11879W        W83408  22.380  23.827  11.705
11880W        W83409   6.622  43.593   0.356
11881W        W83410  34.427  33.263   0.488
11882W        W83411   5.093  39.255   2.175
11883W        W83412  42.016  19.866  11.520
11884W        W83413  20.085  32.330  13.304
11885W        W83414  27.722  37.388   0.050
11886W        W83415   3.178  26.502  14.914
11887W        W83416  43.293  36.554   4.952
11888W        W83417  11.716  32.554  10.259
11889W        W83418  16.131  39.532   4.886
11890W        W83419  19.024   1.523   2.246
11891W        W83420  39.443  26.645  12.411
11892W        W83421  40.035  18.515   3.174
11893W        W83422  44.219  28.967  11.048
11894W        W83423  11.729  26.149  10.440
11895W        W83424  19.675  25.514   2.930
11896W        W83425  18.072  11.192  14.067
11897W        W83426  29.577   9.568  10.780
11898W        W83427  41.247  34.327   1.000
11899W        W83428  13.323  24.199  14.975
11900W        W83429  16.443  21.656   2.124
11901W        W83430  11.833  37.897  14.962
11902W        W83431  31.154   5.957  12.452
11903W        W83432  17.794   4.056   0.326
11904W        W83433  25.697  44.521  13.480
11905W        W83434  26.455  19.067   1.133
11906W        W83435   0.394   6.688   3.084
11907W        W83436   3.294  25.250  12.478
11908W        W83437  15.823  35.544   4.285
11909W        W83438  30.842   8.500  11.085
11910W        W83439  37.538  41.927  14.003
11911W        W83440  23.077  36.937  13.445
11912W        W83441  35.699  25.887   1.098
11913W        W83442  19.227  37.960  13.001
11914W        W83443  18.039   3.163   1.465
11915W        W83444  12.668   1.883  10.570
11916W        W83445  44.739  14.038  13.788
11917W        W83446  18.242  11.386  13.147
11918W        W83447  15.129  20.092  12.166
11919W        W83448  35.837  31.059  11.898
11920W        W83449  38.161  31.777  13.518
11921W        W83450  26.896  30.594   2.876
11922W        W83451  27.065  22.174  14.468
11923W        W83452  20.545  38.600  10.724
11924W        W83453  31.858   7.345   3.759
11925W        W83454  19.707  39.596  12.949
11926W        W83455  19.688   0.900   3.238
11927W        W83456  10.330   4.464   3.872
11928W        W83457  13.794  10.555  13.588
11929W        W83458  11.131  37.954   1.361
11930W        W83459   5.403  26.205   1.601
11931W        W83460   9.807  15.554   4.195
11932W        W83461  18.609  11.607  12.842
11933W        W83462  22.336  34.473  11.654
11934W        W83463  44.069  39.493  12.041
11935W        W83464   4.437  38.953   1.345
11936W        W83465  12.172  13.530   1.215
11937W        W83466  18.845   0.261  14.012
11938W        W83467  29.933  23.635   2.914
11939W        W83468   4.345  28.780   2.303
11940W        W83469  36.417  22.930   4.079
11941W        W83470  12.874  21.810  14.061
11942W        W83471  38.831   7.282   0.508
11943W        W83472  20.551  34.374  12.033
11944W        W83473   8.242  11.378  10.879
11945W        W83474   4.774  21.468   0.319
11946W        W83475  10.216  11.272   9.995
11947W        W83476  30.115  39.487   4.177
11948W        W83477   0.230  44.328  11.518
11949W        W83478  20.090   5.372  11.174
11950W        W83479  38.632  42.851  12.102
11951W        W83480  37.480  38.013  14.417
11952W        W83481  27.595  31.448  12.640
11953W        W83482  18.712  37.955  14.778
11954W        W83483  15.274  39.873   1.458
11955W        W83484   9.126  41.020   2.214
11956W        W83485  38.562  11.102  12.822
11957W        W83486  37.394   1.262   0.348
11958W        W83487  16.659  14.427  10.556
11959W        W83488  21.796   4.868  12.331
11960W        W83489  19.015  34.160   0.737
11961W        W83490  32.748  41.265   1.797
11962W        W83491  37.819  16.495  13.330
11963W        W83492  10.809  30.522   3.630
11964W        W83493  27.776  31.393   0.898
11965W        W83494  12.917  12.327   0.378
11966W        W83495  28.386  26.936   3.790
11967W        W83496   3.101  24.034   3.247
11968W        W83497  20.327  43.010  13.510
11969W        W83498  38.852  32.639   2.432
11970W        W83499  15.054   1.211  12.464
11971W        W83500  27.155  16.092   1.517
11972W        W83501  27.049  12.013  11.145
11973W        W83502  12.176   1.526  13.550
11974W        W83503  27.082  20.693  12.583
11975W        W83504  34.259  37.505  12.861
11976W        W83505  16.614  37.586   4.121
11977W        W83506  14.754  15.250   4.261
11978W        W83507  39.424  25.276  11.231
11979W        W83508   3.341   6.399   1.965
11980W        W83509  12.965  13.907  14.899
11981W        W83510  16.755  24.450   0.945
11982W        W83511  15.598  35.051   3.460
11983W        W83512   2.767   0.196  14.461
11984W        W83513  25.981  23.094   0.559
11985W        W83514  24.345  41.839   1.410
11986W        W83515  31.493   4.194   0.278
11987W        W83516  40.950  20.666  14.590
11988W        W83517  42.106   6.837  12.872
11989W        W83518  22.791  29.057  14.985
11990W        W83519  16.893   9.286   3.750
11991W        W83520  19.209  11.298   0.547
11992W        W83521  14.904  18.024  13.013
11993W        W83522  17.270  44.313  13.124
11994W        W83523  15.398  44.487   3.738
11995W        W83524   6.029  39.427  11.080
11996W        W83525  16.327  43.686   3.232
11997W        W83526  21.219  35.999   3.382
11998W        W83527  18.146  23.121  14.822
11999W        W83528  32.660  11.336   2.481
12000W        W83529  44.585  43.985  12.963
12001W        W83530   1.682   7.901  11.449
12002W        W83531   4.140  30.481  13.458
12003W        W83532   3.447   2.979  12.358
12004W        W83533  22.810  17.772  12.473
12005W        W83534  37.826  25.646  14.410
12006W        W83535   5.443  37.481  10.050
12007W        W83536  10.541   9.240  12.066
12008W        W83537  44.338  40.100   0.251
12009W        W83538  33.493  28.439   2.137
12010W        W83539  18.825  12.049   2.793
12011W        W83540  36.023   4.748  13.046
12012W        W83541   1.936  40.551   1.178
12013W        W83542  14.332  32.489   2.191
12014W        W83543   0.763  10.566   2.119
12015W        W83544  17.968  42.594  13.506
12016W        W83545  43.099  14.318   1.717
12017W        W83546   8.130  42.771  13.609
12018W        W83547  33.363   0.858   3.238
12019W        W83548  32.441  31.848   2.128
12020W        W83549  41.806  22.572   1.346
12021W        W83550   2.295  39.451   4.781
12022W        W83551   8.563  44.356  11.127
12023W        W83552  36.037  24.552  12.886
12024W        W83553  21.440  19.559   2.623
12025W        W83554  18.549  17.914  12.941
12026W        W83555  14.697  40.789  14.485
12027W        W83556  25.675  23.291  11.453
12028W        W83557  27.486   6.837  13.332
12029W        W83558  26.103  33.404   2.145
12030W        W83559   6.574  22.669  13.767
12031W        W83560  11.193  18.084  14.300
12032W        W83561  14.003   2.638   5.240
12033W        W83562   7.161  12.138  14.707
12034W        W83563  18.463  34.492  11.574
12035W        W83564  20.114  39.305  13.080
12036W        W83565  15.369  38.338  14.112
12037W        W83566  14.239  16.133   2.379
12038W        W83567  40.306  39.999  10.809
12039W        W83568   6.844  15.834  12.110
12040W        W83569  34.352  24.203   0.343
12041W        W83570   5.845  36.468  12.052
12042W        W83571  25.462  35.082  14.356
12043W        W83572  15.757  39.889   1.657
12044W        W83573   8.862  14.736   0.351
12045W        W83574  37.851   7.647   4.484
12046W        W83575   7.580  11.341   1.252
12047W        W83576  32.899  17.808   5.006
12048W        W83577  20.369  39.507  11.210
12049W        W83578   5.316  19.133   2.341
12050W        W83579   9.886  19.058  13.342
12051W        W83580  42.934   6.789  13.526
12052W        W83581  12.765   7.709   0.783
12053W        W83582  29.015   3.801  12.878
12054W        W83583  14.268  27.986  13.499
12055W        W83584  24.810  31.579  12.039
12056W        W83585  38.361  12.336  12.701
12057W        W83586  21.347   8.017  11.572
12058W        W83587  24.737  32.977  13.391
12059W        W83588  43.073  13.237   3.733
12060W        W83589  39.744  31.685   3.752
12061W        W83590  15.672  21.029   0.077
12062W        W83591  42.776  29.330  12.822
12063W        W83592  14.196  34.336   3.900
12064W        W83593  41.857  14.467   5.247
12065W        W83594   1.758  37.857  12.583
12066W        W83595  27.921   4.624   2.779
12067W        W83596  35.471  25.423  14.924
12068W        W83597  42.275  12.276  13.314
12069W        W83598  35.148  37.465  12.478
12070W        W83599  24.671  44.573  10.460
12071W        W83600  25.667  40.748  14.952
12072W        W83601  24.012  37.117   4.925
12073W        W83602   0.174  18.708  11.966
12074W        W83603  11.088   6.469  13.374
12075W        W83604  19.795  15.244   4.366
12076W        W83605   4.689  41.545   0.235
12077W        W83606  28.504  34.564   2.417
12078W        W83607   1.309  32.246  12.548
12079W        W83608  15.146  19.199   4.565
12080W        W83609  16.741  33.263  10.441
12081W        W83610  41.959  37.753   3.277
12082W        W83611  35.365  33.139   0.276
12083W        W83612  36.148  11.296  14.923
12084W        W83613  34.885  16.403   4.160
12085W        W83614   3.868   5.486   1.778
12086W        W83615  13.385  18.052  12.398
12087W        W83616  12.833  10.586   4.825
12088W        W83617   6.451  12.171  13.007
12089W        W83618  26.861  34.793   5.210
12090W        W83619   5.535   2.127   2.441
12091W        W83620  42.565  13.726   3.147
12092W        W83621  39.897  10.400   1.095
12093W        W83622  20.152   5.791   4.390
12094W        W83623  38.645  21.549  13.556
12095W        W83624  15.786  27.054   4.180
12096W        W83625  16.948  29.520   0.008
12097W        W83626  30.340  24.929  14.819
12098W        W83627  40.354  27.229  13.395
12099W        W83628  12.161  26.064  11.498
12100W        W83629   1.742  44.538   0.548
12101W        W83630  12.127  22.716  12.855
12102W        W83631  43.445  32.405  10.377
12103W        W83632  28.657  27.805   3.771
12104W        W83633  17.547  35.703   2.228
12105W        W83634   5.732  12.593   4.578
12106W        W83635  30.225  41.291   3.070
12107W        W83636  17.734  15.753  11.081
12108W        W83637   1.882  33.595   3.016
12109W        W83638   3.079  29.155  14.295
12110W        W83639  16.237  10.255   3.157
12111W        W83640  33.592  14.604   0.433
12112W        W83641  25.403  28.597   0.488
12113W        W83642  44.348   0.789  12.490
12114W        W83643   2.375  16.881  11.278
12115W        W83644   4.336  21.806  13.487
12116W        W83645   7.684  38.468   3.665
12117W        W83646  32.582   4.671   1.919
12118W        W83647   3.756  11.602   1.594
12119W        W83648  14.166  28.431   3.632
12120W        W83649   7.263  18.033  12.055
12121W        W83650   2.223  25.023   3.787
12122W        W83651  21.214   2.999   0.919
12123W        W83652  44.853  22.401   3.722
12124W        W83653  12.630  35.377   2.671
12125W        W83654  31.166  20.818  12.397
12126W        W83655  23.198  19.306  14.706
12127W        W83656  12.558  19.625   0.327
12128W        W83657   0.308  44.859   1.891
12129W        W83658  26.682   1.633   4.051
12130W        W83659  34.948  12.541  10.169
12131W        W83660  35.393  35.988  10.610
12132W        W83661   4.656  22.095   4.112
12133W        W83662  37.901  25.159  14.924
12134W        W83663  19.999  13.124   3.384
12135W        W83664  31.515  31.649   4.435
12136W        W83665  14.353  10.431  13.464
12137W        W83666  27.458   4.344  12.425
12138W        W83667  15.088  14.811   0.365
12139W        W83668  34.547  11.697  11.426
12140W        W83669  36.938  11.636   2.297
12141W        W83670  43.514  19.289   2.779
12142W        W83671  13.285  17.603  14.969
12143W        W83672  33.693  39.697   3.480
12144W        W83673  43.577   7.376   4.151
12145W        W83674   8.640   1.744  13.367
12146W        W83675   2.814  10.909   2.846
12147W        W83676  32.665   3.127   0.809
12148W        W83677  38.143   8.931  13.213
12149W        W83678  41.921  41.898   3.133
12150W        W83679  25.507   0.713  12.930
12151W        W83680   6.648   2.422   0.958
12152W        W83681  30.577  26.427  12.489
12153W        W83682   0.714  34.811  13.917
12154W        W83683  23.559  37.518  12.502
12155W        W83684   5.862  34.384   1.332
12156W        W83685  20.912  26.699  12.381
12157W        W83686  28.740   1.356  11.686
12158W        W83687  33.117  44.808   4.794
12159W        W83688  24.507  30.256  10.922
12160W        W83689  20.628  21.421   4.638
12161W        W83690  35.322  23.007  14.377
12162W        W83691   8.441  24.995   1.711
12163W        W83692   1.696   0.014   2.326
12164W        W83693   5.000  31.944  11.498
12165W        W83694  13.400   2.964  13.697
12166W        W83695  20.548   5.730  12.430
12167W        W83696  28.789   9.231   0.918
12168W        W83697   6.787   7.357   0.395
12169W        W83698  27.746  30.933  11.458
12170W        W83699  19.739  41.330  10.620
12171W        W83700  30.654  41.433  10.830
12172W        W83701  38.623  34.482   1.282
12173W        W83702  43.887  35.880   4.262
12174W        W83703  36.986  41.462  14.341
12175W        W83704  12.549   1.221   1.452
12176W        W83705   3.374  38.122  12.941
12177W        W83706  33.091  44.229  10.653
12178W        W83707  22.472  42.337  11.822
12179W        W83708  13.714  40.518  11.149
12180W        W83709   1.298  39.509   3.237
12181W        W83710  44.784   8.915  12.013
12182W        W83711  20.568  19.841   0.690
12183W        W83712  21.317  40.892   3.031
12184W        W83713  24.101  16.875  13.834
12185W        W83714   7.564  34.377  11.234
12186W        W83715  14.465  25.131   3.383
12187W        W83716  44.964  11.303   1.373
12188W        W83717   3.679  25.124  10.947
12189W        W83718  33.954  31.372  11.565
12190W        W83719  27.208  16.676   0.882
12191W        W83720  10.371   6.177  11.558
12192W        W83721   7.279  11.213  14.073
12193W        W83722  42.851  14.142  14.034
12194W        W83723   4.256  12.103   2.762
12195W        W83724  44.912   4.749   3.337
12196W        W83725  37.341   0.843   3.820
12197W        W83726  44.558  15.778   1.170
12198W        W83727   7.622   2.426   2.183
12199W        W83728  29.022  39.313   4.829
12200W        W83729   6.810  30.219  12.674
12201W        W83730   5.694  19.157  11.482
12202W        W83731  35.484  35.867   3.939
12203W        W83732   5.200  14.817  14.207
12204W        W83733   8.634  24.254  13.051
12205W        W83734   0.841  29.673  10.473
12206W        W83735   0.426  43.536  12.187
12207W        W83736   1.277  11.729  11.063
12208W        W83737  32.132  43.369  10.653
12209W        W83738  35.010  15.553  13.569
12210W        W83739  32.667  22.098   4.643
12211W        W83740  35.111  28.002   1.315
12212W        W83741  33.403  23.803   0.398
12213W        W83742  20.765  17.174  13.902
12214W        W83743   2.366  33.281   1.465
12215W        W83744   8.498  21.719   3.706
12216W        W83745  42.040  11.964   3.611
12217W        W83746  23.375  35.607  14.746
12218W        W83747  31.022  44.317  12.778
12219W        W83748  11.691  13.181  12.135
12220W        W83749  16.627  40.381  12.931
12221W        W83750  23.616  36.001   4.563
12222W        W83751  17.602  34.999  12.967
12223W        W83752   9.661  21.316   0.850
12224W        W83753   0.782  21.454   0.709
12225W        W83754  24.637  22.717   0.939
12226W        W83755  35.191  36.077   1.625
12227W        W83756   9.494  12.513   2.751
12228W        W83757  33.511   4.517  13.353
12229W        W83758  33.619  11.329   3.884
12230W        W83759  41.763  44.695  11.677
12231W        W83760  13.068   6.358   3.284
12232W        W83761  30.618  35.431   3.685
12233W        W83762  29.390   3.278   1.480
12234W        W83763   1.952  11.214  11.125
12235W        W83764   3.916   6.515   0.731
12236W        W83765  25.087  19.636  14.945
12237W        W83766  16.869  41.443   0.799
12238W        W83767  38.014  23.555  12.774
12239W        W83768  40.256  13.093  11.461
12240W        W83769  12.735  35.429  13.473
12241W        W83770  25.288  10.697   4.143
12242W        W83771  19.595  24.810  14.839
12243W        W83772  27.145  39.320   1.362
12244W        W83773  38.148  17.939   4.205
12245W        W83774   1.388  31.579   4.291
12246W        W83775   5.793  16.171   4.110
12247W        W83776  38.780  29.440   1.427
12248W        W83777   5.648  35.510   4.074
12249W        W83778  24.587  33.477  10.283
12250W        W83779  17.153  30.490   4.500
12251W        W83780  35.855  31.201  11.396
12252W        W83781  26.166  29.991  14.547
12253W        W83782  44.290  23.420   2.542
12254W        W83783  33.553  42.079  11.082
12255W        W83784   0.099  22.271   2.915
12256W        W83785  37.868  29.141  13.499
12257W        W83786   3.370  21.943   4.163
12258W        W83787  18.161  19.455   2.224
12259W        W83788  24.445  41.165   2.006
12260W        W83789  44.208   9.192   4.429
12261W        W83790  23.943  38.794   2.468
12262W        W83791  38.877  28.649  11.553
12263W        W83792  34.401  16.355   1.804
12264W        W83793  24.515   4.994  14.853
12265W        W83794  29.934  15.821   1.838
12266W        W83795  25.670  27.544  13.510
12267W        W83796  44.986  17.751   3.399
12268W        W83797  23.123  15.621  10.572
12269W        W83798   6.213  21.464  12.627
12270W        W83799  31.634   0.118   0.371
12271W        W83800  20.732  12.073   0.811
12272W        W83801  40.538  26.852  10.739
12273W        W83802   1.770   5.716   1.789
12274W        W83803  10.722  43.431  11.595
12275W        W83804   4.455  11.057  13.127
12276W        W83805   2.011   9.129  13.071
12277W        W83806  16.323  15.656   0.900
12278W        W83807  19.119  42.321  14.354
12279W        W83808  36.412  40.335  12.948
12280W        W83809  13.252  36.102  11.593
12281W        W83810  25.176  11.602  13.904
12282W        W83811  15.114  24.189  12.593
12283W        W83812  42.935  16.637  10.766
12284W        W83813   5.275  15.805  13.836
12285W        W83814   5.749  12.206  12.084
12286W        W83815  21.644   3.776   0.290
12287W        W83816   1.859   2.424   1.652
12288W        W83817  16.687  14.856   3.929
12289W        W83818   2.062  39.031   3.304
12290W        W83819  32.560  43.432  12.491
12291W        W83820  25.053  17.535   4.258
12292W        W83821  39.639  38.077  12.658
12293W        W83822  28.391  25.267   4.035
12294W        W83823  34.988   8.990  13.893
12295W        W83824  13.389   1.761  11.736
12296W        W83825  42.122  34.127   3.036
12297W        W83826  22.211  27.149  13.575
12298W        W83827  25.135  29.737   4.585
12299W        W83828  26.681  16.979   1.440
12300W        W83829  19.132  24.970  13.110
12301W        W83830  39.305  20.821  12.519
12302W        W83831   9.734  27.718   0.737
12303W        W83832   1.865  22.775   2.214
12304W        W83833   8.298  26.338  13.685
12305W        W83834   7.888  18.047   0.631
12306W        W83835   5.467  33.068  14.922
12307W        W83836  44.989  12.678  14.433
12308W        W83837  31.138  33.028  11.086
12309W        W83838  27.993   7.663   1.517
12310W        W83839  40.264   1.843  14.741
12311W        W83840   2.716  42.384  12.999
12312W        W83841  15.313   1.975  12.461
12313W        W83842  12.671   8.792  11.949
12314W        W83843  35.583  40.838   3.688
12315W        W83844  42.069  12.574  12.541
12316W        W83845  37.768  38.562  14.843
12317W        W83846   2.045  31.803   3.673
12318W        W83847  14.227  23.263  12.493
12319W        W83848  27.605  27.700  14.754
12320W        W83849  16.689  37.828  10.595
12321W        W83850  35.276  34.618   2.750
12322W        W83851  20.659  23.525   4.568
12323W        W83852  13.234  26.196  13.310
12324W        W83853   2.306  39.801  14.303
12325W        W83854  14.877  41.463  10.572
12326W        W83855  29.013  32.547  10.687
12327W        W83856  16.198  42.798  11.527
12328W        W83857  20.824  34.746  14.226
12329W        W83858   3.738  11.205  12.430
12330W        W83859  43.586  32.071  13.372
12331W        W83860  40.733   4.843   3.262
12332W        W83861  35.690   6.419   3.941
12333W        W83862   4.766   6.434   2.289
12334W        W83863   0.431   3.464   1.172
12335W        W83864  12.634   4.548   3.273
12336W        W83865  11.135  41.409   0.368
12337W        W83866   6.630   9.927   4.837
12338W        W83867  34.046  23.536  13.260
12339W        W83868   6.553  36.984   2.953
12340W        W83869   7.700   0.293  13.917
12341W        W83870  44.338  40.307   4.579
12342W        W83871  42.266  20.667  13.872
12343W        W83872   7.590   8.815   4.137
12344W        W83873  12.047  19.574   3.206
12345W        W83874  39.530  19.077   0.379
12346W        W83875  42.995  15.758   3.678
12347W        W83876  42.637  38.951  14.464
12348W        W83877  40.761  20.524   0.893
12349W        W83878  20.143   4.438   2.142
12350W        W83879  32.422  23.252  10.600
12351W        W83880  39.137   9.563   1.166
12352W        W83881  19.254  17.448   2.115
12353W        W83882  25.787   5.756  12.044
12354W        W83883   4.629  10.865  13.630
12355W        W83884  15.535  39.515  13.009
12356W        W83885  42.264  20.992   1.496
12357W        W83886  26.244   8.129  12.557
12358W        W83887   6.571   9.601   0.025
12359W        W83888  19.002  19.203  12.913
12360W        W83889  21.716   5.698  13.031
12361W        W83890  20.843  15.928   2.973
12362W        W83891  17.558   2.718   1.944
12363W        W83892   0.990  40.069  13.315
12364W        W83893  15.033  44.801  12.915
12365W        W83894  27.684  22.184   4.312
12366W        W83895  44.999   5.239  11.975
12367W        W83896  43.893  32.363  14.934
12368W        W83897  21.595   4.397  14.863
12369W        W83898  20.369  11.372   3.975
12370W        W83899   3.238  14.496  10.628
12371W        W83900  35.003  25.923  14.351
12372W        W83901  41.019   4.426   1.714
12373W        W83902  26.119  43.966  13.493
12374W        W83903  30.201  15.714  13.964
12375W        W83904  36.538  17.084   0.855
12376W        W83905  32.369  39.105   0.819
12377W        W83906  16.108   4.723  11.306
12378W        W83907  29.268   6.875   0.959
12379W        W83908  43.715  43.828  12.356
12380W        W83909  41.772  31.687  13.173
12381W        W83910   1.383  40.868   3.752
12382W        W83911  30.571  12.955   2.327
12383W        W83912  33.480   6.222   4.940
12384W        W83913  39.280  40.200   3.961
12385W        W83914  41.806  40.139  11.255
12386W        W83915   1.772  29.531   0.555
12387W        W83916  19.036  42.513  13.446
12388W        W83917  33.532  11.813  12.937
12389W        W83918   0.943  26.440  10.689
12390W        W83919  28.886   8.329  13.365
12391W        W83920  31.157  41.502   4.624
12392W        W83921  15.662  44.682   4.206
12393W        W83922  34.172  42.634   3.615
12394W        W83923  21.720  15.500  11.099
12395W        W83924  24.779   2.226  11.225
12396W        W83925  37.099  25.237  13.459
12397W        W83926   7.426  36.697   3.433
12398W        W83927  13.132  40.335   2.235
12399W        W83928  24.424  14.652  13.805
12400W        W83929  36.934  19.583   0.445
12401W        W83930   9.630  32.679   1.274
12402W        W83931  38.931  38.866   0.469
12403W        W83932  13.938   9.377  11.537
12404W        W83933   5.142  10.748  13.460
12405W        W83934  24.044  29.415   3.303
12406W        W83935  32.745  15.206   9.906
12407W        W83936  35.046  27.833  14.065
12408W        W83937  28.229   6.432   1.160
12409W        W83938  31.568  16.672  12.857
12410W        W83939  21.071   7.715   0.050
12411W        W83940  43.793   9.707  14.775
12412W        W83941   3.141  34.793  10.946
12413W        W83942   7.708   8.043   3.754
12414W        W83943  38.141  25.490   4.067
12415W        W83944   6.468  15.896  11.467
12416W        W83945  22.501  37.970  11.494
12417W        W83946  38.382  35.077  14.834
12418W        W83947   1.982  19.602  12.435
12419W        W83948   9.380  36.401  11.611
12420W        W83949  22.468  26.245   0.853
12421W        W83950  24.786   2.726   4.493
12422W        W83951  16.767  21.739  13.442
12423W        W83952   2.900   4.935   2.256
12424W        W83953   9.773   8.744   4.653
12425W        W83954  39.663  21.583   4.253
12426W        W83955  35.124  38.996   5.231
12427W        W83956  42.833  18.068  13.753
12428W        W83957  24.574  11.270  11.957
12429W        W83958  36.447  26.311   4.133
12430W        W83959  33.462  11.562  12.459
12431W        W83960  16.113  18.784  12.825
12432W        W83961  41.136  21.509   2.753
12433W        W83962   5.575   4.351  14.877
12434W        W83963  28.257  20.682   2.236
12435W        W83964  28.956  37.048  13.875
12436W        W83965  17.482  36.023   4.211
12437W        W83966   2.895  40.369  13.696
12438W        W83967  40.015   0.268  12.733
12439W        W83968  43.876   8.919   4.717
12440W        W83969  28.457  42.766  12.797
12441W        W83970  31.571  14.608  12.050
12442W        W83971  22.685   2.948  13.398
12443W        W83972  40.025  40.443  11.994
12444W        W83973  23.730  27.486  10.596
12445W        W83974  14.702  35.358   0.179
12446W        W83975  37.507  11.923   1.145
12447W        W83976  17.698  15.767   4.919
12448W        W83977  34.609  23.807  14.322
12449W        W83978  39.329   0.468   1.321
12450W        W83979   7.919  34.565  11.968
12451W        W83980  34.044  31.743   1.378
12452W        W83981   3.904  34.979   4.166
12453W        W83982  17.059  41.945   0.828
12454W        W83983   6.354  18.339   2.176
12455W        W83984   3.981   4.806  13.383
12456W        W83985  30.795   3.434  10.315
12457W        W83986  17.908   5.367  13.197
12458W        W83987  37.028  23.061   0.894
12459W        W83988  41.910  10.321   1.421
12460W        W83989   6.775   0.746   0.844
12461W        W83990  37.947  28.821  14.310
12462W        W83991   9.115   0.951  10.050
12463W        W83992  25.558  21.069   3.038
12464W        W83993  37.939  37.216   1.675
12465W        W83994  21.494  40.608  12.028
12466W        W83995   1.863  32.365   0.477
12467W        W83996  29.348  11.254  11.634
12468W        W83997   6.325  30.091  14.826
12469W        W83998  21.927  33.940  13.847
12470W        W83999   2.845  15.121  12.987
12471W        W84000   4.228  22.057   2.672
12472W        W84001  27.390  31.087   3.787
12473W        W84002  44.281   4.610   9.901
12474W        W84003   1.048  17.464   0.865
12475W        W84004   1.268   8.315   4.697
12476W        W84005  22.986  19.267  11.874
12477W        W84006   4.985  35.022  11.480
12478W        W84007  44.893  21.201   3.759
12479W        W84008  36.009   3.067   1.872
12480W        W84009  15.810  42.258   3.126
12481W        W84010   9.419  34.359   3.976
12482W        W84011   9.445  15.825   3.814
12483W        W84012  35.872  21.425   3.576
12484W        W84013  42.333   4.012   3.179
12485W        W84014  19.309  38.366  13.460
12486W        W84015  40.947  10.636   3.782
12487W        W84016   8.916  22.697   3.623
12488W        W84017  44.877  24.135   4.275
12489W        W84018  37.187  11.715  12.975
12490W        W84019  43.748  17.548   1.708
12491W        W84020   2.997  14.038  14.351
12492W        W84021   8.349  39.836  11.773
12493W        W84022  22.671  37.830  11.022
12494W        W84023  37.837  33.034  10.982
12495W        W84024   4.913  36.075  12.987
12496W        W84025  10.775  23.495   4.345
12497W        W84026  17.066  30.647   2.232
12498W        W84027  38.241  39.872  14.904
12499W        W84028  21.165  19.796   3.380
12500W        W84029  22.712  25.676  10.636
12501W        W84030  44.882  39.534  12.581
12502W        W84031  20.239  19.601   4.272
12503W        W84032  13.832  40.005  13.832
12504W        W84033  33.296  38.816  14.540
12505W        W84034  16.170   9.204  13.544
12506W        W84035   4.514  40.875  11.644
12507W        W84036  23.081  39.257   0.288
12508W        W84037   8.707  14.616  11.741
12509W        W84038  33.968  30.512   0.514
12510W        W84039  22.838  27.468  13.220
12511W        W84040  11.187  42.780  12.448
12512W        W84041  32.654  23.416  13.012
12513W        W84042   9.803  23.542  14.919
12514W        W84043  36.331   7.344   3.619
12515W        W84044  24.602   8.877   1.228
12516W        W84045  16.553   0.957  14.888
12517W        W84046  37.628  23.730   0.022
12518W        W84047  31.916  38.227   5.142
12519W        W84048  13.146  10.859   0.857
12520W        W84049  42.423   4.853  12.683
12521W        W84050  32.494  20.803  14.561
12522W        W84051  10.842   1.993   0.896
12523W        W84052   5.005  21.595  11.643
12524W        W84053  27.197  15.746   0.752
12525W        W84054   3.812  39.453   3.803
12526W        W84055  38.935  32.900   2.863
12527W        W84056  24.301  30.472  14.977
12528W        W84057  36.884   9.521   3.149
12529W        W84058   6.690  14.331  12.061
12530W        W84059  32.460  28.431  10.917
12531W        W84060   7.804  21.049  12.216
12532W        W84061  37.630   0.159  13.942
12533W        W84062  34.529  24.506  14.940
12534W        W84063  20.977   1.698  14.934
12535W        W84064   8.138  29.538  14.036
12536W        W84065  37.853   5.402   3.914
12537W        W84066  39.120  28.535  13.883
12538W        W84067  33.686  30.239  14.536
12539W        W84068   4.911  40.283  13.520
12540W        W84069  35.539  22.714  12.962
12541W        W84070  14.663   2.895  10.685
12542W        W84071  14.690  11.702  11.599
12543W        W84072  29.090  10.432   1.191
12544W        W84073  26.918  25.057   3.620
12545W        W84074  35.383  25.628   3.180
12546W        W84075  31.390  38.527   1.942
12547W        W84076   8.504  43.025   2.750
12548W        W84077  26.469  23.390  11.497
12549W        W84078   0.488  26.529   3.670
12550W        W84079   3.371   9.059   4.259
12551W        W84080  27.496   2.585  11.501
12552W        W84081   9.123  41.866   4.912
12553W        W84082  23.554  29.695  13.736
12554W        W84083  31.731  40.756  12.536
12555W        W84084  23.117  41.013   0.571
12556W        W84085   8.157  28.599   3.360
12557W        W84086  30.472  25.936   2.879
12558W        W84087  34.883   6.122   0.775
12559W        W84088  26.784  12.611   3.570
12560W        W84089  29.964  15.260  11.150
12561W        W84090  14.293  39.843  10.565
12562W        W84091   0.294  20.647  14.936
12563W        W84092   4.243  18.286  10.978
12564W        W84093  41.810  11.687  12.575
12565W        W84094  27.685  23.737   1.372
12566W        W84095  40.335  41.932   4.551
12567W        W84096   9.861  20.033  12.050
12568W        W84097  16.483  27.133  13.940
12569W        W84098  12.441  44.375   1.413
12570W        W84099  33.007   8.898   2.698
12571W        W84100  16.113  40.292  13.715
12572W        W84101   5.375  26.478  13.735
12573W        W84102  22.944   2.130   2.207
12574W        W84103  17.176  36.041  12.104
12575W        W84104  33.812   3.391  14.817
12576W        W84105   5.090   1.518  13.110
12577W        W84106  21.816  13.721   1.993
12578W        W84107   4.108  20.193   0.907
12579W        W84108  16.255  16.165   0.947
12580W        W84109  40.817  35.919   3.105
12581W        W84110  28.468  26.895  13.981
12582W        W84111  33.856   9.312   2.307
12583W        W84112  19.520  41.512   1.718
12584W        W84113  40.079  12.314   3.240
12585W        W84114   1.669  11.342   1.041
12586W        W84115  28.057  42.784  13.886
12587W        W84116   7.856   8.211  13.073
12588W        W84117  25.740  35.535   1.613
12589W        W84118  21.288   6.953  10.794
12590W        W84119  43.051   0.260  12.474
12591W        W84120  37.872  26.646   2.715
12592W        W84121  31.636  12.137   2.217
12593W        W84122  24.074  40.830  11.618
12594W        W84123  32.637   6.562  12.906
12595W        W84124  42.029  44.593   1.203
12596W        W84125  32.536  41.918  11.290
12597W        W84126  29.792  43.253  11.227
12598W        W84127  30.735  28.483  11.983
12599W        W84128   4.007   2.632   2.136
12600W        W84129  22.958  12.151   2.857
12601W        W84130  40.989  13.304  13.525
12602W        W84131  32.972  10.248  14.613
12603W        W84132  15.226  16.897   4.330
12604W        W84133  41.565  30.006  12.299
12605W        W84134  22.453   4.274  10.730
12606W        W84135  35.017  20.103   2.262
12607W        W84136  22.810   7.867  11.664
12608W        W84137   3.953  32.914   0.960
12609W        W84138  10.327  13.773  10.808
12610W        W84139   7.215   7.880   3.695
12611W        W84140  32.673  10.658  14.539
12612W        W84141  44.765   7.911  13.286
12613W        W84142  27.033  35.635   2.163
12614W        W84143  23.601  41.895   0.085
12615W        W84144  33.180  21.830  13.716
12616W        W84145  16.835   2.234  10.685
12617W        W84146  34.982   1.970   2.843
12618W        W84147  27.014   4.307   5.126
12619W        W84148   0.214  31.927  13.013
12620W        W84149  35.490  35.104   1.788
12621W        W84150  32.341  22.044   1.803
12622W        W84151  19.136  32.976   1.971
12623W        W84152  41.515   4.380   2.402
12624W        W84153  17.258   3.759   4.157
12625W        W84154   5.745   6.252  14.306
12626W        W84155  20.972  35.619  11.181
12627W        W84156   5.486  37.020   1.350
12628W        W84157   0.362  30.471   0.786
12629W        W84158  41.513   4.937  12.529
12630W        W84159   0.799  24.106   4.060
12631W        W84160  33.003  11.863   3.324
12632W        W84161  34.989  34.851   5.072
12633W        W84162   6.781  42.863  11.499
12634W        W84163   5.231  26.740  12.836
12635W        W84164  30.462  30.419  11.799
12636W        W84165  27.923  43.786  11.552
12637W        W84166  28.978  28.537   3.159
12638W        W84167  30.724  39.624   0.860
12639W        W84168  11.613  31.124  12.575
12640W        W84169  19.772  24.651   4.586
12641W        W84170  19.152  21.642  11.386
12642W        W84171  30.038  30.531  10.932
12643W        W84172   0.843  19.832   3.404
12644W        W84173  41.269  11.633   1.451
12645W        W84174   6.454  20.449   0.625
12646W        W84175   9.977  33.960  14.040
12647W        W84176   4.104  17.772   4.589
12648W        W84177  35.877  34.790   3.660
12649W        W84178  20.455  23.574  10.685
12650W        W84179  38.006  17.390   1.128
12651W        W84180  24.720  20.768  13.488
12652W        W84181  28.527   9.166   1.403
12653W        W84182  12.381  43.553   2.408
12654W        W84183  22.364  20.351  11.232
12655W        W84184  15.312  29.387  12.865
12656W        W84185  23.459  43.967  12.823
12657W        W84186  23.524  40.565   0.785
12658W        W84187   9.407  16.806   1.414
12659W        W84188  36.805  15.181  14.984
12660W        W84189  31.692  20.770  13.984
12661W        W84190  44.755  31.295  13.586
12662W        W84191  31.579   7.265  12.513
12663W        W84192  34.062  39.872  14.088
12664W        W84193  24.514  37.444   4.019
12665W        W84194   3.488  26.623   2.812
12666W        W84195   0.675  40.402   4.503
12667W        W84196  42.068  39.355   2.192
12668W        W84197  15.534   9.286   0.868
12669W        W84198  15.320  22.014   2.057
12670W        W84199  37.358  22.674   5.107
12671W        W84200  25.825   3.313  12.098
12672W        W84201   5.971  43.206   3.420
12673W        W84202  27.516   0.812   4.786
12674W        W84203  12.074   8.494  14.588
12675W        W84204  21.765  15.625   2.430
12676W        W84205  43.310  36.927  12.914
12677W        W84206  28.430  43.035   1.884
12678W        W84207  25.952  28.519  11.917
12679W        W84208  24.390   4.894   2.286
12680W        W84209  22.078  35.023   4.194
12681W        W84210  43.279  27.505   4.302
12682W        W84211  23.516  30.943  13.767
12683W        W84212   8.334   7.183   3.765
12684W        W84213  32.334  16.512   1.231
12685W        W84214   8.373  27.137   0.765
12686W        W84215   7.310   0.221  13.481
12687W        W84216  30.083   1.309   2.286
12688W        W84217  11.391  31.916  13.456
12689W        W84218  34.106  34.482  14.184
12690W        W84219   6.333  40.107  13.939
12691W        W84220  34.056  24.800  14.811
12692W        W84221  44.985  11.713   4.649
12693W        W84222  24.172  27.661   1.964
12694W        W84223  14.153  15.374  14.734
12695W        W84224  33.164  24.464   9.694
12696W        W84225  28.309  33.990  11.271
12697W        W84226   1.561   6.936  12.631
12698W        W84227  33.817  21.144  10.175
12699W        W84228  34.567  20.290   1.852
12700W        W84229  18.187  38.467   4.043
12701W        W84230  13.267   0.988   2.299
12702W        W84231   0.649   1.495  13.496
12703W        W84232  28.050  44.847  14.754
12704W        W84233   1.262  10.508   1.936
12705W        W84234   3.805  12.343   2.826
12706W        W84235   0.433  19.762  11.086
12707W        W84236  23.141  21.133  14.271
12708W        W84237  14.377  42.479  10.673
12709W        W84238   9.824  30.419  12.579
12710W        W84239  44.919  42.935   0.306
12711W        W84240  44.470   4.885   3.855
12712W        W84241  21.032  40.080  14.088
12713W        W84242  33.152   2.241  13.436
12714W        W84243   2.873  32.571  14.065
12715W        W84244   3.065  21.010   0.420
12716W        W84245  22.550  28.227  10.505
12717W        W84246  27.184   8.312   0.676
12718W        W84247  36.974  28.821   2.887
12719W        W84248   5.351  44.335   3.725
12720W        W84249  39.107  33.668  13.794
12721W        W84250  13.559  23.693  12.106
12722W        W84251  21.629  31.914  10.060
12723W        W84252  37.076   2.065  13.881
12724W        W84253  32.377  14.135   0.359
12725W        W84254  27.075  42.657   3.407
12726W        W84255  19.565  23.111   1.876
12727W        W84256  40.113  21.814   0.740
12728W        W84257  23.966  38.568  14.735
12729W        W84258  35.575  16.739  13.071
12730W        W84259  10.719  29.799   2.895
12731W        W84260  14.632  44.651  10.508
12732W        W84261  40.446   0.031  10.240
12733W        W84262  31.585  37.007   4.932
12734W        W84263  12.298  33.823  12.197
12735W        W84264  21.646  28.666  10.611
12736W        W84265   3.704  25.392   1.533
12737W        W84266  40.593  20.510  14.915
12738W        W84267  24.223  43.528   3.214
12739W        W84268  24.011  41.848  14.256
12740W        W84269  38.524  30.621  13.616
12741W        W84270   7.933  39.044   0.389
12742W        W84271  15.909  17.259   4.642
12743W        W84272  24.760  13.325  13.211
12744W        W84273   9.451   3.448  12.787
12745W        W84274  26.772  43.385  10.731
12746W        W84275   7.862   0.290   0.350
12747W        W84276  22.164  27.346  13.053
12748W        W84277  44.376   2.413   0.443
12749W        W84278  34.074  13.875  12.215
12750W        W84279  33.164   8.984   4.982
12751W        W84280  21.815  41.451  12.878
12752W        W84281  22.720  30.031   1.207
12753W        W84282   4.741  23.219  14.936
12754W        W84283   9.879  41.570  11.471
12755W        W84284  32.378   9.395  12.798
12756W        W84285   7.577  30.391  14.888
12757W        W84286  17.604  27.217   3.949
12758W        W84287  22.699  20.091   2.660
12759W        W84288   1.922  32.568  14.517
12760W        W84289  35.972  35.720   0.789
12761W        W84290  33.441   9.851   4.674
12762W        W84291  14.221  28.974   2.171
12763W        W84292  22.326  23.912   1.006
12764W        W84293   4.226  14.330  12.563
12765W        W84294  16.202  20.611  12.348
12766W        W84295  32.374  40.576   4.137
12767W        W84296   5.094  38.997  12.608
12768W        W84297  44.313   5.329   3.603
12769W        W84298  21.570  35.006   4.120
12770W        W84299  12.122   8.916  10.471
12771W        W84300  43.272  33.929   0.355
12772W        W84301  31.196  15.753  11.482
12773W        W84302  33.020  16.390  14.655
12774W        W84303  27.249   1.769   1.425
12775W        W84304  34.009  36.233   0.554
12776W        W84305  40.946   3.392   1.725
12777W        W84306  25.085  31.394  13.967
12778W        W84307   6.880  14.238  10.736
12779W        W84308  14.858   4.003   0.065
12780W        W84309  28.211  18.244   4.101
12781W        W84310  20.199  29.664   1.234
12782W        W84311  35.024  37.499   4.300
12783W        W84312  25.156   8.012  14.240
12784W        W84313  44.090  24.468   2.967
12785W        W84314  36.903   8.947   1.239
12786W        W84315  16.013  11.541   3.184
12787W        W84316  35.555  35.050   4.939
12788W        W84317  36.515  17.304   9.814
12789W        W84318  29.140  23.833  12.029
12790W        W84319  27.570   0.295  13.479
12791W        W84320  44.348  24.770  13.478
12792W        W84321  41.628  37.679  11.672
12793W        W84322  39.662  36.216  14.244
12794W        W84323  13.069  13.240   3.611
12795W        W84324  20.730  10.680   3.723
12796W        W84325  15.789  19.696  14.783
12797W        W84326  22.781  39.922   1.852
12798W        W84327  19.614  44.932  11.053
12799W        W84328   4.769   0.458   0.207
12800W        W84329  32.334  34.939   1.261
12801W        W84330  39.218  27.084  14.539
12802W        W84331  27.503  35.043  11.911
12803W        W84332  19.775  22.467   0.414
12804W        W84333  31.699  11.043  13.035
12805W        W84334  17.475  15.845   0.074
12806W        W84335   2.708   2.345   2.306
12807W        W84336   2.231  13.454   1.745
12808W        W84337  27.965  33.078  14.833
12809W        W84338  10.622  37.270  13.111
12810W        W84339   1.133  42.391   0.883
12811W        W84340   7.207   9.623  13.161
12812W        W84341   6.325   8.837   1.345
12813W        W84342  10.347  30.931  10.675
12814W        W84343  32.272   2.813   0.959
12815W        W84344  28.032  30.956   2.383
12816W        W84345  37.967   7.221  14.460
12817W        W84346   7.342  19.339  13.260
12818W        W84347  41.498  30.260  10.585
12819W        W84348  41.329  43.224   1.301
12820W        W84349  41.131  24.623  10.942
12821W        W84350  21.165  20.907  13.239
12822W        W84351  11.139  15.111  13.625
12823W        W84352  11.100   1.987  11.147
12824W        W84353  24.049  41.240  14.544
12825W        W84354  38.358  38.420   4.291
12826W        W84355  22.080  44.273  13.981
12827W        W84356   7.264  26.506   0.826
12828W        W84357  23.769  20.354   3.718
12829W        W84358  39.063  27.690   1.218
12830W        W84359  13.334  24.652  11.465
12831W        W84360   5.192   1.935   5.032
12832W        W84361  42.012  33.610   2.982
12833W        W84362   3.022  16.048   3.264
12834W        W84363  23.913  26.193  14.720
12835W        W84364  40.157  12.571   2.773
12836W        W84365  12.163   7.948  13.774
12837W        W84366  18.174  38.502  12.920
12838W        W84367  19.773   3.390   1.310
12839W        W84368  27.087   0.413   2.006
12840W        W84369  24.728  19.734  12.064
12841W        W84370  21.786   6.373  14.153
12842W        W84371  38.830   0.472   4.605
12843W        W84372  31.071   4.444   3.175
12844W        W84373   9.269  41.743  11.216
12845W        W84374  15.441  21.532   1.312
12846W        W84375  10.318  35.041  14.830
12847W        W84376  41.042  30.611   4.315
12848W        W84377   1.725  29.723   2.347
12849W        W84378  38.433  28.207  12.664
12850W        W84379  18.287  28.220   3.157
12851W        W84380  23.567  20.536  13.092
12852W        W84381  41.329  29.525  12.414
12853W        W84382  13.654   3.858   3.527
12854W        W84383  23.993  18.337   0.450
12855W        W84384  10.298  23.716  10.614
12856W        W84385  19.574  41.560  12.119
12857W        W84386  35.493  17.029  14.925
12858W        W84387  14.346  36.692  13.019
12859W        W84388   6.813  11.151  13.780
12860W        W84389  18.271  36.350   4.945
12861W        W84390  32.987  35.761  10.664
12862W        W84391  31.181   5.710  14.242
12863W        W84392   0.652  14.693   2.372
12864W        W84393  35.007  26.105  11.513
12865W        W84394   4.420  13.649  14.057
12866W        W84395  12.434  34.259   4.167
12867W        W84396  32.012  28.017  14.890
12868W        W84397   8.111  27.599  13.892
12869W        W84398  36.925  31.912   4.238
12870W        W84399  33.523   3.493  10.718
12871W        W84400   2.708   2.262   4.648
12872W        W84401   3.786   8.880  14.338
12873W        W84402  25.235  24.131   2.083
12874W        W84403  14.025  14.103  11.129
12875W        W84404  39.908   0.742   3.384
12876W        W84405  23.147  44.781  11.178
12877W        W84406  30.483  39.943  11.963
12878W        W84407  23.440   1.539   0.883
12879W        W84408  40.336  36.556  10.635
12880W        W84409  10.888  20.475  14.281
12881W        W84410  36.318  12.371  13.958
12882W        W84411  35.599  25.586   4.092
12883W        W84412  21.290  10.266  13.401
12884W        W84413  39.272  27.235   3.590
12885W        W84414   8.849  21.086   4.789
12886W        W84415  41.320  27.996  11.000
12887W        W84416  35.073  18.236   4.572
12888W        W84417  30.165  25.850   0.836
12889W        W84418  39.486  12.878  14.374
12890W        W84419  14.832  42.024  13.847
12891W        W84420  32.250  36.090   0.734
12892W        W84421  29.615  41.977   2.445
12893W        W84422  44.125  15.022  13.069
12894W        W84423  13.090  43.391   4.679
12895W        W84424  43.410  30.076  10.703
12896W        W84425  13.885  32.675   3.330
12897W        W84426  23.190   4.419  14.398
12898W        W84427  18.341  31.066  13.815
12899W        W84428  34.013   2.199  10.766
12900W        W84429   2.355  18.813   3.251
12901W        W84430   8.618  40.512  14.959
12902W        W84431  12.891  38.611  14.763
12903W        W84432  10.169  24.370   1.872
12904W        W84433   7.795  27.435   1.232
12905W        W84434   5.817   8.070  14.190
12906W        W84435  25.567   8.688  14.238
12907W        W84436   3.317  34.885   1.944
12908W        W84437   3.550  24.505  10.813
12909W        W84438   5.337   4.026   0.199
12910W        W84439  34.978  31.690   1.240
12911W        W84440   4.809  14.174   2.326
12912W        W84441  12.435   1.761  14.875
12913W        W84442  28.131  16.659  14.932
12914W        W84443  24.147  34.509   9.808
12915W        W84444  38.641  41.403  11.911
12916W        W84445  16.724  10.850  11.543
12917W        W84446  40.004  41.044  14.812
12918W        W84447  25.676  41.103   3.213
12919W        W84448  14.363  27.484   4.632
12920W        W84449  13.193   1.841  13.976
12921W        W84450  26.049  11.210  11.851
12922W        W84451  12.441  44.385  10.375
12923W        W84452   0.209   1.822  14.350
12924W        W84453  24.071  19.023  14.858
12925W        W84454  16.399  23.666  14.887
12926W        W84455  26.610  29.025  14.536
12927W        W84456  18.058  19.234   4.036
12928W        W84457  17.703   4.336   4.706
12929W        W84458  28.577   6.224  10.483
12930W        W84459  18.679   9.873  11.045
12931W        W84460  44.460  19.999   1.031
12932W        W84461  36.209   3.129  11.764
12933W        W84462  38.461  25.136  11.369
12934W        W84463  33.535   6.881  10.754
12935W        W84464  22.138  27.655  13.491
12936W        W84465  34.539  23.245  12.031
12937W        W84466  20.742  20.147   2.365
12938W        W84467   0.197  41.189   3.203
12939W        W84468  11.671   8.722   0.714
12940W        W84469  13.098  44.822  13.348
12941W        W84470   3.382  16.286  12.421
12942W        W84471  39.344   5.608   1.898
12943W        W84472  33.431   3.146   1.788
12944W        W84473  44.054   5.279  14.957
12945W        W84474   4.373  20.211   4.677
12946W        W84475  16.634   6.921  11.184
12947W        W84476  40.330  42.507  14.450
12948W        W84477   4.649  18.492  13.216
12949W        W84478  10.881   9.348  13.357
12950W        W84479   3.795  40.803  13.788
12951W        W84480  31.710  34.403  13.500
12952W        W84481  38.047   0.773  12.026
12953W        W84482   8.411  24.705  12.827
12954W        W84483  28.125  28.906  11.450
12955W        W84484   2.480  35.529  14.348
12956W        W84485  11.974  37.207   3.353
12957W        W84486  38.619  25.583   3.878
12958W        W84487   4.255  41.519   2.871
12959W        W84488  26.130  43.919  12.072
12960W        W84489  21.534  34.944  11.000
12961W        W84490  25.153  17.693   0.362
12962W        W84491  23.808   5.785  11.916
12963W        W84492  15.291  15.984  12.363
12964W        W84493   9.080   6.916   0.822
12965W        W84494  17.438  26.129  13.057
12966W        W84495  33.482  27.100  14.931
12967W        W84496  17.503  28.127  13.191
12968W        W84497  20.565  38.003  12.272
12969W        W84498  40.967   4.320  12.663
12970W        W84499  39.703   7.849  11.195
12971W        W84500  26.710   4.260  14.700
12972W        W84501  18.712  42.343  12.066
12973W        W84502  23.223  12.616   2.085
12974W        W84503  40.086  11.657  12.225
12975W        W84504  37.403  18.696  10.717
12976W        W84505  22.338  25.487  12.038
12977W        W84506  15.849   4.865   1.901
12978W        W84507  33.892   6.197  14.839
12979W        W84508  35.554  27.211   2.754
12980W        W84509  23.737  33.609   3.296
12981W        W84510   2.801   1.073  13.357
12982W        W84511  39.429  18.012   0.730
12983W        W84512   7.434  37.844   1.389
12984W        W84513  26.064  15.379   1.710
12985W        W84514  30.883  32.705   0.812
12986W        W84515   3.115   7.148   2.746
12987W        W84516   0.753  29.524  12.971
12988W        W84517  26.589  30.827  14.474
12989W        W84518  19.806  43.416   3.625
12990W        W84519  25.168  11.874   0.909
12991W        W84520  15.088  12.679   4.450
12992W        W84521  11.405  42.524  10.903
12993W        W84522   8.240  35.675   1.307
12994W        W84523  17.538  38.008  10.745
12995W        W84524  29.259  23.542  12.450
12996W        W84525  43.471  33.353  13.298
12997W        W84526  29.914   7.676   1.863
12998W        W84527   0.952  25.645  10.990
12999W        W84528  34.901   5.319  10.821
13000W        W84529  40.869  14.365  11.608
13001W        W84530  21.481  29.713  10.742
13002W        W84531  24.209   8.747  12.057
13003W        W84532   6.694   2.298   1.735
13004W        W84533  32.754  37.783   0.522
13005W        W84534  35.379  33.789   2.317
13006W        W84535  26.766  11.655   5.111
13007W        W84536  20.563  40.482   1.642
13008W        W84537  40.748  14.627   4.383
13009W        W84538   0.261  25.233  12.863
13010W        W84539  25.843  37.093  11.064
13011W        W84540   8.535   9.124  13.196
13012W        W84541  13.385  12.255   4.559
13013W        W84542  39.913   7.309  10.633
13014W        W84543  26.627  16.520  14.985
13015W        W84544  28.089  33.553  12.522
13016W        W84545  18.478  30.248  10.785
13017W        W84546   1.957  27.051   4.529
13018W        W84547  43.948  42.808   3.732
13019W        W84548  10.629  41.324   0.167
13020W        W84549  37.280  25.558   3.569
13021W        W84550  38.282  27.589  11.608
13022W        W84551  38.997   0.311   2.371
13023W        W84552  10.699  29.003   3.142
13024W        W84553  12.093  35.163   1.888
13025W        W84554   4.858  43.065  13.780
13026W        W84555  37.064  13.102   1.912
13027W        W84556   3.456  39.408   4.619
13028W        W84557  20.651   9.414  12.405
13029W        W84558   9.254  36.987  13.793
13030W        W84559  41.458  32.525   1.849
13031W        W84560  38.039  16.966  13.190
13032W        W84561  28.951  19.222   0.916
13033W        W84562  14.287  23.946   1.318
13034W        W84563   3.464  25.962  11.573
13035W        W84564   7.290  19.284   3.222
13036W        W84565  30.557   1.281  14.296
13037W        W84566  29.077   1.269  13.467
13038W        W84567  29.663  33.988   2.777
13039W        W84568  17.240  13.115  13.843
13040W        W84569  20.717  32.559  10.685
13041W        W84570  29.572  22.473   2.588
13042W        W84571  28.547   6.964   3.696
13043W        W84572  26.946  25.681  12.531
13044W        W84573  37.973  31.900   2.700
13045W        W84574   5.164  33.969  10.404
13046W        W84575  29.777   5.998   1.047
13047W        W84576  20.899  30.750   4.061
13048W        W84577  28.158  27.003   1.608
13049W        W84578  20.086  28.122   1.355
13050W        W84579  40.266  32.401   3.376
13051W        W84580   1.832  30.687   4.385
13052W        W84581  43.931   5.768   0.657
13053W        W84582   1.362  39.841  10.618
13054W        W84583  37.246  42.267   1.346
13055W        W84584  42.879   4.279   0.377
13056W        W84585   6.233  31.884   0.613
13057W        W84586  43.822   1.631   4.171
13058W        W84587  16.767  14.875  10.801
13059W        W84588  29.525  32.461   2.797
13060W        W84589  23.393  34.186   3.977
13061W        W84590   6.178  17.140  13.070
13062W        W84591  16.690  43.108   0.777
13063W        W84592   1.622  25.684  14.263
13064W        W84593  37.676   3.814   3.822
13065W        W84594   9.612  26.472   0.812
13066W        W84595  41.315  23.311  10.613
13067W        W84596  26.209  14.539   0.347
13068W        W84597  15.608  36.433  11.872
13069W        W84598   0.836  44.535   4.174
13070W        W84599  11.968  28.702  11.137
13071W        W84600  20.155  43.259   2.767
13072W        W84601  19.705   8.617   0.456
13073W        W84602  18.003  43.181   1.251
13074W        W84603  41.435  16.153   0.786
13075W        W84604  28.030  21.266  12.032
13076W        W84605  30.038  13.823   2.889
13077W        W84606  35.519   3.257  13.643
13078W        W84607  12.942  37.952   4.847
13079W        W84608  11.478  32.927  10.679
13080W        W84609  32.949  34.635   0.082
13081W        W84610  41.450  40.936  14.368
13082W        W84611  20.023  44.254  12.141
13083W        W84612  38.010  42.352   0.255
13084W        W84613  36.552  21.665  14.471
13085W        W84614  27.953   3.023  12.496
13086W        W84615   5.365  41.068  14.635
13087W        W84616  43.339  38.804   0.836
13088W        W84617  13.202  35.978   3.154
13089W        W84618  27.250  11.127  12.509
13090W        W84619  15.778   8.054  10.269
13091W        W84620  23.762  39.516  10.207
13092W        W84621  43.026  37.668   3.197
13093W        W84622  12.295  28.567  12.921
13094W        W84623  34.899  35.389  11.391
13095W        W84624  17.117  37.367   2.812
13096W        W84625  44.467   8.804  10.746
13097W        W84626   0.958  41.194  12.358
13098W        W84627   5.399  16.090   0.848
13099W        W84628  40.580  21.300   0.826
13100W        W84629  10.157  21.711   2.792
13101W        W84630  29.102  13.849   4.175
13102W        W84631  34.822  39.323  12.748
13103W        W84632  29.647   2.045  13.022
13104W        W84633   8.232  26.604   3.237
13105W        W84634  35.651  28.075  11.937
13106W        W84635  17.736  12.859   2.916
13107W        W84636  43.405  33.731   4.296
13108W        W84637  31.720  33.699   3.587
13109W        W84638   7.098   9.973  10.747
13110W        W84639  27.601  43.658   3.413
13111W        W84640  23.355   4.972  12.003
13112W        W84641   4.989  28.600   2.927
13113W        W84642  35.554  23.838   2.651
13114W        W84643   8.228  29.181  12.074
13115W        W84644  37.267  20.133   4.663
13116W        W84645   5.185  44.031  12.484
13117W        W84646  42.946  38.886   2.347
13118W        W84647  29.577   1.156   1.410
13119W        W84648  35.513  37.061   4.745
13120W        W84649  31.324   1.786  13.410
13121W        W84650   8.388  37.203  14.676
13122W        W84651   6.771  44.993   2.175
13123W        W84652  30.613  33.474  13.042
13124W        W84653  30.115  22.873   1.090
13125W        W84654  34.557  22.189   2.114
13126W        W84655  15.837  12.790   4.194
13127W        W84656  28.588  29.110  11.543
13128W        W84657  32.578  41.915   1.315
13129W        W84658  13.257  26.116   3.841
13130W        W84659  27.479  16.744  11.407
13131W        W84660  14.344  26.655  10.229
13132W        W84661   6.318  26.020  11.567
13133W        W84662   4.762   3.739   3.838
13134W        W84663  23.010   1.683  11.998
13135W        W84664  14.993  15.403  13.857
13136W        W84665  32.488  12.154  12.175
13137W        W84666  17.722  36.300   4.581
13138W        W84667  42.028  43.846   2.453
13139W        W84668  30.696  38.054   1.506
13140W        W84669  27.277   3.274  13.800
13141W        W84670   8.853   7.431  10.099
13142W        W84671  13.973   6.050   2.241
13143W        W84672   5.121  20.395  11.130
13144W        W84673   1.412  36.980   0.132
13145W        W84674  22.632  42.704   4.178
13146W        W84675  39.340  29.703  12.850
13147W        W84676  31.706  15.061   2.183
13148W        W84677  20.512  41.263  12.241
13149W        W84678   9.161  38.407  14.315
13150W        W84679  43.990   5.812  12.358
13151W        W84680  34.814  13.174   0.375
13152W        W84681   6.661   9.063  11.509
13153W        W84682   6.924   5.124  12.585
13154W        W84683  28.663  28.643   4.178
13155W        W84684  34.587  33.790   0.349
13156W        W84685  42.479  27.370  13.836
13157W        W84686   7.147   4.823  13.685
13158W        W84687  20.112   5.154  10.683
13159W        W84688  19.322  28.171   0.754
13160W        W84689  32.462   5.322  13.570
13161W        W84690  44.692  12.980  11.124
13162W        W84691  26.243  44.470  12.780
13163W        W84692   5.069  12.857   1.305
13164W        W84693  38.584  23.512   2.750
13165W        W84694  29.914  15.659   3.247
13166W        W84695  20.661  16.736  14.954
13167W        W84696  17.249  43.286   3.161
13168W        W84697  28.448   5.493  13.994
13169W        W84698  21.624  35.543  12.805
13170W        W84699  33.569  43.488   4.625
13171W        W84700  25.668  32.318  11.066
13172W        W84701  12.763  13.313   4.961
13173W        W84702  32.315  21.970   3.828
13174W        W84703   4.537  14.143  14.445
13175W        W84704  26.284  22.238   2.191
13176W        W84705   2.828  29.118   3.187
13177W        W84706   1.747  21.290  11.210
13178W        W84707  44.293  35.343   3.332
13179W        W84708   5.339  26.689   1.814
13180W        W84709   2.493   5.915   2.292
13181W        W84710  38.923  15.900   1.717
13182W        W84711   9.581   8.149   1.503
13183W        W84712  19.232   6.284  11.229
13184W        W84713  21.384   4.977  11.012
13185W        W84714  17.563  17.594   1.865
13186W        W84715   1.279  16.722   1.582
13187W        W84716  37.449   6.459  13.904
13188W        W84717   4.180   5.016  13.829
13189W        W84718  20.459  13.197  14.875
13190W        W84719  10.711   3.856   0.740
13191W        W84720  29.508   5.217  14.909
13192W        W84721  37.095   9.793   3.507
13193W        W84722  11.311   5.539  11.103
13194W        W84723  44.386   7.868   3.248
13195W        W84724  28.512  22.553  12.903
13196W        W84725  13.031  18.620   2.634
13197W        W84726   8.341  20.532   1.897
13198W        W84727   7.060  26.985   4.082
13199W        W84728  27.203   0.913  14.173
13200W        W84729  22.974  27.700   3.269
13201W        W84730  21.285  36.710  11.624
13202W        W84731  15.285  44.665  12.058
13203W        W84732  11.886   1.168   1.723
13204W        W84733   2.945  14.656   2.336
13205W        W84734  42.239  28.976  11.985
13206W        W84735   3.158  19.885  13.421
13207W        W84736  42.077  30.387  13.276
13208W        W84737  28.206  23.072  13.403
13209W        W84738  20.225  41.950  14.598
13210W        W84739  17.626  32.597  13.873
13211W        W84740  10.639  23.536  11.886
13212W        W84741  31.623  43.378   1.180
13213W        W84742   7.425  12.890  12.106
13214W        W84743  20.911  25.105  13.802
13215W        W84744  35.079   2.930   3.440
13216W        W84745   3.802  16.575  12.858
13217W        W84746  31.718  28.466  14.030
13218W        W84747  17.034  43.652  14.498
13219W        W84748  38.483  36.397  10.984
13220W        W84749  17.468  13.905  10.664
13221W        W84750   2.030  13.673   2.356
13222W        W84751   2.823  37.824   2.151
13223W        W84752  20.664   7.734   1.006
13224W        W84753  30.003  16.266  10.987
13225W        W84754  21.954  17.633  12.844
13226W        W84755   3.983  38.028   0.086
13227W        W84756  13.179   1.043   0.274
13228W        W84757  23.795  32.274   0.770
13229W        W84758  32.921  16.358  10.661
13230W        W84759  19.964  23.784  10.805
13231W        W84760  23.748  13.879  11.579
13232W        W84761  34.744  39.591   3.286
13233W        W84762  42.745   1.601  13.346
13234W        W84763  31.481  21.237   0.260
13235W        W84764  20.031  33.822   1.983
13236W        W84765  31.628  44.716  13.009
13237W        W84766   7.825   0.477  12.725
13238W        W84767  33.709   8.563  12.048
13239W        W84768  36.734  21.133  14.292
13240W        W84769  44.617  38.893   3.136
13241W        W84770   7.824   8.740   0.767
13242W        W84771  13.128  38.754   4.140
13243W        W84772  32.455  14.747   1.443
13244W        W84773  28.752   9.009   2.382
13245W        W84774  18.200  36.439   4.430
13246W        W84775  18.289   0.318  14.890
13247W        W84776  43.928  35.587  13.286
13248W        W84777  31.305   4.924   9.821
13249W        W84778  36.544  21.096  12.544
13250W        W84779  21.225   8.121   0.342
13251W        W84780  33.640  11.603  11.082
13252W        W84781  24.925  22.999  11.018
13253W        W84782   6.788  11.903  10.617
13254W        W84783  30.151  32.647  14.440
13255W        W84784  12.384  31.247  14.509
13256W        W84785  44.441  11.159   3.681
13257W        W84786  25.989   0.420  14.391
13258W        W84787   2.108  24.255  14.965
13259W        W84788  36.821  21.561  10.561
13260W        W84789  22.407   4.944  11.067
13261W        W84790  14.110  41.161  14.938
13262W        W84791  32.142   6.745   1.888
13263W        W84792  39.551   4.717  13.504
13264W        W84793  41.867  28.689   1.769
13265W        W84794  42.991   4.689  13.428
13266W        W84795  32.361  33.682   1.557
13267W        W84796  32.398  30.502   0.758
13268W        W84797  12.309  11.101   0.330
13269W        W84798  14.894  30.214  10.708
13270W        W84799  23.251  37.110  12.457
13271W        W84800   3.777  35.021   0.209
13272W        W84801  12.617   1.255  13.557
13273W        W84802  10.358  14.068   2.380
13274W        W84803  36.363  41.360  10.619
13275W        W84804   4.725  12.946  10.281
13276W        W84805  34.405  17.508   1.307
13277W        W84806  13.733  27.631  12.851
13278W        W84807  18.826  41.535   0.717
13279W        W84808  36.875   9.930   2.818
13280W        W84809  12.289   8.760   2.376
13281W        W84810  20.605  22.895   0.221
13282W        W84811  40.106  30.535  12.082
13283W        W84812  31.203   8.690  12.410
13284W        W84813  33.765  18.305   3.731
13285W        W84814  21.619   6.361  12.165
13286W        W84815  13.712   9.192  13.462
13287W        W84816  25.771  42.968  14.436
13288W        W84817  31.164  39.788   4.131
13289W        W84818   2.670  34.074   3.635
13290W        W84819  20.763  13.396   2.769
13291W        W84820  11.132  39.102  14.806
13292W        W84821  43.548   5.141  14.954
13293W        W84822  26.343  36.623   3.539
13294W        W84823  41.536   3.459  13.180
13295W        W84824   6.499  37.536   3.679
13296W        W84825   5.796  26.947   1.264
13297W        W84826  27.926  38.962   2.935
13298W        W84827  18.263  34.062   1.827
13299W        W84828  24.721  35.889  14.860
13300W        W84829   8.617  43.837   3.355
13301W        W84830   0.899   0.914   4.587
13302W        W84831  28.012  13.905  13.899
13303W        W84832  33.975  14.274  10.656
13304W        W84833  43.633  41.187  12.889
13305W        W84834   8.357  34.929   0.096
13306W        W84835  31.307  37.614  10.504
13307W        W84836  21.100  20.046  14.678
13308W        W84837  26.019  26.855   4.528
13309W        W84838  36.909  42.721   4.675
13310W        W84839  33.929  11.271   3.239
13311W        W84840  12.374   7.278   1.887
13312W        W84841  20.018  37.416   0.728
13313W        W84842  13.668  15.913   0.427
13314W        W84843  34.521  19.981   2.295
13315W        W84844  36.385   7.153  13.795
13316W        W84845  25.977  31.382  13.941
13317W        W84846  34.200  13.365  12.291
13318W        W84847  28.566  40.003  11.528
13319W        W84848  33.171   2.943  12.456
13320W        W84849  11.725  18.174   0.979
13321W        W84850  27.201  41.826  11.125
13322W        W84851  12.291   9.091   3.687
13323W        W84852  36.464  41.757   1.002
13324W        W84853   9.931  34.045  11.595
13325W        W84854  11.949  15.057   3.082
13326W        W84855  35.993  18.549   0.443
13327W        W84856  13.990  15.074  11.054
13328W        W84857  15.357  38.407   0.484
13329W        W84858  13.677  21.036   0.363
13330W        W84859  31.020  28.916  11.792
13331W        W84860   7.586  43.910  14.361
13332W        W84861   2.200   4.224  11.098
13333W        W84862  26.916  44.315  10.140
13334W        W84863  29.343   3.440  11.541
13335W        W84864   5.632  40.471  12.455
13336W        W84865   2.804  11.564  13.388
13337W        W84866  30.365  41.808   2.900
13338W        W84867  10.224  41.786  11.022
13339W        W84868  19.389   4.310   4.598
13340W        W84869  28.029   7.555  13.139
13341W        W84870  42.781  20.657  13.777
13342W        W84871  42.790   3.317   2.676
13343W        W84872  20.804  26.707  14.518
13344W        W84873  11.163  24.615   3.139
13345W        W84874  27.510  37.393  13.942
13346W        W84875  21.576  31.448   3.563
13347W        W84876  17.645   2.542  10.480
13348W        W84877   5.731  14.300  11.207
13349W        W84878  20.224  27.562  14.979
13350W        W84879  40.592  35.265   2.708
13351W        W84880   0.279  33.380   4.035
13352W        W84881   9.884  33.592   0.842
13353W        W84882  31.118  30.643  14.375
13354W        W84883  11.117   6.320   3.156
13355W        W84884  24.597  27.782  13.844
13356W        W84885  35.017  33.564   3.169
13357W        W84886  33.951   0.955  14.036
13358W        W84887  13.972  38.255   3.310
13359W        W84888  12.071  34.955  10.402
13360W        W84889  39.577   5.672   4.130
13361W        W84890  14.847   5.789  12.386
13362W        W84891  43.261  37.405   3.831
13363W        W84892  32.564  23.116   5.080
13364W        W84893  11.739  21.566  11.172
13365W        W84894  38.063  38.187   3.845
13366W        W84895   9.841  37.426   3.978
13367W        W84896  36.530  18.432  11.020
13368W        W84897   1.292   8.859   4.740
13369W        W84898   2.437  26.938  13.014
13370W        W84899  29.445  40.097   0.751
13371W        W84900  13.165  39.948  14.969
13372W        W84901  10.765  42.907  10.682
13373W        W84902  39.014  32.854  11.509
13374W        W84903  41.701  34.152  14.351
13375W        W84904   4.244  19.624   0.231
13376W        W84905  14.840  39.018   2.990
13377W        W84906  21.263   1.621   3.969
13378W        W84907  23.982  34.866  12.518
13379W        W84908   4.817   1.230   4.694
13380W        W84909  23.494   2.341  12.629
13381W        W84910   0.303  16.295  12.994
13382W        W84911  15.836   9.463   4.929
13383W        W84912  32.957  27.929  10.373
13384W        W84913  10.385  32.855   1.790
13385W        W84914  44.477  18.122   3.669
13386W        W84915  25.540  12.797  12.472
13387W        W84916   2.532  38.839   3.249
13388W        W84917  35.661  38.801  13.810
13389W        W84918  32.335   2.298   0.789
13390W        W84919  42.026  12.821   2.712
13391W        W84920  45.000   8.341  12.066
13392W        W84921  20.505  27.946  13.034
13393W        W84922  43.985  36.879  13.321
13394W        W84923  24.533  44.963   3.293
13395W        W84924  40.562   0.723   4.508
13396W        W84925  12.378   5.913  13.495
13397W        W84926  14.689  44.543   0.778
13398W        W84927  42.072  20.722  11.938
13399W        W84928   0.524  22.729   3.657
13400W        W84929  43.264  14.569   0.865
13401W        W84930  20.226  29.775  14.265
13402W        W84931   5.325   3.399  11.139
13403W        W84932  34.898  27.057   4.647
13404W        W84933  17.327   1.404   3.651
13405W        W84934   6.235  23.944   5.002
13406W        W84935  21.515  28.409  11.053
13407W        W84936  16.066  34.204   0.721
13408W        W84937  36.681  19.743  10.925
13409W        W84938   7.496  41.423   0.875
13410W        W84939  13.236  10.564  11.892
13411W        W84940  37.910  30.619  14.892
13412W        W84941  37.380  29.570  10.765
13413W        W84942  33.543  36.054  13.566
13414W        W84943  43.362  30.145   3.263
13415W        W84944  43.173  18.571  12.079
13416W        W84945  19.792   6.492  13.906
13417W        W84946   1.690  14.791   4.241
13418W        W84947  39.012  19.646  11.980
13419W        W84948  38.878  33.466   3.754
13420W        W84949   4.298  16.610   0.532
13421W        W84950  23.157   8.284   2.357
13422W        W84951   5.216  18.237   2.200
13423W        W84952  36.143  13.194  11.089
13424W        W84953  43.522  35.620   0.400
13425W        W84954  11.560  37.040  13.458
13426W        W84955  37.114  23.310  13.899
13427W        W84956  37.120  25.057  14.384
13428W        W84957  41.057  26.642  14.413
13429W        W84958  37.412   0.083  12.021
13430W        W84959   5.374  43.237  12.322
13431W        W84960  43.556   3.438  14.478
13432W        W84961  37.332   1.866   1.217
13433W        W84962  35.246  38.347   3.198
13434W        W84963  38.006  37.782  13.524
13435W        W84964  21.878  44.724   1.236
13436W        W84965  36.491  41.244  14.375
13437W        W84966  31.750  27.676  10.619
13438W        W84967   6.433  34.099   0.466
13439W        W84968  15.963  34.982   0.353
13440W        W84969   4.423   2.889  10.787
13441W        W84970  13.039  22.194  13.323
13442W        W84971  11.661  18.101   2.492
13443W        W84972  41.939  39.132  13.514
13444W        W84973  22.523  40.906  13.920
13445W        W84974  32.278  15.297  10.124
13446W        W84975  26.053  26.333   2.298
13447W        W84976  14.154  25.361   3.746
13448W        W84977  40.825  10.515   5.061
13449W        W84978  25.155  31.674   2.180
13450W        W84979  25.463   2.346  12.071
13451W        W84980  21.588   1.384  12.422
13452W        W84981  16.787  23.039  13.886
13453W        W84982  43.352  44.268  14.608
13454W        W84983  16.507  38.982  12.454
13455W        W84984   6.879  24.688   1.370
13456W        W84985  37.467  25.916   2.321
13457W        W84986   6.686   7.837  13.921
13458W        W84987   4.645  32.014  13.027
13459W        W84988  17.816  39.903  13.716
13460W        W84989  44.923  31.193  10.459
13461W        W84990  34.392  23.521   4.787
13462W        W84991  33.680  25.663   1.279
13463W        W84992   5.737   9.328  14.015
13464W        W84993  19.676   1.220  11.637
13465W        W84994  30.006   3.044   0.553
13466W        W84995  14.366  42.449  12.758
13467W        W84996  16.757  43.338   4.909
13468W        W84997  15.053  26.701   1.583
13469W        W84998  13.293  32.538   0.680
13470W        W84999   4.097  33.388  12.979
13471W        W85000  41.393   1.058  13.980
13472W        W85001  44.327   1.771   0.936
13473W        W85002   0.742  28.544   0.777
13474W        W85003  13.737  14.343   1.271
13475W        W85004   3.791  38.402  12.836
13476W        W85005  43.040  28.337   1.876
13477W        W85006  16.177  20.485  14.451
13478W        W85007  32.800  41.726  14.432
13479W        W85008  18.283   5.837   0.264
13480W        W85009  24.723  32.369   1.716
13481W        W85010  24.080  11.637  12.925
13482W        W85011  23.482   9.213  13.034
13483W        W85012  30.178  34.964  14.901
13484W        W85013  15.330   8.373  11.928
13485W        W85014  20.726  25.997  14.311
13486W        W85015   5.343  15.355   1.381
13487W        W85016  10.239  15.841   5.064
13488W        W85017  34.632  36.784   0.487
13489W        W85018  38.337  23.545   3.195
13490W        W85019  23.274  26.541   2.312
13491W        W85020  27.183   7.831  10.662
13492W        W85021  41.050  26.165  13.481
13493W        W85022  25.584  18.094  10.713
13494W        W85023  31.646  20.513  11.032
13495W        W85024  23.599   9.358  11.208
13496W        W85025  44.855   4.245  12.990
13497W        W85026  30.215  35.937  11.959
13498W        W85027   0.433  43.997  13.061
13499W        W85028   0.913  33.350   2.766
13500W        W85029  33.907   8.966   2.698
13501W        W85030  41.826  42.559   3.710
13502W        W85031  16.628  21.753  12.239
13503W        W85032  25.261   1.666   4.090
13504W        W85033  37.802   0.776  11.516
13505W        W85034   3.705   2.335   2.424
13506W        W85035  14.147  41.999  11.548
13507W        W85036  17.998  35.290   3.625
13508W        W85037  30.507   0.219  12.601
13509W        W85038  41.013   7.196  13.967
13510W        W85039   6.304  28.412  14.874
13511W        W85040  43.105   5.271   2.298
13512W        W85041  12.804  42.867  14.825
13513W        W85042  18.873  16.074   5.021
13514W        W85043  35.552   4.873   2.415
13515W        W85044  21.410  27.880  10.249
13516W        W85045   4.748  13.583  11.565
13517W        W85046  30.140  17.576  13.564
13518W        W85047  27.706  37.066  11.410
13519W        W85048  36.842  41.537   4.985
13520W        W85049   0.483  38.587  10.602
13521W        W85050   1.689   1.911  12.122
13522W        W85051  40.130   5.471  12.980
13523W        W85052  22.994  21.251   1.804
13524W        W85053  39.422  24.990   4.093
13525W        W85054  20.738  28.150   3.235
13526W        W85055   1.705  14.076   2.300
13527W        W85056  26.647  19.238   3.736
13528W        W85057  18.314  31.598  13.709
13529W        W85058  16.689  38.220  13.992
13530W        W85059  12.696  12.625   2.586
13531W        W85060  25.186  10.437   0.834
13532W        W85061  38.665  22.969  10.770
13533W        W85062  19.536  27.718  12.911
13534W        W85063   6.995  23.151  14.105
13535W        W85064  10.026  25.108   3.410
13536W        W85065   6.613  25.223  13.374
13537W        W85066   6.921  15.601   1.830
13538W        W85067   3.050  22.330  10.685
13539W        W85068  11.342  14.094  11.533
13540W        W85069  26.051   4.146  12.851
13541W        W85070  25.591  34.577  13.484
13542W        W85071   2.241   3.177   1.423
13543W        W85072  17.744  28.952  11.582
13544W        W85073  43.554   5.843   0.270
13545W        W85074  20.502  19.358   2.732
13546W        W85075  11.824   0.503   0.827
13547W        W85076   0.957  28.855  13.541
13548W        W85077   0.353  29.730   1.259
13549W        W85078  11.578  40.045  12.368
13550W        W85079  25.097  11.292   4.758
13551W        W85080   2.804  37.144   0.815
13552W        W85081  34.120   3.299  11.439
13553W        W85082  35.837  43.306  13.958
13554W        W85083  25.972  40.493  14.375
13555W        W85084  26.076  34.350   0.949
13556W        W85085  26.942  21.409   1.490
13557W        W85086  36.599   2.860   0.009
13558W        W85087  29.998  41.510   3.829
13559W        W85088  30.918  31.735   0.061
13560W        W85089  10.562  28.033  11.044
13561W        W85090   1.055  26.439   4.625
13562W        W85091  15.525  31.899   3.299
13563W        W85092  23.052  12.161   4.715
13564W        W85093  39.889   2.461  14.931
13565W        W85094  32.744  16.550   3.977
13566W        W85095  39.434   8.186   2.293
13567W        W85096  26.033   1.825   4.762
13568W        W85097  22.197  15.893   0.327
13569W        W85098  17.389  30.970  10.554
13570W        W85099   6.797  44.822   0.657
13571W        W85100  35.338  43.961   1.846
13572W        W85101  16.676  32.412   0.751
13573W        W85102  12.840  12.641  11.504
13574W        W85103   1.872  23.549   4.795
13575W        W85104  43.917   8.283   0.673
13576W        W85105   0.223  29.164  14.848
13577W        W85106  27.562  23.149   1.952
13578W        W85107  25.686  23.534  14.975
13579W        W85108  29.736  11.934   5.106
13580W        W85109  15.829  15.575   3.258
13581W        W85110  41.586   6.932  13.782
13582W        W85111  10.879   9.062   2.159
13583W        W85112  41.837  44.524  14.405
13584W        W85113  35.891  16.695   1.727
13585W        W85114  17.057  15.619   1.262
13586W        W85115  36.242  20.636  11.110
13587W        W85116   4.593  28.402   3.864
13588W        W85117   2.215  36.459  13.957
13589W        W85118   9.766  17.290   4.611
13590W        W85119  25.251  26.030  12.992
13591W        W85120  16.568  42.583  13.523
13592W        W85121  36.428  10.946   2.635
13593W        W85122  20.403  21.962  14.774
13594W        W85123  31.253   2.206   3.837
13595W        W85124  35.914  21.678   4.121
13596W        W85125   7.129  27.689  11.114
13597W        W85126   9.174   3.707  11.389
13598W        W85127  30.572  17.775   1.597
13599W        W85128  33.622  40.869   2.384
13600W        W85129  24.932  37.662  13.270
13601W        W85130  12.267  12.606  13.402
13602W        W85131  27.006  40.891  11.671
13603W        W85132  18.166  31.235   5.189
13604W        W85133  31.319  15.672  11.988
13605W        W85134  31.786  21.573  12.039
13606W        W85135  15.056  19.089   3.125
13607W        W85136  24.318  22.046   2.251
13608W        W85137  32.181  16.115  14.574
13609W        W85138  14.026  12.625  14.778
13610W        W85139   7.170  32.898  12.563
13611W        W85140   9.168  30.490  11.843
13612W        W85141   0.396  39.859  12.037
13613W        W85142  41.518  23.753  10.751
13614W        W85143   7.309  41.046  10.641
13615W        W85144   9.211  41.340   0.378
13616W        W85145  26.606  34.123   3.863
13617W        W85146   9.214  31.936   0.494
13618W        W85147  42.407  15.723  10.789
13619W        W85148  16.879  16.557   4.107
13620W        W85149   0.765  18.059   0.433
13621W        W85150  38.569  22.061  12.385
13622W        W85151  21.254  35.177  14.008
13623W        W85152  31.911  18.634  12.710
13624W        W85153   5.343  21.965   2.280
13625W        W85154  21.293  29.472   0.523
13626W        W85155   4.800  29.065   2.732
13627W        W85156  38.500  36.045  14.781
13628W        W85157   5.578   0.481   0.966
13629W        W85158  25.692   6.485   2.836
13630W        W85159  19.253  16.682   0.797
13631W        W85160   5.220  31.033   4.071
13632W        W85161  15.709  27.718   5.006
13633W        W85162  19.780  22.462   1.161
13634W        W85163   5.836   9.085   1.400
13635W        W85164  11.803  11.217  13.413
13636W        W85165  42.507  29.580  12.097
13637W        W85166  26.582  14.664   1.434
13638W        W85167  11.345  23.241   2.356
13639W        W85168  40.576  11.640  12.048
13640W        W85169   4.355   1.898  12.550
13641W        W85170  12.753  14.215  12.049
13642W        W85171  30.184  28.168   4.281
13643W        W85172  44.312  40.382   3.661
13644W        W85173  37.063  43.407  14.826
13645W        W85174  29.103  27.571  13.770
13646W        W85175  18.379  10.282  11.075
13647W        W85176  10.314  43.478  13.114
13648W        W85177   4.736  10.691  12.667
13649W        W85178  33.741  10.878  10.282
13650W        W85179  11.312  23.507  13.824
13651W        W85180   4.170  36.091  11.628
13652W        W85181  27.489  33.308  13.957
13653W        W85182   3.940  14.985   3.174
13654W        W85183  11.244  15.158   2.814
13655W        W85184  43.345   7.134   1.319
13656W        W85185  22.848  33.130  10.156
13657W        W85186  11.893  38.409  12.465
13658W        W85187  38.512  30.127   0.479
13659W        W85188  36.852  44.290   1.506
13660W        W85189  34.251  24.733   2.387
13661W        W85190  18.248  19.116  14.249
13662W        W85191  40.859  40.212   3.292
13663W        W85192  44.105  42.971   1.233
13664W        W85193   8.548  42.861  11.381
13665W        W85194  43.316  33.087  10.986
13666W        W85195  34.327  19.119  13.904
13667W        W85196  18.945  11.066  11.158
13668W        W85197   8.387  38.381  10.876
13669W        W85198  28.647  14.962  14.997
13670W        W85199  37.510   8.500   3.822
13671W        W85200  26.598  29.827  10.681
13672W        W85201   7.079   5.397  12.171
13673W        W85202  11.821  13.943  12.325
13674W        W85203  37.889  31.947   1.315
13675W        W85204  15.796  32.088  14.780
13676W        W85205  13.812   1.297  10.972
13677W        W85206  12.930   1.506   0.265
13678W        W85207  42.531  39.011   0.396
13679W        W85208  20.793  43.222   3.665
13680W        W85209  20.996  21.744   3.392
13681W        W85210  21.242  36.478   2.621
13682W        W85211  16.618   7.373   1.746
13683W        W85212  42.959  21.287  10.214
13684W        W85213  11.516  29.002  12.849
13685W        W85214   5.637  38.706  14.430
13686W        W85215   4.555   0.290   0.671
13687W        W85216  14.674   4.458  10.899
13688W        W85217   7.656  40.291  13.835
13689W        W85218  43.588  42.497   2.843
13690W        W85219  29.916  20.006  11.186
13691W        W85220  16.681  25.709   1.885
13692W        W85221  27.508   9.824   3.839
13693W        W85222  14.735  31.611   0.290
13694W        W85223  42.805   5.705  11.415
13695W        W85224   9.635  41.016   3.709
13696W        W85225  40.993  27.191  10.692
13697W        W85226   8.749  42.009   1.203
13698W        W85227   2.853  12.190  12.995
13699W        W85228  10.142  36.533   1.719
13700W        W85229  21.126  19.178   4.097
13701W        W85230  37.219   6.797   4.506
13702W        W85231  37.499  33.140   3.081
13703W        W85232  12.726  11.780  12.495
13704W        W85233   6.810  31.914   2.102
13705W        W85234  36.127  32.982   4.579
13706W        W85235   4.818  39.963   1.167
13707W        W85236  32.367  25.551  13.476
13708W        W85237  14.618  25.548   1.950
13709W        W85238  41.538  19.072   4.334
13710W        W85239  40.835  36.937   2.774
13711W        W85240  22.239  42.297  13.883
13712W        W85241  24.024  44.261  11.093
13713W        W85242  20.520  43.216  14.475
13714W        W85243  41.022  26.311   2.865
13715W        W85244  33.510  39.410   2.220
13716W        W85245  17.588  29.852  11.035
13717W        W85246  41.098   3.295  12.946
13718W        W85247  36.631  23.138  13.831
13719W        W85248  13.781  38.462  13.991
13720W        W85249  28.502  14.283  14.032
13721W        W85250  38.948  13.264   1.772
13722W        W85251  40.119  26.970  12.547
13723W        W85252  15.586  33.554   4.623
13724W        W85253  43.840  44.087  11.915
13725W        W85254  38.385  15.390   3.925
13726W        W85255  24.597  31.349   3.322
13727W        W85256  14.169  10.634  13.951
13728W        W85257  14.653  14.371  12.505
13729W        W85258  37.934  38.990   0.974
13730W        W85259   7.121  21.934   1.817
13731W        W85260  37.598   6.259  12.513
13732W        W85261  10.343  25.618   4.300
13733W        W85262  44.713   5.889  13.067
13734W        W85263   6.166   8.632  14.947
13735W        W85264  27.578   2.827   2.807
13736W        W85265  15.780  28.509  11.688
13737W        W85266   2.344  13.786   1.314
13738W        W85267  40.857   8.106   2.153
13739W        W85268  17.977   7.674   3.780
13740W        W85269  10.756  44.245   3.180
13741W        W85270  26.898  40.469  14.330
13742W        W85271  20.974  24.442   0.341
13743W        W85272  11.184  39.671   4.925
13744W        W85273  32.998  36.009   0.115
13745W        W85274   7.234   9.801   4.199
13746W        W85275  29.642  43.404   1.870
13747W        W85276  33.748   2.218  13.586
13748W        W85277  33.174  22.575   0.409
13749W        W85278  16.721  35.670  13.382
13750W        W85279  19.262  24.054   0.828
13751W        W85280  18.001  44.951  12.878
13752W        W85281  10.877  41.002   4.347
13753W        W85282   7.879  15.562  10.561
13754W        W85283  39.771  38.947  11.262
13755W        W85284   7.941  18.343  14.818
13756W        W85285  18.609   1.029   4.757
13757W        W85286  17.604   8.177   1.087
13758W        W85287  21.769   4.653   2.801
13759W        W85288  17.969  26.981  10.764
13760W        W85289   8.412  22.657  10.708
13761W        W85290  28.244  29.643   4.263
13762W        W85291  12.138  33.958   3.672
13763W        W85292  13.407   9.888  11.131
13764W        W85293  27.867  23.653  11.569
13765W        W85294  13.811  30.578   1.292
13766W        W85295   9.213  34.991  14.863
13767W        W85296  17.095   7.761  14.209
13768W        W85297  38.229  16.116   4.425
13769W        W85298  44.418   0.658   3.234
13770W        W85299  30.008  17.138   2.095
13771W        W85300   1.487   7.345  12.957
13772W        W85301  13.717  42.823  10.737
13773W        W85302   6.673  18.611  13.620
13774W        W85303  32.774  19.526  10.272
13775W        W85304  42.743  12.287   4.253
13776W        W85305  18.123  19.670  13.611
13777W        W85306  28.392   5.636  12.170
13778W        W85307  33.072  37.816   2.781
13779W        W85308  40.863  16.797   3.664
13780W        W85309  20.140  33.320   1.897
13781W        W85310  19.473  30.575   1.474
13782W        W85311  37.461  32.812  11.743
13783W        W85312   3.721  38.615   0.408
13784W        W85313   6.171  20.041   1.884
13785W        W85314  13.678   4.670   4.135
13786W        W85315  21.054   9.235   0.755
13787W        W85316   0.208  39.755   4.205
13788W        W85317  41.100  22.860   1.839
13789W        W85318   9.791  24.735  14.452
13790W        W85319  31.522  42.690  14.824
13791W        W85320  26.679  39.969  10.754
13792W        W85321  27.762  28.650  11.701
13793W        W85322  35.510  38.546  13.067
13794W        W85323  33.479  17.152   2.354
13795W        W85324  17.271   3.556   0.202
13796W        W85325  18.561  14.598   5.003
13797W        W85326  20.578  13.132  11.933
13798W        W85327  18.536  19.179   0.713
13799W        W85328  36.525  13.762  14.889
13800W        W85329   6.978  14.210   1.767
13801W        W85330   3.829  11.080   4.551
13802W        W85331   1.337  35.494  12.940
13803W        W85332  24.656  17.971  14.329
13804W        W85333   2.371  36.994  10.903
13805W        W85334   0.453  39.873  13.203
13806W        W85335  21.516  37.129   2.243
13807W        W85336   2.826  17.741   3.539
13808W        W85337  25.931  36.477   0.730
13809W        W85338  27.274  40.556   3.848
13810W        W85339  21.766  23.272  10.634
13811W        W85340  12.993  29.068   1.067
13812W        W85341  42.354  19.311  13.324
13813W        W85342   6.454  26.645   2.848
13814W        W85343   5.693  40.056   2.879
13815W        W85344  20.407  12.224  10.671
13816W        W85345  37.811   3.894   0.911
13817W        W85346  16.703   6.121   4.679
13818W        W85347  44.250  34.450  11.817
13819W        W85348  33.923  20.732   4.255
13820W        W85349   4.640  25.464  11.153
13821W        W85350  14.706  30.023   1.996
13822W        W85351  22.215   4.912   2.610
13823W        W85352  23.229  19.682  14.350
13824W        W85353  40.000  10.777   0.724
13825W        W85354  35.438  19.195   4.594
13826W        W85355  12.658   5.140   2.666
13827W        W85356  20.271   9.362   3.698
13828W        W85357  34.909   1.586  13.848
13829W        W85358   4.349  10.413   3.084
13830W        W85359  25.513  14.393  12.396
13831W        W85360  39.821  20.072  10.850
13832W        W85361  20.585  32.131  11.259
13833W        W85362  25.858  41.994  12.110
13834W        W85363   4.433  19.592   1.491
13835W        W85364   2.897  40.890  13.824
13836W        W85365  37.399  19.505   1.772
13837W        W85366  30.490  38.217   2.372
13838W        W85367   0.013  12.178  13.895
13839W        W85368   2.409  42.725   0.704
13840W        W85369  43.080  13.338  13.243
13841W        W85370  26.495  25.943  12.489
13842W        W85371  16.303  39.077  10.642
13843W        W85372   5.288  28.155  12.674
13844W        W85373  37.612  24.153  11.223
13845W        W85374  29.355   1.032  10.052
13846W        W85375  14.576  39.380   0.657
13847W        W85376  18.713  42.162   4.190
13848W        W85377  15.446  10.061   3.665
13849W        W85378  16.173   2.568   4.082
13850W        W85379  25.188   0.464   4.644
13851W        W85380  19.017  25.461   0.923
13852W        W85381  16.612  19.267  13.411
13853W        W85382   9.082  14.502   3.060
13854W        W85383  37.509  18.513   2.646
13855W        W85384  41.381  23.718  12.501
13856W        W85385  40.392  23.591   0.520
13857W        W85386  32.731  21.715  12.888
13858W        W85387  15.997  20.062   1.827
13859W        W85388  34.380   4.910  14.422
13860W        W85389  35.174  18.034   2.676
13861W        W85390  41.611  35.407   2.709
13862W        W85391  21.235   9.957   2.810
13863W        W85392  27.093  24.075  11.992
13864W        W85393  22.354  27.098   3.224
13865W        W85394   8.341  27.566  10.846
13866W        W85395  23.554  13.747  10.668
13867W        W85396  12.157  44.612   3.268
13868W        W85397  38.983  10.684   3.214
13869W        W85398  37.549  40.771   2.388
13870W        W85399  18.306  23.772   4.112
13871W        W85400  30.981  19.228   4.041
13872W        W85401  43.994   7.171   0.067
13873W        W85402  13.694  13.895   2.323
13874W        W85403  30.490  43.355   3.525
13875W        W85404   4.776  17.054  13.052
13876W        W85405  13.851  41.093  12.992
13877W        W85406  43.439  17.139   1.784
13878W        W85407  39.844  35.765  13.454
13879W        W85408   3.810  25.714  14.558
13880W        W85409   1.678  25.555  12.375
13881W        W85410  30.501  43.697   2.501
13882W        W85411   8.873  41.509  11.673
13883W        W85412  19.847  35.151   4.713
13884W        W85413  13.215  42.822   0.131
13885W        W85414  32.706  24.502   0.863
13886W        W85415   1.777  28.240   2.424
13887W        W85416  20.182  22.888  11.370
13888W        W85417  41.144  37.542  10.033
13889W        W85418  17.582  18.124   2.765
13890W        W85419  36.069  35.890  12.498
13891W        W85420   3.568  39.223  14.308
13892W        W85421  24.165  16.439  10.867
13893W        W85422  43.395  12.569  13.383
13894W        W85423  28.649  44.946   4.559
13895W        W85424  43.117  36.946   4.705
13896W        W85425  10.116  13.797   3.695
13897W        W85426   6.916  39.093   4.502
13898W        W85427  36.272  36.481  12.889
13899W        W85428  22.181  31.086  14.600
13900W        W85429  41.984  33.608   0.531
13901W        W85430  17.098  38.900  13.499
13902W        W85431  24.299  31.789   3.501
13903W        W85432   3.197  21.121  13.273
13904W        W85433  30.137  42.353   0.296
13905W        W85434  19.769   4.211  13.982
13906W        W85435  23.205   2.913   4.949
13907W        W85436  31.655  41.551  11.981
13908W        W85437  16.995  33.429  14.902
13909W        W85438  19.287  29.951  12.534
13910W        W85439  27.720  23.023  13.239
13911W        W85440  35.174  20.183   3.109
13912W        W85441  24.970  41.947  13.387
13913W        W85442  40.008  36.994  13.316
13914W        W85443  15.674   6.870   4.611
13915W        W85444  28.477  30.440  10.807
13916W        W85445  31.794   1.733  14.429
13917W        W85446  28.361   9.702  14.016
13918W        W85447  15.178  19.350   0.419
13919W        W85448  42.362  40.032  12.871
13920W        W85449   0.471  12.303  12.432
13921W        W85450  44.863   1.415   2.619
13922W        W85451  11.566  31.554   2.779
13923W        W85452  19.731  32.515   2.502
13924W        W85453  15.385  20.468   4.156
13925W        W85454  42.117  29.964  13.611
13926W        W85455  42.708  19.601  12.854
13927W        W85456   3.458  44.390  14.380
13928W        W85457  41.315  22.539  14.913
13929W        W85458  17.474  39.087   4.853
13930W        W85459  20.533  30.492  12.010
13931W        W85460  24.298  31.669  11.113
13932W        W85461  38.926   0.717  11.224
13933W        W85462  26.176   6.391  14.468
13934W        W85463  12.735   9.021  13.168
13935W        W85464  18.311  32.527   2.150
13936W        W85465  23.172   2.035  13.361
13937W        W85466  43.930  16.757   3.875
13938W        W85467  29.970   2.714   0.964
13939W        W85468  28.426   0.842  12.558
13940W        W85469  35.431  44.716   2.848
13941W        W85470  37.359   1.244   4.154
13942W        W85471  10.824  33.211   0.994
13943W        W85472  42.029   5.731  10.735
13944W        W85473  40.376  20.718  14.475
13945W        W85474   4.994  33.075   4.188
13946W        W85475  44.617  23.007  12.064
13947W        W85476  35.550  42.548  13.370
13948W        W85477  37.883  14.662  13.954
13949W        W85478  21.042  29.734  12.467
13950W        W85479  17.619   9.345  12.031
13951W        W85480   9.134  18.133  10.641
13952W        W85481  12.849  22.163  12.041
13953W        W85482   2.106   6.277  10.211
13954W        W85483  27.637  28.940   1.055
13955W        W85484   9.250  15.405   5.015
13956W        W85485   0.765  15.657  13.647
13957W        W85486  39.409  43.064  10.959
13958W        W85487  28.011  23.964   0.905
13959W        W85488   1.463  23.457   0.229
13960W        W85489  25.965  19.276  13.386
13961W        W85490  32.247  40.497   5.040
13962W        W85491  33.712  39.047  13.752
13963W        W85492  26.526  38.657   1.921
13964W        W85493  42.806  23.891  12.160
13965W        W85494  33.803  43.347   4.184
13966W        W85495   7.208  21.786   4.212
13967W        W85496   9.702  17.805   4.642
13968W        W85497  25.756   1.346   4.798
13969W        W85498  32.215  15.638  10.502
13970W        W85499  26.251  33.982  14.031
13971W        W85500   8.142  40.888   4.545
13972W        W85501   8.008  42.057  11.393
13973W        W85502   0.335  41.375   1.545
13974W        W85503  28.512  18.555  14.403
13975W        W85504  38.595  32.097   0.472
13976W        W85505  18.612  30.294   4.026
13977W        W85506  28.322   9.488  10.115
13978W        W85507  39.659  17.106  12.030
13979W        W85508  42.439  35.531  13.115
13980W        W85509  27.098  13.362   2.424
13981W        W85510  42.404  31.903   4.328
13982W        W85511   5.958  35.585  14.365
13983W        W85512  44.174  24.600   1.827
13984W        W85513  31.864  30.474  11.810
13985W        W85514   6.958   3.212   4.401
13986W        W85515  11.847  20.736   4.716
13987W        W85516  43.810  38.926  13.007
13988W        W85517  19.246   4.767   2.827
13989W        W85518  14.827  22.172  13.035
13990W        W85519  10.782  43.960  11.655
13991W        W85520  40.470  13.705   1.663
13992W        W85521  39.119  39.405  11.570
13993W        W85522   6.512   2.671   1.428
13994W        W85523  21.888  13.982   3.357
13995W        W85524  17.504  32.480   1.182
13996W        W85525   3.191   9.239   4.750
13997W        W85526   4.867  30.884   2.832
13998W        W85527  32.865   3.703   2.638
13999W        W85528  40.878  35.738   2.639
14000W        W85529  33.201  13.667   4.961
14001W        W85530  14.852  24.128   2.339
14002W        W85531   9.631   3.372  13.270
14003W        W85532  21.109   6.461  13.472
14004W        W85533  37.016  12.663   2.236
14005W        W85534  40.122  28.048   2.394
14006W        W85535  32.432   5.627  13.983
14007W        W85536  21.327  36.949   9.772
14008W        W85537  44.562  21.817  13.445
14009W        W85538  30.151  17.190   2.608
14010W        W85539  16.818  16.289   2.849
14011W        W85540  40.621   5.762  10.952
14012W        W85541  34.197  33.379   2.866
14013W        W85542  34.387   3.272   0.695
14014W        W85543  28.979   8.911   1.299
14015W        W85544  34.354  34.562  13.178
14016W        W85545  23.651  27.451  11.956
14017W        W85546   3.215  18.110  14.512
14018W        W85547  30.922  23.598   1.713
14019W        W85548   0.170  16.782   3.288
14020W        W85549  10.346   9.803   1.429
14021W        W85550  28.752  19.749  12.562
14022W        W85551   7.724  12.173  14.938
14023W        W85552  10.692  28.193  11.879
14024W        W85553  43.724  18.827  13.439
14025W        W85554  10.080   9.809   3.098
14026W        W85555   8.063   0.893  13.614
14027W        W85556  16.316  23.496   4.483
14028W        W85557  15.711   0.259   0.445
14029W        W85558  36.455  31.695   2.284
14030W        W85559  31.831  37.136  11.090
14031W        W85560  12.770  39.009   5.341
14032W        W85561  11.810  24.447  14.650
14033W        W85562   5.096  14.243   4.692
14034W        W85563  15.189  27.663   0.394
14035W        W85564   2.832  14.133  12.590
14036W        W85565  17.336  21.989  12.126
14037W        W85566  39.599   1.544  14.644
14038W        W85567  19.769   4.581   3.642
14039W        W85568  17.939   5.021  11.630
14040W        W85569  22.168  31.946  11.752
14041W        W85570  34.441  36.562  12.505
14042W        W85571  20.157  33.403   4.530
14043W        W85572   3.459  18.318  10.341
14044W        W85573  31.971  24.064  12.181
14045W        W85574  32.118  15.817  13.051
14046W        W85575  31.558  43.998  13.528
14047W        W85576  14.608   6.234   4.024
14048W        W85577  29.499  14.938  14.867
14049W        W85578  41.083  18.394   1.268
14050W        W85579   9.870  31.591  12.780
14051W        W85580  17.386  14.158   1.562
14052W        W85581  19.075  16.233   3.352
14053W        W85582  13.147  26.094  14.029
14054W        W85583  41.241  30.955   2.162
14055W        W85584   5.269  40.318  12.087
14056W        W85585  41.925   8.846  10.779
14057W        W85586  18.747   6.432   3.034
14058W        W85587   4.673  20.286  10.866
14059W        W85588   4.395  27.085  13.256
14060W        W85589   7.318  26.442  10.638
14061W        W85590  31.409  15.010   0.678
14062W        W85591  22.549  36.019   0.770
14063W        W85592  28.567  28.919   2.888
14064W        W85593  36.276  38.611   1.688
14065W        W85594  23.583   8.781   1.249
14066W        W85595  21.929   9.942  14.681
14067W        W85596  44.950  43.644  14.696
14068W        W85597  20.696  36.117   3.315
14069W        W85598  32.259  28.884   1.735
14070W        W85599  13.943  44.574   2.284
14071W        W85600  40.245  16.795   0.401
14072W        W85601  33.862  25.688   0.089
14073W        W85602  35.406  32.613   0.263
14074W        W85603  30.045  32.336   3.514
14075W        W85604  18.565  17.442   4.109
14076W        W85605  35.338   3.274   3.132
14077W        W85606  37.451  21.577   1.800
14078W        W85607  20.328  11.589   4.657
14079W        W85608  43.106  15.141  13.898
14080W        W85609  35.802  19.541   3.581
14081W        W85610  35.011  13.856   4.560
14082W        W85611   3.007  19.751  11.225
14083W        W85612  38.408  12.165  12.202
14084W        W85613   2.720   1.399   0.482
14085W        W85614  11.392   1.951   1.777
14086W        W85615  30.168  25.014  12.385
14087W        W85616   4.294  34.123   4.551
14088W        W85617  34.962  27.638   3.409
14089W        W85618  18.814   4.411  10.999
14090W        W85619  44.515  43.965   4.810
14091W        W85620  38.294   4.701  11.654
14092W        W85621   1.858   3.176  11.693
14093W        W85622  40.562  39.497   3.352
14094W        W85623  29.312   7.889  11.652
14095W        W85624   3.329  22.742   2.148
14096W        W85625  25.284  30.410  11.587
14097W        W85626  43.235   0.750   1.889
14098W        W85627  41.810  16.950   1.634
14099W        W85628  34.537   2.327  12.503
14100W        W85629  40.871  24.490   2.199
14101W        W85630  40.855  12.377   4.566
14102W        W85631   6.878  30.070   3.367
14103W        W85632  12.086   7.670   0.548
14104W        W85633   1.441  35.410  14.405
14105W        W85634  16.349   0.704   3.239
14106W        W85635   1.908  11.585   1.948
14107W        W85636  37.791  41.318   1.653
14108W        W85637  28.253  34.429  14.334
14109W        W85638  42.453   2.932   2.585
14110W        W85639  40.231   4.814   3.216
14111W        W85640  42.834   0.437   0.704
14112W        W85641  15.123  23.635   2.253
14113W        W85642   8.195  18.062  14.474
14114W        W85643   5.285  40.180  11.171
14115W        W85644  35.655   6.300   3.445
14116W        W85645  23.612  23.948   1.240
14117W        W85646  40.811  19.142  14.910
14118W        W85647  17.114  18.505  10.269
14119W        W85648  26.884  40.976   1.892
14120W        W85649  43.475   3.060  11.069
14121W        W85650  15.556  31.020   1.053
14122W        W85651   5.741  12.704   2.269
14123W        W85652  36.342  13.398  14.454
14124W        W85653  26.140  17.286   0.735
14125W        W85654  26.528  38.328   3.334
14126W        W85655  38.873   5.896   4.698
14127W        W85656  14.872  35.976   3.453
14128W        W85657  43.912  35.169  12.935
14129W        W85658   3.214  33.891  14.825
14130W        W85659  32.788   3.338   4.586
14131W        W85660  33.557  29.287   1.990
14132W        W85661   1.819   5.059  14.423
14133W        W85662  12.255   2.012  14.334
14134W        W85663  14.566  40.305   4.577
14135W        W85664  36.859  12.221  14.004
14136W        W85665   2.994  32.402   2.168
14137W        W85666  20.729  32.432   2.963
14138W        W85667  29.602  38.819   0.885
14139W        W85668  17.032   6.319  14.097
14140W        W85669   9.842   5.195  13.318
14141W        W85670  26.722  39.971   2.567
14142W        W85671  30.536  41.551   4.017
14143W        W85672  39.098  14.755   0.788
14144W        W85673  41.826  35.889   2.810
14145W        W85674  31.153  20.124  13.002
14146W        W85675   3.911  42.874  12.764
14147W        W85676  44.387  40.077  14.378
14148W        W85677  14.410  30.395   0.697
14149W        W85678  39.039  35.105   2.832
14150W        W85679  24.785  27.093   4.273
14151W        W85680  18.997   6.923   1.872
14152W        W85681  18.465  16.912   4.089
14153W        W85682   5.505  17.336  10.296
14154W        W85683  21.251  32.201   4.307
14155W        W85684  35.834  29.202  14.688
14156W        W85685  25.238  43.134  12.325
14157W        W85686   1.598  35.919   3.077
14158W        W85687   1.677  41.066  14.734
14159W        W85688  28.765   3.372   2.372
14160W        W85689   9.750  19.519  14.067
14161W        W85690  11.368  35.328   3.154
14162W        W85691  20.735  29.557  12.094
14163W        W85692  17.160  33.097  14.476
14164W        W85693  30.012  15.312   0.917
14165W        W85694  32.934  34.870  10.624
14166W        W85695  29.362   5.084   4.516
14167W        W85696  38.479  36.143   1.228
14168W        W85697   5.832   8.649  12.863
14169W        W85698  32.065  19.042  12.437
14170W        W85699  20.053   9.711   0.076
14171W        W85700  22.077  36.288  14.944
14172W        W85701   9.801   1.944  14.823
14173W        W85702   6.005   7.597  14.347
14174W        W85703  29.107  11.369   1.232
14175W        W85704   1.482   4.170   4.057
14176W        W85705  18.163  44.801   3.514
14177W        W85706  36.473   1.431  11.758
14178W        W85707   1.059  27.890  14.923
14179W        W85708  41.188   0.570  14.414
14180W        W85709  43.854   9.811   2.828
14181W        W85710  33.494   2.153   1.138
14182W        W85711  39.382  16.175   0.258
14183W        W85712  42.556  40.521  14.437
14184W        W85713  23.715  23.046   2.331
14185W        W85714  30.972  12.327  12.692
14186W        W85715  22.001   2.379   3.829
14187W        W85716   3.259  14.173   3.105
14188W        W85717   2.228  36.380  14.888
14189W        W85718  24.661  20.275  10.579
14190W        W85719  25.755  12.338   1.690
14191W        W85720  31.721  10.098   2.190
14192W        W85721  14.072  24.419  10.936
14193W        W85722  28.822  42.318   3.849
14194W        W85723  41.262   3.888   0.879
14195W        W85724  12.834   2.786  14.757
14196W        W85725  44.909  22.177   4.644
14197W        W85726  26.419  24.289   5.145
14198W        W85727  21.038  14.101   4.385
14199W        W85728  33.993  22.546   2.275
14200W        W85729   3.640   3.356   3.364
14201W        W85730  26.086   0.294   2.688
14202W        W85731  24.708  18.985  14.303
14203W        W85732  33.293  13.771  14.504
14204W        W85733  25.799  42.704  12.036
14205W        W85734  26.482   9.654  14.319
14206W        W85735  33.696  14.814   1.963
14207W        W85736  42.338  30.154  12.845
14208W        W85737  18.525  35.186  13.271
14209W        W85738  14.181  43.356  13.944
14210W        W85739  10.464  28.905   2.408
14211W        W85740  31.535  27.184  11.876
14212W        W85741  12.373  12.293   0.263
14213W        W85742  20.950  37.186  10.062
14214W        W85743  19.176  16.268   1.248
14215W        W85744   1.618  19.202   2.181
14216W        W85745  19.367  37.347  11.463
14217W        W85746   1.141  36.502   4.149
14218W        W85747  38.253  25.858  13.049
14219W        W85748   5.521  28.128  14.163
14220W        W85749  30.338  14.217  14.374
14221W        W85750  34.432  16.251   3.418
14222W        W85751  11.056  31.852  14.813
14223W        W85752   9.121  35.020  13.503
14224W        W85753  27.621  30.800   4.174
14225W        W85754   4.087  22.552   2.572
14226W        W85755  40.422  18.254  11.466
14227W        W85756  28.950  22.222   2.737
14228W        W85757  41.648  44.507   0.264
14229W        W85758  19.475   6.209  12.075
14230W        W85759  34.077  29.159   3.609
14231W        W85760  37.219   3.886   1.886
14232W        W85761  14.836  16.195  12.810
14233W        W85762  15.134  33.027   0.720
14234W        W85763  11.323  41.038  14.930
14235W        W85764  17.155  14.636   0.682
14236W        W85765  44.609   7.497  12.316
14237W        W85766  41.950   3.076   2.553
14238W        W85767  39.561  19.043   4.731
14239W        W85768  37.456  18.690  11.714
14240W        W85769   3.798  41.832   0.984
14241W        W85770  11.385  12.064   3.600
14242W        W85771  16.222  15.025   4.862
14243W        W85772  16.809  18.571  12.980
14244W        W85773   7.519   9.099  11.602
14245W        W85774  43.235   4.499  10.989
14246W        W85775  42.535  21.763   3.650
14247W        W85776  29.337   0.797  11.366
14248W        W85777  36.105   5.701  11.048
14249W        W85778  17.575   6.312  12.988
14250W        W85779  16.846  16.205   2.034
14251W        W85780  41.057   3.891  10.875
14252W        W85781  37.101  42.369  14.858
14253W        W85782  21.448  29.307  13.806
14254W        W85783  19.526  19.097  12.892
14255W        W85784  38.891  35.012  14.368
14256W        W85785  31.665  28.186   9.997
14257W        W85786   7.433  22.087   1.416
14258W        W85787   5.849  21.708   4.184
14259W        W85788   5.158  32.636  14.012
14260W        W85789  41.136  14.373   1.700
14261W        W85790  28.269  10.054  11.346
14262W        W85791   6.771  39.330  12.944
14263W        W85792  28.207  42.968  11.447
14264W        W85793  28.750   2.933   4.530
14265W        W85794  22.583  27.588   1.647
14266W        W85795  37.137  15.158   3.039
14267W        W85796  13.860  17.639   2.901
14268W        W85797  36.474   9.577  14.356
14269W        W85798  17.572  13.406  12.212
14270W        W85799  44.948   8.907  14.711
14271W        W85800  22.904  11.852  13.386
14272W        W85801  32.417  40.805   0.205
14273W        W85802  42.232   2.393  12.430
14274W        W85803  15.572  37.740   2.740
14275W        W85804  28.866  35.028   1.332
14276W        W85805  41.774  28.825  12.799
14277W        W85806  43.882  42.967   1.726
14278W        W85807  12.187  10.672  14.833
14279W        W85808  40.276  11.685   4.150
14280W        W85809   4.261  27.310  10.568
14281W        W85810  29.156   0.334   0.384
14282W        W85811  39.490  30.012   1.157
14283W        W85812  44.871  31.114   0.094
14284W        W85813  15.098  12.352  13.332
14285W        W85814  13.658  13.338  10.779
14286W        W85815  34.474   1.739   3.522
14287W        W85816  23.231   5.634   3.095
14288W        W85817  15.436  43.991  13.190
14289W        W85818  30.914  31.761  10.237
14290W        W85819  21.087  10.829  14.060
14291W        W85820  25.649  19.567   4.232
14292W        W85821  42.379  14.826  12.912
14293W        W85822  12.836  34.381  13.465
14294W        W85823  30.591   1.682   1.499
14295W        W85824  33.782  31.606   1.821
14296W        W85825   5.758  16.947  11.560
14297W        W85826  36.528  29.155  12.063
14298W        W85827  35.078  28.175  11.308
14299W        W85828  23.186  22.134  13.107
14300W        W85829  17.515  40.581  11.067
14301W        W85830   1.937   0.493  13.959
14302W        W85831   6.783   7.649   1.781
14303W        W85832  14.135  41.562   1.301
14304W        W85833  32.205  15.225   5.316
14305W        W85834  17.524  26.645   5.018
14306W        W85835   4.073  18.446   4.531
14307W        W85836  29.177  22.739   0.328
14308W        W85837  37.985  28.279  10.605
14309W        W85838  28.455  24.160   4.775
14310W        W85839  16.073  11.535  13.455
14311W        W85840   0.000  14.713   3.776
14312W        W85841  35.103   0.523  13.089
14313W        W85842   8.077  43.924   0.383
14314W        W85843   2.689  28.354  11.208
14315W        W85844  36.065  22.805   1.433
14316W        W85845  18.520  31.437   1.756
14317W        W85846  20.198  13.664   2.905
14318W        W85847  34.811  33.537   3.687
14319W        W85848  41.279  35.559  11.126
14320W        W85849  44.178  20.268   4.061
14321W        W85850  13.238   3.469  13.993
14322W        W85851  41.520  41.006   0.366
14323W        W85852   6.713  10.921   1.240
14324W        W85853  18.475  33.271   3.673
14325W        W85854  38.532  44.420  14.745
14326W        W85855  29.475  26.197  10.654
14327W        W85856   4.800  13.132   2.224
14328W        W85857  11.596  36.521   4.157
14329W        W85858  23.408  44.010  13.722
14330W        W85859   1.121  14.684   4.461
14331W        W85860   9.611  34.798  14.339
14332W        W85861  38.523   7.910  11.555
14333W        W85862  38.283  14.662   1.195
14334W        W85863   3.595  31.504   3.812
14335W        W85864  18.510  19.025  10.505
14336W        W85865  36.773  28.355   1.759
14337W        W85866   8.404   3.889  14.768
14338W        W85867  39.937   6.449  10.917
14339W        W85868  26.735  18.462   1.186
14340W        W85869   5.301  34.031  14.473
14341W        W85870  39.227   2.412  12.084
14342W        W85871  10.607   8.161  13.034
14343W        W85872   2.829  25.888  14.226
14344W        W85873   5.852  13.367  11.061
14345W        W85874  27.728  43.264  12.212
14346W        W85875  18.379  35.953   0.466
14347W        W85876  28.825  31.648  10.317
14348W        W85877  20.159   9.920  13.514
14349W        W85878  11.292  31.698  14.368
14350W        W85879  28.201  36.943   4.645
14351W        W85880   2.407  12.069   1.411
14352W        W85881  10.144  29.682   1.036
14353W        W85882   0.906  44.589   1.204
14354W        W85883  17.521   1.632  12.557
14355W        W85884  11.264  37.370  11.201
14356W        W85885  36.099  44.794   4.026
14357W        W85886  23.835  15.075  14.844
14358W        W85887  21.000  41.917   1.721
14359W        W85888  11.010  42.322  13.123
14360W        W85889  18.169  21.961  13.936
14361W        W85890  22.905  29.144  10.761
14362W        W85891   3.238  29.469   1.390
14363W        W85892  15.678  31.446   4.188
14364W        W85893  34.791  23.573  13.881
14365W        W85894  10.732   8.896   0.353
14366W        W85895  14.212  14.334   4.722
14367W        W85896  19.650   3.435  12.513
14368W        W85897  18.128  21.205   2.838
14369W        W85898   6.754   7.672   3.637
14370W        W85899  27.161  27.686  11.221
14371W        W85900  27.114  11.802   3.712
14372W        W85901  34.471  39.479   1.605
14373W        W85902   1.838  33.324   2.171
14374W        W85903  14.682  19.000   4.652
14375W        W85904  38.579  36.878  13.066
14376W        W85905  19.649   6.860   2.479
14377W        W85906  42.572   1.327  14.883
14378W        W85907  19.493  29.206   3.261
14379W        W85908  20.000   5.103  11.627
14380W        W85909   7.665  26.443   0.465
14381W        W85910  22.156  17.060   3.328
14382W        W85911   2.118   1.266   2.719
14383W        W85912  31.014  11.359   0.666
14384W        W85913   5.762  24.903   2.755
14385W        W85914  42.519  12.435   1.033
14386W        W85915  18.459  10.659   3.422
14387W        W85916  17.129  30.705  14.452
14388W        W85917  26.522  16.244   3.580
14389W        W85918  11.845  33.588  11.111
14390W        W85919  14.592  28.447   3.293
14391W        W85920  11.648  13.899   4.629
14392W        W85921  36.439  27.611   0.397
14393W        W85922  23.895  42.181   5.019
14394W        W85923  39.275  32.420   2.258
14395W        W85924  10.284  15.588  12.318
14396W        W85925  40.348  23.794   0.055
14397W        W85926   5.596   1.907   3.231
14398W        W85927  32.096  10.113   2.537
14399W        W85928  17.577  29.073  12.063
14400W        W85929   2.465  30.927  14.592
14401W        W85930  41.548  13.427  10.946
14402W        W85931   2.448  18.377   2.353
14403W        W85932  22.011  24.424   4.809
14404W        W85933  12.402   8.185   1.612
14405W        W85934   3.732  29.018   4.710
14406W        W85935  39.866  34.864  13.130
14407W        W85936  39.055  25.788   4.174
14408W        W85937  15.808  18.094   4.317
14409W        W85938   5.078  27.918  11.633
14410W        W85939   2.903  22.646  11.673
14411W        W85940  26.755  10.319   0.726
14412W        W85941  29.617  44.020  11.590
14413W        W85942  16.877  20.545  14.996
14414W        W85943  37.550  38.791  11.595
14415W        W85944  43.101  32.369   4.445
14416W        W85945  42.097  12.869   0.251
14417W        W85946   5.027   7.696   2.126
14418W        W85947  14.670  34.160   3.598
14419W        W85948  11.767  32.889  13.262
14420W        W85949  38.176   3.804   3.698
14421W        W85950  40.966   9.681  13.805
14422W        W85951  22.804   3.427  12.888
14423W        W85952  43.347  30.834   1.348
14424W        W85953  19.584  44.238   3.396
14425W        W85954   7.916   9.402  11.549
14426W        W85955  34.546  35.634  11.680
14427W        W85956   2.475  30.706  12.780
14428W        W85957  11.279  17.060   3.624
14429W        W85958  39.831   0.188   4.832
14430W        W85959  11.893  10.553   5.080
14431W        W85960  13.409  14.129   3.654
14432W        W85961  41.970  36.593   0.787
14433W        W85962  40.799  38.825   3.843
14434W        W85963  24.158  28.907  13.769
14435W        W85964   6.422   6.349  13.369
14436W        W85965  41.977  40.045   4.871
14437W        W85966  44.378  13.225  13.416
14438W        W85967  39.606  30.637   4.519
14439W        W85968   6.146  11.738  12.878
14440W        W85969   0.707  32.179  13.395
14441W        W85970   8.192   1.256   4.709
14442W        W85971   7.170  15.146   4.475
14443W        W85972  22.605  41.867   3.806
14444W        W85973  24.449  29.666  14.396
14445W        W85974  42.703  37.412   5.042
14446W        W85975   0.375  43.715  12.645
14447W        W85976  17.109  33.985  14.805
14448W        W85977  43.256   7.452  12.991
14449W        W85978  37.783   3.414  14.016
14450W        W85979  11.429  17.734   0.242
14451W        W85980  43.685   6.796  14.304
14452W        W85981  38.307  19.602  14.302
14453W        W85982   6.915  35.091  11.580
14454W        W85983  22.594  19.793   4.003
14455W        W85984  35.856  25.464  14.128
14456W        W85985  22.734   0.273   1.208
14457W        W85986   8.326  36.465  10.661
14458W        W85987  23.814  31.344   0.910
14459W        W85988   5.474   9.718   2.302
14460W        W85989  16.712   7.463  11.221
14461W        W85990  18.635  32.100  13.120
14462W        W85991  42.163  37.408  13.235
14463W        W85992  33.691  22.104   2.433
14464W        W85993  35.773  38.790   4.041
14465W        W85994  23.985  11.372  10.402
14466W        W85995  22.768  32.824   2.688
14467W        W85996  20.198  37.544   1.218
14468W        W85997  15.618  27.672   3.709
14469W        W85998  24.577  36.505   0.723
14470W        W85999  34.712  32.151   4.231
14471W        W86000  40.235   8.641   4.058
14472W        W86001  17.860  41.056  11.815
14473W        W86002  18.622  42.540  11.559
14474W        W86003   4.974   5.366   4.561
14475W        W86004  11.474  14.030   3.610
14476W        W86005  33.592   5.815   0.015
14477W        W86006  10.237   9.151   3.671
14478W        W86007  43.518  13.252   0.808
14479W        W86008  35.456  42.914   4.519
14480W        W86009  33.859  15.293  10.563
14481W        W86010  27.908   3.340   0.699
14482W        W86011   7.586   2.402  11.883
14483W        W86012  30.131  40.086  13.799
14484W        W86013  43.874  22.447  14.758
14485W        W86014  28.426  36.533  14.209
14486W        W86015   4.668  37.624  10.791
14487W        W86016  29.202  25.502   3.668
14488W        W86017  44.259  36.479  12.595
14489W        W86018  40.467  25.418  10.799
14490W        W86019  12.648  18.579  13.901
14491W        W86020  11.884   7.312   0.883
14492W        W86021   1.203  18.719   1.968
14493W        W86022  39.075   4.565  13.731
14494W        W86023  38.335  19.642  13.357
14495W        W86024  24.724  30.238   0.917
14496W        W86025  38.625   1.720  13.105
14497W        W86026  42.320   0.310   0.754
14498W        W86027  12.419  17.050  13.388
14499W        W86028  24.016   9.180  13.123
14500W        W86029  44.057  38.447  14.773
14501W        W86030  29.987   8.159   0.751
14502W        W86031  29.362  13.549  13.864
14503W        W86032  16.137  44.347  12.486
14504W        W86033  18.107   4.284  14.241
14505W        W86034  33.848   1.050  12.926
14506W        W86035  34.977   1.477  11.479
14507W        W86036  10.917  13.339  14.967
14508W        W86037  16.259  44.914  14.338
14509W        W86038  19.794  44.809  13.342
14510W        W86039  15.234  16.594   0.263
14511W        W86040  42.301  18.443   2.402
14512W        W86041  19.500  40.887   1.001
14513W        W86042  27.233  37.584   1.790
14514W        W86043  17.392  17.505  12.665
14515W        W86044  18.124  35.467   4.536
14516W        W86045  16.627  10.334   2.318
14517W        W86046  22.748   1.958   1.763
14518W        W86047  40.308  38.926  13.354
14519W        W86048  36.064  43.474   4.902
14520W        W86049  20.946  44.030  14.332
14521W        W86050   6.646   5.822  13.479
14522W        W86051  10.084  23.872   3.365
14523W        W86052  24.036   5.554   0.332
14524W        W86053  17.265  19.813   0.941
14525W        W86054  25.033  37.429  10.954
14526W        W86055  28.167  14.801   2.865
14527W        W86056  44.842   7.785   4.608
14528W        W86057   1.370   1.813  11.709
14529W        W86058  14.862  19.704  11.982
14530W        W86059  13.656  36.909   3.608
14531W        W86060  13.795  39.866  11.752
14532W        W86061  21.556  12.748   1.239
14533W        W86062  42.985   5.739  13.455
14534W        W86063   8.135   4.404   3.223
14535W        W86064  34.070  39.773   0.654
14536W        W86065   9.291  18.140   4.595
14537W        W86066  44.369  25.730  11.664
14538W        W86067   9.297   7.313   3.658
14539W        W86068  31.366  21.924  12.055
14540W        W86069   6.341  18.819  12.388
14541W        W86070  22.112  25.635   0.737
14542W        W86071  17.694  22.492  11.699
14543W        W86072  38.786  21.158  12.818
14544W        W86073   3.963   0.491   4.515
14545W        W86074  26.689  28.309  12.978
14546W        W86075  18.775  30.924   2.624
14547W        W86076  39.854  39.396   1.634
14548W        W86077  33.727  20.778  13.599
14549W        W86078  33.883  20.097  12.009
14550W        W86079  33.791  17.559   2.464
14551W        W86080  11.628  22.051   3.773
14552W        W86081  37.254  13.218  14.625
14553W        W86082  39.446  43.110  13.756
14554W        W86083  11.880  11.891   1.959
14555W        W86084  31.664  19.989   4.361
14556W        W86085   5.116  14.521  12.320
14557W        W86086  35.030  36.931   1.706
14558W        W86087  22.683   6.665   2.696
14559W        W86088  15.779  18.849   1.982
14560W        W86089  29.391  16.657  14.412
14561W        W86090  34.721  38.246  12.416
14562W        W86091   1.073  18.331  13.893
14563W        W86092  44.925  42.222   4.493
14564W        W86093  34.115   1.446   2.586
14565W        W86094  43.251  27.575  14.315
14566W        W86095   9.213  41.314   3.786
14567W        W86096  11.535   2.417   2.141
14568W        W86097  33.909  39.012  10.630
14569W        W86098  19.048  16.599  10.383
14570W        W86099  12.206  20.282   2.507
14571W        W86100  30.166  37.824  14.059
14572W        W86101  29.188  42.295  12.061
14573W        W86102   6.886   2.395   3.219
14574W        W86103  30.484  18.886   2.714
14575W        W86104  28.879  18.694   4.413
14576W        W86105  38.330  44.780   0.366
14577W        W86106   4.459  39.634  14.361
14578W        W86107  21.287  30.929  14.571
14579W        W86108  34.390  17.679   3.081
14580W        W86109  42.856  17.984   0.424
14581W        W86110  10.627  41.986   2.262
14582W        W86111  42.838  14.720   0.307
14583W        W86112  13.148  33.948   4.616
14584W        W86113  23.098  18.734   4.097
14585W        W86114  17.145  25.645  12.982
14586W        W86115  28.506  43.092   4.192
14587W        W86116  43.422   8.872  12.147
14588W        W86117  28.759   5.202   1.668
14589W        W86118   9.708  23.300  14.450
14590W        W86119  10.676   1.301  13.495
14591W        W86120  27.177  25.550   0.543
14592W        W86121  42.716  40.373   3.090
14593W        W86122   3.299  43.529   1.790
14594W        W86123  21.253  31.076  12.929
14595W        W86124   3.540  32.048   1.377
14596W        W86125  36.882  41.255  10.666
14597W        W86126   5.144  22.191  12.956
14598W        W86127   2.856  29.177   4.097
14599W        W86128   1.774  42.285  14.040
14600W        W86129  34.209  24.236   2.237
14601W        W86130  15.682  38.273   2.782
14602W        W86131  41.787  38.641  13.530
14603W        W86132   4.946  28.813   3.854
14604W        W86133   9.601  41.314   2.921
14605W        W86134  24.060  22.272  12.174
14606W        W86135  18.657  43.578   4.653
14607W        W86136  17.777   7.236  13.941
14608W        W86137  14.238  23.133   4.638
14609W        W86138  19.608  26.476   0.065
14610W        W86139  39.547  43.513   1.846
14611W        W86140  25.655  40.149   4.264
14612W        W86141  33.819  33.914   0.647
14613W        W86142  32.656  22.124  14.748
14614W        W86143  13.811  32.046  13.283
14615W        W86144  24.645   1.815  14.312
14616W        W86145   6.079  37.238  14.308
14617W        W86146  31.161  19.590  14.328
14618W        W86147  24.180  34.274   4.509
14619W        W86148  35.083  34.080   1.084
14620W        W86149   0.463  44.735  11.787
14621W        W86150  19.251  38.347  11.067
14622W        W86151  44.380  31.647  12.116
14623W        W86152   9.675  34.735  11.072
14624W        W86153  14.140   2.826  14.483
14625W        W86154  22.263  20.572  13.481
14626W        W86155  31.646   5.041  10.222
14627W        W86156   0.015  27.863  14.871
14628W        W86157  32.837   5.058   3.675
14629W        W86158  33.880   2.774   3.131
14630W        W86159  35.056  44.398   1.793
14631W        W86160  19.608  41.290   0.290
14632W        W86161   4.677  25.526  14.270
14633W        W86162  23.101  25.989   3.362
14634W        W86163  22.285  41.810  10.955
14635W        W86164  13.608   9.806   4.253
14636W        W86165  33.539  23.664  10.310
14637W        W86166  18.628  39.843  14.823
14638W        W86167  35.677  16.151   0.774
14639W        W86168   3.414  35.461   3.660
14640W        W86169  17.667  26.576  13.344
14641W        W86170  32.109  32.995  11.969
14642W        W86171  20.778  36.106  11.222
14643W        W86172  44.925   8.398   0.671
14644W        W86173  15.674  31.269  11.375
14645W        W86174  18.599   4.150  14.219
14646W        W86175  32.885  19.614   1.850
14647W        W86176  17.100  42.477   4.082
14648W        W86177   0.094   0.483  13.912
14649W        W86178  16.795  43.247   4.360
14650W        W86179  37.537   0.758   0.280
14651W        W86180  34.131  22.061  13.443
14652W        W86181  44.332  39.373   2.245
14653W        W86182   0.992  12.854   0.940
14654W        W86183  22.693   5.792   1.915
14655W        W86184  18.391  36.242   2.321
14656W        W86185  37.479  30.073  10.616
14657W        W86186  42.396  14.260   2.362
14658W        W86187  13.424   9.330  14.883
14659W        W86188  21.616  35.150   1.227
14660W        W86189  40.096  32.490   2.174
14661W        W86190  32.597  11.176   2.997
14662W        W86191   1.202  20.986   2.550
14663W        W86192   1.470  34.900  11.879
14664W        W86193  27.534  16.299  13.441
14665W        W86194  13.183  21.958  10.941
14666W        W86195  17.798  21.707  12.480
14667W        W86196  29.541  26.428  11.103
14668W        W86197  35.613  19.772  11.061
14669W        W86198   7.855  11.753   0.200
14670W        W86199  27.915  10.816   2.365
14671W        W86200  38.386  42.754   0.313
14672W        W86201  29.403  15.708   3.220
14673W        W86202  23.226  29.951   3.124
14674W        W86203   1.507  44.388  13.119
14675W        W86204  39.851  43.304   3.796
14676W        W86205  15.259  15.517   3.814
14677W        W86206  37.147   0.817   3.161
14678W        W86207  25.336  14.912   2.840
14679W        W86208  38.114  24.754   2.276
14680W        W86209  18.576  39.331   3.704
14681W        W86210   8.236  33.321  12.540
14682W        W86211  17.629  19.944  12.409
14683W        W86212  28.169  14.249   4.104
14684W        W86213  18.687   4.956   1.760
14685W        W86214  25.661  14.045   0.504
14686W        W86215  24.079  20.584   4.317
14687W        W86216  15.323  21.098  12.546
14688W        W86217   8.643   0.286  11.159
14689W        W86218  29.632   6.806  13.050
14690W        W86219  36.839  43.746  12.436
14691W        W86220  18.931  25.730   0.423
14692W        W86221  28.164  31.068  10.546
14693W        W86222  43.707  43.317  12.517
14694W        W86223  39.473  38.517   3.777
14695W        W86224  30.680  27.557  11.854
14696W        W86225   7.354  11.821   2.498
14697W        W86226  33.067   0.756  12.395
14698W        W86227  30.215   7.897   4.738
14699W        W86228   9.271   0.453  11.943
14700W        W86229  36.808   6.839   0.851
14701W        W86230   1.356  30.565  12.526
14702W        W86231  33.377   1.278  12.975
14703W        W86232  44.741  10.198   0.448
14704W        W86233  16.616  12.116   0.804
14705W        W86234   1.679  39.067  14.875
14706W        W86235  42.034  43.298   2.631
14707W        W86236  19.557  33.040  12.452
14708W        W86237   1.847  22.012  12.499
14709W        W86238   2.966   2.408   4.182
14710W        W86239   3.364   8.233   4.649
14711W        W86240  35.898  29.106   0.184
14712W        W86241  12.291  10.333  12.816
14713W        W86242  30.090  23.443  14.034
14714W        W86243  12.686  30.863  12.190
14715W        W86244  39.887  27.985  13.574
14716W        W86245   7.405   4.423  14.028
14717W        W86246  12.330  24.585  11.531
14718W        W86247   6.974  17.529  14.726
14719W        W86248  17.123   2.807   1.667
14720W        W86249   3.051  36.690   0.755
14721W        W86250  12.341   4.920  10.595
14722W        W86251   7.315  20.111  11.872
14723W        W86252  39.720  26.092  13.905
14724W        W86253  19.993  25.715  11.998
14725W        W86254  39.030  21.587   1.756
14726W        W86255  10.724  10.712  11.992
14727W        W86256   0.380  42.834  10.485
14728W        W86257  42.212  31.800   0.731
14729W        W86258  34.626  39.003   1.201
14730W        W86259  10.704  41.505   2.080
14731W        W86260   5.844  17.644   0.372
14732W        W86261  18.695  33.719   3.926
14733W        W86262  14.212  30.838   3.661
14734W        W86263  17.084   4.211  13.057
14735W        W86264   4.011   2.292   1.696
14736W        W86265   1.869  44.542  10.843
14737W        W86266  18.167  21.955  13.087
14738W        W86267  21.644  12.782   3.697
14739W        W86268  34.888  37.850   4.666
14740W        W86269  32.441  38.386  10.927
14741W        W86270  32.630  37.549   2.818
14742W        W86271   7.977   4.213   2.778
14743W        W86272  38.438  26.477   0.915
14744W        W86273   0.501   6.437   0.002
14745W        W86274  17.866  38.593  12.458
14746W        W86275  34.561   0.313   1.172
14747W        W86276  29.990  28.958   0.902
14748W        W86277  38.447   0.087  10.629
14749W        W86278  37.885   6.917  13.005
14750W        W86279  38.422  21.016  12.435
14751W        W86280  21.159  25.355  12.384
14752W        W86281  29.256   4.748  14.913
14753W        W86282  38.539  20.601   2.318
14754W        W86283   5.111   0.635   2.252
14755W        W86284  34.841   4.963   1.703
14756W        W86285  44.455  26.698  11.493
14757W        W86286  42.813   2.248  11.148
14758W        W86287  42.957  12.865  14.317
14759W        W86288  44.462  27.511   3.838
14760W        W86289  35.624  41.383  13.860
14761W        W86290  23.057  19.232   0.187
14762W        W86291   5.120  26.696   3.702
14763W        W86292  13.796  42.546  13.566
14764W        W86293  23.570   4.732  11.569
14765W        W86294  29.676   7.174  10.810
14766W        W86295  29.371  38.649  11.458
14767W        W86296   9.531  32.708  11.219
14768W        W86297  32.065   9.474   4.296
14769W        W86298  25.892  10.816  13.902
14770W        W86299  41.744  36.939  10.645
14771W        W86300  41.021  21.159  10.651
14772W        W86301   3.749  34.759  12.876
14773W        W86302   0.487  32.851   0.843
14774W        W86303  37.908  44.416   2.375
14775W        W86304   5.367  37.792   3.115
14776W        W86305  39.873  32.032   1.346
14777W        W86306  24.921  33.027   3.150
14778W        W86307  28.053   5.138  14.410
14779W        W86308  19.809  22.547  11.220
14780W        W86309  41.536  19.681  13.994
14781W        W86310  18.846  29.961  11.561
14782W        W86311  38.128  19.465   5.086
14783W        W86312  30.498  36.248  13.298
14784W        W86313  14.443  21.447  12.582
14785W        W86314  28.936  35.024   0.415
14786W        W86315  32.168  12.350  10.737
14787W        W86316   4.667  15.653   0.271
14788W        W86317  38.816  43.020   2.192
14789W        W86318  10.104  35.854   1.197
14790W        W86319  18.039  17.754  14.048
14791W        W86320  19.031  32.987   4.183
14792W        W86321  37.473  17.529   0.329
14793W        W86322  26.597  41.720   2.410
14794W        W86323  37.176  19.281   2.236
14795W        W86324  40.138   2.255   2.794
14796W        W86325  33.630  17.380  10.722
14797W        W86326  27.447  34.805   1.739
14798W        W86327  23.732  28.165  12.571
14799W        W86328   0.475  28.034   0.796
14800W        W86329  24.925  39.828  10.768
14801W        W86330  18.113  35.142  12.961
14802W        W86331  24.912   7.365  12.424
14803W        W86332  20.375  35.622   0.496
14804W        W86333   2.645  35.840   0.771
14805W        W86334  17.667   5.103   0.861
14806W        W86335  20.240   2.950   4.050
14807W        W86336  23.541  36.360   3.239
14808W        W86337  37.206   4.231  11.954
14809W        W86338   9.727   1.328   1.387
14810W        W86339  24.139   0.655  12.890
14811W        W86340  36.211  27.361   1.065
14812W        W86341   2.730  14.782   3.638
14813W        W86342   8.611  40.321  12.686
14814W        W86343   3.673  39.374  13.634
14815W        W86344  34.909  44.733  10.654
14816W        W86345   9.662  14.139  11.095
14817W        W86346  29.172  21.861  10.628
14818W        W86347   3.363  17.481   2.088
14819W        W86348  10.897  41.724  12.891
14820W        W86349  14.766  28.118  13.549
14821W        W86350  39.474  38.012   3.725
14822W        W86351   0.421  39.118  10.707
14823W        W86352   8.984  33.710   1.306
14824W        W86353   8.669  41.816   2.222
14825W        W86354  31.348  26.128   1.409
14826W        W86355  42.685  21.253   1.367
14827W        W86356  32.246   9.174   2.210
14828W        W86357  36.217  44.836   3.153
14829W        W86358  22.406   0.940  11.260
14830W        W86359   6.204   8.050  13.831
14831W        W86360  31.417  28.753  11.277
14832W        W86361  15.795  21.341  14.679
14833W        W86362  11.166  18.593  14.478
14834W        W86363  37.564   2.655   4.117
14835W        W86364  24.473  26.763   4.042
14836W        W86365   7.694  37.353  10.770
14837W        W86366   8.135  35.996   4.615
14838W        W86367  10.823  20.987   1.379
14839W        W86368  39.968  36.862   0.458
14840W        W86369   0.258  21.794  11.955
14841W        W86370   7.543  35.835  13.519
14842W        W86371  36.856  17.100  10.592
14843W        W86372  33.118  35.363   2.323
14844W        W86373  17.482  10.076  11.527
14845W        W86374  34.368  33.422  13.406
14846W        W86375  26.756  42.723   2.816
14847W        W86376  42.270   1.503  11.538
14848W        W86377  21.009  21.085   1.622
14849W        W86378  26.826  33.274  14.609
14850W        W86379  18.660  33.547   1.324
14851W        W86380  37.003   7.757   4.139
14852W        W86381  35.550   0.835   4.702
14853W        W86382  27.464  11.657  14.291
14854W        W86383   8.135  40.034  12.673
14855W        W86384  32.075  12.710   0.375
14856W        W86385  35.386  39.531   3.381
14857W        W86386   1.049   6.468  14.972
14858W        W86387  43.610  26.627   4.793
14859W        W86388   2.567  32.464   4.301
14860W        W86389  10.666  16.052  13.438
14861W        W86390  29.915   9.272  13.381
14862W        W86391  36.616  34.577  10.845
14863W        W86392  36.096  30.436   2.552
14864W        W86393  40.441  39.967   2.121
14865W        W86394  12.403  20.234   0.786
14866W        W86395  43.326  11.448  11.717
14867W        W86396  15.351  25.182  14.772
14868W        W86397  25.500   0.765   1.277
14869W        W86398  21.617   6.669  14.555
14870W        W86399   6.333  41.565   5.086
14871W        W86400  14.684  19.198   0.652
14872W        W86401  10.928  11.705  10.607
14873W        W86402  32.959  14.299   3.032
14874W        W86403   7.649   7.358   2.257
14875W        W86404   4.959  14.444  14.500
14876W        W86405  21.222  28.354   5.206
14877W        W86406  20.557  32.836  12.399
14878W        W86407  20.729  27.495  12.909
14879W        W86408  28.742  17.920  12.437
14880W        W86409  17.362  27.432  13.781
14881W        W86410  25.027  17.300   2.729
14882W        W86411  30.665   7.986   3.140
14883W        W86412  40.306  12.654  13.125
14884W        W86413  32.019  39.804   4.573
14885W        W86414  21.651  30.751  12.893
14886W        W86415  36.693  14.036  11.703
14887W        W86416  12.755  23.593   0.642
14888W        W86417  11.446  40.636   1.768
14889W        W86418   2.697  21.679   3.143
14890W        W86419  34.941  36.664  12.411
14891W        W86420  34.141   9.279  14.894
14892W        W86421   0.740  23.616   4.630
14893W        W86422   9.862  37.568   0.286
14894W        W86423   5.837  25.715   3.260
14895W        W86424  36.076  36.764  12.497
14896W        W86425  28.768   9.720   2.619
14897W        W86426  42.475  11.375  14.995
14898W        W86427  33.165  27.502  14.379
14899W        W86428  44.279  41.222   1.018
14900W        W86429  23.011  19.919   4.836
14901W        W86430  34.010  12.101   3.815
14902W        W86431  29.377  29.392   1.252
14903W        W86432  19.595  32.037  12.468
14904W        W86433  20.978  21.999   2.227
14905W        W86434   3.979  16.244   0.433
14906W        W86435   6.310  31.685   4.929
14907W        W86436  31.594  18.311  13.972
14908W        W86437  36.959   7.421  12.578
14909W        W86438  21.176  25.012  10.436
14910W        W86439  10.209  25.588   3.312
14911W        W86440  36.633  29.141  14.398
14912W        W86441  42.748  38.570  11.571
14913W        W86442   0.471   8.948   0.972
14914W        W86443  39.397   0.954  12.963
14915W        W86444   2.235  40.795   1.979
14916W        W86445  14.755   5.821   2.658
14917W        W86446  19.552  16.098  11.122
14918W        W86447  36.070  44.594  14.422
14919W        W86448   1.688  43.922   1.262
14920W        W86449  31.552  23.468   5.032
14921W        W86450  25.828   8.461   3.226
14922W        W86451  31.460  29.444   3.116
14923W        W86452  33.477  32.398   4.201
14924W        W86453  25.161  17.709  11.958
14925W        W86454  20.738  19.144  11.669
14926W        W86455  29.160  30.587   3.867
14927W        W86456  21.153  36.718  14.922
14928W        W86457   5.947  33.562  12.501
14929W        W86458  36.551  12.212  12.187
14930W        W86459   0.554  44.380   3.761
14931W        W86460  18.277   4.163  13.778
14932W        W86461  29.140   9.941   1.305
14933W        W86462  31.151  21.228   1.758
14934W        W86463   0.693  41.249  11.942
14935W        W86464  24.290  32.981   4.849
14936W        W86465   3.156  24.068   0.705
14937W        W86466  16.686  16.467   1.185
14938W        W86467  35.585  39.828  10.472
14939W        W86468  24.960  39.794   1.282
14940W        W86469   6.341   1.224   1.769
14941W        W86470  39.952   4.665  12.561
14942W        W86471  21.528  24.156   2.459
14943W        W86472  38.497  37.848  11.004
14944W        W86473   4.492  29.174   0.003
14945W        W86474  23.509  27.240  13.939
14946W        W86475  39.147  28.113  13.132
14947W        W86476  16.219  10.646   2.157
14948W        W86477  10.691  39.609   1.924
14949W        W86478  29.980  11.754  13.842
14950W        W86479  12.757  34.195  11.926
14951W        W86480  40.769  39.873   1.727
14952W        W86481  41.418  38.554   3.312
14953W        W86482   2.497   6.464   1.787
14954W        W86483  37.287  21.717   3.664
14955W        W86484   8.482  33.016   4.246
14956W        W86485   6.633  17.093   1.769
14957W        W86486   8.420  32.487  10.456
14958W        W86487  19.716  18.309   4.279
14959W        W86488  13.435  30.572   0.905
14960W        W86489  20.508  25.094  14.835
14961W        W86490  33.351  26.068  12.405
14962W        W86491  31.755   0.852   4.639
14963W        W86492  35.819   8.403  12.886
14964W        W86493  39.062  43.338  14.934
14965W        W86494  30.698  10.053   2.169
14966W        W86495  22.448  21.202   1.718
14967W        W86496   3.839  26.519  11.541
14968W        W86497  12.436  40.734   2.627
14969W        W86498  38.053   7.344  13.925
14970W        W86499   5.421  12.692   4.177
14971W        W86500  18.117  25.656   0.278
14972W        W86501  12.780  25.768   2.337
14973W        W86502   7.706  30.188  10.700
14974W        W86503  14.039  15.811   4.164
14975W        W86504   2.298  32.483   2.580
14976W        W86505  15.197  38.923  14.875
14977W        W86506  17.165  26.770   2.308
14978W        W86507   8.457  18.322  14.870
14979W        W86508  39.856   6.883   0.360
14980W        W86509  20.317  32.367   3.343
14981W        W86510  15.333  28.433  11.957
14982W        W86511  27.499  39.572  14.472
14983W        W86512  35.548  13.658   1.768
14984W        W86513  27.687   6.393   1.314
14985W        W86514  31.886  20.145  14.506
14986W        W86515  28.164  41.643  10.927
14987W        W86516  13.762  34.364   0.260
14988W        W86517  35.630  10.763  13.816
14989W        W86518  29.744  16.871   5.116
14990W        W86519  25.736   7.807   2.889
14991W        W86520  11.811  43.601   2.888
14992W        W86521  28.368  15.702  13.345
14993W        W86522  33.489   0.609   1.339
14994W        W86523   9.318  14.853   2.736
14995W        W86524  18.046  33.673  14.357
14996W        W86525   2.916  34.476   9.988
14997W        W86526  20.791   0.151  13.838
14998W        W86527   4.965  39.501  12.980
14999W        W86528  12.269   6.582  11.470
15000W        W86529  37.607  37.032  14.818
15001W        W86530   4.671   4.953  10.688
15002W        W86531   1.518   0.443  14.312
15003W        W86532  33.186  37.850  13.983
15004W        W86533  33.156  42.062  13.561
15005W        W86534   1.422  37.556   0.377
15006W        W86535  16.283  38.313   0.783
15007W        W86536   6.182   4.304   0.719
15008W        W86537   9.683  20.669   4.912
15009W        W86538  42.085  39.865   1.257
15010W        W86539  34.081  43.511  12.590
15011W        W86540  31.847  16.290   1.775
15012W        W86541  11.379  33.822   4.822
15013W        W86542  12.433   9.255  11.721
15014W        W86543  30.413  15.651   4.117
15015W        W86544   1.080   9.109  11.173
15016W        W86545  22.533  13.181  10.643
15017W        W86546  21.791   0.915  14.857
15018W        W86547  12.767  30.681  13.541
15019W        W86548  37.658  42.010   0.379
15020W        W86549  10.418  34.662   0.366
15021W        W86550  35.973  41.810   4.134
15022W        W86551   1.372  20.318  12.596
15023W        W86552   8.212   7.816  14.019
15024W        W86553  32.882  38.908   4.199
15025W        W86554  22.376   0.471  11.022
15026W        W86555  35.164   3.490  10.451
15027W        W86556  41.950   9.790   0.472
15028W        W86557  30.943   9.167  13.154
15029W        W86558  28.376  22.481   3.649
15030W        W86559   7.386  10.287  11.632
15031W        W86560   3.941  27.690   9.959
15032W        W86561  31.677   3.420  10.811
15033W        W86562  17.761  35.495  10.386
15034W        W86563  43.480  15.121  11.164
15035W        W86564   2.716  14.813   2.773
15036W        W86565  25.102  42.923   4.910
15037W        W86566   5.827   3.856  14.978
15038W        W86567  18.148  32.011   0.874
15039W        W86568  31.582  33.437   0.929
15040W        W86569   8.795  36.547   0.763
15041W        W86570  23.185  37.926   4.308
15042W        W86571   0.883  23.044   0.994
15043W        W86572   7.238  39.944   1.814
15044W        W86573  29.060  36.578   4.752
15045W        W86574  40.301  36.690   0.070
15046W        W86575  41.330  11.199   4.474
15047W        W86576  35.246  34.390   1.482
15048W        W86577  24.505  19.831   4.069
15049W        W86578   3.058  25.195   1.444
15050W        W86579   0.014  17.463  14.477
15051W        W86580  30.159  41.992   3.784
15052W        W86581  12.234  18.302  14.002
15053W        W86582   1.001  20.749   3.329
15054W        W86583  39.411  11.803  10.798
15055W        W86584   6.196  14.875  10.690
15056W        W86585  14.566  21.554   1.798
15057W        W86586   4.958   9.549   1.097
15058W        W86587  35.548  18.844   0.440
15059W        W86588  12.807  28.032   3.098
15060W        W86589   6.134  15.704  13.756
15061W        W86590  35.015  18.133   1.345
15062W        W86591  38.086  28.763   3.128
15063W        W86592   2.882   3.452  13.854
15064W        W86593  28.974  41.815  11.988
15065W        W86594  35.051   6.339   0.307
15066W        W86595  40.692  32.407  11.969
15067W        W86596  23.740   9.655  13.000
15068W        W86597  41.539   8.683   4.683
15069W        W86598   6.321  10.469  10.846
15070W        W86599  31.016  44.501  14.377
15071W        W86600  38.999   0.988  12.143
15072W        W86601   9.562  20.431   1.146
15073W        W86602   2.762   1.094   0.066
15074W        W86603  20.830  36.966   4.335
15075W        W86604   4.818  12.239  13.473
15076W        W86605  33.058  16.708  11.609
15077W        W86606  16.324   0.300  12.909
15078W        W86607   5.508  28.615   2.979
15079W        W86608  19.209  27.311   2.000
15080W        W86609  13.363  39.478   3.841
15081W        W86610  43.968  37.504   2.183
15082W        W86611  28.296  28.162   0.279
15083W        W86612  42.367  11.639  14.281
15084W        W86613  29.549  42.707  10.795
15085W        W86614  33.136  44.792  13.261
15086W        W86615  38.087  14.192  12.854
15087W        W86616   1.407  42.117  14.537
15088W        W86617  37.050  33.756   2.743
15089W        W86618  20.693  13.060  12.927
15090W        W86619  32.132  19.557   1.350
15091W        W86620   9.148  28.656  13.634
15092W        W86621   9.011  11.888  14.055
15093W        W86622  38.460   7.434  11.726
15094W        W86623  43.970  18.174  10.906
15095W        W86624  44.061  28.011  13.479
15096W        W86625  20.508  14.015  14.805
15097W        W86626  32.137   4.748   0.851
15098W        W86627   2.956  24.015  14.570
15099W        W86628  42.553  34.986   3.403
15100W        W86629  18.984   7.518  14.332
15101W        W86630   1.987  24.022   3.124
15102W        W86631  22.283   7.128  14.048
15103W        W86632  12.692  42.380   0.899
15104W        W86633  42.987   9.593   0.459
15105W        W86634  33.017  43.212  12.685
15106W        W86635  41.714  14.405   3.666
15107W        W86636  34.186   9.780   1.486
15108W        W86637  38.448   7.226   4.635
15109W        W86638  29.699  36.872   2.811
15110W        W86639  21.973  24.680   1.679
15111W        W86640  37.444   7.316   2.455
15112W        W86641  42.922  31.178   3.219
15113W        W86642  35.016  11.175  13.436
15114W        W86643  19.060  13.710   2.376
15115W        W86644  32.996  42.931  11.923
15116W        W86645  38.082   2.180   2.700
15117W        W86646  22.602  25.753   0.897
15118W        W86647   1.162  27.595  11.004
15119W        W86648  25.334  23.633   2.870
15120W        W86649  20.167   1.312  11.330
15121W        W86650  34.968  41.290   4.118
15122W        W86651  15.504   0.347  11.145
15123W        W86652  28.859  32.641   5.062
15124W        W86653  27.631  31.125  14.279
15125W        W86654  34.256  30.786  14.987
15126W        W86655  33.943  13.141   1.500
15127W        W86656  21.719  32.325   4.506
15128W        W86657  21.985  27.078  12.014
15129W        W86658  33.364   4.995   3.648
15130W        W86659  19.081   6.098  11.711
15131W        W86660  30.693   5.696  12.192
15132W        W86661  21.493  10.913  13.122
15133W        W86662  28.690  43.242  13.158
15134W        W86663  34.320   7.656   0.534
15135W        W86664   3.869  38.070   3.708
15136W        W86665  40.768  21.202   1.308
15137W        W86666  44.417  35.989  11.120
15138W        W86667  44.384   1.028  13.453
15139W        W86668   8.704  22.591  11.964
15140W        W86669  13.345  31.176   1.966
15141W        W86670  15.017  39.213  13.797
15142W        W86671  39.705   2.407   1.253
15143W        W86672  33.604  18.770   4.589
15144W        W86673  20.737  23.008   4.533
15145W        W86674  12.413   4.237  14.809
15146W        W86675  17.474  30.392  14.691
15147W        W86676  19.877   7.895  11.537
15148W        W86677  40.239  44.373  13.496
15149W        W86678  44.597  21.585  12.351
15150W        W86679   5.936  30.371  12.885
15151W        W86680   3.467  26.666   0.343
15152W        W86681  26.124   2.225   3.372
15153W        W86682   0.883   4.477   1.875
15154W        W86683  41.097  33.491   1.491
15155W        W86684  41.398  41.307   1.451
15156W        W86685  22.763  30.030  11.629
15157W        W86686   6.414   5.459   1.072
15158W        W86687  30.452  39.831   0.433
15159W        W86688   7.487  10.165   1.291
15160W        W86689  13.188  21.092  14.930
15161W        W86690  16.350  18.679  10.883
15162W        W86691  28.104  42.531  13.423
15163W        W86692  14.354  31.172   1.756
15164W        W86693  24.760  37.841  12.078
15165W        W86694  44.844   1.833  11.720
15166W        W86695   2.222  24.973  12.133
15167W        W86696   9.861  32.666   3.110
15168W        W86697   1.951  37.056   4.938
15169W        W86698  44.757  26.594   0.772
15170W        W86699   1.732   8.740  14.291
15171W        W86700  13.079  34.455   3.379
15172W        W86701   7.773  38.996  13.897
15173W        W86702  39.865  11.400   1.855
15174W        W86703  10.080  43.127   2.026
15175W        W86704  33.194  17.627  13.507
15176W        W86705   4.473   6.902  14.422
15177W        W86706  31.864  12.854   1.708
15178W        W86707  19.979   6.417  14.998
15179W        W86708   7.329  41.978   2.260
15180W        W86709  11.187  19.578  14.819
15181W        W86710   0.507  12.757  14.252
15182W        W86711  28.594  40.936  12.988
15183W        W86712   6.264  33.003   4.729
15184W        W86713  13.089  42.470  14.262
15185W        W86714   6.161  13.419  14.167
15186W        W86715   3.723  22.282   0.873
15187W        W86716  27.168  11.059  14.913
15188W        W86717   3.209  17.112   2.435
15189W        W86718  40.445  14.216  14.776
15190W        W86719  41.438   3.703  12.158
15191W        W86720  17.587  24.836  14.964
15192W        W86721  22.144  43.799   4.607
15193W        W86722   3.687  36.359  11.960
15194W        W86723  21.068  34.568   1.018
15195W        W86724  20.878  16.290  14.179
15196W        W86725   4.393  24.571  13.840
15197W        W86726  15.622  32.941  14.938
15198W        W86727  37.498  12.122  13.162
15199W        W86728   4.152  34.343  12.240
15200W        W86729  36.453  10.838  11.873
15201W        W86730  15.244  28.925  12.616
15202W        W86731  18.575   0.191  10.990
15203W        W86732   2.816  28.739  11.810
15204W        W86733  33.334  43.743  14.856
15205W        W86734   3.029  16.858  11.203
15206W        W86735   0.023  22.043   0.250
15207W        W86736  23.932   5.540  12.581
15208W        W86737   1.205  36.559  14.891
15209W        W86738   0.433  31.003   1.503
15210W        W86739  36.994  36.053   2.648
15211W        W86740  43.783  33.845   0.217
15212W        W86741  23.727  29.481  12.790
15213W        W86742  40.938  43.452   2.871
15214W        W86743  36.302  38.801   4.609
15215W        W86744  22.867  33.656  11.940
15216W        W86745  44.960  33.629   0.962
15217W        W86746  19.187  33.020   4.673
15218W        W86747  33.108  10.719   1.235
15219W        W86748   0.345  38.331   4.171
15220W        W86749   1.998  38.076  14.841
15221W        W86750  37.513   8.832  14.860
15222W        W86751  28.203  33.276   2.310
15223W        W86752  22.180  38.354  11.402
15224W        W86753  41.301  27.468  11.082
15225W        W86754  38.443   9.257   1.783
15226W        W86755  23.768  24.096   3.179
15227W        W86756  43.450   3.197   3.704
15228W        W86757  30.983  26.982  13.934
15229W        W86758   3.375  28.137  11.122
15230W        W86759  14.148  28.162   3.177
15231W        W86760  41.649  40.654   1.105
15232W        W86761  13.599  32.126   4.277
15233W        W86762  25.101  20.183  14.997
15234W        W86763  29.826   3.005  14.583
15235W        W86764  14.302  35.338  14.408
15236W        W86765  25.417  21.265  13.515
15237W        W86766   9.328  25.788   0.819
15238W        W86767   5.429  38.754  11.164
15239W        W86768  15.761  13.792   3.892
15240W        W86769  12.903   7.885   0.302
15241W        W86770  39.528  27.872   1.159
15242W        W86771   9.800   4.408   3.961
15243W        W86772   2.125  43.001   0.339
15244W        W86773   6.839  17.183   1.215
15245W        W86774  25.645  17.403  14.029
15246W        W86775  28.648  43.756  12.949
15247W        W86776  28.652  32.258   0.077
15248W        W86777  34.140  25.093  12.896
15249W        W86778  43.875  13.122  14.962
15250W        W86779  39.893  33.879  11.596
15251W        W86780  28.448  32.777  11.461
15252W        W86781  44.886  33.429  14.859
15253W        W86782   3.897  32.867  11.378
15254W        W86783  18.272  35.518   2.823
15255W        W86784   9.782  29.171  10.514
15256W        W86785   3.644  40.072   5.202
15257W        W86786  13.233  24.100  12.160
15258W        W86787  29.427  27.995   2.767
15259W        W86788  15.253   2.815  11.468
15260W        W86789  23.094  32.582  13.911
15261W        W86790   6.679  10.558   0.357
15262W        W86791  12.412  13.228   4.529
15263W        W86792  14.849  32.547   2.180
15264W        W86793   7.871  21.491  11.394
15265W        W86794  13.559   9.732  14.555
15266W        W86795  43.653  37.707   3.658
15267W        W86796  25.461   7.729   1.086
15268W        W86797  20.003  15.859  12.897
15269W        W86798   1.325  42.354   1.357
15270W        W86799  32.403  20.739  10.440
15271W        W86800  28.959   6.270  11.114
15272W        W86801  29.239  19.868   2.593
15273W        W86802  26.971  23.713   0.805
15274W        W86803  11.890  31.372  14.355
15275W        W86804  42.371  18.899  12.405
15276W        W86805  33.168  13.479  11.329
15277W        W86806  27.534  26.676   3.858
15278W        W86807   4.301  44.159   4.971
15279W        W86808  23.494  14.069  12.409
15280W        W86809  16.835  44.344   3.814
15281W        W86810  11.535  20.783   1.357
15282W        W86811  42.682  22.702  10.690
15283W        W86812  42.374  24.400   0.060
15284W        W86813  15.769   8.069   1.273
15285W        W86814  40.362  30.057   2.918
15286W        W86815  18.117  31.670   4.909
15287W        W86816  41.932   9.257  13.233
15288W        W86817  10.449  37.603  11.015
15289W        W86818  20.446   1.959  10.274
15290W        W86819  11.349   4.805   1.476
15291W        W86820  15.800   9.911   3.307
15292W        W86821  35.313  40.460  12.758
15293W        W86822  15.330  11.720   3.687
15294W        W86823   3.303  39.924   3.910
15295W        W86824  10.831   9.346   2.598
15296W        W86825   9.273  43.814  10.752
15297W        W86826  13.357   2.690   4.626
15298W        W86827  24.421  41.339   2.808
15299W        W86828  30.465  44.419  11.172
15300W        W86829   6.282  36.622   3.284
15301W        W86830  14.328   4.292  11.262
15302W        W86831  19.819  27.609  14.048
15303W        W86832   1.158   0.420   2.733
15304W        W86833  39.405  12.710  11.022
15305W        W86834  19.317  42.370   3.091
15306W        W86835  34.624   5.771   2.791
15307W        W86836   2.691   5.436   2.306
15308W        W86837  18.684   7.696   2.220
15309W        W86838  30.900  16.162  11.590
15310W        W86839  11.569  39.556  12.525
15311W        W86840  26.452   9.267  10.657
15312W        W86841  21.226  44.144  11.495
15313W        W86842   7.302  13.412  14.105
15314W        W86843  39.608  25.055  10.807
15315W        W86844  33.422  29.642  10.771
15316W        W86845   0.225   8.413   2.257
15317W        W86846   4.790   1.534   0.794
15318W        W86847  39.160  34.281   1.349
15319W        W86848  42.821  38.763   4.211
15320W        W86849  33.518  33.973  10.299
15321W        W86850  34.323  38.869   2.673
15322W        W86851  40.811  20.267   3.321
15323W        W86852  20.481  18.051   2.243
15324W        W86853  17.761  42.216  13.206
15325W        W86854  25.521  37.812   3.729
15326W        W86855  44.286  29.988  11.495
15327W        W86856   6.447  23.872   3.327
15328W        W86857  14.342  26.897  14.371
15329W        W86858  39.375  19.724   3.309
15330W        W86859  23.066  34.841   4.767
15331W        W86860   3.238  22.223  14.099
15332W        W86861  10.308  30.168   2.777
15333W        W86862  42.773  24.134  12.609
15334W        W86863  30.485  26.538  14.492
15335W        W86864  42.421  36.370  12.687
15336W        W86865   2.085  10.133  14.398
15337W        W86866  23.134  16.554   1.347
15338W        W86867  19.080   7.695   4.507
15339W        W86868   6.644  32.320  13.481
15340W        W86869   2.849  15.221   0.472
15341W        W86870  42.299  13.308   4.209
15342W        W86871  17.706  29.067  14.871
15343W        W86872  10.122  42.210  11.697
15344W        W86873   8.452  33.858  11.107
15345W        W86874  30.256  32.914   2.778
15346W        W86875   1.385  23.165   1.199
15347W        W86876  12.920  22.551  14.456
15348W        W86877  43.866  34.217  13.028
15349W        W86878  36.885  24.188  13.496
15350W        W86879  44.273   3.511  14.661
15351W        W86880  19.635  37.304   1.904
15352W        W86881  19.690  41.415   2.834
15353W        W86882  26.621   3.798  14.391
15354W        W86883  33.808  15.450  13.366
15355W        W86884   4.132   7.464  12.450
15356W        W86885  11.121  35.396   2.702
15357W        W86886   4.385  12.241  14.751
15358W        W86887   5.626  13.460   1.742
15359W        W86888   9.545  10.797  14.355
15360W        W86889  34.850  30.763  11.444
15361W        W86890  18.650  44.437  10.388
15362W        W86891  20.698  36.552   2.448
15363W        W86892  28.374  15.974   1.319
15364W        W86893  20.294  23.091  10.500
15365W        W86894   8.997  13.824   0.331
15366W        W86895  35.382  13.134  11.722
15367W        W86896   3.947  32.371  11.207
15368W        W86897   0.294  43.281   0.999
15369W        W86898  25.827   4.248  14.918
15370W        W86899  24.432  22.299   1.754
15371W        W86900  25.473  20.451   3.269
15372W        W86901  10.773  37.477   2.682
15373W        W86902  19.365   4.082   0.906
15374W        W86903  30.606  25.172  13.539
15375W        W86904   1.263  19.301  11.732
15376W        W86905   1.251  37.161   3.207
15377W        W86906  36.838  26.419   1.836
15378W        W86907  25.933  33.049   3.293
15379W        W86908  36.511  38.404   2.573
15380W        W86909  20.768  34.473   4.200
15381W        W86910   9.099  18.596   2.610
15382W        W86911  22.699  16.097   2.818
15383W        W86912  42.705   0.752   1.932
15384W        W86913  10.833  42.011   1.717
15385W        W86914  20.432  27.177  13.670
15386W        W86915  31.051  22.728  11.030
15387W        W86916  14.991  21.002  14.310
15388W        W86917  13.136  15.660   0.998
15389W        W86918  34.460   1.842   4.536
15390W        W86919  28.158   8.405  12.048
15391W        W86920  44.760   9.360   0.618
15392W        W86921  26.713  16.766   3.186
15393W        W86922  12.716  44.433  11.657
15394W        W86923  10.826   8.822   2.626
15395W        W86924   7.871  12.617   1.770
15396W        W86925  26.731   3.442  13.836
15397W        W86926  25.573  34.185   1.008
15398W        W86927   3.423  44.924  14.495
15399W        W86928   1.357  36.152  10.172
15400W        W86929  17.277  40.068  12.458
15401W        W86930  15.400  38.595  12.071
15402W        W86931  13.816  15.874  10.105
15403W        W86932  16.757  24.170  14.207
15404W        W86933  12.931   4.212  14.824
15405W        W86934  41.549  28.483   3.210
15406W        W86935  14.429   8.760   2.313
15407W        W86936  34.506   6.150  13.511
15408W        W86937  39.404   3.352   4.676
15409W        W86938  28.697  19.448   1.497
15410W        W86939  20.805  42.719  13.058
15411W        W86940  15.405  33.968   1.689
15412W        W86941  44.484  30.363  10.657
15413W        W86942  22.746   0.352   2.842
15414W        W86943   0.788  11.340   0.993
15415W        W86944  29.236  16.795   3.323
15416W        W86945   8.245  39.136   3.094
15417W        W86946  28.190   1.992   0.834
15418W        W86947  40.570   2.840  14.298
15419W        W86948  39.039  16.077  10.191
15420W        W86949  22.948  14.362   0.028
15421W        W86950  34.052  20.004  12.852
15422W        W86951  12.570  44.460  14.542
15423W        W86952  13.853  16.024   3.168
15424W        W86953  17.160   7.031   1.541
15425W        W86954  30.022   6.403   1.241
15426W        W86955  14.318  11.611   2.473
15427W        W86956  22.108  43.520  11.449
15428W        W86957  11.777  35.818  11.261
15429W        W86958   0.999   9.118  13.843
15430W        W86959  37.733  11.384  11.996
15431W        W86960  19.523  29.647   2.331
15432W        W86961  21.590  10.843  11.535
15433W        W86962  10.086   6.960  11.200
15434W        W86963  29.177  39.768  10.732
15435W        W86964  25.628  42.192  11.628
15436W        W86965  22.659  30.439  13.743
15437W        W86966  39.663   4.864  11.140
15438W        W86967  12.576   2.838  12.864
15439W        W86968   7.122   8.561   2.419
15440W        W86969  43.367  19.648   2.417
15441W        W86970   6.756  15.835  13.060
15442W        W86971   7.129   5.838   0.025
15443W        W86972  18.280  39.651   2.425
15444W        W86973   9.329  10.776  12.134
15445W        W86974  24.668   4.148  11.140
15446W        W86975  42.341   7.461  12.176
15447W        W86976   1.924  38.326   3.826
15448W        W86977   0.758  20.799   2.849
15449W        W86978  34.844  18.700  13.551
15450W        W86979  39.523   6.593  11.723
15451W        W86980   6.572  13.630  13.965
15452W        W86981  16.574  41.933   2.105
15453W        W86982  13.524  19.876   3.759
15454W        W86983  27.044  34.791  14.259
15455W        W86984  41.414   4.746   0.445
15456W        W86985  14.731   8.637   1.875
15457W        W86986  25.712  28.106  13.323
15458W        W86987  14.836  14.104  11.498
15459W        W86988  11.913   1.151  10.908
15460W        W86989   7.831  42.070   0.444
15461W        W86990   4.966  23.057   4.044
15462W        W86991   4.550  21.550   2.048
15463W        W86992  31.065   6.367  14.845
15464W        W86993   9.010  13.174  10.627
15465W        W86994  22.619  16.335   4.128
15466W        W86995  28.453  44.846   1.707
15467W        W86996  11.678  16.774  14.765
15468W        W86997  10.396  37.604  12.175
15469W        W86998  32.178  42.434  14.762
15470W        W86999  36.780  42.550  10.790
15471W        W87000   1.921  14.566   2.360
15472W        W87001  40.507   8.008  10.759
15473W        W87002  29.196  14.177  14.763
15474W        W87003  14.272  36.339  13.434
15475W        W87004   9.116  26.639  12.647
15476W        W87005  20.827  36.520   0.286
15477W        W87006  33.432  31.584  12.631
15478W        W87007  24.249  34.545   2.333
15479W        W87008  21.437   2.787   2.798
15480W        W87009  19.360   3.244   1.648
15481W        W87010   5.314  28.146  11.241
15482W        W87011  13.196  13.157   4.096
15483W        W87012   8.817  14.572  10.689
15484W        W87013  21.783  30.567   4.065
15485W        W87014  10.851  12.850   2.333
15486W        W87015   5.691   6.875   2.122
15487W        W87016  43.397   1.220  10.655
15488W        W87017  27.693   6.031  12.263
15489W        W87018  22.934   7.892   3.196
15490W        W87019  10.991  28.493   3.640
15491W        W87020  24.545  29.621  11.097
15492W        W87021  28.573  42.808  11.083
15493W        W87022  39.075  39.608  12.480
15494W        W87023  26.250  20.004  14.012
15495W        W87024  41.937   5.372  14.094
15496W        W87025   9.820  42.021   2.686
15497W        W87026  22.299  34.994  11.515
15498W        W87027  20.500  40.305   3.726
15499W        W87028  10.580  17.741  13.504
15500W        W87029   9.671   9.922  11.478
15501W        W87030  31.379  40.395   2.449
15502W        W87031  13.759  33.503   3.288
15503W        W87032  41.911  13.042  10.626
15504W        W87033  14.320  37.214  13.150
15505W        W87034  39.255  16.613  13.070
15506W        W87035  21.644  32.462  11.700
15507W        W87036  38.932  13.215  12.960
15508W        W87037   9.343  27.902   2.365
15509W        W87038  33.792   9.099  13.481
15510W        W87039  37.503  43.197   1.010
15511W        W87040  28.771  36.884  13.430
15512W        W87041   9.281  38.925   4.627
15513W        W87042  17.251  39.717   0.919
15514W        W87043  43.876  20.209   0.312
15515W        W87044  33.314  31.585   1.604
15516W        W87045  30.980  31.627  14.560
15517W        W87046   4.728  39.906   4.347
15518W        W87047   0.294  40.608   0.397
15519W        W87048  31.005  23.178  14.432
15520W        W87049  35.294  44.967   4.227
15521W        W87050  15.914  14.139  11.137
15522W        W87051   7.917  21.079   5.048
15523W        W87052   2.733  10.144   4.939
15524W        W87053  26.041  17.457   3.993
15525W        W87054  42.828   7.451   2.350
15526W        W87055  37.876  35.496   1.333
15527W        W87056  15.227  30.021   2.894
15528W        W87057  19.250  42.366  11.968
15529W        W87058   9.280  13.118   4.636
15530W        W87059  38.643  22.617   1.750
15531W        W87060  38.235  17.127  14.048
15532W        W87061   1.956   9.712   0.822
15533W        W87062  23.995  20.746   2.434
15534W        W87063  41.298  15.581   1.000
15535W        W87064  32.321  32.199  10.862
15536W        W87065  12.741   6.236  12.326
15537W        W87066   3.921  44.181   2.433
15538W        W87067   1.171  23.825   2.831
15539W        W87068  31.003  30.751   1.645
15540W        W87069   1.379  10.148   2.289
15541W        W87070  32.051  30.512  11.315
15542W        W87071   4.745  10.197   3.372
15543W        W87072  23.794  10.354  11.414
15544W        W87073  32.426  12.800  13.893
15545W        W87074  44.353  37.324   1.892
15546W        W87075  43.384  32.665  12.382
15547W        W87076  35.387   1.716   2.618
15548W        W87077   1.489  20.233  14.422
15549W        W87078  24.426  19.265   0.867
15550W        W87079  20.303   6.740   0.732
15551W        W87080  29.482  16.945   3.783
15552W        W87081  27.711  24.105   4.059
15553W        W87082   3.666  39.080  13.191
15554W        W87083   9.728  31.357  11.047
15555W        W87084   2.733  11.963   0.905
15556W        W87085  39.092  28.028  14.017
15557W        W87086  34.067  21.882  10.687
15558W        W87087   0.438   6.078  11.680
15559W        W87088  42.352  30.593   0.066
15560W        W87089   1.314  38.952   0.228
15561W        W87090  26.241  42.225  12.408
15562W        W87091  27.148  44.862   2.155
15563W        W87092   2.777  24.805   2.764
15564W        W87093   2.956  34.675   4.479
15565W        W87094  23.246  32.142   1.839
15566W        W87095  36.080  35.410  12.715
15567W        W87096  34.552  33.619   4.182
15568W        W87097   8.271  12.774  10.476
15569W        W87098   8.386  12.248   4.025
15570W        W87099  38.554  28.060   4.537
15571W        W87100  13.619  44.954  12.395
15572W        W87101  30.096  27.251  14.461
15573W        W87102   9.220  19.310  13.969
15574W        W87103   3.024  29.541  14.988
15575W        W87104  25.318  14.787   3.662
15576W        W87105  27.921   3.836  10.663
15577W        W87106  26.200  35.573   0.832
15578W        W87107   7.731  36.730  13.539
15579W        W87108  22.923  13.597   4.153
15580W        W87109  32.592  42.810   3.845
15581W        W87110  39.070  28.146   4.494
15582W        W87111  19.224  35.831  10.693
15583W        W87112   4.151   9.733  13.872
15584W        W87113   9.609  36.511  12.100
15585W        W87114  30.531  27.502   2.381
15586W        W87115  17.553   8.064   1.592
15587W        W87116  20.633  21.421  12.134
15588W        W87117  23.251   6.225  14.489
15589W        W87118  31.682  16.458   4.243
15590W        W87119  21.290  14.060  14.305
15591W        W87120  36.015   2.539   1.940
15592W        W87121  35.525  30.182  10.649
15593W        W87122  32.184  18.232  11.408
15594W        W87123  26.184   1.211   0.636
15595W        W87124  42.429  36.593  13.152
15596W        W87125  18.079  37.881  14.401
15597W        W87126  22.529  11.202  12.059
15598W        W87127  19.194   6.159   3.109
15599W        W87128  25.918   4.496  12.474
15600W        W87129  18.002  34.067  13.020
15601W        W87130  12.656   0.811   4.524
15602W        W87131  28.984   1.986  14.119
15603W        W87132   9.125  13.441   4.245
15604W        W87133  36.051   3.802  11.940
15605W        W87134  41.915  36.335  13.980
15606W        W87135  22.089   7.213   4.144
15607W        W87136   9.655  15.345   4.632
15608W        W87137  11.984   7.323  10.304
15609W        W87138   9.158   0.938  12.879
15610W        W87139  12.601   2.558  10.157
15611W        W87140  35.009  14.453  10.966
15612W        W87141  26.215  19.256  14.321
15613W        W87142  24.073  21.224   2.655
15614W        W87143  28.586   1.426   1.263
15615W        W87144  23.460   8.864   4.084
15616W        W87145  23.511  33.364   4.416
15617W        W87146   5.286  33.114   2.179
15618W        W87147  28.372  15.155  14.100
15619W        W87148   1.631  29.655  14.750
15620W        W87149  33.670  43.084   0.528
15621W        W87150   8.142  37.945  10.964
15622W        W87151  35.818  15.848   5.026
15623W        W87152  18.965  37.934  11.264
15624W        W87153  42.920   3.825   1.486
15625W        W87154   9.782  30.987  14.868
15626W        W87155  21.412   7.398   3.117
15627W        W87156   4.337  23.292   4.623
15628W        W87157  33.621   2.471   1.519
15629W        W87158  26.367   7.880  11.655
15630W        W87159  19.160   0.403   2.114
15631W        W87160  36.435  22.737  11.340
15632W        W87161  33.103  43.370   3.340
15633W        W87162  24.982  39.770   0.345
15634W        W87163   0.945   1.937   4.273
15635W        W87164  27.559  34.828  14.259
15636W        W87165   0.514  17.625   2.357
15637W        W87166  32.562  19.546   3.056
15638W        W87167  38.002  13.546  14.989
15639W        W87168  28.411  43.278   2.793
15640W        W87169   5.409  33.839  13.493
15641W        W87170   9.190  17.153  13.037
15642W        W87171  30.393   6.637   2.183
15643W        W87172  40.635  42.295   0.758
15644W        W87173   9.392  40.263  14.594
15645W        W87174   2.764  39.645   1.309
15646W        W87175  11.274  21.744  14.340
15647W        W87176   7.603  11.279   0.263
15648W        W87177  31.905  35.523   3.239
15649W        W87178   9.873   0.417  12.522
15650W        W87179  27.554   8.634   0.885
15651W        W87180  40.002   5.173  12.573
15652W        W87181  12.632  42.427  13.969
15653W        W87182  34.183  27.567  10.862
15654W        W87183  32.223  18.265   1.809
15655W        W87184   2.968   3.339  12.838
15656W        W87185  11.341  40.889   4.615
15657W        W87186  44.243   5.717  11.058
15658W        W87187  24.169  40.107  12.590
15659W        W87188  25.095  23.231  14.311
15660W        W87189  27.207  31.780   1.704
15661W        W87190  42.193   4.520  14.867
15662W        W87191  27.719  27.731   3.770
15663W        W87192   5.012  24.158   0.006
15664W        W87193  17.437   9.627   3.159
15665W        W87194  42.168  24.780   2.942
15666W        W87195  31.053   3.574   2.180
15667W        W87196  21.330  43.781   4.127
15668W        W87197  15.789  17.720  11.633
15669W        W87198  30.000  26.583  13.386
15670W        W87199  36.973  43.485  11.910
15671W        W87200  33.070  42.811   4.088
15672W        W87201  35.030   0.699   1.775
15673W        W87202  32.495  30.538  13.076
15674W        W87203  31.320   5.864   2.734
15675W        W87204  43.485  19.789   4.306
15676W        W87205  32.398  38.110  13.400
15677W        W87206  28.134  32.427   3.718
15678W        W87207  22.215  26.896  14.467
15679W        W87208  40.343  43.995   4.414
15680W        W87209  33.144  17.299  14.185
15681W        W87210  42.810  43.772   2.467
15682W        W87211  32.582   6.788  13.562
15683W        W87212  20.034   3.119  14.049
15684W        W87213  11.736  22.812  10.626
15685W        W87214  38.311  35.898  13.499
15686W        W87215  28.124   3.722   2.667
15687W        W87216  31.601  21.209   2.808
15688W        W87217  30.238   3.742  14.225
15689W        W87218  29.258   4.335  12.062
15690W        W87219  42.481  37.287   3.153
15691W        W87220  28.584  38.976  11.620
15692W        W87221  26.694  18.721   3.523
15693W        W87222  15.808  35.225   1.458
15694W        W87223   5.268  38.810  13.107
15695W        W87224  38.019  23.535  14.320
15696W        W87225   9.405   2.857   2.525
15697W        W87226  17.321  35.137  11.099
15698W        W87227  24.123  25.704   1.822
15699W        W87228   9.586   0.036   1.353
15700W        W87229  21.563  15.360   3.272
15701W        W87230   5.415  32.062  12.465
15702W        W87231  20.683  30.259   3.232
15703W        W87232  37.925  34.990   0.611
15704W        W87233  24.223  28.761   1.925
15705W        W87234  29.170  42.950   3.275
15706W        W87235  43.003  17.016   0.297
15707W        W87236  19.534  32.092   2.763
15708W        W87237  29.589   2.669   4.554
15709W        W87238   3.313  36.455   4.977
15710W        W87239  31.040  27.357   4.536
15711W        W87240  41.469   8.195  12.420
15712W        W87241  10.116   2.815   0.281
15713W        W87242  16.521   6.561   0.890
15714W        W87243  29.886   8.903  14.026
15715W        W87244  28.487  42.356   4.692
15716W        W87245  13.188   1.501  14.367
15717W        W87246  42.803   0.031   0.992
15718W        W87247  20.164  28.748  13.259
15719W        W87248  28.884   1.404   1.708
15720W        W87249  36.405   0.939   1.318
15721W        W87250  41.917  28.526  11.098
15722W        W87251  10.311  16.517  11.864
15723W        W87252   5.532  30.234   2.833
15724W        W87253  20.480   3.923  12.153
15725W        W87254   3.428   5.936   2.679
15726W        W87255  39.035   8.475   2.162
15727W        W87256   9.463  42.212   4.190
15728W        W87257  24.243  29.529  11.948
15729W        W87258  33.487   3.710  12.296
15730W        W87259  23.179  21.731  12.027
15731W        W87260  19.871   3.546   5.009
15732W        W87261  14.344   2.885   2.785
15733W        W87262   0.326   3.388  10.710
15734W        W87263   8.890  25.445   4.793
15735W        W87264   0.678   7.435  12.497
15736W        W87265   2.207  28.445   2.623
15737W        W87266  20.383  35.579  13.948
15738W        W87267  17.128  37.814   0.873
15739W        W87268  16.607  22.197   0.175
15740W        W87269  13.579   1.975  10.767
15741W        W87270  42.817  27.925   1.004
15742W        W87271  40.824  24.490   0.895
15743W        W87272  15.218  42.294   1.785
15744W        W87273  41.438  26.584   1.951
15745W        W87274  39.539  23.257  13.909
15746W        W87275  27.557  42.243   1.793
15747W        W87276  26.940   9.804  14.033
15748W        W87277  26.596  43.269   4.400
15749W        W87278   5.843   6.962   0.441
15750W        W87279  27.600   8.431  12.745
15751W        W87280   4.514  44.338  12.172
15752W        W87281  31.500  14.688   3.290
15753W        W87282  35.818  23.216  14.022
15754W        W87283  29.572  12.115  13.034
15755W        W87284  33.014  19.745   2.319
15756W        W87285  18.768  44.484   1.003
15757W        W87286  22.704  14.350   3.603
15758W        W87287  44.365  21.778   1.917
15759W        W87288  24.575  15.384   2.299
15760W        W87289  17.825  30.917  10.869
15761W        W87290  14.740  40.102   0.602
15762W        W87291  15.218  32.780   3.693
15763W        W87292   9.228  39.797   1.993
15764W        W87293  38.777   9.845  14.321
15765W        W87294  15.850  33.949   4.232
15766W        W87295  29.682   4.363  13.365
15767W        W87296  14.619  11.439   4.051
15768W        W87297   4.992   6.759  14.321
15769W        W87298  43.831  15.830   1.670
15770W        W87299   4.291  32.003   2.339
15771W        W87300  43.471   4.700   1.267
15772W        W87301  37.881  22.765   0.422
15773W        W87302  37.004  20.521   2.549
15774W        W87303   9.908  41.026   4.155
15775W        W87304  29.170  35.967  11.987
15776W        W87305  42.226  33.884  12.490
15777W        W87306   1.399  25.496  11.922
15778W        W87307  11.381  13.106  12.530
15779W        W87308   3.753  17.334   9.998
15780W        W87309  15.668  11.109   0.353
15781W        W87310  22.382  12.185   1.690
15782W        W87311  29.692  26.711  11.497
15783W        W87312   2.677  17.684  12.088
15784W        W87313   4.891  20.787  11.362
15785W        W87314  34.180  20.240  14.699
15786W        W87315  37.653  12.218  13.641
15787W        W87316  38.281  36.254  12.445
15788W        W87317   7.022  35.895   5.069
15789W        W87318  14.961   1.972  12.835
15790W        W87319   9.234  13.350  11.068
15791W        W87320  39.954  16.615  11.993
15792W        W87321  19.032  11.245   0.056
15793W        W87322  15.250  27.519  11.007
15794W        W87323   9.562  11.769  13.576
15795W        W87324   1.704  18.671  14.315
15796W        W87325  42.250  18.190   2.873
15797W        W87326  25.072  30.216  13.934
15798W        W87327  32.890  20.982  10.018
15799W        W87328  11.873  23.239   2.260
15800W        W87329  29.725  28.522   0.242
15801W        W87330  36.997  10.427  10.962
15802W        W87331  13.770  19.744   4.175
15803W        W87332  35.099  33.811  11.598
15804W        W87333  12.678   1.091   0.966
15805W        W87334  14.364  43.436  13.419
15806W        W87335  21.064  40.919   0.808
15807W        W87336   4.840  43.592  13.857
15808W        W87337   3.283  22.514  13.283
15809W        W87338  13.711  33.433  11.554
15810W        W87339  12.585  21.646   4.761
15811W        W87340  15.672  37.484  12.867
15812W        W87341  39.103  18.488  12.087
15813W        W87342  25.489  36.639  13.469
15814W        W87343  11.336  42.485   0.543
15815W        W87344  35.824  17.309  12.866
15816W        W87345  28.729  26.114  14.805
15817W        W87346   0.952  10.657  14.873
15818W        W87347  14.357  16.598   2.718
15819W        W87348  32.011  31.567  12.243
15820W        W87349  27.154  24.231   0.766
15821W        W87350  33.919  12.179  14.053
15822W        W87351   1.795  37.193   2.324
15823W        W87352   9.698   0.359  14.932
15824W        W87353  24.443  21.178  12.112
15825W        W87354  36.316  34.942   3.845
15826W        W87355  44.104  19.235   1.300
15827W        W87356  38.934  18.741   3.755
15828W        W87357   1.193  17.516  12.031
15829W        W87358  22.248  43.612  13.343
15830W        W87359  27.922  42.917   1.838
15831W        W87360  15.699   2.665  12.922
15832W        W87361  10.340  25.050   4.522
15833W        W87362  15.252  13.275   2.768
15834W        W87363  37.975  26.265  10.620
15835W        W87364   5.441   5.827  12.900
15836W        W87365  30.437  20.720  14.242
15837W        W87366   2.910  19.287  12.945
15838W        W87367  17.539  42.394   3.808
15839W        W87368  36.115  40.749  14.797
15840W        W87369   2.883  43.298  13.044
15841W        W87370   1.311   7.853  13.039
15842W        W87371  44.966  18.849   2.849
15843W        W87372   2.295  28.624  12.580
15844W        W87373  20.699  29.085  11.091
15845W        W87374  12.200  29.718   0.907
15846W        W87375  41.425  21.814  13.912
15847W        W87376  19.380  42.287  11.443
15848W        W87377  25.776  16.992  14.619
15849W        W87378  18.888  11.287   3.562
15850W        W87379  16.786  34.066  13.349
15851W        W87380  12.723  30.644   2.127
15852W        W87381  28.673  13.840  11.645
15853W        W87382  38.225  10.267   3.184
15854W        W87383  42.410   8.695  10.666
15855W        W87384  13.357  19.045  13.403
15856W        W87385  35.027   0.950   2.765
15857W        W87386   2.858  27.470   4.652
15858W        W87387   1.765   0.454   3.948
15859W        W87388  19.157   3.418   2.134
15860W        W87389  43.842   8.838  14.955
15861W        W87390  33.623  13.792  13.208
15862W        W87391  24.372   4.868   4.173
15863W        W87392  12.175   7.105  11.560
15864W        W87393   4.275  43.551   0.957
15865W        W87394  35.868  41.680  13.484
15866W        W87395  24.099  43.421  13.050
15867W        W87396  34.958  19.317   4.279
15868W        W87397  32.040  25.026   0.550
15869W        W87398   3.115  21.350   2.845
15870W        W87399  43.873  13.323  12.571
15871W        W87400  36.147  38.384  10.731
15872W        W87401  20.994   6.411   2.599
15873W        W87402   0.737   2.696   0.344
15874W        W87403   9.638  32.616  13.635
15875W        W87404  42.090  22.263  12.465
15876W        W87405  41.810  28.012  11.214
15877W        W87406   9.312  18.836   3.480
15878W        W87407  31.537  27.529   2.406
15879W        W87408  15.194  36.323   0.757
15880W        W87409  22.387  31.471   0.368
15881W        W87410  19.452  20.751  14.943
15882W        W87411  43.939  20.203  13.946
15883W        W87412   4.510  30.407   3.688
15884W        W87413  28.886  42.554  11.561
15885W        W87414  36.938  41.088   3.703
15886W        W87415  27.498  13.201   1.455
15887W        W87416  23.067  15.876  12.376
15888W        W87417   4.071   4.856  11.205
15889W        W87418  16.698  10.631   1.829
15890W        W87419  25.196  19.718   2.236
15891W        W87420  44.365  18.638  14.558
15892W        W87421  40.375   8.178   1.630
15893W        W87422  41.743  37.667  12.191
15894W        W87423  12.364  11.448  14.929
15895W        W87424  16.235  42.592   3.704
15896W        W87425  33.625   8.372  11.561
15897W        W87426   8.036  36.932  11.487
15898W        W87427  20.332  19.504  12.485
15899W        W87428  37.396   7.334  12.019
15900W        W87429   9.863   6.683   1.220
15901W        W87430   0.796  22.794   5.181
15902W        W87431   7.162   3.893  10.704
15903W        W87432  37.265  43.063   9.982
15904W        W87433  22.753   3.344   0.738
15905W        W87434  41.025   2.877  11.073
15906W        W87435   0.772  42.257   0.408
15907W        W87436  29.008   7.198   4.143
15908W        W87437   7.376  28.010   1.768
15909W        W87438  18.598  37.828  13.331
15910W        W87439  31.731  12.861   2.654
15911W        W87440  38.105  39.854   4.698
15912W        W87441  33.888  42.387   3.255
15913W        W87442   1.959  14.803   3.206
15914W        W87443  43.762  34.838  14.392
15915W        W87444  16.892  29.586  13.451
15916W        W87445  39.495   1.884  10.778
15917W        W87446  38.878  29.961   4.532
15918W        W87447  19.694  24.274  12.860
15919W        W87448   4.459   5.678   1.851
15920W        W87449  38.956  26.013   2.447
15921W        W87450  20.969  36.108   2.350
15922W        W87451  15.079   4.896   1.366
15923W        W87452  21.179   5.075   5.092
15924W        W87453  18.306  29.160   2.261
15925W        W87454  25.456  35.305   3.082
15926W        W87455  23.164   8.066  13.144
15927W        W87456  20.101  29.200   0.486
15928W        W87457  25.585  11.332  11.576
15929W        W87458  35.501  27.589  11.399
15930W        W87459  43.577  12.938   2.881
15931W        W87460  25.526  23.886  10.598
15932W        W87461  42.441   3.916   1.677
15933W        W87462  33.078   2.421   0.256
15934W        W87463  20.201  22.765   2.426
15935W        W87464  13.330  26.953  14.026
15936W        W87465   8.286  22.953  11.981
15937W        W87466  37.017   3.269  11.544
15938W        W87467   0.210  28.040   3.949
15939W        W87468  35.225  12.675   1.995
15940W        W87469   8.988  19.675  12.203
15941W        W87470  17.912  33.704  12.025
15942W        W87471  16.188  27.150   0.346
15943W        W87472  42.440  10.807   2.437
15944W        W87473  12.582  15.041  11.644
15945W        W87474  29.823  40.476   4.585
15946W        W87475  25.576   5.111   2.925
15947W        W87476  43.947  38.466   2.728
15948W        W87477  15.018   6.821  13.427
15949W        W87478  28.190  25.025  10.405
15950W        W87479  32.492   2.286  14.826
15951W        W87480  32.781  26.438  14.918
15952W        W87481  34.691  20.783  13.535
15953W        W87482  34.000  17.242  14.547
15954W        W87483   3.714  35.377   3.266
15955W        W87484  19.933  35.443  10.312
15956W        W87485  21.482  30.544   2.648
15957W        W87486  28.900  24.422  12.597
15958W        W87487   1.223  36.638   1.840
15959W        W87488  21.774  42.561  14.927
15960W        W87489   0.066  30.102  12.138
15961W        W87490  40.249  17.268  12.579
15962W        W87491  11.866   2.221  12.315
15963W        W87492  26.100   6.633  12.967
15964W        W87493  20.587  43.102   0.296
15965W        W87494  26.679  31.196  14.098
15966W        W87495   2.730  34.417   0.744
15967W        W87496  36.003  40.497   4.574
15968W        W87497  37.241   7.135   3.209
15969W        W87498   2.394  19.680   4.092
15970W        W87499   2.126  25.871   3.254
15971W        W87500   6.586  32.669   1.536
15972W        W87501  22.499  23.076   4.110
15973W        W87502  36.892  28.216  12.904
15974W        W87503  21.192  28.098  13.839
15975W        W87504  35.322  23.993   3.333
15976W        W87505   1.200  21.269  10.562
15977W        W87506  28.406   6.072   2.347
15978W        W87507  32.683  22.482   2.812
15979W        W87508  30.366  13.357   1.159
15980W        W87509  44.984  13.107  10.697
15981W        W87510  36.878  20.044   3.496
15982W        W87511  36.423   7.772   2.787
15983W        W87512  40.695  19.751   2.347
15984W        W87513  32.256  27.576  12.838
15985W        W87514  18.136  25.423   1.129
15986W        W87515   9.220  35.338   4.574
15987W        W87516  18.605  15.388  13.579
15988W        W87517  21.763  42.902   3.845
15989W        W87518   8.747  12.590  11.992
15990W        W87519   9.871   3.322  10.320
15991W        W87520  33.360  43.811   3.263
15992W        W87521   6.376  21.441   1.802
15993W        W87522  20.941  11.157  12.029
15994W        W87523   2.881  34.000   0.245
15995W        W87524  29.616  15.940  10.809
15996W        W87525  29.710   8.981  12.226
15997W        W87526   9.722  30.976   2.438
15998W        W87527  11.627   5.689  13.687
15999W        W87528   1.541   6.282  13.314
16000W        W87529  10.129  11.529   3.681
16001W        W87530  33.144  26.396  11.033
16002W        W87531  12.288  11.792   2.860
16003W        W87532   6.508  44.454  13.845
16004W        W87533  21.592   4.810   4.868
16005W        W87534   1.145  36.646   3.225
16006W        W87535  42.801   1.930  12.961
16007W        W87536   9.170  29.339   1.777
16008W        W87537  13.457  29.663  13.460
16009W        W87538  10.396  43.762   0.631
16010W        W87539  33.647  17.066   1.896
16011W        W87540  24.941  32.338  11.585
16012W        W87541  26.321  40.330  12.670
16013W        W87542  23.356  37.996  12.454
16014W        W87543  17.665  16.738   0.535
16015W        W87544   7.066  32.511   0.232
16016W        W87545   4.894   9.782   3.080
16017W        W87546  28.040   0.526  13.339
16018W        W87547  22.424  30.191  12.872
16019W        W87548  21.219  29.989  14.866
16020W        W87549  16.902  28.608  14.846
16021W        W87550  25.508  21.266   0.169
16022W        W87551   3.187  36.441   4.162
16023W        W87552  23.251  35.117  10.936
16024W        W87553  41.785  31.340  13.550
16025W        W87554  18.206   6.459  14.716
16026W        W87555  24.065  29.039  11.935
16027W        W87556  22.519  29.504  13.859
16028W        W87557  37.558  12.255  11.745
16029W        W87558  18.374  15.539  12.373
16030W        W87559  22.563  31.468  14.885
16031W        W87560   1.143  43.389   0.432
16032W        W87561  16.047  32.258   0.199
16033W        W87562  16.552   2.969   0.490
16034W        W87563  36.238  13.195   3.837
16035W        W87564  34.076  42.490  12.408
16036W        W87565  26.144  15.532   3.058
16037W        W87566  17.163  38.844  14.382
16038W        W87567  18.434  11.696   1.390
16039W        W87568  42.104  44.401   5.160
16040W        W87569  41.832  12.202  11.041
16041W        W87570   0.679  34.425   3.385
16042W        W87571  19.211  20.401  14.092
16043W        W87572   4.683  12.644  10.756
16044W        W87573  29.878  37.103   0.196
16045W        W87574  26.679   0.958  14.127
16046W        W87575  28.908  40.098  13.311
16047W        W87576  10.490   7.499  11.946
16048W        W87577  22.704  17.350   1.180
16049W        W87578  25.127  42.372  11.650
16050W        W87579  15.516  28.617   2.515
16051W        W87580  18.706  40.352   4.626
16052W        W87581   8.089   7.337   3.193
16053W        W87582  26.519  23.806   4.896
16054W        W87583  44.286  17.339  13.146
16055W        W87584  19.056  38.467  13.013
16056W        W87585  27.661   3.369   0.235
16057W        W87586  19.749  22.067   0.763
16058W        W87587  23.060  31.642  10.422
16059W        W87588  33.621  36.540  12.144
16060W        W87589  27.783   9.041  12.032
16061W        W87590  34.355  10.241  13.996
16062W        W87591   6.255   9.426  10.724
16063W        W87592  18.673  23.757   0.106
16064W        W87593  13.119  40.972  12.867
16065W        W87594  37.790  31.679   0.530
16066W        W87595  18.880  28.322  11.836
16067W        W87596  27.041   6.919  11.901
16068W        W87597  30.251  30.610  10.095
16069W        W87598  30.794  41.056   2.855
16070W        W87599   3.222  17.564   3.280
16071W        W87600  28.487  23.179  10.502
16072W        W87601  20.187  32.896   4.560
16073W        W87602   7.290   8.878   2.796
16074W        W87603   3.149  44.482   0.830
16075W        W87604   7.715  35.789   1.319
16076W        W87605  33.318  26.171  13.911
16077W        W87606   0.381   0.289   3.349
16078W        W87607  29.683  20.242  12.031
16079W        W87608  41.240  34.232  12.268
16080W        W87609  26.755  32.886   0.024
16081W        W87610  41.397  23.040   3.135
16082W        W87611  12.072   2.833  13.000
16083W        W87612  12.329  32.565   3.283
16084W        W87613  10.054  35.496  14.808
16085W        W87614   7.914  34.781   2.711
16086W        W87615  32.126  27.713   0.821
16087W        W87616  20.183  29.056  14.957
16088W        W87617  10.894   9.112  10.723
16089W        W87618  31.921  25.230  12.808
16090W        W87619  32.063  29.681  14.456
16091W        W87620  38.920  25.741   2.910
16092W        W87621  21.038  24.376   4.367
16093W        W87622  35.159  12.188   1.782
16094W        W87623  19.952  31.512  12.861
16095W        W87624  20.509  33.026   2.192
16096W        W87625  36.816  30.661  14.892
16097W        W87626  31.628  13.232  14.988
16098W        W87627  18.823  43.441  13.979
16099W        W87628   2.276  35.492   4.640
16100W        W87629  36.891   4.869  11.606
16101W        W87630   9.093   9.298  11.949
16102W        W87631  29.930   9.558   0.249
16103W        W87632   3.410  35.951   1.373
16104W        W87633  37.825   0.355  11.818
16105W        W87634   6.104  42.816   3.765
16106W        W87635   2.266  33.576  11.668
16107W        W87636  18.950  31.714  12.864
16108W        W87637  18.489  24.338  10.898
16109W        W87638   3.747  29.619   3.181
16110W        W87639  24.737   5.851   3.363
16111W        W87640  21.462  26.711  11.633
16112W        W87641  18.071   4.776   1.054
16113W        W87642  14.405  11.849   0.331
16114W        W87643  26.570   2.090   1.515
16115W        W87644  24.183  25.650  13.278
16116W        W87645  17.722  17.143   3.383
16117W        W87646   2.188  31.303   3.636
16118W        W87647  14.970  11.036   2.804
16119W        W87648   9.649   0.862  12.722
16120W        W87649   3.136  41.854   4.589
16121W        W87650  16.692  15.455  11.802
16122W        W87651  14.681  22.230  14.806
16123W        W87652   3.565  14.177   3.521
16124W        W87653  38.615  30.992  12.040
16125W        W87654  39.993  16.793   1.730
16126W        W87655  30.160  37.770   2.674
16127W        W87656  40.081  19.607  10.683
16128W        W87657   9.328   7.066   2.705
16129W        W87658  23.667  38.258   3.334
16130W        W87659  32.971  23.561   4.247
16131W        W87660   3.877   2.003  11.511
16132W        W87661   6.941  36.985  12.637
16133W        W87662   9.064  34.002   1.734
16134W        W87663  17.832  39.522   0.050
16135W        W87664   0.332  39.306   2.657
16136W        W87665  32.730  12.753   2.876
16137W        W87666  14.386   7.750   1.341
16138W        W87667  40.325  28.542   3.059
16139W        W87668  24.847  35.525  13.048
16140W        W87669  33.686  37.886   1.377
16141W        W87670  37.849  30.377   0.345
16142W        W87671  24.425  18.587   4.649
16143W        W87672   5.701   9.764  13.546
16144W        W87673   7.855  23.604  12.567
16145W        W87674  11.636  31.010  11.563
16146W        W87675  28.060  36.623   3.310
16147W        W87676   0.578   6.125  13.596
16148W        W87677  32.514  12.391   2.126
16149W        W87678  44.431  11.536   4.061
16150W        W87679   1.246  41.462   4.740
16151W        W87680   1.095   1.098   2.679
16152W        W87681  15.635   2.926  14.529
16153W        W87682  25.017  31.352  10.741
16154W        W87683  21.688  10.195  14.290
16155W        W87684  15.237  34.699  13.020
16156W        W87685  31.038  12.595   4.591
16157W        W87686  14.544  41.580   3.821
16158W        W87687  35.961  36.943   1.955
16159W        W87688   2.731  42.396  11.143
16160W        W87689  39.096  43.951   3.506
16161W        W87690  15.729  19.612   2.464
16162W        W87691   7.332  24.801  14.725
16163W        W87692  40.046  36.569  14.141
16164W        W87693  27.433  40.566   0.771
16165W        W87694  10.065  39.102   1.375
16166W        W87695  13.251  41.276   2.264
16167W        W87696  32.091  37.885  10.455
16168W        W87697  34.690   8.353  12.382
16169W        W87698   2.332   0.976  11.605
16170W        W87699  22.722  34.579   3.457
16171W        W87700  33.407   7.840   3.626
16172W        W87701  35.343  41.736  10.430
16173W        W87702  11.149  39.406  14.336
16174W        W87703   1.643  22.928   1.757
16175W        W87704  15.368  25.087   2.564
16176W        W87705  18.416  35.994   4.198
16177W        W87706  26.552  11.048   1.523
16178W        W87707  13.304   9.819   1.855
16179W        W87708  39.232   7.623  11.215
16180W        W87709  16.552   1.876  14.280
16181W        W87710  42.971  35.929   2.578
16182W        W87711  39.336  23.091  14.558
16183W        W87712  12.488  23.626   4.187
16184W        W87713  13.267  31.349  14.129
16185W        W87714  35.873   4.179  12.608
16186W        W87715   2.593  39.154   1.971
16187W        W87716  38.646  28.319   5.067
16188W        W87717   7.997  11.397  14.875
16189W        W87718  35.072  43.344   2.126
16190W        W87719  26.659  21.383   4.627
16191W        W87720  29.913   6.960   3.679
16192W        W87721  40.825  26.996  11.157
16193W        W87722  37.587   7.880   3.212
16194W        W87723  21.828  19.302  12.365
16195W        W87724  29.671  18.331   2.208
16196W        W87725  19.775  32.962   0.588
16197W        W87726   1.104  11.389   2.503
16198W        W87727  16.901  21.472   2.248
16199W        W87728  42.807  43.757   1.970
16200W        W87729  42.859  26.775   1.730
16201W        W87730  35.557  27.576  10.882
16202W        W87731   2.733  30.929   0.044
16203W        W87732  30.163  18.251   0.951
16204W        W87733  43.825   9.335   1.426
16205W        W87734  14.310   6.514   2.794
16206W        W87735  43.857  24.131  13.816
16207W        W87736   2.202  13.896  12.011
16208W        W87737  20.263  21.544   5.002
16209W        W87738  31.719   9.119  10.534
16210W        W87739  31.953  14.546  13.573
16211W        W87740  39.840   3.813   3.024
16212W        W87741  11.121  39.143   2.641
16213W        W87742   8.000  32.942   0.747
16214W        W87743  38.619  19.200  13.477
16215W        W87744   7.818   4.193  14.545
16216W        W87745  29.842  15.340  14.947
16217W        W87746  33.698  44.844  13.097
16218W        W87747   3.905  11.251  11.433
16219W        W87748   5.945  34.453  12.959
16220W        W87749   3.126   8.796   0.604
16221W        W87750   0.358  29.218  12.357
16222W        W87751  24.179   5.724  13.042
16223W        W87752  42.327  34.365   3.642
16224W        W87753  28.613  41.270   4.621
16225W        W87754  44.715   0.859  13.884
16226W        W87755   3.463  31.169   2.721
16227W        W87756   1.514   9.910   0.362
16228W        W87757  14.973  13.284   3.318
16229W        W87758  43.025  32.368  12.593
16230W        W87759  26.269  30.609   4.792
16231W        W87760   3.722  17.541  13.936
16232W        W87761  24.678   9.239  10.545
16233W        W87762  13.453   4.966  14.924
16234W        W87763  32.238  11.779   5.375
16235W        W87764  27.099  44.766  12.892
16236W        W87765  18.653  11.722   3.784
16237W        W87766  20.194  20.075   0.071
16238W        W87767  26.213  25.926  11.327
16239W        W87768   8.895  35.517   0.751
16240W        W87769   8.176  41.066  10.526
16241W        W87770  19.540  40.996   1.491
16242W        W87771  44.218  43.388  14.395
16243W        W87772  16.096  27.655  14.534
16244W        W87773  35.993   0.296  13.380
16245W        W87774  33.676  43.973  11.021
16246W        W87775   4.476  20.959  11.118
16247W        W87776  20.994  23.597  10.601
16248W        W87777  31.451   3.706   4.379
16249W        W87778   9.268  22.670  12.188
16250W        W87779   2.858   1.265   4.652
16251W        W87780   2.199  14.827   1.475
16252W        W87781  35.837  42.021  12.914
16253W        W87782  32.708  26.634  12.600
16254W        W87783  20.521  19.294  14.983
16255W        W87784   4.372  38.540  13.578
16256W        W87785  37.016  20.516   0.209
16257W        W87786  22.452   2.430  14.142
16258W        W87787  44.852  41.881  12.033
16259W        W87788   7.197  34.008  13.504
16260W        W87789  16.227  34.705   5.051
16261W        W87790  17.980  12.309   3.713
16262W        W87791  20.199   2.257  11.072
16263W        W87792  20.149  28.812  11.721
16264W        W87793  16.100   2.686  14.553
16265W        W87794   7.011   8.356  14.844
16266W        W87795  29.578   6.877  10.402
16267W        W87796  24.230  27.521  10.415
16268W        W87797  21.343   0.291   0.939
16269W        W87798   8.765  33.632  13.789
16270W        W87799  34.431  23.171  14.659
16271W        W87800   0.597  41.951  12.659
16272W        W87801   5.851  40.367   2.462
16273W        W87802   7.686  27.733  10.701
16274W        W87803  22.091   5.354   2.343
16275W        W87804  27.150   7.500  14.584
16276W        W87805  37.054  25.397  11.099
16277W        W87806  28.961   4.931   2.853
16278W        W87807  44.388  25.190   3.370
16279W        W87808  38.326   2.723  13.494
16280W        W87809  23.509  29.438  14.712
16281W        W87810  30.558  37.458   0.386
16282W        W87811  43.945  37.672  11.030
16283W        W87812  33.360  16.650  11.135
16284W        W87813  24.750  36.465   1.857
16285W        W87814   9.375  17.138   3.194
16286W        W87815  12.338  30.213   0.721
16287W        W87816   6.152  23.026   1.204
16288W        W87817   0.539  18.272   2.740
16289W        W87818  34.855   5.791  10.633
16290W        W87819   4.958  33.500   2.383
16291W        W87820  16.237  38.067  14.790
16292W        W87821  35.666   1.850   4.502
16293W        W87822  33.673   4.423   1.206
16294W        W87823  34.006   2.494   3.798
16295W        W87824  13.896   5.132   0.495
16296W        W87825   5.348  19.274  13.716
16297W        W87826   4.913  14.663  10.655
16298W        W87827  14.144   1.525   4.155
16299W        W87828  12.856   1.206  11.224
16300W        W87829   0.131   3.831   3.415
16301W        W87830  29.259  17.295   0.316
16302W        W87831  36.355   7.324  11.561
16303W        W87832  22.236  39.806   3.227
16304W        W87833  26.868  24.008   1.216
16305W        W87834  19.824  27.698   3.317
16306W        W87835  15.103  21.388   0.734
16307W        W87836   1.583  37.941  13.061
16308W        W87837   6.700  28.886   1.201
16309W        W87838  37.016  36.789  12.608
16310W        W87839  38.157  14.831   4.445
16311W        W87840  23.474  20.145  14.377
16312W        W87841  26.228  38.546  13.431
16313W        W87842  36.075  13.644  12.230
16314W        W87843  28.049   0.537  12.332
16315W        W87844  34.360  44.754   3.223
16316W        W87845  10.053   3.670   4.622
16317W        W87846  17.325  43.577   1.701
16318W        W87847   7.806  28.052   2.068
16319W        W87848  25.386  25.264  11.107
16320W        W87849  14.677  13.135   2.933
16321W        W87850   4.120  13.820  14.472
16322W        W87851  18.476   3.183   3.231
16323W        W87852   5.461  39.478  11.538
16324W        W87853  42.713  16.366  14.267
16325W        W87854  36.992  36.239  13.334
16326W        W87855  29.714   2.432   2.919
16327W        W87856  23.846  16.053   3.207
16328W        W87857  33.980  42.753  12.956
16329W        W87858  21.316  20.122   1.198
16330W        W87859  18.267  37.679  11.173
16331W        W87860  21.544  25.587  13.492
16332W        W87861  14.657  25.547   1.430
16333W        W87862  40.335   7.672   2.350
16334W        W87863  37.865  41.057   1.185
16335W        W87864   4.801  28.541  13.770
16336W        W87865  44.707  27.021   1.422
16337W        W87866   5.721   8.881   0.800
16338W        W87867  26.417   8.597  12.504
16339W        W87868  39.423  43.049   3.105
16340W        W87869   9.364  11.513  13.968
16341W        W87870  32.464   5.516  13.070
16342W        W87871  11.689  31.290   0.365
16343W        W87872  16.246  33.846   0.371
16344W        W87873  13.814  19.518   0.953
16345W        W87874  42.334  25.022   3.761
16346W        W87875  42.256  42.452  10.796
16347W        W87876  38.099  19.360   3.764
16348W        W87877  12.402   7.864  12.728
16349W        W87878  38.283   3.776  13.382
16350W        W87879   8.233   2.867  14.690
16351W        W87880  36.648   8.260   3.523
16352W        W87881  20.073  24.180  11.123
16353W        W87882  44.222  42.872  14.295
16354W        W87883  33.441  19.476   2.394
16355W        W87884  41.575  44.991   2.675
16356W        W87885   3.181  20.488   4.284
16357W        W87886  25.985   7.220   2.296
16358W        W87887  39.065  17.696  14.940
16359W        W87888  29.945  43.985  10.760
16360W        W87889   3.915  35.397  11.912
16361W        W87890   6.957   4.227  12.444
16362W        W87891  26.587  41.331   3.958
16363W        W87892  31.511  21.857   0.976
16364W        W87893  41.801  40.969   1.496
16365W        W87894   1.471  37.975   1.341
16366W        W87895  19.322   2.347   1.337
16367W        W87896  14.831  38.945   2.494
16368W        W87897  16.135  44.619   3.107
16369W        W87898  42.048  40.376   2.230
16370W        W87899  38.981  32.378  13.411
16371W        W87900  22.608  39.776   4.135
16372W        W87901  26.321  29.530  10.336
16373W        W87902  26.970   7.340  12.200
16374W        W87903   1.011  14.794  10.717
16375W        W87904  13.793  14.819   4.268
16376W        W87905   2.487   4.858   4.662
16377W        W87906  43.559  40.846   4.433
16378W        W87907  12.063  21.760   2.831
16379W        W87908  29.747  14.812  13.867
16380W        W87909   6.479  25.238   3.767
16381W        W87910  22.507  41.100  12.593
16382W        W87911  34.860   5.712   4.258
16383W        W87912  38.775   4.799  11.486
16384W        W87913  21.310  42.879   3.236
16385W        W87914  15.705  17.985  13.851
16386W        W87915  25.288  11.764   4.551
16387W        W87916   6.127   4.704  11.648
16388W        W87917  30.082  19.744  10.738
16389W        W87918  16.830  19.236   0.567
16390W        W87919  23.959  33.356   2.792
16391W        W87920  33.902  22.626   0.696
16392W        W87921  26.757  41.844   4.043
16393W        W87922   9.425  36.046   4.140
16394W        W87923   0.862   2.964  12.146
16395W        W87924  33.041  31.192   2.253
16396W        W87925  38.042  19.654  12.938
16397W        W87926  36.613  20.788  13.474
16398W        W87927  35.142  17.961  12.048
16399W        W87928  28.378  18.045  14.432
16400W        W87929  36.526  11.347   0.679
16401W        W87930   6.596   4.542   2.332
16402W        W87931   6.801  33.600   3.634
16403W        W87932  13.770  31.082   0.553
16404W        W87933   6.447  11.304  12.955
16405W        W87934  34.026  10.775   2.215
16406W        W87935  24.358  12.372  12.603
16407W        W87936  12.839  41.411  12.961
16408W        W87937   4.270  17.649  14.789
16409W        W87938  43.397  35.948  14.466
16410W        W87939  27.023  36.817  13.459
16411W        W87940  21.657  10.554   0.267
16412W        W87941  17.733  27.056   2.980
16413W        W87942  17.933  10.711  12.042
16414W        W87943   5.417   7.180   4.517
16415W        W87944  43.001  25.477  14.786
16416W        W87945  20.812  19.100   3.690
16417W        W87946   4.331  27.176   4.198
16418W        W87947   1.241  10.147  13.451
16419W        W87948  28.199   8.284  14.514
16420W        W87949  37.615   8.667  12.579
16421W        W87950  16.369  37.357   1.267
16422W        W87951  22.089  41.312   1.438
16423W        W87952  10.287  37.010   1.537
16424W        W87953  14.686   1.235  12.084
16425W        W87954  11.074  13.385  11.110
16426W        W87955  13.319  44.584   4.141
16427W        W87956   2.785  31.839  14.365
16428W        W87957  24.166  21.800  14.951
16429W        W87958  15.705  10.116   1.899
16430W        W87959  38.849  27.143   4.305
16431W        W87960  36.889  37.279   4.124
16432W        W87961  15.169  27.396   1.762
16433W        W87962   3.873   6.645   2.093
16434W        W87963  44.260  20.490  14.539
16435W        W87964  22.394  37.785  10.584
16436W        W87965  21.067   9.692  14.973
16437W        W87966  42.401   5.402  14.331
16438W        W87967  18.702   7.204  11.139
16439W        W87968  11.770  16.966   9.851
16440W        W87969  29.064  35.939   0.345
16441W        W87970  20.477  22.104  10.719
16442W        W87971   8.302  23.523   4.547
16443W        W87972  12.642  17.683   4.612
16444W        W87973  41.920  41.652   4.869
16445W        W87974  27.820   3.733   2.246
16446W        W87975   2.422   5.471  11.998
16447W        W87976  21.118   6.737  12.972
16448W        W87977  23.328  22.508  13.987
16449W        W87978  25.494  14.099   1.510
16450W        W87979   1.483  22.564   4.623
16451W        W87980  12.083  40.059   1.555
16452W        W87981  37.419   6.345  14.990
16453W        W87982   5.750   2.682   1.781
16454W        W87983  40.847  15.539   0.656
16455W        W87984   9.734  34.233  11.136
16456W        W87985  27.142   1.256  11.703
16457W        W87986  12.197  38.309  13.982
16458W        W87987  11.401   2.933   5.098
16459W        W87988   0.502   7.161   1.899
16460W        W87989  43.225  27.125  14.562
16461W        W87990   0.304  23.241   0.227
16462W        W87991   4.060  21.195  12.240
16463W        W87992  11.935  30.180  12.409
16464W        W87993  29.987  39.298   1.917
16465W        W87994  28.690  42.408  12.017
16466W        W87995  25.669  10.682   3.100
16467W        W87996  24.165  33.249  10.529
16468W        W87997   2.548  12.157  13.417
16469W        W87998  19.408   3.756   3.790
16470W        W87999  12.376  34.410   0.658
16471W        W88000  38.512  15.492  12.983
16472W        W88001  37.957  19.871  11.212
16473W        W88002  41.377  18.299  11.160
16474W        W88003   2.979  32.881   3.042
16475W        W88004  17.806  22.223   4.817
16476W        W88005  37.582  32.188   4.636
16477W        W88006  18.599  44.527   2.829
16478W        W88007  26.283   7.264  14.024
16479W        W88008   1.307   3.939  10.983
16480W        W88009  39.122  38.118  12.565
16481W        W88010  32.065   9.081  12.215
16482W        W88011  32.847  14.602   3.801
16483W        W88012  34.208  40.726  14.524
16484W        W88013  21.496  26.339  14.908
16485W        W88014  20.817  31.502  13.413
16486W        W88015  21.548  14.691   3.558
16487W        W88016   3.203   3.695   0.374
16488W        W88017   0.364  33.442  11.852
16489W        W88018  26.423  12.677  12.914
16490W        W88019  19.700  35.752  12.495
16491W        W88020  26.160  27.929   4.720
16492W        W88021  42.024  23.917   1.845
16493W        W88022  33.068   9.696   0.447
16494W        W88023  41.778  30.405   5.111
16495W        W88024   4.246  41.028   3.595
16496W        W88025  37.319   8.471  11.492
16497W        W88026   6.911  12.736   4.053
16498W        W88027   5.259   0.159   0.017
16499W        W88028  40.724  18.184   3.741
16500W        W88029   5.729  17.203  13.391
16501W        W88030  23.370  38.031  14.291
16502W        W88031  43.531  22.596  13.848
16503W        W88032   2.776  24.586  11.067
16504W        W88033  19.772  26.288   4.771
16505W        W88034   5.254  32.241   0.272
16506W        W88035  12.003  18.598  14.359
16507W        W88036  33.026  19.274  10.685
16508W        W88037  37.263  27.064   0.324
16509W        W88038   1.386  24.658  14.031
16510W        W88039  32.837  41.953   2.313
16511W        W88040   3.923   5.748  13.107
16512W        W88041  26.787  19.518   5.035
16513W        W88042   0.951  35.186  13.575
16514W        W88043  31.878   6.389   1.139
16515W        W88044  44.772  13.101   1.840
16516W        W88045  40.565   9.924   2.287
16517W        W88046   7.797  17.649   0.298
16518W        W88047  16.740  27.199  12.598
16519W        W88048   0.312  20.632   1.243
16520W        W88049  19.311   4.787   3.734
16521W        W88050  22.769  28.894  14.025
16522W        W88051  18.114  10.001  10.738
16523W        W88052  24.746   5.106  13.873
16524W        W88053  17.162  32.891   1.369
16525W        W88054  29.885  12.253   0.274
16526W        W88055  14.698  15.400   2.262
16527W        W88056  31.111  31.381  10.974
16528W        W88057  40.302  21.709  10.724
16529W        W88058   8.805  31.615   1.266
16530W        W88059   2.871  29.247  11.940
16531W        W88060   3.127  21.482   2.300
16532W        W88061  19.036  19.543   2.179
16533W        W88062  36.642  39.911  11.515
16534W        W88063  40.479  24.142  13.417
16535W        W88064  44.422  30.482  14.052
16536W        W88065   4.835   5.749   2.641
16537W        W88066  39.605  39.822   0.635
16538W        W88067  26.574   9.696  10.372
16539W        W88068  35.470  44.319  14.944
16540W        W88069   4.847  29.091   3.425
16541W        W88070  26.422  40.368   2.751
16542W        W88071  44.383  29.356  13.127
16543W        W88072  16.160  35.584   0.017
16544W        W88073  27.208  13.914   4.164
16545W        W88074  27.526  15.158  13.682
16546W        W88075  12.231  26.329   3.689
16547W        W88076  44.033  24.081   1.729
16548W        W88077  20.326  18.853  11.736
16549W        W88078  16.040  37.143   0.122
16550W        W88079  17.680  44.948   0.433
16551W        W88080  33.318  41.396  11.533
16552W        W88081  12.272   3.409  11.663
16553W        W88082  37.855  28.726  10.845
16554W        W88083   8.758   8.925  11.573
16555W        W88084  29.785  20.822  14.015
16556W        W88085   1.904  14.414   4.761
16557W        W88086   7.604  21.523  10.461
16558W        W88087  22.905  42.398  12.056
16559W        W88088  17.857  15.234   0.832
16560W        W88089  16.492  11.256  14.942
16561W        W88090  19.560  13.703   4.675
16562W        W88091  39.827  19.213   3.862
16563W        W88092  18.661  25.462   4.387
16564W        W88093  10.219  35.873   2.084
16565W        W88094   6.270  29.792   4.598
16566W        W88095   6.735   4.294   0.947
16567W        W88096  27.153  21.051   3.404
16568W        W88097  22.748  22.330  12.166
16569W        W88098   6.347   7.713  11.227
16570W        W88099   9.567   5.838   4.628
16571W        W88100  37.315  22.246  11.103
16572W        W88101   0.711  38.040  13.025
16573W        W88102   0.466  25.607   1.049
16574W        W88103   3.756  22.215  13.928
16575W        W88104  22.596  32.674  12.079
16576W        W88105  36.525  36.076  12.672
16577W        W88106  40.051  23.558  14.486
16578W        W88107  34.267  28.667   3.591
16579W        W88108  29.738  26.171   0.748
16580W        W88109  40.470  27.857  10.619
16581W        W88110  11.370  31.065   2.756
16582W        W88111   3.760  14.570   4.479
16583W        W88112  36.388  31.180   3.201
16584W        W88113  10.945  18.293  12.177
16585W        W88114   7.773  16.863  13.470
16586W        W88115  44.661   8.673   2.763
16587W        W88116   6.759  44.467   4.911
16588W        W88117  30.067   5.303   1.425
16589W        W88118   5.097  26.601  13.325
16590W        W88119  18.294  23.557   4.568
16591W        W88120  44.269  11.584  14.951
16592W        W88121  41.995  28.513   3.459
16593W        W88122  41.609  18.981   0.494
16594W        W88123   8.330   9.826  10.965
16595W        W88124  28.613  32.614   1.057
16596W        W88125  40.882  44.025   1.898
16597W        W88126  10.312  28.954   1.491
16598W        W88127  22.650   7.426  12.553
16599W        W88128  21.076   9.516   2.155
16600W        W88129  34.312  25.680   3.222
16601W        W88130  10.338  19.649   1.920
16602W        W88131  22.639  13.961  12.875
16603W        W88132   6.876  16.187   3.184
16604W        W88133  35.483  37.285  11.210
16605W        W88134  14.654  33.800   1.391
16606W        W88135  16.809  10.211  12.629
16607W        W88136   7.240  12.900  13.991
16608W        W88137  39.220  10.758  11.678
16609W        W88138   7.769   9.930   2.367
16610W        W88139  19.391  37.284   2.917
16611W        W88140  17.691  26.462   4.561
16612W        W88141  36.334  11.097   3.128
16613W        W88142  30.805  33.819   3.129
16614W        W88143  27.460  11.620  13.620
16615W        W88144  40.455  34.989   4.077
16616W        W88145  18.172  29.828  12.106
16617W        W88146  24.913   7.171  11.119
16618W        W88147  25.650   3.311   2.379
16619W        W88148  41.331  20.016  11.143
16620W        W88149  32.322  22.066   2.663
16621W        W88150   3.463  40.423   2.357
16622W        W88151   0.037  25.683   0.747
16623W        W88152   5.913  33.417  11.153
16624W        W88153  41.400  41.672  13.109
16625W        W88154  32.396  44.805  14.897
16626W        W88155  18.141   5.280   0.928
16627W        W88156   2.064  32.859  11.692
16628W        W88157   5.430  39.246  12.887
16629W        W88158  35.021   1.915  11.155
16630W        W88159  44.261  21.576  14.834
16631W        W88160  31.624  33.383   0.037
16632W        W88161  33.624  27.093   2.806
16633W        W88162   5.879  26.767   0.174
16634W        W88163   4.895   4.462  13.964
16635W        W88164  28.772  31.642  13.726
16636W        W88165  44.411  28.027   2.944
16637W        W88166  24.721  40.922   1.215
16638W        W88167  10.204   2.952   2.384
16639W        W88168   2.744   3.422   0.425
16640W        W88169  41.021  39.893   4.497
16641W        W88170   3.729  44.694   4.001
16642W        W88171  44.009  33.851  12.679
16643W        W88172  31.391   6.357  12.119
16644W        W88173  16.683   0.163  12.484
16645W        W88174  39.771  35.409   0.975
16646W        W88175  34.912  41.386  11.570
16647W        W88176  15.283   0.796   3.247
16648W        W88177  42.991  43.169  14.941
16649W        W88178  39.869  39.140   3.175
16650W        W88179  15.935   9.513   4.136
16651W        W88180  34.024  44.411   9.943
16652W        W88181  34.290   2.230  13.501
16653W        W88182  35.470   2.419   3.649
16654W        W88183  20.171  26.746   2.192
16655W        W88184  33.117  34.058  11.618
16656W        W88185   6.052  25.881   0.862
16657W        W88186  34.212   1.407   4.759
16658W        W88187   0.430  14.328   2.971
16659W        W88188  32.432  19.253   1.010
16660W        W88189  17.027   4.185   2.844
16661W        W88190  25.678  21.559   1.148
16662W        W88191   6.254   3.778  12.573
16663W        W88192  29.655  27.495   3.642
16664W        W88193  13.558  32.331  12.397
16665W        W88194  13.071  21.081   3.361
16666W        W88195  31.156  22.605   1.328
16667W        W88196  25.452  39.281   3.223
16668W        W88197  19.863   2.516   0.500
16669W        W88198   3.772  29.589  11.136
16670W        W88199  39.377  43.186   3.604
16671W        W88200  42.048   6.763   2.715
16672W        W88201  38.014  41.886  11.589
16673W        W88202  23.994  37.963   3.922
16674W        W88203  23.580  42.019  12.095
16675W        W88204   4.678   4.929  13.929
16676W        W88205  30.311  20.688   3.397
16677W        W88206   6.773   5.808  12.169
16678W        W88207  31.068  19.089  11.485
16679W        W88208  42.853  11.177   1.827
16680W        W88209   7.235  21.180  10.340
16681W        W88210  33.165   5.866   3.294
16682W        W88211   6.411  23.844  10.749
16683W        W88212  14.787  10.948  12.450
16684W        W88213   5.430  30.462  13.064
16685W        W88214  32.173  27.387   2.709
16686W        W88215  42.021  33.407   1.483
16687W        W88216   2.552   6.956   1.630
16688W        W88217   4.615  44.498  13.104
16689W        W88218  28.246  14.861  14.560
16690W        W88219  17.353  35.930   0.953
16691W        W88220   7.275  41.330   3.479
16692W        W88221  26.803  43.222   1.332
16693W        W88222  15.289   4.444   1.438
16694W        W88223  24.345  14.264   4.180
16695W        W88224  36.605   1.283   3.724
16696W        W88225  24.231  33.267   4.125
16697W        W88226  15.209   4.365   0.064
16698W        W88227  22.243   5.411   2.833
16699W        W88228  44.841  30.554  13.732
16700W        W88229   2.229  29.966   1.796
16701W        W88230  38.997  36.044   4.714
16702W        W88231  31.919  12.465   0.835
16703W        W88232  20.016  10.526   1.874
16704W        W88233  16.417  28.203   4.182
16705W        W88234  39.212  11.704  11.270
16706W        W88235   0.649  34.418  10.898
16707W        W88236  35.361  36.249  13.114
16708W        W88237  23.188  20.926  13.732
16709W        W88238   3.293  33.728  14.332
16710W        W88239  33.201   8.436   0.733
16711W        W88240  23.734  33.831   2.726
16712W        W88241  12.657  32.536  13.339
16713W        W88242   1.482  26.301   2.404
16714W        W88243  28.664  38.992  12.815
16715W        W88244  18.056  29.614  11.126
16716W        W88245  13.109  18.373   1.455
16717W        W88246  14.659   0.566  14.045
16718W        W88247  20.277  21.688   2.196
16719W        W88248  32.136  10.213  13.727
16720W        W88249  41.013  42.404   4.392
16721W        W88250  13.231  14.550   4.564
16722W        W88251  18.695  32.258  13.982
16723W        W88252  25.174  35.664   2.318
16724W        W88253  16.798   5.376  12.458
16725W        W88254  40.527  43.620   2.626
16726W        W88255  12.116  14.647   3.665
16727W        W88256  34.031  41.785  13.766
16728W        W88257  10.531  24.748  11.181
16729W        W88258  40.539   3.870   2.740
16730W        W88259  28.493  13.351   4.993
16731W        W88260  34.832  18.953  14.015
16732W        W88261  28.269   0.235   1.404
16733W        W88262  19.704  37.346  12.497
16734W        W88263  19.904   8.916   4.697
16735W        W88264  29.999   0.446   1.101
16736W        W88265  20.763  38.066   0.884
16737W        W88266  21.520  35.645   3.146
16738W        W88267  39.999  41.366   0.330
16739W        W88268  18.773  31.264   1.329
16740W        W88269  31.695   0.483  10.673
16741W        W88270  42.230  32.888   1.699
16742W        W88271  10.678  35.908   0.749
16743W        W88272  33.455  43.507  11.193
16744W        W88273  24.689  15.020   1.088
16745W        W88274  17.112   4.334   3.797
16746W        W88275   5.420  22.607   0.427
16747W        W88276  21.755  17.827  14.965
16748W        W88277  43.509  43.500   4.173
16749W        W88278  10.120  19.303  10.268
16750W        W88279  24.544  18.914  13.392
16751W        W88280  24.782  39.953  14.066
16752W        W88281  36.595  42.665   2.573
16753W        W88282  12.654  10.405   2.886
16754W        W88283  24.556  11.188   2.466
16755W        W88284   7.347  41.475  14.894
16756W        W88285  30.641   7.062  11.035
16757W        W88286  26.505  36.466  11.575
16758W        W88287   3.410  20.204   2.937
16759W        W88288  38.215  26.079   2.897
16760W        W88289  31.913  23.982  11.686
16761W        W88290  18.004  21.931   0.375
16762W        W88291  26.731   2.413   2.290
16763W        W88292  10.296   5.620   1.496
16764W        W88293   0.399  13.223  13.883
16765W        W88294   0.470  38.571   3.650
16766W        W88295  27.518  14.207  12.065
16767W        W88296  32.674  35.957   4.171
16768W        W88297  21.446  23.486  13.880
16769W        W88298   3.295   5.691   1.748
16770W        W88299  31.383  35.015   3.596
16771W        W88300  33.977  44.213  13.379
16772W        W88301  38.771  27.580  14.822
16773W        W88302   3.912  30.779   4.508
16774W        W88303  25.024  44.817   3.136
16775W        W88304  20.085  23.197   1.600
16776W        W88305  34.972   3.068   2.672
16777W        W88306  31.750  32.900  10.054
16778W        W88307  23.228  24.432  11.107
16779W        W88308   2.587  32.922  11.114
16780W        W88309  15.585  32.055  14.313
16781W        W88310  30.643  11.430   2.289
16782W        W88311  37.054   4.352   1.002
16783W        W88312  27.501  19.352   1.032
16784W        W88313  33.506  16.270  14.781
16785W        W88314  26.084  29.534   4.630
16786W        W88315  36.878  41.373   1.179
16787W        W88316  30.623   0.062   2.258
16788W        W88317  20.330   7.912   3.299
16789W        W88318  41.837  36.024  14.443
16790W        W88319  10.442  30.397   2.331
16791W        W88320   2.482  37.291   5.010
16792W        W88321  37.494  12.346  12.244
16793W        W88322   0.772  18.128   3.182
16794W        W88323  17.177  16.335  10.714
16795W        W88324   6.154   7.228  11.207
16796W        W88325  33.157  43.858  14.404
16797W        W88326  39.612  32.291   5.044
16798W        W88327   6.930  21.841  13.875
16799W        W88328  33.640  25.897  11.492
16800W        W88329   6.929  11.392  10.656
16801W        W88330  14.406  10.251   3.534
16802W        W88331  24.368  18.520  11.278
16803W        W88332  19.130  30.756   4.550
16804W        W88333  28.253  30.847   2.848
16805W        W88334  44.308   9.768  13.849
16806W        W88335   0.494  32.330  10.229
16807W        W88336  42.204   6.810   0.275
16808W        W88337   2.753  35.964   2.143
16809W        W88338  29.993  13.135  12.943
16810W        W88339  36.298  41.870  13.118
16811W        W88340  27.686   1.274  11.033
16812W        W88341   4.533   8.745  11.183
16813W        W88342  13.100  23.946   1.888
16814W        W88343  14.135   7.017   2.081
16815W        W88344   5.739   1.735   2.189
16816W        W88345  21.910   5.783  10.614
16817W        W88346  33.650   6.752  10.251
16818W        W88347  36.883   1.712   2.122
16819W        W88348  31.926  44.269  13.871
16820W        W88349  27.536  44.737  12.604
16821W        W88350  34.070  26.509   1.002
16822W        W88351  12.337  19.481   1.422
16823W        W88352  13.132  34.489  13.904
16824W        W88353  41.950  40.258   3.706
16825W        W88354   7.450   1.785  14.544
16826W        W88355  32.359  16.201   0.397
16827W        W88356  40.014  21.916  14.901
16828W        W88357   8.206  11.373  13.087
16829W        W88358   9.603  12.401   3.661
16830W        W88359  43.755  14.846   1.686
16831W        W88360  20.032  43.028   1.332
16832W        W88361  30.854  20.922  14.476
16833W        W88362  31.654  11.594   2.298
16834W        W88363   7.292  16.014  11.656
16835W        W88364  12.207  10.128  11.931
16836W        W88365  13.076  40.458  10.712
16837W        W88366  16.849  39.596   2.605
16838W        W88367   0.304  33.916   2.590
16839W        W88368   8.494  32.976   1.016
16840W        W88369  36.033  36.961  10.666
16841W        W88370  31.816  35.473   2.349
16842W        W88371   2.594   7.305  12.116
16843W        W88372  20.189   1.820  12.961
16844W        W88373  18.097   0.327   3.713
16845W        W88374   6.775   0.264   4.090
16846W        W88375  15.233  40.317   3.635
16847W        W88376  10.416   7.216  11.503
16848W        W88377  11.899  25.650   2.342
16849W        W88378  35.105  35.298   4.842
16850W        W88379   9.457  12.319  11.910
16851W        W88380   7.469   2.471  14.872
16852W        W88381  29.984   4.609   1.189
16853W        W88382   6.448  33.591  10.488
16854W        W88383  33.750  26.186  14.725
16855W        W88384  38.232   7.899  12.026
16856W        W88385  27.547  43.293   1.797
16857W        W88386  22.929   3.610  11.659
16858W        W88387   9.405  13.459   0.308
16859W        W88388   1.396  19.997  11.212
16860W        W88389  39.265  33.951  12.409
16861W        W88390  34.523  31.096  13.200
16862W        W88391  14.304  16.149   2.955
16863W        W88392  37.651   6.163  14.503
16864W        W88393   3.294  17.167   2.956
16865W        W88394  35.386  36.335  14.908
16866W        W88395  13.739  33.101   4.596
16867W        W88396  26.387  14.416  11.653
16868W        W88397  19.786  21.039  14.320
16869W        W88398  25.822   6.623   0.386
16870W        W88399  16.086  33.423  11.960
16871W        W88400   6.217  13.092   0.462
16872W        W88401  16.605  16.060   3.274
16873W        W88402  10.380  41.377  12.202
16874W        W88403  23.551  14.293  10.684
16875W        W88404  29.713  27.552   2.893
16876W        W88405  23.406  19.714  13.090
16877W        W88406  30.896   1.882  11.192
16878W        W88407  28.701  40.962  14.988
16879W        W88408  36.521  18.479  13.071
16880W        W88409  22.262  38.611   2.683
16881W        W88410  27.427  16.136  13.980
16882W        W88411  39.974  36.799   4.504
16883W        W88412  30.290  11.174   2.671
16884W        W88413  18.300  39.491   4.274
16885W        W88414  14.118   4.208  12.226
16886W        W88415  25.440   0.900   3.738
16887W        W88416  15.225  42.807   1.878
16888W        W88417   9.136  36.487  11.151
16889W        W88418  14.417   1.033  14.894
16890W        W88419  10.172  11.895   0.337
16891W        W88420  16.182  32.967   4.135
16892W        W88421  29.351   5.829  14.152
16893W        W88422  35.662  10.730  12.885
16894W        W88423  30.928  14.132  12.799
16895W        W88424  14.026  21.833  14.314
16896W        W88425  27.045   0.029   4.716
16897W        W88426   9.636  32.647   0.419
16898W        W88427  41.816  10.844   0.407
16899W        W88428   4.210  41.926   4.530
16900W        W88429  11.347  31.592   0.642
16901W        W88430  15.333  10.532  10.318
16902W        W88431  34.490  11.006   4.302
16903W        W88432   0.020  19.769   2.749
16904W        W88433  15.215   3.667   1.221
16905W        W88434  26.069  26.223  12.598
16906W        W88435  24.279  26.200   1.852
16907W        W88436  29.190  38.311  13.831
16908W        W88437  42.662  15.133   3.498
16909W        W88438  35.225  42.827  12.434
16910W        W88439  41.450  31.920   4.209
16911W        W88440   7.597  26.574  14.965
16912W        W88441  40.277  18.776   1.309
16913W        W88442  44.825   3.641  14.924
16914W        W88443  37.301   2.790   1.397
16915W        W88444  18.075  28.876  12.984
16916W        W88445  31.513  21.625  12.467
16917W        W88446  30.643  34.561   0.781
16918W        W88447  16.619   1.961   3.685
16919W        W88448  34.352  16.185  14.133
16920W        W88449  10.855   2.200   1.382
16921W        W88450  10.895   7.421  11.644
16922W        W88451   2.175   9.257   1.762
16923W        W88452  27.205  34.506   0.055
16924W        W88453  22.506  24.201   4.823
16925W        W88454  30.102  37.932   3.164
16926W        W88455  25.252  43.995   4.593
16927W        W88456  38.558  39.970  13.563
16928W        W88457  22.409  31.980  14.784
16929W        W88458  17.218  44.325   4.597
16930W        W88459  36.345  13.711  13.882
16931W        W88460  20.860   6.962  12.049
16932W        W88461  10.592  17.771  14.914
16933W        W88462  17.627  18.980  11.033
16934W        W88463  20.339  31.583   0.261
16935W        W88464  17.166  20.075  14.918
16936W        W88465  10.734   8.883  12.426
16937W        W88466  18.294  26.607  10.596
16938W        W88467  27.711  18.139   4.135
16939W        W88468  38.991  18.285   0.703
16940W        W88469  25.700  28.646   1.922
16941W        W88470  40.901  17.405  13.323
16942W        W88471  27.067   0.575  11.137
16943W        W88472   7.634  21.168   0.898
16944W        W88473  26.127   1.823  14.329
16945W        W88474  40.654   5.620  12.922
16946W        W88475   6.518  42.529   1.728
16947W        W88476   6.827   7.093  12.530
16948W        W88477  41.320   2.544  10.788
16949W        W88478   8.210  16.244   4.377
16950W        W88479   5.275   5.682   0.359
16951W        W88480  29.561   5.677   2.682
16952W        W88481  40.331  32.136   1.137
16953W        W88482  33.921   0.316  12.421
16954W        W88483  34.601  10.888  10.715
16955W        W88484  38.972  22.235   1.291
16956W        W88485  25.059   8.376   1.831
16957W        W88486  37.143  32.837  14.560
16958W        W88487  41.292  41.019   3.289
16959W        W88488  37.039  44.764  14.400
16960W        W88489   2.270   9.791  10.720
16961W        W88490  22.657  22.909  10.211
16962W        W88491  10.577  32.786  13.825
16963W        W88492   3.655   7.272  12.413
16964W        W88493  25.393  10.317  11.126
16965W        W88494  11.735   9.753  10.783
16966W        W88495  15.126  34.489   0.452
16967W        W88496  23.670  27.555   3.701
16968W        W88497  32.823  11.670   2.880
16969W        W88498   4.708  14.247  11.005
16970W        W88499  19.568  26.377  10.936
16971W        W88500   2.384   2.924   0.943
16972W        W88501   4.682  37.037   0.214
16973W        W88502  28.645  17.082  11.050
16974W        W88503   0.284  23.607  13.055
16975W        W88504  12.412  35.551   2.164
16976W        W88505  11.601  42.496  11.691
16977W        W88506  13.180  28.672  12.382
16978W        W88507   3.415  18.314  10.910
16979W        W88508   2.432   5.337   0.541
16980W        W88509  16.397   3.420   0.315
16981W        W88510   0.903   5.008   1.014
16982W        W88511  28.954  18.603   3.486
16983W        W88512  27.560  44.762  13.542
16984W        W88513  26.202   9.203  14.323
16985W        W88514  40.931  43.764   1.364
16986W        W88515  21.163  28.699  11.644
16987W        W88516  19.243  17.030   1.736
16988W        W88517  22.715  29.982  13.962
16989W        W88518  25.708   1.901  13.520
16990W        W88519  26.907  29.145  11.446
16991W        W88520  37.524  27.123  11.584
16992W        W88521   8.293  42.126  12.377
16993W        W88522  30.268  37.459   2.280
16994W        W88523   0.822  40.559  14.928
16995W        W88524  41.859   2.527  10.766
16996W        W88525  18.446  14.263   3.271
16997W        W88526  29.087  39.436   1.893
16998W        W88527  17.948  15.621   0.174
16999W        W88528   6.233  17.787  12.474
17000W        W88529  38.278   1.999  13.365
17001W        W88530  25.049  34.377  11.671
17002W        W88531  32.074   0.983   3.338
17003W        W88532   2.539  24.590  13.349
17004W        W88533  25.363  39.002  11.086
17005W        W88534  41.220  21.123  14.430
17006W        W88535  39.598  24.584  13.460
17007W        W88536  41.028  30.602  11.787
17008W        W88537  13.403  14.696  12.475
17009W        W88538   9.363  35.990   2.195
17010W        W88539  17.724  40.970  12.292
17011W        W88540  20.195  43.865  14.071
17012W        W88541  13.315  35.572   0.473
17013W        W88542   1.863  28.289   0.077
17014W        W88543  20.159  21.604   4.481
17015W        W88544   3.464   9.656  14.581
17016W        W88545  38.868   7.699   4.408
17017W        W88546  34.398  44.926  10.650
17018W        W88547  14.683  20.257   1.274
17019W        W88548   3.400  39.571  10.682
17020W        W88549   3.118   5.458  10.431
17021W        W88550  32.669  30.052   0.544
17022W        W88551  39.003  19.108   0.321
17023W        W88552  10.201  36.920  13.021
17024W        W88553  13.218  19.112  11.745
17025W        W88554   4.253  24.287  12.561
17026W        W88555  31.695  33.352   4.646
17027W        W88556  31.360  44.438  11.065
17028W        W88557   7.957  37.985   1.589
17029W        W88558  35.315  33.922  10.689
17030W        W88559  28.953  31.800   4.869
17031W        W88560  14.811  15.558   3.293
17032W        W88561   7.140  16.194   2.661
17033W        W88562  33.213  39.010  11.061
17034W        W88563  20.818   1.517   4.296
17035W        W88564  33.124  28.240   3.831
17036W        W88565  35.719  42.903  12.457
17037W        W88566  36.909   9.368   4.113
17038W        W88567  28.937  42.453   0.386
17039W        W88568  36.966  21.496   0.669
17040W        W88569  12.028  34.485  11.054
17041W        W88570   0.831  19.588   1.558
17042W        W88571  10.179  28.672   2.762
17043W        W88572  16.090  20.884   3.567
17044W        W88573  26.688  33.396   3.306
17045W        W88574  37.350  18.985   1.660
17046W        W88575  40.600   7.261  12.874
17047W        W88576  15.081  22.718  14.383
17048W        W88577  37.019  28.163  13.388
17049W        W88578   7.288  27.195   2.265
17050W        W88579   5.475   0.210  12.781
17051W        W88580  28.143   9.397   1.914
17052W        W88581  37.878  26.316  13.775
17053W        W88582  38.387  36.469   1.627
17054W        W88583  11.745  43.223  10.707
17055W        W88584  39.577  18.716  12.075
17056W        W88585  36.960  35.921  12.931
17057W        W88586  11.749   3.137   3.083
17058W        W88587  41.761  20.706  14.008
17059W        W88588  33.830   0.383   2.590
17060W        W88589   4.697  18.836   3.686
17061W        W88590  12.100  33.831   2.755
17062W        W88591  17.204   8.883  12.316
17063W        W88592  43.533   5.724  12.120
17064W        W88593  25.907  19.822  12.531
17065W        W88594  33.365  28.869  11.280
17066W        W88595  38.550  37.973   3.780
17067W        W88596  42.086  29.139   3.715
17068W        W88597  41.972   7.829  11.552
17069W        W88598  21.230  22.161   3.588
17070W        W88599  26.882   2.980   1.807
17071W        W88600  27.433  43.844  10.599
17072W        W88601  35.228  37.040  14.232
17073W        W88602  40.879  38.301   1.828
17074W        W88603  12.567  22.777  14.787
17075W        W88604  39.764  11.352   4.551
17076W        W88605  37.967  43.416   3.562
17077W        W88606   4.514  43.199  10.552
17078W        W88607  18.034   9.800  13.120
17079W        W88608   2.746   3.669  11.191
17080W        W88609  32.382  34.158   1.791
17081W        W88610   0.483  29.282  10.633
17082W        W88611  38.275  29.564   3.734
17083W        W88612   1.467  27.453  12.179
17084W        W88613  44.244  42.438   5.173
17085W        W88614  18.752  39.715  12.878
17086W        W88615  35.142  38.320  13.375
17087W        W88616   2.101  19.282   2.374
17088W        W88617  44.124  36.137   5.150
17089W        W88618   9.822   3.751  11.949
17090W        W88619   7.845   1.071  14.074
17091W        W88620  22.666  21.384  12.955
17092W        W88621  19.955  23.420   0.315
17093W        W88622  39.460  19.409  12.516
17094W        W88623  34.409  21.486  10.646
17095W        W88624  24.434  23.150  11.081
17096W        W88625  41.398  41.464  11.080
17097W        W88626  21.621  37.387  11.145
17098W        W88627   7.336  14.134  13.367
17099W        W88628  39.260   5.614  13.094
17100W        W88629  16.606   7.736   3.227
17101W        W88630  23.090  44.835   2.361
17102W        W88631   1.569  10.234   4.043
17103W        W88632  35.867  16.198   4.443
17104W        W88633   1.292  21.304   0.880
17105W        W88634  38.939  39.401   1.460
17106W        W88635  13.798  21.152  11.407
17107W        W88636  31.450   5.370   1.802
17108W        W88637  21.605  40.881   0.684
17109W        W88638  34.236  29.003   3.153
17110W        W88639   7.964  22.653  14.759
17111W        W88640  11.148  18.225  11.714
17112W        W88641  12.881  31.791  10.311
17113W        W88642   8.369  29.621  14.486
17114W        W88643  42.058  30.369  10.774
17115W        W88644  32.610  41.682  12.150
17116W        W88645  20.197  10.818  13.808
17117W        W88646  33.697  25.002  11.515
17118W        W88647   7.788  12.442   3.240
17119W        W88648  44.375  35.783   4.128
17120W        W88649  26.247  32.722  13.552
17121W        W88650  10.652  24.046   1.434
17122W        W88651  23.147  16.058   2.141
17123W        W88652  29.538  26.878  14.817
17124W        W88653   1.890  30.190   2.152
17125W        W88654  40.543  37.898   4.390
17126W        W88655  32.275  40.277   4.563
17127W        W88656  32.124  39.966  14.201
17128W        W88657  28.120  42.969   0.878
17129W        W88658   6.942  30.910  13.842
17130W        W88659  34.644  10.236   0.294
17131W        W88660   8.721   1.560   0.381
17132W        W88661   7.599  20.178   3.182
17133W        W88662  41.993  41.134   0.529
17134W        W88663  42.688   6.010  13.770
17135W        W88664  28.609  32.138   0.849
17136W        W88665  26.008  21.998  12.618
17137W        W88666  23.136  20.590  12.788
17138W        W88667  41.952  42.549   0.676
17139W        W88668  43.584   6.168   2.233
17140W        W88669  39.788  17.296   1.774
17141W        W88670  31.901  38.612   1.843
17142W        W88671  41.663  12.373  13.762
17143W        W88672  18.417  43.880  12.822
17144W        W88673   9.758  27.180  12.647
17145W        W88674  24.534  21.822  12.822
17146W        W88675  24.981  44.016  11.990
17147W        W88676  38.247   8.927   0.172
17148W        W88677   6.809  43.372  11.557
17149W        W88678   7.505  34.498  14.769
17150W        W88679  10.188  10.314   1.371
17151W        W88680  26.432  29.965  14.986
17152W        W88681  44.556  13.281   3.610
17153W        W88682   0.909  16.353   4.593
17154W        W88683   8.206  16.427   0.236
17155W        W88684  42.117  39.571  12.929
17156W        W88685  36.774  34.428   2.223
17157W        W88686  16.245  40.719  12.861
17158W        W88687   7.359  21.095  13.490
17159W        W88688  41.611  11.821  14.864
17160W        W88689  29.555  15.375  11.966
17161W        W88690  11.490  35.946   4.850
17162W        W88691  40.675  25.971  14.929
17163W        W88692  25.732  15.585  11.326
17164W        W88693  36.562  43.857   4.434
17165W        W88694  26.920  14.204   2.789
17166W        W88695  19.695   8.234   4.544
17167W        W88696   5.246  14.485   4.238
17168W        W88697  24.065  41.475   1.807
17169W        W88698  35.267  11.532  14.237
17170W        W88699  19.534   7.320   2.241
17171W        W88700  13.900  28.042   4.627
17172W        W88701   8.312  40.894  14.786
17173W        W88702  41.263  12.499   4.232
17174W        W88703  36.319   7.991   0.207
17175W        W88704  30.659  16.545   3.240
17176W        W88705   8.882   7.433  14.581
17177W        W88706  10.584  27.205   3.204
17178W        W88707  33.763  10.663   0.275
17179W        W88708   4.378  33.430  13.429
17180W        W88709  34.464  17.573   4.269
17181W        W88710  39.269   3.914   2.961
17182W        W88711   3.701  28.854  12.979
17183W        W88712  29.903  37.983   0.734
17184W        W88713  25.638   8.828   3.811
17185W        W88714  15.115  29.392  14.897
17186W        W88715   2.349  36.770   9.971
17187W        W88716  26.188   0.545  10.670
17188W        W88717  30.889  36.515   0.063
17189W        W88718  10.849  14.745  13.167
17190W        W88719  36.391  22.464   3.852
17191W        W88720  40.557   4.674  14.851
17192W        W88721  42.966  30.217   3.610
17193W        W88722  39.208  30.330  13.972
17194W        W88723  23.340   6.559  14.877
17195W        W88724   2.318  29.862  10.647
17196W        W88725  12.428   6.358   3.566
17197W        W88726  32.597  30.220  10.747
17198W        W88727   5.398   8.511  11.077
17199W        W88728  37.021  20.857   3.116
17200W        W88729  37.982  41.365  12.167
17201W        W88730  13.122  16.206  11.497
17202W        W88731  21.480  33.864   3.098
17203W        W88732  35.500  10.929  14.851
17204W        W88733  34.292  34.783  13.791
17205W        W88734   9.820  39.576   0.359
17206W        W88735  11.532   6.403   0.001
17207W        W88736  33.747   9.886   4.269
17208W        W88737   7.345  23.786   1.260
17209W        W88738  29.979  17.098  11.886
17210W        W88739  26.188  29.009  13.576
17211W        W88740  30.876  40.418   2.229
17212W        W88741  23.074  38.249  14.752
17213W        W88742  44.523  24.536   4.224
17214W        W88743  43.458  25.677   2.385
17215W        W88744  26.516  43.448  12.223
17216W        W88745  12.106  29.825  11.552
17217W        W88746  36.882   0.815  11.650
17218W        W88747  34.972  11.415   3.143
17219W        W88748  19.614   3.628  11.658
17220W        W88749  38.931  17.304   3.325
17221W        W88750  24.921  21.138   1.460
17222W        W88751  12.808  13.754  13.368
17223W        W88752  11.254   9.362   3.170
17224W        W88753  34.024   9.760  12.036
17225W        W88754  19.090   5.305  13.341
17226W        W88755  23.042  18.812  14.873
17227W        W88756  28.191  43.083   1.388
17228W        W88757  17.993  10.861   3.623
17229W        W88758  19.140  38.962  13.054
17230W        W88759  14.010  43.354   2.131
17231W        W88760  38.909  39.728  11.923
17232W        W88761  29.197   9.432  13.965
17233W        W88762  26.275  21.554  11.531
17234W        W88763  23.019  28.543   2.360
17235W        W88764  13.352   0.254  13.571
17236W        W88765  25.001  37.329   4.139
17237W        W88766  27.098  42.177  14.963
17238W        W88767  11.282   5.304   3.814
17239W        W88768  39.495  27.837   4.543
17240W        W88769  16.170  30.337  14.509
17241W        W88770  39.935  21.982   3.440
17242W        W88771   1.325  44.062  10.470
17243W        W88772   1.247  19.485  12.929
17244W        W88773  26.083  23.126  11.701
17245W        W88774   6.819   4.251   0.452
17246W        W88775  18.370  41.351  14.842
17247W        W88776  43.844  28.227   0.814
17248W        W88777  33.448  35.016   4.751
17249W        W88778  16.831  44.385  10.542
17250W        W88779  32.855  39.446  13.661
17251W        W88780  22.170   7.413   1.329
17252W        W88781  18.826   9.132   1.396
17253W        W88782  36.826  39.053  14.888
17254W        W88783  40.598  18.827   2.260
17255W        W88784   4.065  14.167   3.655
17256W        W88785  30.476  22.507  13.487
17257W        W88786  14.246  32.658  13.988
17258W        W88787  15.912   5.919   3.690
17259W        W88788  33.268  27.685  11.477
17260W        W88789  43.770  37.932   1.244
17261W        W88790  26.545  31.774  11.538
17262W        W88791  36.301  35.295   0.726
17263W        W88792   1.389  44.930   3.607
17264W        W88793  15.886  17.173  14.339
17265W        W88794  32.196  38.778   2.215
17266W        W88795  31.869  16.560  11.147
17267W        W88796  29.463   0.507   2.288
17268W        W88797  19.570   5.335  11.935
17269W        W88798  33.523  30.235  13.850
17270W        W88799  12.613  27.117   3.172
17271W        W88800  42.031   7.653   3.738
17272W        W88801  35.451  41.107  14.468
17273W        W88802   7.797   1.933  10.142
17274W        W88803   9.488  27.034  11.365
17275W        W88804  34.586  21.114   0.043
17276W        W88805  28.123  11.227  11.029
17277W        W88806  27.371  24.025  12.445
17278W        W88807  21.660  10.582   2.756
17279W        W88808  27.222  20.657   2.163
17280W        W88809  29.260   1.072   1.821
17281W        W88810  39.965  20.627   3.247
17282W        W88811   7.802  20.313   3.646
17283W        W88812  20.471  37.118   3.652
17284W        W88813  38.648  16.686  12.395
17285W        W88814  38.545  30.663  11.357
17286W        W88815  27.559  10.553  11.484
17287W        W88816  21.003   3.196  14.805
17288W        W88817  40.590   3.921  13.341
17289W        W88818   5.644  15.223  14.856
17290W        W88819  43.918  33.785  13.943
17291W        W88820  15.863  19.740   4.594
17292W        W88821  44.821  24.461   2.186
17293W        W88822  18.014   5.388   0.437
17294W        W88823  36.317  15.651  13.872
17295W        W88824  20.868  22.561   4.302
17296W        W88825   0.990  14.768   1.554
17297W        W88826  35.452  24.558   4.683
17298W        W88827   7.495  25.301   1.328
17299W        W88828  11.380  33.491  12.368
17300W        W88829  40.587  14.141  10.724
17301W        W88830  21.535  33.541  14.543
17302W        W88831  21.761   2.678   1.663
17303W        W88832  20.237  13.663  12.415
17304W        W88833   1.214  23.177  14.841
17305W        W88834  11.690   7.213  14.506
17306W        W88835   0.054  22.975   4.602
17307W        W88836  10.210  12.111  13.068
17308W        W88837  25.377  18.523   1.263
17309W        W88838  42.927  33.849  11.215
17310W        W88839  24.083  30.963  13.941
17311W        W88840   1.987   7.510  12.969
17312W        W88841  43.307  33.988  11.511
17313W        W88842  35.609  25.390  12.251
17314W        W88843   8.050  35.776  14.890
17315W        W88844  10.121  27.418  11.667
17316W        W88845  44.960  40.035   3.114
17317W        W88846  22.239   3.394   1.706
17318W        W88847  41.772  16.368  12.877
17319W        W88848   1.379   4.237  11.946
17320W        W88849  33.899  19.269   2.484
17321W        W88850   8.766  43.567   4.342
17322W        W88851  10.092   1.822   4.216
17323W        W88852   9.696  37.703  12.944
17324W        W88853  20.035   3.502   4.136
17325W        W88854  17.710  38.416   2.517
17326W        W88855   2.195   4.634  11.449
17327W        W88856   4.871   8.421  12.177
17328W        W88857  33.420  27.614   5.026
17329W        W88858   1.685  28.830  12.471
17330W        W88859  41.489  15.495  12.080
17331W        W88860   8.793   1.743  12.855
17332W        W88861  43.988   5.240   1.999
17333W        W88862  11.589  35.401  11.017
17334W        W88863   9.230  20.342  11.028
17335W        W88864   2.370  15.677   0.081
17336W        W88865   1.756   1.849   4.529
17337W        W88866  20.091  14.875   0.826
17338W        W88867  32.136  42.691   4.069
17339W        W88868  10.307  35.118  13.521
17340W        W88869  43.944   5.523  13.622
17341W        W88870  33.948  20.998  14.421
17342W        W88871  32.658  27.140   4.746
17343W        W88872  17.784  27.085  11.570
17344W        W88873  40.507   0.712  11.995
17345W        W88874  20.276  13.599   3.399
17346W        W88875  39.909  29.060  12.820
17347W        W88876  24.181  32.147  13.210
17348W        W88877  42.789   0.531  14.297
17349W        W88878  35.089   5.736   1.060
17350W        W88879  11.281   7.391  12.374
17351W        W88880  42.267   6.368   3.429
17352W        W88881  13.165   2.516  14.431
17353W        W88882  37.441  12.213   4.171
17354W        W88883  30.097  38.619   4.555
17355W        W88884  34.880  34.005   4.330
17356W        W88885  37.437  41.680  14.510
17357W        W88886   5.446  36.959   3.107
17358W        W88887  32.164   8.948   1.723
17359W        W88888  22.623  29.966  11.153
17360W        W88889  12.852  10.288  14.436
17361W        W88890  34.478  24.645  11.093
17362W        W88891  44.353  30.211   1.871
17363W        W88892  23.246  23.607   4.106
17364W        W88893   7.280  13.096   4.128
17365W        W88894   3.700   3.738  14.031
17366W        W88895   0.544  37.107  11.117
17367W        W88896   8.886  18.846  13.968
17368W        W88897  43.476  22.751   2.007
17369W        W88898  25.483  35.088  13.496
17370W        W88899  18.823  29.119   0.876
17371W        W88900  19.879  13.042  14.146
17372W        W88901  24.700  43.937  13.431
17373W        W88902  17.189   9.266  11.332
17374W        W88903  38.430   4.419  14.765
17375W        W88904  18.714  10.888  14.841
17376W        W88905   3.239  27.812  10.119
17377W        W88906   4.858  39.880   3.809
17378W        W88907  27.063  36.094   1.887
17379W        W88908   6.380  43.923  12.988
17380W        W88909  36.414  27.947  14.980
17381W        W88910  33.572  20.237  10.169
17382W        W88911  10.749  32.464   2.793
17383W        W88912  25.005   7.701   4.154
17384W        W88913  32.922  26.275   2.267
17385W        W88914  25.412   5.405  12.382
17386W        W88915  44.367  22.420  12.144
17387W        W88916  31.500  44.047   0.380
17388W        W88917  21.090  16.338   3.192
17389W        W88918  35.311  38.475  13.974
17390W        W88919  15.678  34.859  12.792
17391W        W88920  31.979  28.003  12.835
17392W        W88921  37.773  36.027  13.521
17393W        W88922  20.833  38.336   0.239
17394W        W88923  22.346  37.864   1.777
17395W        W88924  16.634   7.895  13.999
17396W        W88925  20.308  10.521  14.848
17397W        W88926  35.280  23.279  13.916
17398W        W88927  42.910  25.407  11.870
17399W        W88928  42.264   2.896  13.151
17400W        W88929  23.249  37.521   3.610
17401W        W88930   1.425  17.695  11.617
17402W        W88931  29.559  24.642  11.523
17403W        W88932  39.409  25.075  11.693
17404W        W88933   7.674   5.712  11.265
17405W        W88934  10.559  40.222  13.940
17406W        W88935  21.868   2.808  11.717
17407W        W88936  35.909  41.421   2.194
17408W        W88937  19.129  26.721  11.050
17409W        W88938  20.782  40.623   0.454
17410W        W88939  22.223  33.792  14.883
17411W        W88940   3.138  17.417   4.245
17412W        W88941  24.792  15.304   4.817
17413W        W88942   2.730  23.902   0.949
17414W        W88943  10.912  14.788  11.134
17415W        W88944   4.238   5.998  12.449
17416W        W88945  13.778  32.533  14.501
17417W        W88946  14.929   3.701  13.372
17418W        W88947  22.957  43.948  12.829
17419W        W88948  14.303  42.815   4.062
17420W        W88949  23.696   6.158   1.764
17421W        W88950  10.281  15.553  10.862
17422W        W88951   2.836   6.794  14.352
17423W        W88952  22.760  30.371   2.449
17424W        W88953  30.222  12.315   4.588
17425W        W88954   4.293   4.206  14.463
17426W        W88955  37.273   9.787   1.901
17427W        W88956   4.702  27.570   4.653
17428W        W88957  41.969  10.483  10.745
17429W        W88958  32.581  12.714  13.379
17430W        W88959  22.768   1.747  10.949
17431W        W88960  31.589  14.635   4.238
17432W        W88961  10.167  23.719  12.023
17433W        W88962  10.256  37.299   3.622
17434W        W88963   6.047   7.456   1.331
17435W        W88964  20.307   3.483   3.247
17436W        W88965  26.394  23.920  12.447
17437W        W88966  17.566   4.670   1.138
17438W        W88967  44.769  14.359   2.122
17439W        W88968  32.310   8.947  10.678
17440W        W88969  36.397  17.230   1.315
17441W        W88970   2.773  43.830  12.895
17442W        W88971  21.737  24.242  14.878
17443W        W88972  37.645  28.603  12.474
17444W        W88973  29.073   4.010  13.341
17445W        W88974   9.642   7.384  14.060
17446W        W88975  35.615  39.129   3.692
17447W        W88976  32.602  18.928   2.381
17448W        W88977  12.457  18.977   4.242
17449W        W88978  27.658  11.889   1.843
17450W        W88979  30.765   1.716  12.130
17451W        W88980  37.409   0.637  11.178
17452W        W88981   5.155  32.942  10.574
17453W        W88982  44.179   0.908   3.638
17454W        W88983  38.656  35.033   1.196
17455W        W88984  44.876  36.302  11.160
17456W        W88985  31.693  29.923  10.671
17457W        W88986   6.278   5.844   0.007
17458W        W88987  20.107  29.684   0.195
17459W        W88988  34.849  28.840  13.782
17460W        W88989   0.718  18.792   0.814
17461W        W88990  24.731  11.344  10.911
17462W        W88991  10.039  33.786  10.267
17463W        W88992  22.626  27.873   4.371
17464W        W88993  24.418  10.347   2.905
17465W        W88994   4.734  16.876   0.450
17466W        W88995  18.504  39.431   0.845
17467W        W88996  32.094   8.840   3.694
17468W        W88997  42.259  29.988  14.445
17469W        W88998  31.316  42.861   1.351
17470W        W88999  18.181   3.435  11.579
17471W        W89000  38.390  20.318  10.402
17472W        W89001  37.053  40.978  11.951
17473W        W89002   5.278  33.717   2.009
17474W        W89003  16.838  39.403   3.086
17475W        W89004  21.981   7.260   3.637
17476W        W89005  16.239  22.736   5.214
17477W        W89006  39.014   3.418  11.331
17478W        W89007   4.812  18.089   0.908
17479W        W89008  39.400   7.672   2.358
17480W        W89009  17.307  42.517  12.450
17481W        W89010   6.379  13.807   2.354
17482W        W89011  15.539  11.129  12.064
17483W        W89012  14.112  26.138  11.435
17484W        W89013   6.767  21.140  10.147
17485W        W89014  13.246  43.735  13.842
17486W        W89015   4.889  23.931   4.245
17487W        W89016   7.205   0.568  14.783
17488W        W89017   2.219  43.232  12.511
17489W        W89018  12.713   9.452  14.976
17490W        W89019   8.926   9.380  14.478
17491W        W89020  33.244  43.342  14.531
17492W        W89021  38.043  12.343  14.433
17493W        W89022  23.344   8.858  14.265
17494W        W89023  14.707  18.277  11.653
17495W        W89024  42.216   2.460  13.475
17496W        W89025  15.087  37.936  14.330
17497W        W89026  37.319  21.674  10.432
17498W        W89027  26.210  13.135  10.707
17499W        W89028  25.504  35.380   4.037
17500W        W89029   9.798  39.232  12.537
17501W        W89030   2.730  37.360   3.173
17502W        W89031  27.949  27.694  13.589
17503W        W89032   3.768   9.177  12.832
17504W        W89033  22.966  40.555   0.822
17505W        W89034  10.992  10.430  12.447
17506W        W89035  18.819   5.947  13.072
17507W        W89036  18.593  30.675   2.194
17508W        W89037  17.596  16.599   1.858
17509W        W89038   3.329  37.729  11.977
17510W        W89039  24.652  40.712  11.574
17511W        W89040  27.502  11.813  11.180
17512W        W89041  33.529   2.857   2.760
17513W        W89042  10.719  14.720  10.659
17514W        W89043  24.428  24.508   2.244
17515W        W89044  32.163  27.983   4.775
17516W        W89045  15.781  22.757  13.017
17517W        W89046  20.551  35.149   0.338
17518W        W89047  27.156  35.106  10.726
17519W        W89048  26.580  19.110   4.302
17520W        W89049  10.399  35.675   0.201
17521W        W89050   7.640  15.737   0.975
17522W        W89051  37.829  17.267  11.506
17523W        W89052   7.764   3.161  13.878
17524W        W89053  34.639  26.153  13.547
17525W        W89054  43.454  24.013   1.787
17526W        W89055  35.867   0.347  14.819
17527W        W89056  16.608  27.484   3.550
17528W        W89057   7.548   1.510  11.606
17529W        W89058  17.170   6.086  10.396
17530W        W89059  26.741   7.634   4.127
17531W        W89060   0.886  24.056   0.466
17532W        W89061  29.165  13.091   0.681
17533W        W89062  12.824  12.768   0.679
17534W        W89063  14.473  43.319   0.872
17535W        W89064  10.614   6.773   1.751
17536W        W89065  15.260  25.123  10.603
17537W        W89066  33.057  30.955   1.243
17538W        W89067  44.037  44.890   0.235
17539W        W89068  18.182  40.449   3.720
17540W        W89069  35.092  33.071   0.951
17541W        W89070  32.867  35.575  13.480
17542W        W89071  34.935  24.707   2.766
17543W        W89072  27.839   1.438   0.270
17544W        W89073  11.668  41.568   2.740
17545W        W89074  19.628  10.409   4.156
17546W        W89075  16.084  10.814   0.397
17547W        W89076  25.751  26.079   1.197
17548W        W89077  28.031  17.731   0.379
17549W        W89078  31.916  23.767  10.568
17550W        W89079  41.496  32.928  14.009
17551W        W89080  14.762  11.931  12.077
17552W        W89081  23.269   0.342   1.368
17553W        W89082  40.217  14.682   4.377
17554W        W89083  27.082   3.615  14.171
17555W        W89084  11.921  31.739  11.007
17556W        W89085  32.671  37.992  13.865
17557W        W89086   7.190   7.499  11.233
17558W        W89087  43.264  14.839  11.541
17559W        W89088   6.688  20.235   4.902
17560W        W89089  10.592  18.193   0.293
17561W        W89090  21.671  23.975  10.287
17562W        W89091  32.947  25.949  14.219
17563W        W89092   6.264  26.281  11.103
17564W        W89093  18.490  37.574   1.084
17565W        W89094   8.373  20.809  14.847
17566W        W89095  44.061  22.897   3.627
17567W        W89096  30.489  15.504   0.895
17568W        W89097  19.026  10.764  14.448
17569W        W89098  33.595  26.897  11.517
17570W        W89099   5.198  28.147   1.812
17571W        W89100  34.929  11.083  14.976
17572W        W89101   1.329  18.975  11.282
17573W        W89102   7.794  37.523   3.412
17574W        W89103  12.783  30.728  14.095
17575W        W89104  12.624  34.171  10.881
17576W        W89105  38.643  36.469  13.410
17577W        W89106  13.430   5.986  13.561
17578W        W89107  35.429  41.938   0.826
17579W        W89108  27.225  33.601   2.167
17580W        W89109  17.289  42.837   2.858
17581W        W89110  16.611  28.521  14.413
17582W        W89111  12.760  18.147  10.417
17583W        W89112   8.118  34.876   0.964
17584W        W89113   9.777  31.891   4.153
17585W        W89114  38.382  29.837   0.920
17586W        W89115  10.589  16.251   4.173
17587W        W89116  40.282  19.724  11.589
17588W        W89117  25.219  30.973   2.783
17589W        W89118  15.204  33.879  13.406
17590W        W89119  29.010  37.970  12.337
17591W        W89120  33.142   0.661  14.827
17592W        W89121  20.616   9.710  13.367
17593W        W89122  26.580  30.672  12.911
17594W        W89123  39.382   4.770  10.152
17595W        W89124   1.904  42.262   4.592
17596W        W89125  40.828  33.897   4.176
17597W        W89126  22.149  32.887  13.310
17598W        W89127  12.980  11.193   2.258
17599W        W89128  13.934  38.306   4.133
17600W        W89129  18.287   9.694   9.765
17601W        W89130  11.798  25.525   3.644
17602W        W89131  40.404  31.594   3.244
17603W        W89132  41.822  29.671  11.518
17604W        W89133  12.595  27.587  13.493
17605W        W89134   9.867  30.475  14.715
17606W        W89135  27.767  22.665   3.377
17607W        W89136  20.946  33.683  11.670
17608W        W89137   3.471  24.819  14.411
17609W        W89138  26.185  10.365   3.855
17610W        W89139  10.528  18.271  12.476
17611W        W89140   3.853  28.190  10.501
17612W        W89141  14.782  35.620  12.047
17613W        W89142   4.381  25.999   2.587
17614W        W89143  12.128   1.974   0.271
17615W        W89144  37.805  10.325  11.998
17616W        W89145   9.678   7.207   3.320
17617W        W89146  32.583   9.366   4.261
17618W        W89147  22.156  25.488   3.288
17619W        W89148  15.172  17.415   4.219
17620W        W89149  31.432  21.517  14.310
17621W        W89150   3.516  19.236  14.417
17622W        W89151  36.863   8.417  12.712
17623W        W89152  14.798  28.989  13.450
17624W        W89153   2.242  21.967   3.226
17625W        W89154   8.452  15.078  14.375
17626W        W89155  10.708  15.754  10.615
17627W        W89156   3.889   5.814   3.036
17628W        W89157  30.186  34.069   4.047
17629W        W89158  44.442  16.713  14.210
17630W        W89159  27.849  35.030   1.123
17631W        W89160   2.246   7.453   4.888
17632W        W89161  11.458   7.574  13.749
17633W        W89162  33.391   3.965  10.913
17634W        W89163  33.487  44.560   3.730
17635W        W89164  18.227  30.629   0.359
17636W        W89165  41.924  22.000   2.286
17637W        W89166   8.399  36.577   1.107
17638W        W89167  42.972  19.708   4.227
17639W        W89168  24.294  43.318   4.117
17640W        W89169  32.093  42.992   1.830
17641W        W89170  23.581  18.725  11.706
17642W        W89171   1.534  27.026  13.537
17643W        W89172  19.002   1.785  11.562
17644W        W89173   4.382   9.736   4.589
17645W        W89174  31.134  41.783   3.213
17646W        W89175  21.923  33.053   2.303
17647W        W89176  38.974  25.003   1.022
17648W        W89177   1.795  17.714  11.237
17649W        W89178   8.370  39.049   3.597
17650W        W89179  18.790  36.531   2.134
17651W        W89180  24.508  41.381   1.036
17652W        W89181  33.643  21.520  11.097
17653W        W89182  16.876  30.515   0.791
17654W        W89183  24.076  35.349   2.680
17655W        W89184  32.084  18.988  14.596
17656W        W89185  13.688  16.674   1.919
17657W        W89186  13.739  34.107   3.715
17658W        W89187  14.119   1.838   1.819
17659W        W89188  24.509  27.874   2.444
17660W        W89189  27.481  34.286  13.929
17661W        W89190   9.777  11.457  12.370
17662W        W89191   6.483  26.101  12.949
17663W        W89192   6.756  31.591  11.082
17664W        W89193  36.445  20.995  13.040
17665W        W89194  20.220   8.211   2.885
17666W        W89195  11.401  35.385  14.432
17667W        W89196  26.179  25.086   4.580
17668W        W89197  22.276  21.658  13.919
17669W        W89198  12.381  28.417   1.279
17670W        W89199  31.451  33.707  12.490
17671W        W89200  28.495  26.067  11.120
17672W        W89201  39.478  10.605   1.852
17673W        W89202  21.106  20.702   4.838
17674W        W89203  42.942  13.841   4.315
17675W        W89204  31.993  37.972  10.971
17676W        W89205  37.421  29.078   3.080
17677W        W89206  25.610  18.716   0.395
17678W        W89207  43.856  26.031   3.677
17679W        W89208  16.657   2.177   2.435
17680W        W89209  24.075  28.896  13.278
17681W        W89210  28.436  33.277  11.362
17682W        W89211   2.892  17.160   4.619
17683W        W89212   4.698  34.194  12.448
17684W        W89213  29.111  38.039  11.522
17685W        W89214   7.142  42.847  13.348
17686W        W89215   2.307  41.944  14.324
17687W        W89216  20.073  41.586   2.540
17688W        W89217  26.361  37.327   3.367
17689W        W89218  28.895  38.522   1.754
17690W        W89219   1.451  25.099  14.320
17691W        W89220  40.342  36.003  12.606
17692W        W89221  42.776  44.215   2.770
17693W        W89222  22.681  10.698   3.673
17694W        W89223   5.264  30.204  11.167
17695W        W89224   0.705   0.768   2.714
17696W        W89225  43.412   1.866  14.349
17697W        W89226   5.689  28.213   2.017
17698W        W89227   1.454  14.334   2.689
17699W        W89228  39.455  25.874  13.066
17700W        W89229  26.233  24.428  14.015
17701W        W89230  41.534  36.521   4.654
17702W        W89231  32.804  13.182  10.545
17703W        W89232  29.994  27.535   2.335
17704W        W89233  41.352  44.905   1.292
17705W        W89234   9.791   1.180   1.894
17706W        W89235  23.500  18.790  13.055
17707W        W89236  36.712   4.319  11.994
17708W        W89237  30.923  34.839   0.330
17709W        W89238  36.463   0.771  13.097
17710W        W89239   5.919  35.467   3.101
17711W        W89240  30.053  25.241   0.151
17712W        W89241  24.108   3.213   0.898
17713W        W89242  36.045  33.988   1.199
17714W        W89243  35.968  41.245   2.775
17715W        W89244  28.303  11.674  13.954
17716W        W89245  21.588  24.137  12.188
17717W        W89246   6.423   6.667   1.462
17718W        W89247  18.441   9.775   3.228
17719W        W89248  12.456  11.170   2.249
17720W        W89249  20.104   3.737   1.497
17721W        W89250  34.912  42.031   3.689
17722W        W89251  33.156  12.063  13.223
17723W        W89252   6.636  15.532  13.837
17724W        W89253   7.248  29.597  13.061
17725W        W89254  27.255  10.481  11.068
17726W        W89255  32.873   0.875  13.879
17727W        W89256  26.502   4.879   1.084
17728W        W89257  15.545   6.700  10.276
17729W        W89258  28.962  24.331  12.098
17730W        W89259  41.935  17.762   1.262
17731W        W89260  27.265   8.084  13.988
17732W        W89261   9.554  37.502  12.505
17733W        W89262  38.010  27.273  10.737
17734W        W89263  22.174  15.350  11.479
17735W        W89264  32.643  12.585   0.411
17736W        W89265  40.870  13.388   1.732
17737W        W89266  40.661  25.937   2.907
17738W        W89267   2.801   5.356  14.269
17739W        W89268  31.470  14.093  11.199
17740W        W89269  27.864  42.147   9.697
17741W        W89270  24.778  10.662   2.703
17742W        W89271  12.801  30.405   3.513
17743W        W89272  28.336   8.214   2.714
17744W        W89273  29.671  43.753   2.842
17745W        W89274  24.602  11.776   3.400
17746W        W89275  29.472  42.834  14.373
17747W        W89276  26.020  44.872   1.318
17748W        W89277   0.001   3.263  13.935
17749W        W89278   6.552  40.421  11.091
17750W        W89279   0.091  44.916   1.286
17751W        W89280  36.216  27.761  13.387
17752W        W89281  10.815  14.616   4.627
17753W        W89282  44.553  21.190   0.030
17754W        W89283  13.088   9.331   1.706
17755W        W89284   6.937  24.473  13.029
17756W        W89285  16.787  35.962  12.471
17757W        W89286  20.990   2.496  12.077
17758W        W89287  23.029   1.170   2.528
17759W        W89288  22.239  28.797  13.027
17760W        W89289   9.425  19.283  14.766
17761W        W89290  25.696   9.156  14.472
17762W        W89291  23.852  25.083  11.152
17763W        W89292   3.368  26.555  13.898
17764W        W89293   8.065  11.037   1.055
17765W        W89294  31.776   9.367   4.696
17766W        W89295   1.838  31.469   2.310
17767W        W89296  18.433   3.258   0.835
17768W        W89297   2.410  32.944  12.419
17769W        W89298  40.691  41.680  10.095
17770W        W89299  37.993  18.160  13.395
17771W        W89300  19.729  16.277   4.687
17772W        W89301   0.703  31.946  11.127
17773W        W89302  34.449  43.168   0.488
17774W        W89303  27.067   7.968   1.478
17775W        W89304   3.418  15.880  13.962
17776W        W89305  15.504  26.524   1.702
17777W        W89306  17.205  41.872  12.622
17778W        W89307   9.362  21.547   3.981
17779W        W89308   8.102  21.929  12.063
17780W        W89309  18.692  35.508   0.028
17781W        W89310   5.949  21.688  13.683
17782W        W89311   3.809  28.651  12.528
17783W        W89312  27.707  36.563  11.231
17784W        W89313  29.692   7.850   4.622
17785W        W89314  33.601  43.231   3.284
17786W        W89315  22.157  41.135  11.913
17787W        W89316   6.274  24.686   0.545
17788W        W89317  13.894  44.210  10.958
17789W        W89318  13.184  10.539   5.193
17790W        W89319  34.596  23.747  11.099
17791W        W89320  18.537  12.944  12.084
17792W        W89321  40.202   3.974  11.115
17793W        W89322   7.417  31.344   4.529
17794W        W89323  16.447  28.433   1.783
17795W        W89324  42.857  15.252   0.239
17796W        W89325  35.121   6.661  14.839
17797W        W89326  15.060  25.003  13.528
17798W        W89327  17.550  43.901   3.678
17799W        W89328  23.678  44.825  12.858
17800W        W89329  35.404  26.731   2.672
17801W        W89330  33.626   7.743  11.642
17802W        W89331   2.255  11.656   0.186
17803W        W89332  38.819  22.577  14.916
17804W        W89333  39.258  37.404  14.458
17805W        W89334   8.998   6.388   0.400
17806W        W89335  37.052  14.128   1.807
17807W        W89336  18.703  28.345  12.754
17808W        W89337  16.783  19.752  14.733
17809W        W89338  23.257  17.566  12.603
17810W        W89339  17.187  42.905   0.858
17811W        W89340  22.013  15.087  14.985
17812W        W89341  13.195  44.144   1.703
17813W        W89342  18.647  25.867  12.054
17814W        W89343  41.386   6.931   0.804
17815W        W89344  38.353  11.942   1.943
17816W        W89345  25.678  41.223   1.921
17817W        W89346  40.994   9.653  11.171
17818W        W89347  21.516  29.590  12.530
17819W        W89348  39.443  44.732  12.363
17820W        W89349  22.373  43.050  14.382
17821W        W89350  22.226  17.319  14.302
17822W        W89351  35.211  11.628   1.328
17823W        W89352   3.023  36.315   2.449
17824W        W89353  15.341  23.169   3.674
17825W        W89354  29.637  37.995  10.307
17826W        W89355  24.197  29.911   3.255
17827W        W89356  26.715  19.994   4.660
17828W        W89357  32.708   3.968   4.108
17829W        W89358  25.026  35.959  10.527
17830W        W89359  19.084  43.867   1.435
17831W        W89360  40.012  22.466   4.665
17832W        W89361  13.643   0.814  11.062
17833W        W89362  15.130  26.547   2.090
17834W        W89363  12.505  27.148  14.855
17835W        W89364   3.528  38.738  13.589
17836W        W89365   8.461  14.197  13.851
17837W        W89366  39.023   5.946   0.884
17838W        W89367  34.673  26.957   2.326
17839W        W89368  16.791  22.200   4.689
17840W        W89369  44.666  34.954   1.790
17841W        W89370  35.614  21.204   4.118
17842W        W89371  18.328  21.303   2.330
17843W        W89372   8.460  38.296   1.834
17844W        W89373  11.537  21.159   4.716
17845W        W89374  24.095  28.418  11.389
17846W        W89375  12.814  17.193   4.555
17847W        W89376  44.767  27.722  14.430
17848W        W89377   0.241  29.223  12.872
17849W        W89378  25.092  32.186   3.045
17850W        W89379  13.336   8.235  13.258
17851W        W89380  39.863  40.370  11.510
17852W        W89381  44.858  23.334  14.391
17853W        W89382   5.994  12.243  10.669
17854W        W89383  37.504  16.026   1.696
17855W        W89384   0.968  44.433   2.257
17856W        W89385  31.934  15.559   2.289
17857W        W89386  11.691  35.285   5.272
17858W        W89387  36.668  37.070   2.757
17859W        W89388  23.240  23.093  13.021
17860W        W89389  28.639   5.737  14.473
17861W        W89390  44.459  14.829   3.711
17862W        W89391  27.557  26.217  11.093
17863W        W89392  23.617  36.377  10.450
17864W        W89393  18.049  40.647   2.650
17865W        W89394  37.278  11.519  12.408
17866W        W89395  23.962  43.414  14.967
17867W        W89396  20.372  21.478  13.257
17868W        W89397  35.330  32.395   1.483
17869W        W89398  14.712   5.884  14.698
17870W        W89399  32.279  23.095  12.215
17871W        W89400  18.097  44.366  14.608
17872W        W89401  31.413   7.198   4.626
17873W        W89402   3.520  14.605   3.238
17874W        W89403  11.432  31.619  11.060
17875W        W89404  38.053  12.142  13.297
17876W        W89405  26.783  33.306   2.190
17877W        W89406  22.500  16.128  12.409
17878W        W89407  17.683  38.126  14.750
17879W        W89408  41.858  19.281  14.113
17880W        W89409  10.157  30.279  12.960
17881W        W89410   7.896   0.094  10.980
17882W        W89411  43.910  14.546  11.908
17883W        W89412  13.769  22.068  11.601
17884W        W89413   9.843  41.913   0.566
17885W        W89414  36.426   8.600  10.659
17886W        W89415   1.830  35.932   0.189
17887W        W89416  15.235  16.039   3.910
17888W        W89417  11.824  23.527   2.784
17889W        W89418   5.939  13.841   4.808
17890W        W89419  44.467  27.031   0.964
17891W        W89420   0.950   1.826   0.519
17892W        W89421  39.601   8.472  11.008
17893W        W89422  25.018  27.493  14.834
17894W        W89423  28.249  30.186   4.357
17895W        W89424  30.393  22.499   1.457
17896W        W89425   3.435  10.846   3.286
17897W        W89426  20.170  26.124  13.860
17898W        W89427  31.201  22.559   3.702
17899W        W89428  11.310   1.455   4.032
17900W        W89429   1.393  29.638  10.626
17901W        W89430  36.603  17.791   1.279
17902W        W89431  16.661   2.693   4.254
17903W        W89432   7.991  43.009   2.683
17904W        W89433  20.699  25.168   1.629
17905W        W89434  37.463  44.735   2.730
17906W        W89435   6.370   0.210  14.989
17907W        W89436  14.192  42.468  14.217
17908W        W89437   8.297   4.963   4.551
17909W        W89438  26.651  18.750  12.640
17910W        W89439  25.921  37.503   3.586
17911W        W89440   9.436  12.824   1.347
17912W        W89441  30.853  22.155  12.038
17913W        W89442  41.012  28.201   2.828
17914W        W89443   7.626  24.741  10.567
17915W        W89444  12.372   3.286  13.017
17916W        W89445  33.424  10.870  10.705
17917W        W89446   9.775   8.244  13.464
17918W        W89447  42.062   1.964  11.603
17919W        W89448  18.810  41.499   1.248
17920W        W89449  31.439  33.909  11.507
17921W        W89450  11.449  27.218  14.920
17922W        W89451  42.117  20.671  14.381
17923W        W89452  22.957  43.506  11.584
17924W        W89453  21.872  10.936   0.649
17925W        W89454   1.007  41.013   2.198
17926W        W89455  31.799   6.437  11.334
17927W        W89456  13.013   2.714   3.799
17928W        W89457   1.255  11.591   4.186
17929W        W89458  27.749   5.894   4.684
17930W        W89459   5.105   7.070   2.920
17931W        W89460  44.360   3.240  13.799
17932W        W89461  42.812  15.557  13.907
17933W        W89462  13.231   8.120   0.635
17934W        W89463  29.669  32.286   4.668
17935W        W89464  39.102  36.436  13.781
17936W        W89465  33.075  15.542   1.284
17937W        W89466  12.828  33.444  12.639
17938W        W89467  17.193   1.967   4.751
17939W        W89468   1.941  29.015   1.275
17940W        W89469  28.588   5.673   2.636
17941W        W89470  15.513  42.867  14.832
17942W        W89471   4.747   7.351  11.228
17943W        W89472  40.063   2.849   1.301
17944W        W89473  14.632  23.523   0.345
17945W        W89474  24.874  41.850  10.500
17946W        W89475  29.648  28.196   1.837
17947W        W89476  42.675  16.215   1.404
17948W        W89477  41.239   7.732   2.867
17949W        W89478   0.039  37.762   0.235
17950W        W89479  10.918   0.430  13.172
17951W        W89480  21.590  30.569  12.335
17952W        W89481   2.060   8.546   2.653
17953W        W89482  37.121  33.495   2.284
17954W        W89483   7.758  29.943   1.750
17955W        W89484  12.688  26.697  11.551
17956W        W89485  18.257  27.577   0.929
17957W        W89486  19.338  39.844  13.283
17958W        W89487  21.700   5.014  10.599
17959W        W89488  31.262  20.752  13.688
17960W        W89489   6.423   2.712  11.059
17961W        W89490  14.347  44.893   0.926
17962W        W89491   2.316  19.044   0.807
17963W        W89492  21.481  12.295   3.737
17964W        W89493  39.395   9.049   4.499
17965W        W89494   5.418  23.379   0.247
17966W        W89495  36.815  29.465  13.631
17967W        W89496  38.163   2.363   0.540
17968W        W89497   0.338  42.970  12.992
17969W        W89498   8.286  13.922   1.930
17970W        W89499  38.052   8.324  12.582
17971W        W89500  42.047  29.470  13.451
17972W        W89501  33.513  22.807   4.085
17973W        W89502   5.157  11.671  10.776
17974W        W89503  11.717  43.862   3.368
17975W        W89504  39.768  15.290  13.464
17976W        W89505  18.237  24.270  11.348
17977W        W89506  38.440  16.521   0.232
17978W        W89507  34.653  25.823  13.944
17979W        W89508   2.219  13.755  14.737
17980W        W89509   2.893  25.979  13.189
17981W        W89510  25.408  27.843   2.252
17982W        W89511  30.411  10.835  14.039
17983W        W89512  18.265  19.687   3.537
17984W        W89513   0.607  24.501   0.890
17985W        W89514   1.318  36.373   2.267
17986W        W89515   8.662  16.027   0.217
17987W        W89516  41.146  17.768   3.810
17988W        W89517  40.151  31.040  13.726
17989W        W89518  20.770  18.597  10.938
17990W        W89519  27.754  12.758   1.329
17991W        W89520  18.306  16.813  14.697
17992W        W89521  42.571   1.458   3.084
17993W        W89522  16.322  15.071  12.489
17994W        W89523  25.390  15.785  10.285
17995W        W89524   4.904  38.448   1.873
17996W        W89525  26.324  44.067  14.859
17997W        W89526  38.142  30.933  11.130
17998W        W89527   0.300  15.952  12.013
17999W        W89528  19.007   2.417  11.866
18000W        W89529  28.403  16.381  11.490
18001W        W89530   1.535  25.091  11.549
18002W        W89531  42.797  41.378   4.632
18003W        W89532  30.091  23.747  10.451
18004W        W89533  21.821  31.159  10.722
18005W        W89534  31.266  18.679   4.269
18006W        W89535  28.695  35.463  13.416
18007W        W89536  23.294  33.984  14.450
18008W        W89537  40.473   3.009   2.748
18009W        W89538   4.725  14.524  14.038
18010W        W89539  27.038  33.273   4.128
18011W        W89540  12.688  22.431  11.562
18012W        W89541  14.532  29.545  14.273
18013W        W89542  43.879  42.583   0.932
18014W        W89543  22.602  10.405   3.222
18015W        W89544  34.940   5.366   2.818
18016W        W89545   0.456  29.868   2.079
18017W        W89546  43.886   1.149   1.435
18018W        W89547   0.046   2.712  14.960
18019W        W89548  44.857  40.511   2.890
18020W        W89549  25.561  38.451  12.396
18021W        W89550   8.101   9.318  13.999
18022W        W89551  18.994  37.838   0.355
18023W        W89552  17.518  30.161  13.726
18024W        W89553  20.351  22.986  13.949
18025W        W89554  42.033  33.877  14.795
18026W        W89555  36.349  21.668  10.431
18027W        W89556   3.433  15.014  13.604
18028W        W89557   6.138  29.998  10.758
18029W        W89558  14.186  15.199   3.468
18030W        W89559  43.436  32.180  14.742
18031W        W89560   3.776  15.950  13.529
18032W        W89561  36.591  25.456   4.292
18033W        W89562  25.402  37.741  10.703
18034W        W89563  28.156   7.058   4.028
18035W        W89564  21.162  34.367   2.816
18036W        W89565  21.733  22.094   4.887
18037W        W89566  10.302   7.347   2.488
18038W        W89567  20.246  24.148  14.893
18039W        W89568  43.735  28.385  12.753
18040W        W89569   1.201  34.987  11.279
18041W        W89570  26.451  15.038   1.799
18042W        W89571  39.879  30.441  12.568
18043W        W89572  43.465   1.639  14.828
18044W        W89573   8.809  13.815  13.951
18045W        W89574  39.391  24.861  13.026
18046W        W89575  36.806  27.158  12.051
18047W        W89576  25.583  28.040   1.802
18048W        W89577   2.994  31.803  13.495
18049W        W89578  26.710  39.984  14.156
18050W        W89579  25.155   9.895   1.987
18051W        W89580   2.466  28.238  13.825
18052W        W89581   0.812  17.112  13.985
18053W        W89582  35.704  23.672  14.827
18054W        W89583   2.374   6.973   4.746
18055W        W89584   1.764   5.634   3.655
18056W        W89585  26.991  34.020  13.584
18057W        W89586  38.855  13.468  12.127
18058W        W89587  16.115  12.207  10.675
18059W        W89588  24.170  27.856  12.724
18060W        W89589   7.761   3.424   0.187
18061W        W89590  33.125  36.512  11.214
18062W        W89591  38.324  10.311  10.752
18063W        W89592  27.131  31.965  14.046
18064W        W89593  29.184  12.406   4.444
18065W        W89594   5.284   1.333   1.045
18066W        W89595   7.385  15.562  11.424
18067W        W89596   8.883  34.010  12.394
18068W        W89597  44.205   9.194  11.599
18069W        W89598  19.885  43.511   1.750
18070W        W89599  22.040  15.747  12.955
18071W        W89600  36.033  29.131   1.160
18072W        W89601  11.357  38.071   0.021
18073W        W89602  24.907  13.551   0.482
18074W        W89603   1.937  30.165   3.513
18075W        W89604   3.531  43.419  10.719
18076W        W89605  38.537   0.396   2.633
18077W        W89606  26.907  38.881  12.492
18078W        W89607  31.079  15.799   0.116
18079W        W89608  39.570  19.607  10.758
18080W        W89609   2.782  31.722   4.159
18081W        W89610  11.233  39.064   3.293
18082W        W89611  10.189  23.578   1.041
18083W        W89612  24.084  23.424   2.419
18084W        W89613  30.124  39.017   3.217
18085W        W89614  31.486  31.282  11.721
18086W        W89615   4.559  34.885   3.290
18087W        W89616  11.214  10.884   0.784
18088W        W89617  23.607  10.681  13.024
18089W        W89618  33.961  22.903  13.544
18090W        W89619  26.884  15.674   1.364
18091W        W89620  17.659   7.775   0.780
18092W        W89621  23.649  22.653   3.642
18093W        W89622   5.583  36.437  14.265
18094W        W89623   0.750  29.556  12.419
18095W        W89624  25.958   2.144   4.315
18096W        W89625  39.324  21.454   0.453
18097W        W89626  41.112   7.499  11.966
18098W        W89627  19.535  44.087  14.241
18099W        W89628   2.721  12.272   1.783
18100W        W89629  41.894  15.880  10.119
18101W        W89630  25.222   2.487   4.532
18102W        W89631  43.007   8.256  13.335
18103W        W89632  14.245   6.163  13.803
18104W        W89633  22.744  14.531  14.555
18105W        W89634   3.263  28.098   2.370
18106W        W89635  39.400   1.244   1.946
18107W        W89636  23.753  12.665   1.507
18108W        W89637   2.481  15.191   2.321
18109W        W89638  13.314  23.147  12.948
18110W        W89639  27.229  37.645   0.486
18111W        W89640  35.440  25.782  13.948
18112W        W89641  29.235   8.893   2.247
18113W        W89642  43.021  12.391   0.284
18114W        W89643  33.462   4.974   1.210
18115W        W89644  12.790   5.949   3.534
18116W        W89645  17.787  30.912   1.202
18117W        W89646  20.618  14.796   4.588
18118W        W89647   5.080  24.949   2.238
18119W        W89648  32.504   8.114  14.780
18120W        W89649  37.901   8.733  10.445
18121W        W89650  18.951  34.811  14.599
18122W        W89651   2.533  42.399   2.460
18123W        W89652  35.524  37.459  12.113
18124W        W89653   9.927  28.531  12.434
18125W        W89654  39.081   4.271  11.574
18126W        W89655   1.300  19.713  14.438
18127W        W89656   0.826   9.182  13.337
18128W        W89657  24.624  23.553   2.291
18129W        W89658  26.026   3.972  12.382
18130W        W89659  28.248  43.763   4.847
18131W        W89660  17.181   8.460  13.481
18132W        W89661  28.624  14.660   0.428
18133W        W89662  14.224  15.342   4.391
18134W        W89663  36.136  30.804  12.508
18135W        W89664  13.813  28.035   1.136
18136W        W89665   6.464  39.322  13.460
18137W        W89666  15.248   4.271   3.326
18138W        W89667  30.518   0.922  11.581
18139W        W89668  15.584   6.907  12.097
18140W        W89669   7.518  31.409   0.797
18141W        W89670  18.846  15.081   1.131
18142W        W89671   9.391  33.938   4.675
18143W        W89672  24.907  22.742  14.319
18144W        W89673  18.120   7.840  11.461
18145W        W89674  12.358  34.402  14.306
18146W        W89675   5.357   6.417  12.519
18147W        W89676  27.226  37.305  14.908
18148W        W89677  42.823  25.487   2.189
18149W        W89678  26.074  39.723  12.562
18150W        W89679  13.632  36.784   0.452
18151W        W89680  30.017   0.890   1.342
18152W        W89681  38.441  38.042   0.405
18153W        W89682  39.251  12.132   1.792
18154W        W89683  13.269  13.662   4.269
18155W        W89684   3.276  18.793   2.788
18156W        W89685  20.835  40.779  13.551
18157W        W89686  18.741  16.699   3.644
18158W        W89687   6.959   1.733   3.741
18159W        W89688  24.761  15.740   5.133
18160W        W89689  16.328  38.702   1.779
18161W        W89690  44.777  19.802   1.858
18162W        W89691  24.650   4.581  11.417
18163W        W89692  40.993  21.223   1.784
18164W        W89693   5.466  14.399  14.445
18165W        W89694  29.903  34.907   0.365
18166W        W89695  30.654  17.546   4.175
18167W        W89696  26.612  37.137  13.403
18168W        W89697  26.063  23.578   4.642
18169W        W89698  14.709  31.885  11.595
18170W        W89699  32.927  19.621  13.378
18171W        W89700  13.214  18.252   3.422
18172W        W89701  44.435  34.091  12.495
18173W        W89702  42.943  36.490   1.679
18174W        W89703   9.793  14.581   1.968
18175W        W89704  21.319  20.174  13.752
18176W        W89705   6.635  21.604   3.375
18177W        W89706  31.362  27.898  11.010
18178W        W89707  12.055  24.613   0.511
18179W        W89708  21.234   5.251  14.397
18180W        W89709  20.634  36.790  12.985
18181W        W89710  35.552   4.666  11.663
18182W        W89711  13.669  13.336   2.271
18183W        W89712  21.468  24.555   0.236
18184W        W89713  38.688   3.635   3.628
18185W        W89714  42.291  38.061   4.718
18186W        W89715  41.767  15.536   0.677
18187W        W89716  41.393  10.449   2.509
18188W        W89717   9.394  14.621   0.202
18189W        W89718  17.913   7.904  10.446
18190W        W89719  44.855  44.706   1.707
18191W        W89720  25.106  26.040  11.590
18192W        W89721  40.800  25.638  14.493
18193W        W89722  12.622  10.310   2.391
18194W        W89723   0.367  24.871   4.469
18195W        W89724  38.616  42.945  13.576
18196W        W89725  10.400   4.271  11.360
18197W        W89726  14.785  38.065  10.609
18198W        W89727  34.022   2.424  11.620
18199W        W89728  23.044  35.126   4.313
18200W        W89729  34.537   3.290  14.291
18201W        W89730  20.223  37.692  10.621
18202W        W89731  12.436  13.764  14.806
18203W        W89732  20.847  33.854  11.177
18204W        W89733  16.618  29.923   0.162
18205W        W89734  39.325   4.293   4.135
18206W        W89735  14.299  38.139   3.669
18207W        W89736  34.620  38.418   3.794
18208W        W89737  39.557   8.399  12.011
18209W        W89738  27.870  23.821  12.942
18210W        W89739  26.877   6.664   0.784
18211W        W89740  32.344   4.271  14.121
18212W        W89741  32.551  43.956   3.659
18213W        W89742   1.892  12.290   0.240
18214W        W89743  18.637  30.057  13.127
18215W        W89744   4.851   6.400   4.082
18216W        W89745  29.015   1.843   1.443
18217W        W89746  24.959  35.214  14.367
18218W        W89747  26.914  38.435  11.567
18219W        W89748  13.086  33.908   2.906
18220W        W89749   9.249  32.579  14.928
18221W        W89750  19.056  19.839  11.169
18222W        W89751   0.458  38.474   2.099
18223W        W89752  10.498  33.396   3.741
18224W        W89753  25.559   1.345  11.822
18225W        W89754  22.094  24.227  12.839
18226W        W89755  35.496  27.416   1.955
18227W        W89756  32.506  33.547  14.497
18228W        W89757  31.707  14.790  12.790
18229W        W89758   4.903  38.091   3.755
18230W        W89759  15.214  27.820  11.879
18231W        W89760  20.430  15.233  12.808
18232W        W89761  13.085   0.858  12.503
18233W        W89762  23.269  20.698   2.854
18234W        W89763  42.923  41.855   2.679
18235W        W89764  21.975  27.902  14.479
18236W        W89765  12.838   4.233   2.665
18237W        W89766  18.715   0.815  10.707
18238W        W89767  43.018  27.008   2.205
18239W        W89768   1.700   1.035   5.167
18240W        W89769  28.369  24.232   3.417
18241W        W89770  18.697  13.234   1.445
18242W        W89771  43.706  26.637  13.616
18243W        W89772  28.675  21.064   4.978
18244W        W89773  19.513  21.306   2.806
18245W        W89774   2.435  39.266  13.425
18246W        W89775   3.281  42.084  12.527
18247W        W89776  37.833  22.120  12.772
18248W        W89777   6.398  11.681   3.634
18249W        W89778  16.451  18.618  13.726
18250W        W89779  44.441   9.175   4.897
18251W        W89780   8.669   1.809   2.694
18252W        W89781   2.216  14.666   0.977
18253W        W89782  23.081  34.194   3.371
18254W        W89783  20.294  30.049   4.573
18255W        W89784  23.895  40.108   1.231
18256W        W89785   2.511  20.691  13.385
18257W        W89786   0.514  20.298  11.138
18258W        W89787  36.503  39.102  11.880
18259W        W89788  11.307   7.257  13.371
18260W        W89789  22.293  16.842   2.884
18261W        W89790  37.376  35.760  14.882
18262W        W89791  10.768  26.019  11.816
18263W        W89792  36.827  41.567   3.851
18264W        W89793  14.907   3.467  14.367
18265W        W89794  13.020  23.458  14.987
18266W        W89795   2.332  43.590  13.980
18267W        W89796  42.066  38.296   0.913
18268W        W89797   7.300  35.776   0.465
18269W        W89798   4.310  44.896  13.326
18270W        W89799  33.483  18.268   4.627
18271W        W89800   5.910   3.163   3.589
18272W        W89801  21.608  34.091   2.645
18273W        W89802   5.413   4.375   1.903
18274W        W89803  30.539   5.357   1.201
18275W        W89804  26.442  20.469  14.891
18276W        W89805  18.032  44.332   0.863
18277W        W89806  33.248   5.968  10.783
18278W        W89807  21.648  25.979  10.963
18279W        W89808  23.393  23.546  12.771
18280W        W89809  10.476  24.115   3.602
18281W        W89810  18.289  15.659  12.872
18282W        W89811  13.760   4.779  13.722
18283W        W89812  35.040  44.891   1.922
18284W        W89813  26.311   6.484   0.349
18285W        W89814  17.788   1.809   2.850
18286W        W89815  24.733  13.734  11.987
18287W        W89816   8.603  14.747  13.965
18288W        W89817  44.435  28.173   3.434
18289W        W89818  31.619  21.947  14.544
18290W        W89819  37.561  28.546  14.453
18291W        W89820  30.449  26.317  12.004
18292W        W89821  33.161   2.150  14.825
18293W        W89822  17.905  39.939   4.723
18294W        W89823  11.879  29.926  10.591
18295W        W89824  29.036  41.770   0.740
18296W        W89825  11.064  31.490   2.770
18297W        W89826  41.895   9.719   2.285
18298W        W89827  14.825   0.701   4.344
18299W        W89828   1.472  18.583   3.360
18300W        W89829  22.715   6.852   1.155
18301W        W89830  14.369  32.115  12.411
18302W        W89831  35.506  19.998  12.964
18303W        W89832  40.486   9.909   4.121
18304W        W89833  32.656  11.896   3.696
18305W        W89834  29.900  27.907  10.122
18306W        W89835  11.773  13.324  11.646
18307W        W89836  31.633  40.954   0.760
18308W        W89837  39.249  12.224   3.513
18309W        W89838  21.090  14.328  13.513
18310W        W89839  43.815  26.986   3.323
18311W        W89840  17.817  41.942   0.342
18312W        W89841  28.930   1.612  12.111
18313W        W89842  26.624  34.421   0.165
18314W        W89843   5.088  12.778  12.940
18315W        W89844  14.797  31.417  11.344
18316W        W89845  43.947  12.861  14.497
18317W        W89846  14.612  22.512  14.352
18318W        W89847   5.322  25.414   3.198
18319W        W89848  23.983  30.930   1.795
18320W        W89849  22.264   9.795   2.497
18321W        W89850   6.859  32.003  12.686
18322W        W89851  25.178  13.514  13.458
18323W        W89852  44.360  14.704  12.180
18324W        W89853   0.221  32.613   1.273
18325W        W89854  21.682  39.097   1.909
18326W        W89855  33.160   7.990  13.935
18327W        W89856  25.607  25.761   1.589
18328W        W89857   5.954   8.404   0.470
18329W        W89858  44.828  23.635  13.279
18330W        W89859  14.896   7.751   1.404
18331W        W89860  25.637  28.997  14.438
18332W        W89861  35.767  36.021  10.218
18333W        W89862  16.905  15.268  12.970
18334W        W89863  17.432   6.114  12.066
18335W        W89864  37.403  25.943   3.882
18336W        W89865  15.077  31.587  10.626
18337W        W89866  28.642   8.029  13.810
18338W        W89867  30.059   6.346   4.657
18339W        W89868  37.040   8.679   0.322
18340W        W89869  22.377  12.723   4.397
18341W        W89870  36.222  18.555  10.213
18342W        W89871  37.370  40.600  10.881
18343W        W89872   1.203  39.017  14.262
18344W        W89873  42.904  38.756  13.633
18345W        W89874  35.300  33.039   3.309
18346W        W89875  31.019  24.568   9.924
18347W        W89876  19.585  20.055  14.435
18348W        W89877  13.812   4.526  10.588
18349W        W89878   7.921  44.904   4.512
18350W        W89879  30.355  16.858   3.563
18351W        W89880  18.394   1.411   0.112
18352W        W89881  14.639  34.601  12.879
18353W        W89882  20.304  11.185  14.488
18354W        W89883  42.784  20.542  12.279
18355W        W89884  31.002  21.589   1.420
18356W        W89885  20.522  21.960  13.998
18357W        W89886  26.865  20.246  11.406
18358W        W89887  17.240  15.734   4.647
18359W        W89888  27.586  23.990  14.280
18360W        W89889  28.077   5.953  11.919
18361W        W89890  17.586  37.399   4.236
18362W        W89891  43.927  44.812  10.488
18363W        W89892  37.520  14.123  11.252
18364W        W89893  42.529  21.293   3.362
18365W        W89894  34.277   1.278   3.373
18366W        W89895  13.252   9.879  14.929
18367W        W89896  18.369  14.106  14.320
18368W        W89897  40.054  36.474  12.576
18369W        W89898   6.590  19.946   5.724
18370W        W89899  28.300  28.026   2.163
18371W        W89900  25.524  24.143   4.123
18372W        W89901  32.120  35.963  14.929
18373W        W89902   7.350  10.932  12.567
18374W        W89903  26.887  18.716   4.115
18375W        W89904  33.878  11.271   2.340
18376W        W89905  17.211  43.565  11.565
18377W        W89906  40.819  18.508  11.672
18378W        W89907  26.027  38.764   1.834
18379W        W89908   0.262  23.643   4.843
18380W        W89909  23.567   6.143   0.838
18381W        W89910  37.181   9.584   1.055
18382W        W89911  37.333  44.290   3.869
18383W        W89912  15.033   1.770  11.018
18384W        W89913  16.190   2.370  13.468
18385W        W89914   4.462  36.926  12.143
18386W        W89915  28.206   8.970  10.168
18387W        W89916  11.594  39.063   3.730
18388W        W89917  39.161  23.802   1.230
18389W        W89918   5.116   5.743   4.916
18390W        W89919  11.185  12.767  14.458
18391W        W89920  35.079  34.022  13.449
18392W        W89921  21.777   3.171   1.808
18393W        W89922  22.037  31.489  12.569
18394W        W89923  39.545  19.243   3.438
18395W        W89924   0.804  42.710   0.652
18396W        W89925  40.622  24.440  11.066
18397W        W89926  32.463  44.487   0.376
18398W        W89927  22.776  39.502  14.934
18399W        W89928  30.071  34.981  14.343
18400W        W89929   5.315  10.968  14.456
18401W        W89930   7.296  27.718  13.594
18402W        W89931  13.957  30.627   0.786
18403W        W89932  26.199  23.187  10.709
18404W        W89933  29.506  30.452  12.646
18405W        W89934  39.865  12.231   4.362
18406W        W89935  36.438  42.929  12.990
18407W        W89936  34.479  40.284  10.653
18408W        W89937  25.459  20.463  13.957
18409W        W89938  44.903  10.074   3.000
18410W        W89939  28.903  21.789   0.290
18411W        W89940   7.433  44.203  13.522
18412W        W89941  26.519  32.279  10.819
18413W        W89942  24.733  43.269   4.935
18414W        W89943   6.926  18.594   3.451
18415W        W89944   9.959  34.137  12.467
18416W        W89945  22.718  29.462   3.737
18417W        W89946  29.073  34.909  14.493
18418W        W89947   5.205   4.839  14.979
18419W        W89948  29.115   6.278   1.236
18420W        W89949  26.974   5.682   4.179
18421W        W89950   4.258  16.297   5.576
18422W        W89951  33.988   6.263  13.320
18423W        W89952  28.974  11.625  12.473
18424W        W89953   5.533   8.670   0.355
18425W        W89954  10.776  29.042   0.747
18426W        W89955  39.376  38.500  10.819
18427W        W89956  18.633  26.875   4.130
18428W        W89957  30.302  26.198   1.253
18429W        W89958  24.263  38.390   2.626
18430W        W89959  26.482  42.566   0.119
18431W        W89960  11.679  23.052   4.171
18432W        W89961   1.480  16.038  12.473
18433W        W89962  37.964  27.226  13.086
18434W        W89963  35.371  28.531   1.436
18435W        W89964  30.964  11.003   1.473
18436W        W89965  19.811  21.843   1.982
18437W        W89966  20.821   3.971  14.027
18438W        W89967  32.040  25.039   1.798
18439W        W89968  31.407  38.218   3.343
18440W        W89969  15.247   3.712   2.375
18441W        W89970  31.099   4.911  14.411
18442W        W89971  14.519  31.980   4.579
18443W        W89972   4.384   0.299  11.615
18444W        W89973  39.252  16.361   3.608
18445W        W89974   8.673  32.402   1.889
18446W        W89975  23.787  16.095  14.810
18447W        W89976  23.561   2.257   3.917
18448W        W89977  13.358  25.078  11.115
18449W        W89978  17.680  44.161   2.816
18450W        W89979  15.085  18.494   1.092
18451W        W89980   9.415  15.845  10.957
18452W        W89981   5.926  25.887  10.321
18453W        W89982   7.236  16.126   3.621
18454W        W89983  29.306  34.927   2.744
18455W        W89984  34.771  30.103   2.662
18456W        W89985  23.087  22.682  14.947
18457W        W89986  14.516   6.983  13.437
18458W        W89987  38.862  16.123   3.873
18459W        W89988  20.847  25.189   0.680
18460W        W89989  43.905   0.755   0.030
18461W        W89990  42.243  41.793  12.445
18462W        W89991   4.226  18.750   2.940
18463W        W89992   9.655  44.030  10.489
18464W        W89993   1.797  42.596   3.173
18465W        W89994  32.638  36.428   1.872
18466W        W89995  36.115   1.771   0.508
18467W        W89996  41.521  25.480  11.646
18468W        W89997  29.985   6.968   2.939
18469W        W89998  21.845  23.606   1.708
18470W        W89999  28.131  43.025   3.185
18471W        W90000   2.733  34.893  11.530
18472W        W90001  37.237  23.510   4.825
18473W        W90002  26.527  32.901  12.510
18474W        W90003  22.350  11.780   0.876
18475W        W90004  16.542   6.246  12.940
18476W        W90005  24.716  43.790  12.389
18477W        W90006   0.533  23.170   1.750
18478W        W90007  42.585  40.968   1.895
18479W        W90008  37.899  15.175  10.905
18480W        W90009  37.595  20.430   1.434
18481W        W90010  13.086   4.874   3.278
18482W        W90011  12.235  36.152   3.820
18483W        W90012  36.836  14.271  14.927
18484W        W90013  23.981  42.456   4.093
18485W        W90014  44.903  31.956   3.943
18486W        W90015   2.001   0.799  10.666
18487W        W90016  15.643  23.939  14.354
18488W        W90017  14.180  13.733   1.276
18489W        W90018  19.165  27.273  14.897
18490W        W90019  21.730   0.275  12.075
18491W        W90020  24.709  22.066  11.444
18492W        W90021  19.652   6.884  12.505
18493W        W90022  26.156  22.758   0.148
18494W        W90023   6.978  26.084  12.639
18495W        W90024  29.066   6.717  13.672
18496W        W90025  44.799  35.468   2.604
18497W        W90026   5.239  36.272   0.202
18498W        W90027  35.664  32.372   2.361
18499W        W90028  19.732  18.620  13.029
18500W        W90029  27.353  26.006  14.569
18501W        W90030  23.501  34.866  12.886
18502W        W90031   7.732  10.228  13.052
18503W        W90032  30.339   7.442   0.088
18504W        W90033  40.506  12.163  12.067
18505W        W90034  29.100  28.126   3.489
18506W        W90035   4.826  37.158  14.643
18507W        W90036   8.576  21.940  11.226
18508W        W90037   2.022  23.601  11.617
18509W        W90038  23.853  39.371   9.709
18510W        W90039  43.503  41.535  13.596
18511W        W90040  29.433  22.293   0.257
18512W        W90041  21.834  11.196  14.555
18513W        W90042  27.823  41.322  12.253
18514W        W90043  41.517   1.330   1.215
18515W        W90044  40.123  43.846   2.365
18516W        W90045  44.776  40.876  14.460
18517W        W90046   2.887  39.541   1.801
18518W        W90047  36.126  30.704   4.089
18519W        W90048  31.820  28.264   3.508
18520W        W90049  41.815  39.146   9.679
18521W        W90050  36.239  13.272   1.334
18522W        W90051  38.281  31.098   0.769
18523W        W90052  37.962  35.843  12.555
18524W        W90053  24.087  24.064  12.525
18525W        W90054   6.644   4.799  11.586
18526W        W90055  22.980   1.334   2.038
18527W        W90056  18.685  35.826   0.894
18528W        W90057   7.554  11.259  14.591
18529W        W90058  42.085  12.589   1.273
18530W        W90059   9.437   5.439  12.422
18531W        W90060   9.346  25.245  10.987
18532W        W90061  26.435  21.934   1.764
18533W        W90062  40.318   8.600   1.329
18534W        W90063  30.473   8.373   3.450
18535W        W90064   4.711   7.414   3.151
18536W        W90065  36.640  20.090   2.656
18537W        W90066  37.596  26.524  11.046
18538W        W90067  19.089   1.537  14.056
18539W        W90068   4.486  34.413  14.395
18540W        W90069  42.204  31.055  13.435
18541W        W90070  12.579  31.602  14.831
18542W        W90071  40.686   5.788  11.570
18543W        W90072  28.421   4.730  14.451
18544W        W90073  38.436  32.853   2.199
18545W        W90074  19.748  11.204   3.295
18546W        W90075  23.635  41.011   4.640
18547W        W90076  33.391  44.400  11.049
18548W        W90077  31.887  21.030   3.200
18549W        W90078  30.753  31.459  12.515
18550W        W90079   9.159   0.278   2.692
18551W        W90080  42.013  12.192   0.919
18552W        W90081  31.622  10.253  11.149
18553W        W90082  14.020  20.764  12.728
18554W        W90083  19.567  30.902   4.327
18555W        W90084  29.540  32.484   3.371
18556W        W90085  29.611  43.568  13.924
18557W        W90086  22.825  22.481  10.425
18558W        W90087   9.372  13.050   2.815
18559W        W90088  36.905  10.975   2.853
18560W        W90089   3.310  11.654   2.760
18561W        W90090  29.458  41.912   4.924
18562W        W90091   1.673  40.048  13.105
18563W        W90092  14.277  27.744   0.013
18564W        W90093  29.850  26.300   0.239
18565W        W90094  32.723   4.335  12.007
18566W        W90095  28.916  19.730   1.140
18567W        W90096  27.954  28.595   0.181
18568W        W90097   2.292   4.015   0.940
18569W        W90098  42.820  16.223   2.698
18570W        W90099  36.960  17.117  14.253
18571W        W90100  17.554  33.063   1.674
18572W        W90101  38.370  13.907   3.615
18573W        W90102  10.763  25.273  12.599
18574W        W90103  31.530  15.828   4.977
18575W        W90104  10.385  13.297   4.487
18576W        W90105  37.473  12.082  10.722
18577W        W90106   9.501   9.946  14.868
18578W        W90107  15.324  44.098  14.501
18579W        W90108   9.283  22.098   1.361
18580W        W90109  38.075   9.710  11.195
18581W        W90110   7.369  30.940  12.793
18582W        W90111  28.524  29.142   2.145
18583W        W90112   3.607  23.658  10.218
18584W        W90113   5.259  33.891  10.902
18585W        W90114  13.001  40.746  12.017
18586W        W90115   0.475  29.602   0.478
18587W        W90116  13.827  35.460  12.573
18588W        W90117  13.188  31.926  14.974
18589W        W90118  38.801  35.463  12.913
18590W        W90119  10.477  19.633   2.424
18591W        W90120  26.198  18.786   2.836
18592W        W90121  11.770   3.309  11.121
18593W        W90122  29.593  28.013   3.686
18594W        W90123   1.844  11.351   0.051
18595W        W90124  25.034  30.648   2.406
18596W        W90125   0.698  18.089   2.170
18597W        W90126  17.069  40.794  11.222
18598W        W90127  30.612  13.057   0.664
18599W        W90128  41.409  15.800  12.488
18600W        W90129  21.260  35.407   2.663
18601W        W90130  13.295  31.539   0.506
18602W        W90131   8.880  28.758   4.286
18603W        W90132  14.572   3.430   3.276
18604W        W90133  11.082   8.301  11.405
18605W        W90134  21.304  26.513  12.111
18606W        W90135   1.469   9.966   4.484
18607W        W90136  43.896  23.578  14.972
18608W        W90137   1.693  12.796   2.335
18609W        W90138  37.290  24.946  13.894
18610W        W90139  16.570  28.683   4.296
18611W        W90140   2.870   3.251   2.767
18612W        W90141  25.028  40.933   2.712
18613W        W90142  21.528   4.284   0.368
18614W        W90143  33.611   7.894  10.663
18615W        W90144  24.532  39.934   3.230
18616W        W90145  30.653  12.910  11.180
18617W        W90146  37.825  41.405   4.610
18618W        W90147   7.218  20.880   0.902
18619W        W90148  38.462  34.210  11.574
18620W        W90149  12.356   1.965   3.076
18621W        W90150   0.342   4.407  10.626
18622W        W90151  42.368   8.355   0.847
18623W        W90152   7.844  20.405  13.481
18624W        W90153  43.556   4.886   0.440
18625W        W90154  44.275  28.286   4.281
18626W        W90155  18.752  14.357  14.572
18627W        W90156   4.642  35.470   4.315
18628W        W90157  18.660  39.890  14.288
18629W        W90158  19.310  24.501  14.292
18630W        W90159  18.037  29.598   0.722
18631W        W90160  22.050  25.978  12.623
18632W        W90161  31.041  43.810   1.697
18633W        W90162  18.787  24.079  13.433
18634W        W90163   0.566  29.511   1.680
18635W        W90164  23.830   8.280  14.741
18636W        W90165   8.623   5.316  14.997
18637W        W90166  33.225  12.662   2.979
18638W        W90167  39.143  21.381  13.590
18639W        W90168  39.551  36.994  14.248
18640W        W90169  43.545  14.147  12.754
18641W        W90170   2.362  39.396   1.559
18642W        W90171  30.499  28.026   4.645
18643W        W90172   5.283  34.587   2.288
18644W        W90173  12.577  21.236   3.443
18645W        W90174  30.203  42.158  11.980
18646W        W90175  18.183  30.538  11.143
18647W        W90176  16.810  17.016  12.005
18648W        W90177  19.274  12.280   4.104
18649W        W90178  22.018   9.207   1.918
18650W        W90179  17.662  23.123   4.900
18651W        W90180   5.471  14.204  12.529
18652W        W90181  32.172   3.646   1.841
18653W        W90182  23.255  40.390  12.488
18654W        W90183  31.185   7.134   4.149
18655W        W90184  26.273  43.915   4.824
18656W        W90185  36.170   0.472   1.440
18657W        W90186  41.984  21.335   0.927
18658W        W90187  24.031  41.959  11.857
18659W        W90188  22.859  44.100  13.548
18660W        W90189   5.263   2.878   1.834
18661W        W90190   4.863  12.753  14.413
18662W        W90191  26.656   6.417   1.175
18663W        W90192  22.913  14.135   1.395
18664W        W90193  12.290  38.816  14.013
18665W        W90194  36.924  34.604   1.206
18666W        W90195  37.416  20.586  11.064
18667W        W90196  39.273  36.134  12.557
18668W        W90197  35.091  16.036  12.669
18669W        W90198  11.705  18.177  14.476
18670W        W90199  43.274   9.882   1.805
18671W        W90200  18.036   6.776  14.093
18672W        W90201  27.897  28.047  12.162
18673W        W90202   1.026  13.029  12.171
18674W        W90203  37.291   3.334  11.099
18675W        W90204  20.632  30.149  10.296
18676W        W90205  30.858  20.143  14.508
18677W        W90206  23.950  34.126  11.995
18678W        W90207  19.207  20.030   0.498
18679W        W90208  10.882   8.845   4.629
18680W        W90209  14.880  17.125  10.794
18681W        W90210  15.336   3.785   0.738
18682W        W90211  43.950  36.050   2.893
18683W        W90212   9.385  38.904   3.771
18684W        W90213  23.169  42.020   0.333
18685W        W90214  36.631  18.082   2.625
18686W        W90215   2.944  28.529   3.142
18687W        W90216  35.915  23.327  10.974
18688W        W90217  30.648  42.371   0.282
18689W        W90218  10.216  30.938   3.201
18690W        W90219  35.621  30.922   4.613
18691W        W90220  17.200  27.569  14.442
18692W        W90221   3.642  27.422   0.368
18693W        W90222  23.962  17.327   4.651
18694W        W90223  16.590  11.096  11.089
18695W        W90224  37.444  29.958  11.117
18696W        W90225  42.444  25.506   4.552
18697W        W90226  42.551  28.433   4.276
18698W        W90227  34.644   7.190   2.393
18699W        W90228  35.931  24.209   0.371
18700W        W90229   0.554  42.995  14.095
18701W        W90230  30.389  25.597   0.399
18702W        W90231  41.021  34.751  14.110
18703W        W90232  12.341   9.277   2.354
18704W        W90233  31.515   8.701   2.250
18705W        W90234  33.383  34.413   2.530
18706W        W90235  40.725   7.438   0.393
18707W        W90236  10.130  33.405   4.542
18708W        W90237   6.875  40.943  12.008
18709W        W90238  15.188  42.549  12.945
18710W        W90239   3.912  25.222   3.321
18711W        W90240  29.424  22.620   3.445
18712W        W90241   3.169  38.715  11.776
18713W        W90242  32.634  42.398  14.481
18714W        W90243  38.388  37.581   2.180
18715W        W90244  16.908  37.916   1.828
18716W        W90245  42.056  22.628  14.392
18717W        W90246   2.257   1.471  11.645
18718W        W90247  26.141  31.025  14.282
18719W        W90248  10.400  20.546  13.271
18720W        W90249   4.013  33.638  14.939
18721W        W90250  34.162  36.707   3.517
18722W        W90251  10.625  24.922   0.268
18723W        W90252  24.486  27.246  13.944
18724W        W90253   9.635  22.079   0.614
18725W        W90254  20.326  44.010   3.323
18726W        W90255  30.982  20.667   2.421
18727W        W90256  32.687   3.777  12.956
18728W        W90257  39.958  38.785   2.801
18729W        W90258  42.297   5.171  11.921
18730W        W90259  38.820  10.869   4.631
18731W        W90260  32.110  20.085   4.081
18732W        W90261  39.499  12.498  13.365
18733W        W90262  44.551  39.269   4.767
18734W        W90263  32.545  14.769  14.805
18735W        W90264  32.937   8.638   0.314
18736W        W90265  14.394  43.061  11.965
18737W        W90266  18.187   6.984  14.540
18738W        W90267  39.578  33.637   2.695
18739W        W90268   9.240   8.820   0.757
18740W        W90269  32.082  26.672  13.484
18741W        W90270  14.313  43.905   4.614
18742W        W90271  35.175  26.167   0.254
18743W        W90272  40.183  26.603  11.962
18744W        W90273  24.163  25.406  12.830
18745W        W90274  21.039  37.602   4.620
18746W        W90275   5.690  36.609   1.042
18747W        W90276  44.864  31.663  13.957
18748W        W90277  10.714  11.304   4.530
18749W        W90278   2.987  38.023  13.342
18750W        W90279  14.792  33.877  14.453
18751W        W90280  35.794   2.994   4.481
18752W        W90281  11.667  12.317  11.574
18753W        W90282  30.588  25.466  14.816
18754W        W90283  37.010  41.111  12.984
18755W        W90284  20.227  41.328   0.926
18756W        W90285  24.441  11.838  12.571
18757W        W90286  37.031  26.666   5.077
18758W        W90287   4.927  19.526   3.139
18759W        W90288  43.850  13.418  13.628
18760W        W90289  36.548  28.611  14.401
18761W        W90290   7.355  11.802   1.976
18762W        W90291  26.224  13.613   0.001
18763W        W90292   0.428  24.776  12.565
18764W        W90293  13.832  41.227  13.811
18765W        W90294  44.971  18.821   4.803
18766W        W90295   6.388  29.691   0.984
18767W        W90296  31.943  29.682  13.500
18768W        W90297   7.141  25.905  13.604
18769W        W90298  26.362   2.493   3.730
18770W        W90299  41.021   8.598   2.247
18771W        W90300  28.875  10.779  13.809
18772W        W90301  44.744  34.976  11.098
18773W        W90302  17.358  28.878  11.190
18774W        W90303  44.118  14.308  13.629
18775W        W90304  44.678  36.495  13.942
18776W        W90305  24.981  15.324  12.411
18777W        W90306  35.017  26.108  13.225
18778W        W90307  41.296  21.210   2.207
18779W        W90308   1.781  16.212   2.644
18780W        W90309   3.919   4.299  13.506
18781W        W90310   0.462  33.359   1.693
18782W        W90311  28.594  39.685  11.066
18783W        W90312  25.659   9.728   4.597
18784W        W90313  42.246  44.349   1.633
18785W        W90314  43.985   4.781  14.864
18786W        W90315  16.568  13.744  12.590
18787W        W90316   2.803  35.337   0.824
18788W        W90317  37.767  12.614   1.795
18789W        W90318  31.598  26.641   1.428
18790W        W90319  28.978  14.225   1.427
18791W        W90320  18.100  13.201   0.776
18792W        W90321  42.045  44.698  13.972
18793W        W90322  36.126   5.707   1.288
18794W        W90323  15.394  43.250   3.214
18795W        W90324  30.435  28.481   1.678
18796W        W90325   5.496  31.619   3.595
18797W        W90326   3.789  40.558  11.083
18798W        W90327  34.965  42.040  10.960
18799W        W90328  29.529  32.891  12.833
18800W        W90329  12.347  31.071   1.825
18801W        W90330  28.090   1.981   2.822
18802W        W90331  20.158  21.834   2.733
18803W        W90332  17.817  27.171  14.973
18804W        W90333  25.723  19.623   3.334
18805W        W90334  21.011  28.393   1.122
18806W        W90335   6.119  32.647   0.264
18807W        W90336   3.376   0.254  11.240
18808W        W90337  16.719  25.737   4.374
18809W        W90338  15.647  14.307  14.902
18810W        W90339   0.741  28.269  13.939
18811W        W90340   4.396  11.428  14.488
18812W        W90341  11.897   4.740  12.746
18813W        W90342  44.938   0.762  14.848
18814W        W90343   9.622  26.080   1.153
18815W        W90344  11.333  41.287   3.822
18816W        W90345   4.173   2.240  14.925
18817W        W90346  24.490  23.116   0.490
18818W        W90347  22.583  39.552  14.057
18819W        W90348  41.715  35.950   4.224
18820W        W90349   7.549  41.465   4.544
18821W        W90350  22.588  33.015  11.087
18822W        W90351   5.144  41.032  11.935
18823W        W90352  30.029  15.087  13.005
18824W        W90353   7.887   7.875   2.242
18825W        W90354  18.257   7.322  13.770
18826W        W90355   6.772  36.494   2.253
18827W        W90356   5.892  26.227   3.228
18828W        W90357  10.886  44.510  12.588
18829W        W90358  24.519  21.421   4.099
18830W        W90359   5.773   2.661  13.722
18831W        W90360  36.648   8.601  10.155
18832W        W90361  37.413  11.159   2.903
18833W        W90362  40.820  43.474   0.320
18834W        W90363  28.121  38.928   4.544
18835W        W90364  27.024  43.486  13.255
18836W        W90365  16.036  32.184  12.983
18837W        W90366  40.736  23.085   2.849
18838W        W90367  32.741  16.801  14.857
18839W        W90368  38.746   8.477  14.038
18840W        W90369  12.375  22.466   2.323
18841W        W90370  33.163  20.065  12.576
18842W        W90371  17.096  11.300  12.365
18843W        W90372  21.718  16.060  11.974
18844W        W90373  17.390   2.047   0.415
18845W        W90374  29.471   1.880  10.665
18846W        W90375  31.384  28.017   0.722
18847W        W90376  29.121  40.498   1.037
18848W        W90377  25.446  21.494   3.774
18849W        W90378  28.940  24.590  13.076
18850W        W90379  12.673  41.671  14.456
18851W        W90380  23.662   9.907   0.846
18852W        W90381  17.030   7.238  12.891
18853W        W90382   7.394  27.220  13.383
18854W        W90383  26.635  15.013  13.161
18855W        W90384   9.831   4.377  14.343
18856W        W90385  38.621  41.794  13.221
18857W        W90386  40.889  18.028  11.163
18858W        W90387  38.840  33.189  10.637
18859W        W90388  38.817  31.045  13.053
18860W        W90389  42.962   7.272   0.254
18861W        W90390   1.380  27.952   0.421
18862W        W90391  36.156  27.809  10.251
18863W        W90392  33.513  39.052   0.376
18864W        W90393   2.835   5.313  14.785
18865W        W90394   6.031  35.848  14.986
18866W        W90395  31.736  39.854  13.868
18867W        W90396  39.151  22.193  11.513
18868W        W90397  12.269   5.857   3.607
18869W        W90398  18.330  31.555   4.042
18870W        W90399  41.452   3.260   2.470
18871W        W90400  42.031  15.602   4.709
18872W        W90401  43.379  35.604  14.070
18873W        W90402  22.953  14.651  11.940
18874W        W90403  19.246  26.194   0.347
18875W        W90404  40.011  27.626   2.913
18876W        W90405   5.188  41.089   4.915
18877W        W90406  27.657  11.308   3.096
18878W        W90407   5.499  18.637  14.938
18879W        W90408  43.475  22.670  12.001
18880W        W90409  36.453  43.459  14.625
18881W        W90410  31.345  36.484   4.252
18882W        W90411  16.245  35.461  13.985
18883W        W90412  31.491  28.570   3.165
18884W        W90413   1.789   8.208   3.252
18885W        W90414  39.266  43.309   2.269
18886W        W90415  12.669  24.181  11.548
18887W        W90416  16.470  27.954   0.566
18888W        W90417   3.212   5.828  14.556
18889W        W90418   3.281  12.811  12.281
18890W        W90419  32.291   6.441   0.451
18891W        W90420  26.951   2.416  11.623
18892W        W90421  19.366  21.301  12.303
18893W        W90422   6.464  17.170   3.249
18894W        W90423  14.707   4.898   4.241
18895W        W90424  24.210  18.782   0.827
18896W        W90425  39.365  40.354  12.988
18897W        W90426  15.400  12.595  11.321
18898W        W90427  23.188  13.038  14.499
18899W        W90428   8.615  27.963  11.126
18900W        W90429  13.248  12.813   0.985
18901W        W90430  41.715  14.241  13.632
18902W        W90431   6.958  18.811  11.662
18903W        W90432  26.271   2.018   0.227
18904W        W90433  29.452  11.226   3.827
18905W        W90434  22.985  38.179  11.520
18906W        W90435  42.294  31.807   4.828
18907W        W90436  30.744  40.767  13.420
18908W        W90437  36.943   0.987  11.161
18909W        W90438  27.944  12.821   2.684
18910W        W90439  34.620  29.985   3.843
18911W        W90440   5.920   3.526   3.203
18912W        W90441   6.790  13.677   0.965
18913W        W90442  17.650   8.353  14.090
18914W        W90443  40.303  39.571  13.799
18915W        W90444  22.636  29.446   1.259
18916W        W90445  37.471   6.646  14.400
18917W        W90446  17.695  38.568   4.177
18918W        W90447  32.105  15.039  14.857
18919W        W90448   0.972  17.917  14.492
18920W        W90449   1.388  32.707   2.631
18921W        W90450   7.478  24.203   0.951
18922W        W90451  16.178  36.602  11.957
18923W        W90452  27.575  31.966  14.506
18924W        W90453  16.752   3.491   1.943
18925W        W90454  16.316  21.252  13.714
18926W        W90455  13.352   1.887   1.468
18927W        W90456  30.608  37.896   1.988
18928W        W90457  30.383  16.430  10.209
18929W        W90458  23.272  23.973   3.262
18930W        W90459  38.983  10.152  11.486
18931W        W90460  26.189   6.237   2.977
18932W        W90461  25.183  28.710   1.869
18933W        W90462  39.840  29.444   0.388
18934W        W90463  15.824  27.205   3.681
18935W        W90464   1.675  12.858   4.809
18936W        W90465   2.730   2.621   3.716
18937W        W90466  24.013   7.929   0.748
18938W        W90467  25.232  31.038  14.348
18939W        W90468  19.641   3.827  14.855
18940W        W90469  41.486  30.838   5.065
18941W        W90470  17.789  18.337   4.564
18942W        W90471   8.585  18.636  13.586
18943W        W90472  37.257  21.517   4.586
18944W        W90473  21.149  26.435   0.485
18945W        W90474  18.232   5.722  11.972
18946W        W90475   9.995  12.450   2.836
18947W        W90476  11.965  39.726   0.792
18948W        W90477   7.396  12.411  12.968
18949W        W90478  19.524  29.072  13.516
18950W        W90479  18.516  28.386  10.609
18951W        W90480  26.531  23.466  13.335
18952W        W90481  10.018  13.258   1.852
18953W        W90482  14.825  16.580   4.502
18954W        W90483   9.771  29.509  11.123
18955W        W90484  34.658  19.560  11.969
18956W        W90485  27.777  39.512   1.823
18957W        W90486  10.760  29.908  12.661
18958W        W90487  38.424  40.580  12.419
18959W        W90488   5.914  12.198  13.899
18960W        W90489   9.256  20.296   2.385
18961W        W90490  23.011  13.354  11.508
18962W        W90491   4.171   6.261   3.355
18963W        W90492  23.212  33.053   4.037
18964W        W90493   3.986  19.287   2.887
18965W        W90494   1.804  29.588  11.531
18966W        W90495  16.338  14.478   1.668
18967W        W90496  12.677  39.913   2.783
18968W        W90497  31.975  22.826   0.748
18969W        W90498  43.595  29.706   3.234
18970W        W90499  44.287  42.850  12.010
18971W        W90500  25.857  41.892  13.898
18972W        W90501  11.794   5.658  12.438
18973W        W90502  22.189  18.737   1.742
18974W        W90503   5.438  21.488   0.901
18975W        W90504  33.135  24.270   5.006
18976W        W90505  33.336  11.809  11.961
18977W        W90506   4.535   2.951  11.297
18978W        W90507  20.064   0.344   4.103
18979W        W90508  26.612  43.457   3.913
18980W        W90509   8.680  38.310  11.663
18981W        W90510  32.351   6.201  12.010
18982W        W90511  42.164  22.661  10.702
18983W        W90512  26.415   0.443   0.651
18984W        W90513  20.848   7.285  13.971
18985W        W90514  27.934   7.624  11.297
18986W        W90515  17.770  25.178   3.229
18987W        W90516  17.349  33.020  11.752
18988W        W90517  40.121  11.783  14.905
18989W        W90518  38.249  24.740  14.900
18990W        W90519  36.617  11.662  12.946
18991W        W90520  21.614  32.121  13.750
18992W        W90521  10.231  41.298  11.214
18993W        W90522  35.259   7.285  10.263
18994W        W90523  14.056  18.995   3.964
18995W        W90524  40.872  16.629   2.733
18996W        W90525  20.489  17.855   2.840
18997W        W90526   2.204  41.792   2.331
18998W        W90527  33.760  15.741   1.706
18999W        W90528  18.687  29.958   0.057
19000W        W90529  19.590  17.839  10.726
19001W        W90530  27.116  38.614  14.657
19002W        W90531   2.910  35.126  14.636
19003W        W90532  25.078   6.636  13.610
19004W        W90533   4.516   0.763  11.400
19005W        W90534  41.565  16.748   4.302
19006W        W90535  13.683  16.353  12.925
19007W        W90536   7.237  31.461  11.219
19008W        W90537   5.678  18.956  14.035
19009W        W90538  20.734  31.580  14.934
19010W        W90539  20.636  15.543   2.660
19011W        W90540   4.936  42.384  10.485
19012W        W90541  41.888  12.087   4.527
19013W        W90542  17.086   0.378  12.054
19014W        W90543   5.457  20.054  14.902
19015W        W90544  15.503  42.762  11.029
19016W        W90545  25.263   4.949  12.884
19017W        W90546   1.324  22.737  11.441
19018W        W90547  34.195  13.273  10.941
19019W        W90548  31.052  26.692   2.226
19020W        W90549  26.216  19.443   3.475
19021W        W90550  16.104  11.484  12.552
19022W        W90551  16.605  15.733  11.292
19023W        W90552  18.157  24.699  13.307
19024W        W90553  13.550  22.599   4.437
19025W        W90554  14.678   1.130  12.995
19026W        W90555   3.523  31.115   5.077
19027W        W90556   2.697  22.152   0.907
19028W        W90557  18.429  28.617   0.094
19029W        W90558  28.969  35.122   4.506
19030W        W90559  14.325   9.682   2.238
19031W        W90560  28.509  43.068  14.621
19032W        W90561  15.124  33.606   1.216
19033W        W90562  23.080  41.892  13.113
19034W        W90563  21.911  18.277  10.726
19035W        W90564  43.513  10.544  14.762
19036W        W90565   9.744  20.367  13.800
19037W        W90566  22.521  37.036   2.435
19038W        W90567  16.888  39.612  12.887
19039W        W90568  11.635  26.423  10.006
19040W        W90569   7.107  34.136  14.832
19041W        W90570  15.032   2.850   2.047
19042W        W90571   6.499  10.708  13.961
19043W        W90572  11.791  29.667   1.293
19044W        W90573  11.963   4.894   4.572
19045W        W90574   7.668  16.250   1.716
19046W        W90575  38.045  15.147   3.586
19047W        W90576  33.412  44.756   1.925
19048W        W90577   3.495  28.988  13.425
19049W        W90578   2.138  43.741   3.841
19050W        W90579  22.573   7.328   0.975
19051W        W90580   8.692  27.215  13.424
19052W        W90581   9.694  40.817   4.590
19053W        W90582  40.538  36.425  12.403
19054W        W90583  38.919  44.721  11.641
19055W        W90584  39.959  41.357  11.847
19056W        W90585  38.147  41.333   0.814
19057W        W90586  37.433  25.924  10.703
19058W        W90587   3.499  27.918  12.934
19059W        W90588  15.362  33.496   0.314
19060W        W90589  38.657  27.958  13.082
19061W        W90590  35.959  34.691  12.381
19062W        W90591   9.669  14.220  14.815
19063W        W90592  10.333  33.151   0.240
19064W        W90593  37.352  15.090   1.468
19065W        W90594   9.271  24.886   0.187
19066W        W90595  18.281   7.626   1.892
19067W        W90596  25.582   6.257   2.009
19068W        W90597  39.600  23.075   0.031
19069W        W90598  42.930  38.922  10.510
19070W        W90599  23.400  38.416   5.145
19071W        W90600  27.602  11.135  12.109
19072W        W90601  25.174  26.016   2.767
19073W        W90602  42.415  40.976   0.237
19074W        W90603  26.987  34.652   3.301
19075W        W90604   5.622  36.864   3.611
19076W        W90605  16.693  18.853  11.597
19077W        W90606  32.106  31.064  13.414
19078W        W90607  41.880  18.598   0.786
19079W        W90608  25.018  23.810   3.797
19080W        W90609  39.154  26.171  14.017
19081W        W90610  16.776   2.235   1.444
19082W        W90611  31.861  17.530   1.403
19083W        W90612  18.781   2.689  11.416
19084W        W90613  14.781  30.936  13.518
19085W        W90614  44.441  32.895   1.098
19086W        W90615   4.006  31.536  11.462
19087W        W90616  31.585  37.783   3.575
19088W        W90617  10.466  27.265   1.399
19089W        W90618  12.315  21.020   4.607
19090W        W90619  20.102  21.644  11.459
19091W        W90620  17.100  37.520  11.899
19092W        W90621   3.815   7.251   1.235
19093W        W90622  40.864  36.555  13.327
19094W        W90623  15.401   8.791  11.482
19095W        W90624  32.718  40.830   0.637
19096W        W90625  39.885  12.824  11.190
19097W        W90626  19.659  16.070  14.808
19098W        W90627  37.480  25.208  10.242
19099W        W90628  30.479  18.881   2.168
19100W        W90629  22.263  16.030  13.862
19101W        W90630  38.026  32.485  13.838
19102W        W90631  28.023  11.252   0.397
19103W        W90632  14.866   1.947   0.154
19104W        W90633  24.104   6.711  10.361
19105W        W90634  24.277  11.682  12.095
19106W        W90635   8.185  17.323   2.857
19107W        W90636  38.323  28.166   2.789
19108W        W90637  32.622  13.815  11.894
19109W        W90638   1.750  37.349  12.502
19110W        W90639  42.764  34.380   1.885
19111W        W90640  39.892  31.167   2.235
19112W        W90641  37.920  43.012   2.293
19113W        W90642  25.275  44.972  12.239
19114W        W90643  28.185  41.303  13.165
19115W        W90644  32.438   6.721  12.471
19116W        W90645  19.292  35.380  13.864
19117W        W90646  23.646   4.099   3.680
19118W        W90647  36.928  27.864   1.728
19119W        W90648   8.348   2.890   1.719
19120W        W90649  43.446  12.921   1.923
19121W        W90650  40.578  31.236   4.005
19122W        W90651  24.101  17.803   4.914
19123W        W90652   7.350  34.710   3.377
19124W        W90653  32.617  30.173  12.106
19125W        W90654  32.335  26.251   0.361
19126W        W90655  26.011  17.014   3.651
19127W        W90656   3.634   3.218   0.484
19128W        W90657  40.392   8.703  14.182
19129W        W90658  28.389   3.179   3.309
19130W        W90659  37.152  38.613  10.596
19131W        W90660  21.549  20.119   3.632
19132W        W90661  40.541  39.113   1.606
19133W        W90662  38.952   0.172   2.875
19134W        W90663  18.643   1.267   4.280
19135W        W90664  43.721  21.685   1.238
19136W        W90665  30.140  28.086   0.995
19137W        W90666  43.288  25.117   2.874
19138W        W90667  44.919  39.588   2.828
19139W        W90668  35.592  27.628  12.425
19140W        W90669  12.149   2.314   4.381
19141W        W90670  18.169  11.632   3.133
19142W        W90671  27.033  17.286  14.776
19143W        W90672  40.503  29.700   0.496
19144W        W90673   0.435   5.431   1.705
19145W        W90674  20.919  41.842  11.869
19146W        W90675  26.420  10.842   3.882
19147W        W90676  44.887   5.709   2.545
19148W        W90677  34.136  10.148   1.877
19149W        W90678  24.957  44.334   4.932
19150W        W90679  37.374  32.016   5.054
19151W        W90680  43.630  42.019   3.121
19152W        W90681  27.414   1.957  13.996
19153W        W90682  41.290  21.706   1.245
19154W        W90683  13.063  26.375   2.765
19155W        W90684   7.423   5.304  12.538
19156W        W90685  23.507  30.931   0.890
19157W        W90686  43.334  19.247  12.315
19158W        W90687  20.701   4.295   3.866
19159W        W90688   5.847  16.120   3.594
19160W        W90689  25.945  41.503   0.789
19161W        W90690   2.086  25.244  11.598
19162W        W90691  17.641  41.603   3.208
19163W        W90692   6.330  37.902   4.394
19164W        W90693  26.640  40.733   3.137
19165W        W90694  19.442  31.876  13.572
19166W        W90695  34.414  44.821   4.150
19167W        W90696  29.226   0.232  13.415
19168W        W90697  42.087  33.183   3.617
19169W        W90698  22.579   8.253  10.941
19170W        W90699  37.462  36.565   1.908
19171W        W90700  24.561  19.565  14.014
19172W        W90701  32.140  18.320  13.953
19173W        W90702  34.896  10.782   1.724
19174W        W90703  21.796   6.765   3.688
19175W        W90704   8.072  37.567  14.484
19176W        W90705  32.415  34.977   2.652
19177W        W90706  24.504  16.186  12.474
19178W        W90707  13.090   0.237  11.100
19179W        W90708  40.638  22.950  10.251
19180W        W90709   6.670  28.582   0.223
19181W        W90710   0.367   1.442   2.839
19182W        W90711   6.429  28.720   2.390
19183W        W90712  32.336  19.592   4.070
19184W        W90713  14.064  28.804  11.863
19185W        W90714  22.216   0.438  13.464
19186W        W90715  15.794  14.934   0.027
19187W        W90716  13.883  32.495  11.544
19188W        W90717   2.371  21.024  12.349
19189W        W90718  22.153  16.021   4.076
19190W        W90719  17.437  31.571   3.912
19191W        W90720  41.798  37.699  10.058
19192W        W90721  42.348  12.423  11.081
19193W        W90722  20.301  35.374   0.952
19194W        W90723  32.035   7.001   3.299
19195W        W90724  42.448  26.613  12.582
19196W        W90725  41.485  40.287   1.456
19197W        W90726  42.802   8.269   1.256
19198W        W90727  23.255   9.454  12.561
19199W        W90728  32.537  11.238  11.102
19200W        W90729  16.246  27.159  14.431
19201W        W90730  10.207  35.866  10.589
19202W        W90731  20.110  18.684  13.830
19203W        W90732  24.067  37.131  11.394
19204W        W90733  42.025  17.097   2.085
19205W        W90734  40.544  11.946   0.846
19206W        W90735   0.866  41.968   2.618
19207W        W90736  39.967  39.091   4.579
19208W        W90737  27.758  32.340  12.483
19209W        W90738  40.055  36.149   2.200
19210W        W90739  33.950  38.231   4.321
19211W        W90740  43.240  44.424  10.686
19212W        W90741  10.078  24.961   4.077
19213W        W90742  16.420  18.803  13.253
19214W        W90743  25.249   2.871  13.627
19215W        W90744  26.222  11.822   2.982
19216W        W90745  39.451  30.133  14.403
19217W        W90746  39.418  38.556  11.343
19218W        W90747   8.803  20.125   2.988
19219W        W90748  35.047  31.145  13.496
19220W        W90749  15.165  33.991   0.268
19221W        W90750  10.155   3.505  14.370
19222W        W90751  28.867  36.379   2.811
19223W        W90752  15.213  34.375  10.691
19224W        W90753   5.623  43.037   3.763
19225W        W90754  25.621   8.730   4.741
19226W        W90755   3.017   8.825  11.176
19227W        W90756  16.511  13.374   2.368
19228W        W90757  27.846  23.445   0.879
19229W        W90758  43.404  13.694   3.568
19230W        W90759   1.370  30.175  11.730
19231W        W90760  38.061  33.481  10.962
19232W        W90761  42.949   4.242  14.432
19233W        W90762  36.367  11.772  11.945
19234W        W90763  40.046  25.955  12.492
19235W        W90764  34.821  19.632   1.331
19236W        W90765  21.379  39.448   3.203
19237W        W90766  29.138  33.542  11.195
19238W        W90767  14.136  32.159  13.721
19239W        W90768  11.907  22.241  12.418
19240W        W90769  37.509  32.635  13.832
19241W        W90770   4.885  36.477  13.325
19242W        W90771   5.175  18.725  11.970
19243W        W90772  20.068  42.719   1.747
19244W        W90773  26.967  40.962   4.088
19245W        W90774  41.117  11.173  13.456
19246W        W90775  18.589  13.589  13.024
19247W        W90776  33.583  27.549  14.677
19248W        W90777  22.372  43.898   3.194
19249W        W90778   2.750  44.766   3.398
19250W        W90779  33.996  25.857   4.728
19251W        W90780  41.244   3.927   3.844
19252W        W90781  14.401  13.253   3.349
19253W        W90782  12.935  30.775   0.024
19254W        W90783  26.730  40.043   4.594
19255W        W90784  41.386  29.616   0.546
19256W        W90785  30.030  28.805  11.049
19257W        W90786  12.261  40.735  11.429
19258W        W90787   7.136  10.480  12.482
19259W        W90788   9.445  12.187   0.778
19260W        W90789  10.474   8.204   5.199
19261W        W90790  20.722  18.535  11.861
19262W        W90791  31.904   1.452  11.568
19263W        W90792  20.488  40.004  14.895
19264W        W90793  38.056  29.870   0.379
19265W        W90794  34.773  12.257  10.709
19266W        W90795   4.733  19.829   1.142
19267W        W90796  27.596  42.942  10.943
19268W        W90797  28.471   5.428  14.896
19269W        W90798  11.060  19.034   0.701
19270W        W90799  32.555  10.276  13.347
19271W        W90800   5.492   1.561  11.316
19272W        W90801   5.985  36.980  11.883
19273W        W90802  24.918  30.521  11.146
19274W        W90803  28.918  24.389   1.712
19275W        W90804  22.444  30.917   4.593
19276W        W90805  12.087  26.687  14.225
19277W        W90806  22.075  13.969  13.383
19278W        W90807   2.669  26.945  11.552
19279W        W90808   2.416  23.841   4.037
19280W        W90809  34.968   7.204   1.213
19281W        W90810  43.774  27.923  12.536
19282W        W90811  34.678  27.651  10.751
19283W        W90812   2.756   7.101   3.315
19284W        W90813  38.987  19.896   4.642
19285W        W90814  10.286  29.371   2.317
19286W        W90815  15.830   3.697  13.460
19287W        W90816  13.391  15.102   2.143
19288W        W90817  24.649  41.854   0.405
19289W        W90818  28.374  42.540   2.101
19290W        W90819  14.431  30.411  13.543
19291W        W90820  18.561   6.927  12.010
19292W        W90821   1.781  36.937  14.352
19293W        W90822  22.033  22.589  12.567
19294W        W90823  15.622   5.681  12.859
19295W        W90824   7.386  16.035  14.839
19296W        W90825  41.338  15.292  14.414
19297W        W90826  44.953   6.957  14.470
19298W        W90827   7.911  10.348   5.066
19299W        W90828  29.916  16.641   4.707
19300W        W90829  12.808  27.168  14.010
19301W        W90830  44.771  32.936  14.753
19302W        W90831  40.914   1.034  10.717
19303W        W90832  42.749  41.561  13.955
19304W        W90833  28.788  12.512   1.392
19305W        W90834  37.969  14.368   2.809
19306W        W90835  23.269  39.385  10.865
19307W        W90836  33.116   8.847   3.613
19308W        W90837   1.817  22.164   4.766
19309W        W90838  23.562  27.254  13.052
19310W        W90839  13.894  10.310  14.313
19311W        W90840  21.705  24.589   3.261
19312W        W90841   2.966   7.835   4.636
19313W        W90842   1.332  34.813  13.581
19314W        W90843  42.355  44.561   2.091
19315W        W90844   8.336  18.878   3.757
19316W        W90845  23.704  36.801   3.908
19317W        W90846  10.274  32.058   1.395
19318W        W90847  24.214  32.011   0.468
19319W        W90848  41.046  42.346  13.752
19320W        W90849  23.224  22.240  11.957
19321W        W90850   0.854  19.168   4.993
19322W        W90851   1.430  22.255  14.544
19323W        W90852  22.677  12.387  13.368
19324W        W90853  17.351  44.807  10.984
19325W        W90854  33.568  10.295   3.583
19326W        W90855   4.867  30.094  13.996
19327W        W90856   6.753  18.485  11.295
19328W        W90857  21.600  36.079  12.031
19329W        W90858  41.798  16.572  12.012
19330W        W90859  41.919  26.674  14.287
19331W        W90860  32.505  24.958  12.900
19332W        W90861  10.935  39.506   1.471
19333W        W90862  15.544  14.137   1.358
19334W        W90863   0.908  33.667  11.552
19335W        W90864  16.693  39.056   3.648
19336W        W90865   8.848  11.320  12.550
19337W        W90866  32.884  43.019  14.683
19338W        W90867  20.557  37.855  10.127
19339W        W90868  40.314  22.266   4.284
19340W        W90869   6.280  12.434   4.097
19341W        W90870  34.968  41.650  10.072
19342W        W90871  33.112   4.231   2.657
19343W        W90872  36.865  43.606  13.836
19344W        W90873  43.984  35.310  12.405
19345W        W90874   6.383  28.661   0.858
19346W        W90875  43.219   8.203  11.617
19347W        W90876  22.478  17.627  11.049
19348W        W90877  14.175  36.812   0.778
19349W        W90878   7.788  28.642   3.731
19350W        W90879  35.639  19.820  11.922
19351W        W90880  40.412   3.156   4.329
19352W        W90881  43.401  25.049  10.279
19353W        W90882  10.448  43.811  13.510
19354W        W90883   1.345  13.259   4.697
19355W        W90884  17.526   9.203   2.461
19356W        W90885   4.018  33.878  11.169
19357W        W90886  37.385  22.006  13.013
19358W        W90887   5.199   2.481   2.613
19359W        W90888  21.541  41.771  14.794
19360W        W90889  16.805  31.513  14.323
19361W        W90890  32.344  16.786   2.523
19362W        W90891  10.607  17.241  11.509
19363W        W90892  17.322   6.419  12.556
19364W        W90893  32.635  15.499   5.405
19365W        W90894  40.087  10.802  14.836
19366W        W90895  21.230  15.783  11.044
19367W        W90896  11.248  42.465   1.615
19368W        W90897  26.663  16.042   2.633
19369W        W90898  36.137  34.906  13.432
19370W        W90899   4.768  17.764   5.417
19371W        W90900  20.553   0.426  11.504
19372W        W90901   6.405  13.544   2.814
19373W        W90902  36.463   7.891   2.291
19374W        W90903  16.564  40.926  11.119
19375W        W90904  26.987   2.537  13.077
19376W        W90905  16.686   0.916  11.773
19377W        W90906  40.835  44.238   2.428
19378W        W90907  27.700  17.840   4.800
19379W        W90908   1.653  29.519  14.225
19380W        W90909  30.225  25.488  11.059
19381W        W90910  27.989  33.604   4.215
19382W        W90911  17.564  20.203   0.450
19383W        W90912   0.960  34.474   2.376
19384W        W90913   9.090  20.997  12.997
19385W        W90914  13.275  25.632   2.240
19386W        W90915   0.890   5.849  14.368
19387W        W90916   0.745  20.202  13.452
19388W        W90917  18.868   4.252   1.888
19389W        W90918  12.967   4.498  11.894
19390W        W90919  33.395  24.219  12.916
19391W        W90920   7.255   5.431   3.124
19392W        W90921  38.498   1.685   3.891
19393W        W90922  15.178  15.093  11.972
19394W        W90923  27.386   8.309   2.237
19395W        W90924  33.119  30.648   3.388
19396W        W90925  44.150  23.558   0.425
19397W        W90926  18.372  20.525  12.035
19398W        W90927  17.206  10.838   2.146
19399W        W90928   9.283  10.068   1.407
19400W        W90929  39.328   4.763   0.326
19401W        W90930  27.146  19.204   4.326
19402W        W90931  11.382  30.932  10.631
19403W        W90932  39.853  29.930  13.357
19404W        W90933  22.556   3.281   4.981
19405W        W90934  35.895  18.826   0.905
19406W        W90935   3.386  15.238   1.291
19407W        W90936  29.686  30.515   3.787
19408W        W90937   9.416  36.533  13.964
19409W        W90938  23.698  28.662  11.135
19410W        W90939   0.501   6.658  11.932
19411W        W90940  26.987  43.476  12.465
19412W        W90941  23.724  31.384   1.784
19413W        W90942  21.339  34.147   0.803
19414W        W90943  21.055  16.584   3.638
19415W        W90944  30.517  12.458   5.418
19416W        W90945  38.579   0.423   3.167
19417W        W90946   7.762  21.413  13.358
19418W        W90947  23.085  13.162   0.010
19419W        W90948  15.990  18.621   3.097
19420W        W90949  24.609  27.552  12.657
19421W        W90950  20.625  14.877  12.475
19422W        W90951  20.505   3.071  14.795
19423W        W90952   6.839  36.408  13.585
19424W        W90953  15.865  18.102  14.330
19425W        W90954  12.363  15.525   2.089
19426W        W90955  38.386   0.792   2.282
19427W        W90956  26.096  36.668   2.199
19428W        W90957  42.186  26.603   4.357
19429W        W90958  21.559  37.957   0.443
19430W        W90959  34.028  36.026   0.072
19431W        W90960  18.767  16.084  11.452
19432W        W90961  11.672  38.871  11.012
19433W        W90962  10.357  12.687  11.731
19434W        W90963  38.920  31.439   0.532
19435W        W90964  39.310  24.605  10.914
19436W        W90965   0.952   2.700  14.774
19437W        W90966  21.181  10.936   3.655
19438W        W90967   8.268  38.545   4.552
19439W        W90968  42.170   9.302   0.642
19440W        W90969   0.782  42.357  11.489
19441W        W90970  37.214  13.129   3.772
19442W        W90971   4.536   0.310   2.218
19443W        W90972  19.999  35.051   2.215
19444W        W90973  35.630   3.163  14.971
19445W        W90974  15.411   1.263   3.928
19446W        W90975  29.407  22.980   2.614
19447W        W90976   5.838   4.761   3.588
19448W        W90977  40.512  35.375   0.432
19449W        W90978  18.768   7.884  10.790
19450W        W90979  21.597   2.716   0.365
19451W        W90980  29.149  16.784  11.681
19452W        W90981  24.351  22.614   0.457
19453W        W90982  20.968  27.700   4.208
19454W        W90983  32.128  28.699   2.213
19455W        W90984  15.729  24.962  14.533
19456W        W90985   2.206  36.313   0.949
19457W        W90986  33.122  28.378   0.721
19458W        W90987  35.651  28.145  12.565
19459W        W90988  38.085   8.719   1.399
19460W        W90989  17.141   6.407   4.578
19461W        W90990   7.150  40.435   2.134
19462W        W90991   9.170   5.433   3.910
19463W        W90992   8.932  42.174   4.079
19464W        W90993  38.688  26.191  13.110
19465W        W90994   1.947  11.290  10.600
19466W        W90995  26.425  33.489   2.550
19467W        W90996  28.459  28.890   4.580
19468W        W90997  19.228  25.154   2.332
19469W        W90998  19.185  33.991   3.744
19470W        W90999  15.228   7.516   9.834
19471W        W91000  16.598  17.062  14.920
19472W        W91001  39.419  11.306  12.489
19473W        W91002   9.642  21.083   2.601
19474W        W91003  41.866  29.763   0.775
19475W        W91004  24.564  26.671   1.673
19476W        W91005   4.740  20.734  14.968
19477W        W91006  43.899  16.582  10.925
19478W        W91007   0.939  39.371  11.553
19479W        W91008  16.300  26.926   4.282
19480W        W91009  37.902   9.637  12.014
19481W        W91010  25.038  36.994   0.676
19482W        W91011  26.944   9.295   3.311
19483W        W91012  23.939   8.342  13.978
19484W        W91013  37.809   0.976   1.213
19485W        W91014   3.494  22.770   3.748
19486W        W91015  25.901  33.456  14.814
19487W        W91016  41.003  40.325   0.527
19488W        W91017  13.285  19.421   0.623
19489W        W91018  42.931   3.341  10.333
19490W        W91019  18.241  40.309   3.072
19491W        W91020  42.487   7.208   3.394
19492W        W91021  22.150  19.503  12.772
19493W        W91022  18.087  19.160  13.766
19494W        W91023  11.189  13.270   4.627
19495W        W91024  13.676  41.058   0.197
19496W        W91025  11.895  37.440   0.212
19497W        W91026  37.874  36.968  13.925
19498W        W91027   2.051   7.136   1.105
19499W        W91028  37.792  35.491  12.924
19500W        W91029  31.146   7.233  11.503
19501W        W91030  15.750  21.185   1.068
19502W        W91031  34.322  31.581   1.789
19503W        W91032  38.924  39.462  12.999
19504W        W91033   5.212  44.046   0.858
19505W        W91034  15.961  13.088  13.227
19506W        W91035  21.133   1.553  13.658
19507W        W91036   7.390   2.610  10.940
19508W        W91037  37.958  44.506  13.005
19509W        W91038  14.732   6.717  11.995
19510W        W91039  11.742  11.915  11.282
19511W        W91040  25.471   7.654  10.643
19512W        W91041   7.855  29.170   3.367
19513W        W91042  31.581   4.619  10.548
19514W        W91043  20.513  32.585   0.927
19515W        W91044  27.629  27.579   1.189
19516W        W91045  36.077   2.704  12.665
19517W        W91046   6.455  28.691  13.494
19518W        W91047  17.266  41.867   3.758
19519W        W91048  29.438  32.244  12.585
19520W        W91049  15.761  33.503   2.258
19521W        W91050  13.397  34.828  11.089
19522W        W91051  11.642  29.591  10.258
19523W        W91052   7.564  23.708  13.405
19524W        W91053   8.449  44.065  13.861
19525W        W91054  11.058  20.289   3.578
19526W        W91055  41.081  41.949   0.882
19527W        W91056  17.028  22.596   1.905
19528W        W91057  19.674  34.030   4.290
19529W        W91058  24.304  33.807   4.742
19530W        W91059  41.317   6.418   4.845
19531W        W91060   6.116  36.087  14.480
19532W        W91061   0.960  11.822   4.862
19533W        W91062  43.442  28.282   4.473
19534W        W91063  13.776  31.018  11.481
19535W        W91064  25.259  32.012   0.688
19536W        W91065  16.515   1.641   3.289
19537W        W91066  28.303  16.600   3.137
19538W        W91067   3.621  26.110   1.606
19539W        W91068  31.712   9.220   3.739
19540W        W91069  34.369  22.609   4.621
19541W        W91070  22.304  21.177   4.419
19542W        W91071  25.934   8.704   2.635
19543W        W91072  18.076  44.075  12.464
19544W        W91073  24.549  31.365  12.449
19545W        W91074  27.996  33.674   3.321
19546W        W91075   4.357  40.028   3.863
19547W        W91076  32.569  25.072   4.036
19548W        W91077   0.438  35.495  10.738
19549W        W91078  24.073  30.599   0.440
19550W        W91079  25.297  30.339   2.055
19551W        W91080  28.445  44.875   3.554
19552W        W91081  18.696  41.571  10.504
19553W        W91082   7.491   8.843   0.379
19554W        W91083   9.849  36.126  10.856
19555W        W91084   5.431  16.658  14.495
19556W        W91085  11.136  26.750   4.593
19557W        W91086  28.553  21.638  14.959
19558W        W91087   1.873  10.367  12.641
19559W        W91088  12.460  23.609   2.884
19560W        W91089  30.200  12.902   3.650
19561W        W91090   9.276  17.712  11.376
19562W        W91091  19.486  34.685   4.546
19563W        W91092   4.118  34.884  12.026
19564W        W91093  24.594   4.976  11.728
19565W        W91094  35.192  44.194  14.214
19566W        W91095   4.774  29.666  13.584
19567W        W91096  20.717  34.542   3.061
19568W        W91097  28.894   6.324   4.129
19569W        W91098  33.130  19.196   1.655
19570W        W91099  39.028   6.353   4.917
19571W        W91100  34.818   2.719   2.265
19572W        W91101  21.119  44.974   1.298
19573W        W91102  39.317  33.587  10.170
19574W        W91103   8.279  27.158  11.164
19575W        W91104  38.021  20.686   4.641
19576W        W91105  39.721  39.279   4.169
19577W        W91106  22.198  11.489  14.332
19578W        W91107  16.313  15.054  11.062
19579W        W91108  33.966  22.623  12.887
19580W        W91109  41.746  31.481  14.427
19581W        W91110  44.817  20.704   3.682
19582W        W91111  34.376  32.843  11.663
19583W        W91112  43.998  31.495  14.345
19584W        W91113  23.230  17.626   0.015
19585W        W91114   4.451  37.005  13.875
19586W        W91115   2.405   1.354  14.777
19587W        W91116  36.711   3.823   2.009
19588W        W91117   8.310  25.703  11.801
19589W        W91118  36.926  23.360  13.075
19590W        W91119  41.429   0.449  13.044
19591W        W91120   1.962  12.889  13.941
19592W        W91121  33.743  44.831   2.455
19593W        W91122  22.337   2.131  13.328
19594W        W91123  17.289  25.187   0.921
19595W        W91124  28.112  16.481  13.508
19596W        W91125  42.410  12.076   1.986
19597W        W91126  41.006   0.609  12.195
19598W        W91127   4.435  22.581   3.586
19599W        W91128   6.863  18.627   1.818
19600W        W91129  14.976  43.713  13.059
19601W        W91130  17.130   5.974   2.983
19602W        W91131  15.453   5.185   3.997
19603W        W91132  38.808  16.938  11.862
19604W        W91133   6.823  44.647   3.560
19605W        W91134  39.470  43.693   3.746
19606W        W91135  39.577  28.453   4.093
19607W        W91136   5.395  16.358   1.350
19608W        W91137  15.989  28.882  11.109
19609W        W91138  42.624  20.508  11.114
19610W        W91139  39.376   8.881  11.953
19611W        W91140  20.089  32.554   4.917
19612W        W91141   8.897  11.253  13.938
19613W        W91142  38.820  19.641   0.157
19614W        W91143  43.378  33.582  11.155
19615W        W91144  22.553   1.778   4.148
19616W        W91145  11.616  25.330   1.757
19617W        W91146   9.355  20.706  13.340
19618W        W91147  26.763  32.373   3.294
19619W        W91148  18.566  32.587  13.347
19620W        W91149  42.942  26.617   4.117
19621W        W91150  21.017  40.032   2.227
19622W        W91151  11.857  13.147   1.423
19623W        W91152  28.715  33.418  10.925
19624W        W91153   6.316  36.167   0.337
19625W        W91154  24.059  42.835  13.739
19626W        W91155   7.961  16.337   2.138
19627W        W91156  28.914   7.516  12.660
19628W        W91157  15.064  23.733  12.345
19629W        W91158  31.374  34.087   0.208
19630W        W91159  16.796  25.495   3.371
19631W        W91160  28.180   9.184   0.516
19632W        W91161  31.178  30.413   4.547
19633W        W91162  17.951  26.079  13.054
19634W        W91163  13.527  26.547   1.485
19635W        W91164   7.722   4.443  11.394
19636W        W91165  18.597   7.165   3.799
19637W        W91166  37.308  19.316  11.530
19638W        W91167   9.481  21.449  13.826
19639W        W91168   7.675  16.387  12.160
19640W        W91169  23.432  14.267  11.523
19641W        W91170  29.577  21.206   1.278
19642W        W91171  22.989  20.179   0.267
19643W        W91172  31.460  39.016  14.873
19644W        W91173  26.340  44.938   2.370
19645W        W91174  12.569  25.694   1.864
19646W        W91175  44.673   1.442  12.025
19647W        W91176   9.034  26.525   0.466
19648W        W91177  42.020  11.114   0.015
19649W        W91178  25.193  25.117   0.280
19650W        W91179  37.549  37.315  10.221
19651W        W91180   7.086  32.431   0.749
19652W        W91181   2.438  41.983   2.779
19653W        W91182  34.545  43.702   3.326
19654W        W91183  35.031   1.355  12.044
19655W        W91184  23.154   1.363  11.432
19656W        W91185  31.606  30.680  14.044
19657W        W91186  19.713  39.401   2.466
19658W        W91187  30.476  40.090   1.620
19659W        W91188  15.731  17.166  10.835
19660W        W91189  21.770  25.491  11.108
19661W        W91190  22.679  33.391  12.777
19662W        W91191  14.668  20.770  13.162
19663W        W91192  25.584  43.322  13.082
19664W        W91193   4.680  38.067  11.700
19665W        W91194  13.107  42.249   3.882
19666W        W91195  21.591  21.754  12.119
19667W        W91196  35.483  18.995  12.872
19668W        W91197  40.546  42.272  14.841
19669W        W91198  44.382  31.463  13.913
19670W        W91199  30.868  21.563   3.670
19671W        W91200  40.946  32.050  14.082
19672W        W91201  18.522  42.296   4.652
19673W        W91202   2.668  24.635   1.527
19674W        W91203  14.783  41.813   1.201
19675W        W91204  21.634  21.163   4.791
19676W        W91205   0.041   0.620  12.951
19677W        W91206  35.011  15.851  14.476
19678W        W91207  28.515  26.896  10.542
19679W        W91208  44.989  17.711   2.342
19680W        W91209   4.175  19.794   2.929
19681W        W91210  14.631  34.135  11.917
19682W        W91211  44.917   0.814   3.845
19683W        W91212   8.120  35.617  10.969
19684W        W91213  17.151   1.098   0.354
19685W        W91214  14.126  44.771  10.511
19686W        W91215  20.716  30.089  12.285
19687W        W91216   2.289   1.278   4.058
19688W        W91217  29.721  42.382  14.390
19689W        W91218  33.164  44.199  12.394
19690W        W91219  21.008  44.625  11.368
19691W        W91220  14.762  18.274   0.727
19692W        W91221  42.689  44.898  12.427
19693W        W91222   3.977  29.433  11.976
19694W        W91223  42.916   7.648  12.399
19695W        W91224  36.389  39.842  12.767
19696W        W91225  38.881  19.462  11.113
19697W        W91226  21.055   0.712   0.889
19698W        W91227   1.200   6.715   1.459
19699W        W91228  20.472  33.514  12.405
19700W        W91229  34.293  26.882  14.015
19701W        W91230  21.224   0.839  14.053
19702W        W91231  44.843  18.415   5.102
19703W        W91232  22.511  16.353  11.609
19704W        W91233  43.515  36.398   2.328
19705W        W91234  42.654  29.258  13.954
19706W        W91235   6.625  23.378   3.310
19707W        W91236  21.994  43.365   3.797
19708W        W91237  24.257  26.412   3.234
19709W        W91238  22.221  41.869   3.078
19710W        W91239  43.740  26.735   4.067
19711W        W91240  30.274  30.036   3.125
19712W        W91241   4.242  40.266   1.843
19713W        W91242  39.785   9.504  13.379
19714W        W91243  11.384  14.082   0.971
19715W        W91244   9.920   0.446   1.317
19716W        W91245   7.252   1.737  12.393
19717W        W91246   7.707   3.766   4.289
19718W        W91247  23.142  44.917   3.374
19719W        W91248  30.502  31.424  11.550
19720W        W91249  17.240  28.370  11.210
19721W        W91250  14.210  30.007   2.254
19722W        W91251   3.654  39.962  14.976
19723W        W91252  24.573  18.189   2.919
19724W        W91253  30.158  36.463  10.517
19725W        W91254  23.698  16.769  13.464
19726W        W91255  14.111  28.151   4.117
19727W        W91256  13.350  34.943  11.999
19728W        W91257   0.046   6.663  12.427
19729W        W91258  21.301  24.578  12.138
19730W        W91259  42.504  34.567  12.815
19731W        W91260  33.009  14.044   2.062
19732W        W91261   1.476  10.433  11.090
19733W        W91262  31.007   2.304   3.378
19734W        W91263   1.376  33.410   4.370
19735W        W91264   3.925  39.635   4.759
19736W        W91265  23.200  41.456   0.285
19737W        W91266  12.349   0.345  13.246
19738W        W91267  24.667  34.130   2.809
19739W        W91268  33.486  20.488  13.951
19740W        W91269  38.920  27.204  13.766
19741W        W91270   2.301   0.866   0.010
19742W        W91271  41.217  21.306   3.568
19743W        W91272  35.439  38.025   0.873
19744W        W91273  11.837  19.851  11.143
19745W        W91274  20.078  19.190   4.609
19746W        W91275  24.142   0.479  12.370
19747W        W91276  36.943   0.371   1.967
19748W        W91277   1.906  26.437  11.324
19749W        W91278  38.363  27.054   0.184
19750W        W91279  12.690  15.272   3.714
19751W        W91280  42.809  10.389  10.412
19752W        W91281  12.742  33.514   3.095
19753W        W91282  38.120  28.369  11.104
19754W        W91283  13.536  28.425   2.440
19755W        W91284  36.108  33.448   4.340
19756W        W91285   5.840  40.778   3.453
19757W        W91286   3.370   0.334  11.743
19758W        W91287  17.706  38.894   2.270
19759W        W91288   5.002  43.743  14.364
19760W        W91289  11.921   1.748  12.540
19761W        W91290  22.983  39.174  11.685
19762W        W91291   6.131  27.110   4.540
19763W        W91292  18.164  13.426  13.932
19764W        W91293  12.336   6.731   2.175
19765W        W91294   0.740  38.855  14.072
19766W        W91295  28.722  22.618   4.023
19767W        W91296  29.888  44.988   0.862
19768W        W91297  41.475   2.799   1.553
19769W        W91298  17.113  14.603   3.730
19770W        W91299   1.316  25.999   1.988
19771W        W91300  32.657  14.833  10.976
19772W        W91301  22.946  20.139  14.372
19773W        W91302  10.699  30.601  14.944
19774W        W91303  29.970  11.328  12.453
19775W        W91304   3.628  21.105   3.132
19776W        W91305  28.324  11.095   3.727
19777W        W91306  43.345  15.624   1.698
19778W        W91307  16.769   3.346  12.329
19779W        W91308  16.533  34.984   2.574
19780W        W91309  30.080  43.627  14.146
19781W        W91310  23.553  12.884   2.391
19782W        W91311  11.073  12.677  12.475
19783W        W91312  35.431  39.953   1.838
19784W        W91313  10.722  22.005  10.631
19785W        W91314   4.451   0.801   1.935
19786W        W91315  17.565  43.011   4.161
19787W        W91316  40.998  39.018   1.383
19788W        W91317  11.234   8.389   4.083
19789W        W91318  10.747  12.593  12.073
19790W        W91319   1.433  19.018   3.666
19791W        W91320  11.863  34.319   2.187
19792W        W91321  20.709  37.661  12.647
19793W        W91322   0.871   0.021  11.081
19794W        W91323  10.397  44.488   2.672
19795W        W91324  28.011  38.020   3.902
19796W        W91325  36.204   5.394  14.099
19797W        W91326  26.840  18.820   1.692
19798W        W91327  27.744   1.868   0.557
19799W        W91328   3.346  42.913  10.579
19800W        W91329  28.651  26.197   3.179
19801W        W91330  19.830  27.885  14.927
19802W        W91331  20.874  14.174   3.397
19803W        W91332  16.740  26.749  12.328
19804W        W91333  42.873  20.215  13.471
19805W        W91334  29.104  25.028  10.763
19806W        W91335  21.796  44.800  12.962
19807W        W91336  18.914  17.471  13.574
19808W        W91337  27.727  29.999  13.047
19809W        W91338  16.227  29.174   1.718
19810W        W91339  11.786  12.252  10.647
19811W        W91340  27.862  34.860   5.349
19812W        W91341  28.956  41.097  11.222
19813W        W91342  18.579  42.246   3.303
19814W        W91343  34.544  40.043   1.612
19815W        W91344  32.502  10.285   4.535
19816W        W91345   0.568   3.970   0.312
19817W        W91346  33.057  38.936  13.694
19818W        W91347   6.746  16.287   3.702
19819W        W91348  39.076  12.872   1.445
19820W        W91349   4.078  38.668  11.924
19821W        W91350  26.777  13.330  13.899
19822W        W91351  32.037  22.918   1.918
19823W        W91352  19.279  44.306   1.207
19824W        W91353  43.268  24.775  12.168
19825W        W91354  43.287  33.062  14.270
19826W        W91355   0.166  22.055  14.031
19827W        W91356  30.643  20.351   0.516
19828W        W91357   0.193   6.266   1.277
19829W        W91358  24.208  41.448  11.123
19830W        W91359  34.765  38.084   3.147
19831W        W91360   3.440  13.920  11.579
19832W        W91361  21.066   3.418   0.667
19833W        W91362   2.019   9.903  12.412
19834W        W91363  25.938  10.135   4.743
19835W        W91364  40.433   0.273  14.522
19836W        W91365  19.018  13.360   3.061
19837W        W91366  36.557  44.683   0.063
19838W        W91367  16.313   0.957   1.436
19839W        W91368  19.603  44.739   3.613
19840W        W91369  37.038  22.079  11.680
19841W        W91370   2.961  11.534  11.887
19842W        W91371   6.369   7.972  14.317
19843W        W91372   7.943  27.109  13.303
19844W        W91373  33.567  42.066   4.684
19845W        W91374   1.901  28.925  13.357
19846W        W91375  15.062  10.635   4.054
19847W        W91376  35.109   2.263   1.068
19848W        W91377  36.311  23.063  14.746
19849W        W91378   9.737  24.176   1.675
19850W        W91379  32.789   1.994   0.184
19851W        W91380  27.793  35.465   2.418
19852W        W91381  32.531  24.475   1.838
19853W        W91382  27.745  17.931   1.974
19854W        W91383  16.750  21.683   3.002
19855W        W91384  41.611  16.082   3.637
19856W        W91385   1.828  36.636   2.239
19857W        W91386   3.858   3.937  14.485
19858W        W91387  36.516  25.940  14.366
19859W        W91388   4.819  20.245   4.932
19860W        W91389  19.960  36.943   3.699
19861W        W91390   5.198  38.528   0.487
19862W        W91391   1.019  29.327   2.711
19863W        W91392  43.113  26.086  13.139
19864W        W91393   1.273  17.363   2.852
19865W        W91394  31.652  14.142   2.506
19866W        W91395  27.485  19.755   3.732
19867W        W91396   3.867  25.512   0.847
19868W        W91397  35.908  39.539   0.794
19869W        W91398  27.575  11.541  11.647
19870W        W91399   5.292   5.527   2.809
19871W        W91400   8.647  17.833  11.922
19872W        W91401  41.574  44.278  14.809
19873W        W91402   9.636  30.035   3.883
19874W        W91403  34.295  26.077   5.169
19875W        W91404  28.213   8.292   3.437
19876W        W91405  18.292  21.664  12.657
19877W        W91406  21.231  17.077   3.619
19878W        W91407  20.146  38.053  14.474
19879W        W91408  39.837  36.953  11.060
19880W        W91409   1.938  41.766   4.452
19881W        W91410  10.117  17.328  11.448
19882W        W91411  36.168   2.193  13.988
19883W        W91412   5.880  10.410  12.547
19884W        W91413  36.171   7.835  14.315
19885W        W91414  25.647  43.368   3.297
19886W        W91415   3.325  18.654   0.757
19887W        W91416  27.655  26.813   1.717
19888W        W91417  42.321  11.173  12.613
19889W        W91418  15.495  44.016   1.141
19890W        W91419  11.873  33.554   3.125
19891W        W91420  12.310  37.850   4.117
19892W        W91421  38.445   6.571  12.976
19893W        W91422  26.510  11.805  12.389
19894W        W91423  21.279  33.861   1.342
19895W        W91424  35.601  30.592   4.202
19896W        W91425  16.702  35.680  12.059
19897W        W91426  13.974  25.086   3.283
19898W        W91427  37.389   5.817   1.855
19899W        W91428  30.934   5.391  11.435
19900W        W91429  33.039  20.586  13.029
19901W        W91430  21.753   5.892   4.209
19902W        W91431  33.369   2.483   4.525
19903W        W91432  22.250  19.164   1.419
19904W        W91433  43.375  14.824  13.543
19905W        W91434  13.560   7.788   2.492
19906W        W91435  14.612  24.740   3.074
19907W        W91436   3.453  35.608  11.349
19908W        W91437  34.393  19.148   3.568
19909W        W91438  14.769   2.376   2.241
19910W        W91439  12.369  28.190   4.544
19911W        W91440  44.860  40.360  14.418
19912W        W91441  35.065  30.881  13.945
19913W        W91442  24.051   9.270  12.118
19914W        W91443  37.848   3.001   3.876
19915W        W91444  32.067   1.507   1.115
19916W        W91445  13.955  16.309   3.965
19917W        W91446  36.396  10.860   0.858
19918W        W91447  21.029   3.287  12.499
19919W        W91448  44.508  43.932   0.552
19920W        W91449  28.823  30.639   2.853
19921W        W91450  30.179  18.624  10.632
19922W        W91451  13.178  30.409  10.561
19923W        W91452  19.764   9.672  13.261
19924W        W91453  17.346  30.153  10.697
19925W        W91454  21.054  18.655   5.071
19926W        W91455  36.904  25.164  10.656
19927W        W91456  10.752   9.168   3.601
19928W        W91457   9.995   6.534  12.530
19929W        W91458  24.479  38.484  12.937
19930W        W91459   6.255   5.561   2.082
19931W        W91460  43.753   3.054   2.692
19932W        W91461  11.943  15.627   1.487
19933W        W91462   6.930  29.632   2.346
19934W        W91463  16.292  39.206  14.053
19935W        W91464  37.012  27.120  11.584
19936W        W91465  16.132  10.858  10.944
19937W        W91466  23.923  37.648   5.141
19938W        W91467  15.190  26.477  13.456
19939W        W91468  15.586   7.911   4.601
19940W        W91469  23.482  22.781   0.276
19941W        W91470  27.217  21.122  13.911
19942W        W91471  23.633  23.586   3.185
19943W        W91472  22.527   6.160   4.664
19944W        W91473  38.178  16.890  10.121
19945W        W91474  14.584  19.646  11.558
19946W        W91475  19.519  38.610   1.306
19947W        W91476   1.300  14.955   3.559
19948W        W91477  42.975  17.294  14.802
19949W        W91478   6.985   4.445  11.968
19950W        W91479   6.426  39.898   3.625
19951W        W91480  40.421  43.913   1.683
19952W        W91481  16.623   3.900   2.610
19953W        W91482  44.092   1.904   3.714
19954W        W91483  42.235  17.263  14.465
19955W        W91484   0.724   2.424  14.352
19956W        W91485  36.203  28.075   2.270
19957W        W91486  30.989  10.729   0.379
19958W        W91487   9.835  27.100   1.962
19959W        W91488  44.372  24.693   1.031
19960W        W91489  31.182  33.494  14.749
19961W        W91490   1.926  34.772  13.992
19962W        W91491  13.481   4.194   4.199
19963W        W91492  13.852   5.683  13.345
19964W        W91493  40.848  12.370   3.665
19965W        W91494  37.988  35.774  12.046
19966W        W91495  11.389   4.382   2.765
19967W        W91496  40.568  43.043   3.824
19968W        W91497  15.831  24.612  13.461
19969W        W91498  11.452   6.906  11.050
19970W        W91499   9.807  20.489  10.460
19971W        W91500   4.729  27.047  13.896
19972W        W91501   3.316  17.038   3.937
19973W        W91502  12.343  11.328  11.838
19974W        W91503   4.016   5.924  14.826
19975W        W91504  38.584  11.638   3.592
19976W        W91505  36.294  29.432  13.918
19977W        W91506  22.936  44.853  11.637
19978W        W91507  43.011  12.891   0.245
19979W        W91508  29.592   6.104   3.603
19980W        W91509   8.882   2.805   2.438
19981W        W91510  34.898  21.674  12.557
19982W        W91511  20.671  43.926  12.396
19983W        W91512  16.606  19.087  11.117
19984W        W91513   8.377   6.203   0.489
19985W        W91514  39.779   7.380   0.324
19986W        W91515  34.567  13.482   4.551
19987W        W91516  10.036  29.477  11.554
19988W        W91517  23.977  32.945  12.320
19989W        W91518  19.345   3.384  12.086
19990W        W91519  23.583  26.747   4.877
19991W        W91520  16.363   8.320   0.424
19992W        W91521   0.365   4.803  11.058
19993W        W91522  15.504  43.747   1.631
19994W        W91523  23.114  37.984   0.207
19995W        W91524   5.860   2.162  13.582
19996W        W91525  34.973   0.818   0.437
19997W        W91526  32.212  39.020  13.948
19998W        W91527  42.560  12.147  12.893
19999W        W91528  39.223   5.341  14.493
20000W        W91529  36.346  44.372  12.472
20001W        W91530  32.484  42.085  11.782
20002W        W91531  39.844  22.618  14.900
20003W        W91532  41.600  34.045   2.989
20004W        W91533  39.340  12.308  13.819
20005W        W91534  33.444  15.555  12.395
20006W        W91535   9.931  26.741  10.526
20007W        W91536   6.440  20.293   4.457
20008W        W91537  20.524  24.455   1.063
20009W        W91538  31.478  16.118   2.254
20010W        W91539  21.198  31.448   1.844
20011W        W91540  23.983  32.617  14.395
20012W        W91541  31.487  20.821  10.404
20013W        W91542  12.371  33.824   1.363
20014W        W91543  37.115  43.708  13.372
20015W        W91544  32.658  36.100  11.917
20016W        W91545  42.651  23.999  14.918
20017W        W91546  21.065  40.976  14.839
20018W        W91547  44.910  23.920  13.693
20019W        W91548  29.041   6.302  12.101
20020W        W91549   5.434   2.045  11.467
20021W        W91550  24.761  35.129   3.654
20022W        W91551   6.463   2.926  12.094
20023W        W91552  41.927  29.453  12.923
20024W        W91553  11.787  18.753  12.452
20025W        W91554  26.890  37.489  11.655
20026W        W91555  12.163   5.800   4.614
20027W        W91556  13.319   9.226   4.584
20028W        W91557  44.694  27.055   0.475
20029W        W91558   1.660  43.265   0.384
20030W        W91559  15.261  11.680   2.299
20031W        W91560   1.884  40.656  10.764
20032W        W91561  34.567   4.077  13.342
20033W        W91562  36.431  41.275   3.706
20034W        W91563  28.134   2.909  13.794
20035W        W91564  15.367  31.495   1.929
20036W        W91565  41.390  30.343  14.041
20037W        W91566  38.490   0.746   3.575
20038W        W91567  41.520  42.997  13.274
20039W        W91568  17.295  36.835   4.050
20040W        W91569  33.823  22.962   1.521
20041W        W91570  11.862  40.470  13.056
20042W        W91571  18.665  21.071   0.719
20043W        W91572  16.210   0.195   3.129
20044W        W91573  36.485  39.289  14.489
20045W        W91574  21.666  28.871  13.223
20046W        W91575  14.675  31.633  12.250
20047W        W91576  38.295  27.142   1.353
20048W        W91577   8.680   9.117   1.883
20049W        W91578   9.198  10.894   0.189
20050W        W91579  21.065  16.191   1.141
20051W        W91580  16.896   8.056  10.285
20052W        W91581  29.707  17.712  10.887
20053W        W91582   4.400  19.957  11.160
20054W        W91583  29.112  10.738   0.765
20055W        W91584  44.082  16.122  11.108
20056W        W91585  16.499  34.180  12.057
20057W        W91586  10.673   2.503  12.398
20058W        W91587  15.647   6.872   2.813
20059W        W91588   2.959  10.614  11.873
20060W        W91589  38.562  34.411   2.173
20061W        W91590  38.196   5.611  13.080
20062W        W91591  35.027   8.302   0.761
20063W        W91592  23.745  42.433   0.959
20064W        W91593  17.151  14.444   5.024
20065W        W91594   5.219  13.286   0.056
20066W        W91595   2.370  36.450   2.838
20067W        W91596  42.493  12.163  14.264
20068W        W91597  22.211   7.148   0.160
20069W        W91598   4.945   6.486  11.106
20070W        W91599  10.288  10.058  14.308
20071W        W91600  37.649  19.947   2.750
20072W        W91601  30.027  20.630  13.021
20073W        W91602  17.672  34.589   0.284
20074W        W91603  39.696  30.948  10.676
20075W        W91604   4.953  24.928  11.327
20076W        W91605  44.886   4.930   4.727
20077W        W91606  42.461  21.816  11.611
20078W        W91607   1.852  15.816  14.493
20079W        W91608   5.326  16.296  14.007
20080W        W91609  36.479   5.680   3.710
20081W        W91610  19.015  12.768  13.432
20082W        W91611  31.259  37.616   1.328
20083W        W91612  42.523  34.140  11.109
20084W        W91613  43.924  32.862   1.233
20085W        W91614   3.429  19.535   2.277
20086W        W91615  35.893  38.514   4.457
20087W        W91616  42.487  13.267  11.967
20088W        W91617  39.840   9.392  11.712
20089W        W91618  30.416  30.477  10.586
20090W        W91619  10.336  31.959   3.151
20091W        W91620  41.784   8.341   2.675
20092W        W91621   2.721  14.126   1.212
20093W        W91622  42.770   5.260  11.701
20094W        W91623  42.075  33.492  12.826
20095W        W91624  43.153  24.066  14.913
20096W        W91625  26.562  20.528   3.981
20097W        W91626  43.005   4.715  14.726
20098W        W91627  24.950   6.448   0.734
20099W        W91628  41.774  17.215   4.501
20100W        W91629  25.055  19.263   0.815
20101W        W91630  22.651  42.645  14.093
20102W        W91631  40.330  29.446  12.021
20103W        W91632  12.054  23.481   0.464
20104W        W91633  39.814   8.374  13.025
20105W        W91634  20.252  25.575   0.883
20106W        W91635   2.165  38.362  13.328
20107W        W91636  40.987  32.020   4.510
20108W        W91637  41.502  11.999   2.363
20109W        W91638  30.658   6.404   3.238
20110W        W91639  31.678  38.250  12.806
20111W        W91640  44.813  22.661   4.193
20112W        W91641  31.615  39.118   3.204
20113W        W91642  14.693  25.504   3.009
20114W        W91643  37.574  24.698  13.552
20115W        W91644   7.367  22.828   4.933
20116W        W91645  34.007  40.380   1.797
20117W        W91646   9.572  33.534   2.295
20118W        W91647  44.344  17.608   1.481
20119W        W91648  18.301  39.975  10.703
20120W        W91649   9.154  35.590   4.152
20121W        W91650  36.998  21.940   0.939
20122W        W91651  33.030  18.590  10.593
20123W        W91652   3.035  36.093  10.722
20124W        W91653  24.070  26.670  12.046
20125W        W91654  10.310   6.839  14.473
20126W        W91655  23.863  42.021  13.790
20127W        W91656  17.791  28.078   2.851
20128W        W91657  33.259  24.314  10.185
20129W        W91658  11.742  33.484   4.139
20130W        W91659  30.671  17.030   0.732
20131W        W91660  36.464   5.883  12.423
20132W        W91661  42.325  35.699  11.282
20133W        W91662   1.749  18.620  12.953
20134W        W91663  11.725  11.816  10.314
20135W        W91664  42.596  29.907   1.753
20136W        W91665   1.977  14.195   3.695
20137W        W91666  17.298  17.123  11.063
20138W        W91667  33.064  37.510  13.354
20139W        W91668  17.273  10.714   0.087
20140W        W91669  32.054   4.316   4.870
20141W        W91670  40.320  11.150   1.998
20142W        W91671  27.365   6.275   4.894
20143W        W91672  15.685  16.279   4.027
20144W        W91673  10.569  34.464   2.341
20145W        W91674  36.644   2.447   2.748
20146W        W91675  37.780  34.125   4.514
20147W        W91676   6.868  30.051  11.054
20148W        W91677  28.715  18.310   2.715
20149W        W91678  21.155  36.001   1.439
20150W        W91679  26.979  22.967  13.954
20151W        W91680  27.233  38.545  10.720
20152W        W91681  38.903   6.982  10.666
20153W        W91682   9.198  35.353  11.660
20154W        W91683  12.821   6.880   3.949
20155W        W91684  38.289   1.785  11.381
20156W        W91685  28.485  23.821   3.700
20157W        W91686  12.051  17.780  14.392
20158W        W91687  26.934  18.289  10.491
20159W        W91688  30.048   4.562  11.827
20160W        W91689  11.815  38.512   1.784
20161W        W91690  41.841  13.915  12.808
20162W        W91691  14.740  11.622  14.586
20163W        W91692  21.641  16.682   1.441
20164W        W91693  10.821  33.674   1.954
20165W        W91694   2.828  31.549   3.298
20166W        W91695  43.677   5.480  14.072
20167W        W91696   5.919  36.767  10.651
20168W        W91697   9.443  39.256  12.922
20169W        W91698   0.257  10.086   0.404
20170W        W91699  37.021  21.420   2.061
20171W        W91700  27.973  22.975   2.771
20172W        W91701  32.371  27.602  13.817
20173W        W91702   6.347  44.474  10.142
20174W        W91703  31.607  43.073   3.380
20175W        W91704  17.189  19.985   3.174
20176W        W91705   7.888  44.002  13.344
20177W        W91706  14.138  16.249   4.918
20178W        W91707  39.219   2.434   4.773
20179W        W91708   9.621   8.682  12.002
20180W        W91709  23.255   6.364  11.611
20181W        W91710  30.190   7.675   3.138
20182W        W91711  41.088  14.043  10.675
20183W        W91712  15.835  25.456   4.573
20184W        W91713  27.722  24.263  10.843
20185W        W91714   5.966  24.169  13.640
20186W        W91715   3.487  29.354  14.897
20187W        W91716  43.038  29.039  13.613
20188W        W91717  38.013  14.823   0.684
20189W        W91718  13.031  40.904   4.076
20190W        W91719  14.526  11.116  11.994
20191W        W91720  41.989  37.307   0.070
20192W        W91721  25.620   5.269  11.937
20193W        W91722  29.683  33.217  12.297
20194W        W91723  40.532  34.508  10.625
20195W        W91724  29.521   1.285   2.880
20196W        W91725   1.782  33.528   0.877
20197W        W91726   2.618  20.203   2.279
20198W        W91727  15.145  10.061  13.012
20199W        W91728  15.323  31.026  11.685
20200W        W91729  18.237  33.556   2.372
20201W        W91730   8.786  28.422  13.118
20202W        W91731  16.035   6.819  14.408
20203W        W91732  21.337  15.210   4.732
20204W        W91733  22.255  15.670   1.253
20205W        W91734  30.558  23.990   3.640
20206W        W91735  37.872  28.144  12.357
20207W        W91736  11.027  28.872  14.492
20208W        W91737   8.829  39.143   1.880
20209W        W91738  36.497   7.730  10.688
20210W        W91739   2.932  28.462  13.983
20211W        W91740  19.300   9.389  11.577
20212W        W91741  34.824   8.498  12.894
20213W        W91742  29.834   7.260   2.205
20214W        W91743  32.408   2.181  13.895
20215W        W91744  17.489  14.497  14.882
20216W        W91745  36.331  29.941   2.665
20217W        W91746   3.504  37.315   4.409
20218W        W91747  20.019   9.741  12.433
20219W        W91748  15.869  32.957  12.054
20220W        W91749  32.298  17.601   3.207
20221W        W91750  16.620  12.744   3.628
20222W        W91751  19.043  32.995  12.160
20223W        W91752  44.378   8.156  14.446
20224W        W91753   2.307  13.078   0.462
20225W        W91754   0.834  10.935  13.418
20226W        W91755  37.871  18.807   2.865
20227W        W91756  31.058  23.452  11.601
20228W        W91757  17.773  29.717   0.284
20229W        W91758  22.679  11.359  14.530
20230W        W91759  24.543  43.817   1.769
20231W        W91760  20.650   4.977  13.866
20232W        W91761   6.386  29.405   0.069
20233W        W91762  41.007  14.711   1.306
20234W        W91763   5.449   5.312   0.029
20235W        W91764  36.488   1.610   3.270
20236W        W91765  43.036   4.351   1.352
20237W        W91766  27.176  20.684   1.639
20238W        W91767  19.551  39.909  11.800
20239W        W91768  38.084   2.536   2.310
20240W        W91769   1.680   9.522   4.258
20241W        W91770  14.421  32.123   0.949
20242W        W91771  37.018  44.787  13.520
20243W        W91772  20.092  40.284  12.046
20244W        W91773   2.368  34.548  14.741
20245W        W91774  19.148  18.157   2.749
20246W        W91775  11.401  33.697  10.864
20247W        W91776  43.903  23.578   0.937
20248W        W91777  18.785  37.679  12.885
20249W        W91778  24.148  27.068   4.793
20250W        W91779  30.126  10.071  13.075
20251W        W91780  40.350  10.159  11.641
20252W        W91781  35.264  38.032  11.850
20253W        W91782  43.072   6.982  12.054
20254W        W91783  30.070   5.754   0.183
20255W        W91784  41.117   5.785   0.519
20256W        W91785  37.526   6.959   3.637
20257W        W91786  43.795  36.549  13.866
20258W        W91787  36.966  17.248   4.832
20259W        W91788  12.316  33.509  10.896
20260W        W91789  24.961  17.021   3.179
20261W        W91790   4.368  36.577  12.957
20262W        W91791   7.153   3.888  12.079
20263W        W91792  23.314  40.804   1.566
20264W        W91793  31.131  39.517   3.698
20265W        W91794  12.076  38.099  13.073
20266W        W91795   9.637  24.445   0.331
20267W        W91796  21.289  35.538  14.407
20268W        W91797  24.664  37.029   2.603
20269W        W91798  39.327   7.320  10.612
20270W        W91799  29.339  31.108  14.074
20271W        W91800  32.043   5.769  14.294
20272W        W91801  42.315  16.679  10.679
20273W        W91802  26.817  13.558   4.098
20274W        W91803  34.487  13.251  14.935
20275W        W91804   0.755  25.403  12.614
20276W        W91805  16.766  36.092   1.678
20277W        W91806  12.518  44.431   4.302
20278W        W91807  21.462  30.551   3.156
20279W        W91808  22.618  38.773  14.491
20280W        W91809  24.010  42.419   0.029
20281W        W91810  20.466  12.616   4.111
20282W        W91811  14.251   1.327   0.287
20283W        W91812  21.029  14.387   0.641
20284W        W91813  12.316  30.633  13.301
20285W        W91814  39.996  11.203  12.527
20286W        W91815  10.748  18.455   3.216
20287W        W91816  31.464  31.636  13.793
20288W        W91817  37.188  31.272  11.097
20289W        W91818  40.933  38.810  11.674
20290W        W91819  14.660  36.791   2.764
20291W        W91820  14.792  25.623  13.356
20292W        W91821  26.139  29.903   1.937
20293W        W91822   6.089  31.249  10.699
20294W        W91823  39.738  25.746  11.147
20295W        W91824  42.309  36.568   1.416
20296W        W91825   8.878  37.140   3.748
20297W        W91826   5.894  37.800  14.861
20298W        W91827  35.404  34.977   4.436
20299W        W91828  43.488  41.032  13.390
20300W        W91829  26.412   1.124   2.619
20301W        W91830   8.407  42.935   4.806
20302W        W91831  15.105  37.111   4.768
20303W        W91832  40.114  38.490  13.014
20304W        W91833  41.376  21.825  12.548
20305W        W91834  29.812  11.829  10.727
20306W        W91835  18.510  37.727   0.206
20307W        W91836  44.511  25.662  13.044
20308W        W91837  35.789   1.817  10.691
20309W        W91838   5.978  13.874   4.265
20310W        W91839   5.193  35.570   3.335
20311W        W91840  30.881  29.640   3.901
20312W        W91841  36.723  11.901   2.883
20313W        W91842  27.801  28.088   0.310
20314W        W91843  42.515  36.865  14.021
20315W        W91844  20.931  41.357  11.980
20316W        W91845  32.026  28.977   0.264
20317W        W91846  20.663  30.478   3.688
20318W        W91847   3.078   4.400  12.438
20319W        W91848   0.965  23.086   2.008
20320W        W91849  35.116  34.479  12.845
20321W        W91850  11.619   2.403   2.637
20322W        W91851  30.481  35.678  12.418
20323W        W91852   8.031   8.957   4.940
20324W        W91853  40.321   5.717   2.236
20325W        W91854  15.487   9.879  14.817
20326W        W91855  35.788  32.174   5.038
20327W        W91856  17.609  38.745   0.673
20328W        W91857  36.922  40.947  14.439
20329W        W91858  10.257  27.643   0.694
20330W        W91859  42.041   1.351  14.853
20331W        W91860  32.040   5.119   1.703
20332W        W91861  13.279  40.261  11.170
20333W        W91862  35.085  41.462   0.843
20334W        W91863  35.074  27.708  11.097
20335W        W91864  12.836  38.343  11.995
20336W        W91865  33.398   0.183  10.160
20337W        W91866  21.807  28.798  12.730
20338W        W91867  43.904   1.447   1.013
20339W        W91868  34.882  30.180  12.417
20340W        W91869  19.946  17.117   4.098
20341W        W91870  34.585  39.831  14.854
20342W        W91871  17.259  28.848  13.939
20343W        W91872  44.918  13.610  12.025
20344W        W91873   2.199  42.555  13.149
20345W        W91874   2.816  31.461  12.844
20346W        W91875   9.132  13.640   1.705
20347W        W91876  15.289  16.828  13.926
20348W        W91877  39.899  12.348  13.066
20349W        W91878  25.385  13.226   2.355
20350W        W91879  40.361  13.642  11.361
20351W        W91880  11.803  33.520  13.864
20352W        W91881   4.027  42.000   1.892
20353W        W91882  36.335  14.551   0.163
20354W        W91883   4.002  42.975   1.811
20355W        W91884  10.903  30.646  11.151
20356W        W91885  40.565   9.982  11.155
20357W        W91886  41.487  16.647  14.104
20358W        W91887  16.803  18.606  11.149
20359W        W91888   3.805  17.973  11.087
20360W        W91889  23.753   2.929  12.411
20361W        W91890   8.237  41.447   3.077
20362W        W91891  24.475  30.862   3.150
20363W        W91892  17.140   3.731   0.668
20364W        W91893  29.487  36.495   1.197
20365W        W91894  35.304  30.133   2.692
20366W        W91895  13.154   7.604   2.760
20367W        W91896  22.353  40.121   2.818
20368W        W91897   9.688  25.098  12.986
20369W        W91898  27.907  20.229  12.358
20370W        W91899  16.675  40.576  11.489
20371W        W91900  37.946  20.571  14.498
20372W        W91901   1.791  20.308  11.105
20373W        W91902   3.846   2.942  12.016
20374W        W91903  18.710  18.323   1.924
20375W        W91904  13.066  37.575   1.235
20376W        W91905  23.998  31.016  13.050
20377W        W91906   8.177  26.696   3.732
20378W        W91907  28.593  32.397   1.893
20379W        W91908  21.152   1.536   3.452
20380W        W91909   6.929  13.334  12.920
20381W        W91910  28.030  12.796   3.587
20382W        W91911  26.482  15.261  14.544
20383W        W91912  23.149   9.395   4.598
20384W        W91913   1.676  38.937   1.544
20385W        W91914  35.738  32.900   2.379
20386W        W91915  27.579   9.751   4.343
20387W        W91916  23.155  20.178  13.085
20388W        W91917   8.261  15.133  11.115
20389W        W91918  42.784  37.892  13.592
20390W        W91919   9.952   4.223   2.642
20391W        W91920  32.526  15.955   2.368
20392W        W91921  42.968  29.487   4.991
20393W        W91922  27.727  25.209   3.416
20394W        W91923  35.555  24.746  14.128
20395W        W91924   5.330  42.235  13.467
20396W        W91925  34.087  35.614  12.943
20397W        W91926  41.903  17.609   4.180
20398W        W91927  26.697   1.814  13.461
20399W        W91928  30.606  22.441  14.010
20400W        W91929  40.258  25.145   0.352
20401W        W91930  13.609   6.778  12.023
20402W        W91931  10.733  21.433   4.458
20403W        W91932   5.350  11.354  14.109
20404W        W91933  15.582  44.539  11.629
20405W        W91934  36.028  22.435   1.060
20406W        W91935  10.765  14.169   3.401
20407W        W91936   1.731  30.067  11.319
20408W        W91937  13.689   7.957  14.825
20409W        W91938  40.365   4.175   0.993
20410W        W91939  44.204  16.610   0.286
20411W        W91940  20.217   5.350   3.593
20412W        W91941  28.730  41.028   4.159
20413W        W91942   7.899  36.863   3.269
20414W        W91943  31.690  24.006  11.196
20415W        W91944  26.056   0.980   2.251
20416W        W91945   1.642   6.932  11.958
20417W        W91946   2.403  22.563   1.025
20418W        W91947  28.559   0.090  14.957
20419W        W91948   5.619  10.800   4.229
20420W        W91949   5.333  22.760  10.692
20421W        W91950  10.369   3.478  10.464
20422W        W91951  37.990  16.161  10.608
20423W        W91952  24.477  16.865   3.185
20424W        W91953  11.660  44.775  13.287
20425W        W91954  36.524  38.154   1.829
20426W        W91955  15.714  12.784  14.565
20427W        W91956   5.208  41.235  12.559
20428W        W91957  28.001   6.458  12.129
20429W        W91958  38.611   9.899  12.411
20430W        W91959  28.368  34.462  11.993
20431W        W91960  10.251  12.883   3.619
20432W        W91961  25.931  22.625  13.447
20433W        W91962  19.542   7.263   0.972
20434W        W91963   4.368   2.686  13.030
20435W        W91964   7.346  16.969   3.101
20436W        W91965   6.772  20.232   9.699
20437W        W91966  10.019  10.931  14.488
20438W        W91967  41.321  29.724   4.551
20439W        W91968   5.986   9.804  13.978
20440W        W91969   4.281  43.090  14.927
20441W        W91970  26.911  28.494   0.347
20442W        W91971  24.807  43.392  13.556
20443W        W91972  13.799  24.999   2.774
20444W        W91973  40.005  43.040   2.953
20445W        W91974  14.180   3.084   3.311
20446W        W91975  34.945   4.025   4.318
20447W        W91976  13.394  29.441  12.035
20448W        W91977   4.162   7.958   1.692
20449W        W91978  37.535  23.277  11.553
20450W        W91979  11.816  32.987  13.979
20451W        W91980   0.875  30.546   0.890
20452W        W91981  33.424  10.144  14.410
20453W        W91982   0.001  26.583  12.894
20454W        W91983   4.163  17.573  10.220
20455W        W91984  17.237  42.353   3.072
20456W        W91985  34.297  30.916   2.196
20457W        W91986  42.974  39.280   0.408
20458W        W91987  35.097   1.346   2.405
20459W        W91988  24.482  20.359   4.073
20460W        W91989  10.653  20.565   2.259
20461W        W91990  19.280  12.873  12.980
20462W        W91991  34.919  42.892  10.384
20463W        W91992  37.073  43.908   3.680
20464W        W91993  32.898  37.341   3.691
20465W        W91994   6.358  23.361   0.424
20466W        W91995  31.868  37.708   2.193
20467W        W91996  26.966  28.522  11.972
20468W        W91997  38.233  10.472  14.353
20469W        W91998  11.660   0.045   4.119
20470W        W91999  10.932   4.775   4.620
20471W        W92000  44.391  24.905   2.830
20472W        W92001  25.586  44.758  13.035
20473W        W92002  32.426  14.866   3.404
20474W        W92003  39.332  31.492   3.518
20475W        W92004  22.672   8.492   2.369
20476W        W92005  15.200  26.232   1.401
20477W        W92006   8.121  25.554  10.895
20478W        W92007  21.182  40.804  12.691
20479W        W92008  14.687  20.086   0.225
20480W        W92009  18.785   9.953  13.146
20481W        W92010   8.905  23.614   3.607
20482W        W92011  13.998  18.055  13.920
20483W        W92012  38.479  25.584  11.129
20484W        W92013  14.700  42.582   3.622
20485W        W92014   3.494   2.834   2.221
20486W        W92015  44.722   9.858  12.010
20487W        W92016   8.756  18.266   1.896
20488W        W92017  38.783  11.171   0.476
20489W        W92018   4.865  28.125  13.001
20490W        W92019  31.589  20.184   3.408
20491W        W92020  30.610   0.872   1.659
20492W        W92021  34.517   3.941   2.387
20493W        W92022  12.161  10.767   1.292
20494W        W92023  44.459   2.327  13.563
20495W        W92024  44.048  27.006   3.779
20496W        W92025  11.839  10.395   1.855
20497W        W92026  41.374   7.422  13.103
20498W        W92027  12.840   5.376   2.233
20499W        W92028  40.575   1.368   4.837
20500W        W92029  26.433  21.182   3.223
20501W        W92030  13.570   1.430   5.026
20502W        W92031   2.048  11.426   1.365
20503W        W92032  22.999  42.340  10.559
20504W        W92033   4.402  17.799  13.778
20505W        W92034  41.404  13.371  13.876
20506W        W92035   1.205  39.898  11.551
20507W        W92036  44.395  29.559  11.200
20508W        W92037  42.330  35.103   4.739
20509W        W92038  40.775  10.384  12.423
20510W        W92039  23.968  20.024  11.112
20511W        W92040   8.373   1.340  11.013
20512W        W92041  11.195  38.752   4.775
20513W        W92042  29.508  13.245  10.485
20514W        W92043  42.932  42.664  14.915
20515W        W92044  12.594  11.704  11.577
20516W        W92045  16.938  26.109  13.032
20517W        W92046  30.427   1.807  10.976
20518W        W92047   3.810  22.264  12.993
20519W        W92048  17.886  14.701  13.545
20520W        W92049   2.748  44.671  10.807
20521W        W92050  33.896  40.341  14.311
20522W        W92051  15.875   7.860   3.714
20523W        W92052   5.410  35.314  13.142
20524W        W92053   0.899  17.904  12.261
20525W        W92054   2.200   9.288   4.778
20526W        W92055  24.251   3.198  10.426
20527W        W92056  24.993  35.069   3.187
20528W        W92057  31.607  36.391   3.660
20529W        W92058  20.522  14.590   0.775
20530W        W92059  44.518  42.428   4.196
20531W        W92060   1.415   2.621  10.574
20532W        W92061   8.689   3.402  13.635
20533W        W92062   4.714  38.998   0.416
20534W        W92063  27.365  24.128   1.257
20535W        W92064  27.846  28.653  12.203
20536W        W92065  29.979   1.924   2.945
20537W        W92066  44.072   7.593  12.384
20538W        W92067  43.468   4.995  11.081
20539W        W92068  18.316   2.876  12.434
20540W        W92069  29.153  44.671   3.542
20541W        W92070  42.012   5.886  13.384
20542W        W92071  20.016  14.594  12.138
20543W        W92072  32.314  27.312  12.402
20544W        W92073  44.463  18.911   2.730
20545W        W92074  16.124  40.117   1.345
20546W        W92075  11.608  19.090   2.514
20547W        W92076  14.523  22.817   2.188
20548W        W92077  44.973  16.026   2.870
20549W        W92078  34.556  41.613   2.444
20550W        W92079   6.662  22.110  11.658
20551W        W92080  41.798  43.435   2.207
20552W        W92081  40.270  39.560   1.367
20553W        W92082  32.751   9.755  14.565
20554W        W92083  39.013  16.391   1.854
20555W        W92084  17.704  20.192  10.922
20556W        W92085  27.597  43.032  10.424
20557W        W92086  44.648   6.103  10.341
20558W        W92087   3.814   9.566   3.668
20559W        W92088  11.791  33.513  10.112
20560W        W92089  27.474   0.890  11.830
20561W        W92090  37.301  38.804  11.056
20562W        W92091  11.140   2.406   2.827
20563W        W92092  21.716  17.063  11.985
20564W        W92093   3.254  36.139   4.590
20565W        W92094   4.936  12.806   0.334
20566W        W92095  44.694  17.540  12.501
20567W        W92096  23.537   3.127   3.759
20568W        W92097  26.587  18.591  10.730
20569W        W92098   1.470  14.310  12.560
20570W        W92099   5.919  34.578   0.526
20571W        W92100  23.959   1.363   1.754
20572W        W92101   3.347  43.249   2.785
20573W        W92102  35.925  39.266  11.100
20574W        W92103  15.101   9.260  13.618
20575W        W92104  15.183  43.078   2.343
20576W        W92105  26.066  18.260  15.000
20577W        W92106  41.043   3.416   0.695
20578W        W92107  11.928  38.834  14.382
20579W        W92108  29.634  13.082   1.168
20580W        W92109  11.222  27.677  12.582
20581W        W92110  31.995  16.655   2.153
20582W        W92111  39.615   8.727   1.259
20583W        W92112  15.209  32.670  14.797
20584W        W92113   3.966   5.699  13.987
20585W        W92114  35.056   3.557  11.694
20586W        W92115   8.338  31.568   4.645
20587W        W92116  40.333   4.360   2.877
20588W        W92117  11.555  40.536  13.958
20589W        W92118  30.770  41.042  11.131
20590W        W92119  19.602   4.922  13.454
20591W        W92120   0.010  26.693   3.704
20592W        W92121  15.578  17.486  12.639
20593W        W92122   5.768   8.194  10.988
20594W        W92123  38.477  12.762  10.979
20595W        W92124   4.149  25.726  12.557
20596W        W92125  11.847  37.485   4.651
20597W        W92126  13.512   7.823   1.984
20598W        W92127   0.478   0.212   0.662
20599W        W92128   6.248  35.875  13.052
20600W        W92129  15.307  14.240   2.329
20601W        W92130  24.503  32.060   0.913
20602W        W92131  43.513   0.869  11.456
20603W        W92132  36.053  39.437  12.760
20604W        W92133   7.160   6.302  13.867
20605W        W92134  37.210  28.624   0.296
20606W        W92135  10.422  24.961  10.253
20607W        W92136  13.362  20.962   0.865
20608W        W92137  15.235   7.284  12.308
20609W        W92138  15.763   9.097   2.688
20610W        W92139  26.564  40.821  10.599
20611W        W92140  14.191   2.237   1.230
20612W        W92141  38.359  15.845   3.681
20613W        W92142  10.328  26.131   4.470
20614W        W92143  33.836  43.462  12.140
20615W        W92144  36.177  44.382  10.650
20616W        W92145  44.809  37.879  10.699
20617W        W92146  42.343  32.081   3.316
20618W        W92147  29.938  17.600   2.849
20619W        W92148  16.773  21.930   2.444
20620W        W92149  27.481  36.879   4.336
20621W        W92150  35.885  31.477  13.147
20622W        W92151  19.112   2.048   3.035
20623W        W92152  15.838  13.089  13.724
20624W        W92153  41.249   0.903  11.357
20625W        W92154   1.024  17.668  11.289
20626W        W92155   3.700  19.839   0.176
20627W        W92156   1.148  37.805   1.749
20628W        W92157  16.173  30.251   3.457
20629W        W92158  41.494  21.732   3.644
20630W        W92159  35.501  39.798  10.972
20631W        W92160  38.810  44.621   1.489
20632W        W92161  40.436  35.717  14.874
20633W        W92162  17.845  30.917   3.765
20634W        W92163  22.063   1.363   1.936
20635W        W92164  13.403   7.081   0.761
20636W        W92165  16.797  44.530  11.481
20637W        W92166  28.892  27.149   3.181
20638W        W92167  12.537  25.393  14.681
20639W        W92168  36.650  19.255   1.296
20640W        W92169   2.842  15.994  14.680
20641W        W92170  36.690  14.354   5.227
20642W        W92171  30.266  33.479   1.451
20643W        W92172  40.483  32.018  14.298
20644W        W92173  37.026  26.633  13.323
20645W        W92174   0.763  27.584   0.756
20646W        W92175  37.933  33.498   1.922
20647W        W92176  34.447  38.366  14.164
20648W        W92177   1.263   6.628  11.780
20649W        W92178   8.094  39.844   1.255
20650W        W92179  14.624  30.718   3.926
20651W        W92180  10.208  44.232   0.678
20652W        W92181   4.788  10.387  10.464
20653W        W92182   6.690   8.704   0.948
20654W        W92183  31.003  39.270   4.140
20655W        W92184  16.258  43.030  13.310
20656W        W92185  34.625  14.832  14.968
20657W        W92186  40.880   7.383  13.328
20658W        W92187  31.875   3.842  13.107
20659W        W92188   9.912  17.096   3.260
20660W        W92189  18.447  16.401   0.938
20661W        W92190   7.901  16.075  11.189
20662W        W92191  35.629  25.970  12.413
20663W        W92192  42.330  43.530   2.197
20664W        W92193  31.883  21.687   2.714
20665W        W92194  15.115  27.963   3.661
20666W        W92195  27.527   3.928  14.069
20667W        W92196  23.291   6.796   3.040
20668W        W92197  33.829  18.673   1.676
20669W        W92198  39.658   4.857  14.885
20670W        W92199  21.548   3.285   0.469
20671W        W92200   8.803  32.176   3.210
20672W        W92201  18.215  15.658   0.686
20673W        W92202  42.513  33.440   3.808
20674W        W92203  39.854  43.995  13.016
20675W        W92204  15.644   4.172  14.879
20676W        W92205  24.621  38.429   0.358
20677W        W92206   2.272   4.527   1.067
20678W        W92207   5.203  38.367   2.282
20679W        W92208  34.177  40.014  14.586
20680W        W92209   5.742   6.002   2.163
20681W        W92210  44.876  33.494   3.691
20682W        W92211   9.296   3.017   4.157
20683W        W92212  37.482  40.728   4.157
20684W        W92213  21.072  40.552   4.945
20685W        W92214  23.376  35.002   3.933
20686W        W92215  13.831  39.159   2.059
20687W        W92216  24.210  35.423  11.666
20688W        W92217  16.655   2.772   1.422
20689W        W92218  21.256   2.038  10.780
20690W        W92219   3.296  41.420  14.470
20691W        W92220  22.450   5.001   4.181
20692W        W92221  14.456   9.397  11.484
20693W        W92222  36.541  29.121   2.303
20694W        W92223  27.337  36.513   4.671
20695W        W92224  41.453  37.789   2.779
20696W        W92225  24.014  42.986   0.332
20697W        W92226  15.008  22.691   2.412
20698W        W92227  31.627  21.299   1.915
20699W        W92228  15.670  13.807  14.798
20700W        W92229  22.103  23.598  12.071
20701W        W92230  33.070  20.907   2.695
20702W        W92231   3.299  41.520   0.903
20703W        W92232  20.305  41.341  10.688
20704W        W92233  37.424  35.115   2.969
20705W        W92234  23.458  18.360   3.785
20706W        W92235  42.072  36.454   0.282
20707W        W92236  27.192  38.391  14.191
20708W        W92237  16.653   2.214   0.049
20709W        W92238  42.625  31.481  10.686
20710W        W92239  36.452  32.138   1.374
20711W        W92240  41.281   2.725   3.219
20712W        W92241   2.881  15.095   3.196
20713W        W92242   5.893  44.761  14.463
20714W        W92243  36.304  23.237   1.241
20715W        W92244  41.346  37.544   3.232
20716W        W92245   9.659   4.333   3.072
20717W        W92246  36.043   9.861  13.245
20718W        W92247  32.960   7.338   4.659
20719W        W92248  32.882  22.731   1.602
20720W        W92249  42.665   9.763   5.072
20721W        W92250  16.977  33.888  12.868
20722W        W92251  34.981   4.721  12.969
20723W        W92252  10.879  13.300  13.784
20724W        W92253  44.024  32.917  13.521
20725W        W92254   4.064   6.207  11.201
20726W        W92255  33.958  35.017   4.590
20727W        W92256  38.047  15.812   1.858
20728W        W92257   8.137  15.616  11.026
20729W        W92258   8.228  14.592  13.622
20730W        W92259  14.456   9.443   4.028
20731W        W92260  30.511  42.703  13.363
20732W        W92261  18.257  19.997   2.254
20733W        W92262  10.673  10.858  12.506
20734W        W92263  15.133  44.778  13.905
20735W        W92264   6.289  16.069   4.151
20736W        W92265  27.954  35.611  14.868
20737W        W92266  14.471  34.270  14.708
20738W        W92267  27.093  42.909  10.771
20739W        W92268  20.425  30.714   3.312
20740W        W92269  33.412  28.055  10.991
20741W        W92270  13.750  25.514  14.522
20742W        W92271   8.347  33.517   2.900
20743W        W92272  42.109   5.858  14.278
20744W        W92273   6.456   0.410   2.349
20745W        W92274  15.064   3.231   3.251
20746W        W92275  14.807   3.168   3.693
20747W        W92276  25.008  37.858   1.305
20748W        W92277   5.721  37.424  13.976
20749W        W92278   9.626  29.139   1.957
20750W        W92279  20.267  42.048   4.326
20751W        W92280  10.389  37.984   0.940
20752W        W92281   3.742   2.266   0.814
20753W        W92282  36.998   2.371   3.124
20754W        W92283  37.144  43.100  11.623
20755W        W92284  41.958  27.687  14.482
20756W        W92285   8.813  17.284  13.784
20757W        W92286  17.982   1.827   4.282
20758W        W92287   3.178  21.152  11.110
20759W        W92288  19.186  28.078  10.951
20760W        W92289   8.621  29.780   5.086
20761W        W92290  12.508   5.290  11.510
20762W        W92291  29.921  17.443  14.008
20763W        W92292  31.163  42.939   3.681
20764W        W92293   3.189  19.718   0.894
20765W        W92294  17.635  22.572  12.733
20766W        W92295  16.296  17.025  10.262
20767W        W92296  14.457  28.602  11.599
20768W        W92297  22.483   1.711   3.624
20769W        W92298  19.495   2.705   4.564
20770W        W92299   5.210  37.925  14.344
20771W        W92300  44.547  23.117  11.018
20772W        W92301  15.669  44.931   0.007
20773W        W92302  30.868  40.827  14.808
20774W        W92303  14.854  44.165  10.542
20775W        W92304  43.967  11.255   3.906
20776W        W92305  44.763  44.866   3.443
20777W        W92306   3.974  10.417   2.204
20778W        W92307  23.659  20.610   4.724
20779W        W92308   5.155  22.030  13.524
20780W        W92309  22.160  39.143   2.681
20781W        W92310  20.960  24.694   0.784
20782W        W92311  40.406  38.799   4.604
20783W        W92312  26.142  19.373  12.457
20784W        W92313  20.817  35.243   4.773
20785W        W92314   1.361  18.264  14.311
20786W        W92315  29.592  10.469  12.008
20787W        W92316   2.554  30.463  11.144
20788W        W92317   3.378  43.373   3.838
20789W        W92318   1.817   2.745   2.614
20790W        W92319  39.310  35.417   0.728
20791W        W92320   3.968   0.920  13.481
20792W        W92321   8.736  41.077  11.974
20793W        W92322  29.051  31.675   1.254
20794W        W92323  24.286  14.594  14.295
20795W        W92324  11.307  34.995  11.147
20796W        W92325  23.798  29.178  12.368
20797W        W92326   7.844  40.859  11.897
20798W        W92327  38.928  39.666   1.931
20799W        W92328   3.899  34.398   3.018
20800W        W92329  44.069  30.450  11.600
20801W        W92330  19.215  34.381  12.103
20802W        W92331   8.899  13.660   2.651
20803W        W92332  19.346   4.713  12.985
20804W        W92333  37.114   5.668  12.980
20805W        W92334  12.728   9.645   0.838
20806W        W92335  22.929  28.549   1.360
20807W        W92336  18.054  31.254  14.696
20808W        W92337  26.629  15.501  14.958
20809W        W92338  12.310   3.821   4.354
20810W        W92339  32.098   3.487  10.512
20811W        W92340  10.581  41.774  12.476
20812W        W92341  21.753   0.855  10.637
20813W        W92342   3.371   4.681  10.738
20814W        W92343  23.947   8.831   4.930
20815W        W92344   8.007   0.513   3.342
20816W        W92345  40.977  28.407  13.870
20817W        W92346  34.294  37.856   3.155
20818W        W92347  20.279  22.438  14.672
20819W        W92348  31.879  18.640   1.935
20820W        W92349  41.293  38.083  11.104
20821W        W92350   6.353  20.546  13.095
20822W        W92351  30.543  44.556   2.156
20823W        W92352  24.971  39.063   5.023
20824W        W92353  24.193  38.611   1.450
20825W        W92354  22.266  19.054  13.062
20826W        W92355   1.991  40.989   0.786
20827W        W92356   5.782   4.744  13.239
20828W        W92357  38.064  37.895  10.723
20829W        W92358   0.786  35.334  11.191
20830W        W92359  20.289  11.605  11.127
20831W        W92360  33.995  11.817  10.776
20832W        W92361   9.224  42.747   0.293
20833W        W92362  28.243  42.332  12.954
20834W        W92363   6.389   8.428   2.791
20835W        W92364  41.380  32.836   4.145
20836W        W92365  27.004  35.809  14.574
20837W        W92366  34.987  15.875   4.253
20838W        W92367  43.766  44.931   1.903
20839W        W92368   9.563  10.169  13.140
20840W        W92369  30.540  13.742  14.479
20841W        W92370  13.681  41.426   1.980
20842W        W92371  16.091  12.194   2.215
20843W        W92372  40.546  11.632   2.872
20844W        W92373   2.843  21.025  14.403
20845W        W92374   2.752  37.933  11.018
20846W        W92375  38.827  33.965   2.265
20847W        W92376   2.279  17.118  13.081
20848W        W92377  28.030  37.413   3.565
20849W        W92378  18.769  15.154   3.576
20850W        W92379  18.274  12.188   0.022
20851W        W92380  30.142  41.727   4.291
20852W        W92381  43.914  35.089  11.483
20853W        W92382  35.858   6.649  14.189
20854W        W92383  22.005   1.819  13.605
20855W        W92384  44.048  13.187  10.889
20856W        W92385  43.018  40.723  12.627
20857W        W92386   8.430  27.068   1.951
20858W        W92387  26.060  36.250   2.506
20859W        W92388  30.098  22.638  13.060
20860W        W92389   6.688  21.311   9.657
20861W        W92390  39.375  23.364   1.880
20862W        W92391  42.999  24.202  10.487
20863W        W92392  37.882  10.123  14.568
20864W        W92393  12.903  21.096  10.611
20865W        W92394  25.045  20.539  11.666
20866W        W92395   1.434  43.020  13.790
20867W        W92396  12.630  42.912   0.801
20868W        W92397  22.142   0.237  13.934
20869W        W92398  18.304  16.023   3.649
20870W        W92399  39.859  17.218   3.756
20871W        W92400  18.294   2.945   2.454
20872W        W92401  27.890  19.216   1.392
20873W        W92402  39.884  40.787   1.796
20874W        W92403  20.491  22.992   4.074
20875W        W92404  16.229  44.589  13.439
20876W        W92405  29.456  40.928   0.388
20877W        W92406  43.985  23.847   4.619
20878W        W92407  39.586  34.366  12.443
20879W        W92408  39.043   1.744  14.391
20880W        W92409  17.500  32.405  12.017
20881W        W92410  16.005  42.292   0.516
20882W        W92411  32.219  15.198  12.188
20883W        W92412  31.087  29.227   1.736
20884W        W92413  40.441   2.296   4.441
20885W        W92414  26.021  26.899  11.136
20886W        W92415  26.448  15.269   0.386
20887W        W92416  20.212  24.684  11.282
20888W        W92417  25.441  37.232  10.739
20889W        W92418  22.694  18.586   1.907
20890W        W92419   6.916   5.020   3.209
20891W        W92420  15.786  36.774  12.242
20892W        W92421  17.660  27.495  11.023
20893W        W92422  16.749   8.115   1.020
20894W        W92423  17.302  44.618  14.575
20895W        W92424  12.385  30.522   1.756
20896W        W92425  20.537  17.692  12.380
20897W        W92426  15.164   1.857  11.566
20898W        W92427   5.835  15.390  12.949
20899W        W92428  37.525  22.233  13.909
20900W        W92429   0.867  41.392  13.249
20901W        W92430  35.809  28.911  11.192
20902W        W92431  41.327  26.962  11.009
20903W        W92432  18.524  18.488   4.037
20904W        W92433  37.411  30.058  13.567
20905W        W92434  20.074  12.814   2.704
20906W        W92435   9.301  20.855  11.131
20907W        W92436  26.439  34.331  12.980
20908W        W92437  27.392  29.478  10.727
20909W        W92438  37.163   7.166   1.053
20910W        W92439  18.499  17.805  12.447
20911W        W92440  29.713   8.553   2.450
20912W        W92441   1.867  16.342  14.769
20913W        W92442  15.631  25.152   1.764
20914W        W92443  26.082  11.187   4.758
20915W        W92444  44.781  22.155   1.933
20916W        W92445  43.974  16.562  14.035
20917W        W92446  41.934  28.186  13.401
20918W        W92447  42.349  40.375   2.726
20919W        W92448  21.684  27.520  13.244
20920W        W92449  37.736   3.882   4.755
20921W        W92450  30.592  44.199  13.559
20922W        W92451   7.400  35.859   4.096
20923W        W92452   3.716   0.530  14.401
20924W        W92453  39.512  15.192  12.619
20925W        W92454  24.905   8.246  12.608
20926W        W92455  25.630   4.798   1.617
20927W        W92456   5.663  30.042   1.367
20928W        W92457  25.437  24.649  11.946
20929W        W92458  32.571  22.229  10.624
20930W        W92459  34.031  32.174  12.880
20931W        W92460  35.974  14.843   0.380
20932W        W92461  39.095  34.607   4.071
20933W        W92462  10.610  35.058   4.110
20934W        W92463  26.907   1.383   1.405
20935W        W92464  14.752  26.844   0.404
20936W        W92465  33.688  23.141   3.726
20937W        W92466   5.259   3.927   2.861
20938W        W92467   2.904  27.675   1.926
20939W        W92468  35.461  19.960   4.162
20940W        W92469  36.565  31.419  11.820
20941W        W92470  15.126  25.693  12.940
20942W        W92471   7.042  15.663  14.708
20943W        W92472  20.674  37.626  13.938
20944W        W92473  43.274   0.247  14.334
20945W        W92474  21.627  13.628  10.683
20946W        W92475  17.588   4.905  13.867
20947W        W92476  34.029  43.043  13.832
20948W        W92477  11.887  22.213   2.465
20949W        W92478  18.489  17.556  13.279
20950W        W92479  41.562  11.673   4.590
20951W        W92480   8.366  21.769   1.657
20952W        W92481   7.387  40.867  12.608
20953W        W92482   9.138  41.999   3.353
20954W        W92483   5.504  29.187  12.589
20955W        W92484  39.551   0.401   3.187
20956W        W92485   6.714   2.186  12.348
20957W        W92486  37.675  14.722   4.167
20958W        W92487   0.224   8.248   3.114
20959W        W92488  21.200  22.812   4.707
20960W        W92489  12.607  28.878  12.166
20961W        W92490  19.829  16.852   1.157
20962W        W92491  32.411  36.566   2.308
20963W        W92492  20.909  15.364   1.054
20964W        W92493  15.302  30.731   1.410
20965W        W92494   8.807   7.716  13.903
20966W        W92495  19.517  37.563   0.884
20967W        W92496   0.484  26.415  13.974
20968W        W92497  31.546  40.873  12.048
20969W        W92498  35.844  14.452  13.774
20970W        W92499  44.378   0.535  13.551
20971W        W92500   9.973  22.123   4.913
20972W        W92501  42.751  12.697   3.201
20973W        W92502  12.054  34.855  13.077
20974W        W92503  33.470  14.329  14.955
20975W        W92504   9.079  31.990   2.262
20976W        W92505  29.562   8.319   3.370
20977W        W92506  40.102  39.012   1.872
20978W        W92507  19.343  21.580   3.273
20979W        W92508  26.287  43.287  10.863
20980W        W92509  26.426  36.519   4.781
20981W        W92510  30.620  32.835  12.106
20982W        W92511   0.235  15.097  14.065
20983W        W92512  31.116   1.786   5.012
20984W        W92513  31.917  11.348   1.878
20985W        W92514   1.519  22.311   4.187
20986W        W92515  22.457  42.437   3.710
20987W        W92516   9.861  28.508   3.140
20988W        W92517  41.324  38.990   3.076
20989W        W92518   9.786  24.712   3.654
20990W        W92519   2.944  23.273  11.626
20991W        W92520  25.673   3.744   1.048
20992W        W92521  20.284  19.729   1.780
20993W        W92522  24.932  41.467   2.767
20994W        W92523  25.935   4.212   3.233
20995W        W92524  23.195  31.774   0.407
20996W        W92525  15.192  40.950   4.010
20997W        W92526  37.572  28.786  10.250
20998W        W92527  29.563  40.590  10.706
20999W        W92528   5.652  41.532  11.681
21000W        W92529  25.255  32.091  14.302
21001W        W92530  41.958  38.591   2.860
21002W        W92531  31.113  35.591   1.499
21003W        W92532  16.743   8.496  13.222
21004W        W92533  41.846  24.402  14.887
21005W        W92534  11.850  29.146  10.047
21006W        W92535   4.401  27.355   3.297
21007W        W92536  38.858  36.344  11.670
21008W        W92537  44.042  38.533  13.904
21009W        W92538  19.852   0.749  10.827
21010W        W92539   1.697  28.718  14.863
21011W        W92540   5.710   6.889  13.611
21012W        W92541  20.161  42.362  14.283
21013W        W92542  38.127  35.827  14.483
21014W        W92543  43.063  17.696  12.559
21015W        W92544  25.629  21.133   1.465
21016W        W92545  44.353  34.202  13.244
21017W        W92546  25.407  13.384   5.035
21018W        W92547  21.336  17.870   3.127
21019W        W92548  18.097  42.925   4.922
21020W        W92549  35.038  10.683  14.655
21021W        W92550   9.923  25.704  13.141
21022W        W92551  35.104  40.818  14.800
21023W        W92552   1.014  20.759   2.128
21024W        W92553   5.435  23.609  12.126
21025W        W92554  44.472  29.039   0.434
21026W        W92555  11.385  14.325  10.619
21027W        W92556  13.311  40.920  10.440
21028W        W92557   6.656   8.659  12.449
21029W        W92558  32.454  23.971  13.085
21030W        W92559   9.319  32.198  11.203
21031W        W92560  39.535   2.909   1.328
21032W        W92561  41.018  32.414  11.521
21033W        W92562  11.273  10.777  12.787
21034W        W92563  36.272  18.642   4.903
21035W        W92564   5.644  17.749  14.242
21036W        W92565  31.077  12.519   3.697
21037W        W92566  43.460  41.492  14.519
21038W        W92567  14.165  20.238   1.355
21039W        W92568  34.653  16.477  14.965
21040W        W92569  10.621  10.601   1.259
21041W        W92570   2.894  42.442  12.515
21042W        W92571   2.162  12.218   3.691
21043W        W92572  26.399   2.922   1.639
21044W        W92573  27.147  15.663  10.715
21045W        W92574  43.208  43.239   0.416
21046W        W92575   5.297   7.960   0.868
21047W        W92576  38.728  40.119  14.048
21048W        W92577  29.011  35.351  11.641
21049W        W92578  33.331   5.563   0.383
21050W        W92579  21.297  39.141  12.597
21051W        W92580   5.865  21.282   4.815
21052W        W92581  19.293  38.092  12.070
21053W        W92582  10.367   5.361  13.954
21054W        W92583   3.912  29.390   1.810
21055W        W92584  32.657   6.790  14.565
21056W        W92585   3.806  43.469   1.725
21057W        W92586  27.639  20.623   0.275
21058W        W92587   0.169  37.966   2.843
21059W        W92588   8.827   5.798   0.454
21060W        W92589  43.990  13.170   0.925
21061W        W92590   6.977  26.948  10.804
21062W        W92591  28.140  32.042  10.661
21063W        W92592  41.076   9.798   1.410
21064W        W92593  41.390   6.717  11.986
21065W        W92594  28.096  10.364  11.789
21066W        W92595  14.168  12.349  13.057
21067W        W92596  15.407  24.142  11.004
21068W        W92597  21.217  34.896   2.763
21069W        W92598   0.865  28.982   2.331
21070W        W92599  44.848   3.019   2.878
21071W        W92600   6.305   4.270   1.226
21072W        W92601  35.539  25.409   1.268
21073W        W92602   1.768  44.197   2.067
21074W        W92603  39.983  34.123  12.048
21075W        W92604  27.275  26.516  10.763
21076W        W92605   8.180  12.069   1.500
21077W        W92606   2.999   9.745   3.119
21078W        W92607   0.016  44.454  12.407
21079W        W92608   6.345  21.254  10.472
21080W        W92609  12.073  28.314   2.415
21081W        W92610  18.241  27.134   3.149
21082W        W92611  17.386  28.553  12.432
21083W        W92612  23.508  32.715   3.722
21084W        W92613  16.593  31.376   2.553
21085W        W92614   5.148   7.752  13.485
21086W        W92615  20.020  40.075   3.033
21087W        W92616   4.515  17.796   1.547
21088W        W92617  42.519  31.633   1.466
21089W        W92618  30.673  10.064  14.806
21090W        W92619  22.987  24.528  13.772
21091W        W92620   6.717  32.620  11.652
21092W        W92621   4.900  18.293  12.073
21093W        W92622  31.643  43.136   1.639
21094W        W92623  26.129  16.290   4.809
21095W        W92624  33.282  29.972  14.772
21096W        W92625  29.651  30.910   2.821
21097W        W92626  11.307  20.194  14.434
21098W        W92627  29.034  37.083  13.051
21099W        W92628  31.497  40.568   3.124
21100W        W92629  18.343  42.537  13.893
21101W        W92630   8.748  36.989   4.721
21102W        W92631  11.782   2.321  11.343
21103W        W92632  30.415  28.892  11.941
21104W        W92633  30.494  43.328  13.998
21105W        W92634  27.049  36.773   1.392
21106W        W92635  28.646  19.810  10.685
21107W        W92636  23.996  33.436  14.718
21108W        W92637  24.501  32.647  14.346
21109W        W92638  19.759  17.397   2.364
21110W        W92639  35.943   7.157  12.431
21111W        W92640  16.265  10.587  13.586
21112W        W92641   7.631  19.109  12.900
21113W        W92642  32.468   4.210   3.683
21114W        W92643   5.177   1.318   0.553
21115W        W92644  31.783  40.799   2.759
21116W        W92645  24.697  12.315   3.203
21117W        W92646  35.415   4.527  14.243
21118W        W92647  11.183  23.748  12.953
21119W        W92648  24.387  39.986   4.212
21120W        W92649   6.782  23.547   4.171
21121W        W92650  23.163  33.584   3.265
21122W        W92651   4.598  27.545   3.761
21123W        W92652   5.327  15.380   3.119
21124W        W92653  39.616  15.747  11.453
21125W        W92654   7.095  20.739   3.716
21126W        W92655  30.431  29.909   2.245
21127W        W92656   3.771  38.978  11.126
21128W        W92657  15.992  38.816  12.484
21129W        W92658  13.214  35.118   4.272
21130W        W92659  30.015   8.067   3.424
21131W        W92660  27.030  13.522  11.120
21132W        W92661  42.082   2.990  10.662
21133W        W92662  27.057  32.469  14.092
21134W        W92663  42.030  24.864  12.925
21135W        W92664   4.568   5.181   3.412
21136W        W92665  24.208  27.134  14.394
21137W        W92666   0.214  13.673   4.291
21138W        W92667  41.296  44.378  12.824
21139W        W92668   9.128  39.985   4.310
21140W        W92669  28.138  22.759   0.167
21141W        W92670  32.483   8.791   5.362
21142W        W92671   6.831  25.522  13.746
21143W        W92672  22.712  32.043   1.164
21144W        W92673  27.660   9.332  14.765
21145W        W92674   9.502  10.136   9.834
21146W        W92675  22.196  43.589   1.802
21147W        W92676  15.280  31.483   1.017
21148W        W92677  17.015  41.400   3.811
21149W        W92678  24.030  29.734   4.617
21150W        W92679  24.914  29.245   0.225
21151W        W92680  12.600   4.969   0.405
21152W        W92681  18.736  29.867   3.137
21153W        W92682  29.036  24.732   3.122
21154W        W92683  37.165   0.413   2.462
21155W        W92684   4.750   3.545  14.106
21156W        W92685  21.706  30.462   4.549
21157W        W92686  13.580  36.374  12.708
21158W        W92687  26.181  13.221   3.787
21159W        W92688  40.566  15.746   0.234
21160W        W92689   2.461  30.849   2.348
21161W        W92690  31.401   1.045   2.099
21162W        W92691  27.874  30.456   2.634
21163W        W92692  12.811  18.661  13.426
21164W        W92693   9.689  19.098   0.193
21165W        W92694  24.128  21.994  14.450
21166W        W92695  13.787   2.555  11.964
21167W        W92696  11.688  35.110  13.998
21168W        W92697  13.860   2.706   2.786
21169W        W92698   3.545  23.183   0.819
21170W        W92699  13.858  36.745   2.303
21171W        W92700  14.670  32.080   4.096
21172W        W92701  16.895  38.403  11.237
21173W        W92702  39.433  33.925   3.118
21174W        W92703  13.012   6.884   4.949
21175W        W92704  15.803  24.497   1.382
21176W        W92705   8.206  31.695  11.988
21177W        W92706  27.480  23.125  10.456
21178W        W92707  22.179   0.735   2.322
21179W        W92708  19.039   0.805   4.945
21180W        W92709   7.707  44.873   0.621
21181W        W92710  28.683  39.521  12.368
21182W        W92711  34.937  37.839  12.193
21183W        W92712   6.033  18.699  11.620
21184W        W92713  25.623  34.410   3.674
21185W        W92714  26.220  24.471   0.737
21186W        W92715  25.658  23.011   1.919
21187W        W92716   9.331  20.754   1.465
21188W        W92717  43.532  24.879   1.836
21189W        W92718  36.469   7.097  12.002
21190W        W92719   7.500  43.172   4.869
21191W        W92720  20.128  18.203  13.089
21192W        W92721   5.544  19.841  10.421
21193W        W92722  17.869  37.184   2.327
21194W        W92723   5.080   7.870   3.933
21195W        W92724  39.807  21.525  11.495
21196W        W92725  22.635  19.208   4.666
21197W        W92726  38.531  43.340  11.515
21198W        W92727  17.067  21.678  14.825
21199W        W92728  34.353  19.274  14.989
21200W        W92729  32.063   2.464  10.611
21201W        W92730  43.003  30.360  14.745
21202W        W92731  19.368  35.835  11.635
21203W        W92732  42.883  17.647  10.800
21204W        W92733  35.541  35.102   3.390
21205W        W92734  39.953  14.919   1.809
21206W        W92735  23.051  25.113   2.667
21207W        W92736   4.354   6.164   4.259
21208W        W92737  10.294  38.793   3.038
21209W        W92738  16.667  30.160  14.060
21210W        W92739  42.529  17.753   4.682
21211W        W92740  10.811  42.447   3.775
21212W        W92741   1.335  15.830  10.888
21213W        W92742  41.284  34.975  12.485
21214W        W92743  19.766  41.862  12.626
21215W        W92744  33.294  16.784  14.834
21216W        W92745  34.896  22.766   5.034
21217W        W92746   6.653  25.821  11.890
21218W        W92747   6.811  16.481  14.061
21219W        W92748   6.358   1.952   4.596
21220W        W92749  42.997   4.128  12.621
21221W        W92750  13.860  20.499  13.605
21222W        W92751  31.687  35.288  10.379
21223W        W92752   6.412  10.796  12.878
21224W        W92753   3.494  40.438  11.605
21225W        W92754  29.233  36.069  13.118
21226W        W92755   1.383  34.519   2.795
21227W        W92756   2.850  20.476  14.240
21228W        W92757  28.098  15.795  11.109
21229W        W92758   7.938  25.266   2.642
21230W        W92759  16.972  18.789  12.526
21231W        W92760  26.660  39.354   4.686
21232W        W92761  15.406  26.675   1.181
21233W        W92762  34.752  12.302  13.000
21234W        W92763  42.596   5.878   0.682
21235W        W92764   3.255  15.346   0.798
21236W        W92765   8.186  10.304   3.452
21237W        W92766  32.919  10.328   3.187
21238W        W92767   4.720  31.973  12.049
21239W        W92768   9.395   2.326  10.624
21240W        W92769  32.788   0.477   3.806
21241W        W92770  31.093   5.528   1.004
21242W        W92771  10.648  36.606   1.604
21243W        W92772  38.978   1.984  10.868
21244W        W92773   4.320  39.839   2.506
21245W        W92774  42.353  13.995  13.891
21246W        W92775   8.208  26.238  11.714
21247W        W92776   6.201  24.349  10.671
21248W        W92777  16.671  20.852  12.377
21249W        W92778   3.403  37.886  13.824
21250W        W92779  37.864   6.617   0.298
21251W        W92780  33.785  11.884   2.711
21252W        W92781  38.550  43.511   0.825
21253W        W92782  12.346   8.131  14.848
21254W        W92783  44.790  37.903   0.655
21255W        W92784  40.512  18.523  12.079
21256W        W92785  14.273  40.116  14.107
21257W        W92786  13.659  44.403   1.864
21258W        W92787  15.579  23.652   4.968
21259W        W92788   1.317  22.794   0.821
21260W        W92789  40.950  35.550  14.226
21261W        W92790  34.044  28.183   1.426
21262W        W92791  19.397  12.866  14.237
21263W        W92792  40.893  33.453   2.792
21264W        W92793  44.866   4.174  14.923
21265W        W92794   9.309   3.724   2.750
21266W        W92795  18.717   5.324  10.562
21267W        W92796  27.704  22.084   2.137
21268W        W92797  25.763  12.336  14.896
21269W        W92798  39.036   3.860  13.223
21270W        W92799  16.849  11.699  14.358
21271W        W92800  41.208  20.276  12.543
21272W        W92801   3.304  32.884  13.981
21273W        W92802  33.367  10.041   3.175
21274W        W92803  27.194  29.513  13.431
21275W        W92804   3.908  13.164   2.166
21276W        W92805  27.545  29.393   1.326
21277W        W92806   3.684  42.915   3.091
21278W        W92807  19.320  31.170  14.852
21279W        W92808  27.934  41.334  14.738
21280W        W92809  44.239  31.568   2.823
21281W        W92810  39.860  31.522   1.415
21282W        W92811  19.669   3.924  13.597
21283W        W92812  33.048  16.177  12.034
21284W        W92813  12.755  36.523  10.744
21285W        W92814  23.143  35.547   3.216
21286W        W92815   9.754  12.816  12.863
21287W        W92816  32.163  24.173  11.297
21288W        W92817  26.683   7.723  10.646
21289W        W92818  32.423  34.603  11.641
21290W        W92819  39.954  19.178  13.043
21291W        W92820  12.830   3.453  10.484
21292W        W92821  40.444   2.566  11.618
21293W        W92822  44.317  37.674   5.116
21294W        W92823   9.754  13.225   1.380
21295W        W92824  32.012  14.622   2.250
21296W        W92825  19.214   1.183   0.441
21297W        W92826  29.789  33.655   3.174
21298W        W92827   1.988  25.449   3.671
21299W        W92828   2.724  25.442  12.402
21300W        W92829   6.938  41.167  12.496
21301W        W92830  18.953   7.949   4.067
21302W        W92831  12.125  26.048   4.500
21303W        W92832  37.103  37.313   3.259
21304W        W92833  10.276  21.735  10.495
21305W        W92834  42.844   8.883   2.185
21306W        W92835  43.676  27.703   0.081
21307W        W92836  33.160  16.166  11.072
21308W        W92837  28.836   7.902  11.432
21309W        W92838  40.477  23.990   1.364
21310W        W92839   8.123   3.313  12.417
21311W        W92840  37.049  17.539  10.822
21312W        W92841  16.210  12.104  12.372
21313W        W92842   5.822   9.242  13.513
21314W        W92843  19.671  27.455   1.801
21315W        W92844  25.984  33.070   4.382
21316W        W92845  29.504  20.632  13.569
21317W        W92846  13.866  11.603   4.657
21318W        W92847  43.762  39.806  12.901
21319W        W92848  33.068  42.715   2.605
21320W        W92849  31.527  25.215   1.766
21321W        W92850  13.712   8.799  13.958
21322W        W92851   3.641  37.856  11.582
21323W        W92852  13.730  25.458   2.082
21324W        W92853  25.150  34.302  13.422
21325W        W92854   5.802   2.689   3.814
21326W        W92855  15.620  11.757  11.850
21327W        W92856  38.785   3.549  10.390
21328W        W92857   0.562  34.082  12.446
21329W        W92858   6.390  32.506   2.614
21330W        W92859  41.337   9.130   0.270
21331W        W92860  26.184  40.032  11.473
21332W        W92861   8.270  20.092  13.350
21333W        W92862  39.776  11.559   1.354
21334W        W92863   9.408   5.429   1.282
21335W        W92864  40.783   5.432   3.745
21336W        W92865  31.522  40.832   2.212
21337W        W92866  41.254  38.067   3.206
21338W        W92867  12.672  36.331  12.584
21339W        W92868  12.656  24.442  13.430
21340W        W92869  40.743   1.506  14.329
21341W        W92870  37.842  18.751  10.454
21342W        W92871   3.214   4.848   5.197
21343W        W92872  41.404  11.398  12.485
21344W        W92873  22.487   1.165   2.198
21345W        W92874   1.066  41.288   1.764
21346W        W92875  24.287  18.619   2.884
21347W        W92876  44.396  40.922   1.443
21348W        W92877  27.908   5.267   0.850
21349W        W92878  28.101  32.187  14.977
21350W        W92879  30.487  29.044   4.705
21351W        W92880  39.404  37.163   1.344
21352W        W92881  26.114  24.582   1.777
21353W        W92882  24.375   5.879  14.913
21354W        W92883  39.919  32.630   3.693
21355W        W92884  10.710   2.228   3.178
21356W        W92885   8.231  14.434   4.576
21357W        W92886  41.319  13.801  11.953
21358W        W92887   6.355  23.329  10.707
21359W        W92888  18.342  39.363  12.060
21360W        W92889   4.577  31.686  14.758
21361W        W92890  15.784  11.919   3.872
21362W        W92891  44.005  28.102  14.937
21363W        W92892  17.120  35.041   4.542
21364W        W92893  30.437  27.768   3.222
21365W        W92894  22.062  20.575   2.239
21366W        W92895   8.448   9.391   0.920
21367W        W92896  26.878   6.922  13.110
21368W        W92897  36.402   0.567  13.559
21369W        W92898  10.286  22.734   0.353
21370W        W92899  18.679  34.440   2.575
21371W        W92900   1.477  33.202  12.595
21372W        W92901  34.454  25.208   3.371
21373W        W92902  22.708   0.373  10.638
21374W        W92903  34.506   9.100   1.228
21375W        W92904  33.805  13.763   2.714
21376W        W92905   6.445  26.466  14.529
21377W        W92906   4.986  21.089  12.145
21378W        W92907  11.653   9.110  10.642
21379W        W92908  29.786   0.371   2.677
21380W        W92909  30.460  10.848   1.432
21381W        W92910  43.349   4.118  11.325
21382W        W92911   3.680   9.418   1.800
21383W        W92912  27.589  32.660  11.053
21384W        W92913   1.813  22.630  14.775
21385W        W92914   0.803  13.399  13.545
21386W        W92915  13.356  41.931   4.223
21387W        W92916  11.703   8.571   3.176
21388W        W92917  27.202  38.263   1.254
21389W        W92918  17.361  20.220   2.295
21390W        W92919  34.408  36.898  12.073
21391W        W92920   2.314  28.992   1.921
21392W        W92921  14.034  37.743  14.490
21393W        W92922   1.737  23.144  14.562
21394W        W92923   6.805  43.998  13.262
21395W        W92924   3.335   3.942   4.495
21396W        W92925  41.985  13.467   5.201
21397W        W92926  34.783   2.624   1.267
21398W        W92927   4.440  40.365  11.630
21399W        W92928  19.252  10.710  10.932
21400W        W92929  11.824  40.204   2.628
21401W        W92930  39.210  25.904   3.321
21402W        W92931  11.291  37.078  10.772
21403W        W92932  44.332   7.857   2.255
21404W        W92933   5.744  33.075   2.549
21405W        W92934  34.450  25.619  12.046
21406W        W92935  39.963  15.289  12.904
21407W        W92936  26.184  44.265  11.429
21408W        W92937  17.544   3.709  11.976
21409W        W92938   1.563  12.292   2.279
21410W        W92939  14.786  29.558  13.819
21411W        W92940  27.076   7.409   0.482
21412W        W92941  19.684  22.963   3.862
21413W        W92942  32.490  37.019   3.773
21414W        W92943  16.337  38.778  12.883
21415W        W92944  34.006  14.788  10.633
21416W        W92945   2.274  11.616  11.130
21417W        W92946  13.846   6.305   2.770
21418W        W92947   0.383   2.886   1.322
21419W        W92948  21.672  20.767  10.657
21420W        W92949  35.706  35.178  14.099
21421W        W92950  13.284  35.942   1.309
21422W        W92951  28.200  44.809  10.200
21423W        W92952  35.275  28.138   2.865
21424W        W92953  32.983  12.702  10.508
21425W        W92954  24.586  31.030  11.468
21426W        W92955  25.760  24.258  13.849
21427W        W92956  32.949  33.740  14.781
21428W        W92957  25.993  20.626   4.771
21429W        W92958   0.921  36.556  14.438
21430W        W92959  19.212  18.077   1.676
21431W        W92960   8.471  36.168  13.035
21432W        W92961  31.462  40.187  13.518
21433W        W92962  23.506  33.413   2.453
21434W        W92963   1.178  43.811   1.140
21435W        W92964  11.734  16.880  10.815
21436W        W92965   1.160  25.208  10.247
21437W        W92966   6.325  28.777   3.641
21438W        W92967   8.268  21.190  14.503
21439W        W92968   0.729  38.576   3.191
21440W        W92969  39.896  34.142   3.189
21441W        W92970  13.239   6.863   2.179
21442W        W92971  38.076  38.910   2.782
21443W        W92972  32.576  23.747   3.982
21444W        W92973  18.621   0.008  12.237
21445W        W92974  22.837   3.327  14.745
21446W        W92975  13.617  44.813  13.341
21447W        W92976  30.671  17.220   4.993
21448W        W92977  15.939  26.911   4.666
21449W        W92978  44.633  37.440  11.744
21450W        W92979   2.763  13.161  11.985
21451W        W92980  25.694  18.249  14.276
21452W        W92981  42.661  18.608  12.000
21453W        W92982  34.011  32.070   4.099
21454W        W92983   0.980  27.159   3.259
21455W        W92984  39.058  23.595  11.472
21456W        W92985  27.341  37.406   2.868
21457W        W92986  38.356  36.077   4.734
21458W        W92987  21.592  13.259   4.622
21459W        W92988  25.216  26.612   3.644
21460W        W92989  12.926  40.839  14.075
21461W        W92990  13.114  20.258  12.720
21462W        W92991  36.527  29.035   1.287
21463W        W92992  10.805  10.821   2.649
21464W        W92993   4.878  15.279   1.130
21465W        W92994  35.866  17.922  14.146
21466W        W92995  24.485  23.631   3.697
21467W        W92996  24.798   3.391   3.227
21468W        W92997  31.301   8.210  11.876
21469W        W92998   6.950  15.439   4.058
21470W        W92999  30.463   7.796   2.714
21471W        W93000  15.205  38.379   1.850
21472W        W93001  19.771  29.074   1.378
21473W        W93002  30.313  33.630   3.246
21474W        W93003  19.039  25.486  14.592
21475W        W93004  36.820  36.213  14.241
21476W        W93005   3.666  12.220   0.585
21477W        W93006  16.965  34.406  11.480
21478W        W93007   4.129  39.396  13.859
21479W        W93008  25.535   5.470  14.854
21480W        W93009   9.774  32.565  14.936
21481W        W93010   3.198  43.539  11.794
21482W        W93011  10.246  15.454   3.927
21483W        W93012  38.884  36.247   1.545
21484W        W93013  31.212   6.614   4.063
21485W        W93014   1.122   3.284  14.865
21486W        W93015  28.114  16.654  10.620
21487W        W93016  29.557  24.252  10.716
21488W        W93017  22.918   0.907  12.428
21489W        W93018  28.409  10.696   1.443
21490W        W93019  26.252   2.449  11.084
21491W        W93020  12.919  37.329  14.775
21492W        W93021  30.591  24.183  10.566
21493W        W93022  30.977  27.234   3.244
21494W        W93023  19.226  44.737  13.122
21495W        W93024  42.682   3.718   2.965
21496W        W93025  12.531  37.860  11.194
21497W        W93026  24.945   7.746   1.243
21498W        W93027  25.933  11.653   3.410
21499W        W93028   2.861  12.214   4.521
21500W        W93029  24.696  12.886  11.067
21501W        W93030  28.363   3.319  13.506
21502W        W93031  15.216  26.978   4.906
21503W        W93032   3.669   6.271   3.339
21504W        W93033   5.730  13.831   0.787
21505W        W93034  33.617  13.659   3.189
21506W        W93035  34.110  18.487   2.055
21507W        W93036  38.076  37.892   2.875
21508W        W93037  39.423   8.439  14.291
21509W        W93038  40.871   5.231  12.589
21510W        W93039   3.416  36.547  10.615
21511W        W93040  30.630  27.887   3.683
21512W        W93041   6.525  34.316   2.913
21513W        W93042  30.276   4.608   2.784
21514W        W93043  37.828   9.120   3.176
21515W        W93044  33.063  19.030   2.669
21516W        W93045  40.925  32.421   2.747
21517W        W93046  38.779  10.651  10.782
21518W        W93047   3.216  37.363   0.049
21519W        W93048  40.274  10.689   1.744
21520W        W93049  39.872  26.939  13.451
21521W        W93050  28.036  26.562  11.699
21522W        W93051  10.169  16.272   0.386
21523W        W93052  39.879  10.838  13.890
21524W        W93053  26.022  24.791   1.299
21525W        W93054  17.635  25.140   4.957
21526W        W93055  31.511  41.391   1.015
21527W        W93056   0.470  33.157   0.331
21528W        W93057  29.230  38.944   3.566
21529W        W93058  31.485  10.281  13.325
21530W        W93059   1.208  33.986  13.030
21531W        W93060   6.183   2.395   1.709
21532W        W93061  17.850   0.802  14.348
21533W        W93062  24.256  16.339   0.001
21534W        W93063  31.010   7.870  13.744
21535W        W93064  43.132   2.670  11.102
21536W        W93065  31.167  41.219  14.957
21537W        W93066   2.943   1.025  11.026
21538W        W93067  11.186  14.886   0.795
21539W        W93068   2.053   0.929  12.896
21540W        W93069   0.473  14.876  11.223
21541W        W93070  13.903  39.027   4.519
21542W        W93071   5.726  11.138   1.570
21543W        W93072  17.217   8.783  11.505
21544W        W93073   8.848  36.038   0.753
21545W        W93074  25.537  42.812  10.397
21546W        W93075  20.066   4.411   4.042
21547W        W93076   6.763  26.499  10.633
21548W        W93077   9.220  41.850   0.283
21549W        W93078  26.605  10.547   0.274
21550W        W93079  42.085  32.634  14.634
21551W        W93080  21.746  44.902  13.574
21552W        W93081  28.959  28.858   0.382
21553W        W93082  43.660  14.406   3.169
21554W        W93083  37.351  11.285   0.935
21555W        W93084  31.571  31.709  11.423
21556W        W93085   4.146   5.309  12.913
21557W        W93086  37.454  37.782  13.934
21558W        W93087  10.804  21.188  12.624
21559W        W93088  43.502   3.099   0.388
21560W        W93089  43.260   7.657   3.165
21561W        W93090  26.568  34.532  10.375
21562W        W93091  14.795  38.293   3.688
21563W        W93092  31.172  14.303   1.859
21564W        W93093  18.620  35.626  11.512
21565W        W93094  15.586  40.302  12.646
21566W        W93095  19.594  11.074  13.149
21567W        W93096   3.734  41.906   2.320
21568W        W93097  10.456  16.212  14.954
21569W        W93098  19.100  19.033  13.941
21570W        W93099  43.603   6.726  13.782
21571W        W93100  44.792  35.474   3.609
21572W        W93101  29.897  42.069   4.607
21573W        W93102  11.373  10.514  10.837
21574W        W93103  23.531  32.470  10.506
21575W        W93104   8.899   1.757   1.883
21576W        W93105  12.352   6.856   3.701
21577W        W93106  39.376  25.582  10.814
21578W        W93107   9.161  41.264   2.665
21579W        W93108  10.394  36.904   2.734
21580W        W93109  26.784  10.417  13.838
21581W        W93110   0.092  39.246   3.174
21582W        W93111  19.898  35.641   0.779
21583W        W93112  33.943  37.073  11.941
21584W        W93113  34.010  40.617   4.112
21585W        W93114  38.763  40.015  12.326
21586W        W93115  36.616   2.944  14.502
21587W        W93116  40.865  17.161  14.255
21588W        W93117  23.664  14.055  13.947
21589W        W93118  34.453  25.850   4.445
21590W        W93119  23.888  40.956  14.915
21591W        W93120  13.132  33.380   5.210
21592W        W93121  33.275  32.610  11.966
21593W        W93122  27.564   6.085  10.469
21594W        W93123  39.980   6.792  11.493
21595W        W93124   4.725  43.258  14.746
21596W        W93125   7.053  43.244   4.593
21597W        W93126   7.718  22.015   5.019
21598W        W93127  26.368  31.526  13.003
21599W        W93128  30.303   8.889  11.621
21600W        W93129   6.012   4.246  11.035
21601W        W93130  27.319  34.981  10.258
21602W        W93131  20.715  30.643  13.939
21603W        W93132  10.671  34.735  12.813
21604W        W93133   6.751  42.320   5.002
21605W        W93134  10.375  25.226  11.112
21606W        W93135   8.101  10.355   3.989
21607W        W93136  19.025   1.913  13.358
21608W        W93137  21.488  23.388   1.248
21609W        W93138   1.206  39.330  14.882
21610W        W93139   9.242  22.397  13.493
21611W        W93140  19.063   7.257  13.397
21612W        W93141  25.112   6.605   2.790
21613W        W93142  25.931  33.032  10.677
21614W        W93143  29.055  40.809  14.237
21615W        W93144  41.734  31.574  12.283
21616W        W93145  24.484   6.261   0.958
21617W        W93146  23.284  36.591   4.656
21618W        W93147   1.543  35.886   1.455
21619W        W93148  36.371  19.343  11.134
21620W        W93149  29.971  18.587  11.227
21621W        W93150  30.905  40.843   1.483
21622W        W93151  29.749   1.740   0.302
21623W        W93152  41.344  43.327   4.734
21624W        W93153   3.349   1.207   3.427
21625W        W93154  37.433  18.186   3.693
21626W        W93155  13.061  40.016   0.474
21627W        W93156  30.014  44.772   3.253
21628W        W93157  36.639  42.096   0.585
21629W        W93158  28.391  26.913  12.088
21630W        W93159   2.875  33.927  11.094
21631W        W93160  36.015   6.813  13.223
21632W        W93161   7.671  29.182  11.555
21633W        W93162  22.248  23.067  12.671
21634W        W93163   2.315  28.190   0.322
21635W        W93164  38.810  28.015   3.197
21636W        W93165  41.397  32.083  14.864
21637W        W93166   1.816   4.967  11.565
21638W        W93167   9.843  21.538   2.396
21639W        W93168  18.199  10.108   4.220
21640W        W93169  15.602  35.915  12.865
21641W        W93170  12.802  33.858  12.327
21642W        W93171  22.220  30.818   0.939
21643W        W93172   8.168   6.385   2.503
21644W        W93173   6.875  28.985  13.354
21645W        W93174  21.479  16.749  12.977
21646W        W93175   6.245  41.443   4.563
21647W        W93176   2.954  20.039   4.470
21648W        W93177  26.543  25.403   3.577
21649W        W93178  19.008  11.206  12.457
21650W        W93179   6.891  17.331  13.229
21651W        W93180  40.410   3.336  14.407
21652W        W93181  20.120   1.364  10.841
21653W        W93182   1.679   6.703  13.061
21654W        W93183  44.924  41.044   1.380
21655W        W93184  26.126  41.289   3.717
21656W        W93185   5.268  34.502  14.783
21657W        W93186   2.765   1.383   1.364
21658W        W93187   3.156  36.014  14.536
21659W        W93188  37.623   8.753   1.622
21660W        W93189  28.294  17.248   4.683
21661W        W93190  16.014   5.899  12.583
21662W        W93191  12.265  35.138  13.469
21663W        W93192  13.238  43.986   3.346
21664W        W93193  40.079  30.122   4.525
21665W        W93194  17.878  18.870  13.389
21666W        W93195  32.646   8.049  13.930
21667W        W93196  22.984  12.169  12.324
21668W        W93197  16.307  13.545  10.279
21669W        W93198  12.595  14.250   1.844
21670W        W93199  10.942  11.268  14.811
21671W        W93200  24.280  41.057  12.058
21672W        W93201  14.314  15.536  13.223
21673W        W93202  40.397  40.435   3.389
21674W        W93203   2.854  24.924  12.505
21675W        W93204  24.121  10.564   0.449
21676W        W93205   5.817   4.415   1.334
21677W        W93206  10.948   0.457   0.930
21678W        W93207  38.614  35.991   2.398
21679W        W93208  12.743  20.130   0.385
21680W        W93209   2.753   3.913   0.262
21681W        W93210  29.959   3.304   3.139
21682W        W93211  43.043  36.231  14.153
21683W        W93212  23.568  35.127   0.311
21684W        W93213  44.888  25.598   4.575
21685W        W93214  31.733  36.741   0.273
21686W        W93215   8.365  12.586  11.485
21687W        W93216  17.839  32.066   0.017
21688W        W93217  17.728  25.627   2.889
21689W        W93218  11.362  29.726  11.120
21690W        W93219  13.117  11.543  10.736
21691W        W93220  29.174  35.615  13.401
21692W        W93221   5.372  37.847   2.217
21693W        W93222  10.664  16.650   0.941
21694W        W93223  38.530  21.610  14.431
21695W        W93224   0.877  16.150  10.833
21696W        W93225  21.873  14.241   2.635
21697W        W93226  41.452  39.185   0.916
21698W        W93227  16.235  41.980   4.573
21699W        W93228  21.320  26.641   4.558
21700W        W93229  31.836  21.211  11.112
21701W        W93230  32.545  24.740  12.402
21702W        W93231   0.325   5.494  14.876
21703W        W93232  19.586  38.572  13.042
21704W        W93233   0.390  20.742   1.726
21705W        W93234  33.405  23.478  12.275
21706W        W93235  39.387   7.977   3.658
21707W        W93236   2.250  24.043   2.681
21708W        W93237   2.867  11.631  12.376
21709W        W93238  18.736  35.671  14.004
21710W        W93239  22.748  22.188   2.349
21711W        W93240   3.738  16.177   3.852
21712W        W93241  34.906  19.994  11.874
21713W        W93242   6.967  33.818  11.600
21714W        W93243   3.277  23.677  11.054
21715W        W93244  18.691   2.196  11.488
21716W        W93245  30.274  33.077   4.082
21717W        W93246  30.732  13.815  11.860
21718W        W93247  41.337  42.298  14.523
21719W        W93248   2.928   5.122   1.722
21720W        W93249   8.939  18.668  12.527
21721W        W93250  13.835  16.606  13.845
21722W        W93251   6.342  33.129   0.323
21723W        W93252  41.480  18.790  12.373
21724W        W93253   1.113  33.273   1.950
21725W        W93254  32.181  33.377   1.942
21726W        W93255  12.664  30.757   3.172
21727W        W93256  17.520   6.238  13.964
21728W        W93257  24.975  40.949   2.158
21729W        W93258   6.364  28.918  14.932
21730W        W93259  16.744  22.576  12.965
21731W        W93260  18.889  14.115  14.114
21732W        W93261  39.828  22.250   0.896
21733W        W93262   0.987   5.468  12.816
21734W        W93263   9.178  39.008  14.954
21735W        W93264  36.092  20.668   4.117
21736W        W93265  10.664  44.452  13.575
21737W        W93266   7.159  32.521  10.736
21738W        W93267  21.199  30.214  12.508
21739W        W93268  15.763   0.367  10.678
21740W        W93269  14.311  11.326   4.875
21741W        W93270  30.232  31.467   2.405
21742W        W93271  24.413  19.118   2.750
21743W        W93272  16.313  23.804  10.169
21744W        W93273  27.757  31.819   3.319
21745W        W93274  24.208  21.737   1.354
21746W        W93275  28.002  32.949   2.825
21747W        W93276   6.159   2.252  14.848
21748W        W93277  40.827  40.022  10.803
21749W        W93278  43.748   5.352   2.907
21750W        W93279  11.235  43.589  13.590
21751W        W93280  11.904  11.347   3.565
21752W        W93281  28.872  41.057   3.245
21753W        W93282  10.221  15.557  11.816
21754W        W93283   5.750  12.400   1.861
21755W        W93284  33.376  41.399   2.995
21756W        W93285   3.800  41.305   3.568
21757W        W93286   6.480  32.966   4.253
21758W        W93287  19.163  31.954   1.723
21759W        W93288  30.416  33.102  13.865
21760W        W93289  32.738  31.591  10.625
21761W        W93290   6.622  12.041   1.409
21762W        W93291  26.109  42.557  10.700
21763W        W93292   7.457  36.891  10.677
21764W        W93293  38.735  15.551  12.471
21765W        W93294  33.391  17.564   1.016
21766W        W93295  33.649  15.318   1.981
21767W        W93296  20.040  11.814   2.173
21768W        W93297   8.585  22.089  12.162
21769W        W93298  32.363  27.651  14.343
21770W        W93299  13.869  16.290  11.069
21771W        W93300  24.996  31.378  14.869
21772W        W93301   1.325  37.085  12.565
21773W        W93302  16.710  40.799  11.976
21774W        W93303  11.782  21.692  12.437
21775W        W93304  22.947  33.972   3.812
21776W        W93305  14.666  38.467  12.848
21777W        W93306  34.052  10.629   4.519
21778W        W93307  36.470   4.931  11.258
21779W        W93308   3.996  42.889  13.829
21780W        W93309   9.399   6.327   4.491
21781W        W93310   1.319   2.135  13.940
21782W        W93311  17.593  12.263   4.657
21783W        W93312  11.408   1.776  12.459
21784W        W93313  20.224  37.515  13.573
21785W        W93314  10.283   6.577   4.652
21786W        W93315  41.894  33.001   4.111
21787W        W93316  25.311   6.126   2.788
21788W        W93317  17.018  39.885   3.260
21789W        W93318  31.867  25.646  14.383
21790W        W93319   9.067  10.243   1.879
21791W        W93320  32.820  13.203   4.647
21792W        W93321  43.377  33.643   0.803
21793W        W93322   8.955  25.647  12.904
21794W        W93323  39.919  13.835  11.165
21795W        W93324   4.937  25.470   5.130
21796W        W93325  43.137  20.167   4.118
21797W        W93326  23.037   3.241  12.467
21798W        W93327   3.910   9.725   4.832
21799W        W93328  32.206   0.437  10.508
21800W        W93329   6.943  34.202  11.165
21801W        W93330   5.726  19.534  11.117
21802W        W93331  20.058  39.762  12.077
21803W        W93332  37.197   6.586  12.552
21804W        W93333   5.584  14.614   1.084
21805W        W93334  21.547  25.326   3.719
21806W        W93335  40.235   2.821  14.732
21807W        W93336  36.602  44.365   4.290
21808W        W93337   6.465  20.267  11.858
21809W        W93338  30.603  10.718  12.091
21810W        W93339  18.921  40.193   0.061
21811W        W93340  37.806  15.177  11.421
21812W        W93341   1.424  32.923   4.600
21813W        W93342   1.821  22.118  13.018
21814W        W93343  12.039  15.605  13.403
21815W        W93344  15.636   5.551  13.404
21816W        W93345  19.434  35.430  10.462
21817W        W93346  26.177   5.325  11.018
21818W        W93347   5.352  20.763  12.015
21819W        W93348   0.982  20.492   4.603
21820W        W93349  44.844   7.233   3.858
21821W        W93350   3.024  38.904   5.139
21822W        W93351  38.778  26.972  11.139
21823W        W93352  37.007  31.483   1.762
21824W        W93353  17.263  13.069  12.430
21825W        W93354  27.067   4.277   1.089
21826W        W93355   1.889  39.521  12.061
21827W        W93356   8.425  28.487   0.839
21828W        W93357  25.275  28.276  13.586
21829W        W93358  13.568  34.939   0.905
21830W        W93359  14.834  29.184  12.862
21831W        W93360   9.274  12.597  12.777
21832W        W93361  36.852  27.585  11.704
21833W        W93362  42.970  12.115  13.931
21834W        W93363  28.648  22.302   4.417
21835W        W93364  14.217  21.243   4.333
21836W        W93365  35.815  38.928   2.805
21837W        W93366  19.576   2.837   2.816
21838W        W93367  10.002  18.550  13.769
21839W        W93368  29.024   1.286   2.773
21840W        W93369  23.294  31.400   0.770
21841W        W93370  24.917  36.071   3.866
21842W        W93371  37.962  20.611  13.608
21843W        W93372  34.302  36.159   1.295
21844W        W93373  11.083  18.784   4.412
21845W        W93374  40.858   8.658  13.940
21846W        W93375  10.436  15.918  14.264
21847W        W93376   0.507  43.697   1.826
21848W        W93377  40.276  11.206  12.059
21849W        W93378  11.646  19.111   1.493
21850W        W93379  32.705  12.104   0.200
21851W        W93380  37.762  36.433  13.881
21852W        W93381  11.105   6.651   3.859
21853W        W93382   4.661  22.959  11.375
21854W        W93383  35.913   0.270   1.847
21855W        W93384  19.658  18.358   2.759
21856W        W93385  11.245  13.419  12.005
21857W        W93386  30.557  11.292  11.866
21858W        W93387  17.476  37.423  12.865
21859W        W93388  13.215  10.409  14.922
21860W        W93389  18.705  22.196   4.514
21861W        W93390  26.438  13.754   3.165
21862W        W93391  27.082  11.682  11.523
21863W        W93392  41.534  16.113  10.923
21864W        W93393   9.463  16.790  11.804
21865W        W93394  19.204  13.826   0.792
21866W        W93395  19.067   6.638   0.026
21867W        W93396  21.822  17.663   4.217
21868W        W93397  34.838  13.648   2.802
21869W        W93398   2.881  35.040   3.167
21870W        W93399  22.677  22.772   4.556
21871W        W93400  43.353  27.365  12.028
21872W        W93401  28.424  11.208   4.708
21873W        W93402   8.733  28.097   1.522
21874W        W93403  43.293   9.368  14.424
21875W        W93404   7.349  41.475  12.395
21876W        W93405   1.266  24.082   3.754
21877W        W93406  10.193  21.147   4.389
21878W        W93407  15.998  26.427  14.875
21879W        W93408  22.035  43.788  14.819
21880W        W93409  24.418  34.767  12.814
21881W        W93410  10.777  44.908   2.619
21882W        W93411  15.081   9.757   2.878
21883W        W93412  12.539  19.440  10.371
21884W        W93413  40.600   7.155  11.091
21885W        W93414   7.254  22.490  12.158
21886W        W93415   7.904   7.701   4.420
21887W        W93416  22.613  41.952  10.531
21888W        W93417   4.836  41.095  10.667
21889W        W93418  39.735  26.512   1.474
21890W        W93419  28.177  35.182   3.444
21891W        W93420  30.462  15.063   3.219
21892W        W93421  38.154  23.036   2.194
21893W        W93422  12.801  19.785   2.234
21894W        W93423  28.986  38.559   4.691
21895W        W93424  41.518  24.053   3.169
21896W        W93425   7.271   3.472   3.651
21897W        W93426  17.859   8.202  12.530
21898W        W93427  38.918  16.194  10.697
21899W        W93428  35.332  17.550   2.752
21900W        W93429  23.711  13.054   1.912
21901W        W93430  33.467  13.837   3.743
21902W        W93431   5.389  30.010   3.304
21903W        W93432   8.696  11.210   3.602
21904W        W93433  23.640  31.465   3.118
21905W        W93434  19.490   0.091   1.032
21906W        W93435  44.053   7.360  13.144
21907W        W93436  31.726  23.607   0.761
21908W        W93437  29.959  33.861   1.255
21909W        W93438  39.192  10.264   4.162
21910W        W93439  44.051   0.817   0.560
21911W        W93440   1.520   5.332   0.921
21912W        W93441  29.421  18.476   2.635
21913W        W93442  16.359  30.435   0.824
21914W        W93443  20.512  43.711   3.710
21915W        W93444  32.605  17.325  11.856
21916W        W93445  12.170  29.284  11.598
21917W        W93446  21.538  42.349  10.663
21918W        W93447  37.985  33.629   2.430
21919W        W93448   8.700   4.677   1.959
21920W        W93449   6.894  27.512   4.303
21921W        W93450   2.017  18.541  11.632
21922W        W93451  44.998   1.899   4.152
21923W        W93452  15.634   8.677   4.300
21924W        W93453   9.155  28.560  11.505
21925W        W93454  33.589  32.605   2.936
21926W        W93455  39.441  11.367   2.195
21927W        W93456  20.217  19.729   3.394
21928W        W93457  24.532  11.466   4.168
21929W        W93458  33.068  31.506  14.477
21930W        W93459  11.550  15.094  14.930
21931W        W93460  11.779   9.171  12.548
21932W        W93461   8.945  38.732   0.744
21933W        W93462  19.806  16.515   0.746
21934W        W93463   7.940   0.195  12.293
21935W        W93464  30.382  26.436  12.983
21936W        W93465  12.950  13.083   1.317
21937W        W93466  16.325  33.829   4.121
21938W        W93467   0.327  15.818   1.224
21939W        W93468  41.013  33.919   0.799
21940W        W93469  15.273  38.402  13.595
21941W        W93470  28.679  35.894  11.067
21942W        W93471   7.497  24.236  10.611
21943W        W93472  34.805  22.694   2.747
21944W        W93473  28.183  20.566  10.796
21945W        W93474  15.670  38.890   1.355
21946W        W93475  31.151   9.838  13.425
21947W        W93476  41.479  22.120   3.325
21948W        W93477   2.670  21.075  10.938
21949W        W93478  37.931  11.211   2.839
21950W        W93479   8.940  14.284   4.097
21951W        W93480   9.806  33.209  11.069
21952W        W93481  37.703  17.756  12.121
21953W        W93482  30.331  43.433   0.799
21954W        W93483  39.249  26.297  12.847
21955W        W93484  40.325   9.425   1.450
21956W        W93485  36.455  25.437   0.244
21957W        W93486  31.816  27.971   1.984
21958W        W93487  38.594  35.589   4.938
21959W        W93488  33.310   4.365  13.817
21960W        W93489   8.578   8.970  12.065
21961W        W93490   1.388   8.663   1.443
21962W        W93491  25.243  18.503   3.311
21963W        W93492   7.629  18.659   1.149
21964W        W93493  31.956  20.932  10.625
21965W        W93494  36.308  42.318  10.981
21966W        W93495  26.302  26.521   0.319
21967W        W93496  15.753  44.646   1.932
21968W        W93497  29.535  14.086  13.917
21969W        W93498  26.749  10.608  11.070
21970W        W93499  35.530   0.856  13.119
21971W        W93500  16.602   5.254   3.246
21972W        W93501  18.740  11.388  13.326
21973W        W93502  33.584  41.574  11.118
21974W        W93503   3.073  28.140  14.475
21975W        W93504   7.141  19.701   2.336
21976W        W93505   1.083  34.449  11.240
21977W        W93506   5.085  10.946  12.966
21978W        W93507   7.395  18.103   0.808
21979W        W93508  21.599  18.533   2.681
21980W        W93509  22.249  10.181   1.823
21981W        W93510  33.852   4.433  12.978
21982W        W93511  30.593  37.270  13.934
21983W        W93512  10.818  25.187   3.370
21984W        W93513  30.480  18.350  14.440
21985W        W93514  20.556  18.291   4.062
21986W        W93515  19.517  30.614  10.760
21987W        W93516  29.230  23.748   1.205
21988W        W93517  31.571   1.814   1.875
21989W        W93518  12.627  29.517   0.373
21990W        W93519  30.726  14.253   2.131
21991W        W93520   1.549   2.375  14.781
21992W        W93521  34.437  36.847  11.158
21993W        W93522  28.726  41.895   2.222
21994W        W93523  30.078  39.965   0.030
21995W        W93524   5.106  18.535   3.898
21996W        W93525   9.566  17.139   2.252
21997W        W93526   1.552  31.645   0.049
21998W        W93527  16.724  36.597  12.032
21999W        W93528   8.748  19.728  11.193
22000W        W93529  29.920  38.504  12.412
22001W        W93530  36.804  40.872  13.474
22002W        W93531  39.830  17.751   3.606
22003W        W93532  13.554   6.383   3.186
22004W        W93533  16.665   4.247   0.219
22005W        W93534  38.576   2.040   0.561
22006W        W93535  23.111   4.669   1.299
22007W        W93536   6.286   0.174  12.541
22008W        W93537  21.124   9.379   1.664
22009W        W93538   6.822  29.332  12.379
22010W        W93539  26.408  27.888   1.444
22011W        W93540  41.588  33.987   3.745
22012W        W93541  10.812  20.756   5.090
22013W        W93542  19.674  11.125   0.736
22014W        W93543  39.285  10.619   4.562
22015W        W93544   6.780  27.440  10.821
22016W        W93545  21.596  20.830  12.586
22017W        W93546  14.964  37.416   3.412
22018W        W93547  25.397  10.081   4.902
22019W        W93548  39.548  14.686   4.529
22020W        W93549  43.747  22.194   4.310
22021W        W93550  34.696  19.668   4.555
22022W        W93551  32.550  19.642  12.968
22023W        W93552  14.971  23.498   4.513
22024W        W93553   9.153   4.809  13.917
22025W        W93554  36.834  17.304  12.380
22026W        W93555  42.474  23.960   0.417
22027W        W93556   9.936   6.319   3.751
22028W        W93557  27.968  41.536   2.152
22029W        W93558   5.869   2.925   0.758
22030W        W93559  29.574  11.354  10.800
22031W        W93560  23.951  22.981   0.420
22032W        W93561   5.397   1.389  13.517
22033W        W93562  35.408  17.533   3.297
22034W        W93563  25.948  29.071   3.152
22035W        W93564  20.014  38.785   1.338
22036W        W93565  44.357   7.634   4.630
22037W        W93566   2.378  32.197  13.042
22038W        W93567  27.052  10.560   3.220
22039W        W93568   6.490  12.862   5.039
22040W        W93569  38.999  12.200  11.462
22041W        W93570  25.658   8.744  12.966
22042W        W93571   1.961  40.040   1.207
22043W        W93572   2.851  29.534   2.403
22044W        W93573  29.158   2.509   2.671
22045W        W93574  20.536  26.623   1.310
22046W        W93575  38.880  31.619   4.207
22047W        W93576  37.022  14.264  11.244
22048W        W93577  11.728  10.698   2.322
22049W        W93578  17.289  11.932  14.533
22050W        W93579  21.328  35.938   1.933
22051W        W93580  31.504  28.054  11.854
22052W        W93581   7.163   6.418   2.372
22053W        W93582   2.217  32.609   0.168
22054W        W93583   5.748  13.231   2.180
22055W        W93584  15.603  22.297  13.953
22056W        W93585   7.757  15.967   4.120
22057W        W93586  35.429  22.974  12.226
22058W        W93587  39.434  30.588  10.918
22059W        W93588  18.052  22.620  10.567
22060W        W93589  27.171  12.290  14.465
22061W        W93590  19.674  36.130  13.827
22062W        W93591  16.122  36.416  10.686
22063W        W93592  33.817  19.183  13.754
22064W        W93593  34.909  21.085   3.647
22065W        W93594  31.587   7.210  13.388
22066W        W93595  36.018  26.011   2.395
22067W        W93596  10.419  16.575  13.329
22068W        W93597  44.397  29.871   0.273
22069W        W93598  20.778  34.429  13.451
22070W        W93599  44.797  21.516   3.364
22071W        W93600   5.182  29.574   0.262
22072W        W93601  36.937  14.109   2.713
22073W        W93602   6.462  37.462   0.854
22074W        W93603  18.521  31.576  10.604
22075W        W93604   9.865  39.021   1.930
22076W        W93605  35.886  29.279   1.721
22077W        W93606   2.714   7.753   2.222
22078W        W93607  42.385  28.182   1.106
22079W        W93608  16.314  34.593   0.515
22080W        W93609  31.414  41.738   1.754
22081W        W93610  34.833   2.044  14.052
22082W        W93611   2.509  38.348  14.273
22083W        W93612  28.538  38.152   3.376
22084W        W93613  35.133   8.749  14.326
22085W        W93614   7.718  42.369  10.617
22086W        W93615   7.756  44.448   4.720
22087W        W93616   9.602   5.332   3.636
22088W        W93617  28.439   8.857   4.189
22089W        W93618  36.074  38.731   3.253
22090W        W93619  11.788  37.532  12.466
22091W        W93620  23.398   2.856   2.573
22092W        W93621  25.194   5.428   4.658
22093W        W93622  19.418   8.939   0.174
22094W        W93623  17.286  26.496   0.467
22095W        W93624  14.248   0.795  12.942
22096W        W93625  40.999  27.585   3.357
22097W        W93626  34.421  29.740  14.975
22098W        W93627   7.335  23.853  11.999
22099W        W93628  14.855  19.035  14.489
22100W        W93629  10.883   4.937  13.027
22101W        W93630  16.879  18.806  13.486
22102W        W93631  34.562   4.702  11.091
22103W        W93632  10.867  35.537   3.207
22104W        W93633  37.627  24.613   1.379
22105W        W93634  17.543  42.370   0.459
22106W        W93635  42.061   1.206  11.164
22107W        W93636   8.419   1.531   1.802
22108W        W93637  32.444   9.634   3.199
22109W        W93638  33.864  24.175   1.834
22110W        W93639  37.868  28.846   4.436
22111W        W93640  36.164  30.862  11.157
22112W        W93641  11.251  26.362  10.404
22113W        W93642  10.133  22.207   3.394
22114W        W93643  34.497  28.990  12.939
22115W        W93644  15.789  23.064  10.444
22116W        W93645  29.472  32.009   3.574
22117W        W93646  43.357  34.582   3.342
22118W        W93647  22.468  43.977  12.620
22119W        W93648  20.593  11.041   0.859
22120W        W93649   8.188  18.298  12.692
22121W        W93650  27.039  29.718   4.145
22122W        W93651   6.717  14.275  11.233
22123W        W93652  21.890  19.835  14.811
22124W        W93653  19.737  21.346  12.961
22125W        W93654  36.883  28.720   2.329
22126W        W93655   1.874  38.599  14.930
22127W        W93656  42.038   4.273   3.531
22128W        W93657  40.385   6.933  14.060
22129W        W93658  25.651  28.012   4.621
22130W        W93659  44.748  27.087  11.704
22131W        W93660  15.509  31.011  12.472
22132W        W93661  11.306  33.193  14.730
22133W        W93662   5.823  18.591   1.654
22134W        W93663  36.373  24.297   0.045
22135W        W93664  34.544  13.921  12.457
22136W        W93665  14.224  11.267  14.657
22137W        W93666  26.673  27.491   3.679
22138W        W93667  34.879  36.009  11.960
22139W        W93668   2.501  30.982  14.035
22140W        W93669  27.783   4.781  10.649
22141W        W93670  10.874  35.878  12.686
22142W        W93671   1.320  28.030   2.900
22143W        W93672  17.360   5.858  11.624
22144W        W93673   0.011   4.167  11.581
22145W        W93674   1.247  36.724  11.613
22146W        W93675  39.980   3.993  14.936
22147W        W93676   5.424   4.218  11.914
22148W        W93677  11.917   7.598  14.187
22149W        W93678   0.292  40.532  14.173
22150W        W93679   0.439  26.277  12.366
22151W        W93680   6.116   5.966   2.860
22152W        W93681   7.424  31.048  14.001
22153W        W93682  15.374  31.473   4.600
22154W        W93683  17.628   9.136  11.542
22155W        W93684  44.529  10.997  13.281
22156W        W93685  39.308  23.004   0.451
22157W        W93686  34.609  40.975   2.050
22158W        W93687  29.619  22.881  11.179
22159W        W93688  41.387  35.850   2.504
22160W        W93689   9.637  10.786  10.567
22161W        W93690   0.284   5.939   2.846
22162W        W93691  34.571  17.336  14.478
22163W        W93692  42.884  35.862  14.466
22164W        W93693  27.499  16.107  14.507
22165W        W93694  33.897  37.132   3.729
22166W        W93695  40.365  35.845   1.328
22167W        W93696  27.004  37.848   0.980
22168W        W93697  14.994  22.204  11.245
22169W        W93698   0.025  39.536  10.667
22170W        W93699  31.296  39.977   1.321
22171W        W93700  22.997   1.792  13.812
22172W        W93701   6.949  27.439  12.441
22173W        W93702   0.037   8.772  12.433
22174W        W93703  22.093  17.297   1.805
22175W        W93704  34.048  27.665   3.262
22176W        W93705   3.910  38.412  13.778
22177W        W93706   2.901  38.013  12.829
22178W        W93707  12.369   1.511   0.333
22179W        W93708  16.615  29.044   3.036
22180W        W93709  19.123  37.874   3.166
22181W        W93710   6.032  36.923   0.085
22182W        W93711  12.332  29.896  10.829
22183W        W93712   1.197   7.847   0.899
22184W        W93713   5.352  14.149  12.027
22185W        W93714  25.613  40.868  13.239
22186W        W93715  26.421  33.090   0.367
22187W        W93716  28.200  34.150  13.856
22188W        W93717  39.754   7.407  13.105
22189W        W93718   5.319  41.904  11.512
22190W        W93719  38.064  39.146   3.793
22191W        W93720  19.318  28.539  11.878
22192W        W93721   1.652  23.578  14.218
22193W        W93722  12.204  21.807  11.135
22194W        W93723  11.712   0.332  14.807
22195W        W93724  18.719  23.808  12.981
22196W        W93725  22.594  33.444   2.380
22197W        W93726   1.799  41.455   2.263
22198W        W93727   9.078  28.413   3.551
22199W        W93728  18.628  10.623   0.264
22200W        W93729   7.392   2.872   1.995
22201W        W93730  40.184   8.279  13.900
22202W        W93731   2.946  44.344   3.886
22203W        W93732  44.006  38.679   0.793
22204W        W93733  34.036  18.578  11.171
22205W        W93734  30.502   0.984   2.172
22206W        W93735   8.214   7.650   2.790
22207W        W93736  31.864  13.743   5.527
22208W        W93737  43.500  11.269  11.233
22209W        W93738   9.365   5.725  10.350
22210W        W93739  39.475  44.319   1.434
22211W        W93740  26.014  17.755  13.375
22212W        W93741  30.485  33.590  11.455
22213W        W93742  17.765   8.174  11.271
22214W        W93743   6.820  18.741   0.451
22215W        W93744   9.931  15.196   0.399
22216W        W93745   0.646  17.068   2.367
22217W        W93746  29.152  12.148  13.326
22218W        W93747   4.297  13.100  13.141
22219W        W93748  15.632  20.467   2.878
22220W        W93749  27.070  38.225   3.312
22221W        W93750  42.078   7.404   2.074
22222W        W93751   6.442   2.394   4.260
22223W        W93752  35.546  23.227   2.671
22224W        W93753  22.284  13.692  14.927
22225W        W93754  11.698  34.499  11.480
22226W        W93755   0.421  43.016   3.634
22227W        W93756  23.870  43.421  12.102
22228W        W93757  16.554   1.001   2.847
22229W        W93758  33.372  34.416  12.157
22230W        W93759   0.925  36.929   2.853
22231W        W93760  34.823   0.970   1.404
22232W        W93761  25.175  25.623  12.094
22233W        W93762  16.226  43.924   2.756
22234W        W93763   7.780  44.445   3.275
22235W        W93764  17.733   1.943  12.937
22236W        W93765  26.558  41.097   4.440
22237W        W93766   3.227  13.709   3.323
22238W        W93767  29.878  24.704  10.776
22239W        W93768  42.552  32.650   0.392
22240W        W93769   0.243  38.325  13.249
22241W        W93770  20.089  39.804   1.282
22242W        W93771  29.961  11.019  10.884
22243W        W93772  38.617  23.921   2.419
22244W        W93773  11.887  37.477  13.390
22245W        W93774   3.309  34.902   0.493
22246W        W93775   6.377   4.982  11.993
22247W        W93776   5.177  12.255   2.213
22248W        W93777  25.681  11.247  10.544
22249W        W93778  34.452  21.273   2.169
22250W        W93779  18.318  22.253  10.274
22251W        W93780  20.591  33.211  13.714
22252W        W93781  30.117  37.072   4.634
22253W        W93782   0.202  26.743  11.100
22254W        W93783  12.335   9.130   0.219
22255W        W93784   8.489  20.184  14.232
22256W        W93785   2.994  16.491  13.372
22257W        W93786  36.953   4.372   2.825
22258W        W93787   6.954  28.696   2.393
22259W        W93788   5.215  38.990  10.733
22260W        W93789  31.172   0.474  14.303
22261W        W93790  31.229  33.006   4.047
22262W        W93791  26.609  42.078   3.615
22263W        W93792  27.551  39.397   4.495
22264W        W93793  22.719  41.011   0.885
22265W        W93794  21.284  32.884   0.373
22266W        W93795   9.416  38.074   0.035
22267W        W93796   9.434  44.701   3.799
22268W        W93797  21.216  12.360   0.941
22269W        W93798  30.032  18.635  14.535
22270W        W93799  28.401  13.409  11.024
22271W        W93800   1.995  35.622   1.618
22272W        W93801  35.968   6.510   3.063
22273W        W93802  44.878  14.714  10.442
22274W        W93803  26.855  27.971   1.212
22275W        W93804   3.577   6.366  11.213
22276W        W93805   2.480  21.975   0.286
22277W        W93806   5.480  40.507  10.390
22278W        W93807  43.315  30.382   1.044
22279W        W93808   5.479  34.100  13.969
22280W        W93809  20.064  21.295  10.381
22281W        W93810  36.197  16.107   0.782
22282W        W93811  11.283  23.052  10.716
22283W        W93812  21.172   1.847  14.063
22284W        W93813  20.381  19.394   3.787
22285W        W93814   3.008  15.098  14.102
22286W        W93815  33.701  35.909  14.583
22287W        W93816   7.813  35.972  12.543
22288W        W93817  29.749  37.579   2.337
22289W        W93818  13.252  10.607  13.713
22290W        W93819  32.828  27.439   3.289
22291W        W93820  34.294  28.924   1.796
22292W        W93821  44.696  25.094  10.620
22293W        W93822   0.652   4.174   3.646
22294W        W93823  34.798  22.347  11.910
22295W        W93824  25.729   4.481   4.188
22296W        W93825   9.102  19.944   5.022
22297W        W93826  35.098  32.042   2.737
22298W        W93827   5.898  19.131  12.327
22299W        W93828  24.907  19.211  12.025
22300W        W93829  25.968   8.079   0.472
22301W        W93830  40.810   1.577   2.624
22302W        W93831  13.791  18.119  14.375
22303W        W93832  35.606  16.852   0.442
22304W        W93833  15.785  15.922   0.808
22305W        W93834  30.151  25.170   1.609
22306W        W93835  14.214  13.726  12.589
22307W        W93836   5.754  20.973  14.064
22308W        W93837  24.475  23.993   1.325
22309W        W93838  25.389   8.391  11.710
22310W        W93839  26.198  28.471   1.835
22311W        W93840  30.234  14.647  14.039
22312W        W93841  17.591  16.306  12.918
22313W        W93842  22.637  31.481  10.185
22314W        W93843   6.232  36.980   1.884
22315W        W93844  29.095  36.019  10.283
22316W        W93845  42.451  23.553  10.913
22317W        W93846  43.735  36.024  13.061
22318W        W93847  13.050  41.928   0.872
22319W        W93848  15.849  32.597   0.535
22320W        W93849  25.470  41.838   2.683
22321W        W93850  17.327   2.880   3.670
22322W        W93851  12.182  18.481  13.516
22323W        W93852  34.355   1.915   0.406
22324W        W93853  19.516  34.585  11.748
22325W        W93854  30.476  20.195  14.147
22326W        W93855  41.513  23.564  14.345
22327W        W93856  18.199   3.982  12.494
22328W        W93857   3.016  31.322  13.293
22329W        W93858  29.530  13.318   3.193
22330W        W93859   3.489  28.366   0.934
22331W        W93860  37.124  31.416  13.022
22332W        W93861  35.631  20.708   3.846
22333W        W93862  38.325  27.212  14.291
22334W        W93863  30.141  11.887  14.701
22335W        W93864  40.594  22.714  11.967
22336W        W93865  38.509  21.031  10.208
22337W        W93866  43.917   7.029   1.921
22338W        W93867  18.326  33.374  12.483
22339W        W93868  17.663   1.667  14.844
22340W        W93869  15.080  34.435   3.762
22341W        W93870  15.209   7.837  10.679
22342W        W93871  13.259  34.104  12.378
22343W        W93872   8.221  40.551  10.642
22344W        W93873   7.376  38.342  12.499
22345W        W93874  39.527  25.112  12.191
22346W        W93875  24.437   9.967   1.253
22347W        W93876  15.542  29.286  12.034
22348W        W93877  42.875  21.249   0.886
22349W        W93878  29.686  18.136   0.712
22350W        W93879  32.898  10.656  13.518
22351W        W93880  20.655  32.615  13.020
22352W        W93881  37.568  26.808  12.424
22353W        W93882  19.251  38.825  14.952
22354W        W93883  28.672   2.982  12.925
22355W        W93884  25.514   8.597   1.721
22356W        W93885  42.357  12.909  10.941
22357W        W93886  42.276  37.629   2.810
22358W        W93887  17.646  35.520  14.379
22359W        W93888   0.623   4.713   0.256
22360W        W93889  14.292  33.665   4.463
22361W        W93890  17.108  10.235  13.851
22362W        W93891  36.971  42.459   2.885
22363W        W93892   0.278   8.513   4.630
22364W        W93893  41.076  19.080   3.768
22365W        W93894  28.826  24.198  11.138
22366W        W93895   3.156  20.070   3.967
22367W        W93896  20.346  29.206  13.056
22368W        W93897  35.228  11.933  14.556
22369W        W93898  24.271  27.658  12.020
22370W        W93899   9.653  23.212   2.013
22371W        W93900   5.265  34.076   2.944
22372W        W93901  31.579  34.098   2.775
22373W        W93902   8.341  29.211  12.972
22374W        W93903  36.488   0.711   4.244
22375W        W93904  30.234  10.118  14.457
22376W        W93905  10.296  25.449  13.993
22377W        W93906   9.327   0.976   3.261
22378W        W93907  20.785  39.438  10.794
22379W        W93908  10.667  26.032   1.301
22380W        W93909   0.512  39.360  11.879
22381W        W93910  18.040  41.364   4.602
22382W        W93911   2.805  30.774  12.070
22383W        W93912  37.568  20.325  11.603
22384W        W93913  40.611  29.221   1.428
22385W        W93914  33.229   6.940  14.186
22386W        W93915  44.389   5.670   3.224
22387W        W93916  32.432  44.134  13.982
22388W        W93917  16.631   1.698   0.828
22389W        W93918   8.682  31.868   1.949
22390W        W93919  28.744  37.092   0.739
22391W        W93920  39.018  16.572  11.535
22392W        W93921  16.813   9.428  11.035
22393W        W93922  39.264  14.763   4.091
22394W        W93923  42.173  39.286  13.974
22395W        W93924   4.701   5.279  12.316
22396W        W93925   6.277   4.397  14.326
22397W        W93926   4.208  22.104   0.914
22398W        W93927  39.116  35.792   2.356
22399W        W93928   5.880  33.710   3.866
22400W        W93929  12.848  28.052   3.638
22401W        W93930  30.406  15.568  13.507
22402W        W93931  29.920   7.610  12.998
22403W        W93932  27.300  13.818  13.327
22404W        W93933  12.771   0.891   5.023
22405W        W93934  36.467   9.178   1.376
22406W        W93935  17.249   5.157   1.794
22407W        W93936  32.514  13.777   3.411
22408W        W93937  42.106   2.716   2.942
22409W        W93938  26.592  12.208  13.015
22410W        W93939  18.780  29.491   0.286
22411W        W93940  18.390  36.525  11.847
22412W        W93941  18.771  29.942  12.576
22413W        W93942  16.100  23.570   4.949
22414W        W93943  33.515  34.459   3.017
22415W        W93944  18.239  34.896   1.554
22416W        W93945  17.267  24.283   0.915
22417W        W93946  15.190  15.753  12.816
22418W        W93947  18.566  14.119  13.166
22419W        W93948   2.304  44.968   3.605
22420W        W93949  38.252  35.050   3.273
22421W        W93950  22.926  27.501   4.214
22422W        W93951  42.863  39.058   0.866
22423W        W93952  40.844  44.756   0.102
22424W        W93953  15.582  12.338  13.066
22425W        W93954  22.011  14.945  11.744
22426W        W93955  26.764  21.023  10.937
22427W        W93956  30.565  36.385   1.298
22428W        W93957  30.079  36.458  14.380
22429W        W93958  23.638  38.777   3.387
22430W        W93959  12.169  31.988   4.639
22431W        W93960  26.555  42.500   0.667
22432W        W93961  24.051   3.430   5.233
22433W        W93962   5.186   5.811   4.377
22434W        W93963   9.717  15.548   0.063
22435W        W93964  41.890  13.602  13.216
22436W        W93965  34.736  39.262  12.232
22437W        W93966  16.632  42.310   3.852
22438W        W93967   3.445  27.604   2.675
22439W        W93968  21.833  42.205   1.865
22440W        W93969  33.869   0.947   3.289
22441W        W93970   8.567  37.496   2.926
22442W        W93971   0.010  34.633   4.127
22443W        W93972  31.881  33.737   0.605
22444W        W93973   1.786  43.903   3.494
22445W        W93974  43.471   6.352  14.120
22446W        W93975  24.720  10.676  12.340
22447W        W93976  33.564  10.112  13.477
22448W        W93977   8.140  21.220   0.867
22449W        W93978  42.286  39.044  12.066
22450W        W93979  44.551   2.142   0.022
22451W        W93980  13.652  26.085  10.717
22452W        W93981  27.637  13.137   0.540
22453W        W93982  44.268   3.692   3.413
22454W        W93983   9.083  36.051   1.215
22455W        W93984  31.629  24.725   1.727
22456W        W93985  28.719  32.018   4.466
22457W        W93986  43.716  16.696   2.482
22458W        W93987  10.280   1.467   0.444
22459W        W93988  42.730  10.202  12.468
22460W        W93989  24.936  16.576  10.511
22461W        W93990  28.110  21.792  13.949
22462W        W93991  15.299  36.072   4.759
22463W        W93992   1.996  16.676   2.747
22464W        W93993  43.898  40.842   1.329
22465W        W93994  32.955   1.012  12.837
22466W        W93995  37.666  23.022   3.563
22467W        W93996  12.840  22.373  11.009
22468W        W93997  20.278   6.827   4.501
22469W        W93998  21.266  18.243   1.426
22470W        W93999  32.434  28.142  14.567
22471W        W94000  27.014  25.508  10.818
22472W        W94001   7.311   6.353   1.881
22473W        W94002   7.954  42.829  13.052
22474W        W94003   8.218  11.946  13.582
22475W        W94004  26.234  20.525   1.727
22476W        W94005  17.190  33.423   1.418
22477W        W94006  21.672  29.144   1.269
22478W        W94007   8.206   0.555  14.993
22479W        W94008  20.168  16.073   0.018
22480W        W94009  24.552   5.974  10.672
22481W        W94010   3.758  39.482  14.723
22482W        W94011  17.103  19.034   2.935
22483W        W94012  29.503  14.298  11.976
22484W        W94013  13.392  23.108   0.874
22485W        W94014  10.734  12.933   2.830
22486W        W94015  21.024  29.580   1.252
22487W        W94016   8.093  12.151  11.591
22488W        W94017  28.376   3.094  11.677
22489W        W94018  10.478  42.582  12.469
22490W        W94019  39.451  32.101  11.218
22491W        W94020   4.330  41.555  14.846
22492W        W94021  36.018   3.333   0.919
22493W        W94022   2.486  43.766   4.229
22494W        W94023  29.478  28.705   3.110
22495W        W94024  38.004  39.376   1.811
22496W        W94025   8.618  43.555   2.921
22497W        W94026  20.782  15.148   2.942
22498W        W94027  44.254  19.151   3.133
22499W        W94028  15.131   4.198   4.298
22500W        W94029  39.254  12.714   3.700
22501W        W94030   1.480  42.930   1.145
22502W        W94031  26.034  42.979   4.883
22503W        W94032  32.407  38.740  10.555
22504W        W94033  35.119   5.629  13.021
22505W        W94034  29.808   4.839   1.618
22506W        W94035  28.369  34.966  10.857
22507W        W94036  20.871  30.106  14.512
22508W        W94037  31.670  27.957  13.325
22509W        W94038  20.913  16.211  12.385
22510W        W94039   8.264  14.783   3.185
22511W        W94040  24.563  15.912   3.916
22512W        W94041   5.470  21.326  13.831
22513W        W94042  16.613  35.617   0.373
22514W        W94043  16.252  31.734   1.989
22515W        W94044  21.299  17.157  13.895
22516W        W94045   5.165  17.565  13.369
22517W        W94046   8.362  37.308  14.148
22518W        W94047  24.513   8.863   1.843
22519W        W94048   9.222  27.279   4.498
22520W        W94049  10.369  23.780  13.436
22521W        W94050  32.487  11.982  11.649
22522W        W94051   1.293  24.623  12.065
22523W        W94052   7.276  22.817  13.477
22524W        W94053  25.430   4.393   1.876
22525W        W94054  42.750   4.467  10.750
22526W        W94055  21.158  25.116  11.900
22527W        W94056   8.301  21.727   2.842
22528W        W94057  13.917   2.362  10.651
22529W        W94058  30.563  11.699   3.911
22530W        W94059  42.016  36.660   2.568
22531W        W94060   6.352   3.747   4.815
22532W        W94061  22.407   6.221  13.377
22533W        W94062   4.721  44.706  13.557
22534W        W94063  22.295  42.965  10.475
22535W        W94064  31.536  36.822   3.390
22536W        W94065   5.761  44.823  12.930
22537W        W94066   6.315  24.481   3.041
22538W        W94067  43.009  24.393  10.966
22539W        W94068  35.810   0.039   0.392
22540W        W94069  23.932   4.875   4.479
22541W        W94070  39.943  28.675  14.897
22542W        W94071  26.963  11.186  11.582
22543W        W94072  39.732   1.364   0.129
22544W        W94073  13.052  34.103  10.555
22545W        W94074  44.430  16.880  12.342
22546W        W94075  25.195  29.549   1.933
22547W        W94076  29.212  23.136  11.003
22548W        W94077   4.270  19.554  11.460
22549W        W94078  23.001  43.431   2.195
22550W        W94079  43.883  26.727   1.763
22551W        W94080   6.567  20.128   3.943
22552W        W94081   8.356  20.585  11.646
22553W        W94082  19.011  29.202  11.509
22554W        W94083  16.579  11.403  13.527
22555W        W94084  38.953  23.376   4.144
22556W        W94085  29.581   1.411  13.590
22557W        W94086   9.358   1.473   1.793
22558W        W94087   1.837  27.079   2.354
22559W        W94088   8.747  30.362  12.114
22560W        W94089   1.290  31.609   0.979
22561W        W94090  38.461  10.745   0.485
22562W        W94091  28.716  43.649  12.423
22563W        W94092  23.534  23.595  13.275
22564W        W94093  21.728  19.330  14.059
22565W        W94094  33.904  27.337  14.307
22566W        W94095  10.247  19.047  12.966
22567W        W94096  19.905  19.700  13.724
22568W        W94097  42.826   4.242   3.210
22569W        W94098  28.070  31.131  13.976
22570W        W94099  22.616   1.740   1.311
22571W        W94100  44.766  19.328   2.800
22572W        W94101  35.285   5.837   0.189
22573W        W94102  34.076   7.442   0.969
22574W        W94103  10.989  37.305  10.391
22575W        W94104  14.755  14.875   2.316
22576W        W94105  44.315  43.978   3.724
22577W        W94106  36.920  10.404   1.391
22578W        W94107   6.645  31.338  11.517
22579W        W94108  29.530  39.335   1.664
22580W        W94109  25.720  18.687  14.580
22581W        W94110  38.050   0.516   1.986
22582W        W94111  18.322  31.083   3.766
22583W        W94112  19.171  37.316  10.990
22584W        W94113  13.842  34.559  13.332
22585W        W94114  13.626   8.419  12.468
22586W        W94115   9.383   5.888  13.745
22587W        W94116  26.172  13.552  11.681
22588W        W94117  21.806  37.775   5.021
22589W        W94118  39.046   5.930  14.783
22590W        W94119  33.354  42.789  14.538
22591W        W94120   1.666  20.207   3.160
22592W        W94121  12.095  42.360   0.046
22593W        W94122  18.115  20.183   1.809
22594W        W94123  40.980  41.442  12.788
22595W        W94124  21.719  35.714  13.274
22596W        W94125   6.221   4.674   3.215
22597W        W94126  32.033  43.941   0.742
22598W        W94127  10.659  26.196  14.217
22599W        W94128  20.069   9.609   4.099
22600W        W94129  29.641  25.158  11.594
22601W        W94130  31.396  39.558  11.160
22602W        W94131  12.773  32.215   1.416
22603W        W94132  44.763  36.617   4.531
22604W        W94133  10.789  15.862   2.793
22605W        W94134  11.428  44.329   1.434
22606W        W94135   6.833  41.396  12.977
22607W        W94136  11.860  11.180  11.912
22608W        W94137  14.794  11.750  13.578
22609W        W94138  23.852  24.421   4.226
22610W        W94139  16.743  23.799   1.841
22611W        W94140  18.323  11.991   2.769
22612W        W94141  26.104  14.270  13.444
22613W        W94142  34.290   9.807  12.476
22614W        W94143  27.939  10.040   3.584
22615W        W94144  21.726  38.498   3.388
22616W        W94145   6.859  41.323  14.742
22617W        W94146  34.421  19.307   1.819
22618W        W94147  29.809  30.407   2.910
22619W        W94148  29.042   9.401  11.887
22620W        W94149  28.032  26.710   3.516
22621W        W94150  41.646   8.404  14.863
22622W        W94151   7.916   5.953  12.621
22623W        W94152  22.463  22.240  14.341
22624W        W94153  37.410  44.463   2.284
22625W        W94154   8.453   1.007  14.060
22626W        W94155  17.695  43.626   2.438
22627W        W94156  26.567  26.967   3.646
22628W        W94157  41.758  16.301   2.881
22629W        W94158  17.341   6.758   0.696
22630W        W94159  19.658  21.856  11.663
22631W        W94160  41.513   3.197  12.093
22632W        W94161  22.742  35.331  11.588
22633W        W94162  24.560  30.727   0.738
22634W        W94163  30.015  10.907   0.355
22635W        W94164  28.436  24.949   4.436
22636W        W94165  40.141  29.170   3.747
22637W        W94166  28.119   1.790   9.972
22638W        W94167  26.150  43.325   4.071
22639W        W94168  34.050  35.666  13.796
22640W        W94169  28.184  24.471   2.633
22641W        W94170  39.653  30.405   1.453
22642W        W94171  44.993  40.887   3.977
22643W        W94172  28.609  13.094   0.532
22644W        W94173  30.950  21.426  14.552
22645W        W94174   1.963  43.962   2.970
22646W        W94175  31.972  26.457  12.157
22647W        W94176  42.613  25.978  13.249
22648W        W94177  35.573   6.312   2.129
22649W        W94178  33.999  37.110  11.049
22650W        W94179  21.237  16.606   4.536
22651W        W94180  17.047  18.354  10.776
22652W        W94181  43.093   4.806   0.234
22653W        W94182  41.941  35.615   4.571
22654W        W94183  34.827  43.916   0.043
22655W        W94184  10.925   6.318  10.609
22656W        W94185  25.149  16.592   3.449
22657W        W94186  39.791  14.624   4.087
22658W        W94187   3.421  11.443  14.904
22659W        W94188  16.716  23.079  12.199
22660W        W94189   2.425  36.857  12.744
22661W        W94190   6.069  16.725   0.864
22662W        W94191   7.873  17.449   5.001
22663W        W94192  12.573   3.718  10.864
22664W        W94193  14.335   7.180   4.326
22665W        W94194  43.337  13.574  13.617
22666W        W94195  12.753  42.949  13.864
22667W        W94196   7.194  26.518  12.401
22668W        W94197  14.718  31.486   3.155
22669W        W94198   8.988  40.082  10.319
22670W        W94199  21.745  35.447   3.841
22671W        W94200  11.874  12.967  12.611
22672W        W94201  12.580  32.043  12.529
22673W        W94202  40.316  24.536  10.667
22674W        W94203  33.267  36.586  11.760
22675W        W94204  20.152  22.104   1.154
22676W        W94205  16.288  42.316   0.949
22677W        W94206   2.270   7.302  14.705
22678W        W94207   8.769   2.222  14.498
22679W        W94208  28.494  33.468   4.292
22680W        W94209  21.301  39.111   3.701
22681W        W94210  34.496   9.302   3.697
22682W        W94211  37.268  36.399   4.144
22683W        W94212  43.952  25.489  14.868
22684W        W94213  37.230   9.213  10.703
22685W        W94214  19.333  20.931  14.089
22686W        W94215  39.270  18.106   0.242
22687W        W94216  43.456  13.128   0.306
22688W        W94217  44.696  11.246   0.895
22689W        W94218   7.915  37.864   4.684
22690W        W94219  34.042   1.720  10.987
22691W        W94220  22.748  44.537   4.501
22692W        W94221  28.705  17.398  10.620
22693W        W94222   1.793   9.848  10.893
22694W        W94223   9.286  12.228  13.494
22695W        W94224  12.339  40.111  12.181
22696W        W94225  20.281  41.459   0.034
22697W        W94226  38.154  25.656  14.873
22698W        W94227   3.283  34.025  11.379
22699W        W94228  10.411  35.127  11.286
22700W        W94229  12.795  38.272  11.313
22701W        W94230  25.623  36.532   2.394
22702W        W94231  26.715  12.290   4.428
22703W        W94232  27.025  41.020  14.379
22704W        W94233  21.335  28.784  13.640
22705W        W94234  13.611   4.389  11.451
22706W        W94235  19.201  23.255   2.723
22707W        W94236  31.618  15.381  13.976
22708W        W94237  28.978  29.492   4.106
22709W        W94238   2.518  23.622   4.507
22710W        W94239  24.195   7.890   1.866
22711W        W94240   0.273   0.456   5.036
22712W        W94241  42.975  28.009  14.318
22713W        W94242  44.040  26.147  14.390
22714W        W94243   9.714  29.797   4.341
22715W        W94244   3.742  22.588   1.290
22716W        W94245  35.997  37.697  12.776
22717W        W94246  26.464  20.202  13.574
22718W        W94247   7.711  37.553   2.428
22719W        W94248  20.556  24.033  13.132
22720W        W94249  15.821   7.152   2.278
22721W        W94250  42.242  21.783  12.620
22722W        W94251   9.432  35.296  14.474
22723W        W94252  41.663  36.381  14.921
22724W        W94253  40.981  41.453  13.318
22725W        W94254   3.715  37.344  13.281
22726W        W94255  24.637  40.844  11.035
22727W        W94256  28.523  31.804   1.265
22728W        W94257   9.346  27.077  11.851
22729W        W94258  18.064   6.871  13.575
22730W        W94259   1.270  38.612   3.165
22731W        W94260  30.243  34.987  12.919
22732W        W94261  27.388  11.667   2.223
22733W        W94262  34.838  27.966  12.608
22734W        W94263  20.067  35.349  11.757
22735W        W94264   0.410  13.202  10.953
22736W        W94265  15.697  31.634  11.811
22737W        W94266   8.793  40.433   1.411
22738W        W94267  18.234  16.182   1.775
22739W        W94268  12.653  44.915   4.437
22740W        W94269  38.966   1.624   2.742
22741W        W94270  10.589  17.966   3.325
22742W        W94271  24.168  29.199   1.633
22743W        W94272  13.777  30.102  12.484
22744W        W94273  44.804  34.665   1.231
22745W        W94274  30.079  30.401   0.965
22746W        W94275  40.983  10.761   3.190
22747W        W94276  38.920  14.266   1.446
22748W        W94277  27.579   9.703   3.321
22749W        W94278  32.628  24.174   2.337
22750W        W94279  34.320  24.171  11.215
22751W        W94280  30.454  16.787   1.425
22752W        W94281  33.587  40.763  12.568
22753W        W94282  18.988  35.815  11.974
22754W        W94283  33.052   8.628   1.244
22755W        W94284   5.317  28.893   2.597
22756W        W94285  38.404   0.591  12.388
22757W        W94286  37.229  32.175  13.753
22758W        W94287   6.497   6.223  11.197
22759W        W94288  43.401  37.969  11.157
22760W        W94289  14.977  22.189   0.686
22761W        W94290  38.895   5.738   3.345
22762W        W94291   3.490  12.091  11.588
22763W        W94292  40.953   9.452   2.720
22764W        W94293  16.809   2.333  12.108
22765W        W94294  42.317  34.929  12.499
22766W        W94295   1.350  38.830  13.822
22767W        W94296  19.852  33.122  14.822
22768W        W94297   3.897  21.924  14.470
22769W        W94298   0.962  18.958  10.931
22770W        W94299   0.559   3.229  11.135
22771W        W94300  29.200  44.784   0.330
22772W        W94301  37.671   3.254   1.383
22773W        W94302   2.291  16.061   4.470
22774W        W94303   6.202  32.564  11.617
22775W        W94304   2.449   4.979  14.245
22776W        W94305  21.229   5.971  12.089
22777W        W94306   7.112   3.977  14.242
22778W        W94307  24.442  32.433  11.604
22779W        W94308  20.202  20.284  12.799
22780W        W94309  23.535  37.943  12.929
22781W        W94310  38.995  15.232   0.990
22782W        W94311  36.860  20.066  13.437
22783W        W94312  23.201  11.173   0.895
22784W        W94313   9.392  27.180   3.513
22785W        W94314  18.835   8.498   3.175
22786W        W94315  39.487  18.273   3.116
22787W        W94316  13.887  17.253   4.216
22788W        W94317  38.336  34.851  12.760
22789W        W94318  26.088  11.846   3.875
22790W        W94319  41.265  16.452   3.708
22791W        W94320  39.994  13.548   2.803
22792W        W94321  14.916   3.811   3.261
22793W        W94322   2.524  15.930  13.842
22794W        W94323   2.311  30.405  12.405
22795W        W94324  11.194  37.962  14.133
22796W        W94325  27.206   2.130  11.296
22797W        W94326  31.622  33.435   1.911
22798W        W94327  22.127  31.130   0.098
22799W        W94328  20.178   6.884   2.583
22800W        W94329  26.484   9.899   2.342
22801W        W94330   2.964  24.891  14.421
22802W        W94331  35.644  42.437   2.774
22803W        W94332  15.254  36.036   3.805
22804W        W94333  40.443  40.289   9.843
22805W        W94334   6.265   9.341   3.822
22806W        W94335  34.505  43.387  13.403
22807W        W94336   5.713  23.311   1.089
22808W        W94337   8.829  21.541  10.949
22809W        W94338   2.003  38.173   2.174
22810W        W94339   0.394   4.923  10.543
22811W        W94340   1.310  17.040  14.324
22812W        W94341  23.675  35.086   1.605
22813W        W94342  39.368  34.372  14.045
22814W        W94343  30.419  20.546  11.842
22815W        W94344   0.952  29.865   4.458
22816W        W94345  28.039  31.159   0.434
22817W        W94346  37.271  35.009   4.170
22818W        W94347  20.499  33.881   0.650
22819W        W94348  29.143  14.230   1.937
22820W        W94349  40.655  19.267  10.996
22821W        W94350  32.986  11.238   1.615
22822W        W94351  14.891  39.488   3.611
22823W        W94352  17.655   6.981  12.535
22824W        W94353  42.802  13.653   1.823
22825W        W94354  19.983  18.119   2.175
22826W        W94355  12.096   0.129   3.215
22827W        W94356  18.391  38.874  10.715
22828W        W94357  28.608   4.447   3.870
22829W        W94358  21.764   3.260   0.952
22830W        W94359  21.232  34.104  11.859
22831W        W94360   1.298  25.672  13.841
22832W        W94361  11.702   0.016  12.257
22833W        W94362  13.904  34.880   1.812
22834W        W94363  22.630   2.763   3.799
22835W        W94364  24.442  22.985   4.385
22836W        W94365  23.730  22.746  13.749
22837W        W94366  20.943  28.614  11.196
22838W        W94367  38.719  39.685  11.420
22839W        W94368  14.801  27.906   4.137
22840W        W94369  36.065   7.789   1.403
22841W        W94370  23.496   6.830   4.139
22842W        W94371  34.693  21.155  11.420
22843W        W94372   2.292  33.501   1.945
22844W        W94373   9.568   2.060  13.505
22845W        W94374  27.048   1.484  12.584
22846W        W94375  31.406   3.224   1.297
22847W        W94376   5.529   2.953  11.439
22848W        W94377  21.697  20.778   3.168
22849W        W94378   5.536  34.440   2.723
22850W        W94379  21.216  41.863  10.614
22851W        W94380  21.809  43.330   0.561
22852W        W94381  38.354  10.649   2.226
22853W        W94382  32.986  39.285   3.847
22854W        W94383  31.404  35.791  13.483
22855W        W94384   6.745  18.367  12.088
22856W        W94385  27.696   7.394   3.231
22857W        W94386  27.925  25.260   2.337
22858W        W94387  10.356  18.636   0.504
22859W        W94388  32.734  22.208  13.343
22860W        W94389   8.870  10.900  11.554
22861W        W94390  10.828  38.430  13.656
22862W        W94391  14.172  43.320  14.475
22863W        W94392  29.834   2.214   1.139
22864W        W94393  31.416   0.357   0.774
22865W        W94394   9.215  23.315   2.305
22866W        W94395  31.930  41.262  11.634
22867W        W94396  21.710  19.187  12.847
22868W        W94397  43.586  34.984  14.871
22869W        W94398  38.929  36.984   2.739
22870W        W94399   7.392  27.578  13.030
22871W        W94400  22.805  32.628   1.017
22872W        W94401  18.084  44.127   0.050
22873W        W94402  32.424  37.062  12.781
22874W        W94403  26.591   0.918   0.439
22875W        W94404   9.171  34.343   4.447
22876W        W94405  13.228  29.876   1.328
22877W        W94406  33.624  27.583   9.930
22878W        W94407  41.969  29.472   1.241
22879W        W94408  31.001  43.516  14.005
22880W        W94409  31.078  25.802  12.924
22881W        W94410  37.884  32.229   4.225
22882W        W94411  38.655  17.144   4.315
22883W        W94412   3.332  10.915  12.582
22884W        W94413  13.736  26.239  13.910
22885W        W94414  43.775   3.311  10.728
22886W        W94415  40.282  13.291   3.840
22887W        W94416   7.318  34.249   3.573
22888W        W94417  43.811   1.295  11.550
22889W        W94418   9.790  13.091  13.333
22890W        W94419  22.266  30.663  14.967
22891W        W94420  31.900  23.266  14.864
22892W        W94421   4.728  13.269  11.971
22893W        W94422   9.176  33.363   4.036
22894W        W94423  25.013  13.749  13.902
22895W        W94424  22.768   6.911  10.516
22896W        W94425  30.527  37.061  12.963
22897W        W94426   9.271  34.706   2.576
22898W        W94427  10.192   4.868  12.317
22899W        W94428  34.396  14.354   2.678
22900W        W94429  26.481  10.817   0.717
22901W        W94430  23.719  40.087   0.732
22902W        W94431   6.392  16.422  10.605
22903W        W94432  28.037   1.949   4.182
22904W        W94433  10.304  41.934   5.044
22905W        W94434   9.923  12.522   1.303
22906W        W94435  24.720  13.323  11.555
22907W        W94436   2.405  11.161  11.344
22908W        W94437  17.775   8.416  13.029
22909W        W94438   6.109   5.166   0.742
22910W        W94439  38.394  41.087  11.187
22911W        W94440  41.343  40.653  11.788
22912W        W94441  13.281  32.947  13.969
22913W        W94442  17.093  32.896  11.252
22914W        W94443   3.186   7.884  11.593
22915W        W94444  41.833   4.813   9.858
22916W        W94445  25.893  33.991  11.162
22917W        W94446  16.986  22.370  11.216
22918W        W94447  40.379  28.872  12.872
22919W        W94448  10.811   5.220   0.426
22920W        W94449   6.963   1.064   1.233
22921W        W94450   5.260  23.074   1.157
22922W        W94451  13.182  42.494   4.345
22923W        W94452  44.708  34.992   3.402
22924W        W94453  35.511  17.046  13.508
22925W        W94454  40.378  28.876   1.792
22926W        W94455  41.884  33.499  12.331
22927W        W94456  24.004  22.701   3.249
22928W        W94457  20.560  44.355  13.421
22929W        W94458  31.147  18.092  13.820
22930W        W94459   9.150  10.797   2.619
22931W        W94460  30.107  11.272  11.581
22932W        W94461  30.430  34.075  14.793
22933W        W94462  39.075  43.549  12.958
22934W        W94463  32.294  43.837   3.162
22935W        W94464  10.574  25.666  11.241
22936W        W94465  19.035  19.200   0.750
22937W        W94466  34.474  20.657   2.837
22938W        W94467  31.636  17.266   0.308
22939W        W94468   9.477  12.127  13.969
22940W        W94469  18.441  10.132   2.647
22941W        W94470  14.307  33.027  10.975
22942W        W94471   4.204  36.515  11.075
22943W        W94472  27.252   0.519   0.609
22944W        W94473  44.097   9.315  13.975
22945W        W94474  29.598  27.658  13.922
22946W        W94475   1.440  40.665   1.224
22947W        W94476  40.675  43.405  11.872
22948W        W94477  10.637   9.812  11.783
22949W        W94478  19.325  43.294  13.149
22950W        W94479  12.551  37.646   9.956
22951W        W94480  36.338  19.338   4.982
22952W        W94481   1.920   3.513  10.642
22953W        W94482  17.120  18.580   0.026
22954W        W94483  44.187   0.014   1.080
22955W        W94484  34.218  38.950  12.070
22956W        W94485  27.335  42.721  10.105
22957W        W94486  28.732  18.449   4.854
22958W        W94487  28.668   5.939  11.348
22959W        W94488  43.861  27.785  10.708
22960W        W94489   3.728   4.493  11.059
22961W        W94490  38.831  30.693  14.011
22962W        W94491  33.090   9.274  12.384
22963W        W94492  18.102  16.651  11.538
22964W        W94493  41.455  37.842   1.233
22965W        W94494  10.295  28.091  13.448
22966W        W94495  18.643  11.862   3.267
22967W        W94496   1.532  39.943   3.859
22968W        W94497  21.557  36.497   3.332
22969W        W94498  38.950  29.554  14.605
22970W        W94499   5.778  38.391  13.086
22971W        W94500  44.508  27.115  13.556
22972W        W94501  32.221  18.741  12.033
22973W        W94502  39.570  36.512  12.395
22974W        W94503  39.145  36.567   0.609
22975W        W94504   4.963  14.228  13.315
22976W        W94505  17.704  30.678   4.193
22977W        W94506   0.210  21.133  12.951
22978W        W94507   8.869  23.439  11.604
22979W        W94508  13.236  17.999   4.378
22980W        W94509   7.902  10.345  11.295
22981W        W94510  13.739   4.816  12.720
22982W        W94511   5.111   1.772  11.055
22983W        W94512   7.313  22.287   4.052
22984W        W94513  22.088  35.798  12.878
22985W        W94514  38.871  13.573  10.782
22986W        W94515  25.252  13.727   2.294
22987W        W94516  13.469  24.649   0.224
22988W        W94517  42.068  35.836   3.618
22989W        W94518  19.567  18.567   3.311
22990W        W94519  42.561  25.549   2.955
22991W        W94520  38.495  12.189   0.640
22992W        W94521  42.604  15.860  14.254
22993W        W94522   7.837  31.207  11.615
22994W        W94523  32.494  34.379   3.333
22995W        W94524  12.612   8.283  12.487
22996W        W94525  13.057  18.292  13.745
22997W        W94526   4.399   5.811  12.917
22998W        W94527  22.495  18.317  10.313
22999W        W94528   7.754  28.955   4.718
23000W        W94529  11.346  34.186  10.655
23001W        W94530  18.089  43.935   1.871
23002W        W94531  12.037  41.383   1.486
23003W        W94532  13.501  38.038  13.828
23004W        W94533  11.366  26.390   1.317
23005W        W94534  36.819  25.498  14.391
23006W        W94535  31.140  44.348  10.603
23007W        W94536  12.710   7.346   2.668
23008W        W94537  42.494   9.333   3.389
23009W        W94538  39.442   9.687   3.324
23010W        W94539  14.067  38.309  11.540
23011W        W94540  43.072  24.041  11.732
23012W        W94541  26.214   0.836   3.229
23013W        W94542  33.953   3.916   0.924
23014W        W94543  23.919  14.035   2.374
23015W        W94544  26.197  12.255  12.457
23016W        W94545  36.084   4.184  10.803
23017W        W94546  41.929  32.477   1.625
23018W        W94547   7.816  37.630  12.153
23019W        W94548  15.188  32.130  14.789
23020W        W94549   4.776  14.307   0.815
23021W        W94550  13.704  21.824   3.637
23022W        W94551  12.176  13.283  12.003
23023W        W94552   5.530  43.495   3.337
23024W        W94553  35.733  22.375   2.817
23025W        W94554   0.795  27.407   3.665
23026W        W94555  39.407  24.176  12.186
23027W        W94556   3.749  25.612  11.199
23028W        W94557  11.373  39.274   1.669
23029W        W94558  36.764  36.983  11.963
23030W        W94559  11.412  35.053   4.523
23031W        W94560  33.257  18.135   2.205
23032W        W94561  40.305  25.085   2.882
23033W        W94562  17.737   0.021  11.579
23034W        W94563  33.989   2.710  10.602
23035W        W94564   5.246  33.094   2.716
23036W        W94565  13.728  34.485   4.052
23037W        W94566  37.119   8.753  12.426
23038W        W94567  10.265  28.206  11.538
23039W        W94568  18.144  44.958  13.740
23040W        W94569   4.330  18.711   2.456
23041W        W94570   8.126  20.172  13.846
23042W        W94571  13.483  17.692   0.446
23043W        W94572  18.254  30.046   2.037
23044W        W94573   6.897  25.117  10.447
23045W        W94574   2.220   8.281  14.090
23046W        W94575  42.990   3.148  13.442
23047W        W94576   7.203   4.663   1.411
23048W        W94577  37.064   4.766  10.641
23049W        W94578  33.449   7.197   4.592
23050W        W94579  36.346  42.925   0.255
23051W        W94580   2.738  36.174  11.139
23052W        W94581  14.158  36.346   3.135
23053W        W94582   0.006  40.130   1.274
23054W        W94583   9.448  11.588   1.467
23055W        W94584  23.615  14.816   2.304
23056W        W94585  14.848  43.883  11.460
23057W        W94586  21.013  30.607   0.506
23058W        W94587  21.980  24.692  13.064
23059W        W94588  13.859  12.517   0.685
23060W        W94589  35.672  10.821   0.332
23061W        W94590  23.617  24.816   4.455
23062W        W94591  39.345   6.608  13.066
23063W        W94592  10.859  11.138  13.881
23064W        W94593  42.745   5.191   0.433
23065W        W94594  33.552   9.882  13.026
23066W        W94595  10.463  22.898   4.787
23067W        W94596  22.131   5.310  10.818
23068W        W94597  15.289  37.478  10.065
23069W        W94598  29.080  24.467  10.749
23070W        W94599   6.695  24.022   3.808
23071W        W94600  31.601  21.179   4.872
23072W        W94601  30.063  16.608   9.724
23073W        W94602  35.533  24.516   1.611
23074W        W94603  10.819   5.884  11.555
23075W        W94604  31.060  11.339   1.924
23076W        W94605  24.216  17.150  10.485
23077W        W94606  42.007  31.616   1.607
23078W        W94607  11.687   5.270   3.473
23079W        W94608  43.860   0.925  11.917
23080W        W94609   0.297  12.143   0.584
23081W        W94610  35.024   4.485  10.951
23082W        W94611  21.237  38.656  11.601
23083W        W94612   0.881  17.234   0.042
23084W        W94613  43.774  31.462  14.830
23085W        W94614  20.732   7.365  13.056
23086W        W94615  21.993  29.446  13.772
23087W        W94616   5.800  13.508  14.822
23088W        W94617  11.774  36.583  13.518
23089W        W94618  21.080  32.579   1.770
23090W        W94619  11.933   2.397   1.395
23091W        W94620  31.013  36.785  12.831
23092W        W94621  31.872  16.071  12.070
23093W        W94622  29.956  21.616  11.139
23094W        W94623  22.783  14.191   3.121
23095W        W94624  27.524   5.110   1.319
23096W        W94625  26.585  44.080   2.673
23097W        W94626   6.416  41.344   0.176
23098W        W94627  34.766  20.486   3.251
23099W        W94628  28.732  19.516  14.762
23100W        W94629  43.755  18.610   0.985
23101W        W94630  32.020  11.609   3.174
23102W        W94631  14.774  29.071  13.998
23103W        W94632  18.140  11.186   0.416
23104W        W94633  11.783  23.729   0.830
23105W        W94634  41.768  28.331   1.425
23106W        W94635  12.224  35.138   3.846
23107W        W94636  20.317  28.893   2.586
23108W        W94637   5.977  20.430   2.180
23109W        W94638  32.499  19.107  14.346
23110W        W94639  20.633   4.308   1.987
23111W        W94640  21.850  31.519   4.496
23112W        W94641  24.617   4.774   0.747
23113W        W94642  36.347  34.372  13.501
23114W        W94643  40.855  22.079   3.700
23115W        W94644  28.648  15.120   2.243
23116W        W94645  13.267  34.504   0.985
23117W        W94646  35.006  17.155   2.571
23118W        W94647  30.018  23.033  14.430
23119W        W94648  39.694  16.140  12.118
23120W        W94649  14.096  22.800   2.492
23121W        W94650  27.575   3.075   4.730
23122W        W94651  32.573  42.178  10.439
23123W        W94652  32.845   0.118   3.384
23124W        W94653  13.714  34.940  12.526
23125W        W94654  42.745  41.739  14.836
23126W        W94655  31.416   9.914   4.137
23127W        W94656  43.744  40.776  11.652
23128W        W94657  38.610  32.678  14.831
23129W        W94658   8.340  23.663  12.754
23130W        W94659   6.415  14.391  10.484
23131W        W94660   2.897  25.035  10.310
23132W        W94661   8.007  11.440  12.127
23133W        W94662  43.000   6.850  14.906
23134W        W94663   2.929  35.261   1.834
23135W        W94664  43.598   7.881   4.580
23136W        W94665  29.365  23.675   0.437
23137W        W94666   6.861  28.471  11.980
23138W        W94667  34.899  16.864   3.874
23139W        W94668  24.397  14.555   2.809
23140W        W94669   8.450   8.958  11.162
23141W        W94670  40.565  30.010   4.350
23142W        W94671   0.274  16.161  13.964
23143W        W94672   1.471  18.855   4.255
23144W        W94673  13.868  36.937  11.345
23145W        W94674  41.290  16.558  10.750
23146W        W94675   2.808  34.727  12.297
23147W        W94676  28.756  14.115   3.395
23148W        W94677  35.408  43.436  14.507
23149W        W94678   3.261   0.770   1.217
23150W        W94679  38.116  15.372   2.580
23151W        W94680  32.593  39.283   0.370
23152W        W94681  17.085  13.202   0.882
23153W        W94682  25.201  25.660   4.113
23154W        W94683  22.704  42.505   2.755
23155W        W94684  17.216  24.448   2.312
23156W        W94685  43.501  27.440  13.863
23157W        W94686  41.458  21.245  10.370
23158W        W94687  30.067  42.448  13.274
23159W        W94688   6.363  32.020   1.114
23160W        W94689  16.422  35.920  13.851
23161W        W94690  19.109  26.860  10.179
23162W        W94691  37.160  29.162  13.044
23163W        W94692  10.970  43.907   4.067
23164W        W94693   8.927  12.145   0.710
23165W        W94694  24.693   5.229  14.385
23166W        W94695   5.895  42.495  10.892
23167W        W94696  24.764   0.915  14.408
23168W        W94697  30.549   8.356  10.692
23169W        W94698  10.201  41.826   0.940
23170W        W94699   5.542  16.772  13.147
23171W        W94700  12.713  18.196  10.925
23172W        W94701  12.810  44.133  10.684
23173W        W94702   3.334   5.433   1.227
23174W        W94703  23.763  41.006  12.090
23175W        W94704  24.046   8.873   3.958
23176W        W94705  10.396  35.917   4.382
23177W        W94706   8.954  40.734  12.724
23178W        W94707  20.915   4.247  12.880
23179W        W94708  38.064   7.390   1.031
23180W        W94709  39.979  12.003   0.398
23181W        W94710  19.519  27.018   3.684
23182W        W94711  13.757  14.173   1.781
23183W        W94712  29.628  37.249  12.504
23184W        W94713  44.326  29.623  12.703
23185W        W94714  24.801   5.358   1.263
23186W        W94715  41.954  40.998  13.534
23187W        W94716   7.387  23.446   3.666
23188W        W94717  24.670  31.957  11.351
23189W        W94718  16.554  17.809   3.611
23190W        W94719  19.633  31.561   3.926
23191W        W94720  30.480   6.549  11.885
23192W        W94721  42.553   6.919  11.949
23193W        W94722  38.537  36.681  12.585
23194W        W94723  44.403  42.536   4.688
23195W        W94724  40.368   6.827   3.647
23196W        W94725  34.511   1.759  14.351
23197W        W94726  40.707   0.269   4.319
23198W        W94727   7.919  10.331  14.930
23199W        W94728  24.272   5.893   0.660
23200W        W94729  10.991  34.537   3.283
23201W        W94730  29.533  23.977   3.811
23202W        W94731  11.306   8.272   2.323
23203W        W94732  18.372   3.208  12.010
23204W        W94733  13.805  27.794  12.359
23205W        W94734   6.286  30.151   0.706
23206W        W94735  16.275  36.985   3.833
23207W        W94736  43.899  31.317  13.841
23208W        W94737  37.706  28.583   0.508
23209W        W94738   1.478   6.808  10.507
23210W        W94739  35.962  16.880  14.351
23211W        W94740  40.736  23.473   4.130
23212W        W94741   6.710  20.362   2.777
23213W        W94742  10.637  19.792  12.487
23214W        W94743  17.527  29.366   2.877
23215W        W94744   1.425  24.737  11.138
23216W        W94745  17.309  21.157   2.356
23217W        W94746  35.955   7.863   2.415
23218W        W94747  39.485  28.131  10.684
23219W        W94748   6.920   2.916   3.398
23220W        W94749  41.304  26.625  14.945
23221W        W94750  42.810  29.215   2.376
23222W        W94751  22.508   4.248   3.291
23223W        W94752   4.945   9.585   1.599
23224W        W94753  25.194  38.627  13.338
23225W        W94754  43.024  25.606   1.718
23226W        W94755  41.887  44.184  13.998
23227W        W94756  23.563  33.879  14.940
23228W        W94757  14.083  18.535  14.057
23229W        W94758  40.045   4.498  14.942
23230W        W94759  36.332  12.113   1.371
23231W        W94760  42.476  13.792   4.084
23232W        W94761  11.902  24.106  12.038
23233W        W94762   2.986  27.610  10.532
23234W        W94763  22.185  26.042   1.684
23235W        W94764  25.071   7.171   1.832
23236W        W94765  29.774  33.979   1.959
23237W        W94766  31.365  35.036   2.706
23238W        W94767  40.415  44.212   2.124
23239W        W94768  41.192   0.687  13.460
23240W        W94769  30.519   7.289   1.424
23241W        W94770  14.727  22.255  12.094
23242W        W94771  17.638  19.814  14.350
23243W        W94772   1.704  13.198  14.269
23244W        W94773  19.156  24.899   0.500
23245W        W94774  30.403  27.991  11.092
23246W        W94775  37.298  38.400   4.658
23247W        W94776   7.674  29.666  12.446
23248W        W94777  13.747   5.799   2.775
23249W        W94778  18.054   2.575   1.802
23250W        W94779   0.233  40.979   1.857
23251W        W94780  41.847  16.053  12.492
23252W        W94781  24.162  17.688   4.353
23253W        W94782   1.277   9.850  13.033
23254W        W94783   2.945   8.876  12.023
23255W        W94784  11.488   9.984  12.476
23256W        W94785   0.480  16.779  13.115
23257W        W94786  12.248  36.913  12.141
23258W        W94787  44.444   8.301  12.955
23259W        W94788  34.011  13.735  10.773
23260W        W94789  28.406  23.542   0.772
23261W        W94790  36.068  43.288   0.913
23262W        W94791  12.898  43.507   2.398
23263W        W94792  39.043  11.370   3.680
23264W        W94793  21.265  37.856   1.315
23265W        W94794  39.212   0.231  13.073
23266W        W94795  16.041  28.257  12.629
23267W        W94796  38.787  35.534  12.108
23268W        W94797  14.753   0.489  10.745
23269W        W94798  31.033   4.484   0.271
23270W        W94799  12.769  37.463  11.494
23271W        W94800  10.518  21.074   4.773
23272W        W94801  26.729  14.804  13.628
23273W        W94802  27.661  32.998   1.197
23274W        W94803  34.980  34.840   1.760
23275W        W94804  37.141   3.408   4.340
23276W        W94805   3.863  12.808   0.345
23277W        W94806  15.177  11.822  12.458
23278W        W94807  34.985  39.934  13.978
23279W        W94808   1.788  37.130  14.825
23280W        W94809  23.510  37.190  13.616
23281W        W94810  42.308  40.376   0.978
23282W        W94811  27.695  31.329   0.088
23283W        W94812  27.169  34.081   0.348
23284W        W94813   0.529   6.180  11.176
23285W        W94814   6.098  37.453   0.237
23286W        W94815  13.304  19.482   4.183
23287W        W94816  34.056  43.047   2.190
23288W        W94817  20.012  24.423   1.005
23289W        W94818  29.249  41.507   3.327
23290W        W94819  38.070  15.569  11.590
23291W        W94820   2.694  20.121   3.110
23292W        W94821   8.725  21.646  14.689
23293W        W94822   7.406  31.591   2.154
23294W        W94823  23.649   7.022  14.045
23295W        W94824   4.815  14.628   3.546
23296W        W94825  44.818   6.176  10.819
23297W        W94826  15.516  41.109   3.031
23298W        W94827  37.517  27.940  13.532
23299W        W94828  20.164  41.127   4.095
23300W        W94829  28.196  42.873   3.824
23301W        W94830  44.065   3.799   0.063
23302W        W94831   5.386   2.402   4.910
23303W        W94832  37.096  23.648  12.407
23304W        W94833   3.741  27.646   1.327
23305W        W94834  13.596  14.837  11.851
23306W        W94835   0.882  23.623  14.803
23307W        W94836  22.358  32.040   3.188
23308W        W94837  10.385  10.926  13.959
23309W        W94838  25.791  12.715   2.706
23310W        W94839  32.172  26.104  13.578
23311W        W94840  22.041   8.418   1.557
23312W        W94841  10.594  11.711   3.204
23313W        W94842  22.743   7.147   2.946
23314W        W94843  43.292  23.215  11.589
23315W        W94844  43.821  36.483   0.696
23316W        W94845  36.956  29.489   4.793
23317W        W94846  10.560  35.137   3.351
23318W        W94847  42.150  24.235  13.205
23319W        W94848  28.838  40.371   2.950
23320W        W94849  39.900  19.114   1.168
23321W        W94850  41.854   8.958   1.793
23322W        W94851  26.062  37.399  12.066
23323W        W94852   9.634  28.594  13.877
23324W        W94853   1.547   6.136  13.990
23325W        W94854   2.280   7.626   4.383
23326W        W94855   6.920  24.649   2.281
23327W        W94856  27.898   1.073  12.439
23328W        W94857   3.235  31.157   3.690
23329W        W94858  32.851  19.503   3.661
23330W        W94859  16.692  40.762   1.810
23331W        W94860  41.033  16.364   4.878
23332W        W94861   8.658   6.678   1.869
23333W        W94862  26.154  43.502   2.562
23334W        W94863  35.512  21.016  11.495
23335W        W94864  12.809  24.693   0.844
23336W        W94865   0.487  26.244  14.497
23337W        W94866  10.686  20.746  12.877
23338W        W94867  27.312  36.570   1.775
23339W        W94868  22.202  17.164  12.772
23340W        W94869  14.024  20.191  10.157
23341W        W94870  27.606   3.069  10.330
23342W        W94871  16.615  40.513  10.779
23343W        W94872  12.689  16.165  12.646
23344W        W94873  41.149  22.366   1.692
23345W        W94874  14.220  14.367   1.946
23346W        W94875  41.775  11.581   3.285
23347W        W94876   6.409   7.283   2.725
23348W        W94877  30.921  15.654   0.578
23349W        W94878   0.749  23.569   4.110
23350W        W94879  36.116  22.169   0.632
23351W        W94880   8.680  19.215  12.387
23352W        W94881   3.274  32.216  12.814
23353W        W94882   9.094  18.009   2.259
23354W        W94883   0.708   4.498  12.677
23355W        W94884   1.798  42.566   1.370
23356W        W94885  10.400   6.690  11.496
23357W        W94886   1.802  37.087  13.855
23358W        W94887   9.810   3.661  12.471
23359W        W94888  37.531  11.296   3.812
23360W        W94889  17.198  42.077  13.985
23361W        W94890  32.507  28.442   1.879
23362W        W94891  27.685  25.126   4.815
23363W        W94892  15.148   9.331   0.430
23364W        W94893  14.593   2.027   2.615
23365W        W94894   8.372  38.723  11.829
23366W        W94895   9.818  14.697  14.708
23367W        W94896  22.956  25.996  14.932
23368W        W94897  17.627  26.448  13.844
23369W        W94898  18.707  18.156  12.149
23370W        W94899  43.856  18.806  11.604
23371W        W94900  13.325  15.548  13.487
23372W        W94901  22.530   0.873   4.094
23373W        W94902   4.417   2.065   1.432
23374W        W94903  18.682  26.252  10.574
23375W        W94904  26.055  42.347   0.636
23376W        W94905  16.588   5.435   2.360
23377W        W94906   5.918  38.764  12.530
23378W        W94907   6.595  14.812   0.847
23379W        W94908  11.670   3.839  12.919
23380W        W94909  36.583  31.654  10.515
23381W        W94910   8.213   8.935   2.808
23382W        W94911  17.592  42.881  14.783
23383W        W94912  40.715   6.934   4.466
23384W        W94913  15.099  26.551  10.590
23385W        W94914  39.061  22.094   3.669
23386W        W94915   5.992  35.585  10.450
23387W        W94916  23.698  21.294  14.995
23388W        W94917  33.636  11.905  14.829
23389W        W94918   8.331  37.081   1.061
23390W        W94919  24.427  27.662   1.121
23391W        W94920   1.340  38.313   1.704
23392W        W94921   7.282   9.288   1.287
23393W        W94922  44.936  40.616  14.906
23394W        W94923   6.853  41.932   4.494
23395W        W94924   4.255  21.216   4.379
23396W        W94925  20.009  33.931  13.278
23397W        W94926  43.389  25.671  13.840
23398W        W94927  27.047   2.689  12.559
23399W        W94928  26.970  16.758   3.686
23400W        W94929  25.277  36.423   2.025
23401W        W94930   4.989  14.790  11.587
23402W        W94931  44.842   6.027   0.761
23403W        W94932  29.735  41.399   3.201
23404W        W94933   3.163  42.890   3.109
23405W        W94934  14.732  15.810  14.556
23406W        W94935  44.954   1.342   4.752
23407W        W94936  18.263   0.422   4.232
23408W        W94937  31.854   8.545  12.897
23409W        W94938  19.781  18.840   2.921
23410W        W94939   2.646   8.702  13.858
23411W        W94940  19.386  34.345   1.285
23412W        W94941  42.822  12.521  11.273
23413W        W94942  42.547  12.149   0.116
23414W        W94943   5.083  44.621   0.027
23415W        W94944  30.794  12.603  14.429
23416W        W94945  11.331  42.745  12.951
23417W        W94946  12.061  26.001  12.397
23418W        W94947   8.270  22.409   2.326
23419W        W94948  18.734  26.202   1.529
23420W        W94949   8.865  17.306   3.039
23421W        W94950  26.537  30.088  12.846
23422W        W94951  12.711  28.985  14.590
23423W        W94952  11.422  41.363   2.347
23424W        W94953  19.341  15.769   1.233
23425W        W94954  22.219  28.346  12.150
23426W        W94955  35.644  23.205  12.715
23427W        W94956   4.890  18.960   1.306
23428W        W94957  33.315  19.480   0.505
23429W        W94958  29.022  13.302   3.058
23430W        W94959  39.299  12.256   4.856
23431W        W94960  15.167  28.316  11.099
23432W        W94961  29.866  34.793   3.877
23433W        W94962   9.793  24.509   4.134
23434W        W94963   4.907  25.472  14.721
23435W        W94964   7.217  27.779   2.355
23436W        W94965  39.524  19.960  13.374
23437W        W94966  39.860  19.985   0.013
23438W        W94967  10.667  12.361  12.531
23439W        W94968  26.963  15.334  14.393
23440W        W94969  24.087  43.832   1.325
23441W        W94970  30.235  35.447  14.196
23442W        W94971  42.565   3.859   1.097
23443W        W94972   0.231  11.582  13.383
23444W        W94973  14.745   4.252   2.575
23445W        W94974  18.093   9.878   3.653
23446W        W94975   6.172  37.722   2.605
23447W        W94976  23.092  14.580   2.464
23448W        W94977   2.722  25.137   0.414
23449W        W94978  11.368  23.298   0.242
23450W        W94979  39.094   8.799  14.908
23451W        W94980  10.383  40.394  12.834
23452W        W94981   0.468  39.596  10.916
23453W        W94982  25.662   9.728  10.369
23454W        W94983  39.882  42.946  13.960
23455W        W94984   6.425  24.254  14.745
23456W        W94985  42.944  11.095  11.529
23457W        W94986  40.268  19.363   5.062
23458W        W94987  16.354  39.886   4.526
23459W        W94988  41.217  25.097   0.905
23460W        W94989  33.904  16.679  12.467
23461W        W94990   3.923  36.265  10.699
23462W        W94991  36.887  40.295   1.503
23463W        W94992   5.556  13.872  13.466
23464W        W94993  25.698   5.825  12.566
23465W        W94994  33.057  12.606   2.435
23466W        W94995  14.165  20.062   4.153
23467W        W94996  34.019  17.106   2.279
23468W        W94997  32.601  17.965  11.621
23469W        W94998  17.082  16.753   1.915
23470W        W94999  22.556   5.934  12.456
23471W        W95000  26.472  11.426  11.474
23472W        W95001  23.506   3.357   2.335
23473W        W95002  26.958  34.573   3.793
23474W        W95003  10.762  37.418  11.390
23475W        W95004   2.522   5.361   3.260
23476W        W95005  36.325  30.614   5.015
23477W        W95006  13.175  15.064   0.147
23478W        W95007  34.038  44.473  14.019
23479W        W95008   1.388   4.842  13.623
23480W        W95009  21.686  36.056   1.264
23481W        W95010   5.792  28.098  12.897
23482W        W95011  27.463   9.709  11.563
23483W        W95012  40.108  21.188  13.372
23484W        W95013  35.654  26.527  12.754
23485W        W95014   6.157  29.233  14.130
23486W        W95015  38.110  19.799   2.918
23487W        W95016  18.110  42.776  14.986
23488W        W95017   6.919  33.200  10.991
23489W        W95018  30.035   7.726  14.002
23490W        W95019   1.766  12.801   0.352
23491W        W95020   6.901   8.452   1.374
23492W        W95021   0.381  17.141   0.185
23493W        W95022  17.829  12.739   0.735
23494W        W95023  19.322   2.433  13.956
23495W        W95024   5.914  33.394  14.856
23496W        W95025  18.642  35.913  10.042
23497W        W95026   1.024   7.709   4.171
23498W        W95027  31.609   5.133  12.549
23499W        W95028  12.981  42.044   4.590
23500W        W95029  34.204  12.682   3.312
23501W        W95030  33.665  42.553   3.713
23502W        W95031  23.242  44.280  13.169
23503W        W95032  12.189  26.605  10.708
23504W        W95033   5.713   7.357  12.025
23505W        W95034   5.342   5.248  11.675
23506W        W95035  29.256  41.086   4.057
23507W        W95036  34.251  42.997  12.571
23508W        W95037  40.305  12.478   3.676
23509W        W95038  32.371  19.133  12.888
23510W        W95039  18.458   9.963  12.349
23511W        W95040  12.873   4.655   4.501
23512W        W95041   0.292   9.689  12.871
23513W        W95042   1.864   2.979  13.028
23514W        W95043  23.176  25.492   3.165
23515W        W95044   8.477  12.380  14.809
23516W        W95045  27.866   4.645  13.595
23517W        W95046  19.178  14.069  14.670
23518W        W95047  20.648  33.490   4.580
23519W        W95048  35.482  33.393   0.716
23520W        W95049   5.838  29.941   3.569
23521W        W95050  15.791  29.031  11.583
23522W        W95051  24.787  23.539  13.971
23523W        W95052   1.725  31.174   2.759
23524W        W95053   6.386  14.085  10.883
23525W        W95054  16.292  10.219   5.459
23526W        W95055  22.161  26.545  11.148
23527W        W95056   9.861  20.512  13.304
23528W        W95057  20.309   2.821  13.451
23529W        W95058  41.722  34.423  13.069
23530W        W95059  25.706   9.930   3.739
23531W        W95060   7.640  33.157  13.393
23532W        W95061  38.622  10.227   2.190
23533W        W95062   4.985  12.104  12.491
23534W        W95063  13.814  15.525   3.211
23535W        W95064  23.977  14.255   1.525
23536W        W95065  22.428   9.380   2.226
23537W        W95066  27.905  14.113   3.645
23538W        W95067  26.182   6.993   0.464
23539W        W95068   7.821  36.925   4.634
23540W        W95069  24.648   7.813   2.780
23541W        W95070  13.311  16.931  10.769
23542W        W95071  44.266   0.269  13.135
23543W        W95072   7.278  27.020  12.274
23544W        W95073  12.336  33.414   4.928
23545W        W95074  43.451  24.534  10.222
23546W        W95075   3.121  25.749  12.528
23547W        W95076   3.163   9.442   1.843
23548W        W95077  37.623  13.664  13.897
23549W        W95078  39.600  32.199  14.241
23550W        W95079   6.642   7.289  14.856
23551W        W95080  21.610  44.047  13.919
23552W        W95081  28.773  42.775   4.564
23553W        W95082   4.423  16.817  14.009
23554W        W95083  32.541  24.992  14.064
23555W        W95084  22.569  32.233   4.779
23556W        W95085  15.768  14.055  13.976
23557W        W95086  12.628  11.378  10.616
23558W        W95087  30.882   7.354   0.103
23559W        W95088  31.491  20.017  10.973
23560W        W95089  27.652  10.142  13.527
23561W        W95090  25.958  13.700   1.806
23562W        W95091   5.760  36.603  12.808
23563W        W95092   5.140   1.153   2.354
23564W        W95093   8.662  31.208   3.267
23565W        W95094   9.628  17.647  14.516
23566W        W95095  33.679  14.212  12.389
23567W        W95096   5.965  41.986  13.003
23568W        W95097  37.121  19.747  11.214
23569W        W95098  13.176  30.935  10.613
23570W        W95099  30.016  10.223   2.675
23571W        W95100  16.709  24.644  13.994
23572W        W95101   1.229   7.619  12.575
23573W        W95102  41.018   9.355  10.748
23574W        W95103  26.995  28.485   1.203
23575W        W95104  24.894  16.165   4.782
23576W        W95105  42.999  29.890  13.443
23577W        W95106  32.809  41.382   4.660
23578W        W95107  16.812  35.395  12.493
23579W        W95108  33.041  37.359   0.311
23580W        W95109   2.533   0.422  12.338
23581W        W95110   2.767  44.173  10.649
23582W        W95111  14.765  26.516  12.905
23583W        W95112  33.914  16.333  14.438
23584W        W95113   6.128  33.572  12.988
23585W        W95114  33.107  15.650   0.375
23586W        W95115   6.674  15.274  14.884
23587W        W95116  22.471   6.306  14.944
23588W        W95117  20.317  23.729  11.163
23589W        W95118  44.620  19.330   1.785
23590W        W95119  18.978   2.753   0.141
23591W        W95120  16.717  15.792   4.789
23592W        W95121   4.750   1.467   2.286
23593W        W95122  19.949  38.122  10.690
23594W        W95123  40.410   1.288   3.883
23595W        W95124  16.404  40.329   0.967
23596W        W95125   9.302  23.778   0.711
23597W        W95126   2.283  10.337   4.721
23598W        W95127  10.114  16.883  10.720
23599W        W95128   9.161  12.233   3.052
23600W        W95129  33.045  36.330  12.939
23601W        W95130  24.670  13.179   3.783
23602W        W95131  16.538  38.002  11.486
23603W        W95132   9.225  39.429  11.905
23604W        W95133   6.447  10.704   0.813
23605W        W95134  26.085  25.553   4.347
23606W        W95135  14.611  20.156   3.805
23607W        W95136  13.608  26.568   3.758
23608W        W95137  14.671   9.969  12.793
23609W        W95138  27.102  44.731  11.432
23610W        W95139  32.217   8.200  13.070
23611W        W95140   6.802  37.984   0.848
23612W        W95141  38.614  34.139   0.008
23613W        W95142  21.463  22.609  12.469
23614W        W95143  23.294  13.063  11.188
23615W        W95144  21.382  36.956   2.748
23616W        W95145  12.858  10.499  10.706
23617W        W95146  29.641  28.430   1.234
23618W        W95147  31.919  37.910  12.479
23619W        W95148  26.086  41.262  13.416
23620W        W95149   1.214   3.638  10.585
23621W        W95150  32.540  37.315   0.003
23622W        W95151   1.148  31.449   3.852
23623W        W95152  27.681  42.734  12.116
23624W        W95153   1.204   0.966  12.050
23625W        W95154  14.219  22.731  12.628
23626W        W95155   3.668  10.678  13.614
23627W        W95156  40.136   6.160   2.613
23628W        W95157  21.179  13.571   0.211
23629W        W95158  31.003  32.665  14.441
23630W        W95159  11.727  42.071   2.745
23631W        W95160   9.685   5.934  14.961
23632W        W95161  12.345  19.418  14.866
23633W        W95162   9.190   8.854   1.899
23634W        W95163  33.102  27.411  12.382
23635W        W95164  16.658   3.991  11.058
23636W        W95165  33.794  36.091   1.379
23637W        W95166  23.712  25.242  13.949
23638W        W95167   0.006  33.357   1.975
23639W        W95168  11.011  12.678  13.410
23640W        W95169  35.742   5.462   4.942
23641W        W95170  22.167   4.867   1.584
23642W        W95171  18.075  37.010   0.457
23643W        W95172  16.048   8.708  13.747
23644W        W95173   1.459  36.090  12.392
23645W        W95174  28.595  34.608   3.816
23646W        W95175   0.061  26.040   1.452
23647W        W95176  34.857  11.744   1.677
23648W        W95177  16.671  34.704   1.374
23649W        W95178  35.866  34.741  13.830
23650W        W95179  41.316   5.830   1.288
23651W        W95180   8.229  22.753   1.060
23652W        W95181  23.639  13.883   2.784
23653W        W95182  17.514  32.103   3.303
23654W        W95183  21.986   1.750  12.042
23655W        W95184  23.497  24.564  14.481
23656W        W95185   2.502   4.349  13.980
23657W        W95186  11.796  11.808   3.776
23658W        W95187  39.974   9.649   3.308
23659W        W95188   4.401  35.100   2.320
23660W        W95189   1.879  14.986   4.684
23661W        W95190   3.359   0.717   4.202
23662W        W95191  21.665  15.303   5.162
23663W        W95192   9.245  10.663  13.610
23664W        W95193   9.706   7.628  12.582
23665W        W95194  27.618   4.223  14.522
23666W        W95195  17.818   4.950   1.506
23667W        W95196  30.633   0.027  11.923
23668W        W95197  24.737   0.253  11.472
23669W        W95198  21.021  24.596  13.806
23670W        W95199  21.649  14.729  12.461
23671W        W95200  35.874  40.423   3.628
23672W        W95201   9.262  17.634   2.929
23673W        W95202  20.363  24.430  14.489
23674W        W95203  14.052  37.390  14.100
23675W        W95204  40.282  31.627   0.313
23676W        W95205  13.353   0.208  14.078
23677W        W95206   8.898  15.118   4.672
23678W        W95207  27.372   3.787   0.060
23679W        W95208  19.596   9.653   2.237
23680W        W95209  21.293  40.508  10.639
23681W        W95210  19.620  42.747  11.496
23682W        W95211  39.423   3.339   1.673
23683W        W95212  10.384  42.748   2.238
23684W        W95213  24.842  17.773   2.802
23685W        W95214  20.881   3.482  13.874
23686W        W95215  35.532  16.160  12.414
23687W        W95216  38.069  31.372  10.861
23688W        W95217   9.806  14.684   0.510
23689W        W95218  40.841   0.702  13.067
23690W        W95219  22.510  39.395   2.954
23691W        W95220  19.959  15.128   2.404
23692W        W95221  15.735  34.073   4.709
23693W        W95222  33.679   7.102   3.068
23694W        W95223  37.905  29.265   3.046
23695W        W95224   7.671  11.150   4.622
23696W        W95225  32.866   1.733   1.761
23697W        W95226  21.633  36.103   0.176
23698W        W95227  17.779  10.907   2.284
23699W        W95228  39.092  19.007  11.206
23700W        W95229  31.746  26.031   2.676
23701W        W95230  24.935  12.810   0.764
23702W        W95231  25.075  22.985   0.740
23703W        W95232  17.134  39.053  14.858
23704W        W95233  39.916  27.063   0.320
23705W        W95234  39.882  44.012  13.912
23706W        W95235  22.723  25.554  14.894
23707W        W95236  19.135   3.874  11.948
23708W        W95237  44.900  20.762   1.506
23709W        W95238   1.822  16.633   3.220
23710W        W95239  21.254  23.513  11.113
23711W        W95240  20.287   9.127   4.148
23712W        W95241  30.443  12.587   0.880
23713W        W95242  32.442   4.851   1.450
23714W        W95243  28.736  18.871  10.674
23715W        W95244  32.085  32.526  12.895
23716W        W95245  43.975  11.187  13.882
23717W        W95246  16.016   2.341   0.736
23718W        W95247  12.363  36.914  13.888
23719W        W95248  10.467  44.997  11.926
23720W        W95249  13.305   5.868  11.593
23721W        W95250   5.343  28.873  10.807
23722W        W95251  30.389   4.856   1.442
23723W        W95252  34.349  11.875   4.145
23724W        W95253  43.512   2.360  11.240
23725W        W95254   5.155  31.476   1.254
23726W        W95255  37.008  30.457  11.514
23727W        W95256   2.448   0.211   3.124
23728W        W95257  34.051  29.697  11.923
23729W        W95258  20.121   3.171  11.433
23730W        W95259  36.915   1.863   4.524
23731W        W95260  10.985  43.688  10.201
23732W        W95261   9.435  44.372   2.458
23733W        W95262  10.006  21.126   4.899
23734W        W95263   2.403  12.544  10.692
23735W        W95264  13.173  24.700  14.762
23736W        W95265  29.611  12.388   2.151
23737W        W95266  27.078  18.500   2.715
23738W        W95267   1.738  13.624  11.661
23739W        W95268  36.560  17.798   0.340
23740W        W95269   5.434   9.763   3.846
23741W        W95270  40.830   9.301   0.297
23742W        W95271   0.476  36.985   2.410
23743W        W95272  34.411  20.495   4.155
23744W        W95273  17.388  40.473   2.654
23745W        W95274  10.167   2.321  12.552
23746W        W95275  11.293  34.275  13.864
23747W        W95276  19.494  22.349  11.575
23748W        W95277   4.762   0.654   2.946
23749W        W95278   6.141  34.005  12.287
23750W        W95279  41.316   6.259   2.432
23751W        W95280  10.930  29.182   3.579
23752W        W95281  10.685  38.099  13.288
23753W        W95282  44.789  17.774   3.889
23754W        W95283  37.680   5.975  14.019
23755W        W95284  36.634  18.124   4.603
23756W        W95285  17.971  24.034   3.838
23757W        W95286  20.332   8.918  12.606
23758W        W95287  18.596  30.731   4.530
23759W        W95288  11.192  14.626   2.797
23760W        W95289   7.125  33.386   2.643
23761W        W95290  19.980  17.495   1.355
23762W        W95291  38.888  42.462  10.697
23763W        W95292  22.145   2.549   4.684
23764W        W95293  17.391  15.485   0.853
23765W        W95294  41.860  20.710   0.378
23766W        W95295   6.172  15.086   4.197
23767W        W95296   8.331  25.927   0.847
23768W        W95297  42.983  34.467  13.530
23769W        W95298  32.026  42.484  11.163
23770W        W95299   7.779  23.212  10.895
23771W        W95300  26.454   8.809  14.818
23772W        W95301   5.224  13.403  12.535
23773W        W95302  30.563   8.592   2.177
23774W        W95303  26.944  41.302  13.359
23775W        W95304  25.596  21.814  14.310
23776W        W95305   8.252  38.114  11.461
23777W        W95306  11.766  16.398   3.150
23778W        W95307  39.416  11.642   1.746
23779W        W95308  16.720   0.513   2.877
23780W        W95309  30.043  43.244   3.303
23781W        W95310  23.197  35.943   0.087
23782W        W95311  33.480  32.577   4.675
23783W        W95312  39.849  25.236   4.280
23784W        W95313  40.316  41.027   1.266
23785W        W95314   1.787  24.923   2.665
23786W        W95315  21.096  26.251  14.054
23787W        W95316  28.162  34.030   3.647
23788W        W95317   7.619  39.776   1.445
23789W        W95318  29.839   2.870  13.458
23790W        W95319   8.292   8.252  12.341
23791W        W95320  28.580  43.410  10.362
23792W        W95321  31.551  13.786   2.903
23793W        W95322  26.559  43.339   0.894
23794W        W95323  21.926   0.305  13.031
23795W        W95324  15.667  36.174  10.798
23796W        W95325   2.944  40.079  14.379
23797W        W95326   7.210  29.846   3.710
23798W        W95327   4.660  11.845  12.831
23799W        W95328  41.897   0.033   1.456
23800W        W95329  18.329   5.095  13.014
23801W        W95330  11.742  28.531  12.984
23802W        W95331  37.208  33.171   0.862
23803W        W95332  15.140   0.719  11.153
23804W        W95333  17.730  26.938   1.002
23805W        W95334  11.623  35.768  11.740
23806W        W95335  44.896  30.117   0.082
23807W        W95336  16.536  32.155  12.151
23808W        W95337  35.086  16.600   1.244
23809W        W95338   0.947  32.101  13.871
23810W        W95339  34.785  17.586  12.118
23811W        W95340  39.369  22.016   4.200
23812W        W95341  38.028  16.757   2.424
23813W        W95342  33.730  40.849   1.874
23814W        W95343  31.385   5.002  13.927
23815W        W95344  24.031  25.074  14.809
23816W        W95345  44.248  21.460   2.330
23817W        W95346   8.185  31.875   1.292
23818W        W95347  39.101  28.973   4.634
23819W        W95348  29.020  24.514  11.614
23820W        W95349  26.238   0.635  14.796
23821W        W95350  30.918  17.293  14.690
23822W        W95351  15.306  30.673  10.852
23823W        W95352  36.809  41.475  14.831
23824W        W95353  10.278  36.229   0.860
23825W        W95354  13.474  22.716   1.202
23826W        W95355  38.720  40.155  10.707
23827W        W95356  27.693  25.092   2.903
23828W        W95357   0.889  14.258  10.761
23829W        W95358  43.771  32.869  12.113
23830W        W95359   5.901  33.184  12.110
23831W        W95360  43.730  41.381   4.471
23832W        W95361  29.601  37.638  14.835
23833W        W95362  39.915  14.534   2.755
23834W        W95363  29.646  27.003  14.324
23835W        W95364  20.089   9.825  14.051
23836W        W95365  26.565  37.460   1.430
23837W        W95366  42.593  30.442  11.610
23838W        W95367  32.222  16.062  12.459
23839W        W95368   0.249  36.692   3.331
23840W        W95369  42.395  17.751   4.156
23841W        W95370  41.578  32.144  13.497
23842W        W95371  20.202   9.329   4.613
23843W        W95372  28.313  19.219   1.765
23844W        W95373  22.968  16.692  13.015
23845W        W95374  40.185   1.963  12.458
23846W        W95375  41.959   9.378   2.728
23847W        W95376  23.097  19.004   1.705
23848W        W95377  34.439  29.715  13.063
23849W        W95378  12.574  29.629  11.640
23850W        W95379  18.067  31.793  13.291
23851W        W95380  18.727   6.062  14.333
23852W        W95381  12.842  25.175   0.641
23853W        W95382  21.029   2.998  13.952
23854W        W95383  23.417  35.640  12.113
23855W        W95384  17.692  29.384  13.370
23856W        W95385  18.801  28.701   1.195
23857W        W95386   9.301  37.394  10.766
23858W        W95387   0.169  40.890  12.750
23859W        W95388   8.643  11.119  12.971
23860W        W95389   7.211  40.888   3.743
23861W        W95390  40.804   8.129  13.008
23862W        W95391  24.207  25.966   0.280
23863W        W95392   7.243  13.177  12.528
23864W        W95393   5.407  22.633  12.857
23865W        W95394  33.227  40.991   1.800
23866W        W95395   5.709  12.658  10.791
23867W        W95396  10.733  29.746   0.476
23868W        W95397  25.171  38.483  14.257
23869W        W95398   6.662  42.632  13.136
23870W        W95399  23.892   1.795   0.874
23871W        W95400  42.606  43.599   4.248
23872W        W95401  41.892   9.875   2.789
23873W        W95402  41.774   6.291  13.584
23874W        W95403  17.167  27.372  11.119
23875W        W95404  15.547  20.172   3.300
23876W        W95405  34.546   8.361   0.580
23877W        W95406  23.150  19.506  10.805
23878W        W95407  13.161  29.245  13.468
23879W        W95408  18.149  21.361  11.135
23880W        W95409  20.952   5.122  11.234
23881W        W95410  23.743  18.563  12.628
23882W        W95411  17.572   5.182  12.323
23883W        W95412  39.119   7.087  11.132
23884W        W95413   4.227  16.777   3.326
23885W        W95414  17.092  30.599  10.741
23886W        W95415  11.682   8.257  14.378
23887W        W95416  24.390  14.865  13.025
23888W        W95417   1.320  42.270  13.271
23889W        W95418  16.740  25.168  11.590
23890W        W95419  38.353   0.812  13.774
23891W        W95420  26.437  27.242  12.963
23892W        W95421  33.858   7.865   0.417
23893W        W95422  36.968  37.633  12.733
23894W        W95423  23.753  15.371  12.459
23895W        W95424  30.696  33.392   1.148
23896W        W95425  36.829  16.577  12.038
23897W        W95426  13.190   4.885   4.137
23898W        W95427  43.178   6.378   1.845
23899W        W95428  27.611  26.320   1.890
23900W        W95429  22.751  44.365  11.533
23901W        W95430  27.944  38.633   4.136
23902W        W95431  14.808   5.455   2.249
23903W        W95432   2.928   4.422  10.751
23904W        W95433  35.035  42.710   1.444
23905W        W95434   4.838  15.109   4.523
23906W        W95435   7.299  30.408   0.382
23907W        W95436  36.515  27.973  11.758
23908W        W95437   0.697   7.370   2.799
23909W        W95438   8.175  28.052   2.684
23910W        W95439  32.892  21.779   5.016
23911W        W95440  37.309  39.826  14.794
23912W        W95441  10.428  11.778  10.664
23913W        W95442  17.067  15.318   2.356
23914W        W95443  24.690   0.515  11.015
23915W        W95444  39.281   3.367  10.431
23916W        W95445  38.259   8.229  11.120
23917W        W95446  39.288  15.307   3.754
23918W        W95447  34.261  26.145  13.887
23919W        W95448  13.645  40.284  12.528
23920W        W95449  41.544   4.410   1.879
23921W        W95450  10.716  20.581  11.911
23922W        W95451  13.114   5.390  14.246
23923W        W95452  26.449  17.237   3.391
23924W        W95453   7.738   5.273   2.208
23925W        W95454  13.265  15.219  14.345
23926W        W95455  28.843  15.834  11.611
23927W        W95456  33.549  20.702   2.623
23928W        W95457  10.063  43.376   4.141
23929W        W95458   3.571   5.160   0.319
23930W        W95459  13.954  37.553   2.719
23931W        W95460  35.189  42.966  13.790
23932W        W95461  28.407  11.124  13.247
23933W        W95462   2.035   5.088   4.535
23934W        W95463  32.909   6.999  12.870
23935W        W95464  34.472  29.403  14.595
23936W        W95465  24.493  38.522  14.833
23937W        W95466  44.817  32.026   0.704
23938W        W95467  10.912   6.224   3.644
23939W        W95468  24.779  19.959  14.646
23940W        W95469  34.823  28.897   4.072
23941W        W95470  35.437  15.728  10.903
23942W        W95471  28.060  29.286   3.858
23943W        W95472  29.110   9.129   1.793
23944W        W95473  18.920  42.118  11.660
23945W        W95474  39.380  34.534   0.529
23946W        W95475  28.320   7.847   4.240
23947W        W95476  26.149  28.695   2.344
23948W        W95477   9.111   0.294  14.071
23949W        W95478  41.812   1.066   0.794
23950W        W95479  14.352  24.975  13.155
23951W        W95480  23.004  17.595  14.556
23952W        W95481  34.688  42.501  11.615
23953W        W95482  30.615   1.333  11.850
23954W        W95483  38.108   1.912   0.306
23955W        W95484   0.329  30.329   2.271
23956W        W95485  39.285  28.041   0.016
23957W        W95486   4.176  19.717   4.628
23958W        W95487  39.794  39.287   0.659
23959W        W95488  44.304  16.188  13.925
23960W        W95489  42.938   7.855  14.831
23961W        W95490  37.797  23.248   0.185
23962W        W95491   1.416  16.677  10.722
23963W        W95492  41.426  10.654  14.501
23964W        W95493  16.449  29.204  11.121
23965W        W95494  26.688   5.830  12.603
23966W        W95495  24.930  11.101   4.292
23967W        W95496  14.761  43.841   2.475
23968W        W95497  24.109   1.943   4.467
23969W        W95498  27.162   4.326   0.557
23970W        W95499  40.411  15.637  12.991
23971W        W95500  29.552  31.418   2.727
23972W        W95501  29.469  16.832   0.225
23973W        W95502  10.650  36.351   4.496
23974W        W95503  37.607  44.316  10.391
23975W        W95504  34.024  35.526   2.366
23976W        W95505   0.789   8.318   2.245
23977W        W95506  32.823   9.713  11.065
23978W        W95507  10.795  34.967   2.505
23979W        W95508   4.395  33.701   4.793
23980W        W95509  15.240   3.762  13.781
23981W        W95510  31.170  20.871   0.879
23982W        W95511  40.632  42.571   4.700
23983W        W95512  30.720  13.390  13.958
23984W        W95513  36.648   8.152  10.423
23985W        W95514  17.010  15.642  10.360
23986W        W95515  42.342   4.880   1.392
23987W        W95516  37.926  19.510   3.312
23988W        W95517  43.990   6.184  13.451
23989W        W95518  23.319  19.143   3.855
23990W        W95519  20.152  44.018   1.292
23991W        W95520  32.862  33.543  10.381
23992W        W95521  10.149  21.145   0.812
23993W        W95522  31.851   6.325  13.305
23994W        W95523  12.677  31.153  10.745
23995W        W95524  15.172  32.866  14.321
23996W        W95525   4.246  32.407  12.489
23997W        W95526   2.695  16.187   0.162
23998W        W95527   8.168   8.702   1.161
23999W        W95528  26.506   7.916   4.515
24000W        W95529  38.003  31.253   4.170
24001W        W95530  10.832   6.959  11.319
24002W        W95531  37.078   2.995  14.246
24003W        W95532  16.646  33.493  11.874
24004W        W95533  25.926   5.843   4.717
24005W        W95534  26.392  24.972  13.391
24006W        W95535   2.782  10.941  11.068
24007W        W95536  23.236  13.798  11.600
24008W        W95537  37.494  12.368  14.526
24009W        W95538  36.135  20.722  13.819
24010W        W95539  39.279  32.611  12.094
24011W        W95540  38.450  28.008   0.477
24012W        W95541  11.775  41.623   0.394
24013W        W95542  16.475   8.188   2.816
24014W        W95543  24.357  19.612   4.564
24015W        W95544  13.537   0.810  11.560
24016W        W95545  25.261  16.842  13.339
24017W        W95546  35.993  19.485   4.140
24018W        W95547  43.509  35.396  11.537
24019W        W95548  26.370  33.407  13.349
24020W        W95549  31.052  26.156   2.268
24021W        W95550  14.947  16.363  11.163
24022W        W95551  14.760  23.025   4.604
24023W        W95552  37.691  14.544   5.040
24024W        W95553  29.976  44.354   4.176
24025W        W95554   1.413  29.123  13.489
24026W        W95555  25.598   7.017   4.451
24027W        W95556  13.164  19.214  10.939
24028W        W95557  22.875  31.361   0.422
24029W        W95558  24.927  26.089   4.220
24030W        W95559  24.426  42.223   3.959
24031W        W95560   5.737  40.688  14.750
24032W        W95561   5.222  15.276  11.623
24033W        W95562  33.167  22.088   4.573
24034W        W95563  40.295  32.440  10.960
24035W        W95564  40.143  31.073   4.805
24036W        W95565  28.981  33.119  14.869
24037W        W95566   4.437  43.064   4.264
24038W        W95567  18.698   6.587  12.351
24039W        W95568  17.811  19.670  10.783
24040W        W95569   1.231  29.610   3.103
24041W        W95570  22.472   5.756  14.273
24042W        W95571  15.846   9.963   5.542
24043W        W95572  14.364   9.790  14.093
24044W        W95573  11.414  23.015   3.709
24045W        W95574   9.646  14.266  12.885
24046W        W95575  33.819  28.043  14.413
24047W        W95576  13.725   5.775   3.657
24048W        W95577  28.529  15.153   4.108
24049W        W95578  29.224  10.878   1.885
24050W        W95579  18.981  16.732   4.097
24051W        W95580  22.213  34.795   0.044
24052W        W95581   8.666   0.049  13.865
24053W        W95582   5.863   2.622   4.795
24054W        W95583   8.654  30.475   1.877
24055W        W95584  27.714  38.301   1.244
24056W        W95585   0.832   7.791   4.655
24057W        W95586  22.745  28.081  12.585
24058W        W95587  17.720   4.247  12.475
24059W        W95588  11.401  17.307   2.386
24060W        W95589  29.474  21.372  11.934
24061W        W95590  25.120   4.242  13.022
24062W        W95591  37.476  33.047  14.180
24063W        W95592   2.952   0.763  13.776
24064W        W95593  17.015  12.630  13.146
24065W        W95594  30.126  21.691   0.485
24066W        W95595   7.192  25.976  14.282
24067W        W95596  12.587  44.042   3.544
24068W        W95597  24.177  40.711   2.119
24069W        W95598  44.637  33.290   5.286
24070W        W95599   4.054  19.720   1.126
24071W        W95600  21.788  18.986   1.301
24072W        W95601  44.270  36.934  12.866
24073W        W95602   0.024  37.297   0.460
24074W        W95603   9.639  13.599  14.048
24075W        W95604   9.949   9.746   0.476
24076W        W95605  18.261  21.951   5.106
24077W        W95606   8.486   2.446  14.872
24078W        W95607  33.048  42.964   5.009
24079W        W95608  41.301  40.547  13.073
24080W        W95609   2.594   2.462  14.484
24081W        W95610   1.227  32.448   4.855
24082W        W95611  32.106   0.940  10.588
24083W        W95612  27.529  40.905   2.664
24084W        W95613   9.580  18.200   2.251
24085W        W95614  31.847  27.160  10.663
24086W        W95615  14.408  23.016   3.690
24087W        W95616  29.644  25.132   1.451
24088W        W95617   7.748  27.465   0.363
24089W        W95618  30.692  17.369  11.216
24090W        W95619  35.064  18.185   3.165
24091W        W95620  42.771  15.696   0.532
24092W        W95621  16.267  33.062   1.183
24093W        W95622   7.587  30.156  13.364
24094W        W95623   1.460  36.461  14.419
24095W        W95624  42.913  35.540   1.391
24096W        W95625  29.914   8.663  11.885
24097W        W95626  42.469   8.152   4.091
24098W        W95627  23.273  27.477   1.347
24099W        W95628  14.255   4.250  10.672
24100W        W95629   5.417  36.959  10.581
24101W        W95630  42.563  22.980  14.924
24102W        W95631  33.354  43.015   3.698
24103W        W95632  26.135   4.655   1.377
24104W        W95633  39.838  25.490   0.336
24105W        W95634  36.606   7.913   0.658
24106W        W95635  37.448   8.968  11.610
24107W        W95636  20.298   7.495  13.994
24108W        W95637  26.612  38.868  11.622
24109W        W95638  18.920  39.363  11.216
24110W        W95639   9.801  15.560  12.156
24111W        W95640  25.693  40.032   4.801
24112W        W95641  11.814  39.128  11.454
24113W        W95642  28.823   4.719  10.874
24114W        W95643  22.886  14.988  13.256
24115W        W95644  29.256  36.506   1.662
24116W        W95645   8.918  28.563   1.749
24117W        W95646   0.375  14.247   1.486
24118W        W95647  18.261   9.634   2.751
24119W        W95648  10.263  10.572   0.879
24120W        W95649   9.139  35.887   3.718
24121W        W95650  30.965  17.970   1.868
24122W        W95651  32.488  44.717   4.133
24123W        W95652   0.466  23.145  12.413
24124W        W95653  12.220  42.797   2.813
24125W        W95654   2.195  44.524   0.273
24126W        W95655  14.034  13.064  11.087
24127W        W95656  10.176  38.369   1.267
24128W        W95657  15.271  43.999  12.683
24129W        W95658   4.537  34.876   5.145
24130W        W95659  23.114  38.258  12.880
24131W        W95660  27.045  35.748  12.650
24132W        W95661  20.235  12.833   3.716
24133W        W95662  13.568  38.817   0.289
24134W        W95663  25.640  19.444   0.832
24135W        W95664  32.919   5.610  13.801
24136W        W95665  13.614  43.924   2.781
24137W        W95666  39.950   8.951  14.874
24138W        W95667  20.602  37.976  11.741
24139W        W95668  44.673   0.298  12.826
24140W        W95669  11.923  22.175   4.186
24141W        W95670  42.900  37.349   1.352
24142W        W95671  13.934  42.869   3.716
24143W        W95672   7.269  37.668   3.339
24144W        W95673  32.965  30.586   2.482
24145W        W95674   0.640  14.547  12.919
24146W        W95675  12.654   0.719   1.334
24147W        W95676  17.254  30.619  12.571
24148W        W95677  11.559  43.720  12.130
24149W        W95678  13.636  19.237  13.010
24150W        W95679  26.066  23.719  10.712
24151W        W95680   1.349  44.839   4.481
24152W        W95681   6.747  27.328   0.444
24153W        W95682  18.539  35.313   1.650
24154W        W95683  35.975  10.809  12.055
24155W        W95684  41.901   0.049   0.932
24156W        W95685  22.028  12.798   2.176
24157W        W95686   4.149  41.781  13.901
24158W        W95687  14.345  14.121   2.373
24159W        W95688  42.226   4.142  12.870
24160W        W95689   2.704  31.201   3.720
24161W        W95690   5.401  24.735   4.841
24162W        W95691  25.506  17.086  11.762
24163W        W95692  23.109  10.851  10.657
24164W        W95693  33.836  34.467  10.974
24165W        W95694  22.986  17.202   0.787
24166W        W95695   4.022  37.406   0.859
24167W        W95696  30.382   1.081   3.642
24168W        W95697  40.997   6.249  12.596
24169W        W95698   7.952  44.422   2.373
24170W        W95699  19.296  21.501  11.848
24171W        W95700   3.391   5.877   3.195
24172W        W95701  39.496   0.417   2.292
24173W        W95702  34.587  33.569  14.491
24174W        W95703  22.796  44.702  12.096
24175W        W95704   2.227  11.734  12.503
24176W        W95705   8.630  43.902  14.352
24177W        W95706  26.152  17.527  13.850
24178W        W95707  43.551  28.847  13.795
24179W        W95708  20.732  12.027  13.172
24180W        W95709  39.079   6.661  11.452
24181W        W95710  15.316  39.018   4.873
24182W        W95711  37.036   5.791  14.005
24183W        W95712  33.061  43.351   0.051
24184W        W95713  16.688  10.820  13.872
24185W        W95714   9.440  36.516   2.319
24186W        W95715  37.981  16.277   0.282
24187W        W95716   1.750  33.513  14.546
24188W        W95717  26.919  20.131   4.083
24189W        W95718  30.494   2.692  11.867
24190W        W95719  27.494  10.799   3.284
24191W        W95720  16.110  16.213   4.316
24192W        W95721  14.346   6.862  11.000
24193W        W95722  40.650  24.904  10.781
24194W        W95723  29.963  33.129   0.114
24195W        W95724  27.733  24.494  11.808
24196W        W95725  24.238  24.653  13.504
24197W        W95726  10.123  38.570   0.403
24198W        W95727  40.532   0.197  12.000
24199W        W95728   5.057  43.693   3.252
24200W        W95729  27.187  11.421  12.001
24201W        W95730   3.434  21.039  14.882
24202W        W95731  30.979  17.886   4.518
24203W        W95732  27.997  44.691   4.181
24204W        W95733  12.949  31.076   4.185
24205W        W95734  11.757   8.570   2.251
24206W        W95735  43.045  19.705   3.298
24207W        W95736  16.749  17.558   0.005
24208W        W95737  36.973   5.906   3.710
24209W        W95738  42.532   2.786  12.149
24210W        W95739   5.518  36.055   4.162
24211W        W95740  44.578  29.990  11.971
24212W        W95741  15.903  23.903   4.605
24213W        W95742  26.688  15.624  10.444
24214W        W95743   8.289   0.979  12.676
24215W        W95744  44.237  25.736  13.477
24216W        W95745  23.643  21.470  12.071
24217W        W95746  43.463  32.469   4.089
24218W        W95747  10.894   5.851   3.267
24219W        W95748  20.138  28.862  12.735
24220W        W95749  22.096  33.962   1.856
24221W        W95750   0.172  17.357  11.823
24222W        W95751  22.614  21.818  10.505
24223W        W95752  24.046  32.836   3.670
24224W        W95753  16.717   6.408   2.668
24225W        W95754  32.852  26.376  13.916
24226W        W95755  44.677  16.383   1.975
24227W        W95756  31.119  43.772   2.228
24228W        W95757  22.620   0.468  13.824
24229W        W95758  21.272   0.840   3.677
24230W        W95759  43.546   1.385  12.953
24231W        W95760  40.573   7.551  14.653
24232W        W95761  11.815   0.105   2.779
24233W        W95762  19.291   2.906  14.632
24234W        W95763  11.331  26.921   1.305
24235W        W95764  43.289  20.617   4.305
24236W        W95765  28.937  22.796  13.082
24237W        W95766   4.092   5.330   3.302
24238W        W95767   3.662  16.652  14.163
24239W        W95768   0.445  22.228  14.898
24240W        W95769  41.829   4.312  10.676
24241W        W95770  27.523   6.668   4.574
24242W        W95771  32.061  44.864  11.925
24243W        W95772  17.568   7.330   3.744
24244W        W95773  27.257  27.913   4.592
24245W        W95774   1.787  39.452  13.048
24246W        W95775   9.909  33.955   4.604
24247W        W95776  21.808  10.553  12.203
24248W        W95777   5.931   6.069  11.704
24249W        W95778  16.319   4.125  12.150
24250W        W95779  11.667   7.820   1.763
24251W        W95780  18.013  26.018   4.567
24252W        W95781  16.547  11.035  12.166
24253W        W95782  10.684  18.668  14.824
24254W        W95783  40.797  31.681   2.340
24255W        W95784  22.842  42.314  11.447
24256W        W95785  34.068  18.641  12.626
24257W        W95786   7.935   2.314  10.453
24258W        W95787  25.428  14.596  11.499
24259W        W95788  12.374  41.229  14.254
24260W        W95789   8.404  31.546  14.502
24261W        W95790   8.180  34.077   1.385
24262W        W95791  36.132  19.110  11.514
24263W        W95792  14.154  44.057   1.413
24264W        W95793  35.418  41.093  11.217
24265W        W95794   2.518  40.821  14.513
24266W        W95795  37.961  30.587   2.212
24267W        W95796  11.171  29.234  11.145
24268W        W95797  20.571  21.531  11.637
24269W        W95798  27.559  20.429  11.984
24270W        W95799  36.434  25.966   0.355
24271W        W95800  35.769  29.723   1.455
24272W        W95801  23.826  44.694  11.464
24273W        W95802   0.811   8.392  11.685
24274W        W95803   3.311  41.837   1.338
24275W        W95804  40.714  12.631  12.080
24276W        W95805  13.573  31.678   4.554
24277W        W95806  23.142  28.392  13.360
24278W        W95807  37.957  22.531  11.826
24279W        W95808  10.141   2.438   2.274
24280W        W95809  29.040   7.406   2.613
24281W        W95810  31.332  13.052  12.842
24282W        W95811  20.093  21.210   2.138
24283W        W95812  14.256  15.491   0.243
24284W        W95813  32.793  27.951   1.837
24285W        W95814  24.040  26.020   4.314
24286W        W95815  26.065  22.306   2.687
24287W        W95816   6.133   7.373   9.914
24288W        W95817   9.875  15.560  11.172
24289W        W95818  41.935  14.629  11.641
24290W        W95819  11.197  35.280  13.964
24291W        W95820  20.750   3.750   3.141
24292W        W95821   9.580   3.962  11.552
24293W        W95822   0.127   6.245  13.846
24294W        W95823  19.548   4.894   2.431
24295W        W95824   0.282  37.107   1.922
24296W        W95825  36.019  28.250   4.010
24297W        W95826  12.344  34.993  11.409
24298W        W95827  27.517  21.720  10.697
24299W        W95828  22.462  44.464   2.396
24300W        W95829  21.598  22.471   1.759
24301W        W95830  18.075  39.562  13.375
24302W        W95831   0.947   9.763   0.875
24303W        W95832   5.305   0.918   3.662
24304W        W95833  41.608  25.201  10.452
24305W        W95834  28.224  38.971  14.285
24306W        W95835  38.258  31.156   2.370
24307W        W95836  26.708  41.567  11.120
24308W        W95837  28.555   3.179   1.902
24309W        W95838   1.040   8.160   2.680
24310W        W95839  21.584  13.842   4.596
24311W        W95840  33.123  12.609   0.863
24312W        W95841   1.991   8.425   0.776
24313W        W95842  23.693  25.912   0.339
24314W        W95843  26.432  12.611  11.343
24315W        W95844  32.005  15.314  10.849
24316W        W95845  32.444  14.251  12.633
24317W        W95846   0.370  12.072  11.586
24318W        W95847  44.679  27.175   4.208
24319W        W95848  22.149  42.485   0.821
24320W        W95849  19.743  42.414   4.797
24321W        W95850  30.173  44.830   4.157
24322W        W95851  24.911  36.460  11.723
24323W        W95852  26.067  39.090  12.049
24324W        W95853  15.680  19.394   5.374
24325W        W95854  18.760  17.790   2.765
24326W        W95855  27.547  41.401   2.422
24327W        W95856  28.658  27.059   1.824
24328W        W95857  31.264  22.433  11.912
24329W        W95858  43.261  14.781  12.399
24330W        W95859  17.060  32.151  14.474
24331W        W95860  13.341   7.354  13.499
24332W        W95861  32.076  30.919  13.931
24333W        W95862  35.786  39.016  12.923
24334W        W95863  34.466  13.828  11.516
24335W        W95864  11.596  35.423   0.911
24336W        W95865  38.789  23.081  14.529
24337W        W95866  17.223  27.055   2.751
24338W        W95867  22.738  23.727   0.740
24339W        W95868  14.400  21.875   2.171
24340W        W95869  37.431  10.048  10.688
24341W        W95870  22.670  26.789  12.944
24342W        W95871  33.818  15.048  11.031
24343W        W95872  22.681  10.776   0.296
24344W        W95873  44.895  31.622   3.563
24345W        W95874  14.472  43.528  12.492
24346W        W95875  19.759   8.288   0.055
24347W        W95876   6.352  25.514   0.160
24348W        W95877  27.596  30.163  12.539
24349W        W95878  25.228  19.665  12.092
24350W        W95879  19.472   2.394  13.448
24351W        W95880  30.943   2.811  13.484
24352W        W95881  32.067  37.982   3.616
24353W        W95882   6.730  28.671   3.323
24354W        W95883  40.549  36.002  12.102
24355W        W95884  39.751  44.288  11.666
24356W        W95885   5.349  32.028   4.465
24357W        W95886  40.033   9.855   1.464
24358W        W95887   3.436  42.792  11.605
24359W        W95888   1.963  22.427   3.958
24360W        W95889  22.359   7.880  11.425
24361W        W95890  42.080   5.237   2.284
24362W        W95891  22.702   2.412  14.597
24363W        W95892   9.833   8.908  11.536
24364W        W95893  19.754  19.694   1.596
24365W        W95894  13.217  36.194   5.170
24366W        W95895  28.430  26.251  11.592
24367W        W95896  42.883  10.744   2.147
24368W        W95897  34.840  33.130   0.212
24369W        W95898  27.084  40.065   1.777
24370W        W95899   6.894  25.212  12.490
24371W        W95900  21.091   9.267  13.136
24372W        W95901  13.666  13.938   4.110
24373W        W95902  38.331  10.262  14.816
24374W        W95903   7.287  32.500   3.136
24375W        W95904  33.301   2.880  13.929
24376W        W95905  32.931   0.262  13.380
24377W        W95906  42.761  10.902   0.319
24378W        W95907  44.831  21.700   1.185
24379W        W95908   6.628  22.940  10.932
24380W        W95909  20.496  20.209   1.913
24381W        W95910  26.225  29.104  12.018
24382W        W95911   5.797  24.952   1.768
24383W        W95912  43.915   8.271  12.885
24384W        W95913  18.835  20.693   4.555
24385W        W95914  25.444  40.010  11.973
24386W        W95915  13.666  22.677   3.223
24387W        W95916   7.807  31.905   0.917
24388W        W95917  19.550   4.383  12.171
24389W        W95918  26.474  15.792   0.390
24390W        W95919  13.791  11.722   3.787
24391W        W95920  15.749  39.952  14.942
24392W        W95921  28.000  44.784  12.873
24393W        W95922  19.714  21.062  11.156
24394W        W95923  23.524  11.574  12.626
24395W        W95924  12.622  44.849   2.147
24396W        W95925  41.387  15.997   4.969
24397W        W95926  38.053   8.933   1.878
24398W        W95927   7.550   8.878  12.485
24399W        W95928   1.933  27.733  10.941
24400W        W95929  25.423  11.520  14.705
24401W        W95930   7.768  10.454   3.210
24402W        W95931  41.026  42.484   1.781
24403W        W95932  19.212  21.556   0.299
24404W        W95933  16.073  36.139  12.948
24405W        W95934   4.908  16.686   1.350
24406W        W95935  24.690  16.119   1.204
24407W        W95936  14.492  30.705   2.583
24408W        W95937  40.975  31.990  11.796
24409W        W95938  40.208  10.804   4.296
24410W        W95939  16.599  39.843   1.400
24411W        W95940  25.860  13.719   4.121
24412W        W95941  44.984  23.046   1.453
24413W        W95942  20.285  43.244   3.680
24414W        W95943  27.906  20.489   1.877
24415W        W95944  25.578   5.188  10.182
24416W        W95945  16.678  35.271   2.163
24417W        W95946  27.233  17.536   3.300
24418W        W95947  35.469  15.381  12.999
24419W        W95948  27.477  30.455  14.801
24420W        W95949  10.805  42.758   3.292
24421W        W95950  18.478  29.899  11.181
24422W        W95951   2.067  38.064  12.941
24423W        W95952  44.084  43.423   2.849
24424W        W95953  12.859   8.178  14.807
24425W        W95954  39.060  37.586  11.088
24426W        W95955  21.151  44.196   2.013
24427W        W95956   9.826   1.603  10.843
24428W        W95957  12.662  22.012   0.941
24429W        W95958  18.581   0.939   2.937
24430W        W95959   5.933   3.464   1.313
24431W        W95960   8.213   6.471   4.290
24432W        W95961  21.542  26.560   4.107
24433W        W95962  17.331  25.701  11.604
24434W        W95963   7.170  33.429   1.731
24435W        W95964  35.068  16.704  11.497
24436W        W95965  36.634  33.091   4.629
24437W        W95966   7.108   6.705  10.679
24438W        W95967  30.880   3.522  11.702
24439W        W95968  21.444  22.042   2.034
24440W        W95969   2.366   4.297   2.033
24441W        W95970  25.189   0.875   0.399
24442W        W95971  26.127   2.481  14.954
24443W        W95972  29.482  40.799   1.264
24444W        W95973   6.675  17.493  14.290
24445W        W95974  41.922   2.456  11.612
24446W        W95975  26.278  24.950  14.419
24447W        W95976  34.304  20.944   0.438
24448W        W95977  16.709   9.280  14.741
24449W        W95978  42.715  34.082  14.321
24450W        W95979  44.073  35.628  11.000
24451W        W95980  31.242  17.105   1.823
24452W        W95981  14.374  14.568  13.129
24453W        W95982  25.713  26.674   3.284
24454W        W95983  17.678  35.405  13.838
24455W        W95984  32.545  44.754  12.867
24456W        W95985  36.568  41.926  12.673
24457W        W95986   0.813  13.148  13.087
24458W        W95987  16.081  21.232   2.809
24459W        W95988  23.738  28.558   1.805
24460W        W95989  32.609   3.143   3.713
24461W        W95990  15.209  33.849  10.653
24462W        W95991  32.513   2.472   3.340
24463W        W95992  38.710  13.384  13.382
24464W        W95993  32.913  21.431  11.538
24465W        W95994  19.527  31.405  11.122
24466W        W95995   6.885  35.083  14.990
24467W        W95996   8.908  15.218   0.535
24468W        W95997  41.853   7.279  12.965
24469W        W95998  32.324  25.733   3.152
24470W        W95999  20.835  29.274   5.276
24471W        W96000   5.874  31.419   1.786
24472W        W96001  37.968   7.112   0.430
24473W        W96002  18.587  22.718  12.793
24474W        W96003  40.595  33.615  12.849
24475W        W96004  23.244   4.899   3.772
24476W        W96005  19.668   8.712  11.926
24477W        W96006  15.006  42.790  13.364
24478W        W96007   4.889  28.329  10.919
24479W        W96008  31.026  13.953  10.956
24480W        W96009   8.880  43.469  13.991
24481W        W96010  41.664   0.874  13.575
24482W        W96011  23.132  41.769  14.860
24483W        W96012  11.355  43.411   1.151
24484W        W96013   2.879  40.131   1.165
24485W        W96014  30.974  22.221  13.340
24486W        W96015  38.320  33.902   2.131
24487W        W96016  35.167   9.385   0.009
24488W        W96017   7.674  24.246  12.032
24489W        W96018  36.431  39.027  13.477
24490W        W96019  15.634  17.009   2.774
24491W        W96020  37.827   6.245   2.753
24492W        W96021  12.062  27.845   4.305
24493W        W96022  34.427  26.576   2.697
24494W        W96023  12.307   3.034  14.353
24495W        W96024  19.043  30.387  14.410
24496W        W96025  13.873  18.228  13.054
24497W        W96026  21.489  27.535   0.788
24498W        W96027  27.501  36.962  12.801
24499W        W96028  36.590  17.051  14.597
24500W        W96029   5.881  32.646  12.923
24501W        W96030  20.451  25.064  13.561
24502W        W96031  37.050  24.023   0.902
24503W        W96032  31.416  32.578  11.645
24504W        W96033  38.381  18.467  10.840
24505W        W96034  22.369  26.498   1.883
24506W        W96035   0.888  11.104   2.882
24507W        W96036   4.875  20.763   3.588
24508W        W96037  39.285  10.776  10.789
24509W        W96038  10.258  34.064   4.220
24510W        W96039  21.655  36.684   5.116
24511W        W96040  43.863  24.709   1.164
24512W        W96041  19.283  32.101   0.802
24513W        W96042   6.165   5.506   2.593
24514W        W96043  39.093  20.155  14.388
24515W        W96044   2.448  15.626  10.723
24516W        W96045   4.610   4.027  13.069
24517W        W96046  24.109  20.571   0.494
24518W        W96047  38.845  26.995  13.299
24519W        W96048   1.464   2.713   3.358
24520W        W96049  41.834  42.047   0.160
24521W        W96050   0.006  18.194   3.682
24522W        W96051   7.688  31.930  12.037
24523W        W96052  33.556   5.952   4.238
24524W        W96053  17.710  26.399  11.885
24525W        W96054  14.255   7.918  12.998
24526W        W96055  35.793  32.183  13.857
24527W        W96056  20.263  29.389  11.065
24528W        W96057  32.945  23.429   2.674
24529W        W96058  25.295  39.859   1.701
24530W        W96059  34.299   0.844  13.666
24531W        W96060   4.009  24.295  10.908
24532W        W96061  32.528  11.740  12.540
24533W        W96062  16.048  14.820  12.040
24534W        W96063  20.222  19.712  13.301
24535W        W96064  43.402  42.479  14.229
24536W        W96065   3.511  24.925   1.540
24537W        W96066  40.995  28.513  10.710
24538W        W96067  30.826  28.925  12.264
24539W        W96068  16.677   8.748   1.719
24540W        W96069   2.701  27.286  12.719
24541W        W96070  33.946  24.492   2.752
24542W        W96071   9.213  42.501   3.206
24543W        W96072   2.784   4.236   1.119
24544W        W96073  44.685  15.476   4.204
24545W        W96074   7.816  24.163  12.509
24546W        W96075  11.605  20.980  14.086
24547W        W96076  23.625   7.577   4.629
24548W        W96077  41.096  12.303  13.700
24549W        W96078   2.003  15.767   2.781
24550W        W96079  17.725  23.068   2.871
24551W        W96080  41.093  13.818  14.364
24552W        W96081  32.026  21.326  12.495
24553W        W96082  17.139   7.664   3.181
24554W        W96083   4.194  23.541  11.071
24555W        W96084  17.823  24.511   3.795
24556W        W96085  38.360   7.596  12.964
24557W        W96086  25.416   3.164  14.213
24558W        W96087  33.908   7.411  10.910
24559W        W96088   2.808  33.053  13.817
24560W        W96089  22.574  36.581  12.984
24561W        W96090   8.456  43.599   2.065
24562W        W96091  23.457  17.743   2.694
24563W        W96092   6.408  15.707  14.726
24564W        W96093  35.035   7.202  12.530
24565W        W96094  22.265  23.835   4.085
24566W        W96095   0.771   4.639  10.799
24567W        W96096  12.939  39.488  14.819
24568W        W96097  39.978  33.371  14.950
24569W        W96098  44.550  34.919   4.088
24570W        W96099  11.012  28.739  13.444
24571W        W96100  21.001  42.449   4.922
24572W        W96101  12.562  17.752  14.473
24573W        W96102  41.483  43.424  13.596
24574W        W96103   4.297  41.984  13.442
24575W        W96104   4.211  18.038   3.708
24576W        W96105  40.045   4.808   2.718
24577W        W96106  29.418  19.169  12.438
24578W        W96107   2.459  26.190   4.162
24579W        W96108  26.230  20.663  14.417
24580W        W96109  33.255  44.904  14.839
24581W        W96110   0.040  38.697  12.891
24582W        W96111  32.526   3.207   4.978
24583W        W96112  33.348  32.022  11.174
24584W        W96113  24.831  36.877  14.689
24585W        W96114  13.762  17.146  12.447
24586W        W96115  32.445  33.770   2.137
24587W        W96116  32.316  36.856  13.725
24588W        W96117  25.443  22.818  14.365
24589W        W96118  23.209  42.125  11.752
24590W        W96119  26.437  27.048   2.745
24591W        W96120  29.961  20.785   2.391
24592W        W96121  31.393  11.325   0.290
24593W        W96122  10.707   6.751  12.355
24594W        W96123   7.231  32.885   3.773
24595W        W96124  38.277  41.057   4.132
24596W        W96125   4.268  44.770  12.358
24597W        W96126   8.807  39.303  10.698
24598W        W96127  28.264  19.990  13.279
24599W        W96128  43.494  27.274   2.308
24600W        W96129   4.374  39.512  13.410
24601W        W96130  10.353   5.862  14.097
24602W        W96131  11.351   5.917  14.963
24603W        W96132  29.505  37.286   1.900
24604W        W96133   6.145   1.879   3.112
24605W        W96134   8.785  21.149  13.382
24606W        W96135  28.176  11.197  13.721
24607W        W96136  37.453  42.215  13.559
24608W        W96137  39.704   0.826   2.075
24609W        W96138  43.988   0.380   3.064
24610W        W96139  33.090  17.148  11.867
24611W        W96140  19.036  31.444   1.774
24612W        W96141  28.051   9.375  10.924
24613W        W96142  24.070  13.236  14.975
24614W        W96143  14.848  25.427  10.679
24615W        W96144   4.377  35.459  12.090
24616W        W96145   5.364  33.525   4.618
24617W        W96146   0.755  26.543  14.823
24618W        W96147  29.051  20.491   2.904
24619W        W96148  36.885  34.500   4.686
24620W        W96149  44.827  43.979   2.907
24621W        W96150   4.731  32.191   3.763
24622W        W96151  16.075  29.530   1.247
24623W        W96152  32.573  16.483  14.444
24624W        W96153  14.684   5.149   3.211
24625W        W96154  40.861  37.648   2.389
24626W        W96155  40.411   9.884  14.913
24627W        W96156  28.553  13.116   4.158
24628W        W96157  10.721  25.730   0.864
24629W        W96158  25.748  38.983   4.773
24630W        W96159  26.630   1.783  12.437
24631W        W96160  24.184  28.397  10.415
24632W        W96161  36.044  22.046   4.570
24633W        W96162  44.384  26.200   0.849
24634W        W96163  16.801  19.627   0.885
24635W        W96164  39.752  18.795  14.334
24636W        W96165  31.600   2.858  14.907
24637W        W96166  13.677  18.036   3.165
24638W        W96167  25.041  12.263  10.558
24639W        W96168  40.214  34.006  14.282
24640W        W96169   2.656  42.936   0.291
24641W        W96170   6.871  15.184   2.134
24642W        W96171  28.653  24.525   2.154
24643W        W96172   5.786  32.055   4.207
24644W        W96173  37.819  10.199   4.603
24645W        W96174   7.294  37.047   1.766
24646W        W96175  35.517  19.803   3.223
24647W        W96176  14.252  36.531  13.913
24648W        W96177  38.417  20.713  14.344
24649W        W96178  42.764  35.271   1.800
24650W        W96179   8.471  18.013   3.496
24651W        W96180  39.127   4.863  11.084
24652W        W96181   8.268  39.725  12.271
24653W        W96182  13.428  26.512  12.922
24654W        W96183  36.421  21.386  11.613
24655W        W96184   8.654  40.388   4.047
24656W        W96185  22.706  42.256  10.103
24657W        W96186  24.666  25.646   4.161
24658W        W96187  26.990  41.409  14.732
24659W        W96188  23.315  36.992  14.406
24660W        W96189  36.325  26.934  13.022
24661W        W96190  31.913   7.733   0.956
24662W        W96191  31.905   8.640  10.611
24663W        W96192  38.178  36.064   4.240
24664W        W96193  28.797  40.238   4.496
24665W        W96194  36.565   6.885   2.186
24666W        W96195  37.822   7.146  12.233
24667W        W96196   3.471  36.691   3.243
24668W        W96197  41.383  19.197  13.375
24669W        W96198  23.072  28.804   4.091
24670W        W96199   0.560  22.502   2.767
24671W        W96200  39.347  23.527  13.418
24672W        W96201   6.872   7.214   3.882
24673W        W96202   5.832   1.546  13.112
24674W        W96203   3.976  42.357   2.269
24675W        W96204   8.123  24.045   3.690
24676W        W96205  37.934  10.899  12.005
24677W        W96206  27.753  32.323   3.400
24678W        W96207   3.292  22.269  10.223
24679W        W96208  28.688   4.495  14.046
24680W        W96209  32.380  18.595  14.381
24681W        W96210  21.731  29.398  11.069
24682W        W96211  16.794  33.459   0.773
24683W        W96212  33.021  26.867  14.643
24684W        W96213  42.942  44.576  14.551
24685W        W96214   6.720  25.145  11.392
24686W        W96215  40.501   5.307  11.480
24687W        W96216   5.197  44.068  10.291
24688W        W96217  44.544  26.904   3.789
24689W        W96218  14.232  36.092  11.357
24690W        W96219  20.299   1.000   2.394
24691W        W96220  38.272  38.351  14.877
24692W        W96221  22.374  28.567   3.650
24693W        W96222  27.405   1.130   3.467
24694W        W96223  43.580  16.133  11.037
24695W        W96224  18.440   9.219   4.786
24696W        W96225  40.006  29.958   4.044
24697W        W96226  31.655  25.648   4.397
24698W        W96227  29.244  15.629   1.376
24699W        W96228  26.237   6.433  13.519
24700W        W96229  28.417  25.768   1.423
24701W        W96230   6.765  15.046   1.269
24702W        W96231  22.048   3.039   1.368
24703W        W96232  25.757  25.244   0.217
24704W        W96233  29.889  33.186  13.790
24705W        W96234  28.108   4.792  12.819
24706W        W96235  18.692  26.643  14.002
24707W        W96236   1.429  23.612  14.703
24708W        W96237   3.650  24.606   4.322
24709W        W96238   4.857  11.607   4.578
24710W        W96239  31.480   6.169  11.650
24711W        W96240  13.417  21.908   4.933
24712W        W96241  23.510  20.761  10.777
24713W        W96242  11.479  33.801   3.392
24714W        W96243   9.202  37.111   0.272
24715W        W96244  35.961   4.828  11.169
24716W        W96245  27.762  36.179   0.784
24717W        W96246  18.476  10.437  12.099
24718W        W96247  22.137   4.503  14.806
24719W        W96248  34.817  18.768  10.778
24720W        W96249  41.368  22.860   1.304
24721W        W96250   9.429  26.090  11.277
24722W        W96251   5.099  22.950   0.206
24723W        W96252  27.099  38.552   0.180
24724W        W96253   8.783   0.190   1.790
24725W        W96254  31.598  42.461   0.445
24726W        W96255   7.913  32.114   0.404
24727W        W96256   8.331  26.617   4.786
24728W        W96257  41.822  30.235   2.390
24729W        W96258  40.999  31.651   1.476
24730W        W96259  22.410  18.063   5.027
24731W        W96260  22.751  36.908   1.508
24732W        W96261   7.444   6.246  11.585
24733W        W96262  17.186  28.414  12.896
24734W        W96263  13.922  37.410  11.563
24735W        W96264  17.082  17.274   3.691
24736W        W96265  13.744  20.628  10.143
24737W        W96266  13.317  40.079  12.900
24738W        W96267  14.674  31.533  14.318
24739W        W96268   4.411  16.345   2.785
24740W        W96269  34.041  33.588  13.034
24741W        W96270  35.447  33.138  13.101
24742W        W96271  17.000   6.351   0.973
24743W        W96272  15.801  27.209   1.659
24744W        W96273   2.797   5.608   1.837
24745W        W96274  13.845   6.938   0.977
24746W        W96275  22.721  13.239  14.600
24747W        W96276  16.800  29.463  12.449
24748W        W96277  38.756   8.896   0.306
24749W        W96278   3.910  39.214  10.676
24750W        W96279  31.048  17.613  13.421
24751W        W96280  32.165  43.110   4.930
24752W        W96281  37.567  30.015   0.604
24753W        W96282  21.435  12.255   1.388
24754W        W96283  35.421  34.610   3.514
24755W        W96284  28.033  23.361  11.174
24756W        W96285  36.020  10.312   0.948
24757W        W96286   9.459  15.993  14.909
24758W        W96287  24.138  20.005   2.807
24759W        W96288  39.964  24.050   2.180
24760W        W96289  16.067   1.790  14.049
24761W        W96290  21.107  13.219  12.190
24762W        W96291   7.019  16.734   0.034
24763W        W96292  34.009  38.765   0.304
24764W        W96293   8.803  16.288  11.981
24765W        W96294  17.161   9.304  12.864
24766W        W96295  31.539  25.736  12.552
24767W        W96296  23.989   7.401   0.811
24768W        W96297  31.960  23.053   3.354
24769W        W96298  28.601   1.848  11.812
24770W        W96299  42.963  26.828  12.381
24771W        W96300  18.170  14.197  12.366
24772W        W96301  13.613  43.346   4.607
24773W        W96302  30.035   8.348  12.756
24774W        W96303  15.748   7.762  10.718
24775W        W96304  25.729  32.551   1.822
24776W        W96305  39.888  15.932  10.525
24777W        W96306   5.776  22.512   0.010
24778W        W96307   5.243  17.553  12.511
24779W        W96308  17.769  23.647   4.122
24780W        W96309  42.915  43.554   0.974
24781W        W96310   4.914   1.806  14.313
24782W        W96311  39.299   9.470  13.892
24783W        W96312   1.590  35.842  13.393
24784W        W96313  25.786  11.606   4.657
24785W        W96314  40.346  44.758  12.922
24786W        W96315   9.694  29.889  13.855
24787W        W96316   3.884   3.136   2.010
24788W        W96317  21.663  36.585  12.898
24789W        W96318  43.048  33.431   4.554
24790W        W96319  40.958  25.727  13.092
24791W        W96320  35.896  27.025   0.826
24792W        W96321  25.009  29.651  13.545
24793W        W96322  21.176   5.461  12.168
24794W        W96323  38.512  27.432  11.159
24795W        W96324  32.804  26.873  13.751
24796W        W96325   8.970  38.113   1.816
24797W        W96326  38.803  16.819   0.473
24798W        W96327  44.314   2.243  14.077
24799W        W96328   5.682  19.235   0.297
24800W        W96329  40.341  37.450  14.394
24801W        W96330  22.616  30.655  11.991
24802W        W96331  31.473  15.300   1.706
24803W        W96332  19.264  43.509  14.892
24804W        W96333  38.943  44.455   4.628
24805W        W96334   8.306  13.690  13.991
24806W        W96335  34.040  32.341  14.718
24807W        W96336  35.420  24.113   4.355
24808W        W96337  44.101  20.706   0.435
24809W        W96338  13.575  22.747  13.409
24810W        W96339  42.521  11.183  14.074
24811W        W96340  34.452  11.696  13.820
24812W        W96341   0.978   9.915   4.652
24813W        W96342   2.305  18.143  14.764
24814W        W96343  28.245  43.257  13.850
24815W        W96344  16.948  11.378   4.280
24816W        W96345  35.126  12.897   3.288
24817W        W96346  28.226   6.717  12.554
24818W        W96347  38.867  17.252  11.471
24819W        W96348  29.896  31.689   1.435
24820W        W96349  35.894   4.892   3.843
24821W        W96350   1.915   7.895  12.445
24822W        W96351  29.637  21.617  14.096
24823W        W96352  14.615  42.793   3.121
24824W        W96353  19.326  32.947   3.726
24825W        W96354  16.340  35.402  10.727
24826W        W96355  36.862  11.862   4.061
24827W        W96356   7.301  39.125   1.323
24828W        W96357  10.079  30.512  10.785
24829W        W96358  34.555   8.819   2.420
24830W        W96359  24.073  44.641  14.391
24831W        W96360   9.765  11.604  11.015
24832W        W96361  31.179  27.530  11.758
24833W        W96362  21.612  43.492   2.928
24834W        W96363  20.533  28.526   2.905
24835W        W96364  18.544  41.410  11.051
24836W        W96365  31.982  37.289  12.631
24837W        W96366  20.710   5.204  12.097
24838W        W96367  29.519  28.578   4.491
24839W        W96368  13.326  21.789  13.149
24840W        W96369   3.217  44.826  10.655
24841W        W96370  11.896  19.613  13.847
24842W        W96371  19.608   1.443  13.855
24843W        W96372   8.860  35.159  13.944
24844W        W96373  16.947  41.809  12.160
24845W        W96374  30.943  15.197   1.793
24846W        W96375   1.010  38.855  11.418
24847W        W96376   2.408  11.181  10.330
24848W        W96377  16.824  38.879   1.748
24849W        W96378  35.790  24.625  12.405
24850W        W96379  39.918  13.834   0.471
24851W        W96380  12.274  39.884   2.439
24852W        W96381  40.072  15.966  11.353
24853W        W96382  19.783  38.382   0.327
24854W        W96383  43.828  18.007   1.906
24855W        W96384  19.389  10.254  11.166
24856W        W96385  37.566  20.269  10.681
24857W        W96386  22.145  21.058   2.111
24858W        W96387  28.933  15.768  12.638
24859W        W96388  36.208  30.822  13.841
24860W        W96389  23.552  26.271  10.663
24861W        W96390  43.925  41.269  12.467
24862W        W96391  21.275  29.738   2.168
24863W        W96392  21.898  35.336   3.340
24864W        W96393  21.582   4.226   3.113
24865W        W96394  11.154  22.497  14.927
24866W        W96395  21.203  18.676   0.022
24867W        W96396   5.700   7.655   0.977
24868W        W96397  40.977  21.088  11.573
24869W        W96398  44.503  26.502  13.952
24870W        W96399  25.719  21.440  13.952
24871W        W96400  36.975  20.147   2.197
24872W        W96401  34.565  15.828   3.155
24873W        W96402  42.769  16.206   4.663
24874W        W96403  20.863  31.203  11.607
24875W        W96404  18.476  11.667  10.865
24876W        W96405   3.336  26.205   0.593
24877W        W96406  35.265   6.331   4.622
24878W        W96407  33.120   3.527   0.018
24879W        W96408  43.273  28.079   1.251
24880W        W96409  42.443  34.403  10.670
24881W        W96410   8.857  38.359   4.541
24882W        W96411  27.981  34.799  14.556
24883W        W96412   7.649  38.076   2.574
24884W        W96413  11.676  22.650  10.144
24885W        W96414  20.406   7.299   2.790
24886W        W96415  21.526  30.127   1.249
24887W        W96416   1.503   3.668   1.462
24888W        W96417   7.133  20.698   1.380
24889W        W96418  30.053  20.960   1.379
24890W        W96419   4.394   1.629  12.120
24891W        W96420  36.585  39.027   4.244
24892W        W96421  43.535  42.922   3.151
24893W        W96422  12.386  36.882   4.206
24894W        W96423   4.245  38.194  11.995
24895W        W96424  13.762  27.724   2.040
24896W        W96425  13.565  16.153   1.791
24897W        W96426  25.734  32.189   0.838
24898W        W96427  13.162  11.759   0.343
24899W        W96428  19.358   6.406  12.541
24900W        W96429  41.026  15.172  11.510
24901W        W96430   5.769  23.006  10.631
24902W        W96431   4.319   2.914   3.740
24903W        W96432  39.644  18.569   2.017
24904W        W96433  11.317  30.151   4.121
24905W        W96434  13.128   5.320  13.378
24906W        W96435  36.120   2.145   2.343
24907W        W96436   3.623  12.418   0.104
24908W        W96437  35.384  41.855  13.924
24909W        W96438  16.677  32.549  13.689
24910W        W96439  34.542  35.697   1.281
24911W        W96440   6.744  42.898   0.972
24912W        W96441  25.912  10.251  11.109
24913W        W96442  17.633  36.277  13.960
24914W        W96443   0.758   8.291   4.539
24915W        W96444  10.791  29.320  14.451
24916W        W96445  31.417  42.766   0.820
24917W        W96446   2.255  25.456   1.970
24918W        W96447  16.618  10.915  13.357
24919W        W96448   4.832   8.754   1.779
24920W        W96449  19.308  13.411  12.046
24921W        W96450   0.823  33.691   1.821
24922W        W96451  23.939  43.749  14.227
24923W        W96452  37.496  37.329   4.515
24924W        W96453  39.298   4.004   4.572
24925W        W96454  38.941  38.452  10.556
24926W        W96455  23.085  27.565  13.931
24927W        W96456  11.364   7.745   2.335
24928W        W96457  13.620   6.423   2.328
24929W        W96458   5.742  31.816   0.400
24930W        W96459   1.067  12.090   2.204
24931W        W96460  39.112   5.357  12.112
24932W        W96461  22.598  29.666   4.194
24933W        W96462  42.401  42.207  13.456
24934W        W96463  12.335  43.319   0.295
24935W        W96464  10.920  28.399  12.550
24936W        W96465  33.908   7.718  12.815
24937W        W96466  30.942  27.644  12.837
24938W        W96467  20.529   4.432   2.495
24939W        W96468  25.561  10.740   0.985
24940W        W96469  25.144   4.488   0.896
24941W        W96470   9.710  23.157   3.774
24942W        W96471   7.592  28.987  14.382
24943W        W96472  30.174   6.318  12.670
24944W        W96473  33.068  44.244   3.007
24945W        W96474  27.194  14.604  11.072
24946W        W96475  29.692  22.327   3.093
24947W        W96476  37.587   3.142   4.322
24948W        W96477   8.676  14.912   1.374
24949W        W96478  28.412  21.114  11.008
24950W        W96479  24.922  11.788  10.705
24951W        W96480  23.162  14.781   1.934
24952W        W96481  19.774  42.257   3.286
24953W        W96482  43.372  40.407   1.895
24954W        W96483  13.945  41.901  14.869
24955W        W96484  13.845   0.698  14.269
24956W        W96485   0.729  11.417  13.409
24957W        W96486   7.214  36.811   1.290
24958W        W96487  16.748   9.759  11.879
24959W        W96488  41.999   5.691   2.619
24960W        W96489   9.956  12.138  14.891
24961W        W96490  42.490  32.581   1.320
24962W        W96491   7.428  24.247   1.481
24963W        W96492  13.281   3.226   0.472
24964W        W96493  33.933  17.708   1.465
24965W        W96494   7.640  17.747  10.776
24966W        W96495  27.429  23.866   3.667
24967W        W96496  26.252  24.067   0.383
24968W        W96497  12.867  22.194   2.348
24969W        W96498   9.115  29.157  13.410
24970W        W96499   1.382  32.464   3.804
24971W        W96500  11.156  25.444  10.744
24972W        W96501  32.111   0.953   4.255
24973W        W96502   9.323  34.308   0.863
24974W        W96503  10.450   1.149   0.809
24975W        W96504   8.972  10.410   4.118
24976W        W96505  22.737  18.357  13.565
24977W        W96506  15.213   7.819  14.991
24978W        W96507  40.452  19.652   1.249
24979W        W96508  18.235  40.034  14.038
24980W        W96509   6.768  39.513   3.788
24981W        W96510  43.875  31.480  11.218
24982W        W96511  10.255  34.915   3.712
24983W        W96512  13.713  11.125   2.001
24984W        W96513  16.287   5.561   3.552
24985W        W96514   3.552  34.390   4.065
24986W        W96515  22.044  12.158  14.883
24987W        W96516  38.932  42.656  12.961
24988W        W96517   2.433   5.145   4.227
24989W        W96518   5.761  12.166  14.438
24990W        W96519   3.324  39.155  11.977
24991W        W96520   2.198   1.362  10.736
24992W        W96521  23.766  12.793  10.637
24993W        W96522  11.844   9.879   1.843
24994W        W96523  21.635  12.506  14.900
24995W        W96524  12.157   2.029  13.421
24996W        W96525  19.398   3.345   0.948
24997W        W96526  29.703   2.156   3.359
24998W        W96527  26.467   8.698   1.756
24999W        W96528  21.760  40.773  14.271
25000W        W96529  13.325  42.093   3.376
25001W        W96530  31.935  12.377   2.757
25002W        W96531  19.721  12.603  14.523
25003W        W96532  33.777  28.027  10.158
25004W        W96533  31.985  42.874  14.995
25005W        W96534  14.218  39.047  14.735
25006W        W96535  26.641   0.829   2.232
25007W        W96536  35.409  14.149  13.679
25008W        W96537   9.796   4.443   1.121
25009W        W96538  35.899   5.872  12.016
25010W        W96539   4.348  42.823  12.017
25011W        W96540   1.389  24.620   4.585
25012W        W96541  30.561  30.112   4.013
25013W        W96542   2.424  16.986   4.804
25014W        W96543  29.431  43.531  11.486
25015W        W96544  17.821   1.448  13.013
25016W        W96545  20.661  21.984   2.951
25017W        W96546  39.414   2.077  13.744
25018W        W96547  42.331  20.563   0.716
25019W        W96548  43.632  41.829   1.770
25020W        W96549  13.096  34.055   0.232
25021W        W96550  43.041  28.913   2.862
25022W        W96551   1.797   8.855  10.649
25023W        W96552  44.964  26.068  12.551
25024W        W96553  37.272  33.500   5.058
25025W        W96554  13.164  38.110   3.732
25026W        W96555  23.746  23.529  10.458
25027W        W96556  31.353  44.843   0.836
25028W        W96557   6.443   1.048   1.255
25029W        W96558   7.012  31.195   0.309
25030W        W96559   8.976   7.442   2.669
25031W        W96560   0.850  38.204   4.349
25032W        W96561   6.828   9.556   4.443
25033W        W96562  15.163  34.464  11.609
25034W        W96563  19.704  35.219  12.373
25035W        W96564  40.893  36.813   3.588
25036W        W96565  13.216   1.637   4.684
25037W        W96566   3.621  16.283   0.072
25038W        W96567  21.688  38.830  14.360
25039W        W96568  22.225  28.902   4.493
25040W        W96569  43.816  20.265   3.682
25041W        W96570   8.778  30.511   9.947
25042W        W96571   7.863   9.803   0.246
25043W        W96572  44.808  44.749  13.648
25044W        W96573  42.202  14.288   3.735
25045W        W96574  16.653  30.144   3.692
25046W        W96575  32.946  24.470   2.654
25047W        W96576  40.309  36.356   1.790
25048W        W96577   2.783  29.629   0.936
25049W        W96578  38.136  23.798  11.770
25050W        W96579  16.533  20.611   3.430
25051W        W96580  13.581  43.215   0.767
25052W        W96581  12.216  27.115  12.942
25053W        W96582   0.244  27.680   3.174
25054W        W96583  37.526  44.189   4.336
25055W        W96584  10.188  32.393  12.994
25056W        W96585  28.044  26.035   1.697
25057W        W96586  24.540  41.100   3.285
25058W        W96587  26.192   0.310   1.091
25059W        W96588  14.294  22.167   1.708
25060W        W96589  35.019  27.489  11.550
25061W        W96590  37.416   6.880   2.196
25062W        W96591  22.820  21.270  11.130
25063W        W96592  19.524  23.614  12.496
25064W        W96593   4.277  37.311  10.984
25065W        W96594  16.154  37.819  11.126
25066W        W96595  30.140  36.967  14.277
25067W        W96596  26.215  27.247  12.478
25068W        W96597  30.942  30.031   2.303
25069W        W96598   5.412  40.811  12.846
25070W        W96599   7.740   5.396   3.281
25071W        W96600  42.068  19.353   3.708
25072W        W96601  19.234  18.974   0.329
25073W        W96602  30.914   0.205  14.990
25074W        W96603   8.650  18.806  14.881
25075W        W96604  31.961  13.568  14.483
25076W        W96605  18.310  30.681  12.561
25077W        W96606   0.746  36.519  12.006
25078W        W96607  30.011  35.579   1.334
25079W        W96608  14.176  20.488  10.920
25080W        W96609   8.041  41.328   1.627
25081W        W96610  31.897   5.358   3.946
25082W        W96611  42.158  28.477  12.017
25083W        W96612  34.473  12.431   4.628
25084W        W96613  12.345  40.907   2.156
25085W        W96614   2.860   8.376  12.023
25086W        W96615   7.720  38.502   2.920
25087W        W96616  32.531  36.890   1.305
25088W        W96617  12.126  14.105   2.744
25089W        W96618  21.764  21.176  14.933
25090W        W96619  23.123  18.114  13.857
25091W        W96620  43.371  15.293  12.440
25092W        W96621  10.871  16.073   3.423
25093W        W96622  33.004  37.389  14.735
25094W        W96623   1.849  40.854   3.969
25095W        W96624  24.566  42.749   1.865
25096W        W96625  26.627  28.540  12.509
25097W        W96626  17.956   9.529  11.638
25098W        W96627  12.741  24.280  12.406
25099W        W96628  40.312  39.506   1.881
25100W        W96629  38.042   1.794  14.424
25101W        W96630  37.954   6.915   1.254
25102W        W96631   6.390  43.280   1.234
25103W        W96632  24.082  19.517   4.111
25104W        W96633  13.922  38.933  14.274
25105W        W96634   0.353  21.284  10.121
25106W        W96635  30.098  44.316   2.338
25107W        W96636  25.691   3.685   3.221
25108W        W96637  12.463  17.643   0.329
25109W        W96638  12.227  22.503  13.873
25110W        W96639  34.593   8.740  14.282
25111W        W96640  17.559  23.677   3.076
25112W        W96641  15.796  37.039  14.465
25113W        W96642  12.896  30.511  11.483
25114W        W96643  20.224  36.900   0.822
25115W        W96644   1.395  23.062   4.529
25116W        W96645  18.523  26.061   2.940
25117W        W96646   2.182  41.610   9.683
25118W        W96647  39.316  18.628  10.777
25119W        W96648  20.777  23.232  14.820
25120W        W96649  36.063  38.498  11.504
25121W        W96650   6.060  20.680   5.212
25122W        W96651  15.832  30.486   2.803
25123W        W96652  16.671   2.635  13.750
25124W        W96653  16.107  39.469   2.426
25125W        W96654  42.330   6.732   1.707
25126W        W96655  29.474  18.834   4.334
25127W        W96656  32.375   9.843   4.098
25128W        W96657  35.546  20.141   2.232
25129W        W96658  38.671   9.478   0.954
25130W        W96659  29.355  31.563   1.782
25131W        W96660  40.815  35.094  12.711
25132W        W96661  25.549   7.908   4.073
25133W        W96662  26.603  14.105  11.122
25134W        W96663   4.880  11.661   4.034
25135W        W96664  37.942  17.316   4.735
25136W        W96665  11.898  26.590   2.891
25137W        W96666  20.774  32.961  11.413
25138W        W96667  15.590  16.430  11.337
25139W        W96668  26.952  40.645   0.883
25140W        W96669  15.189  20.971  12.067
25141W        W96670  44.559  23.182   2.908
25142W        W96671  13.678  41.315   1.474
25143W        W96672  39.428  29.199   5.027
25144W        W96673  43.945  10.404   4.627
25145W        W96674  23.151  35.516  12.547
25146W        W96675  13.680  19.224   0.018
25147W        W96676  20.166  27.437  10.600
25148W        W96677  32.031   3.799  14.633
25149W        W96678  34.564  10.708   2.341
25150W        W96679  11.040  19.968  11.044
25151W        W96680  39.520  41.344   1.287
25152W        W96681  38.630  17.648   0.642
25153W        W96682  44.538  41.056   4.212
25154W        W96683  28.014  24.874   9.672
25155W        W96684  44.906  44.396   4.636
25156W        W96685  32.282  32.860  13.282
25157W        W96686  37.352   3.452  14.328
25158W        W96687  43.836  26.336   0.333
25159W        W96688  36.385  44.863  10.693
25160W        W96689  23.060  37.713  13.954
25161W        W96690  28.612  31.514   4.643
25162W        W96691  42.016  17.814   3.705
25163W        W96692  20.478  21.583  10.707
25164W        W96693  30.213  32.153   0.324
25165W        W96694  31.599  39.834  14.756
25166W        W96695  19.926  20.760  14.759
25167W        W96696  26.063  20.550  11.541
25168W        W96697  35.548   2.452  13.820
25169W        W96698  37.171  33.196   3.804
25170W        W96699  18.902   9.114  12.088
25171W        W96700   4.463  35.436   1.764
25172W        W96701  44.616  25.790   4.186
25173W        W96702  31.661  42.568  10.616
25174W        W96703   9.490  18.785   2.901
25175W        W96704   6.246  11.047  11.069
25176W        W96705   9.764  18.309   4.735
25177W        W96706   5.898  25.371   0.890
25178W        W96707  34.999  32.058  10.687
25179W        W96708   1.668  14.387   3.163
25180W        W96709  18.510  23.982  12.069
25181W        W96710  20.544  20.639   0.256
25182W        W96711   6.778  40.753   3.435
25183W        W96712  34.613  43.382  11.544
25184W        W96713  38.931  38.336   0.253
25185W        W96714  38.947  13.951  11.952
25186W        W96715  35.043  23.722   3.688
25187W        W96716   0.475   7.984  11.202
25188W        W96717  40.100  26.239  10.227
25189W        W96718  14.062  17.442   1.782
25190W        W96719   7.623  12.577  13.990
25191W        W96720  39.471  12.564   0.730
25192W        W96721  32.970  28.154  13.315
25193W        W96722   7.456  16.665   4.384
25194W        W96723  40.171  16.053   4.324
25195W        W96724  24.877   3.671   2.351
25196W        W96725  41.038  14.271   3.160
25197W        W96726  24.223  21.526  14.109
25198W        W96727  31.790  11.252   4.377
25199W        W96728  13.904  18.850   1.901
25200W        W96729  14.074  18.097  12.594
25201W        W96730  17.597  36.356  13.470
25202W        W96731   7.148  38.003  13.079
25203W        W96732  21.211  29.184  13.348
25204W        W96733  24.706  35.864  13.926
25205W        W96734  25.717  20.118  12.928
25206W        W96735  25.425  30.530  14.117
25207W        W96736  28.912   1.462   3.264
25208W        W96737  14.428  18.760   4.261
25209W        W96738  31.119  39.306  14.616
25210W        W96739  14.911  12.461  11.124
25211W        W96740  28.389  37.692   1.927
25212W        W96741  15.760  35.357   2.103
25213W        W96742  31.915   7.238  12.009
25214W        W96743  23.582  39.255  13.252
25215W        W96744  42.046  11.704   1.858
25216W        W96745   0.041  20.093  11.069
25217W        W96746  40.852  24.579  13.305
25218W        W96747  17.483   3.233   3.325
25219W        W96748  30.817   5.795   2.621
25220W        W96749  30.689  39.847  11.484
25221W        W96750  12.322  22.580  12.389
25222W        W96751  25.719  43.313   2.305
25223W        W96752  42.722  31.178  13.467
25224W        W96753  41.363  15.346   1.921
25225W        W96754  25.986   2.199  11.482
25226W        W96755  17.718  17.995  14.954
25227W        W96756  15.753  23.307   2.370
25228W        W96757  11.769  28.506   3.773
25229W        W96758   4.551  25.130   1.458
25230W        W96759  33.271  20.653   3.480
25231W        W96760   1.278  11.883  12.649
25232W        W96761   7.607   6.284   4.175
25233W        W96762  25.492   6.616   0.830
25234W        W96763  37.308  22.114   3.230
25235W        W96764  35.934  29.550  10.656
25236W        W96765  29.806   0.008  12.611
25237W        W96766   7.945   9.988  14.003
25238W        W96767  22.695  26.761   4.857
25239W        W96768  10.074  19.479   4.261
25240W        W96769  38.779  21.764  11.523
25241W        W96770   8.235  16.082  12.825
25242W        W96771  21.141  39.234   0.597
25243W        W96772  24.934  11.325  14.717
25244W        W96773  33.511  18.532  13.810
25245W        W96774  43.570  21.605  10.852
25246W        W96775  33.656  14.062  10.997
25247W        W96776  38.054  33.527  14.522
25248W        W96777   6.638  24.090  13.210
25249W        W96778   0.807  37.406  10.774
25250W        W96779  22.650   6.328  13.845
25251W        W96780  29.229   3.001   4.337
25252W        W96781  13.863  44.708   0.198
25253W        W96782  39.352  33.139   3.645
25254W        W96783  18.468   1.181   1.326
25255W        W96784   9.031  22.131  10.103
25256W        W96785   2.624  43.446   0.468
25257W        W96786  39.871  23.527   1.871
25258W        W96787  41.015  18.121   0.332
25259W        W96788   0.491  21.721   4.739
25260W        W96789  22.071  28.961  10.739
25261W        W96790  41.487  42.963   3.842
25262W        W96791  28.489  15.317  10.695
25263W        W96792  33.123  37.473  12.053
25264W        W96793  41.572   3.790   1.279
25265W        W96794  27.398  28.809  12.008
25266W        W96795  19.225  32.910  14.472
25267W        W96796  13.360  22.696  12.707
25268W        W96797  33.705  32.953   4.216
25269W        W96798  16.093  13.422  14.062
25270W        W96799  27.376  22.763   1.659
25271W        W96800  40.540  37.354   2.698
25272W        W96801  10.136   1.253  13.494
25273W        W96802  28.338  13.124  13.985
25274W        W96803  25.762  17.916  13.861
25275W        W96804  19.252  19.516   0.311
25276W        W96805  10.745  12.851   1.640
25277W        W96806  29.783  32.116   3.126
25278W        W96807  29.082  27.031   2.697
25279W        W96808  22.190  17.096  13.360
25280W        W96809  40.643  18.040  10.574
25281W        W96810   7.880   4.448  13.143
25282W        W96811  37.478  24.227  14.880
25283W        W96812   4.519  11.453   2.281
25284W        W96813  42.846  29.136   3.293
25285W        W96814  35.467  19.120   1.864
25286W        W96815  19.754  21.535   0.345
25287W        W96816  11.269  32.973   1.161
25288W        W96817  40.144  22.754  12.995
25289W        W96818  38.467   7.927  10.744
25290W        W96819   9.212  40.974  11.738
25291W        W96820  39.431  16.086   1.737
25292W        W96821  44.517   8.470  11.169
25293W        W96822  37.562  38.078   0.310
25294W        W96823  41.329  22.627   3.502
25295W        W96824  13.848  35.123  11.179
25296W        W96825  35.115  32.353   2.305
25297W        W96826   6.204  12.252   0.725
25298W        W96827  38.412  19.674  11.059
25299W        W96828  11.494   9.185  14.811
25300W        W96829   3.147  31.827   4.527
25301W        W96830  29.954  29.897  14.039
25302W        W96831  18.102  43.209  12.092
25303W        W96832   0.827  31.659   2.336
25304W        W96833   5.149  19.702  11.977
25305W        W96834  14.912  38.108   4.146
25306W        W96835  28.635  13.375   2.682
25307W        W96836   9.595  30.395   4.333
25308W        W96837  40.551  15.338  10.713
25309W        W96838   1.763  18.911   2.612
25310W        W96839   5.277  17.478  11.223
25311W        W96840  34.605  22.527  12.391
25312W        W96841   7.939  10.268  13.556
25313W        W96842  44.838  38.385  12.527
25314W        W96843  12.873  42.495   1.889
25315W        W96844  13.396  36.238  13.831
25316W        W96845  39.743  25.042  12.654
25317W        W96846  25.933  33.336   0.738
25318W        W96847  16.274  10.536  12.318
25319W        W96848   8.190  11.423  13.610
25320W        W96849   0.168  24.620   3.164
25321W        W96850  10.227  31.351  13.093
25322W        W96851  40.410  44.189  11.134
25323W        W96852   3.368  15.366  14.911
25324W        W96853  14.675  20.608   0.470
25325W        W96854  18.754   7.950  12.156
25326W        W96855  15.517   2.756   3.298
25327W        W96856   1.495  16.148   4.853
25328W        W96857   5.809   9.823   4.202
25329W        W96858  37.191  26.685   3.808
25330W        W96859  27.617   2.056   0.078
25331W        W96860   2.783   0.431  11.533
25332W        W96861   8.882  13.608   1.208
25333W        W96862   0.260  38.773  11.064
25334W        W96863   1.287  30.913   2.621
25335W        W96864  23.800  29.546   1.711
25336W        W96865  27.933   1.333  14.384
25337W        W96866  30.995   2.860  11.911
25338W        W96867  35.130   7.773   0.877
25339W        W96868  28.081   0.237   2.400
25340W        W96869  13.001  40.372  13.841
25341W        W96870  24.192  11.367  14.010
25342W        W96871  12.763  25.189  10.592
25343W        W96872  31.475   2.748   2.220
25344W        W96873  20.326  25.030   3.220
25345W        W96874  17.326  15.085   3.677
25346W        W96875  16.199  11.129   2.302
25347W        W96876  38.818  42.140  12.888
25348W        W96877   3.389  15.548   3.711
25349W        W96878   9.628  13.819  12.617
25350W        W96879  24.369  28.562   3.686
25351W        W96880  38.118   1.572   3.561
25352W        W96881  43.284  33.331   2.207
25353W        W96882  33.063  12.503  13.504
25354W        W96883   1.455  33.716  12.569
25355W        W96884  31.034  40.020  12.657
25356W        W96885  18.210  10.757  12.997
25357W        W96886   2.667  14.629  12.810
25358W        W96887   2.805  33.391  10.974
25359W        W96888  24.971  32.755  12.457
25360W        W96889  20.021  40.599  10.356
25361W        W96890  13.547   3.364   4.149
25362W        W96891   8.721  14.646  13.478
25363W        W96892  23.055  20.812   1.172
25364W        W96893  18.080  32.619   4.725
25365W        W96894   4.317  32.542   0.844
25366W        W96895   1.264   9.470   4.653
25367W        W96896   0.279  27.688  14.448
25368W        W96897   3.794  31.484   0.274
25369W        W96898  15.041  39.386   2.143
25370W        W96899  28.062  19.073   4.262
25371W        W96900  14.129  24.317  12.676
25372W        W96901  32.113  30.948  10.508
25373W        W96902  14.577  16.109   1.806
25374W        W96903  14.515  43.809  10.383
25375W        W96904  22.120  27.846   4.336
25376W        W96905  30.384  18.345  13.600
25377W        W96906  35.936  17.759  13.121
25378W        W96907   7.865  14.868   1.007
25379W        W96908  31.051  22.596   1.925
25380W        W96909  22.537   9.735  14.934
25381W        W96910   7.288   3.981   4.531
25382W        W96911  14.589  11.370  13.302
25383W        W96912  30.420  25.904   1.669
25384W        W96913  26.653  14.109   2.183
25385W        W96914  17.560  39.567   4.702
25386W        W96915  26.384  41.918  13.876
25387W        W96916  41.238  22.263  10.807
25388W        W96917  37.866  26.057  14.732
25389W        W96918  22.729   2.974   1.765
25390W        W96919  25.663  34.901   3.859
25391W        W96920   4.891  22.516  11.165
25392W        W96921  36.973  27.047   4.123
25393W        W96922  13.838  28.358   0.728
25394W        W96923   6.253  38.980   2.192
25395W        W96924  14.288   8.628   4.280
25396W        W96925  39.815   2.348   3.205
25397W        W96926   5.329  43.877  10.751
25398W        W96927  18.951  42.010  13.439
25399W        W96928  44.415  13.229  12.889
25400W        W96929  31.861  41.691   1.358
25401W        W96930  23.090   5.801  12.947
25402W        W96931   3.207  13.840   1.769
25403W        W96932  27.127  11.213   2.162
25404W        W96933  22.063  14.358   1.222
25405W        W96934  18.836  28.235  10.214
25406W        W96935   7.684  35.407  14.794
25407W        W96936   4.713  39.457  12.071
25408W        W96937  10.977   8.694  11.037
25409W        W96938  27.083  37.032   1.866
25410W        W96939   6.370  11.260  13.480
25411W        W96940  40.418  17.556   4.902
25412W        W96941  25.472  32.698   0.006
25413W        W96942   5.992  39.107  13.420
25414W        W96943  42.573   1.835  13.764
25415W        W96944  13.738  34.971  11.675
25416W        W96945  20.268  19.617   4.814
25417W        W96946  10.299  24.512  12.382
25418W        W96947  13.771  15.233   2.784
25419W        W96948   2.418   7.205   0.754
25420W        W96949  25.399  42.424   2.003
25421W        W96950   5.098  15.008  10.005
25422W        W96951  37.522  32.953   2.602
25423W        W96952  16.177  44.666   2.225
25424W        W96953   0.060  14.738  10.929
25425W        W96954   6.210  39.248  11.719
25426W        W96955   1.239  10.404   4.651
25427W        W96956   9.311  27.603   0.415
25428W        W96957  32.257  11.168   3.427
25429W        W96958  29.111  20.347   2.403
25430W        W96959  34.912  41.972   0.763
25431W        W96960   5.299  12.060  13.368
25432W        W96961  44.740  26.480   3.214
25433W        W96962  37.078  32.903  12.548
25434W        W96963  14.792   2.055  11.919
25435W        W96964  19.887  11.234   3.886
25436W        W96965   4.588  12.808   5.127
25437W        W96966  21.672  17.635   1.703
25438W        W96967  30.592  37.152   0.930
25439W        W96968  26.127  14.480  14.427
25440W        W96969  43.128  37.043   4.174
25441W        W96970  26.543  27.148  14.849
25442W        W96971  19.166  18.524  13.964
25443W        W96972  26.375  19.164   1.657
25444W        W96973  33.897  14.138  13.993
25445W        W96974   9.118   0.660   3.616
25446W        W96975   0.191  24.757   1.808
25447W        W96976  38.983   4.947  10.445
25448W        W96977  32.834  34.947  11.594
25449W        W96978  18.102  25.410   1.650
25450W        W96979   4.930   0.453  10.730
25451W        W96980   4.682  23.744  10.175
25452W        W96981  29.024  32.684   1.356
25453W        W96982  22.675  31.425   1.557
25454W        W96983  42.443   6.156   2.412
25455W        W96984  27.484   4.348  11.645
25456W        W96985  28.624  29.083  12.372
25457W        W96986  35.352   1.290   0.948
25458W        W96987  23.277  15.367   0.980
25459W        W96988  24.743  31.072   1.124
25460W        W96989  37.368  10.428  12.744
25461W        W96990   1.816  13.623  12.168
25462W        W96991   0.896  16.105  11.349
25463W        W96992  42.409  41.600   3.853
25464W        W96993  30.508   6.035  12.995
25465W        W96994  28.437  19.570  14.071
25466W        W96995  41.836  43.140   4.593
25467W        W96996  38.065   5.430  12.603
25468W        W96997  18.853  10.863   3.163
25469W        W96998  12.056  28.131  12.870
25470W        W96999  16.395  32.506   2.452
25471W        W97000  11.654  18.212   3.358
25472W        W97001  11.377  26.744  11.323
25473W        W97002   9.916  19.646   3.332
25474W        W97003   4.678  31.875   4.528
25475W        W97004  11.782   1.823   4.672
25476W        W97005  18.723  15.069  13.158
25477W        W97006   0.751  24.874  14.882
25478W        W97007  17.746  37.899   2.289
25479W        W97008  37.820  20.894  10.992
25480W        W97009   5.677  27.912  14.605
25481W        W97010  18.868  39.758   3.648
25482W        W97011  15.007  28.640   4.246
25483W        W97012  40.024  43.535   2.768
25484W        W97013   7.223  41.964   0.036
25485W        W97014  25.507  41.970   3.606
25486W        W97015  30.340  42.826   2.386
25487W        W97016  29.741  28.116   4.613
25488W        W97017  27.159   9.765   1.294
25489W        W97018  23.880   7.494  12.530
25490W        W97019   6.012   4.206   4.082
25491W        W97020  36.499  28.631  12.070
25492W        W97021  37.653  35.115   1.042
25493W        W97022  12.241  18.871  14.008
25494W        W97023  39.759  32.556  13.035
25495W        W97024  29.383  26.466   2.394
25496W        W97025  34.435  31.213   0.853
25497W        W97026  37.327   5.670  11.552
25498W        W97027   0.948  16.681  10.920
25499W        W97028  20.218  37.523  11.532
25500W        W97029   6.815  11.976   3.348
25501W        W97030  41.372  31.425  11.056
25502W        W97031   1.846  19.294  13.506
25503W        W97032  25.882  37.517  10.761
25504W        W97033  11.564  33.895  14.458
25505W        W97034  41.019   7.457  14.943
25506W        W97035  34.054  41.126   4.118
25507W        W97036  15.719  16.187  10.563
25508W        W97037  17.242  41.424  12.365
25509W        W97038   8.145  10.760   2.659
25510W        W97039  28.479  34.361   3.377
25511W        W97040  29.144  33.311   3.780
25512W        W97041   8.981  34.285  13.028
25513W        W97042   0.746  38.564  12.192
25514W        W97043  41.591  43.180  11.985
25515W        W97044   3.378  43.986  11.958
25516W        W97045  34.002  18.178  14.498
25517W        W97046  15.679   6.185   3.319
25518W        W97047  24.665  39.203   0.946
25519W        W97048  29.526  43.796   1.491
25520W        W97049  24.178  34.916  11.642
25521W        W97050   1.231  42.985   2.106
25522W        W97051  42.381  15.398  11.636
25523W        W97052   2.731  36.035   4.640
25524W        W97053  34.161  12.399   4.211
25525W        W97054  31.992  42.119   4.117
25526W        W97055  22.005   4.677   4.097
25527W        W97056  20.758  38.628  13.858
25528W        W97057  14.012  25.047  14.520
25529W        W97058   6.307  16.140  13.077
25530W        W97059  15.750  34.602   4.861
25531W        W97060  12.995  44.871  11.467
25532W        W97061  33.021  21.878   1.019
25533W        W97062  20.241  25.431  14.369
25534W        W97063  43.453  11.767  11.341
25535W        W97064  15.188  43.748  14.891
25536W        W97065  24.070  17.791   1.251
25537W        W97066  14.922  15.252  12.999
25538W        W97067  14.984  30.870   1.809
25539W        W97068  16.567  30.848   2.291
25540W        W97069   2.651  34.185   2.675
25541W        W97070  25.723   6.361  13.535
25542W        W97071  33.962  18.161  10.894
25543W        W97072   4.928  32.120   2.910
25544W        W97073  30.979  23.824  11.939
25545W        W97074  26.466  15.249  10.695
25546W        W97075  11.585   8.895   1.866
25547W        W97076  20.661  11.725  14.465
25548W        W97077  44.839  26.196   3.930
25549W        W97078  31.863  25.587  13.540
25550W        W97079   6.187  38.157  10.956
25551W        W97080   7.876  41.583   3.745
25552W        W97081  29.654  40.033  10.704
25553W        W97082  34.461   1.809   4.023
25554W        W97083  30.148  42.962   2.898
25555W        W97084  34.421   1.363   4.291
25556W        W97085  11.761  22.751  11.891
25557W        W97086  37.024  16.209  13.779
25558W        W97087   5.893  26.958  14.360
25559W        W97088  13.646  34.946   0.030
25560W        W97089  28.923  21.813   1.250
25561W        W97090  28.765  25.308   4.629
25562W        W97091  31.440  26.722   0.563
25563W        W97092   4.234  41.499   0.969
25564W        W97093  30.899  16.178   0.425
25565W        W97094   2.803  28.711   4.361
25566W        W97095  19.937   0.085  12.505
25567W        W97096  27.845  32.497   2.264
25568W        W97097  36.043  11.627   0.313
25569W        W97098  32.375  44.486  14.432
25570W        W97099  42.752  37.882  12.031
25571W        W97100  17.431  11.799   4.881
25572W        W97101  16.793  33.438  12.696
25573W        W97102  40.346  14.430   0.250
25574W        W97103   2.526  13.692   2.219
25575W        W97104  23.651  11.195   1.639
25576W        W97105  20.545   2.187  12.051
25577W        W97106  39.033  24.488   0.242
25578W        W97107  16.843  11.065  12.919
25579W        W97108  34.571  17.271   3.355
25580W        W97109  35.115  43.437  11.656
25581W        W97110  14.912   6.182   2.995
25582W        W97111  35.585  43.499   0.920
25583W        W97112  34.124  21.687   0.757
25584W        W97113  21.071  17.593   0.815
25585W        W97114   3.486  13.406   1.887
25586W        W97115   7.476  21.846  14.499
25587W        W97116  24.772  36.445  11.233
25588W        W97117   9.627  31.835  12.403
25589W        W97118  23.643  18.623  10.701
25590W        W97119  16.552   0.934   1.922
25591W        W97120  30.493   0.474  14.008
25592W        W97121  25.510   4.953  14.780
25593W        W97122  44.969  11.965   0.232
25594W        W97123   4.072  20.229  13.733
25595W        W97124  20.386  41.924  14.098
25596W        W97125  25.135  40.017   2.173
25597W        W97126  21.370  14.166  12.738
25598W        W97127   2.385  38.498   4.090
25599W        W97128  13.528  24.249  11.227
25600W        W97129  33.981  28.561  14.265
25601W        W97130   3.681  33.728  11.529
25602W        W97131  31.986  26.214   2.248
25603W        W97132  44.643  30.930   2.227
25604W        W97133  38.631  44.363   0.266
25605W        W97134  39.323  43.547   3.249
25606W        W97135  41.331   2.248   4.126
25607W        W97136  15.942  36.541  11.497
25608W        W97137  26.732   8.808  13.806
25609W        W97138  27.991  36.735  13.996
25610W        W97139  23.699  30.623   4.087
25611W        W97140   1.002  18.979   3.939
25612W        W97141  30.106  31.222   0.417
25613W        W97142  41.237  36.855   1.360
25614W        W97143  29.331  23.489  13.438
25615W        W97144   4.457  10.210  13.150
25616W        W97145  23.321  37.445   4.492
25617W        W97146  19.343  41.564  14.745
25618W        W97147  36.053  39.948  14.510
25619W        W97148  25.683  43.289  13.918
25620W        W97149  19.136  21.646  10.520
25621W        W97150  12.322  24.459   1.876
25622W        W97151  44.505  32.414   0.877
25623W        W97152  33.853  41.571  12.308
25624W        W97153  22.705   7.843   1.613
25625W        W97154  37.788  34.025   1.190
25626W        W97155  11.187  30.551   0.187
25627W        W97156  41.968  44.269   4.664
25628W        W97157  11.312  11.333   1.262
25629W        W97158   6.653   5.938   0.352
25630W        W97159  38.588  37.404   1.756
25631W        W97160   3.914  30.645  10.572
25632W        W97161   3.320  26.448  11.610
25633W        W97162  11.716  44.863  12.767
25634W        W97163  38.034  28.318   0.193
25635W        W97164   9.636  24.917  10.705
25636W        W97165   6.420  35.087   2.239
25637W        W97166   6.901  28.678  12.859
25638W        W97167  26.035  10.459   4.355
25639W        W97168  21.488  41.380   2.140
25640W        W97169  31.250   0.969   0.299
25641W        W97170  25.225  28.030   1.410
25642W        W97171  22.462  22.994   0.374
25643W        W97172   4.704  39.335  12.563
25644W        W97173  25.721   1.584  11.387
25645W        W97174  34.510   1.906  14.884
25646W        W97175  25.654  27.000  14.211
25647W        W97176  40.514  10.778   4.723
25648W        W97177  39.380  42.464  10.645
25649W        W97178  33.898  19.319  10.733
25650W        W97179   6.359  22.197   2.298
25651W        W97180  34.367   2.943  11.750
25652W        W97181  15.869   5.299  11.981
25653W        W97182  14.603  30.022   0.991
25654W        W97183  22.132  14.699  12.681
25655W        W97184  14.997  25.296  14.403
25656W        W97185  14.558  37.338  10.899
25657W        W97186   2.318  34.919   2.346
25658W        W97187  32.532  27.753   1.314
25659W        W97188  20.700   4.207   3.349
25660W        W97189   8.375  10.778   4.546
25661W        W97190   1.181  44.748   3.176
25662W        W97191  16.971  26.121  14.952
25663W        W97192  25.967  13.938   4.953
25664W        W97193  29.022  11.855   4.601
25665W        W97194  12.261  35.203   1.272
25666W        W97195  38.926  29.584  10.071
25667W        W97196  40.374  25.846   4.587
25668W        W97197  33.414  40.769  14.941
25669W        W97198  30.634   4.325  10.747
25670W        W97199   4.299  44.034   0.759
25671W        W97200  34.100  14.596  13.049
25672W        W97201   1.813   4.223  13.303
25673W        W97202   9.163   4.568  12.869
25674W        W97203  17.196   0.479   4.698
25675W        W97204  32.524  14.031   5.192
25676W        W97205   5.625  33.585  13.880
25677W        W97206   5.423  41.677  14.909
25678W        W97207  39.935  37.813   4.949
25679W        W97208   7.900  39.465  14.298
25680W        W97209  31.531   6.907  11.211
25681W        W97210   2.479  15.086  11.908
25682W        W97211  21.650  13.061   4.135
25683W        W97212  38.974  16.317   1.356
25684W        W97213  26.156  44.500   2.111
25685W        W97214  29.633  25.007   4.915
25686W        W97215   0.336  39.770   3.337
25687W        W97216   2.277   7.190  10.846
25688W        W97217  44.479   0.508   3.815
25689W        W97218  30.312  34.338  13.352
25690W        W97219  24.505  34.104   1.863
25691W        W97220  43.018  31.893  12.412
25692W        W97221  29.757  26.474  14.249
25693W        W97222  28.187   2.734  10.412
25694W        W97223  21.032  28.549   3.033
25695W        W97224  27.470  22.444  11.687
25696W        W97225  38.218  16.696   3.021
25697W        W97226  39.420  39.115   0.163
25698W        W97227   7.204  12.848   0.172
25699W        W97228  41.966  27.481   3.800
25700W        W97229  25.023   7.920  11.849
25701W        W97230   5.857  25.035  11.889
25702W        W97231  41.504  20.685   2.793
25703W        W97232  16.345  23.599  11.745
25704W        W97233  22.715  21.259   4.991
25705W        W97234  36.853  12.661  12.026
25706W        W97235  32.495  22.434   1.411
25707W        W97236   9.419  35.874  14.904
25708W        W97237  43.502  28.590  10.677
25709W        W97238   2.732  13.968  13.487
25710W        W97239  23.561   2.165  13.679
25711W        W97240   2.752  17.910  14.914
25712W        W97241  11.853  30.463   0.698
25713W        W97242  13.683  38.366   1.420
25714W        W97243  29.487  12.327  14.945
25715W        W97244  43.316   2.827   1.811
25716W        W97245   8.294  12.703  14.407
25717W        W97246   6.453   7.325   4.198
25718W        W97247  42.374  31.580  13.567
25719W        W97248  12.387  32.779   0.712
25720W        W97249   6.630   3.240  12.455
25721W        W97250  27.652  35.488   3.694
25722W        W97251   1.420  24.210  13.771
25723W        W97252  31.006  41.521   2.677
25724W        W97253  42.578  22.098  14.816
25725W        W97254  15.834  36.461   4.017
25726W        W97255  32.195   3.924   0.457
25727W        W97256  31.084  21.907  14.382
25728W        W97257  16.469  40.820   1.327
25729W        W97258  25.052  28.983   4.110
25730W        W97259  36.275  36.075  10.074
25731W        W97260  19.107   0.327  14.477
25732W        W97261  19.229  10.202  13.484
25733W        W97262  23.529  11.153  10.615
25734W        W97263  39.391  13.228   1.241
25735W        W97264  28.828  22.863  10.764
25736W        W97265   8.337  38.059  10.459
25737W        W97266   3.915  36.600   0.354
25738W        W97267  26.554   6.144  10.615
25739W        W97268   5.172   7.430  13.033
25740W        W97269  13.620  17.371  11.113
25741W        W97270  29.160  14.893  12.565
25742W        W97271  29.935  22.090  10.893
25743W        W97272   0.211  10.904  12.380
25744W        W97273  23.553  39.643  12.031
25745W        W97274  24.739  33.515  12.533
25746W        W97275  18.579  41.905  13.059
25747W        W97276  40.438  42.489  11.937
25748W        W97277  11.068  15.241  14.943
25749W        W97278   5.933   9.252   2.440
25750W        W97279  27.579  37.792  12.438
25751W        W97280  21.456  37.870  12.379
25752W        W97281  33.552  38.704  14.978
25753W        W97282  30.106  27.252   4.116
25754W        W97283  18.290   4.050  11.628
25755W        W97284  16.719  41.296   1.273
25756W        W97285  16.067  12.898  11.165
25757W        W97286   7.822  23.316   4.456
25758W        W97287  22.195  37.646   4.262
25759W        W97288  42.853   7.235   1.222
25760W        W97289  30.374  37.615   0.876
25761W        W97290  16.134  34.344   1.517
25762W        W97291  34.614   3.462   0.188
25763W        W97292  38.649   5.843  10.493
25764W        W97293   0.309  42.323  14.518
25765W        W97294   1.091  28.559   4.026
25766W        W97295  24.126  33.368   0.217
25767W        W97296  37.287  10.169   4.528
25768W        W97297  31.310  24.358   3.212
25769W        W97298  36.659  31.631  14.271
25770W        W97299  43.283   0.018  14.793
25771W        W97300  35.554  42.732   1.414
25772W        W97301  13.107  31.813  12.925
25773W        W97302   2.476  40.224   2.113
25774W        W97303  34.449  27.503   1.412
25775W        W97304   2.461  28.260   3.099
25776W        W97305  29.991  17.792   4.404
25777W        W97306  10.723   7.193  12.617
25778W        W97307  18.829  28.218   0.909
25779W        W97308  35.636  26.006   0.596
25780W        W97309  29.913  24.144  14.976
25781W        W97310  19.167  17.560   0.023
25782W        W97311  17.324  44.295   2.485
25783W        W97312  44.374  43.057   4.605
25784W        W97313  27.050  44.245  11.537
25785W        W97314  30.844  24.991  14.866
25786W        W97315  15.461  19.655   3.878
25787W        W97316  41.677  28.329  11.834
25788W        W97317  10.746  25.146  14.098
25789W        W97318  20.832  15.889   4.083
25790W        W97319  19.749   0.962  14.057
25791W        W97320  11.168   9.880  13.820
25792W        W97321   3.616  39.135   1.576
25793W        W97322  11.747  21.415  14.348
25794W        W97323  16.797  37.504   0.393
25795W        W97324  42.392  33.398   0.828
25796W        W97325  27.132  20.491   2.654
25797W        W97326  27.171  17.825   4.616
25798W        W97327  23.958  11.583   3.429
25799W        W97328   3.241   1.369   0.526
25800W        W97329  19.041   9.244   0.939
25801W        W97330  15.343  44.923  12.494
25802W        W97331  27.303  32.577   2.281
25803W        W97332  27.778   7.231   2.741
25804W        W97333  39.397  16.241   2.751
25805W        W97334  44.321   9.453  13.420
25806W        W97335  12.626   1.258  14.938
25807W        W97336  30.943  28.748  11.062
25808W        W97337  14.320  43.749   4.146
25809W        W97338   2.000  27.880  12.698
25810W        W97339  16.061  24.732  14.195
25811W        W97340  29.204  25.607   4.583
25812W        W97341  16.706   6.882  14.991
25813W        W97342  44.054  18.733  11.093
25814W        W97343  22.248  21.768  14.497
25815W        W97344   5.794  38.551   2.835
25816W        W97345  33.090  37.290   2.792
25817W        W97346  16.378  12.124  10.207
25818W        W97347  41.491  21.555   3.155
25819W        W97348  32.103  28.530   4.216
25820W        W97349  20.022  18.600   0.310
25821W        W97350  22.588  24.056   3.343
25822W        W97351  33.434  26.512   3.660
25823W        W97352  42.013  11.938   2.317
25824W        W97353   5.359  37.055   0.862
25825W        W97354  14.288  24.337   1.651
25826W        W97355  30.036  35.916  14.508
25827W        W97356  18.035  32.082   4.123
25828W        W97357   9.429  10.407  11.438
25829W        W97358   3.213  22.224   0.838
25830W        W97359  40.761  33.697  10.304
25831W        W97360   0.348  15.569   1.712
25832W        W97361  18.843  15.601   1.257
25833W        W97362  20.534  12.647   2.238
25834W        W97363  19.281   3.660   0.238
25835W        W97364   4.359  32.227   0.457
25836W        W97365  37.634  39.812  11.543
25837W        W97366  11.851   9.234  11.636
25838W        W97367  12.376  41.967  14.800
25839W        W97368  10.234  16.509  14.559
25840W        W97369  33.766  44.780  14.972
25841W        W97370  29.422  12.909  14.360
25842W        W97371  42.094  23.401   0.754
25843W        W97372  14.207  16.754  11.948
25844W        W97373  30.142  18.105   1.469
25845W        W97374  26.546  22.080   2.614
25846W        W97375  15.434  43.545  12.812
25847W        W97376  38.286  18.129   0.235
25848W        W97377  23.146   7.454   1.710
25849W        W97378  36.599  42.935  12.471
25850W        W97379  17.693  42.840   0.298
25851W        W97380  10.613  37.276   4.012
25852W        W97381  20.284  17.750  13.345
25853W        W97382  26.532   4.024   2.865
25854W        W97383  23.623  32.456   1.240
25855W        W97384   4.299  34.075  14.058
25856W        W97385   7.639  19.556  12.606
25857W        W97386  17.542   1.802   1.917
25858W        W97387  41.001  18.383  13.307
25859W        W97388  19.491   7.876  13.832
25860W        W97389  18.170  31.439  12.905
25861W        W97390  29.925   9.688  14.478
25862W        W97391  12.742   8.544  12.936
25863W        W97392  25.126  17.459  12.578
25864W        W97393  17.501  28.167   1.301
25865W        W97394  35.678   9.379  14.936
25866W        W97395  28.222  23.659  11.957
25867W        W97396  39.616  43.880   2.335
25868W        W97397   5.801   7.798  14.800
25869W        W97398  36.895  18.456   4.276
25870W        W97399   8.811  16.027  10.646
25871W        W97400   9.608   9.287   4.941
25872W        W97401  37.836   2.226   0.917
25873W        W97402   2.030   5.314  11.222
25874W        W97403  29.012   4.396   1.145
25875W        W97404  28.999   4.368  14.667
25876W        W97405   9.005  12.104  11.104
25877W        W97406  36.652  19.096  11.660
25878W        W97407  34.449   6.917  13.737
25879W        W97408  14.997  36.338   2.696
25880W        W97409   6.100   3.171  12.413
25881W        W97410  36.220  40.754   2.788
25882W        W97411   3.355  23.606  13.835
25883W        W97412  32.570  40.218  14.567
25884W        W97413  27.223  18.586   1.383
25885W        W97414  44.932  10.194  13.572
25886W        W97415  23.908   1.817   3.428
25887W        W97416  24.554   1.500   0.126
25888W        W97417   2.628  10.283   1.289
25889W        W97418  20.144  26.978  14.302
25890W        W97419  30.512  43.230  13.462
25891W        W97420  29.080  12.388   3.293
25892W        W97421  31.725  10.276   0.359
25893W        W97422  36.345  28.611  10.737
25894W        W97423   6.275  18.614  12.880
25895W        W97424  10.696   5.727   0.273
25896W        W97425   5.173  38.362   4.596
25897W        W97426  10.646  11.417   3.633
25898W        W97427   1.375  32.111   1.751
25899W        W97428  29.630   9.312  12.598
25900W        W97429  15.827   1.893  12.392
25901W        W97430  26.163   9.378  13.810
25902W        W97431  42.663  37.451  13.362
25903W        W97432   1.292   7.662  11.673
25904W        W97433   1.476  32.117  13.889
25905W        W97434  10.158  18.058   4.513
25906W        W97435  33.311  17.638   2.318
25907W        W97436  33.045  36.268   2.764
25908W        W97437  20.341  44.497  14.800
25909W        W97438  27.908   3.269   3.554
25910W        W97439  13.149  20.528  14.473
25911W        W97440   8.376  30.700  12.076
25912W        W97441  10.742  39.182  13.063
25913W        W97442  19.716   0.286   4.899
25914W        W97443   3.844  10.438  10.928
25915W        W97444  43.028  33.443  14.538
25916W        W97445  28.397  40.366  13.433
25917W        W97446  10.140  38.075  13.565
25918W        W97447  12.750  10.217  12.580
25919W        W97448  40.716  23.193   1.911
25920W        W97449  29.493  17.973   3.664
25921W        W97450  43.248   9.089  10.429
25922W        W97451  23.007  32.540   3.919
25923W        W97452  42.512  16.937   0.394
25924W        W97453  43.300   1.906   1.136
25925W        W97454   6.194  32.002  12.068
25926W        W97455   8.544  29.646  11.664
25927W        W97456  12.634  23.016  13.029
25928W        W97457  17.284  40.341   3.144
25929W        W97458  22.730  16.833  11.623
25930W        W97459  15.651  14.616   2.352
25931W        W97460  19.783  27.001  11.643
25932W        W97461  31.962  42.093   0.511
25933W        W97462  26.097  29.685   1.386
25934W        W97463  17.745  17.446  11.963
25935W        W97464  15.305  35.024   0.324
25936W        W97465  30.651  39.373  10.723
25937W        W97466  40.968  19.295  14.066
25938W        W97467   0.797  17.853   5.146
25939W        W97468   0.776  25.177   2.676
25940W        W97469   9.434  27.689   1.184
25941W        W97470  44.460   7.854  10.604
25942W        W97471  33.152   8.221   3.364
25943W        W97472   6.251  39.538   3.283
25944W        W97473  34.917  13.683  11.289
25945W        W97474  38.013  11.906  11.950
25946W        W97475  41.911  40.987  11.132
25947W        W97476  10.836  43.222  11.111
25948W        W97477  14.402   5.380  12.954
25949W        W97478   2.351   1.652   3.681
25950W        W97479  35.952   0.705   2.234
25951W        W97480  32.240  13.723  13.273
25952W        W97481  20.542  18.388  14.904
25953W        W97482  18.190  43.534   3.244
25954W        W97483  10.763  11.659   0.179
25955W        W97484  18.053  24.952   1.890
25956W        W97485  34.619  22.028   3.684
25957W        W97486  26.042  24.264   2.646
25958W        W97487  30.849  25.554   2.741
25959W        W97488  24.611   5.644   0.335
25960W        W97489  26.085  19.188   4.530
25961W        W97490  15.137  12.857  13.352
25962W        W97491  31.255  22.639   0.413
25963W        W97492  39.782  33.881  12.445
25964W        W97493  36.977  29.844   3.131
25965W        W97494   8.642  32.510   4.134
25966W        W97495  35.331  37.315  13.067
25967W        W97496   9.215  10.662   1.632
25968W        W97497  43.070  10.883  11.985
25969W        W97498  24.261  17.723  14.065
25970W        W97499  39.923  32.976   4.569
25971W        W97500  35.402  17.782  11.411
25972W        W97501  39.315  21.659  10.611
25973W        W97502  43.405  41.329   4.871
25974W        W97503  32.258  26.911  11.221
25975W        W97504  26.496  36.586  13.376
25976W        W97505  43.779  24.167  11.042
25977W        W97506  17.573   2.306  13.411
25978W        W97507  34.128  28.868   0.837
25979W        W97508   7.912  41.308  13.965
25980W        W97509  41.707   0.524  14.390
25981W        W97510   9.358   3.372  13.818
25982W        W97511  39.302  19.763  11.171
25983W        W97512   0.761  10.376   4.488
25984W        W97513   9.538  30.567  14.330
25985W        W97514   0.470  36.526   3.796
25986W        W97515  22.638  31.975  13.449
25987W        W97516   0.897   3.277  11.524
25988W        W97517  37.489  28.374   0.938
25989W        W97518  21.699  25.600  10.607
25990W        W97519   7.351  31.101   2.830
25991W        W97520  24.019  41.845  11.367
25992W        W97521  10.183  18.533  12.764
25993W        W97522  30.626  17.529   0.764
25994W        W97523  24.679  14.729  11.170
25995W        W97524   9.641  37.420  11.617
25996W        W97525   8.442  42.541  12.062
25997W        W97526   2.419  15.667  14.540
25998W        W97527  36.046  33.937   0.318
25999W        W97528   5.006   7.765  14.502
26000W        W97529  12.339  31.954   1.279
26001W        W97530  35.140  23.105   2.383
26002W        W97531  16.762  15.254   1.581
26003W        W97532  17.331   0.034  12.330
26004W        W97533   7.255   4.531   0.401
26005W        W97534  17.805  34.762  13.459
26006W        W97535   0.831  35.581  10.284
26007W        W97536  33.122  17.699   1.846
26008W        W97537  18.269  20.009  13.191
26009W        W97538  38.918  32.658   3.313
26010W        W97539   0.020   7.520   0.958
26011W        W97540   6.743   7.368  12.087
26012W        W97541  29.363  25.742   9.555
26013W        W97542   2.452  33.778  10.842
26014W        W97543  17.078  28.373  12.020
26015W        W97544  40.547   5.849  13.466
26016W        W97545  25.487   3.951  13.570
26017W        W97546  25.452  21.477   2.695
26018W        W97547  23.834  27.981  14.751
26019W        W97548  41.428  19.130  13.885
26020W        W97549  26.993  41.902  14.517
26021W        W97550  37.448  17.240   4.665
26022W        W97551   0.560  20.536   0.819
26023W        W97552  29.391  34.549  11.982
26024W        W97553  37.543   7.464   3.507
26025W        W97554   2.370  34.379   3.312
26026W        W97555   4.882  26.682  10.546
26027W        W97556  13.585  11.070  12.524
26028W        W97557  36.915  22.176   1.413
26029W        W97558  42.258  27.591   4.628
26030W        W97559   5.278   0.077   0.835
26031W        W97560  14.821   9.022  12.565
26032W        W97561   9.645  14.179   2.359
26033W        W97562  12.282  14.334  12.914
26034W        W97563  34.839  24.139   4.125
26035W        W97564  33.529   2.441  10.727
26036W        W97565  17.527  24.271   2.795
26037W        W97566   7.608   7.757  12.963
26038W        W97567  18.156  26.955   2.642
26039W        W97568  21.284  42.930  12.980
26040W        W97569  13.544  37.803   0.303
26041W        W97570  35.860  25.043   3.026
26042W        W97571  14.078   6.525  13.297
26043W        W97572  22.299  28.163  14.954
26044W        W97573  42.377  26.716   1.410
26045W        W97574   1.056  28.381   0.398
26046W        W97575  13.052  10.173  13.964
26047W        W97576   0.064  42.621   2.733
26048W        W97577  27.531   2.957  11.152
26049W        W97578  43.815   6.844   0.435
26050W        W97579  19.980  27.224   4.559
26051W        W97580  30.533   5.302   1.704
26052W        W97581  17.294  25.642   3.672
26053W        W97582   0.499  16.646  10.671
26054W        W97583  34.743  23.739   9.916
26055W        W97584  38.482  44.826  11.891
26056W        W97585   3.774  44.495   3.396
26057W        W97586  44.696  11.875   2.348
26058W        W97587  30.155  37.941  13.066
26059W        W97588   6.308  26.164   4.256
26060W        W97589  25.527  28.436   1.476
26061W        W97590   0.001  23.366  12.295
26062W        W97591  26.035  20.540  12.930
26063W        W97592  30.805  16.022   3.238
26064W        W97593  34.822  13.183   3.600
26065W        W97594  10.129  35.015   1.896
26066W        W97595  18.584  26.728  10.155
26067W        W97596  32.547  34.909  11.117
26068W        W97597  20.631   5.495  12.999
26069W        W97598   2.364  34.409   2.276
26070W        W97599  37.364  44.017   3.180
26071W        W97600   6.952  22.536   0.152
26072W        W97601  29.955   9.053  12.902
26073W        W97602   5.801  21.088   0.930
26074W        W97603   9.166   2.458   2.187
26075W        W97604  43.290  10.303  14.322
26076W        W97605  14.061  36.553  11.048
26077W        W97606  19.697  32.043   0.429
26078W        W97607  37.948  10.694   3.120
26079W        W97608   3.407  30.952   3.248
26080W        W97609  26.702   5.880   5.087
26081W        W97610   5.437  44.009  14.428
26082W        W97611  11.348  28.904   3.721
26083W        W97612   8.750  31.129  11.596
26084W        W97613  12.818  35.453  10.513
26085W        W97614   4.772  33.969   2.831
26086W        W97615  31.676  44.584  10.701
26087W        W97616  14.803   3.884  12.484
26088W        W97617  20.680  41.008   2.218
26089W        W97618  26.087  40.759  13.431
26090W        W97619  27.908  21.509   2.666
26091W        W97620  15.592  15.799  11.214
26092W        W97621  17.790   2.712   3.826
26093W        W97622  38.536   0.574  10.509
26094W        W97623   6.447  34.305   3.663
26095W        W97624  10.753  15.360   2.801
26096W        W97625  21.480  14.899  12.934
26097W        W97626  32.327   1.930  14.338
26098W        W97627  34.687  15.374  11.085
26099W        W97628  15.594  17.120  12.285
26100W        W97629  13.914  11.820  13.072
26101W        W97630  34.825  27.147  12.385
26102W        W97631  22.049  23.968  13.554
26103W        W97632  28.935  37.422   2.702
26104W        W97633  20.815  16.967  14.381
26105W        W97634  17.283  44.582   0.347
26106W        W97635  14.901   7.833   0.406
26107W        W97636  33.706  27.730   5.441
26108W        W97637  17.282   2.450   4.616
26109W        W97638  20.655  11.697   3.668
26110W        W97639  32.125   2.960  10.469
26111W        W97640   4.497  27.919   2.736
26112W        W97641  18.037  35.464   1.836
26113W        W97642  19.102  30.142   2.907
26114W        W97643   9.794   7.312   3.796
26115W        W97644  18.357   3.485  13.181
26116W        W97645  41.397  27.405  11.584
26117W        W97646  37.564  14.203  12.719
26118W        W97647  11.641  12.153   2.371
26119W        W97648  12.365  26.602  12.880
26120W        W97649  22.526  13.380   3.612
26121W        W97650   9.083  33.033  14.744
26122W        W97651  36.493  17.951  14.401
26123W        W97652  22.974  38.546   1.918
26124W        W97653   8.372  17.801   2.822
26125W        W97654   9.978  10.205   3.652
26126W        W97655  22.428   8.898   4.376
26127W        W97656  20.770   7.371  14.763
26128W        W97657  44.934   4.011  12.496
26129W        W97658  31.366   5.747   5.014
26130W        W97659  34.931  16.874   4.815
26131W        W97660  38.974   2.941   3.125
26132W        W97661  31.377  13.896  13.394
26133W        W97662  38.956   2.855   4.170
26134W        W97663  26.398  23.677  14.513
26135W        W97664  29.417  18.643  11.231
26136W        W97665  14.340   2.691   1.392
26137W        W97666  32.380  33.518  12.451
26138W        W97667  39.852  37.368   0.338
26139W        W97668  13.182  10.324  12.881
26140W        W97669  31.721   7.704  13.519
26141W        W97670   2.969   0.512  11.053
26142W        W97671  40.321  23.986  11.184
26143W        W97672  13.033  28.382   2.315
26144W        W97673  19.716  24.686  13.947
26145W        W97674  25.018   9.123   4.168
26146W        W97675  37.007  36.487   1.655
26147W        W97676  14.059  17.269  11.950
26148W        W97677  22.196  13.781  12.358
26149W        W97678  30.538  24.559  10.144
26150W        W97679  11.860  15.508   3.612
26151W        W97680   1.277  13.404   1.814
26152W        W97681  35.371  30.071   2.187
26153W        W97682  16.057  20.259   4.081
26154W        W97683   5.939  23.687   1.397
26155W        W97684   4.234  18.573   3.773
26156W        W97685  12.760  24.947  13.389
26157W        W97686   3.964  39.813  13.591
26158W        W97687  39.183   2.390   1.381
26159W        W97688  36.389   1.795   2.715
26160W        W97689  24.992  32.162   2.124
26161W        W97690  37.251   8.567   1.287
26162W        W97691  16.761  26.980  13.528
26163W        W97692  18.781  23.069  10.591
26164W        W97693  18.459  18.665  14.485
26165W        W97694  31.946   2.183  11.011
26166W        W97695  18.738  38.501   4.785
26167W        W97696  33.836   3.815   1.848
26168W        W97697   5.788  44.322  12.507
26169W        W97698   4.162   3.757   0.715
26170W        W97699   1.362  31.964   5.089
26171W        W97700  11.146  33.375  13.784
26172W        W97701  25.165  18.361  13.395
26173W        W97702  19.448  24.766  11.991
26174W        W97703   8.496  44.278  11.922
26175W        W97704  21.589   9.412  14.653
26176W        W97705  44.400  20.683   0.006
26177W        W97706  34.490  35.813   3.124
26178W        W97707  38.469  38.792   3.128
26179W        W97708  21.086  12.186  14.501
26180W        W97709  16.060  17.085  12.524
26181W        W97710  31.462   9.424  14.979
26182W        W97711  23.406   0.280   4.279
26183W        W97712  31.258  29.641  11.044
26184W        W97713  16.764  44.871   0.833
26185W        W97714  44.336   3.969   2.433
26186W        W97715  12.813  39.364   1.261
26187W        W97716  34.728  19.473  13.922
26188W        W97717  25.006   8.851   0.437
26189W        W97718  23.965  18.751   3.279
26190W        W97719  43.472  25.256   5.215
26191W        W97720   8.811  11.752  11.443
26192W        W97721   6.310  33.413   3.632
26193W        W97722  16.843  19.324  11.539
26194W        W97723  25.688  34.669   0.828
26195W        W97724  21.226  41.566  14.065
26196W        W97725   4.615  26.676  13.512
26197W        W97726  18.676  33.342  12.837
26198W        W97727  33.842  32.647   3.396
26199W        W97728   6.381  40.869  11.871
26200W        W97729  41.477  39.486   3.213
26201W        W97730  22.567  30.737   5.066
26202W        W97731  11.848  27.604   4.727
26203W        W97732   7.807  25.424   3.594
26204W        W97733  31.946  20.527  13.059
26205W        W97734  22.467  23.138  14.506
26206W        W97735  28.563   6.135  11.831
26207W        W97736  40.427  43.041   4.761
26208W        W97737  19.586  31.277   3.487
26209W        W97738  15.381  44.170  12.176
26210W        W97739  33.018  26.368   2.768
26211W        W97740  43.050  14.175  12.948
26212W        W97741  27.166  34.482   2.833
26213W        W97742   6.334   0.237   2.821
26214W        W97743   6.054   1.012  11.107
26215W        W97744  14.646  16.125   4.733
26216W        W97745  41.774  32.582  13.737
26217W        W97746  12.939  19.665  11.153
26218W        W97747  10.581  38.294  12.823
26219W        W97748   9.481  22.751  13.192
26220W        W97749  18.227  26.730  11.118
26221W        W97750  39.944  42.877   1.015
26222W        W97751  19.152  11.740  13.326
26223W        W97752   7.465   8.654   2.030
26224W        W97753  28.956  29.654   1.349
26225W        W97754  22.154  16.256  11.097
26226W        W97755  14.340  29.828   3.718
26227W        W97756  41.860  44.396  10.701
26228W        W97757  34.295  33.497   3.740
26229W        W97758   1.779  35.373  12.645
26230W        W97759  14.343  16.685   4.648
26231W        W97760  36.986  13.257   0.094
26232W        W97761  11.149   1.486   1.728
26233W        W97762  33.303  14.215  12.803
26234W        W97763  25.219  24.654   0.880
26235W        W97764  38.126  29.180  10.776
26236W        W97765   4.371  42.495  13.427
26237W        W97766  16.859   0.808   4.123
26238W        W97767  10.747  25.430   4.602
26239W        W97768  36.006   1.343  11.540
26240W        W97769  32.484  22.566   1.907
26241W        W97770   5.978   6.949   1.263
26242W        W97771  14.081  15.754   2.704
26243W        W97772  38.704  27.448  13.029
26244W        W97773  16.204  20.912  12.769
26245W        W97774  34.333   5.319  13.095
26246W        W97775  13.082  35.056   0.838
26247W        W97776   4.283  26.866   3.167
26248W        W97777   0.782  21.282   2.677
26249W        W97778  14.320   5.745  14.096
26250W        W97779  28.262  24.190   0.477
26251W        W97780   8.800  16.375  13.221
26252W        W97781   3.846  40.206  12.425
26253W        W97782   5.895  11.436  13.315
26254W        W97783  34.606  11.371   4.657
26255W        W97784  36.756  27.146   1.258
26256W        W97785  12.251   2.293  13.892
26257W        W97786  43.726  15.321   0.016
26258W        W97787   1.797  15.225  14.211
26259W        W97788  36.096  21.485   1.336
26260W        W97789  16.280   8.712  12.029
26261W        W97790  23.968  12.551   3.234
26262W        W97791  23.045  36.935  11.128
26263W        W97792   7.428  22.409   0.369
26264W        W97793   7.410  27.379   4.192
26265W        W97794  23.499  22.097   2.754
26266W        W97795  25.176  20.234   0.520
26267W        W97796   9.211  18.052   3.233
26268W        W97797  33.154  18.149  13.988
26269W        W97798  33.748   4.237  10.615
26270W        W97799  12.091  25.763  11.905
26271W        W97800   0.859  29.168  10.287
26272W        W97801  41.506  38.607  13.067
26273W        W97802  17.119  30.051  11.146
26274W        W97803  20.113   0.344   2.570
26275W        W97804  39.747  13.403  13.156
26276W        W97805  42.016  38.781  13.100
26277W        W97806   3.692   7.529  14.288
26278W        W97807  30.981  25.993  14.219
26279W        W97808  42.926   3.866   0.712
26280W        W97809  17.335  25.750  14.863
26281W        W97810  12.687  16.282  12.130
26282W        W97811  42.268  36.852  12.028
26283W        W97812  36.368  17.511  12.380
26284W        W97813  38.025  40.368   0.274
26285W        W97814  34.686  32.593  13.561
26286W        W97815   2.712  27.662   1.333
26287W        W97816   6.149  17.553  13.398
26288W        W97817   8.191  35.615  12.372
26289W        W97818   0.740  22.583  10.809
26290W        W97819  32.621  37.822   1.443
26291W        W97820  21.712  29.998   0.651
26292W        W97821  42.646   2.747  11.250
26293W        W97822   9.795  44.393  11.739
26294W        W97823  25.515  33.250  10.944
26295W        W97824  28.626  42.329   2.513
26296W        W97825  26.722   2.650   1.292
26297W        W97826  35.062  20.742  14.379
26298W        W97827  24.936  37.337  14.891
26299W        W97828  30.971  34.056   3.595
26300W        W97829  31.635  43.593   3.341
26301W        W97830   3.811  44.850  12.116
26302W        W97831  40.013  44.415  14.862
26303W        W97832   2.230  27.603  13.301
26304W        W97833  33.404  14.040   2.891
26305W        W97834  43.946  29.027  11.505
26306W        W97835   8.195  18.370  14.017
26307W        W97836   6.813  36.445  11.889
26308W        W97837  20.214  38.355   2.677
26309W        W97838  31.969  10.776  10.733
26310W        W97839   7.867  21.247   3.792
26311W        W97840  35.487  32.606  12.988
26312W        W97841  29.459  13.212   0.233
26313W        W97842  20.184  11.769   5.107
26314W        W97843  12.679  44.597   0.463
26315W        W97844  32.598  19.059   0.297
26316W        W97845  20.984  16.802  12.987
26317W        W97846  43.270  29.873   1.026
26318W        W97847   0.485  38.388   2.731
26319W        W97848  21.561  17.831  10.574
26320W        W97849  31.802  31.065  12.995
26321W        W97850  27.009   6.406   4.505
26322W        W97851  39.933  39.121  10.472
26323W        W97852  23.662  33.890  14.069
26324W        W97853  15.490  28.616   4.010
26325W        W97854  33.245  37.424  10.733
26326W        W97855  27.147  26.046   1.210
26327W        W97856  17.161   2.871   0.720
26328W        W97857  12.230  43.454  10.865
26329W        W97858  22.500  37.328   4.028
26330W        W97859   0.823  37.047  11.609
26331W        W97860  33.744  43.554  12.985
26332W        W97861  12.350  32.290   0.889
26333W        W97862  13.889  18.499   1.524
26334W        W97863  42.467  13.037  14.907
26335W        W97864  32.437   5.016  13.150
26336W        W97865  34.090  39.342   0.952
26337W        W97866   2.866  41.220   3.395
26338W        W97867  17.251   1.835   2.908
26339W        W97868  34.377  26.584  13.502
26340W        W97869  31.440  12.252  13.937
26341W        W97870   6.895   3.801  11.521
26342W        W97871  21.778  27.040   4.056
26343W        W97872  35.338  28.264  13.030
26344W        W97873  30.208  43.886   4.169
26345W        W97874  39.729  41.393  12.825
26346W        W97875  38.605  20.530  11.496
26347W        W97876   7.742  44.885  14.261
26348W        W97877  31.708  17.509  14.410
26349W        W97878  27.950  18.805  12.040
26350W        W97879  41.758  35.033  12.091
26351W        W97880  18.739  26.495   5.013
26352W        W97881  22.203  38.395  12.884
26353W        W97882   6.064  13.973  10.474
26354W        W97883   8.648  32.833   3.721
26355W        W97884   5.819   8.590   1.204
26356W        W97885  41.283  28.718   3.680
26357W        W97886   0.163  28.715  14.597
26358W        W97887  16.059   6.315   0.331
26359W        W97888  25.126  23.964  12.563
26360W        W97889  44.244  40.503   3.149
26361W        W97890  15.168  17.084   1.748
26362W        W97891   9.891  10.163  13.970
26363W        W97892  23.583  17.782  13.324
26364W        W97893  27.191  21.340  10.813
26365W        W97894  25.657  37.977  13.561
26366W        W97895  25.432   4.150   3.375
26367W        W97896  16.956  41.992   4.156
26368W        W97897  44.851   1.659  13.036
26369W        W97898  22.137  41.899   4.546
26370W        W97899  39.407  39.044   5.010
26371W        W97900  38.005  14.640  14.467
26372W        W97901  33.987   0.898   0.789
26373W        W97902  17.180  16.260   1.200
26374W        W97903  36.048  34.894  11.164
26375W        W97904   2.834  15.387  12.139
26376W        W97905  24.103  24.060   0.430
26377W        W97906  11.803  14.390   0.914
26378W        W97907  19.655  41.087   4.500
26379W        W97908  10.675  14.669  12.407
26380W        W97909  10.664  29.279   0.274
26381W        W97910   9.895   3.611   4.103
26382W        W97911  31.417  23.734   1.618
26383W        W97912  28.553  27.258   0.368
26384W        W97913   3.006  14.599   3.260
26385W        W97914  24.262  17.625  14.953
26386W        W97915  36.979  18.521  11.789
26387W        W97916  22.117  28.694  14.936
26388W        W97917  13.387  42.741  13.882
26389W        W97918  27.035  10.873  13.181
26390W        W97919  33.206  28.038   4.811
26391W        W97920  41.813  17.543   3.331
26392W        W97921  24.320  24.379  13.081
26393W        W97922  28.670  29.297  14.687
26394W        W97923  35.807  21.337   0.495
26395W        W97924   0.785   9.387   4.394
26396W        W97925  31.586  29.909  14.463
26397W        W97926  18.755  37.520   4.665
26398W        W97927  23.232  18.768   0.838
26399W        W97928  32.494  37.304   3.307
26400W        W97929  14.822  10.906  12.959
26401W        W97930   8.192  13.680  11.458
26402W        W97931   8.437  19.584  12.060
26403W        W97932  15.595  32.495  13.043
26404W        W97933  10.391   4.516  11.885
26405W        W97934   7.387  36.419   0.014
26406W        W97935   4.956  20.171   2.762
26407W        W97936  15.720   9.434   3.081
26408W        W97937  31.750  29.250   4.565
26409W        W97938  14.667   7.283  14.041
26410W        W97939   9.418  29.606  13.454
26411W        W97940  17.839  21.707   4.967
26412W        W97941  24.519  37.788  11.641
26413W        W97942  11.781  41.934   3.799
26414W        W97943   4.798  23.640  11.464
26415W        W97944  37.125   8.150  14.075
26416W        W97945  29.023  31.213  10.759
26417W        W97946  18.103  28.857  13.498
26418W        W97947  34.274  20.759   3.311
26419W        W97948  32.852   8.150   0.454
26420W        W97949  30.062   9.062   1.143
26421W        W97950  44.362  44.440  10.598
26422W        W97951  26.969  29.659  12.166
26423W        W97952   6.449  19.742   4.242
26424W        W97953  11.637   6.864   0.743
26425W        W97954  23.688  27.082  11.046
26426W        W97955  32.439  37.578  12.621
26427W        W97956  20.718  17.039   4.490
26428W        W97957  13.032   8.325  14.220
26429W        W97958  32.954   5.249  13.410
26430W        W97959  39.764  33.079   4.059
26431W        W97960   5.214   5.934   3.864
26432W        W97961  42.727  40.590  13.051
26433W        W97962  26.726  21.457  10.628
26434W        W97963  41.721  24.962   0.893
26435W        W97964  39.934  25.702  12.951
26436W        W97965  14.172  14.855   4.632
26437W        W97966  28.215  44.473   1.413
26438W        W97967  32.410  30.042   3.276
26439W        W97968  22.640  30.982  10.043
26440W        W97969  21.085  34.692  10.699
26441W        W97970   9.300  39.333  12.405
26442W        W97971  26.240   5.777   2.168
26443W        W97972   7.663   1.297  14.529
26444W        W97973  30.156  44.441  10.537
26445W        W97974  13.019  10.764  14.563
26446W        W97975  13.632   2.365   4.925
26447W        W97976  40.250  28.049   1.285
26448W        W97977  42.787  25.916  12.751
26449W        W97978  21.477   5.973   1.346
26450W        W97979  31.818  23.565  11.991
26451W        W97980  14.721  26.977  13.114
26452W        W97981  11.277  14.885  14.088
26453W        W97982  15.799  39.075  10.750
26454W        W97983   7.107  31.525  10.718
26455W        W97984  26.394  32.378   4.951
26456W        W97985   5.230  23.181   4.527
26457W        W97986  30.110  16.646  14.605
26458W        W97987  17.528  36.781  13.845
26459W        W97988  31.416   6.763  14.900
26460W        W97989  20.249   5.418  12.085
26461W        W97990  11.589  17.577  10.702
26462W        W97991  17.632   4.306   3.750
26463W        W97992  34.166  33.187  13.855
26464W        W97993  37.254  29.051  11.002
26465W        W97994  30.357   8.251   1.687
26466W        W97995  38.585  16.967  11.175
26467W        W97996  13.631  19.488  14.402
26468W        W97997  12.640   7.207  13.813
26469W        W97998  32.060   8.130   4.407
26470W        W97999   5.257  21.017   0.929
26471W        W98000  33.281   7.714   2.310
26472W        W98001  22.043   6.589   3.291
26473W        W98002  20.135   5.831   3.369
26474W        W98003  28.476  36.228   1.110
26475W        W98004  15.006   3.381   2.061
26476W        W98005  15.131  39.322  12.721
26477W        W98006  36.513  35.526  10.646
26478W        W98007  33.028  22.089  12.688
26479W        W98008  36.630  38.298   3.595
26480W        W98009  17.250  43.449   4.174
26481W        W98010  31.014   9.852   0.923
26482W        W98011   5.756  13.729   3.408
26483W        W98012  33.420  30.943   4.409
26484W        W98013  31.697  30.599  12.488
26485W        W98014  37.279  24.144  14.391
26486W        W98015  41.618  13.154   0.686
26487W        W98016  28.661  18.421  12.580
26488W        W98017  28.007   9.918  10.042
26489W        W98018  37.687  36.598  11.121
26490W        W98019  41.599  12.669  10.404
26491W        W98020  18.890  22.739   4.985
26492W        W98021  28.285  17.516  10.344
26493W        W98022   3.579  11.675   5.069
26494W        W98023  34.530  13.075   2.336
26495W        W98024  20.570  40.415  11.820
26496W        W98025  15.991  41.155  14.714
26497W        W98026  41.580   2.735   4.790
26498W        W98027  14.423   4.003   5.277
26499W        W98028  30.498  36.135   1.784
26500W        W98029  44.061  29.682  14.564
26501W        W98030  32.708  39.126  14.023
26502W        W98031  37.522   2.383  14.896
26503W        W98032  42.047  29.042   2.743
26504W        W98033  12.193   0.929   1.187
26505W        W98034  20.144  21.865  11.018
26506W        W98035   1.539  31.098  14.303
26507W        W98036  37.854  19.101   4.152
26508W        W98037  27.966   4.791  11.985
26509W        W98038  23.219  40.552  13.405
26510W        W98039  28.723  22.199  13.830
26511W        W98040  12.406  11.957   1.959
26512W        W98041  44.754  14.609  13.453
26513W        W98042  16.444  26.311   0.698
26514W        W98043  23.537  20.109  11.937
26515W        W98044  22.497  32.447   1.412
26516W        W98045   7.442  39.913  10.773
26517W        W98046   0.917  30.827   4.765
26518W        W98047  14.164  12.793   3.408
26519W        W98048  42.078   8.305  13.339
26520W        W98049  40.865  44.955  11.459
26521W        W98050   7.357  32.513   1.565
26522W        W98051   3.468   8.759   4.672
26523W        W98052  10.203   6.215   4.203
26524W        W98053  10.606  41.474   3.833
26525W        W98054  11.165   4.353  14.437
26526W        W98055  17.966  43.433  14.252
26527W        W98056  42.048  42.438  14.296
26528W        W98057  21.688  44.253   4.141
26529W        W98058  20.241   5.644  10.747
26530W        W98059  44.047  34.821  10.642
26531W        W98060  13.815  23.649   3.085
26532W        W98061  32.384   2.311   4.709
26533W        W98062  31.517  20.703   0.087
26534W        W98063  15.589  36.123  11.470
26535W        W98064   0.490  14.084  13.355
26536W        W98065  30.075   7.650   4.302
26537W        W98066  15.609  31.943   4.644
26538W        W98067  21.988  18.570  13.062
26539W        W98068  34.094  19.728   0.923
26540W        W98069  20.290  31.094  14.949
26541W        W98070  13.179  32.946  12.144
26542W        W98071   6.466  42.289   0.375
26543W        W98072   0.932  20.585   0.482
26544W        W98073   2.988  24.514  14.787
26545W        W98074  32.185   9.938  11.994
26546W        W98075  23.107  38.782  14.859
26547W        W98076  30.453  11.153   4.119
26548W        W98077  15.375   1.300  13.394
26549W        W98078  13.904  29.304  11.904
26550W        W98079  29.077  35.756  10.724
26551W        W98080  17.677   1.784  13.412
26552W        W98081  20.734   9.635   0.802
26553W        W98082  14.603  34.435   1.970
26554W        W98083  16.678  13.938   3.419
26555W        W98084  23.125   8.859  13.803
26556W        W98085  18.077  29.692  12.581
26557W        W98086  41.263  16.313  12.846
26558W        W98087  22.238  11.217  13.886
26559W        W98088  23.428  28.689  13.026
26560W        W98089  13.340  34.664   0.475
26561W        W98090  40.328   9.141   1.885
26562W        W98091  30.818  32.010   1.363
26563W        W98092  11.352  22.014  14.963
26564W        W98093  30.036  43.815  14.755
26565W        W98094  28.523   5.848  13.605
26566W        W98095  39.840  21.614   1.156
26567W        W98096  36.678  20.829   1.443
26568W        W98097   1.452  32.511  14.325
26569W        W98098  16.877   7.346   1.238
26570W        W98099  19.511   4.978   3.246
26571W        W98100  37.761  33.581  10.109
26572W        W98101  28.934  27.964  12.826
26573W        W98102   2.425   2.199   2.973
26574W        W98103  27.304  12.806  14.594
26575W        W98104  14.156  18.141   2.387
26576W        W98105  27.048  19.552  13.946
26577W        W98106  34.461  39.563   3.910
26578W        W98107  17.689  41.089   0.774
26579W        W98108  39.246  11.219  11.047
26580W        W98109  31.850  29.529  11.636
26581W        W98110  28.458  23.439   0.238
26582W        W98111   3.364  23.184   2.412
26583W        W98112  33.564  34.932  11.010
26584W        W98113  39.992   2.056   1.931
26585W        W98114  12.846  41.765   1.358
26586W        W98115  14.153  14.731   3.745
26587W        W98116  24.439  13.763  12.453
26588W        W98117  40.282   1.551   2.427
26589W        W98118  18.092  14.582   1.261
26590W        W98119  22.022  27.545   2.891
26591W        W98120  20.279  27.964   2.633
26592W        W98121  17.393  35.819  13.977
26593W        W98122   8.258  27.999   1.687
26594W        W98123  35.313  23.310  14.832
26595W        W98124   5.868  16.141  11.234
26596W        W98125  23.113  19.201   4.350
26597W        W98126  12.278  19.968   1.551
26598W        W98127   4.862   2.919  10.504
26599W        W98128  25.598  18.194  11.678
26600W        W98129  30.426  40.193   2.126
26601W        W98130   5.857  34.473  13.989
26602W        W98131  31.947  35.424  11.610
26603W        W98132  40.837   2.185   2.435
26604W        W98133  24.151  13.760   0.200
26605W        W98134  14.243  32.266   0.496
26606W        W98135  16.455  10.250   4.657
26607W        W98136  42.592  12.599  12.536
26608W        W98137  18.197  21.376  12.024
26609W        W98138  37.205  28.579  13.601
26610W        W98139   3.280  16.270   1.816
26611W        W98140  12.167   6.458   3.992
26612W        W98141   2.027   4.352   0.618
26613W        W98142  38.428  28.222  14.559
26614W        W98143  35.937  15.648   0.714
26615W        W98144  11.252  44.037   3.161
26616W        W98145   4.181  10.105  11.154
26617W        W98146  18.223  20.351   3.323
26618W        W98147  16.152  18.133   5.102
26619W        W98148  22.152  14.823  11.265
26620W        W98149   1.227  35.128  12.579
26621W        W98150  24.464   2.413  12.157
26622W        W98151  12.527  43.986   4.032
26623W        W98152  19.555  12.724   2.355
26624W        W98153  28.522  11.165  11.785
26625W        W98154  25.723  29.586   1.805
26626W        W98155  24.173   6.924   4.917
26627W        W98156  36.060   9.555   0.267
26628W        W98157   7.886   6.246  11.263
26629W        W98158   8.847  44.374   1.054
26630W        W98159  19.299  15.133  10.781
26631W        W98160   1.683  29.525   4.616
26632W        W98161   0.760  33.366  13.863
26633W        W98162  40.686  24.661   1.765
26634W        W98163   6.756  21.830   4.655
26635W        W98164  42.969  32.569   0.051
26636W        W98165  23.191  18.205  11.061
26637W        W98166  29.188  38.457   3.685
26638W        W98167   1.355  34.003  11.605
26639W        W98168  33.506  44.030   3.713
26640W        W98169  15.384  44.626  14.383
26641W        W98170  34.304  11.204  13.671
26642W        W98171  23.667  31.890   3.650
26643W        W98172  14.637  27.131  11.029
26644W        W98173  22.505   9.371   4.081
26645W        W98174  10.016   7.452  11.786
26646W        W98175  24.274  15.204  11.307
26647W        W98176  12.077  26.818   3.766
26648W        W98177  42.939  27.148  10.601
26649W        W98178  20.064  35.394  14.485
26650W        W98179   2.974  17.824   2.019
26651W        W98180  12.206  42.223  12.443
26652W        W98181  26.942  12.358   1.180
26653W        W98182  32.139   9.738   1.290
26654W        W98183  10.301  32.140   4.095
26655W        W98184   3.543   7.773  12.403
26656W        W98185  20.846  26.623  12.918
26657W        W98186  44.613  39.300   1.337
26658W        W98187   0.995  11.188  10.787
26659W        W98188   6.632  33.427  11.759
26660W        W98189  33.378   7.194  12.976
26661W        W98190  11.870   6.293  13.995
26662W        W98191  36.989  37.250  12.382
26663W        W98192   0.777   6.935  11.607
26664W        W98193  16.660  12.779  14.978
26665W        W98194  10.924  24.733  14.853
26666W        W98195  39.243  42.684  14.515
26667W        W98196   8.503   4.521   2.412
26668W        W98197  40.055   7.462  14.856
26669W        W98198  32.485   6.946  11.644
26670W        W98199  21.877  34.940  10.627
26671W        W98200   0.931  13.750   1.987
26672W        W98201  12.782  17.800   1.274
26673W        W98202   5.477  13.085   1.032
26674W        W98203  37.076  35.009  13.428
26675W        W98204  13.923  24.685  12.061
26676W        W98205  25.945  34.226  14.409
26677W        W98206  27.244  29.931   0.328
26678W        W98207   8.166  11.002  11.916
26679W        W98208  25.386   6.790  14.562
26680W        W98209  42.795  30.809  11.179
26681W        W98210  26.460  23.252   0.763
26682W        W98211  29.497   1.770   3.072
26683W        W98212  36.544   4.700   1.352
26684W        W98213  31.738   9.168   2.383
26685W        W98214  23.633  22.227  14.352
26686W        W98215  31.623   7.884  12.609
26687W        W98216  42.514   4.357  11.429
26688W        W98217  43.600  23.137  14.982
26689W        W98218  27.734  36.283   1.724
26690W        W98219  30.920  22.964  14.920
26691W        W98220  11.217  36.273   2.883
26692W        W98221  38.133  26.452  11.942
26693W        W98222   7.645  23.546   0.919
26694W        W98223  41.897  11.668   4.199
26695W        W98224  38.149  23.745   1.349
26696W        W98225  15.376  40.278   1.803
26697W        W98226  34.456  35.235   2.570
26698W        W98227  32.965   0.297   2.899
26699W        W98228  38.792  13.920  11.171
26700W        W98229  37.628  31.544  14.046
26701W        W98230   0.328  40.774  12.263
26702W        W98231  23.279  25.502   4.052
26703W        W98232  14.988  34.249  14.818
26704W        W98233  42.374  10.781   2.947
26705W        W98234  21.275   4.362   2.694
26706W        W98235   5.449  32.567   2.675
26707W        W98236  20.629  11.393   2.671
26708W        W98237  27.473  31.186   0.541
26709W        W98238  11.882  32.651   3.537
26710W        W98239  22.414  13.787   3.333
26711W        W98240   4.754  15.096   3.731
26712W        W98241  32.965  11.134   2.115
26713W        W98242  19.945  27.237   2.178
26714W        W98243   6.322  40.733  11.401
26715W        W98244   1.896  26.652   2.627
26716W        W98245  31.862  30.959  11.561
26717W        W98246  23.413  13.632  13.369
26718W        W98247   5.021  30.287   3.630
26719W        W98248  29.656  24.502   3.752
26720W        W98249  29.074  15.732   4.460
26721W        W98250  30.803   3.970   3.181
26722W        W98251   6.875  10.951   3.350
26723W        W98252  17.157   8.383   1.240
26724W        W98253  10.309   2.381  13.994
26725W        W98254  42.712  37.477   4.094
26726W        W98255  19.770   9.146   4.193
26727W        W98256  14.112   8.527  11.004
26728W        W98257   4.183  21.576  11.954
26729W        W98258   2.874  29.604  12.729
26730W        W98259  20.129  18.167  14.002
26731W        W98260   9.406  32.227  13.363
26732W        W98261  18.903  32.073  11.125
26733W        W98262  17.708  44.106  13.333
26734W        W98263   6.891  35.915   2.352
26735W        W98264  15.586  19.308   4.830
26736W        W98265  32.990   8.356  13.559
26737W        W98266  23.509  23.223   2.797
26738W        W98267   6.460  20.557  14.360
26739W        W98268  43.520  24.124  11.949
26740W        W98269   0.713  12.273   0.899
26741W        W98270  41.095  13.585  12.374
26742W        W98271  24.237  12.848  10.855
26743W        W98272  19.054   9.810   0.459
26744W        W98273   0.705  44.194   1.838
26745W        W98274   2.673  23.091  14.095
26746W        W98275   8.245  37.109   4.866
26747W        W98276  15.995   0.746   0.344
26748W        W98277  29.181   0.281   1.336
26749W        W98278  36.102  26.461  13.010
26750W        W98279  11.079  42.531  11.650
26751W        W98280  21.188  10.197  11.710
26752W        W98281  18.412   9.189  12.914
26753W        W98282  36.842  15.986   1.543
26754W        W98283  10.260  43.031  12.821
26755W        W98284  24.955   7.797  10.451
26756W        W98285   9.201  20.526  12.804
26757W        W98286  15.154   0.314  14.015
26758W        W98287  31.077  20.269  12.423
26759W        W98288   4.808  30.330  12.867
26760W        W98289  36.590  34.900   0.903
26761W        W98290  25.023  41.480  13.037
26762W        W98291  35.816   3.253   3.671
26763W        W98292  17.076   2.848  11.096
26764W        W98293  35.455  30.789   3.259
26765W        W98294  32.082  18.123   5.072
26766W        W98295  29.157  38.305  11.085
26767W        W98296  12.172  32.689  14.510
26768W        W98297   1.884  21.041  11.650
26769W        W98298   2.756  10.657  10.640
26770W        W98299  15.794  23.285   4.629
26771W        W98300  44.204  35.465   2.211
26772W        W98301  42.473  22.593  12.358
26773W        W98302  39.036   1.454   4.603
26774W        W98303   1.019  37.418  11.255
26775W        W98304  11.905   6.765   3.434
26776W        W98305  35.432  27.929   4.599
26777W        W98306  26.327  10.722  13.001
26778W        W98307  19.926  39.526  14.469
26779W        W98308  44.982   5.438   4.767
26780W        W98309  14.724  20.505  14.270
26781W        W98310  31.618  29.937  11.947
26782W        W98311  42.584  38.279  11.178
26783W        W98312  31.888  10.349   0.846
26784W        W98313  40.745   6.907   0.389
26785W        W98314  21.443   1.742  11.155
26786W        W98315   9.488  42.482  12.453
26787W        W98316  36.055  37.042   4.893
26788W        W98317   7.159  12.177   4.588
26789W        W98318  33.823   4.026  10.064
26790W        W98319   4.617  26.038   4.507
26791W        W98320   5.317  28.591  13.878
26792W        W98321   0.014  18.121   1.023
26793W        W98322  24.577  44.419  14.612
26794W        W98323  44.446  31.263   0.353
26795W        W98324  32.612  11.392   3.764
26796W        W98325  30.899  16.179   2.212
26797W        W98326   0.167  23.483  13.834
26798W        W98327  42.061  38.279  13.872
26799W        W98328  18.186   9.467  10.248
26800W        W98329  22.621  42.172   3.275
26801W        W98330   3.345  23.651   2.667
26802W        W98331  26.259  25.666   0.185
26803W        W98332  35.830  42.310   0.711
26804W        W98333   9.758  18.171   1.697
26805W        W98334  13.688  39.841  14.328
26806W        W98335  31.497  21.436   3.239
26807W        W98336  21.566  14.485  10.959
26808W        W98337   0.811   7.339  10.666
26809W        W98338  42.709   7.162  12.374
26810W        W98339   6.173  28.570   0.390
26811W        W98340  24.254  34.615   0.007
26812W        W98341  33.362  19.674  11.545
26813W        W98342  31.170  29.231  14.785
26814W        W98343   5.279  42.001   4.264
26815W        W98344  29.220   3.832  14.681
26816W        W98345  36.637  25.012  13.376
26817W        W98346   2.543  13.352   2.629
26818W        W98347  28.425   3.383  11.264
26819W        W98348  34.859   1.857   1.297
26820W        W98349  29.508   3.971   2.123
26821W        W98350  22.780   8.603   4.615
26822W        W98351  11.107  22.095   2.746
26823W        W98352  10.883  26.501   1.392
26824W        W98353  16.584  34.362   4.851
26825W        W98354  21.972  16.103  12.468
26826W        W98355  36.630   3.424   4.267
26827W        W98356  18.538  20.766  14.732
26828W        W98357  33.411  37.479   2.184
26829W        W98358  33.129  29.417  12.029
26830W        W98359  38.081   3.670   0.515
26831W        W98360   6.627   9.675  12.563
26832W        W98361  35.033  29.377  10.352
26833W        W98362  18.838  22.650   1.329
26834W        W98363  40.161  35.289   4.557
26835W        W98364  26.957  20.559  14.898
26836W        W98365  28.416  44.099  13.310
26837W        W98366   7.986  38.253   4.197
26838W        W98367  33.433   0.209  10.694
26839W        W98368  17.166   3.880  13.450
26840W        W98369  19.926   5.275   0.469
26841W        W98370  15.810  30.499   4.174
26842W        W98371  35.179   1.416   5.050
26843W        W98372  40.911   1.641  12.161
26844W        W98373  43.068  20.769  11.012
26845W        W98374   4.301  10.937   0.383
26846W        W98375  36.546   6.213   3.703
26847W        W98376  21.326  37.369  14.511
26848W        W98377   5.719  32.144  13.456
26849W        W98378   0.167  14.277   2.494
26850W        W98379  14.166  25.439  14.812
26851W        W98380  31.374  23.234  14.819
26852W        W98381  13.795   0.277   1.805
26853W        W98382  19.770  29.100  13.032
26854W        W98383  23.128  23.228   1.837
26855W        W98384   8.393  21.433   2.048
26856W        W98385   7.602   9.863  13.411
26857W        W98386  23.522  39.347   1.506
26858W        W98387  25.989  32.093   1.278
26859W        W98388  36.487  20.318   2.214
26860W        W98389  39.659  19.907  13.851
26861W        W98390   7.886  12.609  11.726
26862W        W98391  36.067  22.651   0.414
26863W        W98392   5.058  29.590   3.296
26864W        W98393  27.472  11.862   3.300
26865W        W98394   0.710  28.303  10.607
26866W        W98395  19.342   1.806   2.641
26867W        W98396  44.594  10.376  12.040
26868W        W98397  15.729   2.395  14.759
26869W        W98398  12.811  15.293   4.674
26870W        W98399  12.729  33.674  14.000
26871W        W98400   8.227  16.272   1.707
26872W        W98401  43.990  25.132   4.601
26873W        W98402  20.535  37.355   0.724
26874W        W98403  12.559  33.473   1.669
26875W        W98404   5.785   4.440   2.265
26876W        W98405   3.218   7.770   2.048
26877W        W98406  39.464  11.090  12.953
26878W        W98407  20.473  23.802   3.680
26879W        W98408  24.668  24.635   3.980
26880W        W98409  24.947  33.343  11.620
26881W        W98410  10.301  38.391  10.266
26882W        W98411  15.564  21.468   1.985
26883W        W98412  10.210   9.320  13.895
26884W        W98413  32.272   1.800   4.612
26885W        W98414  25.990   9.219   2.707
26886W        W98415  32.315  33.166  12.866
26887W        W98416  12.365   8.897  14.500
26888W        W98417  11.191  39.543   3.035
26889W        W98418  24.582  42.747  13.043
26890W        W98419  35.038  17.238   3.079
26891W        W98420  25.448  12.459   3.609
26892W        W98421  33.395  17.025   3.284
26893W        W98422  12.370  30.484  13.809
26894W        W98423  27.728  32.077   4.697
26895W        W98424  16.292  13.125  14.881
26896W        W98425  14.097  37.099   4.518
26897W        W98426   6.334  28.749   4.617
26898W        W98427  38.337  18.999  10.809
26899W        W98428  32.494  19.113   4.923
26900W        W98429   5.212  26.159  12.123
26901W        W98430  30.097   0.916   0.826
26902W        W98431  26.851  34.666  14.719
26903W        W98432  34.468  38.956   1.732
26904W        W98433  39.214   3.593   0.743
26905W        W98434  24.299   0.840  11.962
26906W        W98435  29.496  44.779  14.493
26907W        W98436  14.939  29.237   3.460
26908W        W98437   3.404   7.342  10.681
26909W        W98438   0.591  13.853   1.174
26910W        W98439   5.384  30.695   4.517
26911W        W98440  16.814  35.554   2.703
26912W        W98441  33.883  33.420  10.752
26913W        W98442   5.775   8.616   1.709
26914W        W98443   5.023  35.535   1.156
26915W        W98444  17.133  29.413  12.051
26916W        W98445   0.526  34.904   3.622
26917W        W98446   1.981   5.449  11.705
26918W        W98447  23.673   6.897   0.414
26919W        W98448  35.194  10.830  11.458
26920W        W98449  34.547  43.349  14.495
26921W        W98450   9.383  11.495  13.187
26922W        W98451  44.679   4.363  11.177
26923W        W98452   2.447  43.323   2.878
26924W        W98453  21.938  27.100  14.035
26925W        W98454  10.406   4.702   1.059
26926W        W98455   7.939  32.972   2.860
26927W        W98456  25.495  19.587  13.996
26928W        W98457  10.658  31.561   0.077
26929W        W98458  26.382  32.908   4.871
26930W        W98459  34.640  19.140   2.280
26931W        W98460  35.961  14.558   1.419
26932W        W98461  22.567  25.696   4.586
26933W        W98462   8.427  31.236  11.988
26934W        W98463  17.831  41.894   2.310
26935W        W98464  11.436  24.480   0.018
26936W        W98465  14.039   0.424   1.285
26937W        W98466  34.265  29.059  11.161
26938W        W98467  21.711  17.022  11.101
26939W        W98468  18.193  20.320   1.033
26940W        W98469  11.614  23.998   2.800
26941W        W98470  16.120  23.185  14.896
26942W        W98471  22.631  25.600  11.590
26943W        W98472   1.991  14.355   4.210
26944W        W98473  14.958  14.175  14.274
26945W        W98474  17.882   5.407   1.806
26946W        W98475  35.708  36.555   2.215
26947W        W98476  19.047  22.963  12.941
26948W        W98477  19.660  39.843  12.439
26949W        W98478  10.827  38.902   2.242
26950W        W98479  31.758  22.591   0.347
26951W        W98480  25.630   6.751  12.720
26952W        W98481  16.531  20.646   1.263
26953W        W98482   5.189  33.404  10.791
26954W        W98483  11.581   2.084   5.090
26955W        W98484  42.407  21.074   2.373
26956W        W98485  20.664  44.500  10.547
26957W        W98486  38.910  23.139   3.654
26958W        W98487   4.968  21.168  13.608
26959W        W98488  22.007  19.646  13.768
26960W        W98489  23.680  34.713  11.667
26961W        W98490  21.720  10.386  11.731
26962W        W98491  27.644   1.766   2.900
26963W        W98492  43.012  12.721   2.217
26964W        W98493  35.083  21.479  12.120
26965W        W98494   2.327  24.611   4.679
26966W        W98495   4.496  21.101   3.709
26967W        W98496   9.616  20.045   3.172
26968W        W98497  25.505  32.119   2.238
26969W        W98498  24.049  33.646  13.275
26970W        W98499  11.615  27.931  13.763
26971W        W98500   8.100   0.613  14.039
26972W        W98501   0.336  40.919  10.842
26973W        W98502  43.848  21.741   3.777
26974W        W98503  27.934  17.805  14.380
26975W        W98504  23.268  13.341   1.923
26976W        W98505  27.707  13.807   1.638
26977W        W98506   2.974  30.087  12.578
26978W        W98507  38.826  13.644   3.559
26979W        W98508  27.604  20.898   1.852
26980W        W98509  29.680  20.789   3.585
26981W        W98510  37.646  28.630   1.824
26982W        W98511  35.670  30.313  11.933
26983W        W98512  28.871  12.872   1.773
26984W        W98513  23.031  43.566   0.367
26985W        W98514  40.765  38.540   0.251
26986W        W98515  23.984   3.384   3.676
26987W        W98516  14.156  37.133   0.283
26988W        W98517  22.556  43.987  13.139
26989W        W98518  44.973  22.534  11.329
26990W        W98519  33.539  40.557  14.019
26991W        W98520  42.038  34.521   4.037
26992W        W98521  11.096  27.451   2.202
26993W        W98522  36.768  12.283   0.415
26994W        W98523  43.204   3.799   4.139
26995W        W98524  29.004   2.467  14.361
26996W        W98525  10.288   9.319  12.510
26997W        W98526   1.442  31.096   4.093
26998W        W98527  23.182  14.375  11.084
26999W        W98528  42.452  18.633   3.082
27000W        W98529  37.091  41.716  10.693
27001W        W98530   5.824  11.078   2.096
27002W        W98531  21.229  33.326   3.838
27003W        W98532  11.614  20.699  11.059
27004W        W98533  14.776  34.359  12.426
27005W        W98534  42.478  20.052   2.635
27006W        W98535  22.284  15.311   0.870
27007W        W98536  18.265  22.594   1.278
27008W        W98537  34.704   0.136  13.032
27009W        W98538   6.757  40.078   2.071
27010W        W98539   5.160  39.505  13.808
27011W        W98540  11.118   2.932   1.910
27012W        W98541  17.081  15.085   0.967
27013W        W98542  16.236   9.037  10.406
27014W        W98543  13.296   3.063   2.121
27015W        W98544  10.589   1.890   0.429
27016W        W98545  37.812  12.671  12.455
27017W        W98546   3.286   3.273  10.575
27018W        W98547  14.530  42.945  13.356
27019W        W98548  13.377  27.108   0.948
27020W        W98549  20.533  14.529  14.828
27021W        W98550  22.424  27.393   4.240
27022W        W98551   0.538  14.126  11.607
27023W        W98552  18.721  25.546  10.272
27024W        W98553  38.580  15.812   4.171
27025W        W98554  39.043  28.097  11.628
27026W        W98555  42.553  26.234  12.113
27027W        W98556  25.006  29.154   1.647
27028W        W98557  13.636  25.697   0.577
27029W        W98558  32.099  40.036   4.108
27030W        W98559  35.997  42.452   3.757
27031W        W98560  23.811   8.873  13.999
27032W        W98561  24.615   1.779   4.677
27033W        W98562  31.269   4.356   4.045
27034W        W98563  29.049  41.530  10.923
27035W        W98564  39.510   8.703   2.268
27036W        W98565  44.774   0.492   2.585
27037W        W98566   1.388  20.390   1.398
27038W        W98567   3.922  13.081   4.192
27039W        W98568  32.874  14.278   4.635
27040W        W98569  41.435  21.007   4.362
27041W        W98570  38.947  44.509  11.174
27042W        W98571  10.487  32.449   2.196
27043W        W98572  34.456  20.988  10.544
27044W        W98573  34.793   1.308   3.331
27045W        W98574  17.033  12.644  12.634
27046W        W98575  34.601  28.678  13.330
27047W        W98576  15.036  25.545   0.408
27048W        W98577  32.865  21.202   2.290
27049W        W98578  38.367  17.615   0.219
27050W        W98579   3.363  13.494   4.730
27051W        W98580  23.234  35.332  13.579
27052W        W98581   7.239  16.068  13.094
27053W        W98582  17.142  20.485  12.218
27054W        W98583   3.072  39.111  14.428
27055W        W98584  29.413  18.896   3.321
27056W        W98585  34.303  17.708   2.577
27057W        W98586  19.234  41.152  12.627
27058W        W98587  19.216  17.614   2.609
27059W        W98588  27.139  35.642  14.074
27060W        W98589  35.487  42.979  14.241
27061W        W98590   9.264  44.858   2.260
27062W        W98591  24.390  37.568  10.760
27063W        W98592  39.533   4.759   2.150
27064W        W98593   8.859  43.412   1.477
27065W        W98594  11.297   9.120   3.628
27066W        W98595  21.410   9.906  14.632
27067W        W98596   9.966  11.975  10.706
27068W        W98597  13.782   6.304  12.110
27069W        W98598   1.382   7.176  11.210
27070W        W98599  42.820  43.751   2.969
27071W        W98600  25.600  35.350  13.935
27072W        W98601  43.454  14.610   4.325
27073W        W98602  39.622  19.034  13.469
27074W        W98603  11.674   3.392  10.314
27075W        W98604  15.294   4.969   2.762
27076W        W98605  42.869  19.856   3.752
27077W        W98606  43.557  34.498  10.734
27078W        W98607  28.212   3.757   0.893
27079W        W98608  42.620  37.610  11.596
27080W        W98609  27.754  27.072   0.357
27081W        W98610   5.701  32.717  13.874
27082W        W98611  29.380  19.805   1.336
27083W        W98612  15.819   3.120   1.802
27084W        W98613   8.986   0.410   0.902
27085W        W98614  35.732  21.305  12.528
27086W        W98615  15.504   7.071   9.791
27087W        W98616  33.406   0.492  13.538
27088W        W98617  15.314  25.647  10.639
27089W        W98618  34.885  44.806   3.932
27090W        W98619  23.706  41.397  11.136
27091W        W98620  18.736  19.548   1.043
27092W        W98621  35.568  39.933   0.268
27093W        W98622   0.487  27.521   0.322
27094W        W98623   6.678  42.407   3.215
27095W        W98624  15.936   7.368   5.422
27096W        W98625  17.380  24.949  14.487
27097W        W98626  34.750   7.894   3.640
27098W        W98627  37.467  21.010   2.828
27099W        W98628  43.923  19.522   3.004
27100W        W98629  37.189   0.350   3.694
27101W        W98630  18.731   6.252  11.040
27102W        W98631  13.742   5.986  12.516
27103W        W98632  33.207  14.569   0.812
27104W        W98633  19.647   9.838  13.749
27105W        W98634  30.052  19.072  12.987
27106W        W98635  21.868   7.802  12.610
27107W        W98636   2.549   4.806   3.839
27108W        W98637  14.653   7.752  14.931
27109W        W98638  18.986   8.796  13.824
27110W        W98639  30.108   1.433  13.502
27111W        W98640   5.646  19.658  12.936
27112W        W98641  29.871  16.864   0.569
27113W        W98642  33.983  32.869  14.212
27114W        W98643  32.329  27.018   3.256
27115W        W98644  25.899  28.241  11.100
27116W        W98645   7.330  35.502   3.740
27117W        W98646  15.632  18.186  11.402
27118W        W98647  28.429  17.220  13.134
27119W        W98648  33.452  13.127   3.104
27120W        W98649  11.904  18.704  10.039
27121W        W98650   0.609  43.085   1.398
27122W        W98651  44.686  35.822  14.868
27123W        W98652   8.159  43.313   3.092
27124W        W98653  28.074  21.181   0.554
27125W        W98654  24.815   2.762   3.654
27126W        W98655   6.626  28.242  10.423
27127W        W98656  34.158  11.705   2.412
27128W        W98657  24.617   2.916   0.706
27129W        W98658   3.898  27.626  12.183
27130W        W98659  27.621  39.666  13.544
27131W        W98660  29.625  20.318  13.958
27132W        W98661  12.806  44.897  13.797
27133W        W98662  35.596   1.268  14.946
27134W        W98663  20.325   4.273   1.573
27135W        W98664  42.757   8.335   2.713
27136W        W98665  28.572   6.924  11.595
27137W        W98666  18.256  33.524   3.277
27138W        W98667  15.834  27.958   3.288
27139W        W98668   7.906   4.360  10.908
27140W        W98669   2.709  11.797  13.864
27141W        W98670  22.298   3.787   0.342
27142W        W98671   5.206  38.426  14.512
27143W        W98672  40.283   6.103  10.745
27144W        W98673   6.847   9.521   3.097
27145W        W98674   5.359  27.773   3.229
27146W        W98675  35.869  40.287   3.088
27147W        W98676  39.969  23.980  13.531
27148W        W98677  15.759  19.431  13.313
27149W        W98678  20.640  20.970  14.872
27150W        W98679  18.748  18.507  14.904
27151W        W98680   5.375  30.679   1.756
27152W        W98681   6.279  28.762  13.973
27153W        W98682  39.759  18.158   0.324
27154W        W98683  35.424  34.339   2.341
27155W        W98684   1.677   6.332   2.271
27156W        W98685   1.181  25.532   4.167
27157W        W98686  40.063   6.179  14.353
27158W        W98687   4.564  44.558  14.846
27159W        W98688  35.413  33.948   4.271
27160W        W98689  34.800  15.324  14.912
27161W        W98690   6.460  22.873   0.302
27162W        W98691  19.070  21.870  13.899
27163W        W98692   4.851  43.811   2.758
27164W        W98693   8.659   7.744  14.964
27165W        W98694  39.421  28.387  12.179
27166W        W98695  32.119  24.230  13.579
27167W        W98696  25.524   6.496   4.516
27168W        W98697  24.126  27.555   4.650
27169W        W98698  21.859  33.724  10.219
27170W        W98699   8.218  18.721   2.429
27171W        W98700  33.410  37.542   1.681
27172W        W98701  37.323  36.302   2.330
27173W        W98702  35.653  16.306  13.887
27174W        W98703  16.539  42.004  11.905
27175W        W98704   1.885   8.383  12.631
27176W        W98705  17.512  17.661  10.736
27177W        W98706  44.109  15.160  14.060
27178W        W98707   2.852  34.482   3.984
27179W        W98708   1.986  13.797   4.282
27180W        W98709  17.917  40.085   3.404
27181W        W98710  40.291   7.897   4.523
27182W        W98711  24.725  15.741  12.566
27183W        W98712  43.044  12.876  12.529
27184W        W98713  44.876  22.499   0.547
27185W        W98714  37.961  17.085   0.707
27186W        W98715  24.728   4.781   3.561
27187W        W98716  43.270  20.007   0.933
27188W        W98717   2.039  32.549  12.110
27189W        W98718  26.969  35.709   4.448
27190W        W98719  31.755  26.927  11.104
27191W        W98720   7.432  11.582   3.876
27192W        W98721  30.216  10.659  13.565
27193W        W98722  22.644  22.832  12.025
27194W        W98723  44.491  39.307   2.760
27195W        W98724  19.607  18.829  13.944
27196W        W98725  44.935  23.841  11.874
27197W        W98726  25.433  39.758  10.798
27198W        W98727  43.094  27.615   4.817
27199W        W98728  20.162  27.494  10.081
27200W        W98729  31.398   0.742  11.047
27201W        W98730   4.236   7.275   0.498
27202W        W98731  42.772  18.513   4.214
27203W        W98732  37.928  33.016   4.698
27204W        W98733  25.699  34.192   4.551
27205W        W98734  12.320  25.537  10.620
27206W        W98735  27.797  31.581  11.173
27207W        W98736  40.803  10.214  12.913
27208W        W98737   5.244  43.929  13.931
27209W        W98738  36.739   5.219  12.128
27210W        W98739  24.963  14.831   4.676
27211W        W98740  11.337   7.268  14.955
27212W        W98741   3.712  23.252   2.010
27213W        W98742   5.104  37.363   1.470
27214W        W98743  22.535  36.578  11.842
27215W        W98744  26.133  30.388  13.639
27216W        W98745  11.634   7.060   3.093
27217W        W98746  22.637  27.326   2.082
27218W        W98747  19.357  31.190   4.720
27219W        W98748  21.100  41.399   1.783
27220W        W98749  37.664  11.881   0.269
27221W        W98750  25.588   0.570  11.502
27222W        W98751  42.172   1.143   4.959
27223W        W98752  42.258  41.713  13.290
27224W        W98753  23.658  13.908   0.298
27225W        W98754  34.576  17.342   2.333
27226W        W98755  14.116  27.011   2.328
27227W        W98756  10.641  30.189  11.201
27228W        W98757  41.272  33.858   0.275
27229W        W98758  11.828  35.377   3.602
27230W        W98759  27.195  38.868  13.473
27231W        W98760  42.829  32.416   0.943
27232W        W98761  38.052  27.062   0.754
27233W        W98762  38.397  37.007  12.209
27234W        W98763  15.247   5.203   0.227
27235W        W98764  28.684  25.148   3.151
27236W        W98765  30.599  13.692  12.779
27237W        W98766  40.974  30.910   3.877
27238W        W98767  34.521  28.714  10.839
27239W        W98768   2.965  14.654  11.434
27240W        W98769  11.065  29.492  10.713
27241W        W98770  32.877   6.679   2.198
27242W        W98771  41.915  41.447  10.931
27243W        W98772  21.770  32.247  12.728
27244W        W98773  34.626  35.072   2.075
27245W        W98774   8.349   0.742   0.475
27246W        W98775  25.661  13.688   4.615
27247W        W98776   2.400  15.830   3.668
27248W        W98777  39.577  35.875   3.649
27249W        W98778  10.708   8.894  11.416
27250W        W98779  43.930   5.267  14.461
27251W        W98780  29.398  37.347  13.400
27252W        W98781  13.653  42.587  12.124
27253W        W98782   3.307   1.479  13.998
27254W        W98783  17.540  41.424   4.669
27255W        W98784   1.316  21.829   4.163
27256W        W98785  34.892   8.673   1.469
27257W        W98786   4.520  29.577  10.731
27258W        W98787  13.898  44.906   0.667
27259W        W98788  33.888   1.865  12.522
27260W        W98789   0.542  26.635  12.917
27261W        W98790  38.901  39.560   3.324
27262W        W98791  26.580   4.835   1.643
27263W        W98792  10.317   7.243   1.714
27264W        W98793  35.949  29.687   3.236
27265W        W98794  39.308  18.064  14.471
27266W        W98795  15.076  12.212  10.706
27267W        W98796  27.744   4.791  11.545
27268W        W98797  21.293  23.336  14.589
27269W        W98798  17.316  19.488   3.098
27270W        W98799   2.451  34.755  12.873
27271W        W98800   2.039   6.742  10.536
27272W        W98801  17.507   6.378   3.788
27273W        W98802  13.944  21.760   4.991
27274W        W98803  44.130  15.515  12.826
27275W        W98804  23.729  40.611   1.298
27276W        W98805  33.398  23.695  10.799
27277W        W98806  37.288   4.981  12.471
27278W        W98807  31.974  28.652  10.691
27279W        W98808  36.055  24.029   2.740
27280W        W98809  37.461   6.759   1.222
27281W        W98810   4.885  20.757  10.861
27282W        W98811  14.731  21.659  12.099
27283W        W98812  14.669  25.016   1.904
27284W        W98813  36.004  19.519  12.135
27285W        W98814  13.232  15.708   3.659
27286W        W98815  31.043  22.778   4.141
27287W        W98816  10.431   9.851   3.486
27288W        W98817  26.417  27.676  11.577
27289W        W98818  26.156   3.337   3.104
27290W        W98819  23.587  27.146   2.842
27291W        W98820  16.180  24.055   1.868
27292W        W98821   4.659  41.927  11.232
27293W        W98822   1.699  10.350  13.495
27294W        W98823  31.199  14.580  11.265
27295W        W98824  34.113   5.415   3.913
27296W        W98825  27.096  26.714  12.587
27297W        W98826   6.787  35.988   0.489
27298W        W98827  29.671  13.853  11.761
27299W        W98828  43.904  21.995  13.328
27300W        W98829  18.488  33.215  11.108
27301W        W98830   8.796   3.345  11.210
27302W        W98831  12.355  19.629   3.679
27303W        W98832  40.044  14.391   1.721
27304W        W98833   3.740  31.524  11.892
27305W        W98834  24.517   4.941  13.437
27306W        W98835  19.122  41.188  13.831
27307W        W98836  15.647   1.703   3.872
27308W        W98837   5.676  19.627  13.507
27309W        W98838  33.553   6.921  13.385
27310W        W98839  29.508  35.749   0.182
27311W        W98840  26.227   3.192  12.952
27312W        W98841  35.256  34.515  12.052
27313W        W98842   9.723  26.140  13.570
27314W        W98843  41.510   4.214   3.418
27315W        W98844  18.244  39.888   0.572
27316W        W98845   4.865   4.112  12.605
27317W        W98846  26.146  39.328   4.696
27318W        W98847  42.110  30.082   1.939
27319W        W98848  35.113  41.064   4.631
27320W        W98849  14.136  17.208   2.727
27321W        W98850   8.621  13.663   1.652
27322W        W98851  13.893  12.120   4.605
27323W        W98852   2.877  11.666  12.883
27324W        W98853   9.084  20.496  14.520
27325W        W98854  43.735  19.119   3.264
27326W        W98855   8.603  33.855  11.986
27327W        W98856  30.820  21.458   2.817
27328W        W98857   6.176  30.647   1.406
27329W        W98858  15.097  22.592  10.861
27330W        W98859   7.889  44.232   1.388
27331W        W98860  22.406  37.806  14.474
27332W        W98861  13.267  11.867   0.895
27333W        W98862  16.862  44.533   2.780
27334W        W98863  18.347  32.135  13.583
27335W        W98864  12.797  18.781   1.240
27336W        W98865  19.538  16.924   3.140
27337W        W98866  28.874  17.562  11.069
27338W        W98867  39.293   2.529   1.859
27339W        W98868  12.223  20.827  13.609
27340W        W98869  24.723  18.471  14.331
27341W        W98870   7.695  42.357   2.336
27342W        W98871   3.801  30.017  10.342
27343W        W98872  10.642  43.734  12.103
27344W        W98873   1.903  44.800  10.402
27345W        W98874  18.759   9.156   2.569
27346W        W98875  40.080  28.997   0.282
27347W        W98876  36.079   5.407   3.945
27348W        W98877  34.982   9.723   3.954
27349W        W98878  35.023  41.382  14.347
27350W        W98879  26.976   5.937  13.926
27351W        W98880  16.875  28.063  14.269
27352W        W98881  22.972  44.834   1.322
27353W        W98882  39.308  15.646   1.472
27354W        W98883   0.325  11.081  13.484
27355W        W98884   4.239  32.074   3.664
27356W        W98885  28.157  33.784   2.200
27357W        W98886  35.013  41.820   4.135
27358W        W98887  27.591  42.978   2.247
27359W        W98888  31.002  26.905   1.758
27360W        W98889  13.081  23.610  13.021
27361W        W98890  17.755   1.408   2.356
27362W        W98891  17.396  30.545   0.653
27363W        W98892  28.365  14.284  11.597
27364W        W98893  30.342  31.870  13.572
27365W        W98894  41.023   3.879  11.912
27366W        W98895  35.109  23.763  14.396
27367W        W98896  31.830  27.140   9.883
27368W        W98897   9.949  20.374  11.568
27369W        W98898   8.176  34.346   4.140
27370W        W98899  33.845  18.462   3.111
27371W        W98900  14.744  23.200  11.251
27372W        W98901  17.032  20.637  12.706
27373W        W98902  14.955   5.320  14.270
27374W        W98903  19.912   5.350   3.181
27375W        W98904  12.719  19.064   2.673
27376W        W98905  22.753   1.283  11.140
27377W        W98906  41.932   5.330  14.607
27378W        W98907  36.498  36.651   1.845
27379W        W98908  39.983  38.812  14.415
27380W        W98909  28.501  30.913  13.772
27381W        W98910   8.429  39.615  10.438
27382W        W98911  39.373   1.533   1.509
27383W        W98912   3.720  23.502  13.447
27384W        W98913  10.876  37.032   2.941
27385W        W98914  44.011  18.685   3.127
27386W        W98915  21.563  15.814  12.813
27387W        W98916  30.664  31.757   3.115
27388W        W98917  42.898  33.114  10.697
27389W        W98918  16.220  18.556  10.036
27390W        W98919  20.805  39.236  11.285
27391W        W98920  30.050  35.405  10.614
27392W        W98921  33.958  39.340   1.947
27393W        W98922  24.596  31.124  11.968
27394W        W98923  10.631   8.352  11.165
27395W        W98924  12.001  33.692  14.313
27396W        W98925  14.854  40.909  11.677
27397W        W98926  37.611  19.491  11.166
27398W        W98927  39.082  19.596  12.827
27399W        W98928  18.243  44.271  10.665
27400W        W98929  36.577  32.790  13.500
27401W        W98930  18.753  30.174   2.187
27402W        W98931   4.207   4.809   0.707
27403W        W98932  40.860  32.967  12.419
27404W        W98933  14.263  36.007   0.184
27405W        W98934  20.715   9.721  12.009
27406W        W98935  25.473  12.217   1.262
27407W        W98936   3.999  30.006  13.302
27408W        W98937   0.839  11.602  10.299
27409W        W98938  26.295  34.032   3.171
27410W        W98939  38.298   2.158   3.741
27411W        W98940  29.588  14.528   0.729
27412W        W98941  38.388  26.619   2.766
27413W        W98942  14.273  10.718   4.525
27414W        W98943  31.864   0.585   0.858
27415W        W98944  29.446  43.908   4.638
27416W        W98945   6.351  17.629   4.101
27417W        W98946  16.394  36.844   1.409
27418W        W98947  43.341  14.330  14.966
27419W        W98948  34.989  20.684   2.829
27420W        W98949  17.717  35.327  11.829
27421W        W98950  25.773  25.108  14.407
27422W        W98951  32.066  43.347   3.210
27423W        W98952  44.935  31.682   4.659
27424W        W98953  26.849   9.261  13.553
27425W        W98954  23.596  31.027  12.110
27426W        W98955  38.999  10.347  12.992
27427W        W98956  18.213  16.528   3.761
27428W        W98957   2.367  19.191   4.372
27429W        W98958  32.012  43.496   1.718
27430W        W98959  18.507   3.379   1.352
27431W        W98960   3.267   9.644   0.635
27432W        W98961   1.875  28.210   3.427
27433W        W98962  36.384  42.793   3.820
27434W        W98963  12.633  43.748  13.050
27435W        W98964  35.049  37.664  10.939
27436W        W98965  27.117  44.546   0.770
27437W        W98966  28.113  42.144   1.860
27438W        W98967  40.018  11.877   1.686
27439W        W98968  14.581  23.793  12.127
27440W        W98969  19.750  15.243   4.972
27441W        W98970  30.057  23.069   0.494
27442W        W98971  20.967  30.454  12.950
27443W        W98972   3.704  37.498   3.606
27444W        W98973  27.490  35.035   2.231
27445W        W98974  19.493  43.010   3.710
27446W        W98975  16.813  37.332  10.395
27447W        W98976  42.295   8.717   3.813
27448W        W98977  16.264  44.072  13.398
27449W        W98978   9.918   4.804  14.630
27450W        W98979  31.368  41.933  13.790
27451W        W98980  25.051  25.638  14.341
27452W        W98981  25.530   2.005  11.664
27453W        W98982  25.575  36.561   0.340
27454W        W98983  13.905  39.876   0.897
27455W        W98984  30.513  33.179  12.613
27456W        W98985   5.442   7.975   3.561
27457W        W98986  35.186  11.071   0.433
27458W        W98987  42.994  38.347  12.009
27459W        W98988   3.958  42.396   3.856
27460W        W98989   9.347  30.991  13.548
27461W        W98990  35.947  33.873  12.835
27462W        W98991  31.576  32.911  11.994
27463W        W98992  34.580  23.215   4.262
27464W        W98993  29.690   8.071  13.065
27465W        W98994  39.399  18.872  12.516
27466W        W98995  27.059  44.512   1.782
27467W        W98996  12.301  35.374   3.197
27468W        W98997  21.095  26.235  14.592
27469W        W98998   2.258  24.045  12.544
27470W        W98999  13.406  26.122   2.445
27471W        W99000  37.840  39.832   1.608
27472W        W99001  37.540   1.026  14.329
27473W        W99002  21.293   1.049   2.365
27474W        W99003  24.504   9.417  13.534
27475W        W99004   4.243   0.017   1.009
27476W        W99005  35.989  31.301   3.776
27477W        W99006  28.050  38.389   4.600
27478W        W99007  18.590  39.582  13.353
27479W        W99008   7.381  15.868  10.603
27480W        W99009   4.332   4.662  14.219
27481W        W99010   2.745  33.562  11.451
27482W        W99011  40.193  22.621   0.818
27483W        W99012  11.781  18.030  13.973
27484W        W99013  43.966  18.139   0.397
27485W        W99014  17.553  21.530  14.705
27486W        W99015  19.157  25.972   2.290
27487W        W99016  15.189  33.839   4.804
27488W        W99017  41.238  31.901   1.884
27489W        W99018  25.478  33.104  11.450
27490W        W99019  35.454  15.413  13.827
27491W        W99020   6.950   1.582   1.204
27492W        W99021  44.834  14.037  14.288
27493W        W99022  23.438   8.331   1.485
27494W        W99023  18.547  40.855  11.098
27495W        W99024   0.557  16.054   1.743
27496W        W99025  44.574  27.985  13.508
27497W        W99026  30.903  28.685   0.796
27498W        W99027  31.115   7.275   1.998
27499W        W99028  12.043  28.928   0.437
27500W        W99029  33.535  39.821  12.238
27501W        W99030  40.351  31.395  11.980
27502W        W99031  35.920  43.032  12.951
27503W        W99032  41.684  42.353   3.216
27504W        W99033  43.420   0.293   3.687
27505W        W99034  35.377  29.611  14.022
27506W        W99035  36.688  44.937   0.833
27507W        W99036   4.424  19.100  10.560
27508W        W99037   7.695  30.690  12.473
27509W        W99038  18.714  36.565   2.641
27510W        W99039   1.110  26.351   5.142
27511W        W99040  13.271  41.068  14.878
27512W        W99041  38.912  40.537   4.179
27513W        W99042  25.800  10.385   1.773
27514W        W99043  22.724  20.022  13.912
27515W        W99044   9.057  40.008  13.898
27516W        W99045  13.298  27.398   3.531
27517W        W99046   1.838  42.296  13.482
27518W        W99047  35.795  13.635   2.723
27519W        W99048  44.878  28.054   3.170
27520W        W99049  36.423  20.099   3.726
27521W        W99050  24.289  41.784   4.302
27522W        W99051  24.186   6.255   2.743
27523W        W99052  11.418  25.543   2.202
27524W        W99053   9.384  14.910   4.597
27525W        W99054  16.711   5.745  12.835
27526W        W99055   1.179   9.411   2.799
27527W        W99056  30.168  37.453   1.377
27528W        W99057  43.934  43.315  13.498
27529W        W99058   8.618  18.077  10.602
27530W        W99059  17.348   0.753   0.712
27531W        W99060  44.954   4.734  10.758
27532W        W99061   7.016  31.138  12.481
27533W        W99062  29.272  10.175   0.253
27534W        W99063  31.875  44.405  14.346
27535W        W99064  14.363  10.197   4.491
27536W        W99065  25.099  34.047   3.306
27537W        W99066  44.770   8.757  12.889
27538W        W99067  35.457  30.572   0.385
27539W        W99068   3.380  39.433   4.093
27540W        W99069   5.665  37.921  12.980
27541W        W99070  40.986  16.653  11.146
27542W        W99071  15.672  40.133   3.191
27543W        W99072  12.838  35.531   3.120
27544W        W99073  30.935  39.926   0.244
27545W        W99074   2.875   6.882   4.645
27546W        W99075  27.441  23.130  12.341
27547W        W99076  36.863   5.160   3.171
27548W        W99077  38.594  27.500   4.038
27549W        W99078  15.415   3.420   0.404
27550W        W99079  18.217  24.367  11.856
27551W        W99080  10.348  23.256  13.473
27552W        W99081  10.035  37.486  11.291
27553W        W99082  24.427   8.377   1.987
27554W        W99083  39.957  13.964  13.958
27555W        W99084  13.199  25.606   0.299
27556W        W99085   4.271  26.673   4.094
27557W        W99086  41.728  23.206   2.767
27558W        W99087  34.946  31.056   2.776
27559W        W99088  34.167  23.682  14.506
27560W        W99089  35.565  15.574  11.815
27561W        W99090  22.942  31.906   4.599
27562W        W99091   8.305  21.731   0.916
27563W        W99092  30.388  35.130  11.529
27564W        W99093  20.256  22.355   2.780
27565W        W99094  34.576   8.155   2.142
27566W        W99095   2.417  20.049  12.455
27567W        W99096  34.134  14.829  12.150
27568W        W99097  30.782   4.864  14.831
27569W        W99098  27.971  24.608  10.145
27570W        W99099  22.622  28.553   0.028
27571W        W99100  37.897  30.705   0.776
27572W        W99101  19.776  13.801   0.188
27573W        W99102  20.215   9.202   1.711
27574W        W99103   6.197   6.933   4.405
27575W        W99104   3.344  18.992   0.357
27576W        W99105  17.565   0.427   3.883
27577W        W99106   6.881  16.313  12.252
27578W        W99107   8.735  34.187   1.271
27579W        W99108   9.094  44.017   2.286
27580W        W99109  29.016  31.160  13.082
27581W        W99110   4.844  42.302   1.925
27582W        W99111  19.528   8.700   4.368
27583W        W99112  13.658  16.868  12.012
27584W        W99113  15.128   4.679  11.014
27585W        W99114  44.962  28.069   9.919
27586W        W99115   6.476  33.119  13.869
27587W        W99116  11.104  27.261   4.508
27588W        W99117  29.751  12.817   5.309
27589W        W99118  34.242  26.408  14.715
27590W        W99119  10.795  32.159   3.284
27591W        W99120  31.955  20.645   1.283
27592W        W99121  38.176  25.449   0.793
27593W        W99122  37.971  38.666   3.991
27594W        W99123  30.846  24.191   4.027
27595W        W99124   4.223  16.098  14.432
27596W        W99125  37.451  35.977   0.859
27597W        W99126   8.887  39.565   4.148
27598W        W99127   1.271  20.260  10.785
27599W        W99128  32.642  17.580   4.055
27600W        W99129  33.096   0.293   0.186
27601W        W99130  21.112  17.346  11.135
27602W        W99131  36.817  26.260  13.641
27603W        W99132   7.278  34.481   1.418
27604W        W99133  11.064   2.980   4.716
27605W        W99134   7.869  22.659   0.256
27606W        W99135  11.391   5.656   1.467
27607W        W99136  21.721   2.978  10.794
27608W        W99137  29.956  41.969  12.446
27609W        W99138  20.723  42.937   1.965
27610W        W99139  22.682   7.950  14.051
27611W        W99140   1.992  41.800   3.666
27612W        W99141  43.691  10.110   0.311
27613W        W99142  32.917  22.435  11.674
27614W        W99143   9.268  35.868   1.656
27615W        W99144   7.374  41.986  12.613
27616W        W99145   7.870   9.592   1.978
27617W        W99146  26.076   0.340   4.095
27618W        W99147   8.852  27.643   1.290
27619W        W99148  10.430  42.592  13.744
27620W        W99149  20.663  42.591   4.527
27621W        W99150   5.301  17.169  14.433
27622W        W99151   1.434   6.793   3.182
27623W        W99152  34.465   4.332   2.019
27624W        W99153  36.048  11.388   0.865
27625W        W99154  10.824   8.399   0.168
27626W        W99155  32.636  16.239  11.100
27627W        W99156  32.877   7.937  11.593
27628W        W99157  28.975  29.097   1.420
27629W        W99158  15.862   6.866   5.464
27630W        W99159  33.647  23.724  14.475
27631W        W99160  26.642  42.453   1.722
27632W        W99161  23.619   2.424  14.118
27633W        W99162  26.170   6.698   3.743
27634W        W99163  43.364   0.313  12.047
27635W        W99164  37.031   7.740   1.449
27636W        W99165  10.866  37.361  10.889
27637W        W99166  24.482   1.030  10.215
27638W        W99167  31.931   1.991  13.993
27639W        W99168  11.686   3.540  14.969
27640W        W99169   4.636   1.681  11.215
27641W        W99170  25.327   3.422  12.051
27642W        W99171  12.302  29.315  14.515
27643W        W99172  17.643  36.912   4.428
27644W        W99173  36.819   1.783  10.668
27645W        W99174  13.567  24.145   1.885
27646W        W99175  19.830   7.729   3.337
27647W        W99176   2.241  36.535  12.329
27648W        W99177  36.081  43.541  12.065
27649W        W99178   6.061  25.215  14.303
27650W        W99179  32.028  37.599  14.573
27651W        W99180  44.928  16.013  14.363
27652W        W99181   8.432  12.828   1.097
27653W        W99182   7.935  34.562  10.915
27654W        W99183  43.697  18.672   3.518
27655W        W99184  42.575   8.287   3.609
27656W        W99185  41.953  36.010  13.433
27657W        W99186  15.136  35.061   3.138
27658W        W99187  31.972  12.129  13.990
27659W        W99188  43.840  24.994  11.699
27660W        W99189  27.998  15.315   4.215
27661W        W99190  36.877  43.410  14.334
27662W        W99191  16.327  41.127  12.513
27663W        W99192  35.354  40.317  14.959
27664W        W99193  44.331  36.630  10.385
27665W        W99194   7.598  31.136   2.372
27666W        W99195  31.401   7.762   1.853
27667W        W99196  27.424   6.233  13.971
27668W        W99197  41.749  33.114   0.401
27669W        W99198  40.979  19.283  12.013
27670W        W99199  30.406  25.306   0.904
27671W        W99200  28.206  24.403  14.504
27672W        W99201  26.985  23.267  12.126
27673W        W99202  34.395   5.716   4.704
27674W        W99203  41.360   3.238  14.524
27675W        W99204  24.420  21.222  13.469
27676W        W99205  42.887  22.904  12.459
27677W        W99206  21.288  38.422  13.453
27678W        W99207   2.683  23.388   0.740
27679W        W99208  22.022  14.732  10.765
27680W        W99209  12.540  37.550  10.481
27681W        W99210   6.212  16.598   1.769
27682W        W99211  12.875  32.861  14.805
27683W        W99212  32.407  22.986  14.799
27684W        W99213  40.026  21.217   4.165
27685W        W99214   8.338  34.346   3.341
27686W        W99215  20.954  39.364  14.417
27687W        W99216   2.641   5.778  11.106
27688W        W99217  27.062  38.510   3.737
27689W        W99218   5.299  20.813  13.839
27690W        W99219  38.220  35.476   2.741
27691W        W99220   2.477  27.405   0.894
27692W        W99221   8.224  39.062   4.440
27693W        W99222  37.677  15.048   1.863
27694W        W99223  15.981   4.725  13.512
27695W        W99224   3.877  42.276  13.344
27696W        W99225  32.917  24.739  12.027
27697W        W99226  38.427  29.330   0.960
27698W        W99227  15.587  30.377   5.130
27699W        W99228  36.546  44.352   2.904
27700W        W99229  31.536  27.341  10.285
27701W        W99230   0.826  32.629  11.626
27702W        W99231   3.814  34.773   2.183
27703W        W99232  38.505   3.714   2.309
27704W        W99233  38.628  29.816  12.100
27705W        W99234  20.704   5.195   3.537
27706W        W99235   8.582  39.570  13.129
27707W        W99236  11.016  31.860   3.634
27708W        W99237  13.837  21.213  13.045
27709W        W99238  40.589  30.468   4.570
27710W        W99239  34.374  22.468  10.584
27711W        W99240  16.290   3.191  12.131
27712W        W99241  21.659   2.427   4.212
27713W        W99242  20.210  16.020  11.842
27714W        W99243  17.163  36.649  14.717
27715W        W99244   3.378  10.606  12.173
27716W        W99245  31.527  38.416  11.400
27717W        W99246  40.936   3.754  10.394
27718W        W99247  39.392  19.004  11.638
27719W        W99248   2.455   6.030  13.366
27720W        W99249   0.643  40.466  10.836
27721W        W99250  22.328  10.214   0.950
27722W        W99251  28.678  33.459   0.788
27723W        W99252  42.712  24.746   0.312
27724W        W99253  38.989  38.854   2.770
27725W        W99254   6.782  37.049   1.013
27726W        W99255  19.177  31.189  13.997
27727W        W99256   4.668  17.068   1.691
27728W        W99257   7.404  15.185  13.502
27729W        W99258  10.184  19.410  13.839
27730W        W99259  18.284  29.881  13.543
27731W        W99260   9.159   7.321   3.157
27732W        W99261   1.592  18.383   1.767
27733W        W99262   3.176  22.436  14.921
27734W        W99263  15.344   0.747   4.110
27735W        W99264  14.702  34.907   4.371
27736W        W99265  22.192  11.657  12.676
27737W        W99266  15.545  12.558   1.473
27738W        W99267  15.861  29.937  10.823
27739W        W99268  32.621  18.199  12.105
27740W        W99269  35.960  24.615   3.337
27741W        W99270  20.513  35.990   4.191
27742W        W99271  36.607  34.151   2.710
27743W        W99272   4.558  21.543  13.897
27744W        W99273  44.303  43.869  12.079
27745W        W99274  38.907  41.352  11.134
27746W        W99275  25.904  39.429   0.533
27747W        W99276  24.198  12.068   3.294
27748W        W99277  19.250  11.674   1.777
27749W        W99278  37.495   8.903   4.585
27750W        W99279  37.041   7.915  12.624
27751W        W99280  33.194  13.690  12.911
27752W        W99281  10.244   9.703  13.310
27753W        W99282  27.437  14.197   2.739
27754W        W99283  11.427   1.613   4.979
27755W        W99284  13.889   7.313  12.217
27756W        W99285  33.304   2.790  14.963
27757W        W99286   5.024   4.403  12.190
27758W        W99287  23.476  30.613   1.311
27759W        W99288   8.412   3.223   3.966
27760W        W99289  15.717  28.430  11.173
27761W        W99290  12.591  23.528  13.001
27762W        W99291  23.692  38.401  14.139
27763W        W99292  35.990  17.623  10.716
27764W        W99293  30.376  38.136  11.544
27765W        W99294   2.954  17.125  13.882
27766W        W99295  16.128  24.965   1.872
27767W        W99296  41.971  18.514  12.963
27768W        W99297  29.534  34.030   1.004
27769W        W99298  43.514  42.903  11.629
27770W        W99299   4.648   4.074  11.374
27771W        W99300  33.403  33.653   2.445
27772W        W99301  11.183  10.879   4.237
27773W        W99302  34.860  19.800  10.591
27774W        W99303  38.343  16.276   3.947
27775W        W99304  15.215  31.822   3.718
27776W        W99305   8.480  27.546   4.728
27777W        W99306  34.223  13.744  13.234
27778W        W99307   7.798   2.733   4.769
27779W        W99308   7.226  29.897  12.624
27780W        W99309   0.021   5.162  12.827
27781W        W99310  18.768  38.444  11.293
27782W        W99311   1.176  14.146   2.265
27783W        W99312  18.635  27.175  13.415
27784W        W99313   1.114  32.903  14.485
27785W        W99314  16.978  24.727  11.485
27786W        W99315   4.316  13.271  12.613
27787W        W99316  36.340  24.520  14.574
27788W        W99317   2.855   8.483  13.414
27789W        W99318  10.152  22.205  10.967
27790W        W99319  42.222  30.011   4.561
27791W        W99320  22.979   2.456  10.464
27792W        W99321  15.555   4.738   2.340
27793W        W99322  19.532  29.527  13.795
27794W        W99323  31.852  22.745  10.691
27795W        W99324  44.924  20.955  13.353
27796W        W99325  44.549  14.732  10.857
27797W        W99326   9.986   7.828  12.151
27798W        W99327  17.394   7.323  11.650
27799W        W99328  41.072  43.786   3.301
27800W        W99329  10.080   6.284  14.300
27801W        W99330  20.349  33.024  14.969
27802W        W99331  11.019  39.375  10.854
27803W        W99332  22.134   1.718   4.437
27804W        W99333  32.707  28.211   3.556
27805W        W99334  43.236  37.268   2.803
27806W        W99335  21.689  41.076   3.676
27807W        W99336  24.733   7.871   3.599
27808W        W99337   1.751  30.515   4.871
27809W        W99338  37.836  25.467   1.219
27810W        W99339  32.737  11.012  12.424
27811W        W99340  28.192  18.516  12.392
27812W        W99341   9.640  13.177   3.296
27813W        W99342   2.519   6.672   4.022
27814W        W99343   0.769   1.612  11.246
27815W        W99344  34.751  27.995  10.360
27816W        W99345   6.175  12.292  13.436
27817W        W99346  37.584  39.335  12.588
27818W        W99347  36.818  29.593   2.255
27819W        W99348   1.893  39.614   3.978
27820W        W99349  26.255  34.492   2.877
27821W        W99350  14.406  13.286   1.518
27822W        W99351  38.989  32.380  11.231
27823W        W99352  36.265  16.217  10.646
27824W        W99353  12.244  21.519  12.349
27825W        W99354   6.691  24.366   1.878
27826W        W99355  20.661  22.745   2.691
27827W        W99356  31.824   3.806   0.115
27828W        W99357  33.070  44.222  14.807
27829W        W99358  33.305   8.068  11.852
27830W        W99359  36.630  20.673   0.676
27831W        W99360  42.491   4.701  13.570
27832W        W99361  43.480  12.333  14.956
27833W        W99362   2.159  15.882  13.410
27834W        W99363  40.556  18.599   3.158
27835W        W99364   4.299  31.246  11.809
27836W        W99365  38.881   3.396   0.397
27837W        W99366  22.334  32.564   4.429
27838W        W99367  25.466   2.797   4.909
27839W        W99368   9.352  35.500  13.464
27840W        W99369  29.172  28.186  14.976
27841W        W99370  38.353  33.128  14.807
27842W        W99371  42.435  42.564  13.030
27843W        W99372  27.163  42.978   3.013
27844W        W99373  22.667  16.058   0.457
27845W        W99374  26.215  20.929  13.909
27846W        W99375  13.075  31.435   3.808
27847W        W99376  38.480  12.631  14.406
27848W        W99377  24.657  39.341   2.874
27849W        W99378  29.689  38.149  13.945
27850W        W99379  39.880  31.777   0.845
27851W        W99380  18.685  21.265  14.739
27852W        W99381  26.736  23.562   2.878
27853W        W99382  35.089   0.994  12.887
27854W        W99383   6.756  40.990  11.483
27855W        W99384  17.708  10.300  14.288
27856W        W99385  36.420   2.510  12.320
27857W        W99386  19.019  29.591   3.596
27858W        W99387  30.721  18.969   3.211
27859W        W99388  44.947   9.095   0.193
27860W        W99389  29.702  15.901  10.311
27861W        W99390  11.698  19.542   0.686
27862W        W99391  21.433   5.050  10.148
27863W        W99392  20.525   7.709   4.572
27864W        W99393  16.209  39.824  12.431
27865W        W99394  11.223  22.804   0.367
27866W        W99395  25.725  21.604  12.441
27867W        W99396  18.030  26.158  10.392
27868W        W99397  43.636  15.658  12.744
27869W        W99398  24.127   5.205  12.230
27870W        W99399  18.048  10.262  11.698
27871W        W99400   8.641   0.534  13.998
27872W        W99401   6.364  33.526   2.152
27873W        W99402  26.693  18.712   2.994
27874W        W99403  42.215  14.084   0.244
27875W        W99404  20.280  27.037   0.354
27876W        W99405   1.495  10.608  12.358
27877W        W99406  32.262  28.010   4.274
27878W        W99407  13.200  11.362   0.942
27879W        W99408   4.476  26.810   5.058
27880W        W99409  13.126  24.513  10.995
27881W        W99410  34.924  15.848   2.318
27882W        W99411  37.278  36.067  14.457
27883W        W99412  31.917  28.090   1.408
27884W        W99413  12.186  17.949  12.642
27885W        W99414   4.745  29.146   0.876
27886W        W99415  33.490  24.137   2.755
27887W        W99416  44.969   5.743  12.131
27888W        W99417  11.639  23.946   4.671
27889W        W99418   4.232   1.436  11.041
27890W        W99419  31.683  39.609  12.848
27891W        W99420  32.233  22.544  14.497
27892W        W99421  13.352  17.275   2.208
27893W        W99422  21.934   7.506   3.155
27894W        W99423   5.704  27.091   3.144
27895W        W99424   4.882  12.544   4.186
27896W        W99425  25.051  23.526  11.526
27897W        W99426  35.103  30.069   0.362
27898W        W99427  23.230  36.856   1.323
27899W        W99428  10.067  27.733  10.360
27900W        W99429  23.136  31.872  12.215
27901W        W99430  23.218  32.053  10.688
27902W        W99431  38.219  33.539  13.064
27903W        W99432   0.232  32.936  12.065
27904W        W99433   4.111  33.532  11.777
27905W        W99434   4.320  39.481   3.950
27906W        W99435  13.162   0.831   5.414
27907W        W99436  30.641   7.815   1.331
27908W        W99437  22.785  14.883   3.624
27909W        W99438  36.064  11.983   3.513
27910W        W99439   2.194  33.861  13.001
27911W        W99440  34.275  12.483  12.989
27912W        W99441  31.584   0.391  13.980
27913W        W99442  17.739   4.110   2.286
27914W        W99443  33.572  17.248   2.842
27915W        W99444  17.462  42.061   4.203
27916W        W99445  24.202   7.625   0.371
27917W        W99446  19.777   6.797   0.963
27918W        W99447   0.184  41.752  12.406
27919W        W99448  22.639  25.246   0.858
27920W        W99449  16.169   0.369   0.658
27921W        W99450  23.487  20.647   0.919
27922W        W99451  27.895  40.023   1.208
27923W        W99452  44.254  28.176  12.552
27924W        W99453  43.045  26.398   2.628
27925W        W99454  22.529  25.018   2.746
27926W        W99455   1.895   6.355  11.518
27927W        W99456  21.088  29.217   0.910
27928W        W99457  40.312  34.055   4.276
27929W        W99458  26.673  20.672   2.297
27930W        W99459   6.144  16.016   2.863
27931W        W99460  12.573  12.222  11.650
27932W        W99461  24.658  18.208  13.405
27933W        W99462   9.865   8.621   1.508
27934W        W99463  28.404  33.583   1.286
27935W        W99464   0.386  28.715  11.288
27936W        W99465  37.891  17.700   2.796
27937W        W99466  29.420  17.763  11.856
27938W        W99467  22.090   9.859   0.185
27939W        W99468  20.504  21.702   1.172
27940W        W99469  26.965  39.190  11.100
27941W        W99470   4.949  42.931   4.521
27942W        W99471  24.470  32.505  13.504
27943W        W99472  11.919  40.001   2.085
27944W        W99473   2.746   4.752   0.956
27945W        W99474   6.990  38.487   0.895
27946W        W99475   9.326  34.813   3.696
27947W        W99476  37.333  33.322  14.596
27948W        W99477  21.140   1.284   0.797
27949W        W99478  29.458   6.922   2.344
27950W        W99479  22.974  16.875   4.558
27951W        W99480   0.321  13.166   3.717
27952W        W99481  21.546   4.863   4.342
27953W        W99482  42.353  23.184  14.501
27954W        W99483  30.643  22.005   2.260
27955W        W99484  15.066  26.894   0.832
27956W        W99485  10.840  34.496  13.267
27957W        W99486  40.348  26.710  13.384
27958W        W99487  29.215  20.050  12.008
27959W        W99488   0.055  32.425  14.351
27960W        W99489  40.766  25.176   1.161
27961W        W99490  29.220   6.718  11.165
27962W        W99491   3.852   8.361  14.427
27963W        W99492  21.751  10.800   4.685
27964W        W99493  33.940  35.393   4.210
27965W        W99494  34.166  28.115   2.239
27966W        W99495  20.622  25.575  13.533
27967W        W99496  19.899  43.801  11.236
27968W        W99497  22.975  24.400   3.264
27969W        W99498  25.541  34.822   2.857
27970W        W99499   4.268  29.709   3.267
27971W        W99500  35.098  25.953  10.143
27972W        W99501  19.904  17.494   4.996
27973W        W99502  19.251  16.413  13.283
27974W        W99503  30.700   1.419   3.836
27975W        W99504  19.260  28.208  11.477
27976W        W99505   1.809  19.631   1.930
27977W        W99506   1.592  24.357  14.958
27978W        W99507   9.631  10.619   2.519
27979W        W99508  44.809  19.849   0.649
27980W        W99509   0.831  36.078   4.702
27981W        W99510  38.013  27.403   0.336
27982W        W99511  15.324  17.037  10.558
27983W        W99512  31.440  42.764  14.307
27984W        W99513  32.603  14.598   4.277
27985W        W99514  27.005  21.561   0.999
27986W        W99515  33.563  34.908  12.061
27987W        W99516  33.787  41.234  12.685
27988W        W99517  41.617  26.538  12.054
27989W        W99518   1.775  36.616   1.210
27990W        W99519  29.859  41.896  10.700
27991W        W99520   3.560  20.594   1.312
27992W        W99521  26.101  30.989  10.829
27993W        W99522   7.233  10.720   4.157
27994W        W99523  43.010   2.154   2.303
27995W        W99524   1.837  20.134   1.279
27996W        W99525  16.820  19.278  12.417
27997W        W99526  21.669  42.997  11.975
27998W        W99527  28.631   3.820   2.739
27999W        W99528  44.783  23.838  12.410
28000W        W99529  22.689  35.425   3.528
28001W        W99530  33.627  39.236   5.007
28002W        W99531  30.230   9.860   2.249
28003W        W99532  10.284  14.187  14.102
28004W        W99533  14.091  22.429  11.821
28005W        W99534  26.458   1.355   0.159
28006W        W99535  11.824  21.777  10.717
28007W        W99536  22.471   3.681  14.875
28008W        W99537   3.170   5.825   0.417
28009W        W99538  39.457  12.027  11.617
28010W        W99539  34.844  26.128  12.714
28011W        W99540  23.148  30.051   2.637
28012W        W99541  10.741  13.186  13.295
28013W        W99542  36.341  22.150  14.353
28014W        W99543  38.703  44.877   2.340
28015W        W99544  38.639  19.644   0.801
28016W        W99545  15.436   1.014   5.086
28017W        W99546  19.463  27.402  11.704
28018W        W99547  27.302  19.652   5.084
28019W        W99548  17.604  27.889  13.620
28020W        W99549   6.320   0.766  13.042
28021W        W99550  24.609  30.435  12.636
28022W        W99551   7.963   0.485   0.828
28023W        W99552  22.161   1.315   3.830
28024W        W99553   0.184  35.131   3.293
28025W        W99554  38.529  40.838   1.689
28026W        W99555  23.567  36.427  10.956
28027W        W99556   7.603  35.789  14.051
28028W        W99557  24.562  17.012   1.184
28029W        W99558  27.026   9.886   0.815
28030W        W99559  32.877  19.515   0.209
28031W        W99560  18.851  27.416  12.528
28032W        W99561  38.929  34.145  11.401
28033W        W99562   5.239  27.989   9.970
28034W        W99563  29.393  35.627   3.885
28035W        W99564   3.937   1.957   3.667
28036W        W99565  25.306  15.817   1.958
28037W        W99566  44.449  36.353  11.481
28038W        W99567   2.063   9.560   2.196
28039W        W99568  37.342  36.512   2.803
28040W        W99569  16.084   9.857   2.882
28041W        W99570  43.076  22.089  14.928
28042W        W99571   6.987  19.562   1.844
28043W        W99572   7.350  24.133  11.553
28044W        W99573  30.097  21.958   4.112
28045W        W99574  23.040   5.474  13.549
28046W        W99575  44.998  12.209  14.767
28047W        W99576   8.254  15.676   1.374
28048W        W99577   0.008   8.078   1.844
28049W        W99578  29.983  14.607   2.266
28050W        W99579   9.732  12.721  11.134
28051W        W99580  11.447  44.021  13.333
28052W        W99581  30.048  24.486  14.615
28053W        W99582  20.887  12.607   4.866
28054W        W99583  34.371  10.325   3.254
28055W        W99584  18.491  41.256   2.116
28056W        W99585  42.060   1.242   3.128
28057W        W99586   4.085  32.549  13.175
28058W        W99587  14.821  40.196  12.974
28059W        W99588  11.543  25.247  14.213
28060W        W99589  29.616  38.902   1.400
28061W        W99590  30.264  19.812  12.511
28062W        W99591  30.660  27.961  11.519
28063W        W99592   1.264  34.149   1.556
28064W        W99593  22.747  23.221   0.756
28065W        W99594  38.561   4.269  11.572
28066W        W99595  11.051  33.031   0.145
28067W        W99596   6.532  24.548  12.637
28068W        W99597  18.352   9.731   4.614
28069W        W99598  25.789  35.352   3.616
28070W        W99599  34.236   4.755   2.814
28071W        W99600  19.272  43.788  12.392
28072W        W99601  36.822  32.561  11.462
28073W        W99602  43.936  43.553  11.955
28074W        W99603  41.844  42.571  12.371
28075W        W99604  32.954   6.714  11.595
28076W        W99605  26.705  33.581  11.404
28077W        W99606  21.679  12.000  12.342
28078W        W99607  38.429  37.338  11.419
28079W        W99608  12.737   1.651   4.390
28080W        W99609  41.051  31.438   4.744
28081W        W99610  38.881  27.652   4.459
28082W        W99611   5.955   0.402   2.502
28083W        W99612  25.285  32.355  12.457
28084W        W99613  19.232   6.357   4.635
28085W        W99614  18.586  13.736  13.961
28086W        W99615   8.926  30.940   0.472
28087W        W99616  24.030  13.703  12.767
28088W        W99617  41.256  41.842  13.826
28089W        W99618  24.972  28.646   2.346
28090W        W99619  20.523   8.900   3.681
28091W        W99620  12.709   3.194   3.642
28092W        W99621  17.109  16.987  13.535
28093W        W99622   6.851  44.777   1.173
28094W        W99623  34.340  37.043  14.073
28095W        W99624   9.693   4.216  14.822
28096W        W99625   2.769  32.322  14.531
28097W        W99626  31.566   5.389  12.088
28098W        W99627   5.998  35.041   0.305
28099W        W99628  19.048  16.729   3.205
28100W        W99629   6.286  26.588  10.241
28101W        W99630  23.249  13.752   1.228
28102W        W99631  17.136  34.436  14.552
28103W        W99632   2.284  22.187  14.837
28104W        W99633  11.220  10.403   3.084
28105W        W99634  11.295  16.859  11.388
28106W        W99635  29.494   8.714  14.331
28107W        W99636  43.903   8.043   3.374
28108W        W99637  27.433  18.907  12.134
28109W        W99638  32.165  40.330  11.855
28110W        W99639  35.828   1.837  11.574
28111W        W99640  20.294  10.646  12.014
28112W        W99641  11.808   0.259  13.122
28113W        W99642  33.441  44.369   0.659
28114W        W99643  35.083  10.591   4.866
28115W        W99644   5.907  25.862  14.961
28116W        W99645  35.856  41.274  12.427
28117W        W99646   1.528   2.908   2.174
28118W        W99647   1.367  16.082   2.908
28119W        W99648  13.197  23.803  14.637
28120W        W99649   0.340   7.657   3.733
28121W        W99650  34.983  32.610   3.227
28122W        W99651  37.262  12.410   1.172
28123W        W99652  16.467  44.575   4.726
28124W        W99653  41.837  19.800   1.521
28125W        W99654  20.972  23.667   3.704
28126W        W99655  38.286  21.585   4.687
28127W        W99656  11.736   4.932  14.287
28128W        W99657  38.108  38.537   1.187
28129W        W99658  28.711  28.403   4.930
28130W        W99659   9.338   8.278   3.232
28131W        W99660  34.493  23.701   0.496
28132W        W99661  13.052  12.133   2.787
28133W        W99662  21.696   3.841  13.770
28134W        W99663  18.913  14.980   4.049
28135W        W99664   9.187  33.320   1.005
28136W        W99665  44.840  41.815  11.194
28137W        W99666  21.128  17.844   4.489
28138W        W99667  34.341  29.571   3.716
28139W        W99668   4.792  27.557   0.472
28140W        W99669   3.466   7.893  14.566
28141W        W99670  14.624  18.135   2.644
28142W        W99671  10.089   5.128  12.864
28143W        W99672   4.226  10.751   0.861
28144W        W99673  23.970  17.173  14.956
28145W        W99674  23.614  10.644   0.348
28146W        W99675  28.631  31.919  10.793
28147W        W99676  32.019   7.728   4.097
28148W        W99677  15.120  18.075   2.868
28149W        W99678  21.922  17.991  12.453
28150W        W99679  43.428  11.581  13.543
28151W        W99680  42.878  22.466  12.690
28152W        W99681  22.498  31.490  11.674
28153W        W99682  27.756   4.720   4.142
28154W        W99683   0.433  30.737  11.619
28155W        W99684  18.057  32.518  14.858
28156W        W99685  27.153  38.221  11.117
28157W        W99686  23.186  35.113   2.910
28158W        W99687  32.019   1.669   1.625
28159W        W99688  14.380  31.491  11.636
28160W        W99689  26.600  19.806   2.851
28161W        W99690  33.267  23.026  12.440
28162W        W99691   7.596  16.229  14.352
28163W        W99692  26.701  14.290   0.348
28164W        W99693  16.688  12.917   1.724
28165W        W99694  44.751  15.320  11.542
28166W        W99695  23.760  21.471   1.406
28167W        W99696  11.703  26.383   5.070
28168W        W99697  17.496  37.397   0.915
28169W        W99698   9.437  32.354   0.865
28170W        W99699  24.994  40.532   0.991
28171W        W99700  29.331   3.741   1.666
28172W        W99701  22.633  30.980   1.266
28173W        W99702  23.560  26.195   3.544
28174W        W99703   2.414  28.797  13.042
28175W        W99704  21.139  22.098   4.097
28176W        W99705  33.054  26.683   1.971
28177W        W99706  29.587  36.187  13.916
28178W        W99707  22.721  13.145  13.194
28179W        W99708  14.779   0.850   1.420
28180W        W99709  13.030  38.848  12.072
28181W        W99710  40.238  13.169  10.616
28182W        W99711  10.437  21.050   2.246
28183W        W99712  31.447  25.784   3.961
28184W        W99713   3.276  27.054  10.335
28185W        W99714  29.333  40.382  13.445
28186W        W99715  23.029  12.866   0.746
28187W        W99716  18.475  12.160  11.519
28188W        W99717  43.591   2.211  13.513
28189W        W99718  14.367  20.746   1.387
28190W        W99719  19.226  10.475   2.380
28191W        W99720  15.685  22.043  14.414
28192W        W99721  37.306   4.665  11.338
28193W        W99722  39.460  43.060  14.269
28194W        W99723  13.687  21.303   1.780
28195W        W99724  31.898  43.828  13.043
28196W        W99725  38.479  28.388  13.277
28197W        W99726  17.511  34.171  10.786
28198W        W99727   3.215  17.116  14.340
28199W        W99728  38.933   4.351   4.473
28200W        W99729  35.563   6.274   0.284
28201W        W99730   8.389  25.399  14.888
28202W        W99731   0.384   5.486   2.591
28203W        W99732   2.304  39.020  13.855
28204W        W99733   9.518   6.866   3.839
28205W        W99734  26.851  10.154  11.926
28206W        W99735  41.232  22.676  14.014
28207W        W99736  16.306   4.932   4.592
28208W        W99737  34.111  38.004  13.980
28209W        W99738   9.116  43.459  13.292
28210W        W99739  27.709  19.501   4.122
28211W        W99740  38.838  13.629   3.046
28212W        W99741  39.788  43.838  10.543
28213W        W99742  13.754  26.157   0.814
28214W        W99743   3.939  12.766   3.781
28215W        W99744   5.318   8.014  13.978
28216W        W99745  42.420  14.083   1.454
28217W        W99746  30.052  13.273   3.270
28218W        W99747  37.688  10.732  12.437
28219W        W99748  38.024  20.504  10.723
28220W        W99749  10.778  19.546  11.173
28221W        W99750  31.068  38.908   0.535
28222W        W99751   1.482  15.301  10.781
28223W        W99752  32.387   4.714   3.754
28224W        W99753  25.545   3.516  13.848
28225W        W99754  41.263  31.238   3.123
28226W        W99755  37.109  31.509  10.605
28227W        W99756  42.712  41.813   4.270
28228W        W99757  16.544   2.840  12.866
28229W        W99758  33.496  27.543   1.199
28230W        W99759  14.185   1.289  13.807
28231W        W99760  40.439  42.578   5.182
28232W        W99761  10.723  35.349  13.339
28233W        W99762  22.516  21.118   0.932
28234W        W99763  26.986  18.162  12.295
28235W        W99764  15.617  42.544  13.696
28236W        W99765  11.249  38.303  14.552
28237W        W99766   8.188  27.054   2.993
28238W        W99767  42.276  40.519  13.482
28239W        W99768  10.368  13.212   5.002
28240W        W99769  30.948  14.008   3.711
28241W        W99770   6.748  15.785   0.108
28242W        W99771  19.032   6.850  14.029
28243W        W99772  20.942  26.631   1.948
28244W        W99773  28.502  44.393   3.352
28245W        W99774  17.821  44.535  10.703
28246W        W99775   3.539  38.279   0.012
28247W        W99776   7.472   5.903  13.165
28248W        W99777  44.493  24.177   4.613
28249W        W99778  42.901  31.048   4.140
28250W        W99779   5.416  23.995   4.184
28251W        W99780  27.594  13.196   2.376
28252W        W99781  18.750  43.718   4.173
28253W        W99782  37.988  14.755   3.187
28254W        W99783   9.177  12.449  10.746
28255W        W99784   0.353   4.271   3.245
28256W        W99785  26.025  23.460  14.240
28257W        W99786  39.505  21.529   2.880
28258W        W99787  29.665  11.291  13.885
28259W        W99788  42.511   9.713   1.438
28260W        W99789   3.607  20.131   1.902
28261W        W99790   5.813  42.027  11.655
28262W        W99791  23.033  29.191  11.851
28263W        W99792  19.516  29.728   3.645
28264W        W99793  38.124  21.609   3.357
28265W        W99794   1.488  23.438  10.752
28266W        W99795  28.879  33.693   4.013
28267W        W99796  14.543  32.925  12.603
28268W        W99797  40.583  41.791   0.771
28269W        W99798  43.912   2.644   4.121
28270W        W99799   3.923  33.132   1.958
28271W        W99800  15.330  42.440  11.722
28272W        W99801  27.466   5.750  13.779
28273W        W99802  29.916  38.306   1.850
28274W        W99803  20.310  28.057  13.484
28275W        W99804  33.336  20.644  11.507
28276W        W99805  28.007  24.595  12.628
28277W        W99806   4.413  35.708   2.931
28278W        W99807  31.811   5.234   3.162
28279W        W99808  20.548  27.523  11.402
28280W        W99809  20.549  21.110   2.399
28281W        W99810  27.147   8.379  14.370
28282W        W99811  20.078  41.101   0.441
28283W        W99812  18.034  10.446   2.435
28284W        W99813  21.666  43.904  10.592
28285W        W99814  20.306  32.919  11.601
28286W        W99815   0.405  30.006   2.671
28287W        W99816   4.628   8.557  13.924
28288W        W99817   1.710  32.063  14.720
28289W        W99818   1.977  11.219   2.381
28290W        W99819  33.043   0.295   1.368
28291W        W99820   4.735  19.671  13.430
28292W        W99821  23.578  18.541   2.364
28293W        W99822  37.339  26.646   2.816
28294W        W99823   2.333  37.539   4.187
28295W        W99824  19.154  28.221   1.717
28296W        W99825  17.723  28.129   5.580
28297W        W99826  31.559  39.199   4.815
28298W        W99827  16.228  31.174  11.175
28299W        W99828   7.498  33.126   0.699
28300W        W99829  41.867  42.251   4.124
28301W        W99830  24.926  36.893  11.015
28302W        W99831  24.415   0.502  14.364
28303W        W99832  11.621   6.399   1.430
28304W        W99833  16.311  37.942   2.485
28305W        W99834  39.586  33.620  10.635
28306W        W99835   9.937  38.517   2.132
28307W        W99836   1.412  42.424   3.879
28308W        W99837  27.653  33.972   2.162
28309W        W99838  17.588  44.325  11.112
28310W        W99839   9.190  31.885  12.120
28311W        W99840  31.684  11.629  11.142
28312W        W99841  36.634  39.257   2.859
28313W        W99842  23.857  34.567   1.436
28314W        W99843  33.384  21.274   2.847
28315W        W99844  40.921  44.110   0.933
28316W        W99845  21.221  42.765  14.868
28317W        W99846  21.810  36.561   1.282
28318W        W99847  11.235  24.605   4.801
28319W        W99848  15.837  39.056   5.082
28320W        W99849  24.160   5.850   3.241
28321W        W99850  22.239  35.025  12.411
28322W        W99851  22.670  24.810   2.308
28323W        W99852  20.831  40.725  14.142
28324W        W99853  24.747   8.862   2.921
28325W        W99854   8.389  27.142  12.992
28326W        W99855   0.825  35.890   1.865
28327W        W99856  16.360  21.087   3.198
28328W        W99857  30.544  13.425   2.057
28329W        W99858   3.012  17.402   1.683
28330W        W99859  36.398  13.400   4.743
28331W        W99860  37.496  31.030  14.470
28332W        W99861  27.654  12.614   0.432
28333W        W99862  23.167   1.802  14.508
28334W        W99863  32.902  43.722  10.651
28335W        W99864   2.862  38.666   4.685
28336W        W99865  11.120  32.179  13.844
28337W        W99866  27.408   9.973  11.083
28338W        W99867  19.565   6.879   1.971
28339W        W99868  11.651  26.397  11.584
28340W        W99869  42.036  18.253   0.425
28341W        W99870  27.470  35.865   2.413
28342W        W99871   8.866   4.955  13.508
28343W        W99872  19.943  41.066   3.625
28344W        W99873  21.455  40.097  11.985
28345W        W99874  41.055  29.906  12.174
28346W        W99875  30.067   6.448  12.188
28347W        W99876  26.090  20.703  10.851
28348W        W99877  23.914  17.338  13.984
28349W        W99878  20.246  27.957   3.161
28350W        W99879   6.203  27.319  14.780
28351W        W99880  26.970  14.085  12.009
28352W        W99881  43.994  42.136   4.844
28353W        W99882   9.338  38.947   1.951
28354W        W99883  37.583  43.870   3.613
28355W        W99884  39.111  15.705  11.499
28356W        W99885  11.496   5.719   4.150
28357W        W99886  34.343  44.411  14.450
28358W        W99887  25.859  34.489  14.852
28359W        W99888  25.274  43.627  12.171
28360W        W99889  25.401  23.354  10.260
28361W        W99890  26.132  26.917   0.042
28362W        W99891   0.723  44.422   2.825
28363W        W99892  16.815  10.626  11.999
28364W        W99893  37.244  22.059   1.848
28365W        W99894   3.376  43.439  13.938
28366W        W99895   7.744   6.269   2.167
28367W        W99896  37.950  18.314  14.365
28368W        W99897  33.914   5.610  10.745
28369W        W99898  40.743  37.807   3.923
28370W        W99899   7.200   9.410   3.656
28371W        W99900  43.402  25.931   1.914
28372W        W99901  20.534  26.564  11.468
28373W        W99902  29.244   4.698  11.181
28374W        W99903  40.360   3.292  14.943
28375W        W99904  39.087  22.399   3.173
28376W        W99905  30.825  31.143   0.792
28377W        W99906  41.783  11.609   1.421
28378W        W99907   0.378  28.501   3.786
28379W        W99908   8.030   4.395   2.286
28380W        W99909  32.439  15.268  11.128
28381W        W99910  38.478   9.817  10.898
28382W        W99911   2.178  23.859  10.277
28383W        W99912  22.019  36.915  14.262
28384W        W99913  32.614   2.773  10.394
28385W        W99914  43.264  31.700  14.826
28386W        W99915  11.915  29.094  12.453
28387W        W99916  38.427  17.092   3.311
28388W        W99917   3.912  15.085  11.351
28389W        W99918   5.038  36.436   2.326
28390W        W99919  21.614  31.969  11.907
28391W        W99920  17.137  40.415   4.621
28392W        W99921  24.988  28.440  11.068
28393W        W99922  33.081  10.191  11.154
28394W        W99923  37.908   5.277   3.431
28395W        W99924  31.033  24.227   2.385
28396W        W99925  15.004   0.209  11.150
28397W        W99926  31.092  34.472  10.373
28398W        W99927  10.324  15.631   2.903
28399W        W99928  24.174  40.249   2.400
28400W        W99929  26.982  36.122  14.162
28401W        W99930  43.329  10.274  10.317
28402W        W99931  31.538  44.338   0.851
28403W        W99932  40.804  29.068  13.088
28404W        W99933  26.907  39.240   3.212
28405W        W99934   4.162   8.741   0.318
28406W        W99935  12.827  39.581  11.085
28407W        W99936  36.770  11.426   1.860
28408W        W99937  34.036  26.075   4.239
28409W        W99938  10.182  27.611   1.641
28410W        W99939  20.725  41.702  14.494
28411W        W99940  32.725  44.079  10.272
28412W        W99941  37.344   0.118  12.542
28413W        W99942  42.448  38.109   1.217
28414W        W99943   0.496  43.453  13.050
28415W        W99944   8.699  27.739  11.597
28416W        W99945  13.172   3.871   3.271
28417W        W99946  27.180  33.873   1.272
28418W        W99947  30.606  31.412   0.386
28419W        W99948   2.290   8.257  13.082
28420W        W99949  15.062  16.512  13.508
28421W        W99950  38.938  28.460  12.024
28422W        W99951  10.353  34.903  10.808
28423W        W99952  12.387  31.665  11.200
28424W        W99953   9.698  11.322  14.336
28425W        W99954  29.158  41.270  11.766
28426W        W99955  22.660  44.572  11.075
28427W        W99956  23.426  15.597  11.626
28428W        W99957   7.121   5.950   0.552
28429W        W99958   6.811  14.567   1.415
28430W        W99959  42.586   1.882   4.751
28431W        W99960  28.103  29.882   0.900
28432W        W99961  11.765  42.740  12.100
28433W        W99962  30.915  41.554   3.645
28434W        W99963  25.905  38.249   4.574
28435W        W99964  43.620   1.928   4.551
28436W        W99965  39.418   8.309   4.099
28437W        W99966  11.602   8.669  14.729
28438W        W99967  36.304   5.812  13.321
28439W        W99968  13.374  36.032  11.108
28440W        W99969   7.240   2.732  14.477
28441W        W99970  26.242   0.481   2.237
28442W        W99971   8.118  44.801   3.154
28443W        W99972   7.781  27.683  11.527
28444W        W99973  20.648   7.692   3.703
28445W        W99974  31.450  38.827  12.173
28446W        W99975  33.243  29.135  13.568
28447W        W99976   7.804   7.281  14.084
28448W        W99977   0.330  18.861  14.519
28449W        W99978  43.414   9.967   2.526
28450W        W99979  27.726  41.900   2.576
28451W        W99980   3.801   8.620   3.217
28452W        W99981  35.418  21.715  12.650
28453W        W99982  11.247  43.738   3.604
28454W        W99983  12.773  21.540  10.385
28455W        W99984  37.826  33.543   0.489
28456W        W99985  23.929  36.313  11.559
28457W        W99986  19.189  35.963  12.412
28458W        W99987   6.781  30.543   3.179
28459W        W99988   6.459  40.967   2.775
28460W        W99989  30.675  26.986   2.452
28461W        W99990  35.094  39.959  10.677
28462W        W99991   7.450  11.358  10.510
28463W        W99992  16.780   1.943  12.898
28464W        W99993  29.411  32.532   5.041
28465W        W99994  36.486   6.426   3.201
28466W        W99995  14.859  42.935  11.737
28467W        W99996  29.219  23.115  11.514
28468W        W99997  28.337  22.997   4.129
28469W        W99998  25.056  37.826  14.816
28470W        W99999  16.455  28.103  12.350
28471W        W    0   1.197  11.022   1.753
28472W        W    1  27.953  24.707  13.121
28473W        W    2  15.041  24.707   1.211
28474W        W    3  14.601  23.917  10.366
28475W        W    4  37.805  38.055  14.845
28476W        W    5  41.252  38.038   0.749
28477W        W    6  43.767  28.889  12.834
28478W        W    7  28.479  28.291  11.071
28479W        W    8  23.594  14.023  11.109
28480W        W    9   3.822  15.742   1.339
28481W        W   10   2.788   7.877  12.051
28482W        W   11  14.789  39.545   4.134
28483W        W   12  11.373  25.400  14.742
28484W        W   13  38.416  44.420  13.744
28485W        W   14  35.266   8.275   4.770
28486W        W   15  11.953  44.201   1.413
28487W        W   16  42.358  38.945  14.905
28488W        W   17   4.382  32.874   2.706
28489W        W   18  17.463  10.396  14.728
28490W        W   19  31.961  31.474  11.723
28491W        W   20  44.495  21.163  11.736
28492W        W   21  29.596   6.722  13.560
28493W        W   22   4.278   1.235  14.582
28494W        W   23  34.598  33.526   1.851
28495W        W   24  14.761   2.227  11.168
28496W        W   25  21.063   5.175  11.731
28497W        W   26  32.849  10.360  11.612
28498W        W   27   2.272  25.649   4.520
28499W        W   28  20.551   2.700  12.969
28500W        W   29  41.117   1.964   2.836
28501W        W   30   7.305  13.677   1.834
28502W        W   31  25.226   2.633  10.464
28503W        W   32  21.500   3.708   0.816
28504W        W   33  16.218   1.981   2.675
28505W        W   34  34.626  12.686   4.156
28506W        W   35  16.656   3.293  13.617
28507W        W   36   6.291  41.458  10.888
28508W        W   37  42.245  28.160  10.998
28509W        W   38  20.580  42.703  14.346
28510W        W   39  21.558  12.853  12.226
28511W        W   40  16.544   5.758   1.362
28512W        W   41  32.755  25.099   3.548
28513W        W   42  15.814  35.193  11.431
28514W        W   43  32.147  21.769   2.259
28515W        W   44  42.490  39.038  11.593
28516W        W   45  13.144   6.086   1.357
28517W        W   46  20.620   0.675   1.913
28518W        W   47  13.428  16.622  11.608
28519W        W   48  36.856  10.026   1.003
28520W        W   49  29.757  20.512   0.294
28521W        W   50  43.521  39.353  13.017
28522W        W   51   2.287  20.228  11.072
28523W        W   52  17.640  27.014  13.605
28524W        W   53   9.737  41.680   1.093
28525W        W   54   2.918  34.411   2.284
28526W        W   55  10.437  16.687   4.429
28527W        W   56  16.165  13.026   1.829
28528W        W   57   1.264  39.874  14.949
28529W        W   58  11.403   9.691   1.222
28530W        W   59  25.121  31.673   4.622
28531W        W   60  34.000  41.422  13.301
28532W        W   61  24.103   8.814   3.457
28533W        W   62  41.394  17.492   4.723
28534W        W   63   5.046  34.591  12.403
28535W        W   64  10.345   4.968   0.642
28536W        W   65  31.989  30.617   4.812
28537W        W   66  22.934  18.273  12.370
28538W        W   67  31.905  29.913   1.186
28539W        W   68  17.026  12.640   4.073
28540W        W   69  41.817  22.200   2.802
28541W        W   70  17.126   1.499  11.265
28542W        W   71  17.350  20.490  11.251
28543W        W   72  17.598  44.557   2.147
28544W        W   73  31.139  35.102  12.434
28545W        W   74  30.432  27.204  14.059
28546W        W   75  31.872  25.456   0.850
28547W        W   76   0.495  13.528   3.320
28548W        W   77  27.631  19.397  12.080
28549W        W   78  40.581  31.501   2.773
28550W        W   79   4.326  38.847   2.188
28551W        W   80  21.311  15.588   2.146
28552W        W   81   4.345  24.029  13.001
28553W        W   82  14.815   6.652   2.785
28554W        W   83  29.492  13.684  11.292
28555W        W   84  12.477   8.825  11.417
28556W        W   85  30.082   6.594  11.242
28557W        W   86  31.330   6.324   0.474
28558W        W   87  21.155  34.665   1.860
28559W        W   88   4.723   1.319   0.274
28560W        W   89  23.654   7.329   1.705
28561W        W   90  18.260  25.167  14.336
28562W        W   91  38.372  37.538  10.521
28563W        W   92  19.816   3.432  10.652
28564W        W   93  20.512  40.853  10.614
28565W        W   94  21.008  36.779  12.613
28566W        W   95  44.238  18.209  13.126
28567W        W   96  26.097  22.038  13.458
28568W        W   97  28.939  39.065   0.154
28569W        W   98  43.879  36.845  10.683
28570W        W   99  14.264   7.462  11.860
28571W        W  100   4.856  40.929   3.671
28572W        W  101   9.328  20.426   0.557
28573W        W  102  17.217  28.693   1.318
28574W        W  103   5.867  30.892   1.758
28575W        W  104   9.387  19.512   4.912
28576W        W  105   4.509  28.503   2.713
28577W        W  106  40.440  32.198  11.565
28578W        W  107  28.729  34.507  14.544
28579W        W  108   5.690  38.163  14.524
28580W        W  109  37.845  18.228  12.469
28581W        W  110   8.178   1.994   4.321
28582W        W  111   9.415  10.835   3.056
28583W        W  112  33.172  34.555   4.656
28584W        W  113  14.208  14.178   3.224
28585W        W  114  43.977  36.249  14.737
28586W        W  115   9.151  38.179  11.029
28587W        W  116   5.921  27.034  12.393
28588W        W  117  11.206  43.508  11.390
28589W        W  118   7.674  32.629   4.416
28590W        W  119  30.378   3.480  11.610
28591W        W  120  34.017   6.466   2.714
28592W        W  121  37.766  43.232  13.552
28593W        W  122  34.112  40.434  11.560
28594W        W  123  33.766  28.523   0.254
28595W        W  124  28.098   3.304  14.177
28596W        W  125  35.099  33.065  11.868
28597W        W  126  41.420  13.270   1.151
28598W        W  127  36.426  35.099   4.832
28599W        W  128  38.300  30.991  13.140
28600W        W  129  17.086  31.909  10.941
28601W        W  130  29.634   9.176  11.113
28602W        W  131  12.240  11.562  12.518
28603W        W  132   5.310  28.004   2.314
28604W        W  133  30.645  43.556  11.610
28605W        W  134  19.938  22.556  12.417
28606W        W  135   9.807  39.843   4.674
28607W        W  136  13.134  32.440   2.820
28608W        W  137  24.444   6.663   0.611
28609W        W  138  38.255  15.724  12.583
28610W        W  139   4.766  19.859   3.645
28611W        W  140  28.219   3.251  12.903
28612W        W  141  11.808  43.913  14.917
28613W        W  142  44.265   1.222  13.940
28614W        W  143  36.447  31.338   0.077
28615W        W  144   6.382  35.812   3.896
28616W        W  145  28.548   7.426   3.936
28617W        W  146  35.102  39.853   0.843
28618W        W  147  12.862  38.324   4.100
28619W        W  148  12.171  11.632   2.377
28620W        W  149  15.550   4.679  10.655
28621W        W  150   9.769  18.779  12.941
28622W        W  151   7.130   9.196   1.843
28623W        W  152  18.744  28.115  14.445
28624W        W  153   2.309  13.162   3.038
28625W        W  154  38.050  29.338   0.405
28626W        W  155   4.963  15.604   2.273
28627W        W  156  41.864  39.392   3.558
28628W        W  157  41.934  21.907  14.062
28629W        W  158  39.362  21.281  14.053
28630W        W  159  19.587  26.470  14.512
28631W        W  160  39.451  43.505  14.573
28632W        W  161   3.795  27.388   4.875
28633W        W  162   5.759  28.345   1.307
28634W        W  163  32.144  38.433  12.664
28635W        W  164  30.596  27.164   0.835
28636W        W  165  14.267   6.945   3.089
28637W        W  166  36.899   8.156   4.944
28638W        W  167  41.937   9.842  12.405
28639W        W  168  39.106  38.063   4.613
28640W        W  169  30.904  34.577   4.007
28641W        W  170  35.909  28.135  14.890
28642W        W  171  26.111  19.926  11.091
28643W        W  172   7.672  12.837  13.058
28644W        W  173  17.548  22.627  10.489
28645W        W  174  41.065  43.537   0.896
28646W        W  175   9.675  39.330  13.844
28647W        W  176  16.747   6.676  10.687
28648W        W  177  14.645  41.244   3.219
28649W        W  178  41.535  24.356   0.411
28650W        W  179  15.063   3.500   0.011
28651W        W  180  24.465  39.427   3.328
28652W        W  181  34.770  18.827   4.228
28653W        W  182  40.872   2.331  13.954
28654W        W  183  37.384  13.383  13.525
28655W        W  184  21.145  23.350   4.558
28656W        W  185  37.919   3.194   0.030
28657W        W  186  25.728  38.663  11.954
28658W        W  187  31.535   6.741   1.398
28659W        W  188  44.781   0.012   2.142
28660W        W  189   8.665   2.523   1.429
28661W        W  190  28.594  35.141   3.801
28662W        W  191  28.991  18.706   0.753
28663W        W  192  41.448  38.048   4.587
28664W        W  193  19.720  16.118   3.770
28665W        W  194  35.321  41.336  12.423
28666W        W  195  27.838  41.728   0.241
28667W        W  196  17.234  13.157  14.934
28668W        W  197  40.103  31.498   1.880
28669W        W  198  44.054  40.380  10.445
28670W        W  199  24.194   4.513   2.867
28671W        W  200   0.740   1.012   1.721
28672W        W  201  22.340  38.838   1.395
28673W        W  202   6.508   0.389  12.122
28674W        W  203  13.704  10.432   1.308
28675W        W  204   1.623   8.952  13.823
28676W        W  205  38.565   7.172  13.873
28677W        W  206  27.930  14.978   5.025
28678W        W  207   8.586  17.993   2.322
28679W        W  208  36.576  24.691   1.480
28680W        W  209  38.859  33.196   4.204
28681W        W  210  36.873   5.894   1.780
28682W        W  211  31.346   1.244  10.194
28683W        W  212  16.534  33.946   0.772
28684W        W  213  22.464  16.373   3.191
28685W        W  214   4.460   5.385   4.635
28686W        W  215  39.029  11.335   2.740
28687W        W  216  40.836  19.529   0.246
28688W        W  217  42.961  33.156   3.771
28689W        W  218  13.368  30.067   1.804
28690W        W  219  27.745  37.757   0.478
28691W        W  220  44.368  22.287  10.403
28692W        W  221  14.495  37.304   3.276
28693W        W  222  35.860   7.271  11.507
28694W        W  223   8.464  31.912  14.887
28695W        W  224   6.948  37.976  13.960
28696W        W  225  28.484  33.274   3.026
28697W        W  226  32.675  23.988   0.884
28698W        W  227  41.525  11.167   1.390
28699W        W  228   9.670  40.081   0.288
28700W        W  229  41.050  35.484  11.580
28701W        W  230  28.468   4.791   4.713
28702W        W  231  29.067  19.677  13.789
28703W        W  232  21.137  15.681   2.610
28704W        W  233  44.936  26.855  10.605
28705W        W  234   7.275  22.793   3.974
28706W        W  235  42.556  34.813  12.057
28707W        W  236  13.158  42.895   1.711
28708W        W  237  13.695  10.792  12.104
28709W        W  238  32.161  19.527  14.613
28710W        W  239  18.837   3.353   1.738
28711W        W  240  44.598  10.683   0.226
28712W        W  241  33.945   6.516  11.813
28713W        W  242  32.355   2.376  11.220
28714W        W  243  25.481   7.887  11.111
28715W        W  244  16.621  27.945   1.875
28716W        W  245  11.523  18.605   4.175
28717W        W  246  25.498  12.017  14.585
28718W        W  247  38.578  30.045  12.556
28719W        W  248   5.140  30.876  10.800
28720W        W  249  28.257  37.841   0.421
28721W        W  250   7.528  41.775   2.739
28722W        W  251  32.608   7.152  11.200
28723W        W  252   1.277  18.066   0.307
28724W        W  253  18.252  13.712   0.720
28725W        W  254  10.424  28.544   3.198
28726W        W  255  13.834  11.574  13.824
28727W        W  256  15.327  30.338   4.137
28728W        W  257  41.363  21.638  13.427
28729W        W  258  20.028  11.516  14.821
28730W        W  259  12.371  43.174  14.803
28731W        W  260  19.195  40.987   0.232
28732W        W  261  16.377  31.524  13.839
28733W        W  262  39.490  41.436  14.837
28734W        W  263  24.248  20.614  14.992
28735W        W  264  41.944  27.458  13.090
28736W        W  265  14.520  12.797  11.089
28737W        W  266  13.087   2.341  14.921
28738W        W  267   1.248  22.509  10.975
28739W        W  268  11.567  38.043  10.769
28740W        W  269  27.370  21.139   1.445
28741W        W  270  22.611   4.826  12.880
28742W        W  271  32.607   3.429   3.266
28743W        W  272  13.776  17.251  13.448
28744W        W  273  24.411  35.514  12.174
28745W        W  274  37.294  23.045  14.330
28746W        W  275  20.658  11.559   0.803
28747W        W  276  10.185   5.159  11.350
28748W        W  277   8.559  13.731  13.517
28749W        W  278   9.154  17.555   3.419
28750W        W  279   7.840  20.010  10.128
28751W        W  280  25.763  20.034  13.823
28752W        W  281  29.699  11.877  12.131
28753W        W  282   9.208  29.421   3.523
28754W        W  283  16.636  18.348   2.338
28755W        W  284  24.408   4.115  11.587
28756W        W  285  12.087   0.126  11.900
28757W        W  286   0.264   9.663   3.422
28758W        W  287  38.526  40.801   4.504
28759W        W  288   2.891  40.007  11.090
28760W        W  289  31.349  15.370   0.292
28761W        W  290  28.433  41.874  12.640
28762W        W  291  24.071  12.333   0.587
28763W        W  292  28.106  15.572   3.532
28764W        W  293  39.453   3.942  14.232
28765W        W  294  27.439  19.102  11.651
28766W        W  295   1.223  25.997  10.656
28767W        W  296  22.111  32.586   1.093
28768W        W  297   0.256   2.209   3.823
28769W        W  298  22.185  39.246   1.710
28770W        W  299  15.575  44.480   4.703
28771W        W  300  33.602  21.599  13.941
28772W        W  301  36.666  19.507  13.978
28773W        W  302   9.795  44.401   3.354
28774W        W  303   2.643  32.098   2.397
28775W        W  304  26.222  30.022   2.512
28776W        W  305  28.075  14.402  13.753
28777W        W  306   8.744  17.804   0.707
28778W        W  307  11.697  41.059   1.962
28779W        W  308  33.469  34.526   0.910
28780W        W  309   6.195   9.602  13.413
28781W        W  310  27.416  12.277   2.113
28782W        W  311  13.336  28.684  10.476
28783W        W  312  33.049  36.776   2.786
28784W        W  313   6.961   5.872  13.080
28785W        W  314  33.018   0.842   1.325
28786W        W  315  26.538  37.898   2.125
28787W        W  316  16.741  21.097   1.435
28788W        W  317  29.067  41.928   4.085
28789W        W  318   7.581  39.908   4.890
28790W        W  319  35.860  20.672  12.842
28791W        W  320  44.697  39.370   0.823
28792W        W  321  40.823  23.127   0.474
28793W        W  322  21.771  38.354  13.189
28794W        W  323  30.147  27.620   1.408
28795W        W  324  13.801  35.617   1.494
28796W        W  325  27.417   8.837   0.056
28797W        W  326  11.575  16.183  13.948
28798W        W  327  36.410  19.047   1.726
28799W        W  328  22.792  23.737  11.987
28800W        W  329  10.539  27.211   0.153
28801W        W  330  12.174   4.881   4.108
28802W        W  331   1.899  34.271  13.879
28803W        W  332   0.931  33.280   4.588
28804W        W  333  26.371  11.390   0.087
28805W        W  334  37.146  19.011  14.696
28806W        W  335   6.926  36.428  11.404
28807W        W  336  13.248  33.337  11.802
28808W        W  337   5.201   5.379  12.169
28809W        W  338  16.760   6.180   1.788
28810W        W  339  42.005   1.176  12.939
28811W        W  340  16.623  43.430  14.745
28812W        W  341  25.168  36.401  12.148
28813W        W  342  33.517  30.477  11.188
28814W        W  343  10.922   3.971   2.691
28815W        W  344  19.734  12.619   0.833
28816W        W  345  15.119  21.669  14.957
28817W        W  346  16.875   8.402  11.477
28818W        W  347  15.301  32.381  13.450
28819W        W  348  38.249  39.365   0.744
28820W        W  349  22.643  19.292  12.745
28821W        W  350  24.550  10.579  10.565
28822W        W  351  40.917   1.473   0.911
28823W        W  352   5.752  17.350  12.889
28824W        W  353   1.764  15.014  12.388
28825W        W  354  18.756   6.757  12.866
28826W        W  355   1.356  10.903   4.725
28827W        W  356  33.669  10.390   4.074
28828W        W  357   9.874  37.170  14.567
28829W        W  358  11.232  32.494  12.327
28830W        W  359  13.830  25.547  12.125
28831W        W  360  19.175   3.845  11.435
28832W        W  361  19.948  34.278   0.380
28833W        W  362   2.934  36.531  12.894
28834W        W  363  19.733  18.713  10.356
28835W        W  364   0.716   3.860  12.119
28836W        W  365   0.019  18.615   3.320
28837W        W  366  13.630  23.645  10.758
28838W        W  367   9.256  30.014   4.255
28839W        W  368  21.514  12.429  12.613
28840W        W  369   8.057   4.175  12.170
28841W        W  370  27.147  18.036   3.253
28842W        W  371  41.956   3.264  12.964
28843W        W  372  16.172  44.323  13.904
28844W        W  373  38.535   3.752   0.118
28845W        W  374  10.743  44.001   3.618
28846W        W  375   8.290  35.435   0.264
28847W        W  376  12.766  36.048  11.161
28848W        W  377  41.932  13.327   2.850
28849W        W  378  12.027  17.726  10.982
28850W        W  379  27.394   2.952   4.224
28851W        W  380  16.125  28.053  13.791
28852W        W  381  42.321  26.657   4.852
28853W        W  382  24.617   7.580  11.193
28854W        W  383   7.837  37.721  12.825
28855W        W  384  35.608  31.505  12.016
28856W        W  385  22.030  29.340   3.034
28857W        W  386  41.531  21.186   2.665
28858W        W  387  25.178  32.309  10.703
28859W        W  388  25.058   5.162  14.807
28860W        W  389  44.017  18.283  14.678
28861W        W  390  20.171  44.519   5.328
28862W        W  391   5.147  28.481  13.379
28863W        W  392  20.713  24.535   2.405
28864W        W  393  19.181   2.893  10.734
28865W        W  394  43.437  42.427  13.719
28866W        W  395  11.202  39.784   4.401
28867W        W  396  17.998  40.281  10.383
28868W        W  397  31.696  41.749  11.101
28869W        W  398   1.945  25.622  11.945
28870W        W  399   6.787  29.708  14.898
28871W        W  400  22.599   7.559   2.244
28872W        W  401   7.516  29.094   0.249
28873W        W  402  33.385  38.676   3.621
28874W        W  403   6.494  20.697   4.842
28875W        W  404  29.662  37.424  12.014
28876W        W  405   5.693  31.566   1.316
28877W        W  406   2.738  41.019   1.379
28878W        W  407  44.960   1.718  14.782
28879W        W  408  39.354  38.077  11.135
28880W        W  409  27.232  41.071   0.667
28881W        W  410  22.261  25.605   4.176
28882W        W  411  20.357  38.527   1.681
28883W        W  412   6.817   4.721   0.652
28884W        W  413  31.909  43.796  10.404
28885W        W  414  21.231  33.847   4.711
28886W        W  415  33.567  20.199  11.626
28887W        W  416   6.523  19.649  12.624
28888W        W  417   6.347  23.981  12.473
28889W        W  418   4.865  12.336   1.779
28890W        W  419  35.455  24.620   3.186
28891W        W  420  42.013  13.577  10.720
28892W        W  421   1.776  24.730   1.629
28893W        W  422   6.898  10.967  11.589
28894W        W  423  17.173  20.686   2.164
28895W        W  424  35.326  43.061  11.972
28896W        W  425  16.622  25.483  12.023
28897W        W  426   0.441  41.315   2.746
28898W        W  427  18.832   0.267   1.436
28899W        W  428  13.332  44.752  13.839
28900W        W  429  21.656  30.022   0.131
28901W        W  430  42.812  27.273   0.192
28902W        W  431  16.897  15.147  13.794
28903W        W  432  20.135  10.398   3.255
28904W        W  433  44.295  36.810   1.809
28905W        W  434  30.589  38.119  12.034
28906W        W  435  29.803   0.695  11.156
28907W        W  436  36.044   1.065  11.103
28908W        W  437  28.496  10.651  11.645
28909W        W  438  20.374  32.156   4.621
28910W        W  439  32.549   7.275  14.368
28911W        W  440  19.322  13.289   2.152
28912W        W  441  42.919  14.036  10.761
28913W        W  442   4.173  17.653   3.304
28914W        W  443   9.257   9.642  13.040
28915W        W  444  18.173   7.850   3.310
28916W        W  445  30.328  24.952   2.220
28917W        W  446   2.809  15.650   1.439
28918W        W  447  24.813  11.369   3.719
28919W        W  448   7.852   9.225   2.376
28920W        W  449  37.889  30.642   1.700
28921W        W  450  26.006  29.892  13.567
28922W        W  451  34.814  31.474   4.026
28923W        W  452  35.780  17.799   0.997
28924W        W  453  17.316  26.536   4.138
28925W        W  454  22.285   7.595   1.822
28926W        W  455  13.182  21.998   0.936
28927W        W  456  33.068  28.944  12.942
28928W        W  457  41.357  37.266  11.553
28929W        W  458  13.659  33.066   4.098
28930W        W  459  42.961  41.100   0.886
28931W        W  460  35.011  26.596   0.912
28932W        W  461  34.853   0.239  10.743
28933W        W  462  33.397  31.935  14.407
28934W        W  463  25.165  29.369   5.051
28935W        W  464  39.339  15.718   2.496
28936W        W  465   8.236  41.602  12.522
28937W        W  466  25.579   1.751   4.527
28938W        W  467  16.349   7.443   4.957
28939W        W  468  24.034  20.284  13.104
28940W        W  469   4.828  13.251   4.567
28941W        W  470   9.816  21.151  12.485
28942W        W  471  36.181  20.987   1.465
28943W        W  472   1.066  29.965  13.139
28944W        W  473   5.732   9.235   3.868
28945W        W  474  27.983  22.447   1.915
28946W        W  475  21.612  31.357   0.770
28947W        W  476   5.112  37.355   3.091
28948W        W  477  32.843   2.858   0.402
28949W        W  478  39.318   7.913  14.301
28950W        W  479   3.378  19.451   3.181
28951W        W  480   6.200  38.458   1.411
28952W        W  481  35.017  37.899   1.759
28953W        W  482  27.171  33.200  14.986
28954W        W  483  22.691  22.180   0.817
28955W        W  484  27.965  27.389   0.021
28956W        W  485  40.073  27.281  14.878
28957W        W  486  44.918  33.046   2.727
28958W        W  487  19.744   5.741  14.345
28959W        W  488  36.063  20.694   3.166
28960W        W  489  31.993   5.586   2.722
28961W        W  490  37.506   2.966   0.963
28962W        W  491   9.268  19.638  13.375
28963W        W  492  38.550  20.109   0.282
28964W        W  493   1.750  40.088  14.836
28965W        W  494  34.935   4.538   4.255
28966W        W  495  37.952   4.862   2.637
28967W        W  496  35.019  14.530   1.745
28968W        W  497  39.388  12.193  11.139
28969W        W  498   7.762  40.252   1.261
28970W        W  499  27.265  36.073   0.947
28971W        W  500  41.863  21.001   4.069
28972W        W  501  18.656  26.491  11.033
28973W        W  502  18.706   6.322  14.770
28974W        W  503  13.542  20.117  14.967
28975W        W  504  36.622  27.444  13.548
28976W        W  505  38.126  22.030   4.499
28977W        W  506  11.835  30.169   2.412
28978W        W  507  31.040  40.532   4.909
28979W        W  508  34.937  40.564  11.970
28980W        W  509  28.981  34.061  14.806
28981W        W  510   6.313  12.618  14.359
28982W        W  511  26.178  23.906  13.943
28983W        W  512  24.980  23.652  13.463
28984W        W  513  37.313  28.225   1.788
28985W        W  514  39.418   5.426   1.400
28986W        W  515   7.128   5.773  14.494
28987W        W  516  18.418  17.989  11.494
28988W        W  517  37.900  10.233  13.567
28989W        W  518  35.040  33.930  12.948
28990W        W  519  34.415  13.932   3.729
28991W        W  520  31.067  13.648  12.577
28992W        W  521  16.352  30.909   1.724
28993W        W  522  35.611  29.003  12.170
28994W        W  523  20.710   4.309  11.862
28995W        W  524  38.089  40.038   2.038
28996W        W  525  11.086  42.274   4.277
28997W        W  526  26.298  24.694  11.483
28998W        W  527  23.852  29.214  14.342
28999W        W  528  22.129  31.958  14.292
29000W        W  529  30.195  26.700  11.582
29001W        W  530  24.994  22.806   3.673
29002W        W  531  37.534   3.028  14.518
29003W        W  532  26.025  44.653  13.859
29004W        W  533  17.181  42.924  14.446
29005W        W  534  34.442   0.960   0.503
29006W        W  535  14.092   5.459   4.515
29007W        W  536   7.826   5.688  12.186
29008W        W  537  41.090  37.930  14.320
29009W        W  538  42.672  25.124   0.852
29010W        W  539   2.265  10.608  14.528
29011W        W  540  43.015  31.433   3.691
29012W        W  541  35.477   1.001   3.444
29013W        W  542  14.217   4.462   4.660
29014W        W  543  36.687   8.766   3.738
29015W        W  544  34.301  19.685   3.604
29016W        W  545   5.458  10.623   3.768
29017W        W  546  27.619  23.488   2.385
29018W        W  547  41.360  19.920  14.429
29019W        W  548  35.494  23.938   0.231
29020W        W  549  32.385  42.252   0.805
29021W        W  550   0.023   4.283   1.965
29022W        W  551  32.098  34.590   1.652
29023W        W  552  34.374  29.869   2.302
29024W        W  553   3.659   4.537   0.773
29025W        W  554   8.279  33.609  14.018
29026W        W  555  40.783  34.321  13.945
29027W        W  556  26.223  25.701  13.884
29028W        W  557  43.078  19.510  13.260
29029W        W  558  11.326  41.968  14.898
29030W        W  559  35.883  24.670   4.384
29031W        W  560  10.538  33.654   3.314
29032W        W  561  27.227  19.184   4.865
29033W        W  562  20.130  19.443   1.334
29034W        W  563  11.233  36.579  13.413
29035W        W  564  40.953  21.159  13.177
29036W        W  565  32.414  41.373  13.510
29037W        W  566  17.484   6.721  10.949
29038W        W  567  17.444  25.225  13.545
29039W        W  568   7.155  40.405   3.598
29040W        W  569  17.209  26.605  13.094
29041W        W  570  33.491  13.406   1.454
29042W        W  571  44.815  37.548   1.414
29043W        W  572  31.138  22.337  12.416
29044W        W  573  19.502  25.643  11.393
29045W        W  574  24.467  17.977  12.975
29046W        W  575   8.652  11.016   3.126
29047W        W  576   7.102  38.367  12.072
29048W        W  577  23.441  25.311   1.233
29049W        W  578   8.803  37.603  13.030
29050W        W  579  35.094  10.831  10.598
29051W        W  580   6.918   1.491  10.513
29052W        W  581  38.288  23.107   0.340
29053W        W  582   6.453  24.401   3.553
29054W        W  583  24.094  42.871  14.255
29055W        W  584  11.994  28.438   0.178
29056W        W  585  19.210  40.556   4.632
29057W        W  586  35.441  13.151  14.849
29058W        W  587  33.166  42.235   0.741
29059W        W  588  44.266  43.812   1.420
29060W        W  589   4.270  37.003   1.467
29061W        W  590   3.174  20.318   0.997
29062W        W  591  39.475  17.734   1.857
29063W        W  592  31.939  32.434  13.392
29064W        W  593  20.138  37.453   1.755
29065W        W  594   6.171  11.799   1.344
29066W        W  595  20.332  34.252  10.347
29067W        W  596  41.970  43.104  10.184
29068W        W  597   3.273  17.286  12.660
29069W        W  598   8.376  14.235  10.620
29070W        W  599  20.604  13.342   4.645
29071W        W  600  38.440   3.469   2.804
29072W        W  601  16.872  21.860  11.793
29073W        W  602  41.935   0.720   2.877
29074W        W  603   8.955   3.761  10.929
29075W        W  604  41.444  18.581   4.518
29076W        W  605  24.459  20.276  13.417
29077W        W  606  37.059  38.866   4.073
29078W        W  607  35.346  32.559  14.316
29079W        W  608   6.923  38.304   3.248
29080W        W  609  17.237   8.386  14.868
29081W        W  610  17.295   9.901  14.828
29082W        W  611  28.054  12.115  14.871
29083W        W  612  18.648  27.252  14.939
29084W        W  613  34.819  15.760   3.756
29085W        W  614  33.995  25.439   0.882
29086W        W  615  31.026  38.377  13.327
29087W        W  616   6.498  35.416   0.857
29088W        W  617   6.570  19.736  10.729
29089W        W  618  19.182  36.928  12.868
29090W        W  619  37.878  31.409  12.358
29091W        W  620   9.864  13.337   4.582
29092W        W  621   4.793  14.665   4.055
29093W        W  622   6.132  19.238  13.984
29094W        W  623  30.345  33.154   1.852
29095W        W  624  23.041   1.161  11.928
29096W        W  625  39.849   1.120   1.663
29097W        W  626   3.792  17.452  12.956
29098W        W  627  43.337  22.537   2.946
29099W        W  628  12.317  17.319  14.280
29100W        W  629  35.785  38.267  11.094
29101W        W  630   0.694  10.995   2.420
29102W        W  631  34.432   6.220   2.938
29103W        W  632  10.637   0.729   0.557
29104W        W  633  31.682  14.687  14.241
29105W        W  634  32.524  24.196  12.354
29106W        W  635  16.312   8.233  13.466
29107W        W  636  15.155  11.884  14.304
29108W        W  637   8.340  18.599  14.453
29109W        W  638   3.390  39.071  14.835
29110W        W  639  40.217  22.211  10.784
29111W        W  640  33.061  30.099   3.534
29112W        W  641  22.267  26.537   3.669
29113W        W  642  43.804  17.890  14.946
29114W        W  643  17.271  17.738   2.912
29115W        W  644  16.219   1.217   3.221
29116W        W  645  31.307  35.984   1.876
29117W        W  646   5.589   3.426  13.552
29118W        W  647  24.415   8.251  12.456
29119W        W  648  44.818  15.983   4.231
29120W        W  649  39.004  19.281  14.325
29121W        W  650  10.066  24.836   1.172
29122W        W  651   3.009  19.177  11.691
29123W        W  652   9.252  21.078   3.769
29124W        W  653   1.474  31.150   4.593
29125W        W  654   2.680  44.922   2.011
29126W        W  655  29.786  16.072   4.047
29127W        W  656   5.247  18.104  11.238
29128W        W  657  36.579  40.258   3.777
29129W        W  658  37.239  43.477   1.403
29130W        W  659  42.763  41.293  11.548
29131W        W  660  16.593  29.864  11.667
29132W        W  661  30.584  15.355   3.694
29133W        W  662  35.926  31.898   2.297
29134W        W  663  41.084  19.036   0.348
29135W        W  664  34.332   5.203  11.650
29136W        W  665   4.435  19.123  11.961
29137W        W  666  28.738  12.659  12.541
29138W        W  667  13.308   3.691  10.736
29139W        W  668   8.257  37.808  12.379
29140W        W  669  24.690   7.769  12.670
29141W        W  670  25.132  17.140   1.029
29142W        W  671  23.081  28.168   3.425
29143W        W  672   2.612  15.964  11.097
29144W        W  673  44.526  44.117   1.050
29145W        W  674   2.476  39.478  11.906
29146W        W  675   6.406   6.815   3.931
29147W        W  676  28.631  18.080   2.223
29148W        W  677  24.651  18.068   1.150
29149W        W  678  31.107  38.064  12.094
29150W        W  679  29.085   6.938   0.109
29151W        W  680  18.290  14.210  10.873
29152W        W  681  44.424  41.437   1.504
29153W        W  682  19.706   3.415   0.450
29154W        W  683  25.031  29.083   2.665
29155W        W  684  28.351  37.038  10.464
29156W        W  685  20.756  29.452  13.403
29157W        W  686   6.057   1.805  10.690
29158W        W  687  33.127  26.417  14.371
29159W        W  688  35.078  27.594   2.902
29160W        W  689  30.561  23.975  13.098
29161W        W  690  31.686  42.532  12.091
29162W        W  691  37.434  29.730   4.832
29163W        W  692  39.369  37.488  12.947
29164W        W  693  39.618  39.426  11.414
29165W        W  694   6.775  30.084   3.871
29166W        W  695  32.360  13.388   0.749
29167W        W  696  33.908  28.412  14.758
29168W        W  697  44.464  25.463   3.820
29169W        W  698  18.300   6.285  12.464
29170W        W  699  29.919  29.627   3.047
29171W        W  700  25.915  20.023   4.224
29172W        W  701  19.227  11.241  13.449
29173W        W  702  20.972  44.878  10.354
29174W        W  703  35.692  28.494   0.405
29175W        W  704  43.409  12.648   4.564
29176W        W  705  31.415  18.036   3.192
29177W        W  706  21.056   8.136  13.915
29178W        W  707  44.026   4.032   4.246
29179W        W  708   1.147  21.437  14.932
29180W        W  709  12.872  28.513   3.231
29181W        W  710  39.518  16.588   1.862
29182W        W  711  21.117  13.192   0.544
29183W        W  712  31.987  13.278   0.413
29184W        W  713  35.488   8.898  13.903
29185W        W  714  40.553  42.579   3.608
29186W        W  715  14.137  26.509   0.757
29187W        W  716  12.638  39.532  13.011
29188W        W  717  25.696   6.917  11.216
29189W        W  718  20.684  29.130   2.304
29190W        W  719  25.666  43.866  12.423
29191W        W  720  16.645  26.921   0.304
29192W        W  721  44.872   0.257  10.674
29193W        W  722  29.841  30.862  12.580
29194W        W  723  23.167  39.808  14.912
29195W        W  724  19.765  24.036  13.301
29196W        W  725   2.798  31.869  11.985
29197W        W  726  42.865  32.561  11.606
29198W        W  727  37.609  38.039  10.907
29199W        W  728   9.682  28.638  10.629
29200W        W  729   8.592  10.309   0.483
29201W        W  730  25.454  11.295   4.356
29202W        W  731  41.530  25.446   3.814
29203W        W  732  22.584  32.172  14.337
29204W        W  733  29.898  40.036   3.324
29205W        W  734  22.939  22.186   1.874
29206W        W  735  17.137  44.043   1.509
29207W        W  736  26.904   3.016   4.116
29208W        W  737  36.084   4.952  13.871
29209W        W  738  36.510   9.168   3.179
29210W        W  739  28.405   8.883   0.957
29211W        W  740   6.347  34.525  14.097
29212W        W  741  12.159  40.640   0.786
29213W        W  742  25.197  34.706   3.632
29214W        W  743  42.875  11.394   0.308
29215W        W  744   6.614  25.876   2.719
29216W        W  745  14.100  26.154  13.563
29217W        W  746  22.643  39.271  14.492
29218W        W  747   8.821   2.952  13.362
29219W        W  748  33.058  37.612  11.185
29220W        W  749  15.215  30.243   1.270
29221W        W  750  43.965  13.633  14.939
29222W        W  751   5.474  12.976  12.604
29223W        W  752   3.529  14.556   0.485
29224W        W  753   5.717  41.471   2.932
29225W        W  754  13.687  14.177  10.675
29226W        W  755  17.229  15.560  11.152
29227W        W  756  40.260   2.377   4.938
29228W        W  757  42.748  20.683   2.232
29229W        W  758  28.466  12.376  11.139
29230W        W  759  22.279  42.430   4.910
29231W        W  760  13.077  15.962   4.205
29232W        W  761  11.131  15.210   1.340
29233W        W  762  33.639  44.017   2.276
29234W        W  763   0.157   8.726   2.861
29235W        W  764  32.773  18.141   0.069
29236W        W  765  26.514   3.428   1.651
29237W        W  766   5.331  16.230   4.311
29238W        W  767  44.813  20.302   1.716
29239W        W  768   3.778   8.823   2.738
29240W        W  769  30.699   8.695   3.111
29241W        W  770   0.045   9.401  14.231
29242W        W  771  11.702  22.328   1.489
29243W        W  772  14.202   2.352   2.697
29244W        W  773  21.668  25.003   0.877
29245W        W  774  22.167  32.470  14.417
29246W        W  775  10.176  13.235  10.109
29247W        W  776  22.878  28.255   5.050
29248W        W  777  22.237  13.193   0.972
29249W        W  778  17.171  36.030   2.000
29250W        W  779   0.896   4.237   2.326
29251W        W  780  29.895  30.806   4.775
29252W        W  781  39.484   2.059   1.660
29253W        W  782  10.743   6.154  11.045
29254W        W  783  32.533  25.966  13.907
29255W        W  784   0.863  19.671   1.031
29256W        W  785  17.121   3.365  13.317
29257W        W  786   6.612   3.615   1.480
29258W        W  787  25.038  24.055  10.658
29259W        W  788  10.784  39.754   2.769
29260W        W  789  37.911  34.762  11.925
29261W        W  790   8.398   1.459  12.353
29262W        W  791   6.395  16.221   0.801
29263W        W  792   8.150  19.501   1.453
29264W        W  793  27.463  36.427   1.259
29265W        W  794  30.392  22.422   3.224
29266W        W  795   5.829  32.710  14.808
29267W        W  796  17.836  26.538   0.681
29268W        W  797  24.256  20.633   4.793
29269W        W  798  24.372  16.479   0.924
29270W        W  799  37.238  29.419   3.878
29271W        W  800   0.424   6.242  12.233
29272W        W  801  35.073  13.425   3.224
29273W        W  802  25.567  17.151  10.815
29274W        W  803  28.113  31.698  12.960
29275W        W  804  26.544  33.007   1.250
29276W        W  805  29.007  43.821   1.486
29277W        W  806  18.579  30.745  10.898
29278W        W  807  44.820  35.214  12.934
29279W        W  808  28.966  19.959   4.107
29280W        W  809   8.695  17.504   3.677
29281W        W  810  35.454  41.719   2.336
29282W        W  811  14.766  23.603   0.863
29283W        W  812  23.821  21.229  10.133
29284W        W  813  12.894  14.097  14.052
29285W        W  814   8.167   5.375  12.948
29286W        W  815  16.669   4.296   1.673
29287W        W  816  22.354  33.579   0.943
29288W        W  817  26.696  11.635   3.110
29289W        W  818   7.215  31.939  11.037
29290W        W  819   2.467  16.980  12.147
29291W        W  820  30.427  18.745  11.059
29292W        W  821  40.781  39.185  11.115
29293W        W  822  28.293  19.287  14.492
29294W        W  823  41.029  37.775  13.823
29295W        W  824  34.702  28.117  11.637
29296W        W  825   6.423  29.584   2.266
29297W        W  826   6.827   6.285  11.613
29298W        W  827  44.293  38.861   2.580
29299W        W  828  38.349  32.073  13.935
29300W        W  829  10.704  23.044  12.593
29301W        W  830  25.525  26.020  13.434
29302W        W  831  34.418  24.743  12.569
29303W        W  832  31.921  17.759   0.957
29304W        W  833  10.311  39.233   3.313
29305W        W  834  44.689  14.112   2.586
29306W        W  835  17.498  34.036  12.861
29307W        W  836  41.530  21.379   4.000
29308W        W  837  37.260  11.278   4.612
29309W        W  838   5.258  19.166   9.295
29310W        W  839  34.870  13.051   1.942
29311W        W  840  26.689  44.714  13.508
29312W        W  841   3.816  42.980  10.807
29313W        W  842   2.366  38.984   3.748
29314W        W  843  15.828   0.835   1.296
29315W        W  844   7.837   1.446   0.512
29316W        W  845  27.465   4.035   5.029
29317W        W  846  28.679  21.731  10.749
29318W        W  847  33.989  13.125   0.054
29319W        W  848  40.861  19.764  14.328
29320W        W  849  31.863  14.322   0.389
29321W        W  850   9.325  23.566   1.174
29322W        W  851  19.163   1.778   1.705
29323W        W  852  34.467  28.932   0.272
29324W        W  853   7.825  26.712  11.775
29325W        W  854  37.695   5.487  11.845
29326W        W  855  18.052  12.654  12.109
29327W        W  856  42.159  12.500  13.804
29328W        W  857  41.610  41.168   0.923
29329W        W  858   9.599  26.983  10.878
29330W        W  859  43.822   5.325  12.277
29331W        W  860  16.243  43.255  13.823
29332W        W  861   5.869  30.622   2.745
29333W        W  862  17.581  15.325   0.359
29334W        W  863  36.866  42.990   0.262
29335W        W  864  15.983  16.105   2.386
29336W        W  865  18.023   9.055  11.847
29337W        W  866  35.275   0.213   3.760
29338W        W  867  22.218  16.056   2.285
29339W        W  868   1.162  37.113   1.691
29340W        W  869  44.305  24.660  10.725
29341W        W  870  39.832  40.339   2.785
29342W        W  871  14.237  15.353   2.978
29343W        W  872  34.900  12.934  14.916
29344W        W  873   6.738  37.081   3.771
29345W        W  874  12.276  28.601   1.773
29346W        W  875  13.329   5.660  12.450
29347W        W  876   8.306  14.870  11.965
29348W        W  877  12.327  33.468   3.447
29349W        W  878  21.324  23.170  12.678
29350W        W  879  14.871  41.263  12.121
29351W        W  880   8.657  33.956  13.282
29352W        W  881  40.486  12.961  12.715
29353W        W  882  37.903  29.904   4.631
29354W        W  883  11.370  30.395  14.336
29355W        W  884  27.954  26.038  13.065
29356W        W  885  35.430  28.461  14.420
29357W        W  886  10.018  21.585   3.310
29358W        W  887  25.487   3.532   3.675
29359W        W  888  37.591   1.805   0.720
29360W        W  889   8.049   6.096   0.868
29361W        W  890  18.985  37.586   0.848
29362W        W  891  32.939  27.048   1.623
29363W        W  892   2.883  25.002   0.909
29364W        W  893  12.574   5.369  12.873
29365W        W  894  42.351  23.123   3.424
29366W        W  895  36.548  30.155   4.779
29367W        W  896  22.189  20.758  12.986
29368W        W  897  43.808   4.525  13.711
29369W        W  898  17.843  42.804  10.521
29370W        W  899  41.616  43.371   4.147
29371W        W  900  27.179  34.161   2.274
29372W        W  901  12.622  40.417  13.464
29373W        W  902   9.176  29.574   0.805
29374W        W  903  18.003  24.731   3.374
29375W        W  904  14.447  43.042   3.590
29376W        W  905   8.743   5.930  11.144
29377W        W  906  22.152  38.967   4.390
29378W        W  907  41.987  23.077   3.824
29379W        W  908  20.609   1.675  12.045
29380W        W  909  17.222   1.905   3.811
29381W        W  910  13.532   8.692  13.459
29382W        W  911  44.540  18.692   0.589
29383W        W  912   1.876  41.330   0.374
29384W        W  913  34.978  43.922   3.833
29385W        W  914  10.795   2.561   5.034
29386W        W  915  30.569   9.187  12.354
29387W        W  916  31.431  11.493  12.049
29388W        W  917  41.937  14.274   4.734
29389W        W  918   8.445  38.338  12.489
29390W        W  919  33.520  38.856   1.375
29391W        W  920  38.822  15.688  11.019
29392W        W  921  18.256  23.579  13.900
29393W        W  922   0.468  17.629   0.386
29394W        W  923  35.018  23.762  13.459
29395W        W  924  19.376  11.171   1.860
29396W        W  925  12.097   6.182   1.411
29397W        W  926   2.828  35.005   4.106
29398W        W  927  29.483   3.497  14.365
29399W        W  928  27.682  29.634  13.481
29400W        W  929   2.129  11.055   3.769
29401W        W  930   9.264   2.453  13.790
29402W        W  931  36.713  34.099  12.082
29403W        W  932  41.317  36.735   2.735
29404W        W  933  14.118  23.118   4.145
29405W        W  934  14.322  26.993   0.634
29406W        W  935  27.989   5.221  10.870
29407W        W  936  20.728  42.402  12.193
29408W        W  937  16.339  33.481   2.404
29409W        W  938  10.435  40.132  10.346
29410W        W  939  40.151   4.410   2.374
29411W        W  940  12.384  12.790   4.006
29412W        W  941   0.165  24.938  11.470
29413W        W  942  34.804  29.665   4.610
29414W        W  943   4.265  29.466  13.098
29415W        W  944  30.958  10.853   4.180
29416W        W  945  26.439  40.558  13.119
29417W        W  946   8.495  30.023   2.838
29418W        W  947  44.458  30.345  14.980
29419W        W  948  34.175  31.628  11.169
29420W        W  949  41.776  34.421   1.794
29421W        W  950  44.193  24.765  11.353
29422W        W  951  13.894  13.192   3.207
29423W        W  952  43.060   7.889   3.641
29424W        W  953  33.474  22.914   0.683
29425W        W  954  18.045  33.332   0.228
29426W        W  955  43.309   5.872  11.203
29427W        W  956  13.404  38.582   3.696
29428W        W  957  32.660  21.710   2.420
29429W        W  958   6.185  41.394   2.695
29430W        W  959  10.146  26.232   1.701
29431W        W  960  24.513  17.989   4.620
29432W        W  961  15.095   3.958   2.809
29433W        W  962  30.539  40.067  12.472
29434W        W  963   7.352   3.933  13.776
29435W        W  964  10.089  22.120  14.449
29436W        W  965  31.667   8.166   1.653
29437W        W  966  41.508  24.252   2.674
29438W        W  967   6.769  21.242  11.181
29439W        W  968  20.805  15.268  13.869
29440W        W  969  16.179  19.542  14.412
29441W        W  970  42.798  23.635   2.813
29442W        W  971   7.161  20.608   2.742
29443W        W  972  15.935   6.147  14.832
29444W        W  973   8.732  29.212   3.906
29445W        W  974  37.610  23.900   2.182
29446W        W  975  41.436  38.084  13.064
29447W        W  976  16.124  27.622   3.566
29448W        W  977  31.613   4.850   2.848
29449W        W  978  17.729   9.596   2.725
29450W        W  979  18.110  30.378   4.912
29451W        W  980  17.838  19.758   1.360
29452W        W  981  34.395  27.387  13.878
29453W        W  982   2.054  23.950  14.217
29454W        W  983  24.764  19.687  11.113
29455W        W  984  37.236  17.723   4.753
29456W        W  985  43.766   3.289  11.456
29457W        W  986   0.465  39.393   1.646
29458W        W  987   7.882  28.552   1.987
29459W        W  988  30.763  32.259   3.295
29460W        W  989   2.467  13.626  12.971
29461W        W  990  14.907  30.072   3.329
29462W        W  991   7.081  43.732  14.380
29463W        W  992  10.603   6.990  14.031
29464W        W  993  29.152  27.222  14.851
29465W        W  994  14.308  10.447   0.460
29466W        W  995  24.942   9.641  11.462
29467W        W  996  26.876  22.946   4.132
29468W        W  997   2.305  14.143  10.296
29469W        W  998  39.237  42.249   2.309
29470W        W  999  41.673  21.024   9.616
29471W        W 1000   1.505  22.275  11.553
29472W        W 1001  39.142  39.150   1.018
29473W        W 1002  38.898  23.479   2.316
29474W        W 1003   1.010  11.205  12.999
29475W        W 1004  26.116   5.680  12.824
29476W        W 1005  41.910   8.887  14.014
29477W        W 1006   7.755   7.289  10.660
29478W        W 1007   3.672  32.137  10.283
29479W        W 1008   8.625  20.533   0.196
29480W        W 1009  10.358  26.137   2.181
29481W        W 1010   7.121  22.260  11.386
29482W        W 1011   0.575  10.600   0.354
29483W        W 1012  27.379  38.534  13.059
29484W        W 1013  35.399  44.470  13.271
29485W        W 1014  19.685  13.334  11.672
29486W        W 1015  15.109  22.390  11.714
29487W        W 1016  40.411  17.577  10.653
29488W        W 1017  13.365  15.349  13.003
29489W        W 1018   7.703  29.535  14.921
29490W        W 1019  41.690   4.212   3.949
29491W        W 1020   5.857  18.716   0.369
29492W        W 1021  18.109  10.909  12.491
29493W        W 1022   8.673  24.528   4.079
29494W        W 1023  38.530  27.202  12.347
29495W        W 1024  36.391   2.482  14.378
29496W        W 1025  27.508  37.397   2.344
29497W        W 1026  16.566  33.671   1.197
29498W        W 1027  26.208  11.744   4.374
29499W        W 1028  42.807  23.034   0.371
29500W        W 1029  35.110   1.773  13.407
29501W        W 1030  16.834   9.722   2.120
29502W        W 1031  25.211  12.042   4.031
29503W        W 1032  14.617  42.448  14.531
29504W        W 1033  36.121  39.689  13.639
29505W        W 1034  44.392  34.340   1.333
29506W        W 1035  39.341  41.756   3.204
29507W        W 1036  22.999  32.401  11.504
29508W        W 1037   4.337  21.242   1.018
29509W        W 1038  37.995  33.983   1.718
29510W        W 1039  10.934  34.441  12.367
29511W        W 1040  20.547  25.298  13.095
29512W        W 1041  26.511   9.961   3.718
29513W        W 1042  15.734  11.349   4.611
29514W        W 1043  30.560  18.203   2.719
29515W        W 1044  13.807   2.809  13.993
29516W        W 1045  27.613   5.051   1.863
29517W        W 1046   4.969  16.151  10.773
29518W        W 1047   1.857  15.872   0.001
29519W        W 1048  34.164  28.257  13.365
29520W        W 1049  39.447  10.334  12.567
29521W        W 1050  19.002  11.186  13.909
29522W        W 1051  29.964  24.586  10.270
29523W        W 1052  14.624   1.648  13.048
29524W        W 1053  26.540   2.589   2.763
29525W        W 1054  29.261  19.450  13.351
29526W        W 1055   3.540  44.580   4.463
29527W        W 1056  11.533  15.344   1.695
29528W        W 1057  20.009  34.599  13.055
29529W        W 1058  27.198  26.455   3.116
29530W        W 1059   3.487   3.480   1.944
29531W        W 1060   3.135  40.771  13.381
29532W        W 1061  32.270  39.551   1.685
29533W        W 1062  43.868  11.554   2.646
29534W        W 1063  18.709  37.433  11.909
29535W        W 1064  30.154  38.307   2.751
29536W        W 1065  18.768  20.507  11.145
29537W        W 1066   6.440  24.633  13.137
29538W        W 1067  18.325  34.375   3.996
29539W        W 1068  30.236   5.929  14.304
29540W        W 1069   4.771   8.669   4.556
29541W        W 1070  31.057  42.440   4.798
29542W        W 1071  24.833  43.381  12.101
29543W        W 1072  20.065  35.381  12.690
29544W        W 1073  38.413  43.819  11.630
29545W        W 1074  43.337  16.150   1.466
29546W        W 1075  14.138  24.633   2.878
29547W        W 1076   0.186  33.165   3.202
29548W        W 1077  19.072  20.177   4.549
29549W        W 1078   2.958  22.724   3.635
29550W        W 1079  29.597  25.562  10.301
29551W        W 1080  41.932  11.901   0.477
29552W        W 1081  12.013  15.851   0.160
29553W        W 1082  28.147  13.159   2.315
29554W        W 1083  44.617   4.493   1.107
29555W        W 1084  12.654  18.702  12.421
29556W        W 1085  28.949  43.799  10.412
29557W        W 1086  43.826  42.052  11.196
29558W        W 1087   5.288  30.526   3.261
29559W        W 1088   5.743  15.225   0.831
29560W        W 1089  26.000  34.834   2.566
29561W        W 1090  17.707  40.028   0.272
29562W        W 1091  18.208  18.651  13.074
29563W        W 1092  43.799  28.248   4.077
29564W        W 1093   1.228  24.118   2.385
29565W        W 1094  13.238  11.306   3.215
29566W        W 1095  17.994  10.562   4.051
29567W        W 1096  21.609  15.276  14.707
29568W        W 1097  41.783  13.910   3.775
29569W        W 1098  10.767  29.145   1.323
29570W        W 1099  28.114  14.867   0.430
29571W        W 1100   4.482   6.597  12.523
29572W        W 1101  34.341  26.121  12.584
29573W        W 1102  12.696  38.340   0.658
29574W        W 1103  15.586   2.427  12.474
29575W        W 1104  43.467  17.596   0.893
29576W        W 1105  29.886  13.334   2.788
29577W        W 1106  31.558  34.399  14.838
29578W        W 1107   9.894  36.354   2.734
29579W        W 1108  43.574   6.114  10.135
29580W        W 1109  31.382   5.421  11.200
29581W        W 1110  35.550   8.008   1.340
29582W        W 1111   5.066  36.463  14.152
29583W        W 1112  16.260  35.661   4.530
29584W        W 1113  43.449  22.973  10.742
29585W        W 1114  36.669  26.919  12.592
29586W        W 1115  24.130  32.092   1.351
29587W        W 1116   2.528  26.021   0.624
29588W        W 1117  18.074  28.509   3.542
29589W        W 1118  15.544  35.581   1.147
29590W        W 1119   2.973   3.825   1.410
29591W        W 1120  26.598  36.828   4.129
29592W        W 1121  16.185  11.404  11.147
29593W        W 1122  42.261  13.794   4.546
29594W        W 1123  29.436  37.795   0.984
29595W        W 1124  38.041  10.434   0.442
29596W        W 1125  15.272   5.737  14.426
29597W        W 1126  16.000  18.242   2.762
29598W        W 1127  28.327  15.097   4.580
29599W        W 1128  18.564   6.558   0.201
29600W        W 1129   5.686   2.469   0.965
29601W        W 1130  13.620  34.450   1.789
29602W        W 1131  29.943  39.053   2.383
29603W        W 1132  44.311  34.848   5.027
29604W        W 1133  35.944  34.363   4.928
29605W        W 1134  30.135  14.074  10.765
29606W        W 1135  35.385  20.882   1.880
29607W        W 1136  35.319  39.854   2.813
29608W        W 1137  22.926  21.540  12.537
29609W        W 1138  31.162  11.793  11.162
29610W        W 1139  40.746  20.782  14.124
29611W        W 1140  27.530   3.951   0.511
29612W        W 1141   1.052   4.475  13.438
29613W        W 1142   8.446  17.049   3.228
29614W        W 1143  42.877   9.196  11.627
29615W        W 1144  32.585  28.503   2.381
29616W        W 1145  20.210  35.151   2.682
29617W        W 1146  13.208  35.620  12.587
29618W        W 1147  39.180  32.929  11.021
29619W        W 1148  25.717  39.043   1.508
29620W        W 1149  18.798  42.860  11.974
29621W        W 1150  34.286   4.163  13.799
29622W        W 1151  36.385  44.373   0.438
29623W        W 1152  20.489  30.200  14.110
29624W        W 1153  11.351  13.816   2.316
29625W        W 1154  43.768  22.808  11.588
29626W        W 1155  21.759   6.683   1.764
29627W        W 1156  38.476   0.002   4.125
29628W        W 1157  26.739  37.814   4.089
29629W        W 1158  36.298   2.777  11.406
29630W        W 1159  22.521  37.475   3.110
29631W        W 1160  15.268  40.519  14.396
29632W        W 1161  20.532  10.636   2.143
29633W        W 1162  21.662  25.837  11.466
29634W        W 1163  43.539  17.238  11.956
29635W        W 1164  10.753   2.291   4.087
29636W        W 1165  28.295  29.234  11.089
29637W        W 1166  23.065  22.497   0.424
29638W        W 1167  42.498   1.277   4.091
29639W        W 1168  39.099  42.856  13.428
29640W        W 1169   0.004  33.141  12.534
29641W        W 1170   4.791  21.968  14.194
29642W        W 1171  35.318  27.143  14.833
29643W        W 1172  13.086   4.365   3.142
29644W        W 1173  37.465  44.434   1.212
29645W        W 1174  10.241  11.823  11.162
29646W        W 1175  37.634   1.013   1.691
29647W        W 1176  43.445   2.767  12.580
29648W        W 1177   7.428  13.724   3.757
29649W        W 1178   7.624  13.029  14.891
29650W        W 1179  15.062  27.427   2.654
29651W        W 1180  36.901  43.574   4.133
29652W        W 1181   5.146  12.442  11.112
29653W        W 1182  28.459  23.601   1.676
29654W        W 1183  33.534  23.962  11.577
29655W        W 1184  31.164   4.774  13.141
29656W        W 1185  44.871  16.572   0.542
29657W        W 1186  20.199  11.206  10.768
29658W        W 1187  19.627  12.822  10.543
29659W        W 1188   6.715  12.932   2.324
29660W        W 1189  13.123  35.990  13.419
29661W        W 1190  40.101  22.685  14.460
29662W        W 1191  29.075  11.930   1.021
29663W        W 1192  28.957  17.508   2.946
29664W        W 1193  27.533  13.793  12.343
29665W        W 1194   9.631  20.490  11.984
29666W        W 1195  26.103  20.309   2.196
29667W        W 1196  20.479  42.437  10.850
29668W        W 1197  12.117  28.034  11.974
29669W        W 1198  35.752  11.298  14.593
29670W        W 1199  10.063   9.237  14.821
29671W        W 1200  40.292   9.665   1.904
29672W        W 1201  12.613  24.717  13.899
29673W        W 1202  26.045   8.938  10.644
29674W        W 1203   0.274  24.189   3.966
29675W        W 1204  12.535  10.164  13.831
29676W        W 1205   7.725  17.139  12.862
29677W        W 1206  19.853  20.949   5.034
29678W        W 1207  34.311   5.209  14.854
29679W        W 1208  41.011  44.538   3.796
29680W        W 1209  25.316   3.318  12.916
29681W        W 1210  27.002  41.573   3.689
29682W        W 1211  41.011   2.876   1.829
29683W        W 1212  44.713  44.432   2.673
29684W        W 1213  11.236  21.136   1.686
29685W        W 1214  31.666   4.230   1.184
29686W        W 1215  33.393  22.650   4.558
29687W        W 1216   3.378   5.192  10.780
29688W        W 1217   9.085  30.393   3.712
29689W        W 1218  17.508  40.302  10.623
29690W        W 1219   1.182   8.239   4.191
29691W        W 1220  17.160   8.547   1.733
29692W        W 1221  29.444   0.711  13.503
29693W        W 1222   2.186  38.908   1.752
29694W        W 1223  24.133  27.328  12.640
29695W        W 1224  37.046  35.971   0.296
29696W        W 1225  28.725  23.395   4.513
29697W        W 1226  28.621  17.825  13.767
29698W        W 1227  41.488   6.337  12.802
29699W        W 1228  26.880   9.923   4.084
29700W        W 1229  15.633  10.194  11.956
29701W        W 1230  32.147  35.403  13.070
29702W        W 1231  40.766  17.068  11.312
29703W        W 1232  44.489   9.964  13.398
29704W        W 1233   8.568   6.969   0.914
29705W        W 1234  43.081  35.674  11.615
29706W        W 1235  38.469  39.855   3.222
29707W        W 1236  14.466  28.290  13.927
29708W        W 1237  26.620  39.284   3.708
29709W        W 1238  40.409  42.000  10.409
29710W        W 1239  39.947   3.396   3.357
29711W        W 1240   6.509  40.392  14.335
29712W        W 1241  32.126  32.157   0.678
29713W        W 1242  13.068  15.418   4.049
29714W        W 1243   5.799   3.354  12.017
29715W        W 1244  42.635  27.563  10.596
29716W        W 1245  15.602  17.195   1.461
29717W        W 1246  29.942   3.485   0.831
29718W        W 1247  38.550   6.488   0.709
29719W        W 1248  25.308  44.315  13.022
29720W        W 1249  20.641  27.155  10.622
29721W        W 1250  13.161  20.121   1.319
29722W        W 1251  32.548  23.967   0.045
29723W        W 1252  22.984  11.743  14.806
29724W        W 1253   6.041  25.097   1.314
29725W        W 1254   3.777  26.154   3.618
29726W        W 1255  27.075  38.043   4.753
29727W        W 1256  24.883  14.915   0.406
29728W        W 1257   0.964  14.028  14.273
29729W        W 1258  27.109  21.215  11.287
29730W        W 1259   8.760  22.219   0.597
29731W        W 1260  19.025  35.428   3.398
29732W        W 1261  11.608  41.684  13.588
29733W        W 1262   1.001  16.696   3.694
29734W        W 1263  33.949  22.022  11.170
29735W        W 1264  26.461  17.321   5.230
29736W        W 1265  43.279  18.808   4.171
29737W        W 1266  31.679  40.807   3.578
29738W        W 1267  36.071   1.962  11.115
29739W        W 1268   6.914  19.307  11.468
29740W        W 1269  15.747  30.433   1.317
29741W        W 1270  36.762  21.674   4.659
29742W        W 1271  42.847  36.633  10.750
29743W        W 1272  27.591  13.779   4.571
29744W        W 1273  37.104  33.645  10.587
29745W        W 1274   3.261  17.766  14.098
29746W        W 1275  16.118  17.126   3.299
29747W        W 1276  44.271  36.420   0.971
29748W        W 1277  20.594  27.444   0.930
29749W        W 1278  28.906  30.409   0.394
29750W        W 1279  29.900  23.636  11.624
29751W        W 1280  39.697  36.920   4.067
29752W        W 1281  39.722  32.167   3.916
29753W        W 1282  33.871   6.297  14.341
29754W        W 1283  41.185  42.619   3.073
29755W        W 1284  21.080  31.426   3.745
29756W        W 1285  14.273   5.249   1.339
29757W        W 1286  42.493  15.199   4.013
29758W        W 1287   4.641  34.577   0.242
29759W        W 1288  25.610  15.694   4.909
29760W        W 1289  32.100  20.768  11.085
29761W        W 1290  17.230   9.141  14.555
29762W        W 1291  40.666  20.221  12.542
29763W        W 1292  38.961  18.210  11.624
29764W        W 1293  28.062  39.131   2.455
29765W        W 1294  34.111   3.306   0.237
29766W        W 1295  27.066  29.490   2.295
29767W        W 1296  23.648   4.410  14.109
29768W        W 1297  21.347   7.565   4.781
29769W        W 1298  23.073  42.418   3.274
29770W        W 1299   1.712  37.880   3.671
29771W        W 1300  40.345  30.871   2.165
29772W        W 1301  27.160  39.958  13.540
29773W        W 1302  14.205  12.925   4.837
29774W        W 1303  32.015   9.875   3.362
29775W        W 1304  25.056  10.211   2.822
29776W        W 1305   4.586  17.687  10.580
29777W        W 1306   4.903  10.631   4.625
29778W        W 1307  16.541  13.794   1.333
29779W        W 1308  25.581  15.608   4.393
29780W        W 1309   8.322   8.843   3.726
29781W        W 1310  16.589  33.880   3.351
29782W        W 1311  18.193   1.194   2.138
29783W        W 1312  34.140   9.466  13.504
29784W        W 1313  42.293   3.472  10.465
29785W        W 1314   0.233  21.862   2.066
29786W        W 1315  20.346  41.974   0.461
29787W        W 1316  10.378  40.849  11.504
29788W        W 1317  18.322  28.975   3.608
29789W        W 1318  24.077   1.485  12.464
29790W        W 1319  25.944  18.231   4.589
29791W        W 1320  22.608  16.267   0.973
29792W        W 1321   7.614   7.120   0.039
29793W        W 1322  42.038  42.435   4.583
29794W        W 1323   5.241   6.293  10.709
29795W        W 1324   3.847  16.325   2.900
29796W        W 1325  18.649  16.719   1.843
29797W        W 1326   2.455  13.060  10.713
29798W        W 1327   7.642   2.721  10.520
29799W        W 1328  22.884  38.415   0.370
29800W        W 1329  41.072  33.997   3.720
29801W        W 1330  28.623  43.444   0.267
29802W        W 1331   5.897  24.670   4.153
29803W        W 1332  40.921  27.975  11.600
29804W        W 1333  10.618   3.790  11.268
29805W        W 1334  11.683  42.349   2.232
29806W        W 1335  32.652  43.241  10.741
29807W        W 1336  25.188  14.771  11.071
29808W        W 1337  44.951   4.608  13.992
29809W        W 1338  32.184  11.205  11.973
29810W        W 1339   6.441  31.608   4.075
29811W        W 1340   1.976   5.299   0.291
29812W        W 1341   4.965  38.395   0.922
29813W        W 1342  14.098   2.366   1.750
29814W        W 1343  34.986  18.712   2.225
29815W        W 1344  27.581  27.600   0.287
29816W        W 1345  31.626  42.372   4.896
29817W        W 1346   4.714   2.942   4.228
29818W        W 1347  15.738  44.768  13.416
29819W        W 1348   7.153  42.396  11.102
29820W        W 1349  24.602   4.495  10.759
29821W        W 1350  42.257  28.600   2.530
29822W        W 1351  41.350   1.921  12.066
29823W        W 1352  44.436   8.652   3.683
29824W        W 1353   1.215   0.077  14.115
29825W        W 1354  27.611  27.811  11.019
29826W        W 1355  44.573  20.629  10.014
29827W        W 1356  20.075  35.071   4.246
29828W        W 1357   3.895  30.547   2.231
29829W        W 1358  39.846  11.620   3.052
29830W        W 1359  26.656   9.833   1.829
29831W        W 1360  10.350   9.608  14.581
29832W        W 1361  17.323   5.661   1.164
29833W        W 1362  29.656  44.497   2.114
29834W        W 1363  39.751  42.711   2.046
29835W        W 1364  38.606  40.580   3.670
29836W        W 1365  26.707  20.672  13.564
29837W        W 1366  12.252  37.177   4.591
29838W        W 1367   8.847   8.307   0.809
29839W        W 1368   1.343  43.437   1.877
29840W        W 1369  12.672  13.579  11.200
29841W        W 1370  22.621   9.927   4.148
29842W        W 1371  26.069   6.884   4.258
29843W        W 1372  16.054  44.892  13.846
29844W        W 1373   2.844   6.291   3.756
29845W        W 1374  20.058  21.238   0.671
29846W        W 1375  27.216   8.827   2.365
29847W        W 1376   1.427  43.919  14.324
29848W        W 1377  41.735   0.011  14.942
29849W        W 1378  23.139  26.312  10.981
29850W        W 1379  42.304  10.668   1.384
29851W        W 1380  19.257  35.467  12.337
29852W        W 1381   0.364   6.749   1.234
29853W        W 1382  12.281  13.608  13.406
29854W        W 1383  27.920  23.171   3.275
29855W        W 1384   1.970   6.446  13.979
29856W        W 1385  38.467  27.536   1.657
29857W        W 1386  30.125  15.573   1.369
29858W        W 1387  30.527  13.119  10.731
29859W        W 1388  25.589  11.143   4.845
29860W        W 1389  21.340  26.016   3.398
29861W        W 1390   4.394  16.056  13.325
29862W        W 1391  15.895  25.747   3.571
29863W        W 1392  17.128  18.061   5.037
29864W        W 1393  16.562  18.166  10.839
29865W        W 1394   5.373  16.972   3.606
29866W        W 1395   7.789  21.798   2.805
29867W        W 1396   5.842  44.732   3.107
29868W        W 1397  22.771  11.279  13.972
29869W        W 1398  12.606  36.485   1.237
29870W        W 1399  19.159  40.027   0.518
29871W        W 1400   4.240  40.712   1.608
29872W        W 1401  38.486  13.229  10.771
29873W        W 1402   7.680  44.395  11.094
29874W        W 1403  40.900  20.991  13.676
29875W        W 1404  28.789  32.050   2.245
29876W        W 1405  40.511  31.891  11.990
29877W        W 1406  44.951  32.557   4.637
29878W        W 1407  39.596  22.479  11.055
29879W        W 1408  33.083   2.890   4.739
29880W        W 1409  20.037  12.681   1.249
29881W        W 1410  11.916   7.885   4.073
29882W        W 1411  39.469  10.626  12.109
29883W        W 1412  36.066  25.814   1.472
29884W        W 1413  38.944  17.035  13.337
29885W        W 1414  28.220  12.654   2.252
29886W        W 1415  41.443  32.311   4.577
29887W        W 1416  21.080  33.140   3.348
29888W        W 1417  22.197  42.285  14.812
29889W        W 1418  23.114  21.960   1.003
29890W        W 1419  21.285   7.160   2.112
29891W        W 1420  40.816  30.634   2.232
29892W        W 1421  44.288  44.426  13.795
29893W        W 1422   5.184   5.725  11.559
29894W        W 1423  21.817  25.647   1.505
29895W        W 1424  22.425   4.008   1.323
29896W        W 1425  32.031  16.027   1.350
29897W        W 1426  39.388  36.046   0.220
29898W        W 1427  42.352  20.210  13.459
29899W        W 1428  35.335   2.452  14.598
29900W        W 1429  10.616  19.501  10.324
29901W        W 1430  31.837  38.884   2.580
29902W        W 1431  23.156  17.554  13.550
29903W        W 1432  41.876  10.574   5.013
29904W        W 1433  31.432  18.543  11.233
29905W        W 1434  42.780  44.005   4.679
29906W        W 1435  31.838  36.438  11.450
29907W        W 1436   0.249  40.016  10.668
29908W        W 1437   6.283  30.070   2.114
29909W        W 1438  37.527   7.922  13.834
29910W        W 1439  43.952  16.926  12.515
29911W        W 1440  21.281  44.300  12.759
29912W        W 1441  15.783  39.062   4.130
29913W        W 1442  39.426  44.377  13.079
29914W        W 1443  38.594  39.764   4.566
29915W        W 1444  16.089  19.270  14.837
29916W        W 1445  20.599   1.399  10.668
29917W        W 1446  11.768  43.692   0.935
29918W        W 1447  25.230  16.681   0.756
29919W        W 1448   4.764  18.787  11.668
29920W        W 1449  22.701  20.006   2.153
29921W        W 1450  24.003   7.815   3.348
29922W        W 1451  23.918  13.310   2.304
29923W        W 1452  33.965  14.409   0.765
29924W        W 1453  30.480  18.033   4.304
29925W        W 1454  14.182  18.208   4.885
29926W        W 1455  42.777  19.203   0.867
29927W        W 1456   6.513  31.450  14.432
29928W        W 1457   1.800  25.235   1.808
29929W        W 1458  41.780  21.065   1.332
29930W        W 1459  13.277  28.992  11.571
29931W        W 1460  10.151  24.394   5.198
29932W        W 1461  11.431   1.484   5.473
29933W        W 1462  19.572   3.410  13.468
29934W        W 1463  18.866  11.712  12.385
29935W        W 1464  31.405  35.044  10.731
29936W        W 1465  35.050  29.959  13.849
29937W        W 1466   9.943   5.494  12.502
29938W        W 1467  38.526  23.557  14.498
29939W        W 1468  32.406  44.344  12.584
29940W        W 1469  15.891   5.789  10.909
29941W        W 1470   1.339  23.800   0.591
29942W        W 1471  43.959  26.597  13.151
29943W        W 1472   6.380  41.147  13.005
29944W        W 1473  35.876  16.243   0.298
29945W        W 1474  20.698   1.314  13.504
29946W        W 1475  23.803  37.368  11.037
29947W        W 1476  10.384  18.811  12.381
29948W        W 1477  32.912  42.720   4.564
29949W        W 1478   8.401  41.490  13.875
29950W        W 1479  12.599  29.388   0.900
29951W        W 1480  17.794  16.201  13.409
29952W        W 1481  36.043  22.910   0.890
29953W        W 1482   7.992  12.622  14.836
29954W        W 1483  11.958  16.274   0.910
29955W        W 1484   2.447  40.241   2.680
29956W        W 1485  28.099  17.463  12.456
29957W        W 1486  30.169  38.933   0.640
29958W        W 1487   6.160  42.591   2.092
29959W        W 1488  29.210   4.791   0.853
29960W        W 1489  26.541   4.994   3.175
29961W        W 1490  20.082  35.828  13.609
29962W        W 1491   4.626  11.590   1.515
29963W        W 1492   0.991   5.388   3.214
29964W        W 1493  32.980  16.596  13.490
29965W        W 1494  32.892  35.803  14.331
29966W        W 1495  34.079  31.128   1.769
29967W        W 1496  14.850  28.717   0.787
29968W        W 1497  18.255  29.860   3.940
29969W        W 1498  31.539  38.417  14.163
29970W        W 1499  20.040   9.166  13.232
29971W        W 1500  36.421  24.441   1.916
29972W        W 1501  10.830  12.164  14.985
29973W        W 1502  11.237  27.961  14.501
29974W        W 1503  21.866  15.191  12.621
29975W        W 1504  13.728  25.620  13.119
29976W        W 1505  22.379  12.739   1.786
29977W        W 1506  32.619  43.905   4.532
29978W        W 1507  40.566   9.769  11.936
29979W        W 1508  30.062  40.355  10.858
29980W        W 1509   5.466   0.961  12.459
29981W        W 1510  11.450   9.809   2.243
29982W        W 1511  18.032  40.599  12.484
29983W        W 1512  41.012  15.046  13.021
29984W        W 1513  11.889   5.942  13.332
29985W        W 1514  41.123   4.706   4.236
29986W        W 1515  34.027  32.103   0.226
29987W        W 1516  15.374   3.868  11.415
29988W        W 1517  17.028  19.104  11.953
29989W        W 1518  28.227   8.234   4.892
29990W        W 1519  14.863  21.710  12.798
29991W        W 1520  37.479  43.086   1.633
29992W        W 1521  26.197   1.866  13.384
29993W        W 1522  10.784  38.604   3.720
29994W        W 1523  15.391   4.212   0.998
29995W        W 1524  44.580  21.028   2.286
29996W        W 1525   4.899  17.592   4.937
29997W        W 1526   0.370   3.722  11.139
29998W        W 1527  33.675  28.062   5.035
29999W        W 1528   4.484  43.671   4.084
30000W        W 1529  42.828   4.243   1.820
30001W        W 1530  21.241   0.589   3.168
30002W        W 1531  27.376  33.406   1.330
30003W        W 1532   4.451  35.709  13.548
30004W        W 1533  38.621  35.199  12.500
30005W        W 1534  11.114  25.578   2.716
30006W        W 1535  11.000   7.431   2.173
30007W        W 1536  23.130   3.859   2.748
30008W        W 1537  22.703   6.265   2.992
30009W        W 1538   4.414  44.207   4.050
30010W        W 1539  14.803  15.398  11.083
30011W        W 1540  29.967  20.832  13.512
30012W        W 1541  35.570  34.200   3.811
30013W        W 1542  37.203  43.699  11.121
30014W        W 1543  20.130  30.137   1.912
30015W        W 1544  11.679  44.978   1.785
30016W        W 1545   3.468   1.892   5.003
30017W        W 1546  10.391  39.799   2.420
30018W        W 1547  11.305   4.847   0.955
30019W        W 1548   3.456  17.123   4.694
30020W        W 1549   8.030  38.032  14.261
30021W        W 1550  12.321   8.399  12.076
30022W        W 1551  41.561  39.486  14.784
30023W        W 1552  39.911  15.586  10.122
30024W        W 1553  32.257  20.712   3.361
30025W        W 1554  42.040  30.607   1.788
30026W        W 1555  33.873  33.258  13.431
30027W        W 1556   4.330  40.461  13.381
30028W        W 1557  27.672  21.182  10.967
30029W        W 1558  13.197  37.077   4.587
30030W        W 1559   8.445   0.404  14.470
30031W        W 1560  44.569  22.205  11.481
30032W        W 1561  13.506  34.728  12.956
30033W        W 1562  26.642  24.540  14.306
30034W        W 1563  36.586  22.595  14.795
30035W        W 1564  32.852  19.216  12.028
30036W        W 1565  36.880   7.948   1.954
30037W        W 1566  43.388  33.396   1.268
30038W        W 1567  29.219   8.950  12.060
30039W        W 1568  28.008  15.715  14.871
30040W        W 1569  23.980  26.388  13.836
30041W        W 1570  33.970  44.980   2.920
30042W        W 1571   8.317   2.822  11.804
30043W        W 1572  28.680  14.580   2.275
30044W        W 1573  21.692  23.463  13.430
30045W        W 1574  22.128  32.592  11.888
30046W        W 1575   3.290  42.369  13.951
30047W        W 1576  15.331  15.592   3.312
30048W        W 1577  34.800  34.920  13.847
30049W        W 1578   1.753  37.459   3.369
30050W        W 1579   7.236  14.857  14.033
30051W        W 1580  21.695  13.806  14.495
30052W        W 1581  42.070  19.505  12.095
30053W        W 1582   3.155  43.813  10.687
30054W        W 1583  44.413  40.566  14.270
30055W        W 1584  36.034   1.016  12.888
30056W        W 1585   5.612  20.909   5.067
30057W        W 1586  36.923   2.123   1.714
30058W        W 1587  44.879   3.508  12.605
30059W        W 1588   4.302   1.147  14.063
30060W        W 1589  20.640  25.169  11.701
30061W        W 1590  10.279  18.265   4.985
30062W        W 1591   9.203  36.534   4.156
30063W        W 1592  30.331  38.271  12.694
30064W        W 1593   7.468   5.247  13.371
30065W        W 1594  39.020  29.567   2.299
30066W        W 1595   8.508  39.781   4.917
30067W        W 1596   5.736  43.215   0.484
30068W        W 1597  36.070  26.142   4.732
30069W        W 1598  22.367  26.367   1.341
30070W        W 1599   0.776  13.805   0.158
30071W        W 1600   5.354   2.469   3.604
30072W        W 1601  17.537  42.767   1.241
30073W        W 1602  23.596   8.618   2.330
30074W        W 1603  43.884  35.191   3.613
30075W        W 1604  14.134  28.675   4.091
30076W        W 1605  37.387  25.412  10.709
30077W        W 1606  14.341  40.319  13.092
30078W        W 1607  31.986  31.828  14.590
30079W        W 1608  27.185  42.476  14.549
30080W        W 1609   1.466  34.999  13.099
30081W        W 1610  14.064  17.673  14.293
30082W        W 1611  13.813  41.515  11.045
30083W        W 1612   5.951  29.454  12.420
30084W        W 1613  26.021  35.134  12.666
30085W        W 1614  36.075  31.678  10.575
30086W        W 1615  10.702  11.560  11.043
30087W        W 1616  28.178  24.451   1.005
30088W        W 1617  17.845  20.101   5.177
30089W        W 1618  44.053  26.258  12.286
30090W        W 1619  36.820  10.528  14.497
30091W        W 1620  26.321  10.436  12.540
30092W        W 1621  10.225   3.421   0.953
30093W        W 1622   6.540   0.761   4.855
30094W        W 1623  39.450  39.299  10.420
30095W        W 1624   2.192  19.970   4.927
30096W        W 1625  24.213  30.962  10.655
30097W        W 1626  31.112  27.188   0.699
30098W        W 1627  36.002  32.102  10.841
30099W        W 1628   1.393  21.245  11.599
30100W        W 1629   4.483  23.523  12.899
30101W        W 1630  21.678   1.068   3.866
30102W        W 1631  20.963   3.146   2.119
30103W        W 1632  13.668  17.846  12.766
30104W        W 1633  41.368  11.709  14.403
30105W        W 1634  26.678  20.269   2.633
30106W        W 1635   4.939   3.315   3.249
30107W        W 1636  24.392   0.002   2.438
30108W        W 1637  33.088  32.173   0.753
30109W        W 1638  35.315   1.455   3.286
30110W        W 1639  34.492   7.004   1.246
30111W        W 1640  19.288  30.726   0.810
30112W        W 1641  24.616   4.457  11.904
30113W        W 1642  33.970   6.237   3.184
30114W        W 1643  20.012  34.872  12.606
30115W        W 1644  35.949  13.298  14.808
30116W        W 1645  43.468  25.696  11.362
30117W        W 1646  14.985  43.326   0.819
30118W        W 1647  25.450  42.906   3.116
30119W        W 1648  11.816  27.455  13.858
30120W        W 1649  11.707  13.791  11.354
30121W        W 1650  14.273  21.104  10.615
30122W        W 1651  21.497   8.618  11.056
30123W        W 1652  22.567  28.339   4.584
30124W        W 1653  12.378  17.997  11.239
30125W        W 1654  37.423   9.404   0.329
30126W        W 1655   6.966   8.680   1.849
30127W        W 1656   8.138   4.059   3.605
30128W        W 1657  18.589  38.953  11.199
30129W        W 1658   6.835   0.344  10.974
30130W        W 1659  27.667  12.873  12.263
30131W        W 1660  12.281  29.918   2.314
30132W        W 1661   4.867   5.930  14.359
30133W        W 1662  42.883  23.373  13.823
30134W        W 1663   8.360   1.446  12.860
30135W        W 1664  23.120   4.855  14.684
30136W        W 1665  18.025  19.219   3.528
30137W        W 1666  14.450  29.332   3.681
30138W        W 1667  30.632  18.087  13.993
30139W        W 1668  25.737   1.720  10.621
30140W        W 1669  11.407  17.700   2.698
30141W        W 1670  36.844  38.544   1.683
30142W        W 1671  23.746  19.914  14.805
30143W        W 1672   8.192  34.028   3.730
30144W        W 1673  25.001  25.656  10.727
30145W        W 1674   1.834   7.206   0.114
30146W        W 1675  19.792  31.880   4.324
30147W        W 1676   9.740  35.649   2.391
30148W        W 1677  35.845  29.469  14.190
30149W        W 1678  17.751  10.308  10.122
30150W        W 1679  20.083  24.425   0.343
30151W        W 1680   8.374  23.838  12.255
30152W        W 1681  25.486  12.046   2.170
30153W        W 1682   4.451  41.977   2.736
30154W        W 1683  31.667  26.731  11.631
30155W        W 1684   6.768   5.245   3.664
30156W        W 1685  12.848  32.631   3.226
30157W        W 1686  30.212   8.858  13.621
30158W        W 1687  42.276  23.975   2.319
30159W        W 1688  39.034  25.267  14.744
30160W        W 1689   5.171  16.690   4.462
30161W        W 1690  36.265  20.117  12.680
30162W        W 1691  32.407   1.522  12.529
30163W        W 1692  42.854   4.933  13.879
30164W        W 1693   8.457  44.713  14.888
30165W        W 1694   6.039  13.716  12.112
30166W        W 1695  14.679  28.983   1.259
30167W        W 1696  35.588  11.797   2.156
30168W        W 1697  16.685  24.516   2.402
30169W        W 1698   0.823  38.186  13.498
30170W        W 1699  15.531  16.051   2.623
30171W        W 1700  36.883  39.505  11.124
30172W        W 1701  23.767  38.396   3.817
30173W        W 1702  27.095  31.383   2.384
30174W        W 1703  14.323  20.286   2.293
30175W        W 1704  32.155   7.328  11.559
30176W        W 1705  34.499  22.111  14.853
30177W        W 1706  18.244   5.714   1.423
30178W        W 1707  31.480  19.132   1.202
30179W        W 1708  10.923   5.742   0.726
30180W        W 1709  35.407  38.924  10.435
30181W        W 1710  23.745  13.177  13.387
30182W        W 1711   7.432  41.361  11.072
30183W        W 1712  26.409  33.673   3.669
30184W        W 1713  34.534  40.842  14.099
30185W        W 1714  25.935  29.153   2.136
30186W        W 1715  37.363  11.466   0.205
30187W        W 1716  11.732  34.133  14.882
30188W        W 1717  24.852  44.238  11.191
30189W        W 1718  31.339  44.223  11.979
30190W        W 1719  44.687  11.820  11.250
30191W        W 1720  44.902  43.791   0.881
30192W        W 1721  14.124  19.378  12.993
30193W        W 1722  36.282  12.093  13.102
30194W        W 1723  11.427  43.370  14.980
30195W        W 1724  22.183  27.549   3.415
30196W        W 1725   3.760   3.867   1.739
30197W        W 1726   2.610  10.230  14.536
30198W        W 1727  16.686  42.442  12.127
30199W        W 1728  36.842   2.872   3.648
30200W        W 1729   5.579  43.231   1.387
30201W        W 1730  19.520  18.335   2.241
30202W        W 1731  43.303  13.557   4.062
30203W        W 1732   8.134  16.202  14.334
30204W        W 1733   0.099  42.373   0.854
30205W        W 1734  25.035  29.132   2.169
30206W        W 1735  19.423  21.810   2.787
30207W        W 1736   0.277   7.309  10.688
30208W        W 1737   4.149  37.769  10.809
30209W        W 1738  40.819  20.582  11.472
30210W        W 1739   6.351  34.276  14.576
30211W        W 1740  13.042  37.786  13.030
30212W        W 1741  27.959  28.338  12.575
30213W        W 1742  21.190  31.822  10.577
30214W        W 1743   0.913   1.516   3.932
30215W        W 1744  42.205  41.346  12.769
30216W        W 1745  34.943  32.611   1.187
30217W        W 1746   3.423   9.866   1.651
30218W        W 1747   4.967  43.550  10.572
30219W        W 1748   6.950  32.539  12.141
30220W        W 1749  23.097   2.452  10.973
30221W        W 1750  28.369  44.486  14.130
30222W        W 1751  29.689  41.762  13.341
30223W        W 1752  21.063  19.782   2.890
30224W        W 1753  12.729  34.846   4.531
30225W        W 1754   2.975  33.252  10.512
30226W        W 1755   4.903  32.629  10.949
30227W        W 1756  11.056   0.827  12.387
30228W        W 1757  34.834  36.503   4.191
30229W        W 1758  19.182  26.311  14.819
30230W        W 1759   2.753   7.319  12.602
30231W        W 1760  29.441   9.089  13.027
30232W        W 1761  17.125  35.770  14.446
30233W        W 1762  20.134  36.339  13.718
30234W        W 1763  33.562  22.605  12.380
30235W        W 1764  16.398   1.485   2.773
30236W        W 1765   7.174  17.234   2.692
30237W        W 1766  30.319   1.399  10.685
30238W        W 1767   9.682  33.167   1.075
30239W        W 1768  36.582  27.604   4.662
30240W        W 1769  14.062   9.383  12.788
30241W        W 1770   1.906  43.529  13.007
30242W        W 1771  22.916  31.460  14.106
30243W        W 1772  32.535  33.701   0.458
30244W        W 1773   9.911  32.202   2.829
30245W        W 1774  10.609  15.271   3.618
30246W        W 1775  40.257  19.516   3.847
30247W        W 1776  14.774  18.730   1.449
30248W        W 1777  21.549  26.744   1.352
30249W        W 1778  26.194  13.128   0.272
30250W        W 1779  38.757  30.080   3.090
30251W        W 1780  40.076  27.460  11.906
30252W        W 1781  14.755  42.261   3.204
30253W        W 1782   3.995   5.357   2.797
30254W        W 1783   5.600  37.022   4.762
30255W        W 1784  14.382  30.084  10.716
30256W        W 1785  31.014  29.151   4.755
30257W        W 1786  43.670   7.459  11.106
30258W        W 1787  27.029   7.675   1.890
30259W        W 1788  21.944  21.443  13.586
30260W        W 1789  12.614  26.654  14.259
30261W        W 1790  25.048  10.471   4.966
30262W        W 1791  31.825   9.812   2.881
30263W        W 1792  31.017  42.598  11.615
30264W        W 1793  15.460  36.606  11.388
30265W        W 1794  41.808  10.160   4.058
30266W        W 1795  24.558  29.665   4.624
30267W        W 1796   7.658   7.704   2.659
30268W        W 1797   9.042  10.073   3.677
30269W        W 1798  35.145  14.044   1.898
30270W        W 1799  44.412  17.909  10.892
30271W        W 1800  34.102  10.083   2.741
30272W        W 1801  30.598   9.819  13.125
30273W        W 1802  12.857   1.405  10.728
30274W        W 1803  21.844  26.685  14.792
30275W        W 1804  38.292  15.062   0.316
30276W        W 1805  38.944  21.288  11.475
30277W        W 1806  25.164  43.745   0.422
30278W        W 1807  13.359  36.745  13.756
30279W        W 1808  41.611  18.930  14.510
30280W        W 1809  22.641   7.404  10.290
30281W        W 1810  10.126  36.645  11.148
30282W        W 1811  21.516  36.102   2.398
30283W        W 1812   4.259   7.392  12.948
30284W        W 1813  14.748   1.456  10.684
30285W        W 1814  38.350   8.579   2.565
30286W        W 1815  42.330  19.513  14.283
30287W        W 1816  40.767  32.359   0.915
30288W        W 1817  34.672  25.142  12.807
30289W        W 1818  41.061  38.530   2.960
30290W        W 1819  10.857   8.830   1.389
30291W        W 1820  18.816  32.652   1.357
30292W        W 1821  43.990   4.925   3.614
30293W        W 1822   4.196  19.012   4.657
30294W        W 1823  20.986  18.301  10.268
30295W        W 1824   4.263  23.644  13.345
30296W        W 1825  39.811  22.979   0.808
30297W        W 1826   9.869  12.932   2.844
30298W        W 1827  13.936  39.415  11.557
30299W        W 1828  10.661  38.146   1.334
30300W        W 1829  33.911  44.828   0.887
30301W        W 1830  16.700  11.362   0.413
30302W        W 1831  39.724  18.157   1.729
30303W        W 1832  30.217  27.544  10.331
30304W        W 1833   2.044   1.536  11.181
30305W        W 1834  37.450   3.407  14.867
30306W        W 1835   2.644  27.106   1.386
30307W        W 1836  11.135   0.032   4.080
30308W        W 1837  42.357  34.390  11.859
30309W        W 1838  33.266   5.964   1.449
30310W        W 1839  20.842   4.687   2.802
30311W        W 1840   9.863  43.448  12.118
30312W        W 1841  17.783  29.969   1.765
30313W        W 1842  13.754   5.795   1.831
30314W        W 1843  13.359  15.705   1.945
30315W        W 1844  29.857   4.056  12.974
30316W        W 1845  44.979  38.442   3.799
30317W        W 1846  10.256  40.860  10.963
30318W        W 1847  29.933  35.111   4.893
30319W        W 1848  10.107   1.912   0.234
30320W        W 1849  27.245  36.977  12.373
30321W        W 1850  38.273  15.087  13.244
30322W        W 1851  27.514  13.724   3.677
30323W        W 1852  38.512  39.826   0.800
30324W        W 1853  11.693  24.790  12.554
30325W        W 1854  36.593  26.671   1.379
30326W        W 1855  18.005  19.074  12.839
30327W        W 1856  44.266  28.971  10.349
30328W        W 1857   4.894   8.166  12.647
30329W        W 1858  20.470  13.294   3.758
30330W        W 1859  37.487  38.296  11.741
30331W        W 1860  16.215   0.404  13.801
30332W        W 1861  44.935  41.567  11.629
30333W        W 1862   8.864  40.940  14.720
30334W        W 1863  17.323  27.914   3.262
30335W        W 1864  26.473  11.326  12.747
30336W        W 1865  24.141  38.557  12.552
30337W        W 1866  11.873   5.779   2.306
30338W        W 1867  26.704  13.644  11.977
30339W        W 1868  35.895   9.754   1.859
30340W        W 1869  42.495  26.571  11.621
30341W        W 1870  29.029  34.160  12.922
30342W        W 1871  17.706  28.519  12.923
30343W        W 1872  37.869  18.474  11.538
30344W        W 1873   9.781  27.614  14.414
30345W        W 1874   7.545  36.974  11.573
30346W        W 1875   6.474  31.395   3.622
30347W        W 1876   7.016  22.215   4.457
30348W        W 1877  11.277   8.538   2.776
30349W        W 1878  38.540  28.868   1.940
30350W        W 1879  31.872  22.694   2.346
30351W        W 1880   2.801   6.873  11.150
30352W        W 1881  24.377   6.277  12.946
30353W        W 1882   2.977   7.806   1.134
30354W        W 1883   8.431   5.652  13.284
30355W        W 1884   4.610  23.257   0.871
30356W        W 1885  19.022  30.868  12.176
30357W        W 1886  34.626   1.123  11.583
30358W        W 1887   2.238  22.134  13.815
30359W        W 1888  30.643  10.402  13.886
30360W        W 1889   6.666   0.351  13.913
30361W        W 1890   5.820  30.323  13.983
30362W        W 1891   8.370  28.997   1.128
30363W        W 1892   2.221  39.054  14.765
30364W        W 1893   2.245  32.352   4.677
30365W        W 1894  11.961   3.701  11.394
30366W        W 1895  18.631  25.622  12.970
30367W        W 1896  43.652  15.702   2.164
30368W        W 1897  23.157  23.760   1.449
30369W        W 1898  14.098  38.935  12.934
30370W        W 1899   7.010  37.484   1.762
30371W        W 1900  21.487  38.082   2.216
30372W        W 1901  34.209  12.893   2.845
30373W        W 1902   2.414  41.251   3.114
30374W        W 1903  27.194  37.715   3.281
30375W        W 1904  15.087  28.679   1.278
30376W        W 1905  29.178  15.162   1.149
30377W        W 1906  40.205   6.634   1.238
30378W        W 1907  37.558  40.852  14.886
30379W        W 1908  24.218  11.431   1.709
30380W        W 1909  41.386   4.575   0.940
30381W        W 1910  36.443   5.614  11.544
30382W        W 1911   7.879  25.103  12.333
30383W        W 1912  34.005   0.822  12.491
30384W        W 1913   1.433  22.308  12.400
30385W        W 1914  14.051   2.366  14.228
30386W        W 1915  16.768   2.257   4.605
30387W        W 1916  23.804  15.714   3.594
30388W        W 1917  10.056   0.988  13.037
30389W        W 1918  43.868  20.068   0.865
30390W        W 1919  41.902   4.283   3.051
30391W        W 1920   9.571  22.573   0.715
30392W        W 1921  41.772  44.016   4.247
30393W        W 1922  13.689  44.715  10.797
30394W        W 1923  39.402  19.514  11.613
30395W        W 1924  21.875  25.012  10.940
30396W        W 1925  39.830   5.892   2.224
30397W        W 1926  37.070  22.202   3.699
30398W        W 1927   0.967  20.110  14.504
30399W        W 1928   2.254   5.289  13.059
30400W        W 1929  27.419  19.546  14.318
30401W        W 1930  30.754  39.336   1.728
30402W        W 1931  42.051   3.865   4.139
30403W        W 1932  28.477  24.893   0.337
30404W        W 1933  17.883  41.057   0.285
30405W        W 1934   1.485   0.052  10.649
30406W        W 1935   6.434  38.503  14.987
30407W        W 1936   8.345   9.036  10.259
30408W        W 1937  24.050  37.401   1.663
30409W        W 1938  15.242  28.159   4.135
30410W        W 1939  43.368  22.688  14.807
30411W        W 1940   7.213  17.424  10.728
30412W        W 1941  44.454  14.214   5.053
30413W        W 1942  26.938   6.973   2.254
30414W        W 1943  10.291  43.711   3.668
30415W        W 1944  37.586  27.591  10.468
30416W        W 1945  18.187  10.746  11.588
30417W        W 1946  13.349  12.899   2.415
30418W        W 1947  17.173  21.944   2.740
30419W        W 1948  19.188  28.038   3.713
30420W        W 1949  23.982  31.882  12.305
30421W        W 1950  34.616   4.841   2.173
30422W        W 1951  10.666  20.147  13.054
30423W        W 1952  26.518  29.716  13.824
30424W        W 1953  21.888  42.078  13.473
30425W        W 1954   6.325  11.906  10.376
30426W        W 1955  31.135  31.860   5.337
30427W        W 1956  17.785  39.959  13.207
30428W        W 1957  29.069  19.708   0.133
30429W        W 1958   7.353  25.088   0.890
30430W        W 1959  36.476  29.949   1.169
30431W        W 1960  41.707   0.380   0.313
30432W        W 1961  14.518  31.563   2.695
30433W        W 1962   5.883   0.236  10.622
30434W        W 1963   4.920  22.724  12.057
30435W        W 1964   3.748  29.380  13.019
30436W        W 1965  27.844   0.380   5.086
30437W        W 1966   9.681  42.907   2.368
30438W        W 1967  26.257   5.410  13.800
30439W        W 1968  24.288  19.346  10.542
30440W        W 1969  23.837  43.508   4.828
30441W        W 1970  39.583  10.727  14.769
30442W        W 1971  21.560  11.992  14.706
30443W        W 1972  25.625   6.306  14.517
30444W        W 1973  17.486  26.875  14.076
30445W        W 1974  27.969  42.789  12.981
30446W        W 1975   6.701  12.223  11.097
30447W        W 1976   5.501  26.138  12.541
30448W        W 1977  19.218   8.351  14.018
30449W        W 1978   8.854   4.796  12.193
30450W        W 1979  15.690   3.240   4.652
30451W        W 1980  44.503  16.248   2.963
30452W        W 1981  37.721  19.748  12.545
30453W        W 1982  30.573  12.112  12.474
30454W        W 1983  40.948   1.319  13.890
30455W        W 1984  35.050  10.132  11.042
30456W        W 1985  27.094   0.446   1.456
30457W        W 1986  17.788  38.136   3.787
30458W        W 1987  29.539   7.236   2.775
30459W        W 1988  30.928   7.644   1.710
30460W        W 1989  22.116  44.949   3.994
30461W        W 1990   1.234  16.274   1.231
30462W        W 1991   3.402  13.609  10.756
30463W        W 1992  42.368   3.317  12.371
30464W        W 1993  22.387  10.709   0.738
30465W        W 1994   3.978  21.476  14.223
30466W        W 1995  26.223   2.741   3.277
30467W        W 1996  16.055  15.770   1.449
30468W        W 1997  24.141   9.914   0.668
30469W        W 1998  41.309  27.625  10.599
30470W        W 1999   7.307  29.721   2.699
30471W        W 2000  40.961  17.124   1.780
30472W        W 2001  42.459  24.473  11.689
30473W        W 2002  19.089  19.810  10.254
30474W        W 2003  26.488  30.309  10.873
30475W        W 2004  20.544  11.829  11.522
30476W        W 2005  44.323  34.611  12.342
30477W        W 2006  39.097  23.550  13.880
30478W        W 2007  29.702   4.391  12.627
30479W        W 2008  43.970   0.456  11.184
30480W        W 2009  26.543  34.562  12.215
30481W        W 2010  19.640  38.859   1.806
30482W        W 2011   8.145  24.605   0.339
30483W        W 2012   1.890   4.601   4.630
30484W        W 2013  17.870  22.736   2.190
30485W        W 2014  21.534   8.299  14.920
30486W        W 2015  28.371   1.191  10.667
30487W        W 2016   0.820   2.941  14.323
30488W        W 2017  42.014  23.587  14.495
30489W        W 2018  23.144  37.333  14.849
30490W        W 2019  10.817  23.909  12.204
30491W        W 2020  10.943  11.247   2.367
30492W        W 2021  30.821  42.380  14.792
30493W        W 2022   0.876  28.590  14.907
30494W        W 2023  35.346  24.369  11.036
30495W        W 2024  35.525   4.417  10.771
30496W        W 2025  15.069  41.424   4.806
30497W        W 2026  40.774  19.603  11.455
30498W        W 2027  32.843  11.798   4.155
30499W        W 2028  41.321  24.762  13.468
30500W        W 2029  15.112  35.852   1.867
30501W        W 2030  39.720  28.391   2.464
30502W        W 2031  44.281   4.442  12.060
30503W        W 2032  30.750  24.011   0.018
30504W        W 2033  38.895  37.244   1.388
30505W        W 2034  36.795  20.212  14.757
30506W        W 2035  18.752  44.751  11.220
30507W        W 2036  17.384   2.401   0.837
30508W        W 2037  15.608   9.250   2.200
30509W        W 2038  25.747  31.671   0.786
30510W        W 2039   2.794  41.923   1.349
30511W        W 2040  35.338  18.739  13.857
30512W        W 2041  24.056  36.488  12.575
30513W        W 2042  19.374  33.121   2.866
30514W        W 2043  10.127   4.715   0.124
30515W        W 2044  29.115  35.484   0.661
30516W        W 2045  35.459   9.940   1.186
30517W        W 2046   5.095   6.844  10.600
30518W        W 2047  18.666  20.675  11.632
30519W        W 2048   1.799  21.638  12.845
30520W        W 2049   2.737   7.599   3.358
30521W        W 2050  29.484  11.657   0.863
30522W        W 2051  13.510  10.950   4.120
30523W        W 2052  25.746  28.629   2.703
30524W        W 2053   2.873  32.688  10.732
30525W        W 2054  29.316  26.185  11.509
30526W        W 2055  18.497  17.184  13.619
30527W        W 2056  42.617  14.199   0.530
30528W        W 2057  35.679  42.997   3.214
30529W        W 2058  32.662  42.965   1.304
30530W        W 2059  22.395  18.068  11.592
30531W        W 2060  23.888  35.152  14.275
30532W        W 2061  30.211  30.054  10.788
30533W        W 2062  36.508  36.130  13.208
30534W        W 2063  16.344   9.686   2.002
30535W        W 2064  14.758  11.698  10.701
30536W        W 2065  43.281  39.366   0.854
30537W        W 2066  17.105  21.673   1.791
30538W        W 2067  43.458  31.619  12.430
30539W        W 2068  27.008   0.525  12.442
30540W        W 2069  36.595  30.038  12.889
30541W        W 2070  44.405   8.151   4.654
30542W        W 2071  17.532  41.893  11.902
30543W        W 2072   0.417  41.916   0.265
30544W        W 2073  36.813  11.113   3.668
30545W        W 2074  19.658  17.703   0.020
30546W        W 2075  39.076  42.892  12.380
30547W        W 2076  34.934  12.338   2.282
30548W        W 2077  34.089  37.232   4.197
30549W        W 2078  13.795  42.909   1.443
30550W        W 2079   7.332  18.275   2.683
30551W        W 2080  16.862   0.795  13.547
30552W        W 2081  22.269  24.392   1.128
30553W        W 2082  20.221   3.569   0.313
30554W        W 2083  16.316   2.849  11.507
30555W        W 2084  31.948  21.444   4.585
30556W        W 2085  28.041   8.910  10.682
30557W        W 2086  19.529  44.387  13.433
30558W        W 2087   7.656  44.728  10.695
30559W        W 2088   1.284  28.151   3.412
30560W        W 2089  41.521  26.550  10.750
30561W        W 2090  41.326  38.900  13.481
30562W        W 2091   3.840  13.755   3.410
30563W        W 2092  36.326  21.799  13.388
30564W        W 2093  44.026  29.108  12.444
30565W        W 2094   0.386   0.270   4.369
30566W        W 2095  38.804   4.387  12.008
30567W        W 2096  32.130   8.147   4.936
30568W        W 2097  24.565  27.182   0.804
30569W        W 2098   6.387   8.898   3.595
30570W        W 2099  38.788  30.536  12.627
30571W        W 2100  39.923  31.525  13.754
30572W        W 2101  41.776   6.912  12.436
30573W        W 2102  21.581   9.147   0.687
30574W        W 2103   3.825  13.773  11.019
30575W        W 2104   1.769  28.317  12.495
30576W        W 2105  30.038  21.740   4.586
30577W        W 2106  18.509   3.711   4.737
30578W        W 2107  41.633   4.681   4.131
30579W        W 2108   1.554  34.319  12.003
30580W        W 2109  36.472  38.824   0.836
30581W        W 2110  13.225   4.438   2.260
30582W        W 2111   1.013  27.998   4.618
30583W        W 2112  18.183  12.616  11.236
30584W        W 2113  27.544  21.622   2.296
30585W        W 2114   4.857  19.632   1.880
30586W        W 2115  16.644  15.748  12.717
30587W        W 2116   4.942   6.227  11.568
30588W        W 2117  13.109  39.112   2.819
30589W        W 2118  20.213  20.917   1.097
30590W        W 2119  14.612   6.125  12.078
30591W        W 2120  31.316  12.332   0.412
30592W        W 2121  18.522   6.316   3.987
30593W        W 2122  21.724  44.520  14.935
30594W        W 2123  33.050  42.040  11.378
30595W        W 2124  27.733  43.860   4.850
30596W        W 2125  44.533  26.097   1.404
30597W        W 2126  11.717  22.212  13.309
30598W        W 2127  31.429  36.466  11.959
30599W        W 2128  21.596  18.029  11.045
30600W        W 2129  26.339  36.855  12.519
30601W        W 2130  16.053  16.664  13.516
30602W        W 2131   1.154  28.615   2.595
30603W        W 2132   8.799  10.581  14.997
30604W        W 2133  36.063  35.828  14.465
30605W        W 2134  39.988   0.683  10.699
30606W        W 2135  34.446  27.475  12.210
30607W        W 2136  32.498  28.911  13.084
30608W        W 2137   8.344  15.814  10.608
30609W        W 2138  31.097  40.661  11.590
30610W        W 2139  24.532  18.252  14.764
30611W        W 2140   0.794  32.433   9.807
30612W        W 2141  25.067  10.678   0.152
30613W        W 2142   0.933  28.815   1.186
30614W        W 2143  27.089  31.952   2.200
30615W        W 2144   5.593  24.397   0.913
30616W        W 2145  14.626  26.008   3.802
30617W        W 2146  13.626   1.644   1.835
30618W        W 2147  36.203  35.726   3.245
30619W        W 2148  12.460   5.762   3.138
30620W        W 2149   6.449  17.119  11.111
30621W        W 2150  30.597   4.914   4.217
30622W        W 2151  33.041  17.157   4.705
30623W        W 2152   6.800  28.953  13.890
30624W        W 2153  27.437  10.467   1.472
30625W        W 2154  15.228  17.576   0.663
30626W        W 2155  35.927   0.815  11.543
30627W        W 2156  27.064   4.625   1.716
30628W        W 2157  11.264  42.967  10.581
30629W        W 2158   4.255  27.361  11.445
30630W        W 2159  35.354   0.268  14.877
30631W        W 2160   3.324   6.324   1.445
30632W        W 2161   4.748   3.428  10.534
30633W        W 2162  26.642  21.960  14.737
30634W        W 2163   3.817  32.443   0.767
30635W        W 2164  33.493   7.110  14.886
30636W        W 2165  44.403  43.585   0.952
30637W        W 2166  20.507  44.218  11.946
30638W        W 2167   9.299  35.822  12.991
30639W        W 2168  21.751  42.846   4.359
30640W        W 2169  16.627  20.800  14.633
30641W        W 2170  31.499  28.081  14.313
30642W        W 2171   3.774  41.417   0.666
30643W        W 2172  13.275   8.270   1.801
30644W        W 2173  39.044  34.249   3.198
30645W        W 2174  42.887  30.303  11.191
30646W        W 2175  39.956  41.127   3.230
30647W        W 2176  21.998  39.117   0.204
30648W        W 2177   5.960  11.833  12.390
30649W        W 2178  33.041  18.337   0.789
30650W        W 2179   1.406  43.520  13.967
30651W        W 2180   9.102  17.535  14.420
30652W        W 2181  16.713  26.966   3.552
30653W        W 2182  14.610  21.020   0.176
30654W        W 2183  14.430   6.066   3.165
30655W        W 2184   8.551  34.432   2.091
30656W        W 2185  33.508  13.921   1.336
30657W        W 2186  34.138  33.980   3.611
30658W        W 2187  43.456  32.905   0.283
30659W        W 2188  11.147  10.410   0.514
30660W        W 2189   0.706  16.337   0.332
30661W        W 2190  37.552  32.947   0.470
30662W        W 2191  11.772  39.212   0.806
30663W        W 2192  32.324   2.243   2.913
30664W        W 2193   2.759   8.742   0.240
30665W        W 2194  34.519   4.407   3.494
30666W        W 2195  32.202  23.023  13.817
30667W        W 2196  38.341  29.172   2.345
30668W        W 2197  34.003  42.388   1.013
30669W        W 2198   0.950  28.512   2.111
30670W        W 2199  34.099  39.304   2.443
30671W        W 2200   3.886  13.216  14.439
30672W        W 2201  12.687   0.067  12.914
30673W        W 2202  14.700   9.466  13.351
30674W        W 2203  11.741   4.839   5.024
30675W        W 2204  28.691   9.689  10.507
30676W        W 2205  33.024  30.466  12.964
30677W        W 2206   2.163  35.396  13.943
30678W        W 2207  38.027  35.940  13.062
30679W        W 2208  11.359   7.347   1.767
30680W        W 2209  39.576  26.179  11.421
30681W        W 2210  37.529  17.301  12.990
30682W        W 2211  31.908  26.765  12.996
30683W        W 2212  30.141  42.007   0.982
30684W        W 2213  10.933  16.193   0.959
30685W        W 2214  44.427  15.564  12.080
30686W        W 2215  35.661  10.620   1.677
30687W        W 2216  11.652  33.415   2.099
30688W        W 2217  43.939  13.233  13.102
30689W        W 2218  41.731   9.755  14.944
30690W        W 2219   1.946   7.961  13.772
30691W        W 2220  38.309  28.841   0.867
30692W        W 2221  28.613  22.119   3.912
30693W        W 2222   1.280  36.511   4.638
30694W        W 2223  18.584  19.130  12.012
30695W        W 2224  31.907   1.974   3.203
30696W        W 2225  18.004  30.125  13.949
30697W        W 2226  14.122   1.054   3.130
30698W        W 2227  18.832   5.716   2.773
30699W        W 2228  43.996  13.918   1.333
30700W        W 2229  10.307  35.644  13.503
30701W        W 2230  36.426  30.836   0.897
30702W        W 2231   1.325   5.741  11.641
30703W        W 2232  38.559  40.348   1.405
30704W        W 2233  23.148  42.885   3.490
30705W        W 2234  25.480  39.871   1.188
30706W        W 2235   3.454   2.712  14.437
30707W        W 2236   9.823  16.548  12.050
30708W        W 2237   4.179  37.915   4.219
30709W        W 2238   7.006  36.602   3.755
30710W        W 2239  17.767  18.049  14.381
30711W        W 2240  25.786   7.853  12.489
30712W        W 2241  23.972   4.273   2.069
30713W        W 2242   0.340  14.804  14.475
30714W        W 2243  34.559  29.499  11.172
30715W        W 2244  35.112  19.852   0.797
30716W        W 2245  30.025  14.165   1.681
30717W        W 2246  25.024  19.890  12.520
30718W        W 2247  16.851  31.184  13.052
30719W        W 2248  12.662  16.659   1.877
30720W        W 2249   5.276  39.732   2.186
30721W        W 2250  32.592  42.261  15.000
30722W        W 2251   3.924  35.900  12.023
30723W        W 2252   0.460   1.321   0.928
30724W        W 2253  37.577  32.968   4.039
30725W        W 2254  24.287  43.326   1.428
30726W        W 2255  37.824  39.964  12.140
30727W        W 2256  24.599   5.629   4.679
30728W        W 2257  21.142  43.708  12.496
30729W        W 2258  34.407   8.918   3.364
30730W        W 2259  36.693   4.952   4.226
30731W        W 2260   5.417   9.174   2.422
30732W        W 2261   6.617  16.627  11.026
30733W        W 2262  22.614  21.279   2.219
30734W        W 2263   5.967  21.001  12.012
30735W        W 2264  22.611  13.715   2.865
30736W        W 2265  40.049  44.354   1.328
30737W        W 2266  27.540  16.309  11.671
30738W        W 2267  38.523   6.284   4.678
30739W        W 2268  36.216  15.830   0.321
30740W        W 2269  41.793  43.195   3.059
30741W        W 2270   7.721  26.605  13.981
30742W        W 2271   9.340  27.038   4.011
30743W        W 2272  28.223  29.025  10.622
30744W        W 2273  22.890  24.477   4.554
30745W        W 2274  37.204  32.451  14.222
30746W        W 2275   7.189  13.646   2.342
30747W        W 2276  33.267   1.375   3.066
30748W        W 2277  26.836  44.257   5.028
30749W        W 2278   3.166  19.225   1.906
30750W        W 2279  43.312  23.375  12.739
30751W        W 2280  26.787   5.467  13.837
30752W        W 2281  42.430  27.206   3.171
30753W        W 2282  21.428  10.407   4.239
30754W        W 2283  15.135  36.823   0.893
30755W        W 2284  41.996  34.586  12.182
30756W        W 2285  30.217   0.614   2.897
30757W        W 2286  24.734  16.219   0.180
30758W        W 2287  11.948  13.913  12.837
30759W        W 2288  20.952   7.976  13.380
30760W        W 2289  26.697  11.784   4.571
30761W        W 2290  39.939  12.636   2.306
30762W        W 2291  12.648  17.701   1.778
30763W        W 2292  22.466   0.409   3.886
30764W        W 2293  17.523   2.276   2.755
30765W        W 2294   4.152  12.407   0.483
30766W        W 2295  42.405   7.044  13.697
30767W        W 2296  28.157  20.683  14.364
30768W        W 2297  36.020  40.439  11.491
30769W        W 2298  34.551  39.613  13.456
30770W        W 2299   8.616  38.761   3.230
30771W        W 2300   8.192  16.490  11.136
30772W        W 2301  22.273   6.167  10.946
30773W        W 2302  20.954  23.203   2.758
30774W        W 2303   2.663   0.026  13.440
30775W        W 2304  27.491  16.626  10.536
30776W        W 2305  41.824  28.518   0.011
30777W        W 2306  12.725  15.055   4.196
30778W        W 2307  24.069  39.354  14.329
30779W        W 2308  17.678  33.700   2.348
30780W        W 2309  42.391  38.761   2.003
30781W        W 2310  41.230  34.609  11.518
30782W        W 2311  12.095  13.310   4.130
30783W        W 2312  39.883  43.460  12.337
30784W        W 2313   8.851   6.402  10.955
30785W        W 2314   8.444  41.041   0.977
30786W        W 2315   1.519  29.023   4.587
30787W        W 2316  34.834  23.325   1.693
30788W        W 2317  10.293   8.304   0.948
30789W        W 2318  20.021  16.250   3.362
30790W        W 2319   9.786  36.665  14.881
30791W        W 2320  20.790  42.747   0.658
30792W        W 2321  33.107   9.289  14.656
30793W        W 2322   6.808   9.680   3.934
30794W        W 2323  11.632  24.564   2.164
30795W        W 2324  17.207  35.984  13.513
30796W        W 2325  22.565  17.650   4.683
30797W        W 2326  30.483  14.896  12.396
30798W        W 2327   2.278  27.904  14.183
30799W        W 2328  22.617  39.044  14.032
30800W        W 2329   4.480  17.546  11.492
30801W        W 2330  25.490   8.061   3.272
30802W        W 2331  16.080  11.194  13.880
30803W        W 2332  44.964  18.409   0.384
30804W        W 2333  40.938  27.062   0.471
30805W        W 2334  32.597   7.368   5.042
30806W        W 2335   7.774  30.410  12.910
30807W        W 2336  43.114  22.026  12.577
30808W        W 2337  38.682  38.739  12.076
30809W        W 2338  36.072  17.370  11.989
30810W        W 2339   7.228  28.478   3.206
30811W        W 2340  40.882  21.086  12.103
30812W        W 2341  27.110  28.532   3.369
30813W        W 2342  34.359   6.229   4.728
30814W        W 2343  21.350  17.794   4.019
30815W        W 2344  33.045  12.787  13.084
30816W        W 2345  16.514  16.128  10.978
30817W        W 2346  24.644   1.758   1.459
30818W        W 2347  15.512   1.872  13.535
30819W        W 2348  16.701  35.619   1.369
30820W        W 2349  12.172  44.032   2.360
30821W        W 2350   2.283  35.940  11.053
30822W        W 2351  18.304  39.957  13.050
30823W        W 2352  15.752   5.641  13.916
30824W        W 2353  36.489  24.438  11.843
30825W        W 2354  25.986   2.104  13.916
30826W        W 2355   9.758   9.887  14.413
30827W        W 2356  28.989  14.895   4.016
30828W        W 2357  29.458   7.853  12.142
30829W        W 2358  23.499  26.215  13.908
30830W        W 2359  29.694  30.916   0.395
30831W        W 2360   8.639  16.556   4.217
30832W        W 2361  41.378  10.549   0.334
30833W        W 2362  23.484   1.620   3.214
30834W        W 2363  30.872  21.970   2.738
30835W        W 2364  15.101  25.919   0.750
30836W        W 2365   8.588  26.681  13.917
30837W        W 2366  41.551   7.573   4.841
30838W        W 2367  40.320   4.745   1.733
30839W        W 2368  24.690   2.308   1.398
30840W        W 2369   0.845  38.289   0.334
30841W        W 2370   0.302  29.525  14.506
30842W        W 2371   0.057  27.549  14.005
30843W        W 2372  31.855   1.455   4.118
30844W        W 2373  21.976  26.152  14.848
30845W        W 2374  30.507  42.929   4.348
30846W        W 2375  32.003   0.746  13.960
30847W        W 2376  30.495  42.650  11.606
30848W        W 2377  39.821  23.112  14.356
30849W        W 2378  17.169  40.342   4.100
30850W        W 2379  24.073  27.190  12.143
30851W        W 2380  18.648  11.590   2.697
30852W        W 2381  15.138  32.574  13.896
30853W        W 2382   4.909  41.292  13.483
30854W        W 2383  17.155  14.370  13.130
30855W        W 2384  29.196  16.169   0.223
30856W        W 2385  29.169  22.019  13.494
30857W        W 2386  14.494  25.843  10.590
30858W        W 2387  19.736  18.249   1.733
30859W        W 2388  28.136  27.632   0.422
30860W        W 2389  38.596  42.394  11.103
30861W        W 2390   8.440   3.919   0.655
30862W        W 2391   3.755   3.327   0.992
30863W        W 2392  42.965  39.857   2.359
30864W        W 2393  20.807  40.426  14.974
30865W        W 2394  37.405   1.547   2.755
30866W        W 2395  31.070   5.679   4.110
30867W        W 2396   8.823   7.328   4.171
30868W        W 2397  13.225  38.328   0.965
30869W        W 2398   4.003  15.898   4.181
30870W        W 2399  19.597  13.338   5.084
30871W        W 2400   9.103  36.646  11.995
30872W        W 2401  36.949  42.590   2.202
30873W        W 2402  18.206  44.715   4.038
30874W        W 2403   3.804   1.436  14.801
30875W        W 2404  25.573  44.804   4.297
30876W        W 2405  32.596  20.571  14.122
30877W        W 2406  10.703  26.967   0.645
30878W        W 2407  30.689  20.761   0.191
30879W        W 2408   5.294  12.452  14.294
30880W        W 2409  43.933  32.127  10.413
30881W        W 2410  22.166   8.983  14.973
30882W        W 2411   8.628  14.282  12.883
30883W        W 2412  24.685   4.796   2.704
30884W        W 2413  10.032  36.779   3.496
30885W        W 2414  30.948   0.672   2.008
30886W        W 2415  15.412  29.383  13.368
30887W        W 2416  12.263  28.948   3.177
30888W        W 2417  22.939  13.186   3.843
30889W        W 2418  27.798   2.835  10.745
30890W        W 2419   4.447  11.631   0.823
30891W        W 2420   2.197  10.882  12.997
30892W        W 2421  28.430  38.399   3.829
30893W        W 2422  28.870  28.942  11.941
30894W        W 2423  21.488  14.280  12.236
30895W        W 2424   8.752  17.267  13.285
30896W        W 2425  29.072  32.713  13.049
30897W        W 2426   5.216  18.656   2.556
30898W        W 2427  18.501   5.278  11.980
30899W        W 2428  21.586  21.269   3.254
30900W        W 2429  16.235  41.438   1.430
30901W        W 2430   9.842  15.757   0.507
30902W        W 2431   8.067  16.701   0.981
30903W        W 2432  33.523  38.125   2.737
30904W        W 2433  32.489   3.172  14.123
30905W        W 2434  26.622  28.030  12.516
30906W        W 2435  32.577  26.656   2.879
30907W        W 2436   0.725   6.408  10.715
30908W        W 2437  40.795  20.853   0.475
30909W        W 2438  32.171  44.377  11.650
30910W        W 2439  29.070   0.488  12.424
30911W        W 2440  16.817  19.558   3.214
30912W        W 2441  41.729  40.711  14.757
30913W        W 2442  41.348  23.705  13.366
30914W        W 2443   3.841  37.601   0.375
30915W        W 2444  12.530  41.042  11.107
30916W        W 2445   8.690   2.054   3.167
30917W        W 2446  22.171  31.681  10.336
30918W        W 2447  22.171  10.312   4.915
30919W        W 2448   4.715  28.021   3.550
30920W        W 2449  29.548  18.939   3.832
30921W        W 2450  37.514  40.476   1.681
30922W        W 2451  23.743  42.980   4.748
30923W        W 2452   0.504   8.955  13.672
30924W        W 2453   8.251  33.512   4.469
30925W        W 2454  31.858  31.689  14.125
30926W        W 2455   7.453   0.321   0.715
30927W        W 2456  19.731   9.711   3.620
30928W        W 2457  24.388  37.337  10.276
30929W        W 2458  35.598  29.425   1.054
30930W        W 2459  42.258   2.539   4.180
30931W        W 2460  13.668  42.206   0.814
30932W        W 2461  14.598  36.775   3.631
30933W        W 2462  16.373   4.773  14.824
30934W        W 2463  42.060  21.944   4.515
30935W        W 2464  18.100  41.290  14.412
30936W        W 2465   7.088  31.561   2.573
30937W        W 2466  26.264   8.378  14.184
30938W        W 2467  31.018  43.781  11.373
30939W        W 2468  31.134  26.641  10.499
30940W        W 2469  20.523  25.682   3.839
30941W        W 2470  13.949   0.885  14.735
30942W        W 2471  43.383  17.432   9.540
30943W        W 2472  23.608  25.780   4.517
30944W        W 2473   4.598  34.881  14.144
30945W        W 2474  12.034  37.408   4.172
30946W        W 2475  18.935  40.125   1.450
30947W        W 2476  44.746  36.501  13.411
30948W        W 2477  44.651  26.680   4.638
30949W        W 2478   0.754  21.800   3.944
30950W        W 2479   7.948  25.022   1.882
30951W        W 2480  19.793  35.009  14.835
30952W        W 2481  44.087  29.584   1.932
30953W        W 2482  21.062  39.077  13.929
30954W        W 2483  32.102  36.906  11.484
30955W        W 2484  27.633   0.847  13.342
30956W        W 2485  36.665  38.402  10.688
30957W        W 2486   6.723  11.726  13.055
30958W        W 2487  43.262  25.574   0.303
30959W        W 2488  41.930  34.433  11.537
30960W        W 2489  26.982   0.936  12.116
30961W        W 2490  16.231  40.961  14.313
30962W        W 2491   4.314  31.628  12.903
30963W        W 2492   6.231  13.543  10.694
30964W        W 2493  40.604   8.789   3.116
30965W        W 2494  40.002  41.562  14.803
30966W        W 2495   5.281  17.194  12.999
30967W        W 2496  27.485  19.769   0.718
30968W        W 2497  27.169  21.552  10.340
30969W        W 2498  31.402  30.287   3.222
30970W        W 2499  11.916  33.062  10.402
30971W        W 2500  23.101   8.957   1.766
30972W        W 2501  41.275  40.430  12.556
30973W        W 2502   8.205  22.145  13.059
30974W        W 2503  16.539  26.651   3.190
30975W        W 2504  30.197   0.494  10.773
30976W        W 2505  36.066  17.185   1.716
30977W        W 2506  16.509   7.750  12.948
30978W        W 2507  40.468   1.153  14.040
30979W        W 2508  31.899  26.162  12.626
30980W        W 2509  23.383  29.109  12.724
30981W        W 2510  21.323  41.089   5.465
30982W        W 2511  38.040  43.902   0.750
30983W        W 2512  37.825   0.327  11.253
30984W        W 2513  25.984  27.258   2.867
30985W        W 2514   7.191  39.822  11.214
30986W        W 2515  41.373  34.521   4.608
30987W        W 2516   8.253  30.161   3.317
30988W        W 2517  16.596   6.362  12.048
30989W        W 2518  38.283  35.443   3.621
30990W        W 2519  34.587   5.922  11.951
30991W        W 2520   6.153   7.248   3.210
30992W        W 2521   1.754  39.387  11.110
30993W        W 2522  13.152  36.560   3.360
30994W        W 2523  43.205  22.530  10.716
30995W        W 2524  37.935   1.025  14.004
30996W        W 2525   7.463   1.952  12.793
30997W        W 2526  39.075   5.883  10.794
30998W        W 2527  39.038  38.810  14.948
30999W        W 2528   6.523  18.933  11.408
31000W        W 2529  17.673   6.886   4.017
31001W        W 2530  28.665  18.465   3.994
31002W        W 2531  36.827  14.374   4.675
31003W        W 2532   4.329  34.410  13.537
31004W        W 2533   6.948  40.175  14.478
31005W        W 2534  15.856  40.441   4.114
31006W        W 2535  18.772  23.545  12.035
31007W        W 2536  34.641  28.910  11.965
31008W        W 2537   7.708  11.966  11.187
31009W        W 2538  26.913  23.638   3.599
31010W        W 2539  42.916   1.445  10.746
31011W        W 2540   5.738  37.545  11.162
31012W        W 2541  18.666   8.740  11.676
31013W        W 2542  17.688  25.413   3.896
31014W        W 2543  21.541  19.234  10.547
31015W        W 2544  18.738  40.325  14.583
31016W        W 2545  16.585  17.562  13.714
31017W        W 2546  44.915  13.136  14.128
31018W        W 2547  19.543  39.459   3.819
31019W        W 2548  15.117  24.634  12.878
31020W        W 2549  10.253  39.923  12.997
31021W        W 2550   7.957  28.211  14.831
31022W        W 2551  36.612  33.654  10.766
31023W        W 2552   6.976  27.225  14.389
31024W        W 2553  26.098  16.252   4.273
31025W        W 2554  27.028  38.067   1.934
31026W        W 2555  12.911   5.865  13.514
31027W        W 2556  10.341   4.219  13.802
31028W        W 2557  26.619  34.916  11.825
31029W        W 2558  40.283  18.767  14.274
31030W        W 2559  32.409  32.189   4.698
31031W        W 2560  25.238  26.740  13.400
31032W        W 2561  40.793   8.650   0.973
31033W        W 2562   7.823   7.148   0.914
31034W        W 2563  33.300  10.120   0.909
31035W        W 2564   1.618  36.354  13.036
31036W        W 2565  28.876  41.948  13.591
31037W        W 2566  35.918  22.696  14.919
31038W        W 2567  36.850   4.276  14.394
31039W        W 2568   6.847  25.636   2.312
31040W        W 2569  11.786  21.192  12.572
31041W        W 2570   3.165  10.657  13.696
31042W        W 2571  31.293  13.338   4.684
31043W        W 2572   9.826  16.286   4.687
31044W        W 2573  21.650  32.027   0.204
31045W        W 2574  26.705  13.869  13.301
31046W        W 2575  29.179  33.856   3.638
31047W        W 2576  15.113   2.028  14.327
31048W        W 2577   5.815  40.747  10.728
31049W        W 2578  34.132   5.766   0.050
31050W        W 2579   1.892  28.105  11.708
31051W        W 2580  20.411  24.528   3.083
31052W        W 2581   9.807  17.780  13.107
31053W        W 2582   0.865  42.285  14.439
31054W        W 2583  25.860   8.560  11.592
31055W        W 2584  14.018  14.526  14.493
31056W        W 2585  13.171  41.382   4.257
31057W        W 2586  36.862  21.298  12.056
31058W        W 2587  36.856   1.604  13.843
31059W        W 2588  41.002  30.643  10.523
31060W        W 2589  40.401  43.719  13.003
31061W        W 2590  20.093  27.418   5.025
31062W        W 2591  18.765  29.014  14.968
31063W        W 2592  24.861  29.306  13.910
31064W        W 2593  23.556   0.531   0.653
31065W        W 2594  27.704   1.928   3.753
31066W        W 2595  29.591   8.835   3.623
31067W        W 2596  17.771  27.442   0.848
31068W        W 2597  34.791  33.115   3.327
31069W        W 2598  41.110   1.288   2.284
31070W        W 2599  15.303  11.594  12.928
31071W        W 2600  39.002  19.261   0.849
31072W        W 2601  13.175   8.892  12.946
31073W        W 2602  13.758   3.966  10.680
31074W        W 2603  23.752  23.205  14.974
31075W        W 2604  25.268  18.809  11.125
31076W        W 2605   8.320  39.450  13.965
31077W        W 2606  35.872   5.510  13.179
31078W        W 2607  21.853  32.110   3.198
31079W        W 2608  18.068  21.442  13.901
31080W        W 2609   6.096  35.907   2.202
31081W        W 2610  27.643   7.974   0.012
31082W        W 2611  18.977  18.649  14.429
31083W        W 2612   9.187  41.324  13.052
31084W        W 2613  22.165  10.778   2.777
31085W        W 2614  33.601   0.221   2.135
31086W        W 2615  28.235  10.244  10.848
31087W        W 2616   4.452   6.827   4.769
31088W        W 2617   2.241  26.638  11.650
31089W        W 2618  40.439  26.743  11.467
31090W        W 2619  38.586  33.426  12.086
31091W        W 2620  11.538  19.544   3.302
31092W        W 2621  42.355  11.899   4.330
31093W        W 2622   7.723  31.678   4.801
31094W        W 2623  27.794  17.353   4.601
31095W        W 2624  29.167  42.099  11.560
31096W        W 2625  14.765  43.077   1.756
31097W        W 2626   8.600  11.706   2.716
31098W        W 2627  40.881  32.434  12.456
31099W        W 2628  28.450   3.042  12.461
31100W        W 2629  18.768  41.107  10.704
31101W        W 2630   5.071  24.064  14.091
31102W        W 2631   0.950  35.147   0.621
31103W        W 2632  23.065  25.826  11.141
31104W        W 2633  24.453  24.902  11.932
31105W        W 2634  20.475   1.932   1.767
31106W        W 2635  14.805   2.834   1.270
31107W        W 2636  41.491  33.336   4.214
31108W        W 2637   5.097  23.394   4.984
31109W        W 2638   1.292  21.490   4.552
31110W        W 2639  21.776   6.722   2.743
31111W        W 2640   5.053  15.690   3.684
31112W        W 2641   0.060  25.654  12.209
31113W        W 2642  34.337  23.744  12.775
31114W        W 2643   9.804  28.075   2.155
31115W        W 2644  10.427   2.886   3.395
31116W        W 2645  40.047   4.820  14.541
31117W        W 2646  39.209   2.972   0.049
31118W        W 2647  39.312  15.616   4.660
31119W        W 2648  40.325  13.298  13.955
31120W        W 2649   9.709  44.918  11.659
31121W        W 2650  22.009  35.622   1.411
31122W        W 2651  42.894  33.526   2.517
31123W        W 2652  26.218   3.018   3.735
31124W        W 2653   0.665  15.159  13.788
31125W        W 2654  28.458  31.267   2.342
31126W        W 2655   0.897   4.200   1.422
31127W        W 2656  33.339   6.881  12.543
31128W        W 2657   8.686  38.871   1.205
31129W        W 2658  21.305   8.921  10.669
31130W        W 2659  34.866   8.851  12.517
31131W        W 2660  33.044  41.399  11.998
31132W        W 2661   5.647   1.907   1.159
31133W        W 2662  41.476  31.576   1.255
31134W        W 2663  28.185  21.974   0.663
31135W        W 2664  27.449   4.684  12.025
31136W        W 2665   0.364   7.146   3.648
31137W        W 2666  15.163  10.266  10.747
31138W        W 2667  26.605   1.391   3.589
31139W        W 2668  34.904  27.568   3.922
31140W        W 2669  28.640  41.381   1.447
31141W        W 2670  43.742  44.522   0.972
31142W        W 2671  26.272  21.108  11.087
31143W        W 2672  29.435   1.850  13.851
31144W        W 2673  32.428  15.117  10.596
31145W        W 2674  37.781  13.236  14.610
31146W        W 2675  42.295   6.416  14.967
31147W        W 2676  39.147  22.597  12.945
31148W        W 2677  10.349  31.942   0.511
31149W        W 2678  43.466  19.933  10.450
31150W        W 2679  36.478   0.313  11.886
31151W        W 2680  33.783  11.790   3.223
31152W        W 2681  28.091  38.554   2.636
31153W        W 2682   1.255  14.644  11.568
31154W        W 2683   6.656  22.207   2.737
31155W        W 2684  34.905  21.140  14.063
31156W        W 2685  29.192  31.642  14.801
31157W        W 2686  30.011  34.359  11.686
31158W        W 2687  28.586   0.722  14.540
31159W        W 2688  19.257  31.609   2.221
31160W        W 2689   6.585   5.793  14.345
31161W        W 2690  24.097   1.796   0.238
31162W        W 2691  22.754  10.072   9.955
31163W        W 2692  35.698  17.217  10.588
31164W        W 2693  37.952  32.495  12.388
31165W        W 2694  10.067  17.402  14.306
31166W        W 2695  23.052  26.990   0.803
31167W        W 2696  28.903  18.055  10.649
31168W        W 2697  38.165  17.642  13.939
31169W        W 2698  13.760  17.233  13.985
31170W        W 2699  36.150   8.215   3.733
31171W        W 2700  43.317  44.853   0.925
31172W        W 2701  15.883  31.081  10.506
31173W        W 2702  10.227  20.668   3.668
31174W        W 2703  44.038  25.464  11.988
31175W        W 2704  29.061  19.071   3.675
31176W        W 2705  35.201  20.877  13.546
31177W        W 2706  44.753  23.821   3.577
31178W        W 2707  27.825  10.574  12.943
31179W        W 2708  33.808  14.407   1.670
31180W        W 2709  28.681  40.485   1.310
31181W        W 2710  15.304  13.128  13.811
31182W        W 2711  12.304  42.077  11.147
31183W        W 2712  20.080  41.694  13.751
31184W        W 2713  23.207  44.144  10.474
31185W        W 2714  14.676  16.515  11.911
31186W        W 2715  20.611   9.623   2.366
31187W        W 2716  39.006  19.999   2.732
31188W        W 2717   5.959  16.713   9.878
31189W        W 2718  26.316  12.586   4.501
31190W        W 2719  24.631  21.701  13.321
31191W        W 2720   2.550  23.719  14.390
31192W        W 2721   3.818  11.287   0.329
31193W        W 2722  27.556  17.445   1.909
31194W        W 2723  23.865  20.980   1.212
31195W        W 2724  18.187  44.867   3.003
31196W        W 2725   7.867  32.221  11.654
31197W        W 2726  30.281  26.438   2.807
31198W        W 2727  35.669  37.760  11.118
31199W        W 2728  18.951  26.366  12.486
31200W        W 2729  14.418  35.690  11.675
31201W        W 2730  44.068  17.821  14.302
31202W        W 2731  23.273   2.794  12.452
31203W        W 2732  16.925   0.055   2.773
31204W        W 2733  22.410   0.002   0.126
31205W        W 2734  13.649  23.503  13.989
31206W        W 2735  33.211   0.905  10.648
31207W        W 2736  38.130  31.105   1.726
31208W        W 2737   2.429  17.084   1.147
31209W        W 2738  31.095  36.509  13.513
31210W        W 2739  25.113  11.885   1.441
31211W        W 2740  10.859  19.832   4.839
31212W        W 2741  14.834  20.220   2.228
31213W        W 2742  13.814   8.615   4.092
31214W        W 2743   4.222   1.689   3.299
31215W        W 2744  41.319  19.643   2.225
31216W        W 2745  37.584  13.718   1.535
31217W        W 2746   0.578  14.041   3.388
31218W        W 2747  15.319  16.053  11.582
31219W        W 2748   2.479  17.863   2.283
31220W        W 2749  44.477  11.849   0.767
31221W        W 2750   8.100   5.791   4.869
31222W        W 2751  26.996  34.547   0.518
31223W        W 2752   2.186  19.714   2.697
31224W        W 2753  30.352  18.633   1.274
31225W        W 2754   4.707  25.299   2.034
31226W        W 2755  44.486  15.691   0.227
31227W        W 2756   6.739   8.354  11.130
31228W        W 2757  22.157   2.021   4.848
31229W        W 2758  38.870   0.875   0.002
31230W        W 2759  31.070  16.326   3.594
31231W        W 2760  29.988   4.213  14.222
31232W        W 2761  24.149  30.358  10.568
31233W        W 2762  43.661  31.041   3.038
31234W        W 2763  26.395  28.856   3.348
31235W        W 2764  24.121  35.866  14.354
31236W        W 2765  30.364   3.825   1.735
31237W        W 2766   2.283  39.916  11.657
31238W        W 2767  16.137  31.677  12.990
31239W        W 2768  17.272  11.406  14.537
31240W        W 2769   6.261  20.112  14.494
31241W        W 2770  41.260  34.857   0.241
31242W        W 2771   8.226  28.938  12.525
31243W        W 2772  14.037   7.300  11.003
31244W        W 2773  24.698  12.606  13.483
31245W        W 2774   9.950  30.856  14.366
31246W        W 2775   9.602  13.579  13.517
31247W        W 2776   1.924  23.520   0.464
31248W        W 2777  44.371   4.175   3.554
31249W        W 2778  44.364  34.320   4.617
31250W        W 2779  31.632  37.484   3.111
31251W        W 2780  41.807  16.159  13.718
31252W        W 2781  26.243  26.439  12.176
31253W        W 2782   0.459  42.708  13.679
31254W        W 2783  19.711  43.941  13.294
31255W        W 2784   5.646  33.126  10.778
31256W        W 2785  28.748   8.281   3.588
31257W        W 2786  35.100  44.413   1.265
31258W        W 2787  20.033  15.655  10.506
31259W        W 2788  17.233  24.189   4.918
31260W        W 2789   7.448  15.265  14.354
31261W        W 2790  33.481  16.749  13.481
31262W        W 2791   9.441  18.268   2.803
31263W        W 2792  22.780  11.720  12.042
31264W        W 2793   0.279  25.040   3.960
31265W        W 2794  42.471  19.079   3.890
31266W        W 2795  33.041  24.547  11.573
31267W        W 2796  44.842  27.719   1.683
31268W        W 2797  10.008   1.699   3.281
31269W        W 2798  20.585   3.073   3.087
31270W        W 2799  18.052   1.445  11.408
31271W        W 2800  15.581  42.071  13.372
31272W        W 2801  39.220  36.474  12.012
31273W        W 2802   1.392  21.064   4.093
31274W        W 2803   5.129  29.039  13.003
31275W        W 2804  32.972  26.926   0.143
31276W        W 2805  33.049  29.942  13.059
31277W        W 2806  32.159  30.236   3.710
31278W        W 2807  29.054  36.579  13.067
31279W        W 2808  26.713  44.714   3.831
31280W        W 2809  23.628  28.747  12.085
31281W        W 2810   9.664  17.266  14.894
31282W        W 2811  15.045  26.392   0.942
31283W        W 2812  36.241  29.453  14.927
31284W        W 2813  20.376  10.935   1.769
31285W        W 2814  10.055   1.807  13.334
31286W        W 2815  41.491   3.962   2.952
31287W        W 2816  40.815   1.378   1.879
31288W        W 2817   6.734   6.882   4.323
31289W        W 2818  27.608   5.973  11.093
31290W        W 2819  24.700  25.359  13.669
31291W        W 2820  22.610  21.659   0.961
31292W        W 2821  11.443  32.390  10.682
31293W        W 2822   9.443   9.389  14.428
31294W        W 2823  42.836  37.869  13.071
31295W        W 2824  41.703   7.955  11.144
31296W        W 2825   8.013  33.496   0.446
31297W        W 2826  41.444  28.533  14.041
31298W        W 2827  11.329  15.747   2.760
31299W        W 2828  29.891  25.393  14.152
31300W        W 2829  20.787  24.005   1.275
31301W        W 2830  23.585  13.064   4.822
31302W        W 2831   2.271  36.461  10.993
31303W        W 2832  15.364  17.351  13.942
31304W        W 2833   1.249  14.753   3.069
31305W        W 2834  25.100  33.335   1.717
31306W        W 2835  23.948  30.738  11.480
31307W        W 2836  43.900   5.827   3.102
31308W        W 2837  16.314  21.405  14.203
31309W        W 2838  29.091  32.894   2.368
31310W        W 2839  35.818   7.741  13.378
31311W        W 2840   7.445  19.933   4.242
31312W        W 2841  31.521  29.427  10.656
31313W        W 2842   3.633  26.676  11.108
31314W        W 2843  42.869  42.037  12.066
31315W        W 2844  21.451  42.895   0.738
31316W        W 2845  25.019  35.382   2.754
31317W        W 2846  12.015   4.137  14.450
31318W        W 2847  26.776   9.708   2.723
31319W        W 2848  29.405  29.175  13.928
31320W        W 2849  32.955  28.335   0.192
31321W        W 2850  23.261  33.544  14.012
31322W        W 2851  38.224  30.617  12.803
31323W        W 2852  20.756  33.469   2.883
31324W        W 2853  21.015  24.507  12.929
31325W        W 2854  16.235  13.391   2.814
31326W        W 2855  43.754  32.049   3.319
31327W        W 2856  33.392   5.734  12.691
31328W        W 2857  14.801  16.415   1.271
31329W        W 2858  17.169  21.862   0.845
31330W        W 2859  39.568  11.698  12.190
31331W        W 2860  11.586  28.728   0.301
31332W        W 2861   5.316   3.499   3.607
31333W        W 2862  14.179   8.418  12.964
31334W        W 2863  24.921  31.097   3.763
31335W        W 2864  42.479   7.792  11.547
31336W        W 2865   2.016   2.741   1.276
31337W        W 2866  43.281   4.796   1.755
31338W        W 2867  19.523   4.477   4.119
31339W        W 2868  37.658  16.346   3.162
31340W        W 2869  27.581  32.823  12.625
31341W        W 2870  13.542   9.293   2.132
31342W        W 2871  15.585  35.371  13.626
31343W        W 2872  35.872  30.130   1.143
31344W        W 2873  18.566  23.756   3.685
31345W        W 2874  26.753  16.201  12.446
31346W        W 2875   2.609  37.841  11.494
31347W        W 2876  25.582  22.001  12.117
31348W        W 2877  39.462  30.627  13.426
31349W        W 2878  14.890  20.739   2.243
31350W        W 2879   1.659   6.260   3.158
31351W        W 2880  10.348  20.084   0.832
31352W        W 2881  37.484  44.030  11.711
31353W        W 2882  10.249  37.502  14.369
31354W        W 2883  12.572   5.434   0.631
31355W        W 2884  14.236  36.394   2.249
31356W        W 2885  25.677  15.157  12.649
31357W        W 2886   5.827  43.753  14.222
31358W        W 2887  15.579  28.712   3.024
31359W        W 2888  42.488   7.424   1.545
31360W        W 2889  25.657  31.889   0.343
31361W        W 2890   0.058  14.597   1.686
31362W        W 2891  26.969   6.138  14.856
31363W        W 2892  39.892  20.470   3.733
31364W        W 2893  28.852  15.720  13.146
31365W        W 2894  43.231   6.439   5.226
31366W        W 2895  29.154  22.602  12.659
31367W        W 2896   7.923   2.949   1.403
31368W        W 2897  44.006   0.645  10.230
31369W        W 2898  41.436  26.130  10.433
31370W        W 2899  31.789  37.257   0.519
31371W        W 2900  43.810   4.492   4.303
31372W        W 2901  21.912  30.381   0.954
31373W        W 2902  39.856  36.555  13.072
31374W        W 2903  42.024   1.953  10.729
31375W        W 2904  39.605   2.934   1.900
31376W        W 2905  15.017   2.384  11.585
31377W        W 2906  14.816  44.811   3.221
31378W        W 2907  43.500  14.843  14.896
31379W        W 2908  20.435  31.836   1.673
31380W        W 2909  31.489   9.418  14.258
31381W        W 2910   4.151  36.112  12.445
31382W        W 2911  35.708  35.148  11.497
31383W        W 2912   2.337  38.460   3.578
31384W        W 2913   5.155  40.117   0.374
31385W        W 2914   1.327  13.115  14.857
31386W        W 2915  17.065  40.058   1.370
31387W        W 2916   9.750  22.066   2.122
31388W        W 2917  20.910  15.822  14.888
31389W        W 2918  39.031  13.286  13.779
31390W        W 2919  10.271   4.372  12.405
31391W        W 2920  29.714  29.686  12.955
31392W        W 2921  32.199  30.532   3.228
31393W        W 2922  36.548  30.525  11.705
31394W        W 2923  24.786  30.123   4.532
31395W        W 2924  21.297  23.778  14.288
31396W        W 2925  11.767   7.539   3.137
31397W        W 2926  36.562  35.489   4.533
31398W        W 2927  34.705  36.940   2.097
31399W        W 2928  18.637  14.157  11.772
31400W        W 2929  35.094  39.590  11.972
31401W        W 2930  44.204  17.554   1.978
31402W        W 2931  27.452  36.391  11.657
31403W        W 2932  43.014   4.964   4.454
31404W        W 2933   9.745  38.828  10.737
31405W        W 2934  41.023  39.759   3.450
31406W        W 2935  21.478  44.061  12.363
31407W        W 2936  30.576  24.504  13.072
31408W        W 2937  29.687   5.279  12.361
31409W        W 2938  18.509   3.738   2.465
31410W        W 2939  39.107   3.824   1.507
31411W        W 2940  27.261  30.653   4.535
31412W        W 2941  38.724  10.586  11.656
31413W        W 2942  30.568  26.159  13.941
31414W        W 2943  28.190  17.769   3.398
31415W        W 2944  12.775  42.588  13.464
31416W        W 2945  26.400  37.416   0.936
31417W        W 2946   6.692  10.050   4.344
31418W        W 2947  27.505  26.536  10.301
31419W        W 2948  42.350  12.119   4.826
31420W        W 2949  10.183  19.096   0.663
31421W        W 2950  21.070   5.013  14.827
31422W        W 2951  34.174  43.011   4.232
31423W        W 2952  27.026  28.840  14.790
31424W        W 2953  44.040  24.999   0.767
31425W        W 2954   2.297  36.931  13.755
31426W        W 2955  41.504  29.777  12.819
31427W        W 2956  41.341  37.540   0.805
31428W        W 2957  36.310   8.811   4.084
31429W        W 2958  25.202  42.407   3.703
31430W        W 2959  11.637  30.114   1.520
31431W        W 2960  24.607  41.616   4.672
31432W        W 2961  43.394  37.177   1.167
31433W        W 2962  18.258  36.951  12.534
31434W        W 2963  35.999  39.821  13.145
31435W        W 2964  29.109  35.867  14.815
31436W        W 2965  16.582  24.428  12.471
31437W        W 2966  21.084   0.065   2.345
31438W        W 2967  28.149  25.970  12.501
31439W        W 2968  22.248  14.124   0.228
31440W        W 2969  40.843  15.073  12.534
31441W        W 2970   2.940   9.793   4.600
31442W        W 2971   8.958  15.257   3.256
31443W        W 2972  23.984  15.507  14.450
31444W        W 2973  28.251   0.299  14.582
31445W        W 2974   6.775  33.828   2.397
31446W        W 2975  29.244  40.312   3.782
31447W        W 2976  27.931   4.631  14.542
31448W        W 2977  21.274  13.656  12.812
31449W        W 2978  19.112   0.654  11.922
31450W        W 2979   6.788  28.108  12.796
31451W        W 2980  28.511  32.413  10.671
31452W        W 2981  40.989  36.310  13.849
31453W        W 2982  43.338  39.797  12.579
31454W        W 2983  22.356  11.545  10.110
31455W        W 2984  17.966  36.118  11.021
31456W        W 2985   2.003   7.928  11.056
31457W        W 2986  38.798  43.352   4.129
31458W        W 2987  19.049  23.308  11.681
31459W        W 2988  29.475  25.146   2.387
31460W        W 2989   3.992  15.713  13.036
31461W        W 2990  35.218  32.856   2.430
31462W        W 2991  20.706  31.126   3.140
31463W        W 2992  10.082  20.076   4.663
31464W        W 2993  20.489  22.530  11.595
31465W        W 2994  33.368   8.190  11.136
31466W        W 2995  12.348  20.495  10.665
31467W        W 2996  36.511  15.560   4.172
31468W        W 2997  30.973  27.987  11.969
31469W        W 2998  28.567  29.408  13.771
31470W        W 2999  20.059  44.689   4.505
31471W        W 3000  15.687  13.155  14.198
31472W        W 3001  18.784   4.917  13.839
31473W        W 3002   2.694   7.949  13.377
31474W        W 3003  43.521   0.992  13.292
31475W        W 3004   6.112  33.993  11.777
31476W        W 3005  34.939  15.131   1.231
31477W        W 3006  19.187  26.837   2.197
31478W        W 3007  42.614  15.591  12.601
31479W        W 3008   1.504   8.636  11.508
31480W        W 3009   5.562  39.106  12.402
31481W        W 3010  32.186  44.460   1.670
31482W        W 3011   2.481  31.017   0.841
31483W        W 3012  32.123  41.538  14.813
31484W        W 3013  18.025  43.968   1.285
31485W        W 3014  44.032  20.529  11.139
31486W        W 3015  42.060  19.718  13.888
31487W        W 3016  25.223  18.531  11.569
31488W        W 3017   2.711  24.281   2.700
31489W        W 3018  44.252   8.916  12.021
31490W        W 3019  37.584  25.092   2.903
31491W        W 3020  43.336  12.092  13.550
31492W        W 3021  40.100  41.366   3.666
31493W        W 3022  29.164  25.011  11.532
31494W        W 3023  38.935  16.002   2.717
31495W        W 3024   8.546  41.301  14.544
31496W        W 3025  36.857  36.025  10.666
31497W        W 3026   3.471  39.909   4.748
31498W        W 3027  43.717  31.959  14.349
31499W        W 3028  27.618   7.282   1.255
31500W        W 3029  19.285  36.058  12.883
31501W        W 3030  27.976  18.369  13.741
31502W        W 3031  18.822  36.215   1.222
31503W        W 3032  36.086   5.141  12.175
31504W        W 3033  19.093  34.317  14.780
31505W        W 3034  25.882  39.014  11.153
31506W        W 3035  26.151  10.903   1.163
31507W        W 3036  18.526   3.451  14.909
31508W        W 3037   8.094  34.923   1.499
31509W        W 3038  28.276  21.195  14.349
31510W        W 3039  42.134   5.041   0.009
31511W        W 3040  19.705  39.014   2.811
31512W        W 3041   1.218  41.861   2.077
31513W        W 3042  28.860  41.544  12.439
31514W        W 3043  37.310  10.763   0.933
31515W        W 3044   7.534  19.928   1.001
31516W        W 3045  25.733  30.992   2.711
31517W        W 3046   2.165  18.053   4.609
31518W        W 3047  23.299   2.820  10.680
31519W        W 3048   5.527  34.866   3.609
31520W        W 3049   9.843  27.888  11.573
31521W        W 3050  32.567   8.630   1.872
31522W        W 3051  21.096  41.911  12.329
31523W        W 3052   5.576  37.526   0.162
31524W        W 3053   9.960  10.070  11.050
31525W        W 3054  12.722  25.635   3.255
31526W        W 3055  28.610  39.987  10.657
31527W        W 3056  18.148  26.054   2.335
31528W        W 3057  38.172  42.974  11.667
31529W        W 3058   0.049  15.263   3.378
31530W        W 3059  23.579  10.143   4.495
31531W        W 3060   5.263  22.275   1.841
31532W        W 3061  31.432  26.176   0.524
31533W        W 3062  37.016  40.325  12.590
31534W        W 3063  23.247   3.270   0.479
31535W        W 3064  10.813  26.240   4.110
31536W        W 3065  28.434  10.272  14.882
31537W        W 3066  25.608  17.596   1.811
31538W        W 3067   2.321  17.347   2.345
31539W        W 3068  30.551  32.475   1.287
31540W        W 3069   4.313   1.726   2.389
31541W        W 3070   1.721  27.450  14.441
31542W        W 3071   5.624   0.837  14.319
31543W        W 3072  15.803  34.720   1.358
31544W        W 3073  29.510  39.333   1.148
31545W        W 3074  21.129   2.048   1.136
31546W        W 3075  37.191  44.842   1.014
31547W        W 3076   8.211   2.749   0.218
31548W        W 3077  27.047  31.439   2.913
31549W        W 3078  43.706  28.148   0.346
31550W        W 3079  10.662  33.971  14.703
31551W        W 3080  32.932  35.283   0.886
31552W        W 3081  22.710  33.905   0.123
31553W        W 3082   1.200  30.117  11.264
31554W        W 3083  35.212   5.886  11.027
31555W        W 3084  25.576   4.670   2.639
31556W        W 3085   1.870   8.357  11.265
31557W        W 3086  13.346  38.436  11.997
31558W        W 3087   3.150   8.739   1.118
31559W        W 3088  16.148  36.327   0.796
31560W        W 3089  21.672   1.230   1.131
31561W        W 3090   6.379  10.952  11.609
31562W        W 3091  18.385   8.965   0.439
31563W        W 3092  23.469   0.738   3.376
31564W        W 3093  12.780  18.173   4.619
31565W        W 3094   7.110  36.844  13.620
31566W        W 3095  34.095  10.847  10.663
31567W        W 3096  34.026  28.025  11.154
31568W        W 3097  20.646   1.169  12.035
31569W        W 3098  22.423  32.455  13.404
31570W        W 3099  13.815  30.982   0.046
31571W        W 3100  40.955  43.716  11.578
31572W        W 3101  41.489   4.665  13.517
31573W        W 3102  15.590  22.213   4.247
31574W        W 3103  33.471   5.210  14.368
31575W        W 3104  36.440  18.300   0.364
31576W        W 3105  42.828  41.376   2.163
31577W        W 3106  30.899   7.561   2.883
31578W        W 3107  15.123  38.286   3.242
31579W        W 3108  33.976  43.318  11.227
31580W        W 3109  28.894   5.178   0.732
31581W        W 3110   0.463   0.317  11.225
31582W        W 3111  20.197  17.371   2.022
31583W        W 3112  38.979  38.809   4.172
31584W        W 3113  23.607   2.927   2.093
31585W        W 3114  11.601  10.138  11.115
31586W        W 3115  25.078  41.723   3.440
31587W        W 3116  23.503  17.651   2.154
31588W        W 3117  22.734  27.456  11.915
31589W        W 3118   7.091   0.851   3.354
31590W        W 3119  22.268  29.049  13.947
31591W        W 3120  13.096  18.107   3.892
31592W        W 3121   4.344  32.921  12.597
31593W        W 3122  27.917  39.350  13.970
31594W        W 3123  42.262  35.327   0.788
31595W        W 3124   7.486  16.046  13.541
31596W        W 3125  44.271  30.013   1.273
31597W        W 3126   0.716  12.380   2.572
31598W        W 3127  44.353  18.728  11.534
31599W        W 3128  22.256  24.588   2.601
31600W        W 3129   1.722   3.833  12.973
31601W        W 3130  44.697   6.530  14.413
31602W        W 3131  34.113  31.265   2.971
31603W        W 3132  42.397  22.463  12.857
31604W        W 3133  12.665  18.282   1.188
31605W        W 3134  22.086  42.641  11.965
31606W        W 3135  15.747  28.652   0.980
31607W        W 3136   8.651   7.929   4.211
31608W        W 3137  24.148  26.931   1.442
31609W        W 3138  26.915  38.935   4.965
31610W        W 3139  11.362  35.165   3.646
31611W        W 3140  28.846  37.437   1.939
31612W        W 3141  35.202  23.021   4.689
31613W        W 3142   0.841  23.089   3.865
31614W        W 3143  39.343   6.890   3.600
31615W        W 3144  32.946  18.577  14.844
31616W        W 3145  27.938   2.877   0.449
31617W        W 3146  21.600  42.382   4.133
31618W        W 3147  27.031  44.289   2.828
31619W        W 3148   1.882  39.486   4.482
31620W        W 3149  17.008  44.411   0.743
31621W        W 3150  43.741   8.373   2.607
31622W        W 3151  35.360   9.324   3.201
31623W        W 3152  15.202  12.733   3.486
31624W        W 3153   1.190  24.493   3.210
31625W        W 3154  40.515   0.265  12.945
31626W        W 3155  37.500  33.872   1.590
31627W        W 3156  26.501  39.890   1.554
31628W        W 3157   9.129  15.924  12.361
31629W        W 3158  25.493  19.214  11.422
31630W        W 3159   0.120   5.503   2.115
31631W        W 3160  25.986  20.338   0.819
31632W        W 3161  13.082  37.311  11.995
31633W        W 3162  31.665  21.892   1.491
31634W        W 3163  18.850  43.813  12.108
31635W        W 3164  20.296  30.454  13.687
31636W        W 3165  18.027  17.576  10.701
31637W        W 3166  34.428   3.680  11.159
31638W        W 3167  36.084  14.825   4.877
31639W        W 3168  42.366  20.548  12.973
31640W        W 3169  11.187  43.938  10.609
31641W        W 3170   3.022  32.160   1.316
31642W        W 3171   1.194  34.531   1.196
31643W        W 3172  27.825  12.375   4.966
31644W        W 3173  43.798  34.137   4.051
31645W        W 3174   5.966  30.727  14.346
31646W        W 3175  22.323  22.469   4.286
31647W        W 3176  25.398  27.369   2.027
31648W        W 3177   3.642  27.776  14.368
31649W        W 3178  24.278  12.639   4.450
31650W        W 3179  35.605  18.115  14.570
31651W        W 3180   1.709  31.410   1.374
31652W        W 3181  10.449  28.638  13.413
31653W        W 3182  43.221  27.551  14.896
31654W        W 3183  16.701  35.154   1.659
31655W        W 3184   6.780  30.099  14.565
31656W        W 3185  37.653   8.921   4.086
31657W        W 3186  12.508   0.408   3.708
31658W        W 3187  21.484   9.144  11.119
31659W        W 3188  31.104  34.407   0.561
31660W        W 3189  40.463  16.620  12.049
31661W        W 3190  21.750  44.807  11.864
31662W        W 3191  14.130  16.626   2.237
31663W        W 3192  35.608  18.724   3.757
31664W        W 3193  19.778  15.982  13.414
31665W        W 3194  28.529  39.340   3.719
31666W        W 3195  39.315  43.352   4.097
31667W        W 3196  39.050  17.985  10.358
31668W        W 3197  11.810   8.162  14.877
31669W        W 3198   4.743  26.458   2.813
31670W        W 3199  38.524   2.454   2.780
31671W        W 3200  13.868  30.965   4.373
31672W        W 3201  25.497  44.053   2.793
31673W        W 3202  34.076  12.018  11.269
31674W        W 3203   4.545  34.563   3.788
31675W        W 3204  20.064  42.637  12.568
31676W        W 3205  37.582  15.861  10.710
31677W        W 3206  21.603  34.009   3.563
31678W        W 3207  17.598  40.865   2.395
31679W        W 3208  43.428  27.985   1.743
31680W        W 3209  16.241   8.953  12.470
31681W        W 3210  29.125  28.634   1.237
31682W        W 3211   4.470  39.423  11.591
31683W        W 3212  27.566   4.315   0.887
31684W        W 3213  14.890  40.722   3.638
31685W        W 3214  35.280  37.017  12.241
31686W        W 3215   7.149  44.966   3.831
31687W        W 3216  43.872   4.162   0.406
31688W        W 3217  42.455  39.575  11.573
31689W        W 3218  13.422  36.838  12.880
31690W        W 3219   0.681  11.907  13.379
31691W        W 3220  40.820  31.468  11.085
31692W        W 3221   6.410  34.400  12.032
31693W        W 3222  20.313  23.263   0.008
31694W        W 3223  44.628  36.738   2.769
31695W        W 3224  34.357  27.002  12.593
31696W        W 3225  42.124   6.870   2.172
31697W        W 3226  40.349  33.923   3.298
31698W        W 3227  15.557   5.738  10.492
31699W        W 3228  28.781  20.520  13.977
31700W        W 3229  43.562  19.813   0.536
31701W        W 3230   5.000  30.978  14.370
31702W        W 3231   1.857  24.965  13.956
31703W        W 3232  14.043   0.311  14.577
31704W        W 3233   3.193   8.323   3.760
31705W        W 3234  16.629   9.123   2.897
31706W        W 3235   6.276  13.229   2.289
31707W        W 3236  24.526   7.483   2.361
31708W        W 3237   2.114  44.997  13.963
31709W        W 3238  22.685  29.003  12.168
31710W        W 3239  36.542  15.771  11.720
31711W        W 3240  42.032   1.301   1.221
31712W        W 3241  11.817   2.953   4.072
31713W        W 3242   5.077  14.257   3.796
31714W        W 3243  25.204  41.893  11.478
31715W        W 3244  31.289  25.469   0.874
31716W        W 3245  42.898  17.985   2.796
31717W        W 3246  10.166  31.536   4.932
31718W        W 3247  13.304  16.038   4.682
31719W        W 3248  36.502  21.171  10.281
31720W        W 3249   3.475  39.041   3.479
31721W        W 3250  38.067  14.161  13.559
31722W        W 3251  22.943  36.153   1.686
31723W        W 3252  44.508  29.177   1.255
31724W        W 3253  25.667  41.768   1.176
31725W        W 3254  15.085  10.662  14.778
31726W        W 3255  43.806  32.653  11.133
31727W        W 3256  11.096   0.034   3.313
31728W        W 3257  43.411  40.821  12.309
31729W        W 3258   1.903  26.784   1.088
31730W        W 3259  41.976  34.099   4.743
31731W        W 3260  43.590  19.739  11.557
31732W        W 3261  34.893  42.432   1.030
31733W        W 3262  35.512   7.417   2.856
31734W        W 3263  11.902  25.011   4.601
31735W        W 3264  44.327  44.938  12.718
31736W        W 3265  37.861  37.642   1.309
31737W        W 3266  18.117   2.447  14.848
31738W        W 3267  13.836  21.008  13.549
31739W        W 3268   4.235   9.773  13.371
31740W        W 3269  25.277   0.697   4.188
31741W        W 3270   8.827  16.554  10.566
31742W        W 3271  44.820  37.021  14.982
31743W        W 3272   3.729  17.325   1.260
31744W        W 3273  18.330  23.319  14.377
31745W        W 3274  14.224  33.603  14.948
31746W        W 3275  14.317  13.168  13.843
31747W        W 3276   7.351   1.317  10.740
31748W        W 3277  25.703   6.759  11.714
31749W        W 3278  20.287  16.703   0.874
31750W        W 3279  14.816  27.114   3.793
31751W        W 3280  11.434  29.278  12.409
31752W        W 3281  31.690  38.276   3.793
31753W        W 3282  18.853   0.557  13.217
31754W        W 3283  34.394   1.460  10.717
31755W        W 3284   8.698   1.996   0.044
31756W        W 3285  21.474  27.131   2.298
31757W        W 3286  36.335  43.438  13.136
31758W        W 3287  33.154  13.757  11.765
31759W        W 3288  18.533  17.487  11.565
31760W        W 3289  35.136  18.846  11.186
31761W        W 3290  15.163  16.956  12.512
31762W        W 3291  23.909   0.860   1.449
31763W        W 3292  35.446  19.443   4.129
31764W        W 3293  15.780   7.218  11.542
31765W        W 3294  19.545  28.446   1.990
31766W        W 3295   1.507  20.672   3.329
31767W        W 3296   3.905  12.185  10.722
31768W        W 3297  39.516  37.056   4.554
31769W        W 3298  36.972  29.148   2.024
31770W        W 3299  30.741  17.276  10.695
31771W        W 3300  28.940  40.994   0.427
31772W        W 3301  37.190  39.944   2.259
31773W        W 3302  35.555  31.363  13.538
31774W        W 3303  36.635  34.937   2.333
31775W        W 3304   0.482  19.280  13.356
31776W        W 3305  34.852  13.108   2.844
31777W        W 3306   3.422  41.436   2.214
31778W        W 3307  32.888  39.981   0.812
31779W        W 3308  24.680  44.355  14.097
31780W        W 3309  35.893  42.024  12.130
31781W        W 3310  37.580  22.609  12.160
31782W        W 3311  31.756  34.352  14.375
31783W        W 3312   4.267  41.934   1.291
31784W        W 3313  30.568  14.615  10.257
31785W        W 3314  23.360  41.301  14.789
31786W        W 3315  18.073  11.593  11.214
31787W        W 3316  32.644   3.668   2.025
31788W        W 3317   2.555  19.037   2.381
31789W        W 3318   5.803  30.006   4.645
31790W        W 3319  24.470   7.934   1.374
31791W        W 3320  36.692  38.904   2.471
31792W        W 3321   3.832  33.007  11.955
31793W        W 3322  36.318  36.930  13.770
31794W        W 3323   0.010  11.326  12.583
31795W        W 3324  23.907   5.531  11.482
31796W        W 3325   5.662   1.233  10.790
31797W        W 3326  38.942  24.793   4.190
31798W        W 3327   1.230  38.401  12.214
31799W        W 3328  30.176   4.204  10.512
31800W        W 3329   0.848  16.337  13.158
31801W        W 3330  17.591  32.457   4.894
31802W        W 3331   8.676  27.908   2.818
31803W        W 3332  16.728  14.631   0.360
31804W        W 3333   2.099  41.200   5.048
31805W        W 3334   9.922  28.629  13.402
31806W        W 3335  19.049  29.629  14.852
31807W        W 3336  25.672  17.027  12.563
31808W        W 3337  44.984  36.039  13.299
31809W        W 3338  41.993  35.038   4.109
31810W        W 3339  34.022  37.732   4.386
31811W        W 3340  36.085   2.340   3.377
31812W        W 3341  32.997   7.168   1.235
31813W        W 3342   8.827  40.618  11.785
31814W        W 3343  21.023  25.659   2.205
31815W        W 3344  19.523  13.668  14.725
31816W        W 3345  25.603   7.081  12.132
31817W        W 3346  44.786  12.079   2.819
31818W        W 3347  14.321  36.364   0.541
31819W        W 3348   7.426  22.892   2.986
31820W        W 3349  41.922  12.726  11.213
31821W        W 3350   4.255  22.445   4.087
31822W        W 3351   2.527  18.102  12.913
31823W        W 3352  14.371  37.777  10.711
31824W        W 3353   4.432  44.840  14.395
31825W        W 3354  32.885   4.479  11.537
31826W        W 3355  15.293  11.638   0.702
31827W        W 3356  43.219  20.267  10.793
31828W        W 3357   6.898  20.282  11.580
31829W        W 3358  20.995  37.313   0.990
31830W        W 3359  17.133  35.603  11.180
31831W        W 3360  22.556  32.422   2.921
31832W        W 3361  43.404  16.853   4.186
31833W        W 3362  32.331  41.976  14.554
31834W        W 3363  34.542   3.289  13.277
31835W        W 3364   5.681  37.280  11.622
31836W        W 3365  42.743   7.683   1.909
31837W        W 3366  44.414   0.221   2.845
31838W        W 3367  20.144  19.251  12.020
31839W        W 3368  40.360  28.173  13.649
31840W        W 3369  27.848  36.539   4.580
31841W        W 3370  33.365   0.574   2.707
31842W        W 3371  27.498   7.600   1.676
31843W        W 3372  34.472   9.900   4.708
31844W        W 3373   3.031  27.782   4.266
31845W        W 3374  40.471  29.081  14.062
31846W        W 3375  10.803   7.616  12.335
31847W        W 3376   2.252  40.544   3.838
31848W        W 3377  26.103  28.741   4.316
31849W        W 3378   6.156  12.296   2.175
31850W        W 3379  27.982  34.408  13.020
31851W        W 3380  16.605   4.709  11.494
31852W        W 3381  43.528  35.880   5.081
31853W        W 3382   0.752  33.851  10.687
31854W        W 3383  28.397  20.427  14.824
31855W        W 3384  19.919  20.193  12.373
31856W        W 3385  19.726  17.607  14.529
31857W        W 3386  19.734   0.393   1.372
31858W        W 3387  43.748  39.643   0.808
31859W        W 3388   5.715  18.704  11.209
31860W        W 3389  21.883  38.479  10.592
31861W        W 3390  29.435  24.450   1.796
31862W        W 3391  20.315  36.549   0.221
31863W        W 3392  34.826  33.487   1.364
31864W        W 3393  16.681  34.412  14.829
31865W        W 3394  25.590   4.531  12.868
31866W        W 3395  16.225  26.532  12.623
31867W        W 3396  10.212  18.691  11.107
31868W        W 3397  18.207  32.112   2.796
31869W        W 3398  16.337  25.952  14.000
31870W        W 3399  38.348   0.325  11.953
31871W        W 3400  22.145   8.879  14.063
31872W        W 3401  19.661  44.219  10.039
31873W        W 3402  41.963  37.985   4.023
31874W        W 3403  10.793  19.797   1.751
31875W        W 3404  17.008  38.994   4.616
31876W        W 3405  37.043   3.736   0.412
31877W        W 3406  11.887  35.795   4.568
31878W        W 3407  27.029  20.479  13.055
31879W        W 3408  34.868  12.283  12.138
31880W        W 3409  40.778  28.098  11.078
31881W        W 3410  30.629  34.470   2.758
31882W        W 3411  32.078  31.964   5.038
31883W        W 3412  28.221  16.561   4.011
31884W        W 3413  34.178  23.994   0.816
31885W        W 3414  44.967  36.147   2.388
31886W        W 3415  37.706  17.852  13.713
31887W        W 3416  39.380  25.534   2.659
31888W        W 3417  27.218  16.561   4.108
31889W        W 3418  17.568  10.438  13.794
31890W        W 3419  35.017  32.614   4.551
31891W        W 3420  43.333  21.600   4.599
31892W        W 3421  31.017   1.687  12.587
31893W        W 3422  41.360   0.910  12.372
31894W        W 3423   5.348  26.539  10.746
31895W        W 3424  34.523  26.163  14.328
31896W        W 3425   3.908  41.437   0.156
31897W        W 3426   1.741  24.660  12.998
31898W        W 3427  16.599  34.438  10.757
31899W        W 3428  27.655   0.857  14.452
31900W        W 3429   1.471  44.773   1.407
31901W        W 3430  36.133   7.185   0.375
31902W        W 3431  32.403  40.576  13.228
31903W        W 3432   5.884  44.006  12.028
31904W        W 3433  12.117  14.052  13.849
31905W        W 3434  31.093   2.396  14.386
31906W        W 3435  11.177  37.970  12.586
31907W        W 3436  41.512  29.880  13.771
31908W        W 3437  15.912   8.799   2.307
31909W        W 3438   5.243  42.288  12.600
31910W        W 3439  35.362  31.197  10.708
31911W        W 3440  29.661   0.268  14.439
31912W        W 3441  31.042  26.746  14.745
31913W        W 3442  15.622   7.538   1.866
31914W        W 3443  35.323  25.983  12.829
31915W        W 3444  15.895  40.994   3.418
31916W        W 3445  19.032  25.754   1.354
31917W        W 3446  20.544  11.689   2.241
31918W        W 3447   8.387  19.197  13.541
31919W        W 3448  10.784  31.600   3.211
31920W        W 3449   9.579  24.026   4.172
31921W        W 3450  33.036  30.438  10.533
31922W        W 3451  44.007  23.724   3.381
31923W        W 3452  29.423  36.243   2.088
31924W        W 3453  13.614  36.312   3.235
31925W        W 3454  40.635  37.979   1.396
31926W        W 3455   6.657  25.887   0.981
31927W        W 3456  28.000   0.858   4.203
31928W        W 3457  32.402   1.967   5.103
31929W        W 3458  32.077  31.863   0.237
31930W        W 3459  32.143  26.006   1.771
31931W        W 3460   2.311  12.070  10.882
31932W        W 3461  34.522  29.934  12.122
31933W        W 3462   0.906  26.899   3.712
31934W        W 3463  37.002  12.771  12.910
31935W        W 3464  37.011  40.790   1.619
31936W        W 3465  23.629  35.474  10.650
31937W        W 3466   4.479   3.710  11.681
31938W        W 3467  40.550  26.373   2.580
31939W        W 3468  27.551  40.880   3.581
31940W        W 3469   9.830  18.648  14.255
31941W        W 3470  42.763  20.543   4.237
31942W        W 3471  41.931  31.958   4.049
31943W        W 3472   8.332   8.160  13.352
31944W        W 3473   0.736   0.946   0.705
31945W        W 3474  16.088   5.259   0.665
31946W        W 3475  39.570  23.500   1.395
31947W        W 3476   5.163  43.755  11.541
31948W        W 3477  21.179  32.030   0.509
31949W        W 3478  21.109  13.156  14.531
31950W        W 3479  20.060  43.438   2.260
31951W        W 3480   5.889   3.418   2.241
31952W        W 3481  40.786  15.791  10.875
31953W        W 3482  32.465  20.099  10.976
31954W        W 3483  32.909   7.812   4.499
31955W        W 3484  30.285   3.359  12.450
31956W        W 3485  17.124  44.009  13.984
31957W        W 3486   8.716  25.013   3.892
31958W        W 3487  36.804  38.777  11.011
31959W        W 3488  40.360  17.765   1.361
31960W        W 3489  23.676   7.865   1.591
31961W        W 3490  13.352  16.159  11.955
31962W        W 3491  16.687  43.023  11.565
31963W        W 3492   9.610  13.328   2.173
31964W        W 3493  21.308   3.440   3.105
31965W        W 3494  31.632  31.796  11.940
31966W        W 3495  10.415  14.336   3.072
31967W        W 3496   2.564  25.087   1.319
31968W        W 3497  10.274  17.568  13.077
31969W        W 3498  14.110  10.554  14.727
31970W        W 3499   2.134  21.498   3.852
31971W        W 3500  27.916  42.199   1.363
31972W        W 3501  10.713   7.152   4.286
31973W        W 3502  15.968   8.992  14.750
31974W        W 3503  27.987  28.121  13.892
31975W        W 3504  40.030  25.942  11.558
31976W        W 3505  18.521  26.495  14.903
31977W        W 3506   8.222   9.174  12.408
31978W        W 3507  29.235  40.325  11.410
31979W        W 3508  25.203   9.849  12.029
31980W        W 3509   2.146  23.454  13.981
31981W        W 3510  26.457  16.147  13.753
31982W        W 3511  26.662   0.359  10.853
31983W        W 3512   2.252  39.500  11.095
31984W        W 3513  37.070  41.775   1.437
31985W        W 3514  15.141  18.960   2.196
31986W        W 3515  42.989  14.111   0.900
31987W        W 3516   0.802  29.443   3.687
31988W        W 3517  37.904  44.218  14.436
31989W        W 3518  12.712  40.732   3.304
31990W        W 3519   6.676  22.451   3.232
31991W        W 3520   0.305  20.220   1.652
31992W        W 3521  22.561  25.917  11.050
31993W        W 3522   8.432  35.851   4.207
31994W        W 3523  19.436  26.053   3.561
31995W        W 3524  18.326   0.377  13.997
31996W        W 3525  30.870  16.900  11.158
31997W        W 3526   6.756   0.980  13.255
31998W        W 3527  26.865  10.840   2.424
31999W        W 3528  15.641   5.632  14.808
32000W        W 3529  17.644  30.158  12.811
32001W        W 3530  26.425   1.584   1.434
32002W        W 3531  18.052  22.139   3.763
32003W        W 3532   4.406  43.483  11.035
32004W        W 3533  42.374   3.781   0.591
32005W        W 3534  16.639  27.969  13.786
32006W        W 3535   3.225  28.886   3.408
32007W        W 3536  44.547  26.158  11.103
32008W        W 3537  24.772   1.282   4.904
32009W        W 3538  23.834  38.780   4.321
32010W        W 3539  22.972  20.456  14.780
32011W        W 3540  16.720  34.637  13.246
32012W        W 3541  23.480  32.580  14.477
32013W        W 3542   5.230  15.845   4.618
32014W        W 3543  33.907  21.744   3.155
32015W        W 3544  28.577  43.503   3.233
32016W        W 3545  31.368   4.956   4.596
32017W        W 3546  28.962  25.831   3.376
32018W        W 3547  29.074   4.820  12.936
32019W        W 3548  33.364  36.947  13.028
32020W        W 3549  36.008  29.552   2.741
32021W        W 3550   8.098  38.938  14.290
32022W        W 3551   5.834  21.791   4.690
32023W        W 3552  40.313  17.560   0.883
32024W        W 3553  17.649  20.646  11.687
32025W        W 3554  30.189  44.020   0.769
32026W        W 3555   5.922   2.435   4.296
32027W        W 3556  38.160   9.871  12.782
32028W        W 3557   0.012  14.174   0.752
32029W        W 3558  29.891  35.625   0.489
32030W        W 3559  38.732  15.109  10.307
32031W        W 3560  19.047  29.265   4.059
32032W        W 3561  19.006  24.775   3.290
32033W        W 3562  19.539  44.013  14.745
32034W        W 3563  35.813  17.334   3.613
32035W        W 3564   8.982  39.506   0.042
32036W        W 3565   1.108   0.018   0.930
32037W        W 3566  22.078  23.946   3.235
32038W        W 3567  40.575  11.932   4.497
32039W        W 3568  35.978   0.919   5.037
32040W        W 3569   6.918   6.286  13.399
32041W        W 3570  38.061  24.086   0.762
32042W        W 3571   8.583  42.048   0.702
32043W        W 3572   2.772  28.670   1.817
32044W        W 3573  35.141   2.358   2.110
32045W        W 3574  21.985   0.240  14.419
32046W        W 3575  33.587  40.353   4.266
32047W        W 3576  39.060  26.203  11.546
32048W        W 3577  23.689   7.366   4.160
32049W        W 3578  23.945  28.195   3.768
32050W        W 3579   8.418   7.696  13.551
32051W        W 3580  38.414   0.803  14.759
32052W        W 3581  21.098  43.011   0.324
32053W        W 3582  21.685  23.525   3.178
32054W        W 3583  22.929  19.532  13.937
32055W        W 3584  29.133   2.437  14.935
32056W        W 3585  16.323  18.229   0.725
32057W        W 3586   0.787  15.007  14.277
32058W        W 3587  26.721   5.878   3.779
32059W        W 3588   8.184  35.293  14.777
32060W        W 3589  32.653  44.206   4.102
32061W        W 3590  15.309   6.018  12.364
32062W        W 3591  16.098  19.073  11.086
32063W        W 3592   2.120  26.180  13.476
32064W        W 3593   9.637   6.865  11.425
32065W        W 3594  26.612  22.359  11.606
32066W        W 3595  27.600  42.453   4.910
32067W        W 3596  11.337  26.232  11.179
32068W        W 3597  25.633  27.485  14.029
32069W        W 3598   0.887   2.923  13.470
32070W        W 3599  31.569   4.924  11.200
32071W        W 3600  18.664   7.431  12.059
32072W        W 3601   3.010   7.310   3.718
32073W        W 3602  30.033  20.784  11.600
32074W        W 3603  37.573   7.326   1.957
32075W        W 3604   0.744  33.861  12.001
32076W        W 3605  24.095  28.889   1.240
32077W        W 3606  30.541   9.690   3.183
32078W        W 3607  43.748   7.227  12.605
32079W        W 3608  15.664  38.002  10.740
32080W        W 3609  30.735  25.519  11.460
32081W        W 3610  15.533  44.911  10.665
32082W        W 3611  29.091  28.640  10.600
32083W        W 3612  11.712  13.317   2.883
32084W        W 3613  16.824  43.593  13.336
32085W        W 3614  20.148  43.911  13.063
32086W        W 3615  44.354  44.796   1.894
32087W        W 3616  14.997   4.148  11.153
32088W        W 3617  15.134  31.370  12.529
32089W        W 3618   1.630  27.618   1.230
32090W        W 3619  39.441  25.946   4.826
32091W        W 3620  23.048  10.872  13.760
32092W        W 3621   1.378  34.311  13.420
32093W        W 3622  18.638  30.353   4.865
32094W        W 3623  19.809  23.566  11.226
32095W        W 3624  20.853   0.398   0.480
32096W        W 3625  14.857  25.070  14.874
32097W        W 3626  23.179  15.108  10.533
32098W        W 3627  10.588  36.638   0.229
32099W        W 3628  20.385  37.046  13.376
32100W        W 3629  41.683   6.084   4.526
32101W        W 3630   2.414  12.249   0.112
32102W        W 3631  24.164   1.465   4.226
32103W        W 3632  23.248   4.490  11.995
32104W        W 3633   0.025   8.761  11.585
32105W        W 3634  31.582  22.576  12.940
32106W        W 3635  41.735  13.791   4.763
32107W        W 3636  28.506  41.912  12.130
32108W        W 3637  27.599  22.533  13.036
32109W        W 3638   1.489   9.268  11.918
32110W        W 3639  26.467  19.287  13.498
32111W        W 3640  33.706  15.148  12.162
32112W        W 3641  31.379  27.120   1.497
32113W        W 3642   8.227  22.222  12.532
32114W        W 3643  42.887  11.844  14.389
32115W        W 3644  11.744  32.585  12.414
32116W        W 3645  14.614  34.939  14.254
32117W        W 3646   2.231  37.245  12.476
32118W        W 3647  16.300  19.602   3.291
32119W        W 3648  35.261   3.401  12.139
32120W        W 3649  29.935   4.843   3.101
32121W        W 3650  14.145  37.316  13.609
32122W        W 3651   1.812  27.586   4.728
32123W        W 3652  44.722  36.465   4.060
32124W        W 3653  44.152   2.075  11.127
32125W        W 3654   2.218  12.374  12.359
32126W        W 3655   8.911   5.296   2.773
32127W        W 3656  38.833   0.281   0.316
32128W        W 3657   5.395   7.723   0.315
32129W        W 3658  10.305  38.465  11.140
32130W        W 3659  21.459   3.281   2.206
32131W        W 3660  16.362  17.594   1.219
32132W        W 3661  30.381  24.534   3.622
32133W        W 3662  37.260  17.577   3.191
32134W        W 3663  33.487  36.044   0.900
32135W        W 3664  38.267  27.619  13.968
32136W        W 3665  16.755  30.698  11.602
32137W        W 3666  21.009  28.563  13.998
32138W        W 3667   3.326   1.017  10.682
32139W        W 3668  30.464  19.132  10.704
32140W        W 3669   0.896  10.125  12.179
32141W        W 3670   8.994  33.571   9.720
32142W        W 3671  35.433  33.594  14.748
32143W        W 3672   0.533  12.172  13.838
32144W        W 3673   6.757  19.836  13.076
32145W        W 3674  44.848  20.538  11.200
32146W        W 3675  12.321  13.750   2.123
32147W        W 3676  24.774  31.490  12.903
32148W        W 3677  40.283  36.085  11.644
32149W        W 3678  35.534  16.801  14.022
32150W        W 3679  21.230  11.768  14.026
32151W        W 3680  35.855  38.039   0.509
32152W        W 3681  28.229  39.267  11.076
32153W        W 3682  17.642  14.105  13.927
32154W        W 3683  27.312  11.793  12.822
32155W        W 3684  43.088  34.406   1.485
32156W        W 3685  26.358  42.249   4.568
32157W        W 3686  33.314  21.062  10.354
32158W        W 3687  16.544   0.741  10.771
32159W        W 3688  29.790  26.245   4.094
32160W        W 3689  40.531   4.387   3.361
32161W        W 3690  31.503  26.393   0.986
32162W        W 3691  44.227   7.938  14.905
32163W        W 3692   0.011  42.081   2.707
32164W        W 3693  34.929  30.392  13.056
32165W        W 3694  30.946   7.813  14.868
32166W        W 3695  21.580  27.668   1.312
32167W        W 3696  15.142  13.784  14.586
32168W        W 3697  27.087  12.494  10.987
32169W        W 3698  38.529  35.082   2.839
32170W        W 3699  12.560  15.797   0.275
32171W        W 3700  35.515   6.943   3.836
32172W        W 3701   6.828  13.570  11.428
32173W        W 3702  26.666   7.143   1.831
32174W        W 3703  44.068  44.071  10.990
32175W        W 3704  35.535   3.853   1.397
32176W        W 3705  10.513   4.890   2.222
32177W        W 3706  14.089   2.406  14.777
32178W        W 3707   1.033  34.337  12.081
32179W        W 3708  27.553   8.184  10.558
32180W        W 3709  31.367  14.294  14.258
32181W        W 3710  11.550  28.130  11.259
32182W        W 3711  43.942  14.613   4.645
32183W        W 3712   6.444  32.582   2.052
32184W        W 3713  37.907  40.501  14.790
32185W        W 3714  31.533  30.284   4.192
32186W        W 3715  22.019  10.923  11.180
32187W        W 3716  27.206  11.354  13.962
32188W        W 3717   7.770  32.163   4.584
32189W        W 3718  13.380  13.628   3.765
32190W        W 3719  32.230   6.430  13.763
32191W        W 3720   0.532  12.016   3.040
32192W        W 3721   1.372   3.081  11.456
32193W        W 3722  10.006  40.411  12.153
32194W        W 3723  11.074  15.351  14.074
32195W        W 3724   7.701  36.462  10.904
32196W        W 3725  21.099   7.792   2.768
32197W        W 3726  13.972  23.203   2.817
32198W        W 3727  43.099   1.841  11.684
32199W        W 3728  22.620  29.624   1.731
32200W        W 3729   9.633  26.754   2.326
32201W        W 3730   4.967  23.490   1.221
32202W        W 3731  21.774  12.916  12.700
32203W        W 3732   6.344  36.222  11.187
32204W        W 3733  15.638  33.150   3.774
32205W        W 3734  15.388  35.177  11.140
32206W        W 3735  35.468  10.316   3.897
32207W        W 3736   5.237   1.397  12.622
32208W        W 3737  24.945  13.127   2.721
32209W        W 3738  26.431  30.736  13.935
32210W        W 3739   7.661  42.794  10.318
32211W        W 3740   6.897   6.209  14.300
32212W        W 3741  32.393  36.392  13.488
32213W        W 3742   4.301  20.341   3.248
32214W        W 3743  41.783  39.061  12.237
32215W        W 3744  40.861  35.464  14.715
32216W        W 3745  34.506  30.411   3.581
32217W        W 3746  13.606  22.561  11.996
32218W        W 3747   3.282   8.450  12.906
32219W        W 3748  40.830  23.157  12.189
32220W        W 3749   0.694  31.441   2.824
32221W        W 3750  14.483  21.795   4.973
32222W        W 3751  27.440   2.828  14.028
32223W        W 3752  26.723  13.201  10.694
32224W        W 3753  29.766   3.748  13.973
32225W        W 3754  25.378  23.011   3.331
32226W        W 3755  20.050   3.962   1.958
32227W        W 3756  31.115  16.506  12.661
32228W        W 3757  33.078  17.331   2.668
32229W        W 3758   2.399  30.848  11.455
32230W        W 3759  10.615  19.173   0.960
32231W        W 3760  10.600   7.120   3.371
32232W        W 3761   2.757  28.067   2.286
32233W        W 3762  37.618  14.713  14.834
32234W        W 3763  35.644   0.780  12.617
32235W        W 3764   6.286   7.343   4.709
32236W        W 3765   5.306  22.002  11.191
32237W        W 3766   8.716  42.070  12.073
32238W        W 3767  26.597  21.867  10.342
32239W        W 3768   9.171  29.456   0.255
32240W        W 3769  10.818  40.656   0.747
32241W        W 3770  37.146   2.494   3.871
32242W        W 3771  11.250  15.801   0.770
32243W        W 3772   0.510  13.302  11.908
32244W        W 3773  35.378  41.307   3.669
32245W        W 3774  22.063  17.333   2.885
32246W        W 3775  36.425   8.163  11.423
32247W        W 3776  32.825  26.926   3.290
32248W        W 3777  15.769  30.788  11.535
32249W        W 3778   1.031   8.333   0.963
32250W        W 3779  34.020   1.913  11.658
32251W        W 3780  38.458  19.543  11.565
32252W        W 3781  32.810  30.134  11.629
32253W        W 3782   4.902  30.842  12.876
32254W        W 3783  18.545   4.725  13.395
32255W        W 3784  13.121   0.552   1.479
32256W        W 3785  43.125   5.375   3.706
32257W        W 3786  28.061  14.761  11.577
32258W        W 3787   7.889  34.951   4.070
32259W        W 3788  22.125   7.057  11.190
32260W        W 3789   9.685  26.892   2.830
32261W        W 3790   4.396  38.100   3.812
32262W        W 3791  12.074  24.374  11.143
32263W        W 3792  11.796  16.016  11.154
32264W        W 3793  36.431   4.754   2.313
32265W        W 3794  15.096  19.298  14.873
32266W        W 3795  13.648  35.525   2.729
32267W        W 3796  29.014  35.156  10.093
32268W        W 3797  19.480  18.762   4.184
32269W        W 3798  12.405  10.462   4.588
32270W        W 3799   0.094  43.098  13.876
32271W        W 3800  25.419   1.303  12.332
32272W        W 3801  37.515  23.467   1.865
32273W        W 3802  31.530  11.761   1.274
32274W        W 3803  34.404  21.668   3.383
32275W        W 3804  25.608  35.214   2.535
32276W        W 3805  13.442  39.818  11.401
32277W        W 3806  11.768  44.841   2.283
32278W        W 3807  28.599   8.407   3.120
32279W        W 3808  33.033  38.517  12.097
32280W        W 3809  11.660   2.375   3.577
32281W        W 3810  14.139  18.727   4.694
32282W        W 3811  30.825  34.396   2.292
32283W        W 3812  26.747   9.272   0.044
32284W        W 3813  14.580  38.021   4.541
32285W        W 3814  38.573  29.992   3.664
32286W        W 3815  34.707  40.252   2.683
32287W        W 3816  39.046  21.745  14.503
32288W        W 3817   7.262   7.383   1.686
32289W        W 3818  29.710   7.365  12.122
32290W        W 3819  26.991  33.388  14.130
32291W        W 3820  19.594  15.607   0.738
32292W        W 3821  27.754  32.994   2.356
32293W        W 3822   4.736  12.595   2.227
32294W        W 3823   1.917  23.279   2.364
32295W        W 3824  25.628  35.815  14.811
32296W        W 3825   4.896  33.673  13.301
32297W        W 3826   7.237  37.332   1.301
32298W        W 3827   5.712  31.626  13.438
32299W        W 3828  22.919  30.134   0.730
32300W        W 3829  10.303   8.273  14.555
32301W        W 3830  26.913   5.864   3.224
32302W        W 3831  40.317  32.557  13.704
32303W        W 3832  44.280  28.397   2.595
32304W        W 3833  13.984  44.115  12.819
32305W        W 3834   6.756  12.090  11.943
32306W        W 3835  11.570  40.332  13.467
32307W        W 3836  26.212  28.701  14.371
32308W        W 3837   4.019  10.102  14.849
32309W        W 3838   7.767   6.376   1.206
32310W        W 3839   0.838   0.546   3.754
32311W        W 3840  11.339  30.783  11.931
32312W        W 3841  23.505  24.262  12.725
32313W        W 3842  37.881  13.386  12.883
32314W        W 3843  21.948  43.309   0.056
32315W        W 3844  29.850  13.663  14.017
32316W        W 3845   9.183  20.234  13.607
32317W        W 3846  38.108  14.041   1.834
32318W        W 3847  37.571  23.770  12.605
32319W        W 3848  15.856  40.445  11.944
32320W        W 3849  14.661  39.439   1.798
32321W        W 3850  42.879  28.395  11.261
32322W        W 3851  22.508  14.659   3.236
32323W        W 3852  32.581  12.625  12.358
32324W        W 3853  21.164  34.694   3.286
32325W        W 3854  20.155  38.328  13.148
32326W        W 3855  22.635  38.542  13.140
32327W        W 3856   3.532  19.178  11.606
32328W        W 3857  18.752  10.285   2.266
32329W        W 3858   8.413  23.560   1.883
32330W        W 3859  18.129  21.433  13.087
32331W        W 3860  40.087   9.450  14.761
32332W        W 3861  34.268  18.805  13.494
32333W        W 3862  41.688  12.588  12.888
32334W        W 3863   6.882  36.936   2.556
32335W        W 3864  29.547  28.528  11.189
32336W        W 3865  19.025  22.944  12.039
32337W        W 3866  37.990  42.294   0.751
32338W        W 3867  23.415   9.380   1.844
32339W        W 3868  13.127  21.087  13.553
32340W        W 3869  19.525  20.524   0.486
32341W        W 3870  28.701  35.635   3.825
32342W        W 3871   4.612   6.971  10.423
32343W        W 3872  27.147  12.960   3.422
32344W        W 3873  30.652   9.571  14.990
32345W        W 3874   0.732   3.702  10.757
32346W        W 3875  13.725   1.960  12.647
32347W        W 3876  43.343  26.859  11.987
32348W        W 3877  17.784  34.806  11.955
32349W        W 3878  43.508  43.765  11.689
32350W        W 3879  15.215  30.485  10.368
32351W        W 3880  41.529  27.400   3.239
32352W        W 3881  43.060  11.335   3.366
32353W        W 3882  36.936  31.475   0.279
32354W        W 3883  12.260  17.187   4.558
32355W        W 3884  39.800  35.062   3.298
32356W        W 3885  44.251   0.698  14.055
32357W        W 3886  39.992  44.198   1.838
32358W        W 3887   5.833  26.526   1.610
32359W        W 3888  20.580  42.551   0.243
32360W        W 3889   7.682   8.267   3.274
32361W        W 3890   9.490  33.592   1.358
32362W        W 3891  31.402   0.249  12.466
32363W        W 3892  38.203  33.088  14.309
32364W        W 3893   8.248  39.936   4.026
32365W        W 3894  41.196  25.500   4.182
32366W        W 3895  13.328  28.696   4.487
32367W        W 3896   8.120  20.647  12.098
32368W        W 3897  26.048  36.522   1.243
32369W        W 3898  14.805  42.897   0.258
32370W        W 3899  17.161   2.247   2.360
32371W        W 3900  27.467  36.330   0.297
32372W        W 3901  40.993   8.799   0.476
32373W        W 3902   6.994  39.394   0.953
32374W        W 3903  26.475  10.057   0.350
32375W        W 3904  31.996  30.733  14.428
32376W        W 3905  44.334  28.916  12.077
32377W        W 3906  11.898  11.025  11.430
32378W        W 3907  44.314   8.257   0.299
32379W        W 3908   0.004  16.318   2.388
32380W        W 3909  31.137  35.021  10.305
32381W        W 3910   3.210  26.384  12.954
32382W        W 3911  15.252  29.296   1.816
32383W        W 3912  32.928  33.611  11.823
32384W        W 3913   8.096  30.168  13.264
32385W        W 3914  16.121  29.682   1.736
32386W        W 3915  20.579  39.959   3.198
32387W        W 3916   6.558  31.048  12.782
32388W        W 3917  33.938  28.059   2.722
32389W        W 3918  30.883   2.565   0.801
32390W        W 3919  31.366  25.682  13.473
32391W        W 3920  26.647   6.821   4.546
32392W        W 3921   5.808  43.779  14.761
32393W        W 3922  42.278  37.081   1.272
32394W        W 3923  43.328  34.870   0.326
32395W        W 3924  12.389   5.745  11.698
32396W        W 3925   1.815   3.851  11.124
32397W        W 3926  21.598  29.854  12.112
32398W        W 3927   8.866   1.095   3.589
32399W        W 3928  27.442  35.505  14.770
32400W        W 3929  40.739  44.590  11.124
32401W        W 3930  26.612  17.301  14.471
32402W        W 3931   7.071  11.013  14.490
32403W        W 3932   3.445  30.185   1.509
32404W        W 3933  19.221   7.753   3.132
32405W        W 3934  22.581   9.184  14.254
32406W        W 3935  39.437   0.262   3.785
32407W        W 3936  37.493   5.426  11.101
32408W        W 3937   3.491   4.236  11.579
32409W        W 3938  41.541   9.582   3.061
32410W        W 3939  22.550  18.210   2.740
32411W        W 3940   3.693  29.691  11.621
32412W        W 3941   9.275  37.127  11.883
32413W        W 3942  19.005  38.055   1.714
32414W        W 3943  29.540  38.948  14.412
32415W        W 3944  33.049  22.770   1.111
32416W        W 3945  20.883  40.679   3.763
32417W        W 3946  32.500  15.782   0.712
32418W        W 3947  15.596  26.844  13.412
32419W        W 3948  42.041  19.319   2.377
32420W        W 3949  43.971  14.008   3.168
32421W        W 3950   1.829  35.922   4.998
32422W        W 3951  15.585  37.100  10.250
32423W        W 3952  11.603  12.206  12.909
32424W        W 3953  31.360  35.585   4.120
32425W        W 3954  44.231  16.347  13.017
32426W        W 3955  22.100  36.314  12.895
32427W        W 3956   8.912  32.544  12.565
32428W        W 3957  25.116  13.142  10.767
32429W        W 3958  26.296  33.937  11.629
32430W        W 3959   3.915   3.365   4.965
32431W        W 3960  22.585   0.671   2.024
32432W        W 3961  34.243  15.133  14.804
32433W        W 3962  33.483   0.186  12.172
32434W        W 3963  38.549  21.847   4.230
32435W        W 3964  19.111  35.483  11.343
32436W        W 3965   5.058  42.314   1.390
32437W        W 3966  29.526  32.880   1.322
32438W        W 3967  32.888  17.721  14.816
32439W        W 3968  18.330  13.590  14.392
32440W        W 3969  31.434  28.891  13.862
32441W        W 3970   2.865  12.898   1.353
32442W        W 3971  22.533  15.769   0.851
32443W        W 3972  19.987  20.720   3.521
32444W        W 3973   3.984   4.332   1.756
32445W        W 3974  14.767  19.682   0.781
32446W        W 3975   0.391  37.351  13.540
32447W        W 3976  17.930   3.261   0.737
32448W        W 3977  24.408  28.863  10.513
32449W        W 3978  21.518  24.488   4.132
32450W        W 3979  41.004  44.413   4.877
32451W        W 3980  24.479  14.369  13.051
32452W        W 3981  40.056  32.989   1.967
32453W        W 3982  33.631  24.009   0.842
32454W        W 3983  12.843  23.064  14.410
32455W        W 3984  16.822  39.989  10.689
32456W        W 3985  18.618  30.726  14.354
32457W        W 3986  23.030  16.286  14.453
32458W        W 3987  37.320  10.751   2.286
32459W        W 3988  25.971   1.903   2.523
32460W        W 3989  39.887  29.216   2.810
32461W        W 3990  22.444  37.488  11.668
32462W        W 3991  34.594  27.427   1.952
32463W        W 3992  30.223  13.283   1.668
32464W        W 3993   1.688  21.490   4.098
32465W        W 3994   4.610  13.625   4.901
32466W        W 3995  24.183  15.317  13.079
32467W        W 3996  39.406  44.350   2.332
32468W        W 3997  33.450  19.972  13.860
32469W        W 3998  44.472  18.793   5.005
32470W        W 3999   1.129  27.685   2.199
32471W        W 4000  32.861  22.680  14.990
32472W        W 4001  39.305  35.011  13.181
32473W        W 4002  39.014  40.644  11.667
32474W        W 4003  23.554  42.026   4.674
32475W        W 4004  21.185  25.604  14.772
32476W        W 4005   8.784  37.350   1.374
32477W        W 4006  21.559  40.791   5.035
32478W        W 4007  17.661  30.147   3.280
32479W        W 4008   6.093  26.446  13.087
32480W        W 4009  30.383  44.929   1.799
32481W        W 4010   8.018  19.663   9.778
32482W        W 4011   7.683  42.924  11.665
32483W        W 4012  32.873  19.272   0.698
32484W        W 4013  33.834  32.630  11.927
32485W        W 4014  18.225  43.553   1.551
32486W        W 4015  26.078  13.711   3.627
32487W        W 4016  39.855  23.759  11.044
32488W        W 4017  20.354  28.908  10.728
32489W        W 4018  31.938  26.997   1.772
32490W        W 4019  30.654  16.280   2.798
32491W        W 4020  35.084  25.785   2.773
32492W        W 4021  13.367  32.672   3.251
32493W        W 4022   1.851   4.331   1.834
32494W        W 4023  16.127  41.884   2.359
32495W        W 4024  21.482  32.424   0.486
32496W        W 4025  29.088  38.575   2.692
32497W        W 4026  18.484  24.631  14.959
32498W        W 4027  39.970   8.546  13.485
32499W        W 4028  22.606  11.449   4.091
32500W        W 4029  26.210   8.314  14.746
32501W        W 4030  39.863  24.257  11.202
32502W        W 4031  31.027   5.969   0.227
32503W        W 4032  24.596   7.264   0.258
32504W        W 4033  33.911  42.068  10.702
32505W        W 4034  11.363  19.653   2.819
32506W        W 4035   3.865  44.404   4.830
32507W        W 4036  27.291  28.013   0.414
32508W        W 4037  12.561  44.336   0.891
32509W        W 4038  38.450  41.951   4.124
32510W        W 4039  28.097  12.864  11.627
32511W        W 4040  36.035  41.456   1.246
32512W        W 4041  17.220  15.014   1.449
32513W        W 4042   3.975  32.434  14.445
32514W        W 4043  35.619  29.986  14.272
32515W        W 4044  21.942   5.168   0.937
32516W        W 4045  33.329  15.070   0.488
32517W        W 4046  42.354  27.246  13.349
32518W        W 4047  26.324   3.148  12.129
32519W        W 4048  23.975  43.363   2.259
32520W        W 4049  42.933  40.091  11.038
32521W        W 4050  26.689  11.380  13.904
32522W        W 4051  38.988  10.897  13.117
32523W        W 4052   7.611   7.310   4.639
32524W        W 4053  17.043  14.163  14.747
32525W        W 4054  20.569  27.388   4.433
32526W        W 4055   6.844   1.334   1.666
32527W        W 4056  26.667  19.518  12.171
32528W        W 4057  16.700  39.640   4.183
32529W        W 4058  39.341  33.944   2.161
32530W        W 4059  29.858  33.190   1.600
32531W        W 4060  22.200  20.443   1.319
32532W        W 4061   7.255  37.811   2.345
32533W        W 4062   9.928  15.393   2.270
32534W        W 4063  16.545  16.517  13.718
32535W        W 4064  20.650  44.975  10.752
32536W        W 4065  40.569  17.235  12.969
32537W        W 4066   5.215  33.302   1.670
32538W        W 4067  23.225   8.859   4.565
32539W        W 4068  37.223   9.887  12.843
32540W        W 4069  24.977  27.560  13.052
32541W        W 4070  17.756  35.504  12.823
32542W        W 4071  29.155  40.074   0.287
32543W        W 4072  38.206  40.857   3.215
32544W        W 4073  40.887   2.268   0.057
32545W        W 4074  40.569  31.890   4.965
32546W        W 4075  37.895   2.733   0.284
32547W        W 4076  27.692  21.071  14.118
32548W        W 4077  15.437  43.797  11.269
32549W        W 4078  35.333   2.259  13.377
32550W        W 4079  36.187  41.399   0.717
32551W        W 4080  22.060  25.227   3.837
32552W        W 4081  44.767   8.302  11.620
32553W        W 4082   5.114  16.821   3.119
32554W        W 4083  13.321  21.997   3.321
32555W        W 4084  33.603  25.513   2.748
32556W        W 4085  24.520  28.818   3.257
32557W        W 4086  20.995  12.941   9.967
32558W        W 4087  16.823  30.692  12.868
32559W        W 4088  29.674  29.048  11.344
32560W        W 4089  23.980  37.328   2.177
32561W        W 4090  13.206  28.490  11.412
32562W        W 4091  21.233  10.658   4.686
32563W        W 4092   1.311  19.985  13.052
32564W        W 4093  16.390  19.688  11.884
32565W        W 4094  32.766  40.470   4.511
32566W        W 4095  32.077  20.723   3.902
32567W        W 4096  32.546  25.096  11.975
32568W        W 4097  39.551  35.196  14.956
32569W        W 4098  34.128  15.258  11.842
32570W        W 4099   0.152   3.930   2.917
32571W        W 4100  15.066  29.539   4.175
32572W        W 4101  20.739  26.190  12.383
32573W        W 4102  10.395  11.321   1.429
32574W        W 4103  40.234  21.009  12.906
32575W        W 4104  37.269   7.720  10.346
32576W        W 4105  27.002   8.280   1.887
32577W        W 4106  15.625  41.926  10.733
32578W        W 4107  28.619   9.290  12.636
32579W        W 4108  24.143  34.293   2.783
32580W        W 4109  25.409  43.054   0.762
32581W        W 4110  30.563   0.979  13.856
32582W        W 4111  31.883  36.946   0.968
32583W        W 4112  14.086  18.768  11.429
32584W        W 4113  11.239  42.635  13.454
32585W        W 4114  11.049   0.735  11.458
32586W        W 4115  17.501  16.638  13.545
32587W        W 4116  36.987   6.618   2.305
32588W        W 4117  29.489  32.408  13.072
32589W        W 4118  17.168  15.929   3.175
32590W        W 4119  43.268   3.884  13.315
32591W        W 4120  14.574  40.254   1.384
32592W        W 4121  15.249  21.150   1.583
32593W        W 4122  41.389  28.407  12.559
32594W        W 4123   4.369  12.543   1.831
32595W        W 4124  28.212  25.490  10.699
32596W        W 4125   9.930  30.939   0.429
32597W        W 4126  21.391  10.985   0.353
32598W        W 4127  10.618  26.545   0.945
32599W        W 4128  18.601  38.927   2.791
32600W        W 4129   2.481  44.015  14.579
32601W        W 4130  36.555  17.011   1.753
32602W        W 4131  22.143  37.075  13.374
32603W        W 4132   9.188   3.009   2.070
32604W        W 4133  32.724   7.675  11.175
32605W        W 4134   3.485   9.921  10.593
32606W        W 4135   1.284  16.319  11.082
32607W        W 4136  31.603  37.938  12.045
32608W        W 4137  35.114   3.563   1.373
32609W        W 4138  42.450  42.173   1.360
32610W        W 4139  24.073   7.244   2.501
32611W        W 4140  12.220  16.188  11.892
32612W        W 4141  30.989   6.514  13.482
32613W        W 4142  40.264  14.382  10.404
32614W        W 4143   9.589   9.635   3.183
32615W        W 4144   3.671  39.654   1.391
32616W        W 4145  17.138  13.082  13.346
32617W        W 4146  19.569   6.229  14.310
32618W        W 4147  30.017  44.878  14.553
32619W        W 4148  11.090   1.723  12.855
32620W        W 4149  13.427   6.572   1.196
32621W        W 4150   8.701  24.995  11.571
32622W        W 4151  35.534   3.747  11.892
32623W        W 4152  24.756   0.076  10.633
32624W        W 4153  13.905   1.515   3.662
32625W        W 4154  35.968  32.121   3.169
32626W        W 4155  14.137   8.053  11.206
32627W        W 4156  11.448  44.796   0.026
32628W        W 4157   1.770   7.321   1.489
32629W        W 4158   8.705   4.881  11.702
32630W        W 4159  38.328  26.977  13.311
32631W        W 4160   2.308   9.451  13.328
32632W        W 4161  35.265  31.669  10.439
32633W        W 4162  14.138  22.743  13.428
32634W        W 4163  30.388   6.118   1.923
32635W        W 4164   8.704  44.727  13.472
32636W        W 4165  12.007   7.885  12.395
32637W        W 4166  44.010  29.074   3.682
32638W        W 4167  14.617  25.162   4.828
32639W        W 4168  14.177  18.095   2.935
32640W        W 4169  37.757  35.098   4.337
32641W        W 4170  33.447  22.792  12.863
32642W        W 4171  12.707  21.361  13.357
32643W        W 4172  34.821  27.809   0.808
32644W        W 4173  16.207  22.539   2.271
32645W        W 4174  23.429   8.334   4.057
32646W        W 4175  30.547  37.460   4.601
32647W        W 4176   7.267   1.966   1.339
32648W        W 4177  12.629   9.164   4.562
32649W        W 4178  28.501  39.254  13.290
32650W        W 4179  25.000  26.695   1.960
32651W        W 4180  40.027   4.346   3.315
32652W        W 4181  18.966   3.770  14.209
32653W        W 4182  16.218  44.886   0.856
32654W        W 4183  43.914   2.739   0.473
32655W        W 4184  25.450  38.567  13.794
32656W        W 4185   2.998  34.104  13.396
32657W        W 4186  39.334  36.887  11.188
32658W        W 4187  22.101   8.474   0.094
32659W        W 4188  31.374  35.272  13.542
32660W        W 4189   8.227  19.297   0.658
32661W        W 4190   1.756  23.607  12.077
32662W        W 4191  18.691  13.252  14.587
32663W        W 4192  21.505  13.305   3.715
32664W        W 4193  23.094  44.029   1.902
32665W        W 4194  41.805  13.369  14.595
32666W        W 4195  12.312   7.881   0.991
32667W        W 4196   1.278  23.735  13.863
32668W        W 4197  17.890  21.091  11.514
32669W        W 4198  13.339  18.486   4.140
32670W        W 4199  39.496  17.039  14.520
32671W        W 4200   4.389  18.320  13.730
32672W        W 4201  24.002  26.127  13.344
32673W        W 4202   6.300  40.576  10.677
32674W        W 4203  17.594   6.698   1.681
32675W        W 4204   7.453   8.353  12.500
32676W        W 4205   4.458  39.295   4.403
32677W        W 4206  17.694  32.426   4.394
32678W        W 4207  35.599  30.440  13.358
32679W        W 4208   5.557  15.670   3.520
32680W        W 4209  15.517  25.490  11.090
32681W        W 4210  41.222   1.294   0.239
32682W        W 4211  36.356  12.745   0.684
32683W        W 4212  31.385  25.699   0.305
32684W        W 4213  12.681  30.614   4.202
32685W        W 4214  29.444  18.509  12.490
32686W        W 4215  33.383   5.431  10.713
32687W        W 4216  29.154  15.527  11.352
32688W        W 4217  31.537  42.868  11.004
32689W        W 4218  22.266   1.862   1.881
32690W        W 4219  33.986   7.445  11.411
32691W        W 4220   5.522   0.361   2.118
32692W        W 4221   7.159  12.149  13.342
32693W        W 4222  21.974  30.007   3.733
32694W        W 4223  21.689  44.432  10.736
32695W        W 4224  32.479  22.947   2.880
32696W        W 4225  20.936  40.281  13.627
32697W        W 4226  32.703  10.925   3.574
32698W        W 4227   8.746   6.325   3.139
32699W        W 4228   8.204  38.464  14.514
32700W        W 4229  42.594  42.670   1.283
32701W        W 4230  29.707  36.743  12.570
32702W        W 4231  17.668  14.289   3.749
32703W        W 4232  36.138  14.765   3.881
32704W        W 4233  36.055  37.866   4.272
32705W        W 4234  31.701  24.922   2.179
32706W        W 4235  35.298  21.581  10.854
32707W        W 4236  10.139  43.860   1.079
32708W        W 4237   7.868  14.723  11.665
32709W        W 4238  40.782  16.134   2.891
32710W        W 4239  20.723  25.443  10.826
32711W        W 4240  16.188  35.117  12.021
32712W        W 4241   6.268   1.304  13.824
32713W        W 4242  24.648   0.235   3.712
32714W        W 4243  34.553   4.192  14.226
32715W        W 4244   8.746   1.305  13.606
32716W        W 4245  17.217  26.113   1.263
32717W        W 4246  14.203  32.136  14.745
32718W        W 4247  24.280  20.109  14.806
32719W        W 4248   4.400  34.968   1.389
32720W        W 4249  41.465  20.241  14.831
32721W        W 4250  40.861  11.787   0.428
32722W        W 4251   9.301  28.289   4.348
32723W        W 4252  20.601  15.794  12.452
32724W        W 4253   2.966   6.140   4.223
32725W        W 4254  20.135  31.526   4.121
32726W        W 4255  27.442  34.474  10.247
32727W        W 4256  27.587  23.982   4.537
32728W        W 4257  36.977  17.534  11.677
32729W        W 4258  42.300  22.247   3.911
32730W        W 4259  37.103   6.085  11.131
32731W        W 4260  39.303  30.225   3.111
32732W        W 4261   0.804  19.622  10.588
32733W        W 4262  17.841   8.838   2.230
32734W        W 4263  15.880  28.037  11.501
32735W        W 4264   2.690   7.859   4.203
32736W        W 4265   2.904  28.022  10.864
32737W        W 4266   6.599  33.405   2.632
32738W        W 4267  16.361  29.917   3.099
32739W        W 4268   9.557   0.004  14.008
32740W        W 4269  11.051  38.994   1.287
32741W        W 4270  44.865   3.219   0.275
32742W        W 4271  36.845  12.618   0.812
32743W        W 4272  11.577   3.387   4.223
32744W        W 4273  22.888  12.931   1.797
32745W        W 4274  20.542  14.043  11.958
32746W        W 4275  19.784  13.620  12.084
32747W        W 4276  37.859  29.747  13.984
32748W        W 4277  11.936  19.057   0.118
32749W        W 4278  31.575  39.249   3.715
32750W        W 4279  42.282   8.812  13.540
32751W        W 4280  37.526  29.594  14.347
32752W        W 4281   3.865   1.062   2.611
32753W        W 4282   2.934   8.125  13.828
32754W        W 4283  34.614  15.807  13.312
32755W        W 4284  34.585  29.423   3.253
32756W        W 4285  24.491  22.764  14.626
32757W        W 4286   1.327  32.509  11.654
32758W        W 4287  19.141  18.832  11.538
32759W        W 4288  12.214  40.858   0.277
32760W        W 4289   4.850  44.038   3.841
32761W        W 4290   9.880  40.053  11.512
32762W        W 4291  18.715  27.323   0.814
32763W        W 4292  12.231   2.689   4.844
32764W        W 4293  44.991   2.281  13.603
32765W        W 4294  10.906  35.942   4.719
32766W        W 4295  26.120  39.975  14.802
32767W        W 4296   1.684  11.614  12.454
32768W        W 4297  22.747  37.792   1.470
32769W        W 4298  17.111  44.359  13.611
32770W        W 4299  28.531  38.094   4.235
32771W        W 4300  27.655  23.610   3.278
32772W        W 4301  11.265  11.686   0.012
32773W        W 4302  16.940   9.898   1.204
32774W        W 4303  17.407  22.106  13.529
32775W        W 4304  13.807  31.551   0.378
32776W        W 4305  36.028  30.502   0.784
32777W        W 4306   5.374  22.505   2.298
32778W        W 4307  23.014  32.597   3.116
32779W        W 4308  17.298  40.540  14.952
32780W        W 4309   2.462  10.843  12.573
32781W        W 4310   1.148  20.126   3.103
32782W        W 4311  39.420  22.381   2.768
32783W        W 4312  38.970  29.964  14.300
32784W        W 4313   7.880  17.044   3.196
32785W        W 4314  11.791  31.538  13.758
32786W        W 4315  13.974  32.279  12.022
32787W        W 4316  11.005  24.218  14.966
32788W        W 4317  40.868  41.875  10.639
32789W        W 4318  29.196  19.297   0.434
32790W        W 4319  19.528   4.412   0.303
32791W        W 4320  35.125   7.363   0.253
32792W        W 4321  35.923  36.089   4.218
32793W        W 4322  31.916  42.868   0.571
32794W        W 4323  29.568  32.800   0.289
32795W        W 4324  17.247   7.432  13.336
32796W        W 4325  14.090  17.679   4.733
32797W        W 4326  31.842  38.782   4.470
32798W        W 4327  34.888  39.822   4.082
32799W        W 4328  11.163  29.175  13.206
32800W        W 4329   8.084  28.015  11.155
32801W        W 4330  24.908  24.573  10.674
32802W        W 4331  24.539  35.479  11.009
32803W        W 4332   2.731  36.568  12.433
32804W        W 4333  38.302  42.990  13.100
32805W        W 4334  18.751  21.189   0.236
32806W        W 4335  13.284  12.876  13.471
32807W        W 4336  44.863  29.445  11.466
32808W        W 4337  11.693  28.929   0.838
32809W        W 4338  38.829   3.821  11.552
32810W        W 4339  23.202  28.974  12.277
32811W        W 4340  11.798   3.646   3.082
32812W        W 4341  16.053  41.795  13.326
32813W        W 4342  44.951  15.519  14.268
32814W        W 4343  15.138  13.841   1.548
32815W        W 4344  38.989  25.808  13.273
32816W        W 4345  24.003  21.427   0.944
32817W        W 4346  37.784  31.221   0.812
32818W        W 4347  43.328  40.693  10.502
32819W        W 4348  21.666  12.318  13.125
32820W        W 4349   5.344  42.396   2.695
32821W        W 4350  42.493   8.418  11.100
32822W        W 4351   8.406  23.608   2.745
32823W        W 4352  22.148   8.378   2.380
32824W        W 4353  37.596  36.420   3.759
32825W        W 4354  37.500  19.203  12.371
32826W        W 4355  33.043  31.355   0.501
32827W        W 4356  16.038  17.360  12.055
32828W        W 4357  24.130  27.903  11.317
32829W        W 4358  23.495  22.175   1.819
32830W        W 4359  38.843  32.178  10.770
32831W        W 4360  12.344  26.587  13.789
32832W        W 4361  41.614  12.144  14.241
32833W        W 4362  14.570   2.533   4.400
32834W        W 4363  36.680  18.779   3.425
32835W        W 4364  37.938  34.443   3.701
32836W        W 4365  36.812   5.877  10.740
32837W        W 4366  40.922  33.707  11.115
32838W        W 4367   5.480  12.181  10.792
32839W        W 4368  39.526   7.547  11.653
32840W        W 4369  43.405  40.078   2.273
32841W        W 4370  26.014  24.119  13.040
32842W        W 4371  31.392   3.148  13.458
32843W        W 4372  30.263   4.847  14.920
32844W        W 4373   3.856  26.590   3.171
32845W        W 4374  37.816   5.373   4.960
32846W        W 4375  18.377   9.254   3.092
32847W        W 4376  39.303  24.195   3.253
32848W        W 4377  12.891  13.655   3.921
32849W        W 4378  16.809  28.662   2.126
32850W        W 4379  19.572  31.192  14.375
32851W        W 4380   0.395  29.949  14.224
32852W        W 4381   8.486  17.378  12.439
32853W        W 4382  32.103   2.401  14.303
32854W        W 4383   8.787  21.673   2.646
32855W        W 4384  15.763  37.146   2.049
32856W        W 4385  37.902  43.061   1.318
32857W        W 4386  27.163  33.429  10.974
32858W        W 4387  23.875  14.604  12.472
32859W        W 4388   2.637  26.782   3.614
32860W        W 4389  13.772   8.640  14.456
32861W        W 4390  13.617   0.464  12.333
32862W        W 4391  37.089  16.227  13.279
32863W        W 4392   9.043   2.935  13.829
32864W        W 4393   7.960  23.685   9.887
32865W        W 4394  28.663   0.380  12.713
32866W        W 4395  36.030  38.526  12.407
32867W        W 4396   2.391  13.313  11.165
32868W        W 4397  10.156  10.408  10.679
32869W        W 4398  19.729   9.000  11.397
32870W        W 4399   4.606   6.178  12.107
32871W        W 4400   0.091  15.673  11.365
32872W        W 4401  19.412  19.743  13.486
32873W        W 4402   3.405  37.396  11.585
32874W        W 4403  40.525  23.722   5.001
32875W        W 4404  41.957  28.991  13.253
32876W        W 4405  41.594  13.897  10.713
32877W        W 4406  38.082  42.088  13.926
32878W        W 4407  14.831  37.295   2.870
32879W        W 4408   3.238  22.886  10.601
32880W        W 4409  44.774  31.976  14.354
32881W        W 4410  11.260  15.580   9.865
32882W        W 4411  14.768  10.534   4.473
32883W        W 4412  22.812  29.674  10.765
32884W        W 4413  39.646  13.963   3.320
32885W        W 4414  20.235  42.825   0.543
32886W        W 4415  39.184  36.333  13.294
32887W        W 4416   2.907  31.306  14.725
32888W        W 4417  19.277  23.221   0.679
32889W        W 4418  36.013  22.468  13.605
32890W        W 4419  36.465   2.999  12.530
32891W        W 4420  21.336  20.251   4.097
32892W        W 4421  25.780  33.833  13.863
32893W        W 4422  12.893  17.099  13.123
32894W        W 4423  12.698  35.545  12.027
32895W        W 4424  38.903  18.521  13.348
32896W        W 4425   4.133  43.429  12.788
32897W        W 4426  24.744  32.933   2.642
32898W        W 4427  23.270   7.220   4.419
32899W        W 4428  24.406  36.116   3.708
32900W        W 4429  43.500   6.815  12.306
32901W        W 4430  39.983   7.292  11.640
32902W        W 4431  14.133  33.285   4.142
32903W        W 4432  10.683  21.161   2.682
32904W        W 4433   5.713  25.629   2.370
32905W        W 4434  37.117  19.994  10.724
32906W        W 4435   0.366  42.921   0.041
32907W        W 4436  40.727  36.742  10.941
32908W        W 4437   3.529  24.981   9.787
32909W        W 4438  34.729  41.321   3.019
32910W        W 4439  11.262   1.513  12.040
32911W        W 4440  29.701  32.389  11.148
32912W        W 4441  13.645  26.635   0.500
32913W        W 4442   8.684  44.928  14.368
32914W        W 4443  43.910  15.665  10.515
32915W        W 4444  20.293   0.937  13.512
32916W        W 4445   7.643  36.499   1.278
32917W        W 4446  37.533   8.452  13.893
32918W        W 4447  26.609  26.622   4.842
32919W        W 4448   1.109  22.596  10.457
32920W        W 4449  26.872   2.853  14.862
32921W        W 4450   5.738  43.942  13.747
32922W        W 4451   0.277  35.529   1.191
32923W        W 4452   5.194  14.865   1.335
32924W        W 4453  29.409  26.503   5.048
32925W        W 4454  14.084  40.127   3.685
32926W        W 4455  15.186  33.632  13.875
32927W        W 4456  30.701   9.583  13.568
32928W        W 4457  23.463   8.165  11.999
32929W        W 4458  17.848  25.880  14.867
32930W        W 4459  43.010  10.157   3.237
32931W        W 4460  30.216  14.699  11.581
32932W        W 4461  27.790  21.384   1.828
32933W        W 4462  11.796  16.972   2.313
32934W        W 4463   5.972   5.294  14.078
32935W        W 4464   9.318  41.114  12.601
32936W        W 4465  11.541  31.009  14.488
32937W        W 4466  36.243  34.917  12.009
32938W        W 4467   0.653  44.804   3.174
32939W        W 4468  42.338  29.242   0.363
32940W        W 4469  34.116  12.593  11.574
32941W        W 4470   9.208  25.460   3.620
32942W        W 4471   6.183  19.609  13.025
32943W        W 4472   6.334  35.482  12.702
32944W        W 4473  33.967  42.408   4.604
32945W        W 4474  39.830  13.461   3.362
32946W        W 4475  42.903  14.596  14.270
32947W        W 4476   9.404  19.957   0.977
32948W        W 4477  32.059  36.432  13.937
32949W        W 4478  14.765  33.288   1.475
32950W        W 4479  25.533  11.295  13.008
32951W        W 4480   3.881  31.372   4.263
32952W        W 4481  34.443  24.627  10.579
32953W        W 4482  42.536   4.796  11.673
32954W        W 4483  29.003  33.327   4.353
32955W        W 4484  35.941  18.908   1.953
32956W        W 4485  23.810  43.843   3.117
32957W        W 4486  22.724  28.671  10.066
32958W        W 4487  35.099  34.377   3.181
32959W        W 4488  20.684  22.911  12.038
32960W        W 4489  27.629  29.608   3.089
32961W        W 4490  25.925   6.115   0.496
32962W        W 4491  15.189  25.502   1.751
32963W        W 4492  42.274  23.584   2.748
32964W        W 4493  37.127  23.084   3.613
32965W        W 4494  16.262  13.991  12.915
32966W        W 4495  16.790   5.181  12.997
32967W        W 4496  25.153   6.396   1.217
32968W        W 4497  19.129   5.026   4.144
32969W        W 4498  22.324  29.012   2.739
32970W        W 4499  25.474  14.052   4.152
32971W        W 4500   3.343  33.231  12.009
32972W        W 4501   5.223  23.725   1.859
32973W        W 4502  37.677   0.066   0.840
32974W        W 4503   5.312  15.180  12.918
32975W        W 4504   6.274  44.913  10.487
32976W        W 4505   8.747  22.921  11.545
32977W        W 4506  27.750  35.659   0.853
32978W        W 4507   4.950   9.774   3.610
32979W        W 4508   0.692  24.055  12.428
32980W        W 4509  16.956   1.743   2.491
32981W        W 4510  28.240  32.457  11.831
32982W        W 4511  37.127  40.625   4.535
32983W        W 4512  28.708  27.421   2.772
32984W        W 4513   7.073  28.919  14.363
32985W        W 4514  21.152  36.494   5.063
32986W        W 4515  33.834  13.259   2.770
32987W        W 4516   9.296  44.349   3.470
32988W        W 4517   4.623  25.217  11.631
32989W        W 4518  34.659  30.980   0.322
32990W        W 4519  42.748  25.449  10.975
32991W        W 4520  41.433  27.921  11.563
32992W        W 4521  42.202   8.629   2.770
32993W        W 4522  43.253  33.267   3.364
32994W        W 4523  17.429  17.285   5.206
32995W        W 4524  34.422  32.703  11.141
32996W        W 4525  17.794  23.782  13.335
32997W        W 4526   1.526  41.854   0.007
32998W        W 4527   7.149  13.142   3.137
32999W        W 4528  11.571  32.096  12.452
33000W        W 4529  13.632  20.725  14.016
33001W        W 4530  13.197   4.751  12.624
33002W        W 4531  27.910   1.519  10.626
33003W        W 4532  19.752   8.737  13.385
33004W        W 4533  41.015  26.669  10.694
33005W        W 4534  44.707  34.357  12.120
33006W        W 4535  23.678  31.024  10.694
33007W        W 4536  33.318  40.262  13.563
33008W        W 4537  25.589  17.472   2.331
33009W        W 4538   4.119  44.934   2.811
33010W        W 4539   8.354  18.983   0.274
33011W        W 4540   4.843  42.764   1.681
33012W        W 4541  25.044  19.001  11.559
33013W        W 4542  14.272  35.854   1.451
33014W        W 4543  19.684   3.942   0.444
33015W        W 4544  20.474  19.046  14.026
33016W        W 4545  30.924  28.152  12.894
33017W        W 4546  36.436  25.897  13.478
33018W        W 4547  23.952   2.196  14.895
33019W        W 4548  11.692   7.190   4.541
33020W        W 4549  25.082   2.365  14.774
33021W        W 4550  36.746  13.743   3.081
33022W        W 4551  41.340   8.276  13.077
33023W        W 4552  37.760  20.065   4.173
33024W        W 4553  11.774  19.057  12.874
33025W        W 4554  36.682  14.687  13.893
33026W        W 4555  43.051  19.634  10.261
33027W        W 4556  28.110  30.220   4.885
33028W        W 4557  33.777  10.612  10.990
33029W        W 4558  42.521  39.058   4.553
33030W        W 4559  22.752  26.727   3.276
33031W        W 4560  15.802  31.033   2.902
33032W        W 4561  31.731  39.641  12.328
33033W        W 4562  44.958  26.116   4.426
33034W        W 4563   3.711  25.044   2.474
33035W        W 4564  24.300  16.673   3.638
33036W        W 4565   0.081  15.302  13.115
33037W        W 4566  21.339  10.644  11.974
33038W        W 4567  20.701  39.772   3.674
33039W        W 4568  33.524  37.597   2.670
33040W        W 4569   6.511  19.625   3.739
33041W        W 4570  11.383   9.634   0.322
33042W        W 4571  44.869  21.468   2.216
33043W        W 4572  30.598  18.049   4.818
33044W        W 4573   1.481   0.018   0.545
33045W        W 4574  30.175   0.023  12.209
33046W        W 4575  19.307  23.136  12.447
33047W        W 4576  43.429  15.342  13.536
33048W        W 4577   0.949  32.667   1.355
33049W        W 4578  22.198  36.168   1.357
33050W        W 4579  28.850  40.737  12.008
33051W        W 4580  24.528  25.323   4.603
33052W        W 4581  29.396  30.986   4.627
33053W        W 4582  44.310  23.677   3.781
33054W        W 4583   4.789  37.714  13.448
33055W        W 4584  16.754  29.930   2.757
33056W        W 4585   9.710  39.383  10.687
33057W        W 4586  12.318  39.369   4.148
33058W        W 4587  40.354  38.945   4.088
33059W        W 4588  35.657  22.586  12.476
33060W        W 4589   0.448  42.775   1.016
33061W        W 4590   2.311  29.218  13.310
33062W        W 4591  24.085  36.160   3.238
33063W        W 4592  29.140   7.371   1.028
33064W        W 4593  26.533  23.404   3.324
33065W        W 4594   4.164  40.453  10.744
33066W        W 4595  16.112  30.430   4.589
33067W        W 4596   1.300  17.078  13.408
33068W        W 4597  16.846  22.006   3.380
33069W        W 4598  21.096  20.695   4.309
33070W        W 4599  10.359   2.912   2.877
33071W        W 4600  30.654  15.751   2.813
33072W        W 4601  28.556  40.621   3.329
33073W        W 4602  26.967   5.737   1.736
33074W        W 4603  39.885   3.728  14.490
33075W        W 4604   4.102   3.223  10.538
33076W        W 4605   8.625   7.963  11.798
33077W        W 4606  42.507   5.850  10.594
33078W        W 4607   6.825   4.075   1.424
33079W        W 4608  41.480  18.864   0.994
33080W        W 4609  28.047  43.330   4.627
33081W        W 4610  37.965  27.509  12.624
33082W        W 4611  30.366  37.165  10.816
33083W        W 4612  29.617  15.101  12.400
33084W        W 4613   7.694  31.085   4.170
33085W        W 4614  34.852   8.799   0.952
33086W        W 4615   8.778  21.844  14.166
33087W        W 4616  29.312  25.654  11.533
33088W        W 4617  26.119  35.357   1.318
33089W        W 4618  19.319  40.612   2.271
33090W        W 4619  22.435  27.195  10.661
33091W        W 4620  28.470  42.564   4.170
33092W        W 4621  30.727   9.400   3.747
33093W        W 4622   5.253  23.477   0.790
33094W        W 4623  25.503  44.755  13.939
33095W        W 4624  11.810  33.027   4.349
33096W        W 4625  17.963  23.608  12.497
33097W        W 4626  29.385  19.825  12.946
33098W        W 4627  33.101  28.448   1.249
33099W        W 4628  28.699  22.125   3.376
33100W        W 4629  32.544  39.733  14.410
33101W        W 4630  20.180  44.447   2.212
33102W        W 4631  34.313   3.482   4.580
33103W        W 4632  28.895  15.915   3.207
33104W        W 4633  12.075  15.109   2.333
33105W        W 4634  17.267  36.462   4.397
33106W        W 4635  34.365  21.295   4.750
33107W        W 4636  23.928  19.185   0.715
33108W        W 4637  22.807   7.640   2.733
33109W        W 4638  36.520   0.671  11.319
33110W        W 4639  26.836  38.326   4.199
33111W        W 4640  26.684  12.410  12.490
33112W        W 4641   5.735  40.465   3.856
33113W        W 4642  24.934  44.699  14.389
33114W        W 4643  27.712  13.169   3.753
33115W        W 4644   3.450  30.450  12.431
33116W        W 4645   0.376  11.623   1.315
33117W        W 4646  39.961  28.500   0.419
33118W        W 4647  34.597  24.663  14.425
33119W        W 4648  37.280  28.514   3.638
33120W        W 4649   0.678  24.568   3.244
33121W        W 4650  42.993  15.273   3.885
33122W        W 4651  29.803  31.454   5.239
33123W        W 4652   7.738  18.748   1.747
33124W        W 4653   5.267  16.928  10.694
33125W        W 4654  23.156  42.707  13.936
33126W        W 4655  26.132  38.110   0.435
33127W        W 4656   1.859  17.915   4.200
33128W        W 4657  11.808  20.602  13.805
33129W        W 4658  43.372  11.829  14.999
33130W        W 4659  15.898   9.591  11.318
33131W        W 4660  33.946  28.031  12.896
33132W        W 4661   9.755  13.299   0.678
33133W        W 4662  16.861  36.866  12.462
33134W        W 4663  23.148   6.439   2.609
33135W        W 4664  19.662  42.040   4.046
33136W        W 4665  14.568  13.115  10.688
33137W        W 4666   0.989  24.946   1.164
33138W        W 4667   1.032  34.763  10.850
33139W        W 4668   6.972   8.476  12.037
33140W        W 4669   8.764  22.741   0.485
33141W        W 4670  44.292  29.149   1.733
33142W        W 4671   4.416   0.494  10.723
33143W        W 4672  22.648  31.923   2.761
33144W        W 4673  13.894  20.700  14.951
33145W        W 4674  12.335  39.919  12.775
33146W        W 4675  38.769  33.961   1.290
33147W        W 4676  35.471  17.210   2.368
33148W        W 4677  18.778  17.118  11.897
33149W        W 4678  35.996   2.283   3.886
33150W        W 4679  37.289   1.606  10.792
33151W        W 4680  27.908  44.770  11.516
33152W        W 4681   7.257  21.026  14.018
33153W        W 4682  21.296  35.843  12.432
33154W        W 4683  16.142  12.031   3.167
33155W        W 4684   2.320  19.211  12.271
33156W        W 4685  27.096  21.731  11.164
33157W        W 4686   3.979  24.700  11.680
33158W        W 4687   0.337  26.738   4.142
33159W        W 4688  20.487  16.719  13.941
33160W        W 4689  25.924  29.348   0.847
33161W        W 4690  30.094   2.884   3.785
33162W        W 4691  18.077  28.467   2.589
33163W        W 4692  27.063   7.828   3.237
33164W        W 4693  18.351   8.344   3.260
33165W        W 4694  44.195  33.037  11.083
33166W        W 4695  44.432  28.678   1.240
33167W        W 4696   2.566  44.465  14.280
33168W        W 4697  18.735  11.819   0.021
33169W        W 4698   4.305   6.492   2.857
33170W        W 4699  44.570  37.987   0.163
33171W        W 4700  25.935  17.778  14.317
33172W        W 4701   0.244  13.116  14.556
33173W        W 4702  41.717   6.174   1.265
33174W        W 4703  21.683   7.752  10.753
33175W        W 4704  21.900  43.349   1.442
33176W        W 4705  15.507  40.503  14.918
33177W        W 4706   0.472  24.578   2.763
33178W        W 4707  23.116   5.251   0.024
33179W        W 4708  32.758  30.885  12.803
33180W        W 4709  32.875  10.170  12.452
33181W        W 4710  23.397  35.873   3.572
33182W        W 4711  26.779  11.737  11.941
33183W        W 4712   0.427  28.748   1.307
33184W        W 4713  39.952   0.602   1.702
33185W        W 4714  34.006   0.251   4.514
33186W        W 4715  43.851  15.568  13.860
33187W        W 4716  29.083  36.881   1.301
33188W        W 4717  24.728  38.909   4.578
33189W        W 4718  12.010  42.798   1.384
33190W        W 4719   4.041  14.996   1.687
33191W        W 4720   5.904  28.672   4.345
33192W        W 4721  16.830  25.090   0.168
33193W        W 4722  14.084  19.544   2.681
33194W        W 4723   5.853   0.750   4.301
33195W        W 4724  29.417  40.696  13.003
33196W        W 4725   0.782  31.537  12.517
33197W        W 4726   1.335  23.578   3.659
33198W        W 4727  37.006  12.133   2.280
33199W        W 4728  17.543  40.055  11.083
33200W        W 4729   1.461  41.919   1.034
33201W        W 4730  11.629  39.258  14.477
33202W        W 4731  43.281  41.402  11.456
33203W        W 4732   1.505   1.675  14.063
33204W        W 4733  41.515  25.611  10.747
33205W        W 4734   6.186  44.316   3.755
33206W        W 4735  21.018  38.133  12.515
33207W        W 4736   5.355  11.451   4.678
33208W        W 4737  30.847  13.384  14.701
33209W        W 4738  14.082   7.921   4.798
33210W        W 4739  26.987   1.383  13.440
33211W        W 4740  14.283  17.209   4.543
33212W        W 4741  36.943  14.558  12.175
33213W        W 4742   7.909  25.683   0.735
33214W        W 4743  40.790  33.451  13.832
33215W        W 4744  22.700  30.970  14.970
33216W        W 4745  29.625  11.016   4.556
33217W        W 4746  28.529  17.019  12.014
33218W        W 4747  24.491   7.691  14.949
33219W        W 4748  33.930   5.156   4.314
33220W        W 4749  21.723  32.592   3.491
33221W        W 4750  44.179   3.027  14.943
33222W        W 4751   8.741   4.562  13.180
33223W        W 4752   6.633   3.707   2.812
33224W        W 4753  15.206  19.436   5.136
33225W        W 4754  33.486   5.184   1.699
33226W        W 4755  29.076  27.839  14.571
33227W        W 4756  10.197   3.313  14.857
33228W        W 4757  14.672  39.806   2.186
33229W        W 4758  36.373  27.464  12.974
33230W        W 4759  15.087   0.495   0.292
33231W        W 4760  14.563  17.694  14.435
33232W        W 4761  12.335  41.998  14.174
33233W        W 4762  10.905  16.018   4.531
33234W        W 4763  16.174  16.749  14.936
33235W        W 4764   1.057  33.033  10.795
33236W        W 4765  11.196  28.225   4.866
33237W        W 4766  44.157   4.364   4.683
33238W        W 4767  22.080  10.711  12.647
33239W        W 4768   3.324  14.075  10.983
33240W        W 4769  18.629  26.843  11.966
33241W        W 4770  18.270  27.733   1.936
33242W        W 4771  33.067  27.135  13.351
33243W        W 4772  15.070  27.896   1.736
33244W        W 4773  12.079  20.277  13.495
33245W        W 4774  18.233   8.638   0.851
33246W        W 4775  35.786  40.448   0.932
33247W        W 4776   1.971  34.011  13.447
33248W        W 4777  11.419  30.510   3.745
33249W        W 4778  28.030  33.880   0.877
33250W        W 4779  28.966   2.959  12.469
33251W        W 4780  14.198   8.882  14.291
33252W        W 4781  11.854  41.933  14.879
33253W        W 4782  39.031  33.383  14.795
33254W        W 4783  22.486   6.218   2.448
33255W        W 4784  18.467  42.806   4.558
33256W        W 4785  22.747  19.674  11.582
33257W        W 4786   6.311  36.384   2.057
33258W        W 4787   8.312  17.803  11.498
33259W        W 4788  24.903   4.825  11.058
33260W        W 4789   1.991   3.659   1.292
33261W        W 4790  35.247  43.909  14.714
33262W        W 4791  11.244   9.127  10.309
33263W        W 4792  11.075  32.022  12.500
33264W        W 4793   1.884   0.235  13.526
33265W        W 4794   1.328  10.337   0.797
33266W        W 4795  35.309  32.671  11.616
33267W        W 4796  37.941  36.828  12.457
33268W        W 4797  23.869  37.901  12.552
33269W        W 4798  15.387  26.971   1.937
33270W        W 4799  31.074  31.471  11.464
33271W        W 4800  42.521  44.669  12.878
33272W        W 4801  16.170  36.993  11.503
33273W        W 4802   9.834  14.856   2.938
33274W        W 4803   9.253   4.595   4.544
33275W        W 4804  24.162   4.492  14.321
33276W        W 4805  29.510  20.219   2.891
33277W        W 4806  15.129  25.554   2.683
33278W        W 4807  20.513  27.934   4.170
33279W        W 4808  14.235  11.733  10.689
33280W        W 4809  20.250  28.875  11.230
33281W        W 4810  22.854  14.996  12.727
33282W        W 4811  23.443  12.465   3.264
33283W        W 4812  35.479  15.717  13.407
33284W        W 4813  39.472  42.582   3.330
33285W        W 4814  17.899  31.023   0.141
33286W        W 4815   9.542   5.232   2.372
33287W        W 4816   3.462  18.257  14.068
33288W        W 4817  14.027   9.925  10.270
33289W        W 4818  20.752  43.888   2.476
33290W        W 4819  26.901  27.000   1.344
33291W        W 4820   7.163  30.130   2.373
33292W        W 4821  41.515  17.243   2.484
33293W        W 4822  22.984  35.886  11.941
33294W        W 4823  25.470  19.665  12.942
33295W        W 4824  30.031  40.767  10.545
33296W        W 4825  43.412  17.825   3.306
33297W        W 4826  24.282  33.814   4.223
33298W        W 4827  12.050  20.886   1.289
33299W        W 4828  39.002  29.147   1.836
33300W        W 4829   6.350  36.943  14.633
33301W        W 4830  22.298  14.858  14.594
33302W        W 4831  44.367  28.850   2.851
33303W        W 4832   6.885  21.202  12.170
33304W        W 4833  28.633  33.937   1.000
33305W        W 4834  19.128  36.427  11.725
33306W        W 4835  29.738  14.601   4.227
33307W        W 4836   2.752  19.679  11.678
33308W        W 4837  32.369  11.414  10.623
33309W        W 4838   0.706  13.759   4.334
33310W        W 4839  12.192  30.928  12.886
33311W        W 4840  32.459   4.888  10.762
33312W        W 4841  12.741  31.202  13.432
33313W        W 4842  10.978  40.768   2.717
33314W        W 4843  41.275  27.623   1.957
33315W        W 4844   5.466  27.210   1.847
33316W        W 4845  24.419  37.181  14.816
33317W        W 4846  27.818  37.101  10.383
33318W        W 4847   9.276  19.060   1.448
33319W        W 4848  41.031   6.481   2.793
33320W        W 4849   1.025   8.946  12.627
33321W        W 4850  10.352  40.387   4.172
33322W        W 4851  22.545  32.536  10.697
33323W        W 4852  26.958  17.801   3.679
33324W        W 4853  17.127  25.038   1.902
33325W        W 4854  32.230   3.820  12.684
33326W        W 4855  34.608  25.022  11.426
33327W        W 4856  24.967  20.606  13.052
33328W        W 4857   8.234  33.595   1.832
33329W        W 4858  32.681   4.365   1.492
33330W        W 4859  33.170  35.112  14.959
33331W        W 4860  32.868  32.981   1.504
33332W        W 4861  19.575  22.647  10.776
33333W        W 4862  25.524  34.549   4.212
33334W        W 4863  15.081   4.875  12.336
33335W        W 4864  36.496  22.556  12.872
33336W        W 4865   0.437  32.855  12.536
33337W        W 4866  39.370  19.540   3.840
33338W        W 4867  43.299   2.003  12.153
33339W        W 4868  22.920  43.830   0.945
33340W        W 4869  29.819  11.617  14.335
33341W        W 4870  34.061  12.090   0.063
33342W        W 4871  28.530  41.768   0.887
33343W        W 4872  28.481  40.764  11.151
33344W        W 4873  15.719  40.330  11.058
33345W        W 4874  21.570   2.320   2.952
33346W        W 4875  44.824  43.371   1.178
33347W        W 4876  35.005  40.931   0.742
33348W        W 4877   3.815   8.305   2.726
33349W        W 4878  22.668  31.866  12.443
33350W        W 4879  39.371  38.796   2.407
33351W        W 4880  14.062  32.929   2.211
33352W        W 4881  36.372  29.272  10.687
33353W        W 4882  15.752  11.449   3.619
33354W        W 4883  14.633  17.835  13.444
33355W        W 4884  11.097  36.915  14.292
33356W        W 4885  16.282   5.860   0.502
33357W        W 4886  27.691   7.246  12.873
33358W        W 4887  11.996  39.470   2.142
33359W        W 4888  15.671  35.779   5.160
33360W        W 4889   6.800   7.940   1.305
33361W        W 4890  17.718  31.448   0.425
33362W        W 4891  10.338  14.862   0.338
33363W        W 4892  19.597   5.401  13.279
33364W        W 4893  19.194   9.347  10.704
33365W        W 4894  27.506  25.387  11.548
33366W        W 4895  14.591  24.579  12.810
33367W        W 4896   5.694   5.633  11.577
33368W        W 4897  16.047  32.836  14.310
33369W        W 4898  24.502  20.138  12.299
33370W        W 4899  25.480   9.590   2.435
33371W        W 4900  23.015  33.385  10.857
33372W        W 4901  43.282   3.487   0.651
33373W        W 4902   6.160   4.667  10.741
33374W        W 4903  13.400  31.200   4.779
33375W        W 4904  30.310  35.522   2.153
33376W        W 4905   2.260  27.439  14.495
33377W        W 4906  33.699  19.745   4.612
33378W        W 4907  42.516  28.708  13.042
33379W        W 4908  16.066  33.022   0.209
33380W        W 4909  39.390   3.730  11.499
33381W        W 4910   3.934  16.240  10.723
33382W        W 4911  38.397  21.854   0.683
33383W        W 4912  28.206   2.084   3.717
33384W        W 4913  18.510  22.755   0.403
33385W        W 4914   4.512  24.257  14.954
33386W        W 4915  44.091  42.995   2.225
33387W        W 4916  15.638  10.576   0.342
33388W        W 4917  42.594   1.910  11.571
33389W        W 4918   0.309  37.824  11.934
33390W        W 4919   4.693   3.685  11.007
33391W        W 4920  42.558   1.698   0.428
33392W        W 4921  13.840  44.462   1.385
33393W        W 4922  23.108  31.985  13.219
33394W        W 4923  38.311  25.151   1.937
33395W        W 4924  17.259  23.562  14.433
33396W        W 4925  41.221  32.733  14.556
33397W        W 4926  26.598  17.098  11.547
33398W        W 4927  44.669  25.879  10.564
33399W        W 4928  40.588  14.052   3.245
33400W        W 4929  18.197  13.407  10.748
33401W        W 4930   6.775  37.125   4.610
33402W        W 4931  24.132  21.070   0.274
33403W        W 4932  36.320   3.268  11.287
33404W        W 4933   9.758  42.957  14.429
33405W        W 4934  40.569  30.877   0.785
33406W        W 4935   7.958  21.761   3.765
33407W        W 4936  10.809   1.782  12.029
33408W        W 4937  35.801  40.095  12.164
33409W        W 4938  14.836  30.380  11.577
33410W        W 4939  32.018  21.374  13.342
33411W        W 4940  38.079   4.200  12.919
33412W        W 4941  25.718  20.097   3.590
33413W        W 4942  30.471  17.084   3.997
33414W        W 4943  21.438   5.264   3.164
33415W        W 4944  41.196  15.998   3.947
33416W        W 4945  16.134  16.095   3.817
33417W        W 4946   2.267  15.631   0.596
33418W        W 4947  21.933  43.833  11.072
33419W        W 4948   4.733  26.870   3.416
33420W        W 4949  27.446   9.639  13.950
33421W        W 4950  40.817  39.014   4.350
33422W        W 4951  24.493   3.188  13.796
33423W        W 4952   0.572   9.750   5.013
33424W        W 4953  17.403  25.044  11.207
33425W        W 4954  24.182  26.415   2.335
33426W        W 4955  43.705   4.242  13.163
33427W        W 4956  26.719  10.435   3.766
33428W        W 4957  36.978  24.515   3.229
33429W        W 4958   5.859  26.537  12.224
33430W        W 4959  33.869  27.034   1.750
33431W        W 4960   9.778  24.510   2.624
33432W        W 4961  27.679  13.260   2.876
33433W        W 4962  33.325   7.324   3.725
33434W        W 4963  44.974  33.064   1.235
33435W        W 4964   4.224  26.306  11.261
33436W        W 4965  23.766  15.719  13.578
33437W        W 4966  22.579  31.683  10.668
33438W        W 4967  24.717  37.970   3.348
33439W        W 4968  13.198  27.378  14.301
33440W        W 4969  28.003   9.126   2.347
33441W        W 4970   8.966  14.777  14.354
33442W        W 4971  30.494  40.888  13.985
33443W        W 4972  26.991  37.416  14.393
33444W        W 4973   6.235  29.514   0.529
33445W        W 4974  24.872  40.062  12.320
33446W        W 4975  38.066  27.017   2.389
33447W        W 4976  28.431  18.260  13.459
33448W        W 4977   0.451  11.699  12.939
33449W        W 4978   3.495  41.026   0.897
33450W        W 4979  28.346  26.668   2.266
33451W        W 4980   1.221  21.136  11.099
33452W        W 4981  35.653   3.768  12.865
33453W        W 4982   2.955   5.413  10.947
33454W        W 4983  43.546  40.684   2.922
33455W        W 4984  15.848  34.820   0.831
33456W        W 4985  33.808  31.909  12.496
33457W        W 4986  41.346  29.404  14.507
33458W        W 4987  38.377  12.705   0.751
33459W        W 4988  13.428   3.735  13.557
33460W        W 4989  22.059   3.644  13.440
33461W        W 4990  42.487  39.460  14.431
33462W        W 4991   1.348  10.595  11.565
33463W        W 4992  44.589  38.491  12.976
33464W        W 4993   0.684  36.635   4.665
33465W        W 4994   8.956  36.972  12.463
33466W        W 4995  10.840  26.659  10.594
33467W        W 4996   0.949   3.412   3.333
33468W        W 4997  21.947  30.157  13.026
33469W        W 4998  24.991  42.447   1.686
33470W        W 4999  12.736  34.791   3.600
33471W        W 5000  23.015  16.703   0.053
33472W        W 5001  40.369   5.822   0.715
33473W        W 5002   9.284  30.617   1.433
33474W        W 5003  32.232   9.771  14.469
33475W        W 5004  13.594  24.541  10.727
33476W        W 5005  44.511  44.755   3.015
33477W        W 5006  14.655  43.455  14.857
33478W        W 5007  18.373  33.973  14.619
33479W        W 5008  41.031  25.609   3.121
33480W        W 5009  37.540  12.788  12.902
33481W        W 5010  37.504  24.395  10.452
33482W        W 5011  41.605  22.049   4.713
33483W        W 5012  30.717  39.981  13.086
33484W        W 5013  37.929  19.367   0.204
33485W        W 5014   5.558  13.205   4.103
33486W        W 5015  27.548  22.407  14.423
33487W        W 5016  15.675  33.679   3.582
33488W        W 5017   5.832   5.745  14.286
33489W        W 5018  32.935  31.865   0.352
33490W        W 5019  17.797  31.724  14.613
33491W        W 5020  42.960   6.831   2.006
33492W        W 5021  38.527  34.513  11.015
33493W        W 5022  25.814  27.214   0.324
33494W        W 5023  10.134  43.428   1.407
33495W        W 5024  22.261  33.019  12.819
33496W        W 5025  17.634  10.303   1.604
33497W        W 5026  43.590  25.607   3.873
33498W        W 5027  12.357   1.244  11.166
33499W        W 5028   4.930  29.850   4.567
33500W        W 5029  19.436   0.311  10.195
33501W        W 5030  12.610  33.851   2.706
33502W        W 5031  25.669  40.708  11.585
33503W        W 5032  27.037  19.293   1.921
33504W        W 5033   1.295  28.479  11.058
33505W        W 5034  30.651  12.802   2.829
33506W        W 5035  39.317  30.428   4.130
33507W        W 5036  43.062  36.074   3.802
33508W        W 5037  21.186  11.609  11.911
33509W        W 5038  30.435  42.355  12.406
33510W        W 5039  22.106  44.528   0.815
33511W        W 5040  35.784  34.186   3.104
33512W        W 5041  18.602  33.418  13.343
33513W        W 5042  29.813  17.152  12.415
33514W        W 5043  23.324  37.030   4.171
33515W        W 5044  41.081   4.499  13.966
33516W        W 5045   3.007   2.446  12.926
33517W        W 5046  26.029  32.953  11.556
33518W        W 5047  19.092  25.514   1.954
33519W        W 5048   8.719   6.353   2.610
33520W        W 5049  26.603  35.897   0.212
33521W        W 5050  34.290   7.326   3.773
33522W        W 5051  28.055  20.197  14.481
33523W        W 5052  20.408  32.655   1.418
33524W        W 5053  25.952  18.639  12.083
33525W        W 5054   8.007  36.905  14.450
33526W        W 5055  13.196  43.263  11.103
33527W        W 5056  18.559  40.569  12.468
33528W        W 5057  42.361  40.950  10.326
33529W        W 5058  30.752  22.269  11.191
33530W        W 5059   8.435  39.330  12.583
33531W        W 5060  30.627  18.784   0.428
33532W        W 5061  12.192  22.257   1.311
33533W        W 5062  23.691  15.584  14.871
33534W        W 5063  14.061  43.220  12.469
33535W        W 5064  31.517  33.542  13.483
33536W        W 5065  14.578   1.071  11.581
33537W        W 5066  27.233   3.772   3.382
33538W        W 5067  41.864   4.056   2.589
33539W        W 5068  10.635   7.122  10.788
33540W        W 5069  28.169  27.556  11.496
33541W        W 5070   7.905  13.294  12.900
33542W        W 5071  44.348  23.533   4.378
33543W        W 5072   5.418  25.598  10.724
33544W        W 5073   5.413  17.330  13.910
33545W        W 5074  16.750  10.630  14.389
33546W        W 5075   7.299  12.729  13.447
33547W        W 5076  39.381   8.801  10.651
33548W        W 5077   0.211   8.398  13.892
33549W        W 5078  26.401  41.857  10.816
33550W        W 5079  30.670  32.669  11.144
33551W        W 5080  37.435  31.825   2.428
33552W        W 5081  31.204  11.168  13.039
33553W        W 5082  27.867  40.514   2.706
33554W        W 5083   6.598   7.365   2.244
33555W        W 5084  12.759  28.194  14.051
33556W        W 5085  26.872  21.140  12.713
33557W        W 5086  14.255   8.383   1.931
33558W        W 5087  26.346  29.903  11.145
33559W        W 5088  18.154  14.737   2.600
33560W        W 5089  19.254  19.082  14.461
33561W        W 5090  28.075  23.056  10.780
33562W        W 5091   1.508   3.605  14.999
33563W        W 5092  21.051  20.806   2.832
33564W        W 5093  24.594  36.161  14.381
33565W        W 5094  25.740  13.626  11.996
33566W        W 5095   2.884  36.369   2.957
33567W        W 5096  13.332   8.771  14.925
33568W        W 5097  16.041   1.060   2.756
33569W        W 5098  30.990  28.141  14.426
33570W        W 5099  26.170  33.915   4.106
33571W        W 5100  23.687  33.271   1.791
33572W        W 5101  29.877  14.230   2.605
33573W        W 5102  34.225  42.920  13.391
33574W        W 5103  33.791   7.774   2.255
33575W        W 5104  38.352  41.901   0.883
33576W        W 5105  44.333   1.451   4.273
33577W        W 5106  20.056  17.352  14.855
33578W        W 5107  14.865  30.021   4.161
33579W        W 5108  12.933  11.551  13.842
33580W        W 5109  22.618   0.169  11.908
33581W        W 5110  17.854  20.622   1.731
33582W        W 5111  25.597  18.642  10.749
33583W        W 5112  25.033  26.998   2.857
33584W        W 5113   5.223   5.906  12.440
33585W        W 5114   4.506  40.367   0.293
33586W        W 5115  19.160  33.582   0.947
33587W        W 5116   1.764  11.920  13.954
33588W        W 5117  35.443  28.148  13.968
33589W        W 5118  37.023   0.535  12.978
33590W        W 5119  43.290  35.621   2.938
33591W        W 5120  13.622  14.858   0.401
33592W        W 5121  28.649  24.481  14.242
33593W        W 5122  10.968  37.956   2.747
33594W        W 5123  33.472  18.689   2.827
33595W        W 5124  11.884   8.788   1.384
33596W        W 5125  11.692  16.338   1.828
33597W        W 5126   6.603  37.081  11.612
33598W        W 5127  11.105  13.216  12.929
33599W        W 5128  44.086  42.533   1.927
33600W        W 5129  37.010  43.825   1.791
33601W        W 5130   3.146   8.726   5.066
33602W        W 5131  14.166   4.579  12.570
33603W        W 5132  15.580   4.381  12.455
33604W        W 5133   4.156  28.416   3.609
33605W        W 5134  22.569  33.457   0.370
33606W        W 5135   9.157  40.789   3.683
33607W        W 5136  32.351  15.672   3.619
33608W        W 5137  18.688  44.524  12.444
33609W        W 5138  22.469  30.019  14.847
33610W        W 5139  35.453   5.354   0.378
33611W        W 5140  44.739  22.526   1.449
33612W        W 5141  27.809  18.272  12.185
33613W        W 5142  36.405  33.537   3.396
33614W        W 5143  27.201  37.107  11.507
33615W        W 5144   7.294  30.194  12.172
33616W        W 5145  12.221  42.575  11.174
33617W        W 5146  23.007   6.171  12.025
33618W        W 5147  15.826   9.610   1.870
33619W        W 5148  11.827   8.272   3.725
33620W        W 5149  42.088  35.610  12.410
33621W        W 5150  35.045  39.316   0.860
33622W        W 5151  27.033  33.436   2.689
33623W        W 5152  12.310  10.929   1.818
33624W        W 5153  28.710   0.287   2.633
33625W        W 5154  24.891   6.932   0.517
33626W        W 5155  11.229  28.106   4.362
33627W        W 5156  13.662  11.603  12.503
33628W        W 5157  33.152  30.467   3.871
33629W        W 5158  27.921  39.314  10.658
33630W        W 5159  44.698  20.295  14.699
33631W        W 5160  39.736   2.494  12.055
33632W        W 5161  11.707  38.618   4.121
33633W        W 5162   3.418  29.852  13.767
33634W        W 5163  11.141  28.457   1.273
33635W        W 5164   8.193  16.308   2.649
33636W        W 5165  38.110  41.862  13.366
33637W        W 5166  43.314   4.968   3.452
33638W        W 5167   6.640  14.524  13.802
33639W        W 5168   6.176  44.972  12.089
33640W        W 5169  14.907  27.309  13.916
33641W        W 5170  25.725   6.656  10.719
33642W        W 5171  39.088  12.758  13.171
33643W        W 5172  27.744   9.411   0.248
33644W        W 5173  10.210   0.767  14.850
33645W        W 5174  27.120   4.268  12.001
33646W        W 5175  27.965  30.892  12.442
33647W        W 5176  11.208   5.195  13.312
33648W        W 5177  18.786   9.848  13.660
33649W        W 5178  31.223  33.961  12.916
33650W        W 5179  23.752  25.964  12.555
33651W        W 5180  26.579   7.256  10.378
33652W        W 5181   6.596  30.939   2.394
33653W        W 5182   7.843  23.151   0.383
33654W        W 5183  17.244  38.350   0.726
33655W        W 5184  35.368  24.570  10.534
33656W        W 5185   6.440  32.449  11.182
33657W        W 5186  16.234  29.441  13.879
33658W        W 5187  38.025  40.509   2.288
33659W        W 5188  37.469  28.326  12.076
33660W        W 5189  23.518  44.755   2.067
33661W        W 5190  12.886   6.566   1.330
33662W        W 5191  31.225  40.566  14.435
33663W        W 5192  44.742  41.086  11.551
33664W        W 5193  13.137  17.587   0.861
33665W        W 5194  36.149  41.432  13.863
33666W        W 5195   3.460  38.732  14.434
33667W        W 5196  44.851  43.989  11.497
33668W        W 5197  40.572  41.052  14.047
33669W        W 5198  43.889  15.393   4.213
33670W        W 5199  17.185  32.623   4.470
33671W        W 5200  15.150  22.138  14.237
33672W        W 5201   6.284  28.596  11.266
33673W        W 5202  29.059  44.243   4.669
33674W        W 5203  14.328   3.345   3.741
33675W        W 5204  31.100  28.618  10.582
33676W        W 5205   2.994  40.988  14.332
33677W        W 5206  27.450   7.862  13.582
33678W        W 5207   1.828  27.224  10.998
33679W        W 5208  37.445  10.721   3.206
33680W        W 5209  15.879   9.131   1.222
33681W        W 5210  40.015   1.842  10.736
33682W        W 5211  20.427  40.303  12.845
33683W        W 5212  44.993  14.166  13.363
33684W        W 5213   5.421  23.796  14.381
33685W        W 5214  30.404  43.357   4.077
33686W        W 5215  26.871  21.491   4.154
33687W        W 5216   4.409  37.875  14.824
33688W        W 5217  39.893   4.345  10.761
33689W        W 5218  22.280   4.877  14.397
33690W        W 5219  25.888  20.836   0.754
33691W        W 5220   8.623  28.474   2.756
33692W        W 5221  26.892   5.214   0.024
33693W        W 5222  11.372  38.120   0.911
33694W        W 5223  26.059  27.513   1.425
33695W        W 5224   6.907  11.604  11.920
33696W        W 5225   4.188   3.699  13.110
33697W        W 5226  20.052   9.305  14.190
33698W        W 5227  27.579  39.127  12.093
33699W        W 5228  39.257  38.038   1.835
33700W        W 5229   5.325  44.518  12.468
33701W        W 5230   6.170   2.394   1.165
33702W        W 5231  16.835  35.416   4.135
33703W        W 5232   1.022  29.755  10.960
33704W        W 5233  33.455  39.902   2.970
33705W        W 5234  44.021  17.129   1.710
33706W        W 5235  15.674  27.880   1.482
33707W        W 5236  17.477  14.632   3.343
33708W        W 5237  37.045  30.996  13.548
33709W        W 5238   5.661   9.224  11.490
33710W        W 5239  13.233  16.690  13.176
33711W        W 5240  39.814  28.690  12.040
33712W        W 5241  22.015   9.751   2.941
33713W        W 5242  10.399  30.688  11.152
33714W        W 5243  33.110  26.783  11.384
33715W        W 5244  39.929  42.317  11.823
33716W        W 5245  16.600  17.860   2.132
33717W        W 5246   1.407  37.452  13.878
33718W        W 5247   0.089   3.803  13.801
33719W        W 5248  13.776  25.886  11.726
33720W        W 5249  25.049  36.694   2.428
33721W        W 5250  24.530  17.476   4.692
33722W        W 5251  35.497  25.953  13.350
33723W        W 5252  29.853   1.836   5.101
33724W        W 5253  42.970  21.980  13.977
33725W        W 5254  30.547   5.185  12.154
33726W        W 5255  22.716  21.969   3.180
33727W        W 5256  36.939  36.504   0.259
33728W        W 5257  22.342  34.279   0.070
33729W        W 5258  42.416  12.224  10.610
33730W        W 5259  15.520   1.854  14.060
33731W        W 5260  12.589  15.175  12.540
33732W        W 5261  13.226  10.705  11.382
33733W        W 5262   3.974  18.634  14.783
33734W        W 5263  35.575   3.232   2.130
33735W        W 5264  43.750   5.960  13.891
33736W        W 5265  27.078  26.442  13.046
33737W        W 5266  32.552  20.271  13.407
33738W        W 5267  11.081   7.222  13.865
33739W        W 5268  19.271   5.136  13.796
33740W        W 5269  21.602   2.892  14.000
33741W        W 5270  39.815   4.763  11.652
33742W        W 5271  38.474  28.404   3.221
33743W        W 5272   8.180  24.536   1.706
33744W        W 5273   0.067  32.163   2.677
33745W        W 5274  43.801  11.862  14.397
33746W        W 5275  44.308  38.475   2.089
33747W        W 5276  35.214  35.949  13.566
33748W        W 5277   9.968  44.873  14.316
33749W        W 5278  43.279  23.265   0.435
33750W        W 5279   1.769  18.935   0.789
33751W        W 5280  41.061  24.569  12.355
33752W        W 5281   6.662  44.238   3.912
33753W        W 5282   4.388   4.533   2.818
33754W        W 5283  39.394   9.581   2.020
33755W        W 5284  17.714  24.653  11.128
33756W        W 5285  44.266  40.927  14.585
33757W        W 5286  12.716  16.228   2.180
33758W        W 5287  29.948  17.132   9.741
33759W        W 5288   5.727  41.717  13.413
33760W        W 5289  44.182   8.391  12.450
33761W        W 5290  32.591  35.510  11.704
33762W        W 5291  43.392  33.196  14.858
33763W        W 5292  25.675   9.180  13.924
33764W        W 5293  24.850   0.691   4.968
33765W        W 5294  42.024   4.207  14.085
33766W        W 5295  17.154  39.842   4.047
33767W        W 5296  42.399  35.552   1.249
33768W        W 5297  14.719  33.900  13.560
33769W        W 5298  30.514  13.901  11.128
33770W        W 5299  27.308   0.417   2.937
33771W        W 5300  18.326  16.563   1.414
33772W        W 5301  30.146  15.698   4.557
33773W        W 5302   8.023  24.928  11.484
33774W        W 5303  15.596  35.751  11.103
33775W        W 5304  23.933  22.491   1.755
33776W        W 5305  42.895  36.319  12.861
33777W        W 5306  22.011  15.865   1.682
33778W        W 5307  29.226  26.204  14.868
33779W        W 5308  41.396  30.386  13.032
33780W        W 5309  33.513  36.758   4.382
33781W        W 5310  18.322  18.712   0.881
33782W        W 5311   2.676  29.056   0.135
33783W        W 5312  15.922  27.245   2.715
33784W        W 5313  36.864   7.893  11.255
33785W        W 5314  15.499  28.485  13.499
33786W        W 5315   9.610   0.008   0.337
33787W        W 5316  38.245   3.818   4.620
33788W        W 5317  34.869  42.515  13.735
33789W        W 5318  43.929  22.617   0.749
33790W        W 5319  28.502  16.380   1.653
33791W        W 5320   3.555   4.318   4.198
33792W        W 5321  29.370  43.412   4.170
33793W        W 5322  33.828  29.632   3.728
33794W        W 5323  25.949  10.893  10.803
33795W        W 5324  28.633  27.784   0.369
33796W        W 5325  43.163  17.542   2.929
33797W        W 5326   7.621  36.522  14.562
33798W        W 5327  30.490  21.211   0.340
33799W        W 5328  35.408  39.224  11.765
33800W        W 5329   2.917  36.521  10.437
33801W        W 5330  42.866  24.497  14.863
33802W        W 5331  20.464   7.962  12.385
33803W        W 5332  30.503  24.574   0.395
33804W        W 5333   2.132  11.464   3.440
33805W        W 5334   7.491  37.097  13.864
33806W        W 5335   2.696  38.159   3.811
33807W        W 5336  24.278  29.609   1.941
33808W        W 5337  26.168   7.648   1.370
33809W        W 5338  27.461  32.345  11.445
33810W        W 5339  24.843  30.501   1.880
33811W        W 5340  36.924   7.245   0.065
33812W        W 5341   2.823  26.607  10.887
33813W        W 5342  11.088  43.343   0.368
33814W        W 5343  31.962  36.781  12.866
33815W        W 5344  42.999  21.261  11.109
33816W        W 5345   9.150   4.713  14.448
33817W        W 5346  22.811   8.725  10.805
33818W        W 5347  16.964   5.380  13.474
33819W        W 5348  31.824  41.312  14.462
33820W        W 5349   4.140   0.337   1.885
33821W        W 5350  24.241  43.473   0.411
33822W        W 5351  43.219  30.859  13.525
33823W        W 5352  29.140  26.110   4.838
33824W        W 5353   2.200  28.777   0.027
33825W        W 5354  27.106  28.080   2.653
33826W        W 5355  39.418  17.173   3.101
33827W        W 5356  14.501  20.105   3.294
33828W        W 5357  33.143   6.200   2.378
33829W        W 5358  42.470  23.499   4.540
33830W        W 5359  38.805  39.929  12.830
33831W        W 5360  16.663  24.066   5.139
33832W        W 5361   9.675   2.585  13.442
33833W        W 5362  22.212   5.701  12.116
33834W        W 5363  26.896  42.861   4.298
33835W        W 5364  21.326  34.553   4.150
33836W        W 5365  23.952  37.934  11.643
33837W        W 5366  35.026   8.130   3.271
33838W        W 5367  43.373   5.381  12.528
33839W        W 5368  29.561  17.313   2.317
33840W        W 5369  19.894  33.321   2.690
33841W        W 5370  34.042  28.869  10.710
33842W        W 5371  16.614   4.858   4.159
33843W        W 5372  29.549  37.355   4.480
33844W        W 5373  22.004   8.697   2.780
33845W        W 5374   5.494  24.150  11.116
33846W        W 5375   9.194  27.136  13.334
33847W        W 5376  11.757  16.166  12.128
33848W        W 5377  41.387  12.445  12.484
33849W        W 5378  44.326  28.483  11.124
33850W        W 5379  23.008  37.197  13.906
33851W        W 5380  37.341   9.817   3.006
33852W        W 5381  28.773   1.941   0.102
33853W        W 5382  44.904   8.821  13.742
33854W        W 5383  39.157  19.802  13.733
33855W        W 5384  25.629  42.393  13.805
33856W        W 5385   8.828  10.796  13.348
33857W        W 5386  25.703  39.070   2.393
33858W        W 5387  20.512  29.391  11.526
33859W        W 5388   3.922   7.376  11.984
33860W        W 5389  39.869  38.778   0.911
33861W        W 5390  38.103  34.385  11.252
33862W        W 5391   9.590  41.952  12.593
33863W        W 5392  22.174  37.795  14.968
33864W        W 5393  33.165   9.640  10.618
33865W        W 5394  26.750  22.746  13.045
33866W        W 5395  41.648  14.171   9.663
33867W        W 5396  13.308  22.416  10.751
33868W        W 5397  26.434   0.362   3.176
33869W        W 5398  17.832  29.618   4.125
33870W        W 5399   2.152  32.111   0.014
33871W        W 5400  23.976  18.669  12.166
33872W        W 5401  41.856  11.178   2.742
33873W        W 5402  24.452  10.493  14.307
33874W        W 5403   6.396  21.186  14.861
33875W        W 5404  39.774  16.452  10.726
33876W        W 5405  21.998  44.425   2.185
33877W        W 5406   8.378  28.394  10.922
33878W        W 5407  34.581  43.933  14.581
33879W        W 5408  27.088  34.828   4.215
33880W        W 5409  39.605   3.514  13.761
33881W        W 5410  28.711   0.502   4.382
33882W        W 5411  41.378   4.227   0.503
33883W        W 5412  22.143  38.356  11.911
33884W        W 5413   9.277   8.986  11.550
33885W        W 5414  16.123  14.128   3.688
33886W        W 5415  32.947  44.564   0.638
33887W        W 5416  42.431  18.746  11.547
33888W        W 5417  42.016  36.105  12.529
33889W        W 5418  17.368  26.786  10.217
33890W        W 5419  11.506  17.261  12.625
33891W        W 5420  16.212  31.429  12.546
33892W        W 5421  26.551  34.336   5.067
33893W        W 5422  10.304  41.335  11.705
33894W        W 5423  20.463  10.017  14.856
33895W        W 5424   5.643   7.878   2.279
33896W        W 5425  14.347  16.996   1.901
33897W        W 5426   9.894  35.485   4.852
33898W        W 5427  10.950  39.672   0.965
33899W        W 5428  24.524  37.430  13.506
33900W        W 5429   0.374  40.328  14.985
33901W        W 5430  12.805   9.258  12.677
33902W        W 5431   6.712   4.707   4.523
33903W        W 5432  11.337  43.044  10.028
33904W        W 5433  24.299  19.027  11.013
33905W        W 5434  41.902  31.117   4.837
33906W        W 5435  24.771  33.073  14.441
33907W        W 5436  44.944  22.327  12.790
33908W        W 5437  22.572  12.214  11.986
33909W        W 5438  26.585   3.515   2.846
33910W        W 5439   2.416  32.194  12.084
33911W        W 5440  16.301   8.194   3.283
33912W        W 5441  23.100  24.252   1.892
33913W        W 5442  27.502  26.226  12.861
33914W        W 5443   3.238  12.169  14.427
33915W        W 5444   8.801  18.417   3.595
33916W        W 5445  13.585  43.243  11.647
33917W        W 5446  33.694   4.501  11.053
33918W        W 5447  40.707  27.267   2.789
33919W        W 5448  28.121  43.768  12.993
33920W        W 5449  17.097  16.063  12.032
33921W        W 5450  10.623   8.428  11.665
33922W        W 5451   4.327  22.536  13.011
33923W        W 5452  10.707  27.909   0.705
33924W        W 5453  34.032  33.853   4.695
33925W        W 5454  22.205  14.574   2.340
33926W        W 5455  30.607  26.637   1.043
33927W        W 5456  39.837  26.999  12.123
33928W        W 5457  23.545  17.040  11.174
33929W        W 5458  35.553  11.640   3.618
33930W        W 5459  33.858  36.424   2.188
33931W        W 5460  27.968  14.191  12.960
33932W        W 5461  21.205   9.899   3.630
33933W        W 5462  30.125  42.298   4.202
33934W        W 5463  40.145   7.837   1.317
33935W        W 5464   5.451  19.734   0.358
33936W        W 5465  33.862  27.782  13.335
33937W        W 5466  18.541  18.305  12.624
33938W        W 5467  12.618  30.453  11.901
33939W        W 5468  30.145  10.345  14.001
33940W        W 5469   4.451  41.758  12.077
33941W        W 5470  41.005  36.838  13.789
33942W        W 5471   2.799  43.830   1.314
33943W        W 5472  20.658  33.002   1.695
33944W        W 5473  42.523  22.563   0.779
33945W        W 5474  42.551  28.973   2.777
33946W        W 5475   2.899  26.235   0.291
33947W        W 5476   2.977  44.184  14.443
33948W        W 5477   4.383   4.576  12.135
33949W        W 5478   2.728  37.000  10.508
33950W        W 5479   4.639  23.467   4.080
33951W        W 5480   4.206  39.879  14.935
33952W        W 5481   8.408  43.341   1.206
33953W        W 5482  40.824   6.720   3.202
33954W        W 5483  40.774  28.113   1.329
33955W        W 5484   0.529  25.570   2.896
33956W        W 5485  16.062   6.841   3.103
33957W        W 5486   3.418  18.037   3.417
33958W        W 5487  43.821  38.129   1.744
33959W        W 5488  25.910  19.511   1.725
33960W        W 5489  27.744  41.959   0.741
33961W        W 5490  42.252  15.178  13.315
33962W        W 5491  44.378  34.622   0.330
33963W        W 5492  43.423  26.200   2.360
33964W        W 5493  23.669  44.478  11.990
33965W        W 5494  26.483   2.770   0.261
33966W        W 5495  15.532  14.746  12.332
33967W        W 5496   8.283  21.810  14.914
33968W        W 5497  28.159  27.932   3.537
33969W        W 5498  44.544   1.146   3.377
33970W        W 5499  28.084  21.794   3.177
33971W        W 5500  26.983  38.011   0.237
33972W        W 5501   2.806  18.093   2.657
33973W        W 5502  22.162  18.673  10.506
33974W        W 5503   8.204  17.653   2.355
33975W        W 5504  24.540  27.083  12.410
33976W        W 5505  43.818  19.116  10.711
33977W        W 5506  41.022  31.126   4.336
33978W        W 5507  18.966  31.627  10.878
33979W        W 5508  35.282  25.596   2.346
33980W        W 5509  22.768  36.241  14.306
33981W        W 5510   3.080  24.657  10.660
33982W        W 5511   4.947  20.182  13.428
33983W        W 5512  28.817   9.764   4.542
33984W        W 5513  29.559  25.000  14.255
33985W        W 5514  21.869  20.645  11.677
33986W        W 5515  21.133  35.402  12.674
33987W        W 5516   8.660  26.748  14.920
33988W        W 5517  14.521   6.684  12.460
33989W        W 5518  43.039  43.281   4.216
33990W        W 5519  15.449  18.895   5.319
33991W        W 5520  20.020   0.587  12.450
33992W        W 5521  15.674  28.022  11.985
33993W        W 5522  18.898  22.749  10.198
33994W        W 5523  34.221   9.706   4.301
33995W        W 5524  24.776  40.093  14.954
33996W        W 5525  25.301  30.220   4.728
33997W        W 5526  41.521  21.605  11.167
33998W        W 5527  33.862  38.930  12.508
33999W        W 5528   8.093  14.692  12.481
34000W        W 5529   4.304   1.197   3.266
34001W        W 5530  33.364  38.009   4.932
34002W        W 5531  33.045  13.569   2.333
34003W        W 5532  30.568  26.678  13.989
34004W        W 5533  39.856  20.911  14.950
34005W        W 5534  19.139  41.538   0.253
34006W        W 5535  18.785  42.995  10.981
34007W        W 5536   9.080  33.105   1.798
34008W        W 5537  12.636  26.257   2.391
34009W        W 5538   9.005   9.547   2.905
34010W        W 5539  29.332  15.823  11.769
34011W        W 5540  31.334   6.956   2.338
34012W        W 5541  33.782   8.887  11.664
34013W        W 5542  14.931   8.723   2.345
34014W        W 5543   5.839  10.682  10.774
34015W        W 5544  17.726  34.999   1.697
34016W        W 5545   5.662  39.755   0.959
34017W        W 5546  40.795   3.335   0.259
34018W        W 5547  26.019  12.647  10.608
34019W        W 5548  42.947   0.661   1.478
34020W        W 5549   5.208  17.025  13.505
34021W        W 5550  44.870  35.413  12.460
34022W        W 5551  25.567   9.284  12.937
34023W        W 5552  35.918  21.707  12.811
34024W        W 5553  22.525  36.096  12.032
34025W        W 5554  10.691   6.879   4.726
34026W        W 5555   4.939  21.589   0.810
34027W        W 5556  10.700  13.943   2.920
34028W        W 5557  44.476  30.106   2.363
34029W        W 5558  29.597  18.131   4.590
34030W        W 5559  17.990   9.292   0.284
34031W        W 5560  11.860   9.090   2.272
34032W        W 5561   9.793  41.278  11.892
34033W        W 5562   4.364  41.513  10.967
34034W        W 5563  40.535  14.604   4.842
34035W        W 5564   4.017   7.880   3.651
34036W        W 5565  24.757  10.839   4.744
34037W        W 5566  37.053  31.908  12.826
34038W        W 5567   6.488  18.812  11.904
34039W        W 5568   5.058  22.402   0.106
34040W        W 5569   3.933   0.107  11.413
34041W        W 5570  23.546  30.880   0.037
34042W        W 5571  44.394   4.738  11.455
34043W        W 5572   3.232  32.442   3.051
34044W        W 5573  23.345  20.113   3.866
34045W        W 5574  16.161  36.926  10.795
34046W        W 5575   4.358  27.499   2.142
34047W        W 5576  10.688  39.286   2.940
34048W        W 5577  17.855   7.107   2.878
34049W        W 5578  12.604  25.201  12.373
34050W        W 5579  25.141  21.873   2.883
34051W        W 5580  27.213  19.903  11.557
34052W        W 5581   5.306   8.253  10.644
34053W        W 5582   5.322  10.749   3.280
34054W        W 5583  41.386  12.975  12.450
34055W        W 5584  34.374  39.951  11.556
34056W        W 5585  35.513  15.227  10.813
34057W        W 5586   3.584  38.390   2.309
34058W        W 5587  28.568  28.379   2.866
34059W        W 5588  35.665  21.987   0.466
34060W        W 5589  25.973  44.984   4.755
34061W        W 5590   2.025  11.476  14.552
34062W        W 5591  15.049  43.515   3.767
34063W        W 5592   2.240  24.982  10.828
34064W        W 5593  25.184   3.067   4.560
34065W        W 5594   1.930   5.924   0.008
34066W        W 5595  16.054  34.619   2.580
34067W        W 5596  44.467  37.616   2.319
34068W        W 5597  15.099   1.436  12.943
34069W        W 5598  41.881  37.365   4.813
34070W        W 5599  26.343  42.866   1.909
34071W        W 5600  19.978  14.021   3.216
34072W        W 5601  23.795  28.957  14.796
34073W        W 5602  41.115   7.349  11.051
34074W        W 5603  43.550  20.175  12.827
34075W        W 5604  34.378  15.640  14.812
34076W        W 5605  30.190   2.855  12.319
34077W        W 5606   4.074  22.622  12.549
34078W        W 5607   3.682  12.913   1.201
34079W        W 5608   0.263  28.541  12.179
34080W        W 5609   9.273  36.867   4.582
34081W        W 5610  24.265  35.056  13.919
34082W        W 5611  23.466   2.287   0.074
34083W        W 5612  30.730  12.396   1.279
34084W        W 5613  35.401  36.140   4.894
34085W        W 5614  34.935   0.610  14.807
34086W        W 5615  32.584  20.605  10.930
34087W        W 5616  43.370  25.261  12.066
34088W        W 5617  12.213   6.165  12.982
34089W        W 5618  29.468  21.728  11.553
34090W        W 5619   0.322  42.203   2.239
34091W        W 5620  34.572  36.518   4.749
34092W        W 5621  43.557  30.092   4.069
34093W        W 5622   7.230  26.700   1.349
34094W        W 5623   9.484   2.464   4.124
34095W        W 5624   1.239  35.853  10.572
34096W        W 5625  10.692  31.141  11.170
34097W        W 5626   9.122   1.243  14.369
34098W        W 5627  38.449   0.498   1.218
34099W        W 5628  19.615  18.143  11.604
34100W        W 5629  18.071  19.363  11.956
34101W        W 5630  19.215  10.092   1.366
34102W        W 5631   1.246   2.790   4.235
34103W        W 5632   6.466  43.635  11.316
34104W        W 5633  28.071  32.054  13.932
34105W        W 5634  29.487   2.479  13.535
34106W        W 5635  33.298  41.384   0.304
34107W        W 5636  17.750  12.786   4.708
34108W        W 5637  14.775  17.676   2.411
34109W        W 5638  11.972  15.342   0.809
34110W        W 5639  26.972  43.478  11.968
34111W        W 5640  36.367  10.231   4.121
34112W        W 5641  31.181  28.401   0.469
34113W        W 5642  18.652   0.426   1.901
34114W        W 5643  42.854  11.469   5.109
34115W        W 5644  10.654  29.535   0.951
34116W        W 5645  43.990  33.466  10.524
34117W        W 5646  38.097   3.693  12.901
34118W        W 5647  44.775   1.340  13.440
34119W        W 5648  44.819  16.074  10.767
34120W        W 5649  25.047  19.762   0.979
34121W        W 5650   5.969   6.291  11.252
34122W        W 5651  35.453  15.093   2.280
34123W        W 5652  29.201  39.379   4.316
34124W        W 5653  10.224  44.337  14.811
34125W        W 5654  33.000   0.238  12.390
34126W        W 5655  40.515   8.374  12.047
34127W        W 5656   4.188  27.885  14.280
34128W        W 5657  43.469  13.307  12.881
34129W        W 5658  38.097  40.349   4.541
34130W        W 5659  23.720  40.757  13.353
34131W        W 5660  30.652   9.483   5.112
34132W        W 5661   4.898  30.922   4.469
34133W        W 5662  33.420  43.802  10.613
34134W        W 5663  40.661   8.670   4.934
34135W        W 5664  26.362  22.880  12.504
34136W        W 5665  23.241  17.146   0.320
34137W        W 5666  41.601  26.244   3.769
34138W        W 5667  18.941  10.068   2.722
34139W        W 5668  19.094  11.753   4.114
34140W        W 5669  41.528  13.443  12.664
34141W        W 5670   0.811  40.064  14.758
34142W        W 5671   8.199   8.443   2.552
34143W        W 5672  15.010   0.002  14.420
34144W        W 5673  35.392  23.151  13.165
34145W        W 5674  24.665  36.921  13.843
34146W        W 5675   3.719   0.961   4.504
34147W        W 5676   8.673  42.817   2.292
34148W        W 5677  42.878  40.288   0.258
34149W        W 5678  35.434  17.577  12.299
34150W        W 5679  14.709  14.190   1.694
34151W        W 5680   2.393  29.599  13.642
34152W        W 5681  29.501   3.137  13.996
34153W        W 5682  23.790  33.540  12.689
34154W        W 5683   4.760  23.076  14.299
34155W        W 5684  23.659   0.323   2.906
34156W        W 5685  41.806  40.294   4.199
34157W        W 5686  19.989  19.277  14.943
34158W        W 5687   0.555  31.099   2.004
34159W        W 5688  27.280  29.357   4.441
34160W        W 5689  23.266  16.738  14.594
34161W        W 5690  34.112   9.869  11.530
34162W        W 5691  17.628  19.069   1.861
34163W        W 5692  28.082  15.695   1.680
34164W        W 5693   6.405  24.242  12.031
34165W        W 5694  43.449  25.131   2.351
34166W        W 5695  24.194  24.890  13.056
34167W        W 5696  24.010   6.375   0.691
34168W        W 5697  15.248   2.573   1.263
34169W        W 5698  32.042  39.856  13.203
34170W        W 5699  34.657  16.843   2.200
34171W        W 5700  31.493   6.435  12.952
34172W        W 5701  28.525  12.072   1.371
34173W        W 5702  40.584  30.525   1.769
34174W        W 5703  15.993  41.521  11.399
34175W        W 5704   1.852   8.253  13.378
34176W        W 5705  21.100  23.101  11.753
34177W        W 5706  41.455  41.779   2.838
34178W        W 5707   6.179  18.745   4.022
34179W        W 5708  31.529   4.010  13.957
34180W        W 5709   8.296   7.426   0.949
34181W        W 5710   5.013  44.337  12.115
34182W        W 5711  10.608  11.227   0.428
34183W        W 5712  21.031  26.558   3.227
34184W        W 5713  13.501  34.274  11.183
34185W        W 5714  11.375   5.756  11.586
34186W        W 5715  44.912  19.283  11.636
34187W        W 5716  16.014  39.497   1.920
34188W        W 5717  22.686  22.035   1.336
34189W        W 5718  34.101  33.345   1.909
34190W        W 5719  29.147  21.446  14.328
34191W        W 5720  13.619  24.699   4.204
34192W        W 5721  11.707  44.328  12.961
34193W        W 5722  13.893  25.921   3.132
34194W        W 5723  34.123  38.535   4.696
34195W        W 5724  37.629  23.034   2.208
34196W        W 5725   6.506   7.462  14.357
34197W        W 5726  19.237  18.700  10.517
34198W        W 5727  32.390  35.520   4.252
34199W        W 5728  44.785  37.622   1.918
34200W        W 5729  27.587  15.827  10.421
34201W        W 5730  21.813  28.888   1.707
34202W        W 5731   7.328   9.749  11.246
34203W        W 5732  22.435   0.275   2.343
34204W        W 5733   6.071   1.930   4.172
34205W        W 5734  32.579  44.349  10.690
34206W        W 5735  33.106   0.934   1.898
34207W        W 5736   8.316   7.500  11.660
34208W        W 5737  17.240  26.638  12.575
34209W        W 5738  14.387  26.458  11.135
34210W        W 5739   1.372  21.736  14.562
34211W        W 5740   4.645  30.686  14.850
34212W        W 5741  25.787  35.307  13.085
34213W        W 5742  20.699  19.072   3.141
34214W        W 5743  17.136  32.542  11.656
34215W        W 5744  15.709  40.993   3.926
34216W        W 5745  40.844  33.564   0.040
34217W        W 5746  15.079  17.727   4.637
34218W        W 5747  35.370   0.554  13.962
34219W        W 5748   1.325   2.956  14.230
34220W        W 5749  33.141  11.176  14.669
34221W        W 5750   0.919  39.902   1.627
34222W        W 5751  41.098  16.096  10.599
34223W        W 5752  13.541  28.099  12.910
34224W        W 5753  19.782  12.117   0.934
34225W        W 5754  44.909  41.907   0.198
34226W        W 5755  38.090  32.253  13.376
34227W        W 5756  17.898  25.926   1.239
34228W        W 5757   4.917  25.965   1.491
34229W        W 5758   9.496  16.697   4.771
34230W        W 5759  33.791  22.530  11.232
34231W        W 5760   6.365   0.880  12.044
34232W        W 5761  36.000  36.950   3.761
34233W        W 5762  21.081  41.353   2.909
34234W        W 5763   5.912  37.954   4.680
34235W        W 5764  41.839  11.376   0.459
34236W        W 5765  14.047  25.297  12.887
34237W        W 5766  14.375  11.063   2.386
34238W        W 5767  36.565  36.808   1.329
34239W        W 5768  17.423  19.461  11.031
34240W        W 5769  40.994  16.691  13.791
34241W        W 5770  27.034   1.034   4.583
34242W        W 5771  33.085  38.568   0.209
34243W        W 5772  41.441  22.025   1.969
34244W        W 5773   9.398   3.663   1.327
34245W        W 5774  27.485   3.243   3.247
34246W        W 5775  42.836  39.982  14.834
34247W        W 5776  17.257  40.015   0.007
34248W        W 5777   8.206  31.582  11.031
34249W        W 5778   4.444  16.592   9.749
34250W        W 5779  31.686   6.380  13.784
34251W        W 5780   1.051  31.337  14.337
34252W        W 5781  37.950  16.261   2.184
34253W        W 5782   9.796  43.281  11.152
34254W        W 5783  17.518  27.107  10.590
34255W        W 5784   0.649   1.827  12.160
34256W        W 5785   9.164  21.737  12.542
34257W        W 5786  21.536   4.756  13.728
34258W        W 5787   6.174   3.379   2.771
34259W        W 5788  26.987   5.277  11.437
34260W        W 5789   7.437   5.979   3.595
34261W        W 5790   0.350  44.515  13.924
34262W        W 5791   9.606  26.972   0.033
34263W        W 5792  43.242  22.217  11.151
34264W        W 5793  12.597  13.328  13.105
34265W        W 5794  19.795  31.989   0.938
34266W        W 5795  38.847  33.498   2.006
34267W        W 5796  22.715  34.483   4.560
34268W        W 5797  34.868  31.784   3.588
34269W        W 5798  14.100  42.601   2.836
34270W        W 5799  13.901  40.053  11.272
34271W        W 5800  24.353  19.019   0.376
34272W        W 5801   1.748   6.970  13.868
34273W        W 5802  41.889  32.108  13.926
34274W        W 5803   9.768  38.995   3.439
34275W        W 5804   3.407  12.222   4.476
34276W        W 5805   4.660  34.736  12.744
34277W        W 5806  32.044   6.845   1.380
34278W        W 5807  28.042  27.098  10.637
34279W        W 5808  13.840  33.117   3.627
34280W        W 5809   3.753  32.585  10.513
34281W        W 5810  39.471  43.457  12.645
34282W        W 5811  23.577  32.573   0.398
34283W        W 5812  16.253  24.878   2.951
34284W        W 5813  44.818  16.887   2.015
34285W        W 5814  31.650   6.657   3.322
34286W        W 5815  39.522   0.293   1.781
34287W        W 5816   2.453   6.701  10.834
34288W        W 5817  44.483   7.179   0.261
34289W        W 5818   0.309  10.153   1.290
34290W        W 5819   8.246  20.270  10.343
34291W        W 5820  19.054  43.313  12.190
34292W        W 5821  17.583  28.613   4.091
34293W        W 5822  20.354  39.983   1.673
34294W        W 5823   6.900  24.190  14.487
34295W        W 5824  25.310  32.585   2.248
34296W        W 5825  29.163  36.074   1.380
34297W        W 5826  21.343  44.883   4.671
34298W        W 5827  11.215  44.243   3.623
34299W        W 5828   7.178  44.339   0.871
34300W        W 5829  40.517  18.350  10.958
34301W        W 5830  42.662   7.451  10.386
34302W        W 5831  37.703  14.180  14.430
34303W        W 5832  29.979  22.116  12.295
34304W        W 5833   2.879  13.752   2.619
34305W        W 5834  37.657  36.924   3.755
34306W        W 5835   2.203  33.918   2.757
34307W        W 5836  14.322  40.152  13.600
34308W        W 5837  23.280   2.777  11.589
34309W        W 5838   9.202  17.410   0.494
34310W        W 5839  39.362  31.120   0.620
34311W        W 5840  38.461  10.126  14.019
34312W        W 5841  27.097   3.505   4.153
34313W        W 5842   9.258  12.995   1.932
34314W        W 5843  41.358  18.251   1.767
34315W        W 5844  25.110  22.467  13.940
34316W        W 5845  37.531  27.705   1.188
34317W        W 5846  20.727   9.783  11.090
34318W        W 5847   9.661  17.284   1.317
34319W        W 5848  29.633   0.716   1.860
34320W        W 5849  39.339  32.396   0.362
34321W        W 5850  40.339  22.831  13.884
34322W        W 5851  27.650  26.830   0.817
34323W        W 5852   3.926  18.359  14.319
34324W        W 5853  33.321   4.505   3.446
34325W        W 5854  25.722   7.593  12.035
34326W        W 5855   1.711  14.653   3.684
34327W        W 5856  25.742  13.745  14.890
34328W        W 5857   8.258  37.786   3.294
34329W        W 5858  11.193  38.159  10.379
34330W        W 5859  13.889  18.142  10.690
34331W        W 5860  18.335  42.307   1.685
34332W        W 5861  38.830  34.560  10.053
34333W        W 5862  10.615  10.822  14.838
34334W        W 5863  37.463  26.429  10.562
34335W        W 5864  19.581  38.959   9.804
34336W        W 5865   3.387  35.568  12.986
34337W        W 5866  18.667   2.040   3.775
34338W        W 5867  36.572  25.704   4.966
34339W        W 5868  29.722  17.066  14.303
34340W        W 5869   4.270  30.546  13.979
34341W        W 5870  36.075  40.438  14.372
34342W        W 5871   9.295  38.577   4.194
34343W        W 5872  11.274   4.734   1.985
34344W        W 5873  12.644  39.454  14.372
34345W        W 5874  36.862  26.315  14.174
34346W        W 5875  40.332  28.595  14.541
34347W        W 5876  10.560  20.091   4.478
34348W        W 5877  25.737  28.973   3.614
34349W        W 5878  15.517  23.662  12.080
34350W        W 5879  27.861   0.409  14.251
34351W        W 5880  36.358   4.296   1.669
34352W        W 5881   1.952   0.275  10.627
34353W        W 5882   9.267  35.080   2.227
34354W        W 5883  23.497  41.576  13.078
34355W        W 5884   1.040  37.004   4.563
34356W        W 5885  41.468  30.139   0.840
34357W        W 5886  24.980  40.681   4.980
34358W        W 5887   7.624  33.900   3.164
34359W        W 5888  15.918   5.310  13.045
34360W        W 5889  10.202   1.425   1.196
34361W        W 5890  14.659  10.693   3.713
34362W        W 5891  10.362  42.510   1.232
34363W        W 5892  37.944  38.312  14.407
34364W        W 5893  15.212  28.985   2.712
34365W        W 5894  20.237  12.763  12.926
34366W        W 5895  19.788   0.754   2.423
34367W        W 5896   1.229   1.950   3.802
34368W        W 5897  36.728  12.717  13.932
34369W        W 5898   5.398  40.631   1.203
34370W        W 5899  25.070  10.751  13.549
34371W        W 5900  17.392   1.213  14.902
34372W        W 5901  35.042   9.785   0.364
34373W        W 5902  22.594  27.689  10.601
34374W        W 5903  23.913  19.050  12.499
34375W        W 5904  37.954   5.372  13.971
34376W        W 5905  40.189  17.065  12.103
34377W        W 5906   8.876  18.306  11.041
34378W        W 5907   2.397  12.666   1.316
34379W        W 5908  15.019   7.344  10.683
34380W        W 5909  20.037  40.514  12.506
34381W        W 5910   3.225  40.514  14.358
34382W        W 5911  19.484  18.661  11.873
34383W        W 5912   4.775  11.201  11.415
34384W        W 5913  38.576  21.185   5.179
34385W        W 5914   8.127  41.802  14.825
34386W        W 5915  11.926  16.033   3.600
34387W        W 5916  35.599  22.882   0.344
34388W        W 5917  26.956  18.335   4.530
34389W        W 5918  27.829  17.609   0.985
34390W        W 5919  41.912  42.790  11.152
34391W        W 5920   8.405  15.718   3.731
34392W        W 5921  40.524  24.184  14.304
34393W        W 5922   0.138  34.622   0.228
34394W        W 5923  14.299  35.811   3.875
34395W        W 5924   8.846  19.686   0.313
34396W        W 5925  27.287  18.693  14.959
34397W        W 5926  21.583  41.301   1.587
34398W        W 5927  43.891  26.972   2.222
34399W        W 5928  25.128   4.695  13.858
34400W        W 5929  31.093   0.487   0.388
34401W        W 5930  26.746  26.009   0.905
34402W        W 5931  42.638   5.852  14.252
34403W        W 5932  12.885  16.016  14.912
34404W        W 5933  24.964  16.921   4.942
34405W        W 5934  40.949  33.876  12.050
34406W        W 5935  20.799  28.033   2.153
34407W        W 5936  20.769   2.583   3.266
34408W        W 5937   1.476  35.329  13.506
34409W        W 5938  32.521   0.716  12.806
34410W        W 5939  27.883  27.113   3.811
34411W        W 5940   0.322  42.502   3.622
34412W        W 5941  15.656  34.053  13.234
34413W        W 5942  26.937  38.495   1.651
34414W        W 5943  33.346  15.176   3.284
34415W        W 5944  14.057  14.376  13.499
34416W        W 5945  33.985   1.795   3.380
34417W        W 5946   3.460   4.341   2.171
34418W        W 5947  24.577  25.905  13.491
34419W        W 5948  31.087  23.693   1.223
34420W        W 5949   9.295  12.675   0.865
34421W        W 5950  14.299  11.798  14.806
34422W        W 5951  23.696  36.304   3.740
34423W        W 5952  35.567   9.771   0.292
34424W        W 5953  38.615   9.791   2.483
34425W        W 5954  27.968  11.583  14.374
34426W        W 5955  43.649  24.221   4.768
34427W        W 5956  18.255  21.404   0.482
34428W        W 5957   0.177  17.121   3.701
34429W        W 5958  19.529  22.700  14.039
34430W        W 5959   4.971  11.566   3.468
34431W        W 5960  36.873  23.536   4.469
34432W        W 5961   6.864  13.574   1.559
34433W        W 5962   3.488  25.592  10.740
34434W        W 5963  17.705   8.246   0.570
34435W        W 5964   7.635   2.911  13.424
34436W        W 5965  23.493  24.748  12.914
34437W        W 5966  43.269   3.198   2.808
34438W        W 5967  42.906  13.743   3.720
34439W        W 5968  14.655  32.920  13.097
34440W        W 5969   0.662  18.612  13.915
34441W        W 5970  37.428  35.947   3.607
34442W        W 5971  20.805  19.121  14.449
34443W        W 5972  22.686  15.202  13.897
34444W        W 5973  24.565  32.555   4.666
34445W        W 5974  29.572  12.778   4.311
34446W        W 5975  16.335  14.827   1.278
34447W        W 5976  14.098  10.053   4.930
34448W        W 5977  16.211  41.072   4.816
34449W        W 5978  21.117  25.612   3.168
34450W        W 5979  42.047  36.507  14.446
34451W        W 5980  37.329  12.782   0.804
34452W        W 5981  18.184  36.840   1.456
34453W        W 5982  11.205  37.947  13.105
34454W        W 5983  30.169   3.313   2.670
34455W        W 5984   5.946  18.312   3.843
34456W        W 5985  37.937   9.317   4.283
34457W        W 5986  33.972  30.024  12.975
34458W        W 5987  42.722  43.830  12.105
34459W        W 5988  12.555  28.007  12.883
34460W        W 5989  16.711  24.279  14.709
34461W        W 5990  11.815  13.865  14.602
34462W        W 5991  40.148  11.099   3.622
34463W        W 5992  43.676  24.180  12.896
34464W        W 5993  12.022   9.194  14.799
34465W        W 5994  17.881  26.564   2.868
34466W        W 5995  40.502  34.598  14.296
34467W        W 5996  39.089  36.913  12.902
34468W        W 5997   6.410  44.580  11.776
34469W        W 5998  38.859   5.486   4.376
34470W        W 5999  17.918   8.710   0.407
34471W        W 6000  15.029  24.897  11.557
34472W        W 6001   7.819  14.045  14.935
34473W        W 6002  23.402  36.505   2.737
34474W        W 6003   0.761  21.606   1.205
34475W        W 6004  13.615   9.466   1.005
34476W        W 6005   7.316  27.928  11.567
34477W        W 6006  30.078  25.597   3.392
34478W        W 6007   1.221  19.546   4.846
34479W        W 6008   5.388  16.117   1.817
34480W        W 6009   5.394  32.231   3.115
34481W        W 6010   8.341  15.268   4.060
34482W        W 6011  23.783  25.523  14.940
34483W        W 6012  43.800  42.213   0.546
34484W        W 6013  20.559  43.916   4.565
34485W        W 6014  19.486  29.528  12.753
34486W        W 6015  41.319   8.724  13.362
34487W        W 6016  24.259  23.432  14.026
34488W        W 6017  25.205  40.262   1.391
34489W        W 6018  27.749  38.875   2.120
34490W        W 6019   8.281  17.095   4.655
34491W        W 6020  13.790  15.288  12.076
34492W        W 6021  21.610  32.082   2.740
34493W        W 6022  10.675  34.670  11.284
34494W        W 6023  21.833  34.432   0.028
34495W        W 6024   6.118  17.138   1.782
34496W        W 6025  33.122   3.264   2.509
34497W        W 6026  42.981  30.408  13.411
34498W        W 6027  24.680  25.697  12.154
34499W        W 6028  22.496   8.438  11.810
34500W        W 6029   5.134  25.661  11.153
34501W        W 6030  35.564  42.889  10.650
34502W        W 6031  15.833   6.634   1.931
34503W        W 6032  38.442  14.432   1.625
34504W        W 6033  28.961  33.608  12.829
34505W        W 6034  21.637  25.606  14.505
34506W        W 6035  37.402   1.760   2.274
34507W        W 6036  17.523  11.147  13.347
34508W        W 6037  11.823  43.312  13.854
34509W        W 6038  17.159  15.897  13.860
34510W        W 6039  23.533  20.153   2.280
34511W        W 6040   8.418  10.253  13.989
34512W        W 6041  25.110  32.529  12.925
34513W        W 6042  34.983  30.458   0.836
34514W        W 6043  10.193   5.007  11.829
34515W        W 6044  21.052   5.839   4.913
34516W        W 6045   1.413  33.232  11.151
34517W        W 6046  38.781  10.135   1.704
34518W        W 6047   3.278  19.731  14.465
34519W        W 6048  32.561  18.243   4.857
34520W        W 6049  30.084  37.950   2.184
34521W        W 6050  24.762  41.463   0.076
34522W        W 6051  13.114   7.157   1.754
34523W        W 6052  32.065  39.651  14.614
34524W        W 6053  25.327  40.266  12.516
34525W        W 6054   5.803   1.827  12.064
34526W        W 6055  25.702  13.121   0.418
34527W        W 6056  26.413  43.124   2.816
34528W        W 6057  40.521  10.082  10.332
34529W        W 6058  39.392   1.371  10.597
34530W        W 6059  36.280  33.809   2.316
34531W        W 6060   7.924  26.175  14.610
34532W        W 6061  40.335  37.021  10.285
34533W        W 6062   2.518  20.144  11.558
34534W        W 6063  14.029  37.259   1.790
34535W        W 6064  22.269  41.319  11.112
34536W        W 6065  16.590  39.989   3.821
34537W        W 6066   2.728  33.145   2.668
34538W        W 6067  26.240  28.711  11.507
34539W        W 6068  21.730  43.052  13.821
34540W        W 6069  24.098  10.092   3.984
34541W        W 6070  36.410  31.319  11.331
34542W        W 6071   8.370  44.602  11.548
34543W        W 6072  33.967  33.041   0.442
34544W        W 6073   5.339  27.485  14.743
34545W        W 6074  12.228  21.312  11.062
34546W        W 6075  26.515  39.940   3.016
34547W        W 6076  25.665  24.897   3.285
34548W        W 6077  37.990  14.103   4.990
34549W        W 6078   3.006  14.128  11.380
34550W        W 6079  27.806  40.846   4.518
34551W        W 6080  38.425   3.844  10.675
34552W        W 6081  40.349  20.655  12.516
34553W        W 6082  20.931  37.973   2.303
34554W        W 6083  11.637  15.897   3.164
34555W        W 6084   1.395   2.457   1.908
34556W        W 6085  42.980  26.660  10.451
34557W        W 6086  32.441  34.550  12.181
34558W        W 6087  40.523  43.372  13.974
34559W        W 6088   4.747   8.264   3.256
34560W        W 6089  20.258  14.722  11.673
34561W        W 6090  37.592   3.857   2.379
34562W        W 6091   1.019  27.052  13.492
34563W        W 6092   1.173   1.405  11.486
34564W        W 6093  27.523  37.495  10.541
34565W        W 6094  27.105  18.710  11.646
34566W        W 6095  40.948   5.570  12.017
34567W        W 6096   5.182  16.605   1.778
34568W        W 6097  16.143  11.174   3.766
34569W        W 6098   8.646  10.741   2.681
34570W        W 6099  11.593  23.066  14.830
34571W        W 6100  42.005  25.360  13.817
34572W        W 6101  43.855  17.719   1.240
34573W        W 6102  15.633   1.771   3.369
34574W        W 6103  18.530  29.527  12.350
34575W        W 6104  12.296   2.467  11.208
34576W        W 6105  13.695  38.597  12.960
34577W        W 6106  37.118  10.714  13.136
34578W        W 6107   1.578   7.856   0.003
34579W        W 6108  24.210  38.764  12.063
34580W        W 6109  13.644  38.056  14.321
34581W        W 6110   5.740  38.665  13.511
34582W        W 6111  13.728  26.556   2.372
34583W        W 6112   8.063  22.267   1.852
34584W        W 6113  15.330   6.422  14.065
34585W        W 6114  42.041  30.605   4.160
34586W        W 6115  11.456   7.191   2.267
34587W        W 6116  17.136  26.915   3.248
34588W        W 6117   8.943  20.566  14.021
34589W        W 6118  25.485  43.234   1.827
34590W        W 6119  33.570  39.805  10.040
34591W        W 6120  43.434  24.522  14.837
34592W        W 6121   3.003  12.507  13.417
34593W        W 6122  35.073  41.841   1.237
34594W        W 6123  36.514  40.946  12.942
34595W        W 6124   7.523  19.686   1.963
34596W        W 6125  42.286  30.442  11.213
34597W        W 6126  33.048  13.632  10.446
34598W        W 6127  42.399  10.746   1.919
34599W        W 6128  24.191  37.986   3.426
34600W        W 6129   6.260   0.088   4.235
34601W        W 6130  26.466  30.033  13.377
34602W        W 6131  37.034  13.587   1.718
34603W        W 6132  43.731  30.233   0.715
34604W        W 6133  38.474  13.532   3.951
34605W        W 6134  12.066  37.941  12.566
34606W        W 6135  28.897  36.915  12.144
34607W        W 6136  15.006  36.070  12.092
34608W        W 6137  22.243  28.696  13.534
34609W        W 6138  35.096  18.591   0.411
34610W        W 6139   5.259   8.686  11.957
34611W        W 6140  43.561  41.825  11.602
34612W        W 6141  24.328   9.441  11.698
34613W        W 6142   7.357  10.332  14.925
34614W        W 6143   1.499  23.560  11.615
34615W        W 6144   0.395   2.848   3.206
34616W        W 6145  41.531  16.992  10.570
34617W        W 6146  42.263  13.276  13.058
34618W        W 6147  38.608  26.049   4.181
34619W        W 6148  18.285  39.441  14.794
34620W        W 6149  36.425   2.072  12.580
34621W        W 6150  34.270  14.308   4.479
34622W        W 6151  14.607  35.546   0.660
34623W        W 6152   0.234  31.866   4.304
34624W        W 6153  34.964  37.419   2.031
34625W        W 6154  33.350  20.362   3.898
34626W        W 6155  28.037   3.826   4.489
34627W        W 6156   9.484  10.348   0.726
34628W        W 6157  33.827  25.476  11.243
34629W        W 6158  14.644   7.600   1.832
34630W        W 6159   5.862   5.173  13.569
34631W        W 6160  16.281   5.830  14.584
34632W        W 6161  38.999   0.177  12.600
34633W        W 6162  21.699  27.090  14.502
34634W        W 6163  20.383  20.186   4.288
34635W        W 6164   8.286  19.084   4.219
34636W        W 6165  34.845  34.449  13.266
34637W        W 6166  14.402  25.209  10.578
34638W        W 6167  24.969   5.172  12.516
34639W        W 6168  25.030  11.485  13.014
34640W        W 6169  33.047  28.714   2.191
34641W        W 6170  42.667  41.429  13.114
34642W        W 6171  34.593   9.144   1.766
34643W        W 6172   0.302  36.790  14.931
34644W        W 6173   7.762  12.964   3.116
34645W        W 6174  36.477   7.225  12.884
34646W        W 6175  34.740   5.836   3.289
34647W        W 6176  21.602  11.218   3.891
34648W        W 6177  10.187  15.849   2.073
34649W        W 6178  23.255  11.681   4.741
34650W        W 6179   1.378  22.451  12.887
34651W        W 6180  14.133  39.643   2.904
34652W        W 6181  39.514  13.863  11.928
34653W        W 6182   2.990   5.653   4.871
34654W        W 6183  21.946  44.338  11.170
34655W        W 6184  43.360  14.280   2.210
34656W        W 6185   5.803  44.286  14.142
34657W        W 6186  40.933  30.538  12.833
34658W        W 6187   2.651  30.113   0.778
34659W        W 6188  42.299   3.366   2.827
34660W        W 6189  44.569  14.700   4.573
34661W        W 6190  22.575   9.582  11.119
34662W        W 6191  26.878  34.982   1.999
34663W        W 6192  17.501   7.223  10.805
34664W        W 6193  27.354  12.078  14.018
34665W        W 6194  24.177  13.544   4.612
34666W        W 6195  23.483  37.069   4.814
34667W        W 6196  29.401  42.233   3.817
34668W        W 6197  23.741   3.499   0.669
34669W        W 6198  37.971  17.200   3.080
34670W        W 6199  28.571   4.183   3.146
34671W        W 6200   2.877  39.726  10.622
34672W        W 6201  30.600  35.745   4.556
34673W        W 6202  12.677  34.639   2.176
34674W        W 6203  11.221  26.671   1.764
34675W        W 6204  22.690  18.068  13.077
34676W        W 6205  40.554   7.428   4.532
34677W        W 6206  34.890  39.877  11.556
34678W        W 6207  25.962  12.774   1.899
34679W        W 6208  10.146  40.326  13.569
34680W        W 6209  39.856  38.462   3.174
34681W        W 6210  32.508  23.068   1.746
34682W        W 6211  31.647  19.635   1.206
34683W        W 6212  43.328  18.094  11.420
34684W        W 6213   0.715   8.506  13.891
34685W        W 6214  40.990   6.684   4.081
34686W        W 6215  16.183  34.597   4.541
34687W        W 6216  17.169  38.329  14.380
34688W        W 6217  35.457  21.763  14.386
34689W        W 6218  39.986  43.007  11.608
34690W        W 6219   8.746   7.324  13.035
34691W        W 6220  10.145   1.996  11.905
34692W        W 6221  17.974  13.161  11.168
34693W        W 6222  17.150  11.832  11.043
34694W        W 6223  41.783   2.731   3.419
34695W        W 6224  39.315  30.560  11.414
34696W        W 6225   2.872  13.614  12.589
34697W        W 6226  28.429   0.855   2.696
34698W        W 6227  42.466  16.580   2.615
34699W        W 6228  44.636  15.150   1.547
34700W        W 6229  39.230  44.382  13.565
34701W        W 6230  15.301  39.382   4.062
34702W        W 6231  27.094  28.148   4.165
34703W        W 6232  13.537   5.574   4.097
34704W        W 6233   1.951  15.455   4.963
34705W        W 6234  44.578  18.056   1.293
34706W        W 6235  27.382  29.176  14.950
34707W        W 6236  24.188   0.537  13.426
34708W        W 6237   5.398  43.040  13.154
34709W        W 6238  15.638  36.615  13.523
34710W        W 6239  16.659  31.588  12.789
34711W        W 6240  34.410   6.752   0.233
34712W        W 6241   1.307  37.604  12.531
34713W        W 6242  21.599   8.524   1.325
34714W        W 6243  35.361  36.779  11.257
34715W        W 6244   5.218  20.299  13.877
34716W        W 6245  42.812  36.513  13.783
34717W        W 6246   0.371  15.295   1.259
34718W        W 6247  13.258   9.342  14.378
34719W        W 6248  17.106   9.481   2.749
34720W        W 6249  34.452  42.076  11.348
34721W        W 6250   9.316  23.547  11.865
34722W        W 6251   4.609   0.047  10.559
34723W        W 6252  43.091   7.835   4.686
34724W        W 6253  37.544  31.278   4.521
34725W        W 6254  11.729   4.996   2.002
34726W        W 6255  43.878   3.785   1.305
34727W        W 6256  31.371  16.687  11.012
34728W        W 6257  42.578  29.429  11.182
34729W        W 6258  35.775  34.343  11.218
34730W        W 6259  36.451  11.285   1.194
34731W        W 6260  43.961  37.937   4.857
34732W        W 6261  26.873   2.157   2.727
34733W        W 6262   5.228  42.549  13.074
34734W        W 6263  22.706   1.778  12.422
34735W        W 6264  33.860  23.494  12.061
34736W        W 6265   1.678  11.835  11.415
34737W        W 6266   8.644  43.855   2.467
34738W        W 6267  10.094  41.358  13.047
34739W        W 6268  37.931  15.333   0.638
34740W        W 6269  43.959  32.428  13.151
34741W        W 6270  10.398  21.626   3.662
34742W        W 6271   8.659  28.728  11.721
34743W        W 6272  14.844  19.793  14.770
34744W        W 6273   9.298  21.288   4.425
34745W        W 6274  25.317  20.330  12.583
34746W        W 6275   9.840  22.568   1.920
34747W        W 6276  23.590  24.210   1.715
34748W        W 6277  41.492  23.014  14.806
34749W        W 6278  43.328  20.058   3.637
34750W        W 6279  10.940  12.113  12.133
34751W        W 6280  10.467  36.839   3.774
34752W        W 6281  17.984   4.749   4.735
34753W        W 6282  24.483  36.218  12.669
34754W        W 6283  23.702   2.972  13.348
34755W        W 6284  42.438  33.370   2.759
34756W        W 6285  39.700   6.312  14.014
34757W        W 6286  13.080  35.774  10.815
34758W        W 6287   3.502  19.571  12.488
34759W        W 6288  29.711   3.208  11.203
34760W        W 6289  11.142  16.137  13.658
34761W        W 6290  16.562  12.669  14.453
34762W        W 6291   5.979  20.101  14.932
34763W        W 6292  27.205   6.804  10.612
34764W        W 6293   9.107   4.197  13.236
34765W        W 6294  40.610  19.650  10.635
34766W        W 6295  44.188  17.574   2.892
34767W        W 6296  11.415  14.160  13.583
34768W        W 6297  30.734  23.641  12.728
34769W        W 6298  12.212   7.876   2.426
34770W        W 6299  31.687  13.523   5.033
34771W        W 6300  18.378  26.575   2.956
34772W        W 6301   5.364   8.935  12.926
34773W        W 6302  17.600  42.984   4.700
34774W        W 6303  14.621  36.188  11.705
34775W        W 6304  37.759  35.973   3.188
34776W        W 6305   8.105  29.419  11.624
34777W        W 6306  39.997  14.122   0.008
34778W        W 6307  34.540  44.656  12.059
34779W        W 6308   4.728  43.172  12.198
34780W        W 6309  27.268   8.361  12.360
34781W        W 6310  13.765  29.788  11.995
34782W        W 6311  30.143  41.320  10.643
34783W        W 6312  17.360   7.326  14.255
34784W        W 6313  15.208  10.563  12.926
34785W        W 6314  19.666  14.559   0.796
34786W        W 6315  39.832   0.808  11.581
34787W        W 6316  12.581   0.944  12.663
34788W        W 6317  31.823   2.297   2.822
34789W        W 6318  22.515  33.166   4.574
34790W        W 6319  12.755  36.709  12.132
34791W        W 6320  23.454   2.295  10.642
34792W        W 6321   8.986  43.353  12.777
34793W        W 6322  26.950  36.237   1.374
34794W        W 6323  33.588  29.638  11.635
34795W        W 6324  39.140  25.715   0.009
34796W        W 6325   3.427  12.425  11.985
34797W        W 6326  38.940  10.303  12.465
34798W        W 6327  29.458  19.552   4.943
34799W        W 6328  19.567  31.659   4.796
34800W        W 6329  16.642   3.700  13.959
34801W        W 6330  34.521   6.276   1.963
34802W        W 6331  27.244  22.913  13.089
34803W        W 6332  21.043  39.413  12.122
34804W        W 6333   4.303  23.055   1.235
34805W        W 6334   0.156  37.955   1.421
34806W        W 6335  13.838   1.839   1.372
34807W        W 6336   1.746   1.713   2.751
34808W        W 6337   2.275  31.672  11.977
34809W        W 6338  25.570   9.928   1.649
34810W        W 6339   9.378  11.640  12.705
34811W        W 6340  25.594   8.979  12.498
34812W        W 6341  10.423  20.627  11.491
34813W        W 6342  31.904  26.255  11.692
34814W        W 6343  43.826  11.932  13.435
34815W        W 6344  35.591  37.495   4.435
34816W        W 6345  17.166  29.895  12.953
34817W        W 6346  41.546   8.976  11.990
34818W        W 6347  41.750  14.165  11.960
34819W        W 6348   7.245  13.758  11.647
34820W        W 6349  23.179  41.586   4.380
34821W        W 6350  13.119   7.117   3.589
34822W        W 6351  33.028  15.858  10.538
34823W        W 6352  31.633  17.221  13.009
34824W        W 6353   2.826  36.100  12.224
34825W        W 6354  10.894  44.965  12.884
34826W        W 6355  12.645  22.675   0.785
34827W        W 6356  38.251   9.340   3.331
34828W        W 6357  17.035   6.958  13.323
34829W        W 6358  44.547   4.109   0.750
34830W        W 6359  15.241  34.093  11.113
34831W        W 6360  10.779  13.445   2.896
34832W        W 6361  38.161  19.507  13.817
34833W        W 6362  29.372  33.111  11.085
34834W        W 6363   7.994  41.532   2.636
34835W        W 6364  14.604   7.287   1.391
34836W        W 6365  38.558   0.090   0.735
34837W        W 6366  22.133   8.936   3.663
34838W        W 6367  12.815  17.336   2.193
34839W        W 6368   8.426   8.602   0.300
34840W        W 6369  11.302   8.006   2.789
34841W        W 6370   9.602   4.909  13.665
34842W        W 6371  17.586  19.198  13.096
34843W        W 6372  42.421  34.881   3.874
34844W        W 6373   7.505  22.744  10.742
34845W        W 6374  16.766  29.433   2.357
34846W        W 6375  41.518  42.789   0.931
34847W        W 6376   7.170  30.038  10.647
34848W        W 6377   8.488  13.221  10.661
34849W        W 6378  31.279  33.439   4.334
34850W        W 6379  12.310  14.639  13.342
34851W        W 6380   9.906  10.913   2.851
34852W        W 6381  27.437  27.601  12.875
34853W        W 6382  26.342  23.256   0.227
34854W        W 6383  41.602  14.661   4.829
34855W        W 6384   7.332   5.383   3.627
34856W        W 6385  37.105  27.662   3.018
34857W        W 6386   3.764  30.629  14.730
34858W        W 6387   9.423  15.207   4.168
34859W        W 6388  31.537  19.281   2.837
34860W        W 6389  29.128   1.234   0.680
34861W        W 6390  41.405   9.199   4.440
34862W        W 6391  39.607  26.478  13.301
34863W        W 6392  17.672   9.257   4.285
34864W        W 6393  39.259   9.810  11.744
34865W        W 6394  19.132  26.490   0.765
34866W        W 6395  18.384  12.367  10.825
34867W        W 6396  20.654   9.249   2.004
34868W        W 6397  43.036  37.036  12.459
34869W        W 6398  23.741  26.368   3.090
34870W        W 6399   9.125  26.597   2.266
34871W        W 6400  23.141   7.194   1.234
34872W        W 6401  35.029  41.561   2.665
34873W        W 6402  25.563   8.241  14.525
34874W        W 6403  18.246  26.256  11.878
34875W        W 6404  11.309   5.303  14.293
34876W        W 6405  36.334   5.778   1.889
34877W        W 6406  10.441  27.321   3.780
34878W        W 6407  32.424  30.505  11.679
34879W        W 6408  23.001   4.656   4.702
34880W        W 6409  23.464  40.890  12.508
34881W        W 6410   6.678   2.705   2.578
34882W        W 6411  33.864  39.974  11.510
34883W        W 6412   6.284  31.008   0.965
34884W        W 6413   5.665  14.757   2.392
34885W        W 6414  12.662  26.236  13.962
34886W        W 6415   8.264  35.946   0.330
34887W        W 6416  26.582   0.763   4.551
34888W        W 6417   6.770  27.168   1.311
34889W        W 6418  20.774  13.042   4.155
34890W        W 6419  34.549  37.120  13.584
34891W        W 6420  23.495   6.208   4.674
34892W        W 6421  44.593  43.524   2.780
34893W        W 6422   0.279  10.640   2.400
34894W        W 6423  22.566  17.543   1.652
34895W        W 6424  15.847   1.844   4.596
34896W        W 6425   8.846   6.866   4.405
34897W        W 6426  40.924  38.600  12.526
34898W        W 6427  13.113  32.091  12.488
34899W        W 6428  32.006  22.445   1.711
34900W        W 6429  44.236  31.975  14.408
34901W        W 6430   7.302  26.625  11.898
34902W        W 6431   4.793  16.381   0.596
34903W        W 6432  34.919  10.918   0.886
34904W        W 6433   9.921  34.926  13.934
34905W        W 6434   6.906  40.340   1.629
34906W        W 6435  10.917  44.943   0.901
34907W        W 6436  37.633  39.336  13.564
34908W        W 6437  39.477  19.309   4.295
34909W        W 6438  39.760  30.494   3.855
34910W        W 6439  10.665  31.100   3.400
34911W        W 6440  38.278  33.101  11.246
34912W        W 6441  28.876  20.596  14.880
34913W        W 6442  37.842  27.894  13.939
34914W        W 6443  42.507  14.743  13.403
34915W        W 6444  31.804   6.741   2.370
34916W        W 6445  33.975  17.625  11.567
34917W        W 6446  25.464  21.509  12.001
34918W        W 6447   5.195   4.508  12.683
34919W        W 6448  15.829  32.480  12.599
34920W        W 6449  16.814  43.290  11.101
34921W        W 6450  16.623  23.754   3.571
34922W        W 6451   9.115  24.129   4.710
34923W        W 6452  38.545   1.287   3.542
34924W        W 6453   2.497   7.286   3.781
34925W        W 6454  26.907   2.407   3.640
34926W        W 6455   9.385  22.096  11.622
34927W        W 6456  14.292  12.305   4.329
34928W        W 6457  37.987  27.603  13.533
34929W        W 6458  25.770   1.749   4.048
34930W        W 6459  29.920  12.577   0.954
34931W        W 6460  24.089  25.486   0.954
34932W        W 6461  32.325  12.351  13.650
34933W        W 6462  18.516  14.829  14.833
34934W        W 6463  33.041  39.979  10.703
34935W        W 6464  41.014   9.191   2.259
34936W        W 6465  40.635  31.649   3.709
34937W        W 6466   3.824  42.284   0.715
34938W        W 6467  14.551  42.563   2.596
34939W        W 6468  24.784  29.448   4.202
34940W        W 6469  17.834  34.770   1.232
34941W        W 6470  20.682  20.174  14.944
34942W        W 6471  28.745  12.099  12.571
34943W        W 6472   2.857  21.063   2.437
34944W        W 6473  29.387  33.446  10.693
34945W        W 6474  13.175  30.901   1.246
34946W        W 6475  18.207  27.920   5.606
34947W        W 6476  12.460  21.768   4.174
34948W        W 6477   1.200  32.923  11.932
34949W        W 6478  22.567   0.841  12.864
34950W        W 6479  40.913  34.238  11.193
34951W        W 6480  41.935  26.685   0.248
34952W        W 6481  13.146   3.749  13.015
34953W        W 6482  12.568  13.573   3.048
34954W        W 6483  41.997  19.773   0.527
34955W        W 6484   0.041   2.023  10.667
34956W        W 6485  37.139  23.976  13.910
34957W        W 6486  24.491   7.734  14.139
34958W        W 6487   9.415  27.550  13.118
34959W        W 6488  19.153  22.208   1.421
34960W        W 6489  27.880  38.556   1.680
34961W        W 6490  34.922   5.336  13.439
34962W        W 6491  28.301   4.691  10.705
34963W        W 6492   4.601  12.873  12.796
34964W        W 6493   3.048  42.179  12.060
34965W        W 6494  27.039  35.024   0.705
34966W        W 6495   0.834  12.219  12.795
34967W        W 6496   5.122  12.874  12.041
34968W        W 6497  11.381   0.813  10.687
34969W        W 6498  22.763  27.125   2.914
34970W        W 6499  38.089  19.830  14.968
34971W        W 6500  13.968  16.229   0.864
34972W        W 6501   2.280  17.633   1.297
34973W        W 6502  22.132  21.273  12.989
34974W        W 6503  33.825  22.032  12.030
34975W        W 6504  33.771  38.213  12.539
34976W        W 6505  12.585  10.257  11.086
34977W        W 6506  27.660  28.032  10.528
34978W        W 6507   0.033   4.972   2.910
34979W        W 6508  29.648   5.977  11.628
34980W        W 6509  10.892  25.249   0.912
34981W        W 6510  29.619  30.788  13.804
34982W        W 6511   4.337  27.690   4.266
34983W        W 6512   4.340  15.844  11.539
34984W        W 6513  40.511  26.906   0.766
34985W        W 6514   4.537  18.752   4.166
34986W        W 6515  44.422   7.754   1.283
34987W        W 6516  40.114   0.426  11.754
34988W        W 6517  29.941  25.369   0.667
34989W        W 6518  21.835  11.841   0.811
34990W        W 6519  19.209  30.920   0.330
34991W        W 6520   8.459  36.917  12.377
34992W        W 6521  44.061  30.495  12.541
34993W        W 6522  37.101  10.267   2.248
34994W        W 6523   8.465  19.740   3.838
34995W        W 6524  21.257  13.647  14.703
34996W        W 6525  29.913  22.654   4.773
34997W        W 6526  29.465  18.481   3.617
34998W        W 6527  33.489  22.928  10.973
34999W        W 6528  43.779  36.521   4.848
35000W        W 6529  34.922   5.955   3.791
35001W        W 6530  34.438  29.692  13.593
35002W        W 6531  42.262   4.288  10.991
35003W        W 6532  40.492  15.274  11.625
35004W        W 6533   7.297  44.739  14.436
35005W        W 6534  42.870   6.879   3.810
35006W        W 6535  42.480  15.633   3.695
35007W        W 6536  15.271  43.760   0.750
35008W        W 6537  17.317  21.227   0.086
35009W        W 6538  14.218  18.554  12.876
35010W        W 6539  10.301  30.459  14.378
35011W        W 6540  40.232  25.651   2.013
35012W        W 6541  10.257  36.749  11.932
35013W        W 6542   5.940  44.566   2.257
35014W        W 6543  35.322  35.457   4.240
35015W        W 6544  39.456  22.750   3.583
35016W        W 6545  19.663  43.462   2.683
35017W        W 6546  26.707  38.366   1.218
35018W        W 6547   7.131  26.146   2.287
35019W        W 6548  34.621  30.901  14.241
35020W        W 6549  12.162  14.409   0.268
35021W        W 6550  27.922  40.874   1.591
35022W        W 6551  12.436  44.898  11.566
35023W        W 6552  16.195  21.494   1.708
35024W        W 6553  33.180  12.487  10.964
35025W        W 6554  17.600  10.449   2.728
35026W        W 6555  20.590  29.393   1.432
35027W        W 6556   0.762  10.934  14.454
35028W        W 6557  24.376   3.179  11.099
35029W        W 6558  34.639  19.172  13.490
35030W        W 6559  35.325   3.552  10.936
35031W        W 6560  39.126  11.595  13.892
35032W        W 6561   6.315  19.653   0.694
35033W        W 6562  40.607  35.987  14.031
35034W        W 6563  25.037  28.479   3.228
35035W        W 6564  28.510  38.018  14.511
35036W        W 6565  23.459   4.018   0.043
35037W        W 6566  12.864   5.293  13.823
35038W        W 6567   8.755  22.382  14.161
35039W        W 6568  18.654  43.254   2.415
35040W        W 6569   6.608  18.996   3.627
35041W        W 6570  17.037  25.550   0.303
35042W        W 6571  41.443  16.702   2.765
35043W        W 6572  10.571  26.694   4.107
35044W        W 6573   0.342   6.777   0.721
35045W        W 6574  39.588  13.517   1.883
35046W        W 6575  38.207  36.923   4.224
35047W        W 6576  34.494  22.019   4.361
35048W        W 6577  18.319  17.698   1.915
35049W        W 6578  28.430  25.022  12.018
35050W        W 6579  42.297  15.636  13.014
35051W        W 6580  10.829  16.311   1.796
35052W        W 6581  44.592  34.911  14.921
35053W        W 6582  33.046   1.373  14.506
35054W        W 6583  25.606  30.142  10.647
35055W        W 6584  21.793  10.366  13.485
35056W        W 6585  35.853  29.846  11.078
35057W        W 6586  29.663  34.581   0.032
35058W        W 6587  10.175  10.236  12.961
35059W        W 6588   6.664   6.120  14.758
35060W        W 6589  39.418  33.191  13.529
35061W        W 6590  33.403  23.274  14.367
35062W        W 6591   8.358   7.129   2.729
35063W        W 6592  37.004  42.147   2.485
35064W        W 6593  33.496  20.239   4.648
35065W        W 6594  28.093  27.951  11.134
35066W        W 6595  43.725  17.653   0.426
35067W        W 6596  14.791  39.979  11.061
35068W        W 6597  38.408  30.175  11.174
35069W        W 6598   4.378  37.846   0.369
35070W        W 6599   9.075  17.663  13.316
35071W        W 6600  13.503  44.308   4.958
35072W        W 6601  36.948   8.843  11.532
35073W        W 6602   6.303  15.780   1.358
35074W        W 6603   2.794  44.523   2.860
35075W        W 6604  27.733  37.381   1.366
35076W        W 6605  30.215  20.186   3.581
35077W        W 6606  31.082  12.233   2.302
35078W        W 6607  40.827   5.824  13.912
35079W        W 6608  43.764   1.731  13.317
35080W        W 6609  26.693  11.363  10.647
35081W        W 6610   3.777   6.085  12.736
35082W        W 6611  16.817  12.624  11.198
35083W        W 6612   4.838   2.264   0.252
35084W        W 6613   9.162  36.599   0.377
35085W        W 6614  31.391  31.079   3.688
35086W        W 6615  15.372  37.477  14.374
35087W        W 6616  17.661  35.988   1.805
35088W        W 6617  22.134  36.491  11.537
35089W        W 6618  37.009   5.382   0.921
35090W        W 6619   7.771  27.112  13.797
35091W        W 6620  34.688  14.757   2.869
35092W        W 6621  21.579  43.329   1.024
35093W        W 6622  19.982   9.462  13.683
35094W        W 6623  30.275  29.386   0.737
35095W        W 6624  24.689  18.578   0.316
35096W        W 6625  13.285  15.180   1.190
35097W        W 6626   0.080  27.870  13.579
35098W        W 6627  39.349  22.770   0.904
35099W        W 6628  44.362  25.350  12.638
35100W        W 6629  31.014   9.693  14.311
35101W        W 6630  18.842  15.218   4.925
35102W        W 6631  14.575  27.460  12.951
35103W        W 6632  20.261  17.070   2.432
35104W        W 6633  26.991  33.958   1.823
35105W        W 6634  20.037  44.411   3.578
35106W        W 6635   1.833  12.359  14.248
35107W        W 6636  20.818  19.731  12.448
35108W        W 6637  26.711  43.168  13.538
35109W        W 6638   3.123  13.567  14.541
35110W        W 6639  11.626   7.448   4.084
35111W        W 6640   6.398  10.150  11.279
35112W        W 6641  15.736  34.897  11.889
35113W        W 6642   3.880  26.922   4.431
35114W        W 6643  14.832  23.041  10.774
35115W        W 6644  43.674  14.379   0.358
35116W        W 6645   1.456  36.872  12.103
35117W        W 6646  23.022   7.501  14.457
35118W        W 6647  35.134  18.768   4.587
35119W        W 6648  44.174  41.492   3.510
35120W        W 6649  36.525  29.161   4.507
35121W        W 6650   4.343  11.617  10.298
35122W        W 6651  21.193  21.206   3.599
35123W        W 6652  13.893   5.256  12.965
35124W        W 6653  37.422  35.441   3.827
35125W        W 6654  21.514  12.579   4.177
35126W        W 6655  41.706  33.417   3.355
35127W        W 6656  23.683  40.774   3.269
35128W        W 6657  40.886  43.201  13.265
35129W        W 6658  14.078   3.348   0.864
35130W        W 6659  23.130  18.035  13.344
35131W        W 6660  33.023  38.690   1.275
35132W        W 6661  22.818  26.489  14.898
35133W        W 6662  39.141  11.349  13.379
35134W        W 6663  26.412   3.346  14.265
35135W        W 6664  23.064  33.544   2.168
35136W        W 6665  17.031   7.720  11.591
35137W        W 6666  28.578  44.066   4.599
35138W        W 6667  22.148  25.124   0.757
35139W        W 6668  24.617  41.350   3.729
35140W        W 6669  30.298  33.654  14.436
35141W        W 6670  22.942  22.025   3.638
35142W        W 6671  13.988   5.433   0.905
35143W        W 6672  28.298  29.481   1.774
35144W        W 6673   4.885   1.714   3.640
35145W        W 6674  33.477  33.640   3.390
35146W        W 6675  39.984  37.387  10.374
35147W        W 6676  11.233  13.029   3.631
35148W        W 6677   2.295   6.218  11.222
35149W        W 6678  16.570   4.359   3.952
35150W        W 6679  32.102  42.868  12.986
35151W        W 6680  27.333  30.183  11.073
35152W        W 6681  13.774  39.538   1.676
35153W        W 6682  35.123  31.884   4.025
35154W        W 6683   7.946  38.929   1.758
35155W        W 6684  42.057   8.814   0.433
35156W        W 6685  26.878  35.519  10.769
35157W        W 6686  20.660  44.297   2.114
35158W        W 6687   8.052  42.645   3.888
35159W        W 6688  16.596  13.914  10.517
35160W        W 6689  44.502  19.493  14.350
35161W        W 6690  34.942  41.884  14.268
35162W        W 6691  43.419  42.867  11.128
35163W        W 6692   0.992  23.191   2.507
35164W        W 6693  43.968  40.804  14.154
35165W        W 6694   5.867  16.399  14.936
35166W        W 6695  43.833  36.885   1.311
35167W        W 6696  31.643   3.251  11.787
35168W        W 6697   1.531  21.993   3.387
35169W        W 6698  28.070  44.170   5.152
35170W        W 6699   7.327  16.868  10.656
35171W        W 6700  42.857   6.169  11.655
35172W        W 6701   2.379  32.084   1.911
35173W        W 6702  13.254   6.886  13.285
35174W        W 6703  11.754  25.688   0.962
35175W        W 6704  24.790  29.975  12.366
35176W        W 6705  23.606  34.946   2.583
35177W        W 6706  33.574  24.699   9.931
35178W        W 6707   9.510  43.971  13.058
35179W        W 6708  22.417  18.973  11.815
35180W        W 6709  36.925  22.553  12.534
35181W        W 6710  18.155  16.822   3.296
35182W        W 6711  13.888  11.484  11.180
35183W        W 6712  17.330  26.546   0.975
35184W        W 6713  29.826  14.359  13.530
35185W        W 6714   5.519  23.626  13.046
35186W        W 6715  40.004  42.935   2.445
35187W        W 6716   5.922  40.931  12.911
35188W        W 6717  22.741  27.063  14.472
35189W        W 6718  39.790   6.278   1.291
35190W        W 6719  30.254   3.350  14.595
35191W        W 6720  37.589  23.171   4.518
35192W        W 6721   2.005  33.995  11.022
35193W        W 6722  23.648  34.170  11.577
35194W        W 6723  29.494  38.151  14.902
35195W        W 6724  36.304  14.711   2.195
35196W        W 6725  13.451  16.791   0.097
35197W        W 6726  33.070  41.578  11.109
35198W        W 6727  25.222  44.323  14.034
35199W        W 6728   5.415  36.794   2.216
35200W        W 6729   7.275   6.276   0.962
35201W        W 6730  18.832   0.713  13.720
35202W        W 6731  42.396   5.156   3.262
35203W        W 6732  40.452  39.950   2.660
35204W        W 6733  18.023  22.162  12.621
35205W        W 6734   0.055   2.951  10.834
35206W        W 6735  28.629  43.051   2.365
35207W        W 6736  42.804  28.642   4.660
35208W        W 6737  11.470  16.529  13.320
35209W        W 6738  41.087  38.904  12.919
35210W        W 6739  10.781  27.480  12.376
35211W        W 6740  37.347   0.890   2.636
35212W        W 6741   5.785  35.496  13.867
35213W        W 6742  38.972  12.158  12.023
35214W        W 6743  39.838  10.278  14.789
35215W        W 6744  41.924  21.868   3.211
35216W        W 6745  28.578  34.952  14.341
35217W        W 6746  42.984  37.018  13.817
35218W        W 6747  37.351   2.999  10.616
35219W        W 6748   0.133  40.939   4.474
35220W        W 6749   9.408  20.520  11.521
35221W        W 6750  35.616  43.950   0.689
35222W        W 6751  11.704  26.201   4.190
35223W        W 6752  19.736  31.601   3.012
35224W        W 6753  32.735  43.682   4.080
35225W        W 6754  42.257  41.426  11.667
35226W        W 6755  29.315  26.090   1.118
35227W        W 6756  19.373   1.492   1.313
35228W        W 6757  12.545  39.822   1.314
35229W        W 6758  44.894  19.318   4.665
35230W        W 6759  14.214  19.254   3.554
35231W        W 6760  19.234  30.410   0.286
35232W        W 6761  10.313  26.963   1.015
35233W        W 6762  14.036  25.088   2.299
35234W        W 6763  39.760   7.893   4.567
35235W        W 6764  12.594  38.982   2.905
35236W        W 6765  28.486  15.810  10.768
35237W        W 6766  20.172  42.671   4.989
35238W        W 6767  19.323  43.267  14.002
35239W        W 6768  42.737  30.957  10.677
35240W        W 6769  42.533  21.461   2.684
35241W        W 6770  19.951  37.297   4.067
35242W        W 6771   6.802  13.285   4.264
35243W        W 6772  24.579   9.707   4.537
35244W        W 6773  32.634  25.969  13.362
35245W        W 6774  43.774  18.686   2.309
35246W        W 6775  41.033  25.617  11.641
35247W        W 6776   8.668  44.554  10.670
35248W        W 6777  29.597  14.855  12.847
35249W        W 6778  26.012   3.490   3.803
35250W        W 6779  10.104  44.996  12.307
35251W        W 6780   4.184  10.135  11.687
35252W        W 6781  13.930   3.964  11.418
35253W        W 6782  37.566  34.541   2.289
35254W        W 6783  15.119  26.289  11.608
35255W        W 6784  44.449   8.960   0.774
35256W        W 6785   1.831  33.336  11.780
35257W        W 6786   3.699  22.777  13.011
35258W        W 6787  34.338  24.756   1.509
35259W        W 6788  44.684  18.169  14.050
35260W        W 6789  44.185   3.378   4.406
35261W        W 6790  13.785  20.081   4.566
35262W        W 6791  32.141  34.645   0.624
35263W        W 6792  25.063  11.844  14.896
35264W        W 6793   0.521  16.102  13.494
35265W        W 6794  11.018  11.366   0.836
35266W        W 6795   6.361  10.517   2.604
35267W        W 6796  39.569  15.381  14.005
35268W        W 6797   7.195  12.719   2.244
35269W        W 6798   9.024  37.844  14.334
35270W        W 6799  41.344  30.477   4.749
35271W        W 6800  17.555  38.488  12.067
35272W        W 6801  44.538   5.476  11.974
35273W        W 6802  44.006  30.841  11.247
35274W        W 6803  42.423   5.385  12.872
35275W        W 6804  35.519  34.161  12.940
35276W        W 6805  22.210   3.320   2.744
35277W        W 6806  10.628   1.779  11.105
35278W        W 6807  34.616  41.771  11.704
35279W        W 6808  24.947  41.092  11.371
35280W        W 6809  30.897  27.069   1.266
35281W        W 6810  26.093  41.358   0.278
35282W        W 6811   4.220  25.298   1.846
35283W        W 6812  19.474  25.481  14.275
35284W        W 6813  18.575  38.783   2.247
35285W        W 6814  32.034  38.876  13.470
35286W        W 6815  14.195  26.395  14.421
35287W        W 6816  44.823  18.218  14.911
35288W        W 6817  43.343  43.474  14.063
35289W        W 6818  11.621   1.240   2.182
35290W        W 6819  23.610  10.006   2.875
35291W        W 6820  33.919  33.050  11.556
35292W        W 6821  38.848  39.224  14.693
35293W        W 6822  26.567  33.172  13.936
35294W        W 6823  36.562  40.746  12.014
35295W        W 6824  17.045  13.371  12.918
35296W        W 6825  20.311  38.523  13.587
35297W        W 6826  27.046  30.936   3.250
35298W        W 6827   9.260  19.225   3.835
35299W        W 6828  23.518  24.604   0.030
35300W        W 6829  44.909  32.441  14.857
35301W        W 6830  19.486  25.591   1.618
35302W        W 6831  11.675  10.047  14.049
35303W        W 6832  10.026  38.357  10.717
35304W        W 6833  12.629   0.087   0.300
35305W        W 6834  35.176  14.658  11.457
35306W        W 6835  15.054  32.942   2.428
35307W        W 6836   6.924   7.120  14.420
35308W        W 6837   3.774  16.763  10.639
35309W        W 6838   1.426  38.375  10.901
35310W        W 6839  21.821  34.375  11.689
35311W        W 6840  32.366  31.926  11.291
35312W        W 6841  42.588  19.673  10.712
35313W        W 6842  11.932  29.972   0.531
35314W        W 6843  40.785  42.125  11.087
35315W        W 6844   9.126   1.001  10.568
35316W        W 6845  20.298  24.112   0.710
35317W        W 6846  32.611  11.399  13.839
35318W        W 6847  19.205  33.222  14.081
35319W        W 6848  41.768   5.130   0.387
35320W        W 6849  42.889  22.973  13.442
35321W        W 6850  19.295  10.209  12.526
35322W        W 6851  17.356  17.746   1.406
35323W        W 6852  29.471  13.021   2.788
35324W        W 6853  27.509  18.627   0.438
35325W        W 6854  32.937  37.576  12.503
35326W        W 6855  34.869  10.214   4.600
35327W        W 6856   9.597  13.650   4.240
35328W        W 6857  34.057  33.006  10.501
35329W        W 6858  14.735  15.910   2.293
35330W        W 6859  31.609  17.629  13.518
35331W        W 6860  32.948  37.022   3.261
35332W        W 6861  37.802   7.336   1.485
35333W        W 6862  44.887   5.837   1.317
35334W        W 6863  29.574  26.978   1.798
35335W        W 6864  33.310  10.154   2.279
35336W        W 6865  34.390  32.424   3.948
35337W        W 6866  23.690  10.981   0.748
35338W        W 6867  10.874   8.628  12.879
35339W        W 6868  24.880  43.231   2.687
35340W        W 6869   4.850   3.445  10.034
35341W        W 6870  44.040  36.617  11.586
35342W        W 6871  39.566   1.056  13.796
35343W        W 6872   2.890  41.695  14.844
35344W        W 6873   5.510  30.839   0.413
35345W        W 6874  35.621  22.590  14.378
35346W        W 6875   0.708  12.205  14.653
35347W        W 6876  26.760   8.265  13.969
35348W        W 6877  17.635  39.955   2.612
35349W        W 6878  35.874  14.055   1.430
35350W        W 6879   6.445  22.898   3.282
35351W        W 6880  28.473  17.085  14.936
35352W        W 6881  13.222   6.137  12.554
35353W        W 6882  15.202   8.414   1.834
35354W        W 6883   9.359   8.437  11.615
35355W        W 6884  16.610  34.858   4.726
35356W        W 6885  35.970  38.788  13.380
35357W        W 6886  28.019   7.759   3.412
35358W        W 6887   4.297  12.864  14.503
35359W        W 6888   4.946  17.302   3.004
35360W        W 6889  14.762   9.226   3.643
35361W        W 6890   0.111  32.944  14.340
35362W        W 6891  18.480   6.383   0.667
35363W        W 6892  27.773  37.539   4.929
35364W        W 6893  24.063   8.897   9.837
35365W        W 6894  44.019  10.266   1.730
35366W        W 6895  22.542  15.533   0.390
35367W        W 6896  37.632  41.730  13.532
35368W        W 6897   9.318  39.283   2.736
35369W        W 6898   5.702   7.888  12.011
35370W        W 6899  32.462   5.431   2.493
35371W        W 6900  17.824  31.975   4.601
35372W        W 6901  37.845  40.604  13.866
35373W        W 6902   0.224   5.109  11.528
35374W        W 6903  34.353  27.765  13.501
35375W        W 6904  21.874  21.058  12.029
35376W        W 6905  34.349  33.423   4.682
35377W        W 6906  28.737  15.611   1.355
35378W        W 6907   5.396   0.029   3.187
35379W        W 6908  17.597  42.577   1.738
35380W        W 6909  44.393  41.371  10.688
35381W        W 6910  10.477  34.154  12.445
35382W        W 6911  34.919  13.543   4.160
35383W        W 6912  41.867   1.695  11.178
35384W        W 6913  39.162   6.291  12.121
35385W        W 6914  28.567   5.928   1.862
35386W        W 6915  16.759  20.203   1.436
35387W        W 6916   3.550  25.461  14.962
35388W        W 6917   6.309  31.577  13.958
35389W        W 6918  36.554  34.119   0.277
35390W        W 6919  19.032  17.837   4.067
35391W        W 6920   5.104  29.628  11.497
35392W        W 6921  16.608   1.432  11.152
35393W        W 6922  35.479  12.468  13.312
35394W        W 6923   3.439  16.298   4.245
35395W        W 6924   7.427  31.946   1.320
35396W        W 6925  29.137  16.190   4.220
35397W        W 6926  26.008  32.052   2.296
35398W        W 6927  18.269  42.484  13.054
35399W        W 6928   3.140  16.362  14.943
35400W        W 6929  29.472   9.431  12.128
35401W        W 6930  13.223  12.869  12.622
35402W        W 6931  35.912  11.518   3.262
35403W        W 6932  41.340  28.349  13.513
35404W        W 6933  37.380  12.863  13.427
35405W        W 6934  12.602   5.439  13.395
35406W        W 6935  16.309  32.978   2.656
35407W        W 6936  20.248  13.213  12.671
35408W        W 6937  26.217   8.894   2.183
35409W        W 6938  19.544  13.795  12.968
35410W        W 6939  24.188  38.620  11.439
35411W        W 6940  26.706  31.355   3.278
35412W        W 6941  17.292  37.440   1.378
35413W        W 6942  31.937  35.800  13.357
35414W        W 6943  40.718  21.308  14.052
35415W        W 6944  37.993  41.585  13.900
35416W        W 6945  40.012  14.126   5.001
35417W        W 6946  38.099  18.744   1.268
35418W        W 6947  24.706  10.624   0.859
35419W        W 6948  28.973   0.029   1.746
35420W        W 6949   8.183  33.542   3.952
35421W        W 6950  23.434  38.625   2.164
35422W        W 6951  36.995  33.935   0.514
35423W        W 6952  14.551  43.489  11.200
35424W        W 6953  32.380  43.361   2.214
35425W        W 6954  33.861  10.383  10.534
35426W        W 6955  31.670  22.921   4.978
35427W        W 6956  36.374  43.251  11.246
35428W        W 6957  14.294  32.013   2.738
35429W        W 6958  26.937  39.530  10.613
35430W        W 6959  28.032  33.960   2.676
35431W        W 6960  18.655  17.430  12.742
35432W        W 6961   2.352  26.643   1.385
35433W        W 6962  38.083   7.517   1.891
35434W        W 6963  12.514  36.363   2.597
35435W        W 6964  16.211  21.360   0.859
35436W        W 6965   2.288  35.353   3.135
35437W        W 6966  24.767  38.424   2.726
35438W        W 6967  25.662   6.321  13.022
35439W        W 6968  34.802   3.195  11.972
35440W        W 6969  20.260  14.723   2.196
35441W        W 6970   2.080  31.657   1.867
35442W        W 6971   6.229  21.717   0.014
35443W        W 6972  39.639   4.737  12.140
35444W        W 6973  10.674  16.353   2.741
35445W        W 6974  37.208  35.908   3.118
35446W        W 6975  17.819   8.246   3.383
35447W        W 6976   3.807   6.469  10.751
35448W        W 6977   2.868  25.486  13.373
35449W        W 6978  11.195  33.092   0.656
35450W        W 6979  27.124  34.684   2.358
35451W        W 6980  44.987  13.890   2.196
35452W        W 6981  20.242  36.837  13.817
35453W        W 6982  28.593  29.994   0.260
35454W        W 6983  21.736   7.791   0.808
35455W        W 6984   3.805  33.113  10.514
35456W        W 6985   0.751  41.708   1.657
35457W        W 6986  22.653  18.854  13.542
35458W        W 6987  25.383  38.866  14.544
35459W        W 6988  28.320   6.329   0.134
35460W        W 6989  37.321  28.488  11.592
35461W        W 6990  24.805  38.517   4.068
35462W        W 6991  22.911  11.137  12.983
35463W        W 6992   2.087   4.691  12.414
35464W        W 6993   8.819   2.490   3.641
35465W        W 6994  44.461   5.648  11.504
35466W        W 6995  30.125  28.107   5.010
35467W        W 6996  10.410   8.485   0.468
35468W        W 6997   7.234  20.477  14.143
35469W        W 6998   4.313   1.966   2.858
35470W        W 6999   5.181   5.408   4.059
35471W        W 7000  35.957  15.678   2.852
35472W        W 7001  27.585  15.611   3.384
35473W        W 7002  15.262  40.971  10.653
35474W        W 7003  30.499  21.645   4.272
35475W        W 7004   0.546  39.027  12.290
35476W        W 7005   3.812  17.530   1.721
35477W        W 7006  37.504  22.771  11.684
35478W        W 7007  21.555   9.390  13.346
35479W        W 7008  33.888  14.173   2.407
35480W        W 7009  19.577   7.352  13.450
35481W        W 7010  20.277  42.399  11.905
35482W        W 7011   8.294  41.096   2.696
35483W        W 7012  30.952  26.003   0.447
35484W        W 7013  13.787  40.802   2.663
35485W        W 7014  18.830  38.434   2.696
35486W        W 7015   0.896  39.797   1.122
35487W        W 7016  26.054  25.133   3.593
35488W        W 7017  34.430  44.521   4.566
35489W        W 7018  25.091   0.454  12.275
35490W        W 7019   0.686  24.776  11.615
35491W        W 7020  32.113  22.708  11.151
35492W        W 7021  14.183  37.347   4.075
35493W        W 7022  11.872  39.984  11.918
35494W        W 7023  41.277  19.582  11.383
35495W        W 7024  18.499  37.984   1.808
35496W        W 7025  23.134  28.109  14.021
35497W        W 7026  41.751  32.139  12.922
35498W        W 7027  15.440  21.704   2.443
35499W        W 7028  19.948  24.982   5.004
35500W        W 7029  27.486  31.596  14.108
35501W        W 7030  43.719  24.587  12.009
35502W        W 7031  36.203  18.848  11.063
35503W        W 7032  38.156  11.752   4.502
35504W        W 7033  26.211   3.108   4.239
35505W        W 7034  18.699  22.797  11.028
35506W        W 7035   4.236  27.882  12.566
35507W        W 7036  21.298  31.883  12.924
35508W        W 7037   2.353  28.425   4.382
35509W        W 7038  11.094   8.713   1.845
35510W        W 7039  22.552   1.307   4.845
35511W        W 7040  12.098  37.344  13.831
35512W        W 7041  41.894  27.653   0.541
35513W        W 7042  42.496  38.858  13.978
35514W        W 7043  12.872  38.101   1.615
35515W        W 7044  14.692   1.276   2.125
35516W        W 7045  11.069  36.453   2.007
35517W        W 7046   4.713  25.148   2.513
35518W        W 7047  21.372  39.644  12.584
35519W        W 7048  23.562  37.464   4.029
35520W        W 7049  21.030  40.967  10.705
35521W        W 7050  27.005  20.300  10.624
35522W        W 7051  43.008   8.456  11.176
35523W        W 7052  12.641  34.547   3.100
35524W        W 7053  23.239  35.991  10.932
35525W        W 7054   4.390   0.670   4.065
35526W        W 7055  25.713   2.738  14.267
35527W        W 7056   0.600  26.570   2.324
35528W        W 7057  22.659  12.825   4.796
35529W        W 7058  16.109  34.918  10.670
35530W        W 7059  25.572  14.283   9.854
35531W        W 7060  22.517  15.773  10.120
35532W        W 7061  16.033  22.267  11.618
35533W        W 7062  28.772  36.185  12.893
35534W        W 7063   8.691  42.566   4.565
35535W        W 7064   7.911  10.683  10.582
35536W        W 7065  23.114   2.981   0.889
35537W        W 7066  28.199   6.117  11.451
35538W        W 7067   6.668  31.922  13.150
35539W        W 7068   3.392  36.389  14.974
35540W        W 7069   6.479  34.643   1.964
35541W        W 7070  34.197  34.566   4.454
35542W        W 7071   2.188   7.635   0.975
35543W        W 7072  30.320  10.164   3.091
35544W        W 7073  36.196   3.857   1.917
35545W        W 7074  29.497  34.090  14.960
35546W        W 7075  39.008  34.136  11.926
35547W        W 7076  44.350  22.716  10.720
35548W        W 7077  41.765  34.024   0.253
35549W        W 7078  33.437   3.662   0.874
35550W        W 7079  15.114  42.787   4.643
35551W        W 7080  23.730  25.518   2.073
35552W        W 7081   4.362  18.155  12.778
35553W        W 7082  17.583  37.833   0.163
35554W        W 7083  33.619  21.563  14.868
35555W        W 7084   8.200   2.787  14.179
35556W        W 7085  10.723   8.918   4.141
35557W        W 7086  28.106   6.762   1.807
35558W        W 7087   9.929  13.435  11.641
35559W        W 7088  20.987  31.443  13.925
35560W        W 7089  29.798  17.001  13.765
35561W        W 7090  12.918  27.986   0.760
35562W        W 7091  23.246   6.784  11.271
35563W        W 7092  42.875  13.666  14.762
35564W        W 7093   8.869  17.220  11.105
35565W        W 7094   3.902  39.588   0.241
35566W        W 7095  19.000   5.465   2.272
35567W        W 7096  16.191  10.707  14.080
35568W        W 7097  11.787  44.812  13.948
35569W        W 7098   6.464  29.626  13.935
35570W        W 7099  33.004   0.082   0.635
35571W        W 7100  24.737   6.748  10.931
35572W        W 7101  11.580  36.218  13.834
35573W        W 7102  39.260  28.802  14.438
35574W        W 7103  37.821  23.650   4.581
35575W        W 7104  43.462   6.845   4.568
35576W        W 7105  13.816  13.793  13.006
35577W        W 7106   6.737  11.279   1.873
35578W        W 7107  43.995  16.002  12.631
35579W        W 7108  11.816   8.834  12.166
35580W        W 7109  16.625  30.945   3.276
35581W        W 7110  43.961  32.587   4.156
35582W        W 7111  16.702   4.061  13.552
35583W        W 7112  14.246  10.153   0.010
35584W        W 7113  42.853   3.221  12.554
35585W        W 7114  38.735  15.258   1.947
35586W        W 7115  41.908  14.813   0.298
35587W        W 7116   4.799   6.635  11.850
35588W        W 7117  43.417  16.025   3.884
35589W        W 7118  38.548   1.822   3.391
35590W        W 7119  20.308   0.876  11.027
35591W        W 7120  25.239  25.537   3.069
35592W        W 7121   3.058  16.176   2.286
35593W        W 7122   8.727  39.891  12.417
35594W        W 7123  28.101  44.935  11.064
35595W        W 7124  32.387  15.573   1.438
35596W        W 7125  16.779  24.028   3.147
35597W        W 7126  17.089  26.502  14.047
35598W        W 7127  23.941  16.086   1.881
35599W        W 7128  19.735  18.807  14.860
35600W        W 7129  20.021  40.915  10.756
35601W        W 7130  27.247  43.373  10.552
35602W        W 7131  15.661  26.256  13.452
35603W        W 7132  16.132  33.534  10.004
35604W        W 7133   9.675  44.703  12.137
35605W        W 7134  14.573  12.185  11.641
35606W        W 7135  20.468  29.718  13.049
35607W        W 7136   6.351  18.263  13.878
35608W        W 7137  16.646  22.651  10.680
35609W        W 7138  42.249  14.837   3.339
35610W        W 7139  19.624  43.848   1.440
35611W        W 7140  16.021  12.183  13.846
35612W        W 7141  35.073  17.790   3.830
35613W        W 7142  20.458  19.350  12.983
35614W        W 7143  20.911  42.449   1.657
35615W        W 7144  36.026   7.657  12.493
35616W        W 7145  10.307  42.868   3.076
35617W        W 7146  34.570  29.583   4.166
35618W        W 7147  39.603  35.576   0.323
35619W        W 7148  37.732  17.740  12.647
35620W        W 7149  22.276   8.831  13.048
35621W        W 7150  24.856  10.664  14.022
35622W        W 7151  10.223  24.970  14.882
35623W        W 7152  26.983   6.439  12.848
35624W        W 7153  19.667   0.259   2.303
35625W        W 7154  40.917   6.810  10.835
35626W        W 7155  28.053  28.143   2.640
35627W        W 7156  31.548  11.834   3.087
35628W        W 7157  36.757  38.998  12.778
35629W        W 7158  14.884  22.758   1.244
35630W        W 7159   2.575  29.067  14.267
35631W        W 7160  40.616  19.179   4.692
35632W        W 7161  12.289   7.930  11.064
35633W        W 7162  30.949  34.138   0.976
35634W        W 7163  41.818  30.379  12.060
35635W        W 7164  39.865  20.813   0.866
35636W        W 7165  15.603  40.207   1.231
35637W        W 7166   0.487  38.843   2.460
35638W        W 7167   2.799  39.487  11.059
35639W        W 7168   2.868   2.404  10.885
35640W        W 7169  22.962  37.451  10.799
35641W        W 7170  31.997  11.848  11.506
35642W        W 7171   1.633  15.052  11.598
35643W        W 7172   7.485  33.049   4.208
35644W        W 7173  27.693   5.775   3.545
35645W        W 7174  16.109   6.444   3.448
35646W        W 7175  40.426  33.225  12.548
35647W        W 7176  39.799  43.893   1.456
35648W        W 7177  36.886  27.628  11.200
35649W        W 7178  15.419  19.322   2.824
35650W        W 7179  21.843   1.903   2.864
35651W        W 7180   5.323  37.303   2.177
35652W        W 7181   9.313  33.086  14.277
35653W        W 7182  14.685   7.599   0.941
35654W        W 7183  21.390  43.398   1.538
35655W        W 7184  37.278  33.352  10.187
35656W        W 7185   5.009  16.989  14.831
35657W        W 7186  16.520  26.695  11.512
35658W        W 7187  41.192  32.366   4.138
35659W        W 7188  26.741   7.231  14.801
35660W        W 7189  17.635  35.815  11.985
35661W        W 7190  10.058  41.730  11.946
35662W        W 7191  35.018  41.132   0.261
35663W        W 7192  23.042   9.188  11.937
35664W        W 7193   1.895   0.972   0.318
35665W        W 7194  44.420   2.756   3.645
35666W        W 7195  44.119  36.736   3.684
35667W        W 7196  41.519   5.051   3.231
35668W        W 7197  32.544   7.668  12.516
35669W        W 7198   5.375  31.524   4.125
35670W        W 7199  38.835  20.580   4.628
35671W        W 7200  10.616  11.632   2.262
35672W        W 7201  44.541  42.830  14.705
35673W        W 7202  44.448  41.137   1.940
35674W        W 7203  27.460  42.262   3.385
35675W        W 7204  23.922  34.157   4.079
35676W        W 7205  30.172  17.201   3.131
35677W        W 7206   3.989  25.757   1.775
35678W        W 7207  41.776  33.449  13.270
35679W        W 7208  23.491  33.231   3.578
35680W        W 7209  15.089  16.049   1.870
35681W        W 7210  38.903  14.862  11.509
35682W        W 7211   6.292  21.598   4.852
35683W        W 7212  17.668  42.213  11.179
35684W        W 7213   7.225  25.129  12.968
35685W        W 7214   0.329   3.770   0.759
35686W        W 7215  10.328  37.645   2.338
35687W        W 7216  30.323   7.133   2.360
35688W        W 7217  20.074  17.260   2.848
35689W        W 7218   0.564  25.038   0.856
35690W        W 7219   6.842   9.122  13.370
35691W        W 7220  19.355   3.454  12.968
35692W        W 7221  40.421  40.054   0.761
35693W        W 7222  23.675   9.824   4.079
35694W        W 7223  37.027   0.462  12.058
35695W        W 7224  23.704  33.052  14.505
35696W        W 7225  38.519  27.540   0.275
35697W        W 7226  24.420  40.778   3.778
35698W        W 7227  15.638  20.559  14.891
35699W        W 7228  41.722  19.693  11.158
35700W        W 7229   1.810  19.487  10.701
35701W        W 7230  35.159  21.612  13.949
35702W        W 7231  38.793  29.475  13.584
35703W        W 7232  25.369  24.685  14.491
35704W        W 7233   2.211  20.193  11.973
35705W        W 7234   2.263  18.548  12.939
35706W        W 7235  13.159  10.951  14.087
35707W        W 7236   3.726  26.148  11.169
35708W        W 7237   4.912  14.364  11.878
35709W        W 7238  19.740  23.707   3.248
35710W        W 7239  41.345  19.302  12.378
35711W        W 7240  38.417   5.437  10.876
35712W        W 7241   2.421   1.887  14.728
35713W        W 7242  42.495  11.780   2.428
35714W        W 7243  34.145   4.262   0.180
35715W        W 7244  19.651  18.222   3.732
35716W        W 7245  19.490  16.330  11.911
35717W        W 7246   1.477  25.519  13.355
35718W        W 7247  14.897   8.224  14.879
35719W        W 7248  37.408  16.257   5.002
35720W        W 7249   6.299   3.708   2.415
35721W        W 7250   8.200   4.187   1.463
35722W        W 7251  20.571  29.963   1.677
35723W        W 7252  40.910  40.373  13.809
35724W        W 7253  27.936  22.660  11.625
35725W        W 7254  40.100  10.115   4.431
35726W        W 7255  29.737  26.756  13.798
35727W        W 7256  42.043  24.918  10.537
35728W        W 7257  41.069   7.053  12.920
35729W        W 7258  14.709  31.112   0.465
35730W        W 7259   0.423   7.414  11.174
35731W        W 7260  15.204  31.993  10.314
35732W        W 7261  37.942  28.947   2.625
35733W        W 7262   2.255  16.086  14.276
35734W        W 7263  26.219  19.932   3.381
35735W        W 7264   8.323   5.490   4.499
35736W        W 7265  43.165  12.604  13.875
35737W        W 7266  12.675  32.584   4.426
35738W        W 7267  31.521  44.905  13.595
35739W        W 7268  17.295  23.911  11.531
35740W        W 7269  20.496  15.139   2.353
35741W        W 7270  23.090  20.257   1.923
35742W        W 7271  35.836  36.621   0.816
35743W        W 7272  22.051  42.036  11.817
35744W        W 7273  29.776   6.675  12.567
35745W        W 7274  27.838   1.002   0.967
35746W        W 7275  32.950  44.910   4.328
35747W        W 7276  31.446  24.562   0.361
35748W        W 7277  28.484  21.799   1.521
35749W        W 7278   4.539   7.308   4.600
35750W        W 7279  21.594   8.285   2.569
35751W        W 7280  10.831   3.315  11.166
35752W        W 7281  36.475  39.488   1.461
35753W        W 7282   4.949   0.010   0.401
35754W        W 7283  11.851  28.376   1.605
35755W        W 7284  17.580  27.767  14.120
35756W        W 7285  25.563  31.336   3.905
35757W        W 7286   9.713  35.114   4.521
35758W        W 7287  17.344   9.710   4.169
35759W        W 7288  18.492  24.203  14.315
35760W        W 7289  36.977  25.568   4.692
35761W        W 7290  10.675   0.841   4.154
35762W        W 7291  37.463  25.217   3.927
35763W        W 7292  28.542  26.745  11.633
35764W        W 7293  16.038   0.061   4.067
35765W        W 7294  23.205  22.167  10.945
35766W        W 7295  32.661   0.914  14.474
35767W        W 7296  13.421  42.828   3.886
35768W        W 7297  10.190  22.136   1.366
35769W        W 7298   8.909  36.498   4.583
35770W        W 7299   6.991  31.054   1.467
35771W        W 7300  34.877   4.207  12.950
35772W        W 7301  32.595  29.454   2.222
35773W        W 7302  37.876  14.719  11.122
35774W        W 7303  15.871  20.052  13.915
35775W        W 7304  28.933  30.648   1.876
35776W        W 7305   5.955  24.663   0.008
35777W        W 7306  42.830  19.192  12.562
35778W        W 7307  32.001  29.381  14.900
35779W        W 7308  42.218  30.546   2.280
35780W        W 7309  10.868   5.808  14.804
35781W        W 7310  35.470  30.751  12.022
35782W        W 7311   2.054  42.321   2.325
35783W        W 7312  12.323  42.190   4.559
35784W        W 7313  19.108  35.605  13.425
35785W        W 7314  40.046  17.672  14.075
35786W        W 7315   0.722  29.096  12.693
35787W        W 7316  10.550  31.571   2.750
35788W        W 7317  20.548  30.890   1.702
35789W        W 7318  22.787  28.116   2.546
35790W        W 7319   6.815  21.104   1.093
35791W        W 7320   8.358   0.572  10.787
35792W        W 7321  26.536   3.251  13.388
35793W        W 7322  24.108  23.616  11.741
35794W        W 7323  41.457  35.973   3.756
35795W        W 7324  25.089  25.008   1.812
35796W        W 7325   5.754  31.685   2.748
35797W        W 7326   5.904  30.444  11.500
35798W        W 7327  15.033  36.466   3.563
35799W        W 7328  10.653  16.261  10.498
35800W        W 7329  24.869   4.807  12.163
35801W        W 7330   1.707  29.341  12.421
35802W        W 7331   9.838  34.014   1.254
35803W        W 7332   9.740  20.422   4.466
35804W        W 7333  31.662  27.968   0.282
35805W        W 7334  44.540  24.508  13.021
35806W        W 7335  31.217  27.541  10.662
35807W        W 7336   1.267  20.699   0.118
35808W        W 7337   4.395  13.107   2.877
35809W        W 7338  40.234   9.767  13.548
35810W        W 7339   7.829  43.339   4.534
35811W        W 7340   1.262  44.164   4.242
35812W        W 7341  43.732  41.655  14.060
35813W        W 7342  29.429  19.492  11.573
35814W        W 7343  17.086  20.998  12.083
35815W        W 7344  37.494   9.445  13.774
35816W        W 7345  29.409  36.430  10.269
35817W        W 7346   5.895  19.595  12.040
35818W        W 7347   3.634   0.788   3.609
35819W        W 7348  43.650  42.786  12.420
35820W        W 7349  37.921  12.598   2.812
35821W        W 7350   1.780  40.929  12.143
35822W        W 7351  17.186  16.356  14.236
35823W        W 7352  19.006  37.754   4.131
35824W        W 7353  10.807   9.854   4.848
35825W        W 7354  33.441  21.434   9.915
35826W        W 7355  34.929  13.411  11.742
35827W        W 7356   9.757  34.419  13.920
35828W        W 7357   0.471  20.209  14.376
35829W        W 7358  13.333  44.453   2.283
35830W        W 7359   2.497  37.406   2.179
35831W        W 7360  33.286  16.714   2.107
35832W        W 7361  26.248  21.609  12.374
35833W        W 7362  19.832  43.885   2.424
35834W        W 7363   3.385  15.740  10.373
35835W        W 7364  14.187   8.898  13.771
35836W        W 7365  35.411   4.059   0.184
35837W        W 7366  43.939   8.751  10.755
35838W        W 7367  13.937  36.064  13.881
35839W        W 7368  27.328  34.909  14.747
35840W        W 7369  20.519  12.255  13.609
35841W        W 7370   9.690  27.328   4.281
35842W        W 7371   7.291  16.284  13.937
35843W        W 7372  28.224   0.444  11.828
35844W        W 7373  15.844  25.893  11.170
35845W        W 7374  38.875  28.572   1.242
35846W        W 7375  42.699  38.751  12.092
35847W        W 7376  33.263   5.821  11.283
35848W        W 7377  27.472  18.261   4.581
35849W        W 7378  44.311  17.022  10.074
35850W        W 7379  10.727  33.591   2.452
35851W        W 7380  39.835   5.911   3.696
35852W        W 7381  28.842  28.540   1.669
35853W        W 7382  38.046   2.565  13.959
35854W        W 7383  29.657   7.322   4.216
35855W        W 7384  40.738  28.883   3.195
35856W        W 7385  22.601  37.805   0.975
35857W        W 7386  34.858  40.330   3.928
35858W        W 7387   7.348  25.729   0.096
35859W        W 7388   0.522   0.788  13.953
35860W        W 7389  21.079  32.631   4.560
35861W        W 7390  11.233  31.661  13.864
35862W        W 7391   9.388  42.793  11.049
35863W        W 7392  36.582   4.653  13.783
35864W        W 7393  29.540   0.801  11.838
35865W        W 7394  40.527  26.247  13.514
35866W        W 7395  38.622   9.376   2.826
35867W        W 7396  17.291   8.409  11.130
35868W        W 7397   2.414   6.163  13.854
35869W        W 7398  27.598  33.365   3.259
35870W        W 7399   7.360   9.348  12.073
35871W        W 7400   0.664  21.379   5.091
35872W        W 7401  44.300  28.192   1.029
35873W        W 7402  43.432  11.671   1.315
35874W        W 7403   7.728  33.547   4.569
35875W        W 7404  11.396  43.956  11.681
35876W        W 7405  30.322  29.619  13.413
35877W        W 7406   9.410  28.512  12.370
35878W        W 7407  35.086  38.677   0.235
35879W        W 7408  15.815   2.756  11.485
35880W        W 7409  13.625  14.088   0.824
35881W        W 7410   5.665  32.291   0.580
35882W        W 7411  10.252   3.285   1.484
35883W        W 7412  16.852  37.121   1.374
35884W        W 7413  38.405   3.505   1.740
35885W        W 7414   7.296  13.843   3.216
35886W        W 7415  29.470  30.746  12.232
35887W        W 7416  15.080  20.260  14.930
35888W        W 7417  20.981  34.230   0.054
35889W        W 7418   0.221  16.818  11.096
35890W        W 7419  18.567  41.365   4.590
35891W        W 7420  13.387  15.663  13.985
35892W        W 7421  38.661   4.824   0.910
35893W        W 7422  19.620   3.939  11.217
35894W        W 7423  21.511  23.776  14.768
35895W        W 7424  24.215  15.443  10.813
35896W        W 7425   0.777  43.066  12.107
35897W        W 7426  38.901   9.286  12.588
35898W        W 7427  30.096  44.742  11.281
35899W        W 7428  33.359  21.246   4.320
35900W        W 7429  23.018  33.421   3.731
35901W        W 7430  20.236  39.941  14.441
35902W        W 7431  18.824  24.713   4.904
35903W        W 7432  16.250  33.843  11.683
35904W        W 7433  24.078  20.622   3.314
35905W        W 7434  34.185  27.736  14.184
35906W        W 7435  11.735  24.976  11.585
35907W        W 7436  13.629   2.937  10.512
35908W        W 7437  22.237  10.790   3.277
35909W        W 7438  35.513  31.194   0.215
35910W        W 7439   4.751   6.841   1.917
35911W        W 7440  26.544   0.226   4.658
35912W        W 7441  12.305  11.609   0.436
35913W        W 7442   7.707  38.247   1.214
35914W        W 7443  43.447  35.149   3.297
35915W        W 7444  25.361  33.126  11.942
35916W        W 7445  25.547  26.963   2.878
35917W        W 7446  36.868  41.425  12.602
35918W        W 7447   2.740  22.845   4.092
35919W        W 7448  24.100   9.344   2.657
35920W        W 7449  26.146  30.331  12.618
35921W        W 7450  30.858  20.670  10.389
35922W        W 7451   3.274   2.497  12.454
35923W        W 7452   2.987  26.738  11.891
35924W        W 7453  31.870  12.606  14.841
35925W        W 7454  26.849  28.807  12.897
35926W        W 7455  15.241  36.502  10.805
35927W        W 7456  23.475  20.753   2.403
35928W        W 7457  23.641  29.150  13.179
35929W        W 7458  26.346  44.026  13.041
35930W        W 7459  38.216  24.109   4.239
35931W        W 7460   4.906  16.062   2.052
35932W        W 7461  42.074  11.668   4.772
35933W        W 7462  22.055  11.356   0.908
35934W        W 7463  12.028  17.100   0.027
35935W        W 7464  41.824  22.583  14.884
35936W        W 7465  44.983  43.974  14.299
35937W        W 7466  11.800  35.406  13.463
35938W        W 7467  41.506  17.507   2.929
35939W        W 7468   7.181  38.521   3.643
35940W        W 7469  12.174   5.316   3.277
35941W        W 7470  14.671  15.596  11.548
35942W        W 7471   6.299  31.186   2.009
35943W        W 7472  13.314  15.619   5.015
35944W        W 7473  41.312   6.496   3.725
35945W        W 7474   7.164  35.292   2.859
35946W        W 7475  38.428  24.665  13.208
35947W        W 7476  30.855  41.991  13.984
35948W        W 7477  19.595  23.125   2.393
35949W        W 7478   0.333  44.990   4.801
35950W        W 7479   1.395  17.689  10.869
35951W        W 7480  19.285   2.882  12.187
35952W        W 7481   3.347  28.968   3.890
35953W        W 7482   1.780  20.114  12.905
35954W        W 7483   6.775  16.779   4.745
35955W        W 7484  10.158  41.265  14.918
35956W        W 7485  28.216  27.376   2.893
35957W        W 7486   9.680  18.809  14.757
35958W        W 7487  27.669  17.277   3.263
35959W        W 7488  38.594  41.541   5.036
35960W        W 7489   7.609  20.187  13.879
35961W        W 7490  32.996  32.418   0.300
35962W        W 7491  12.214   9.297  11.271
35963W        W 7492  36.966  19.701   1.959
35964W        W 7493  37.807  23.440  11.933
35965W        W 7494  37.431  38.468  13.128
35966W        W 7495  31.902  11.857   2.704
35967W        W 7496  43.848  13.700   3.818
35968W        W 7497  14.540  36.813   0.411
35969W        W 7498  13.480  28.182  10.595
35970W        W 7499   0.523  21.787  14.407
35971W        W 7500  44.704  17.330   3.648
35972W        W 7501  27.008  36.640  11.620
35973W        W 7502  29.649  25.919  14.945
35974W        W 7503  32.633  44.481   1.323
35975W        W 7504  26.217  13.136  13.030
35976W        W 7505  31.104  38.034   0.246
35977W        W 7506  41.213  43.692  14.427
35978W        W 7507  10.252  14.305   1.923
35979W        W 7508   6.423  10.858   3.991
35980W        W 7509  42.222  36.040   1.387
35981W        W 7510  10.000  35.777  14.318
35982W        W 7511  42.847  43.530   3.798
35983W        W 7512  42.714   1.242  12.562
35984W        W 7513   6.157  20.536  12.188
35985W        W 7514  43.285  28.492   0.553
35986W        W 7515  30.561   4.274  12.610
35987W        W 7516  38.058  18.910  11.734
35988W        W 7517  40.482   5.130   1.434
35989W        W 7518  44.543   8.698  13.350
35990W        W 7519  26.702  34.614   2.648
35991W        W 7520  38.241   4.945  13.899
35992W        W 7521   6.460  43.037   3.337
35993W        W 7522  32.605  29.543   0.258
35994W        W 7523  43.966   7.958  13.283
35995W        W 7524  21.777   1.859  12.512
35996W        W 7525  19.218  34.457  13.462
35997W        W 7526  27.655  31.373   3.116
35998W        W 7527  24.535  12.195   2.326
35999W        W 7528  12.592  35.088  13.067
36000W        W 7529  30.978  25.967  13.694
36001W        W 7530  23.222  36.378  12.981
36002W        W 7531   3.221  23.525   4.129
36003W        W 7532  43.409  41.369   0.887
36004W        W 7533  36.687  31.075   1.855
36005W        W 7534  10.829  10.602  13.992
36006W        W 7535   5.178  19.202   1.834
36007W        W 7536  16.589  15.944  12.092
36008W        W 7537  44.544   3.854  12.876
36009W        W 7538   2.773  11.793   4.209
36010W        W 7539   9.347  17.566   0.980
36011W        W 7540  34.835   9.196   4.060
36012W        W 7541  14.025  24.808  12.749
36013W        W 7542  23.151  16.826   1.794
36014W        W 7543  13.362  24.042  13.045
36015W        W 7544  20.556  10.717  14.410
36016W        W 7545  12.099  26.144  12.894
36017W        W 7546   8.111  22.720   1.574
36018W        W 7547  10.663  29.710   2.394
36019W        W 7548  34.982   2.698   4.714
36020W        W 7549  21.322  21.614   2.302
36021W        W 7550  16.483  42.900  11.119
36022W        W 7551   7.548  35.936   5.093
36023W        W 7552  40.943  37.763   4.696
36024W        W 7553  36.004  25.667  10.977
36025W        W 7554  38.124  22.016   3.664
36026W        W 7555  12.767  32.192   2.308
36027W        W 7556   3.328   4.788   4.297
36028W        W 7557  22.500  38.394   1.679
36029W        W 7558  12.167  30.214   4.521
36030W        W 7559  11.059  22.212  14.498
36031W        W 7560   9.866  14.752   1.482
36032W        W 7561  25.309  19.123  13.792
36033W        W 7562   1.116  30.026   0.979
36034W        W 7563  40.988  23.362   3.211
36035W        W 7564  37.817  24.539   0.854
36036W        W 7565  33.565  19.998   4.187
36037W        W 7566   0.656  27.754   1.245
36038W        W 7567  15.948  38.844  10.317
36039W        W 7568  14.860  23.372   1.887
36040W        W 7569   0.237  28.211   2.021
36041W        W 7570  35.431  23.601   4.594
36042W        W 7571  18.800  16.377  13.546
36043W        W 7572  31.159  31.943  11.216
36044W        W 7573  20.386  11.911  14.843
36045W        W 7574  29.099  43.349   0.051
36046W        W 7575   0.278  41.021  14.374
36047W        W 7576  15.157  10.568  11.147
36048W        W 7577  22.150   7.489  13.313
36049W        W 7578   3.637  15.662  12.118
36050W        W 7579  27.638  30.634  11.044
36051W        W 7580   5.425  14.671  12.751
36052W        W 7581   4.196  38.768  10.814
36053W        W 7582  15.671  24.133   1.760
36054W        W 7583  41.472  29.246  12.904
36055W        W 7584  18.037  37.872  10.753
36056W        W 7585  31.855   7.778  11.513
36057W        W 7586  12.807  40.036  12.910
36058W        W 7587  38.207   5.841  14.013
36059W        W 7588  22.488  42.467  10.541
36060W        W 7589  12.723  21.956  10.694
36061W        W 7590  28.089   5.297  11.897
36062W        W 7591  42.243  16.823   3.648
36063W        W 7592  28.466  40.239  11.093
36064W        W 7593  14.419  38.334  11.154
36065W        W 7594  27.989  25.774   3.230
36066W        W 7595  19.681  14.362  13.870
36067W        W 7596  33.042  23.898  12.379
36068W        W 7597   0.151  20.504  10.775
36069W        W 7598  23.051  39.509   4.120
36070W        W 7599   3.490  15.632  13.020
36071W        W 7600  37.782  15.204  14.756
36072W        W 7601  32.886  38.060  12.616
36073W        W 7602   4.633  17.164   5.057
36074W        W 7603  15.195  21.120   2.087
36075W        W 7604  18.848  22.783  14.858
36076W        W 7605   6.911  34.602   4.547
36077W        W 7606  36.320  26.994  12.136
36078W        W 7607  14.105  17.808  11.906
36079W        W 7608  40.753  39.562   2.153
36080W        W 7609  10.720   3.331   0.789
36081W        W 7610  35.732  14.965   2.950
36082W        W 7611  28.619  19.689   4.549
36083W        W 7612  21.998   3.429   3.671
36084W        W 7613  30.263  12.950   5.369
36085W        W 7614  28.316  19.740   2.312
36086W        W 7615  14.211   1.302   1.895
36087W        W 7616  42.379  44.268   0.805
36088W        W 7617  18.685  40.261  12.854
36089W        W 7618   1.438  42.410   4.396
36090W        W 7619  42.986  43.112  10.162
36091W        W 7620   3.469  30.176  11.458
36092W        W 7621  16.566  18.313   3.687
36093W        W 7622  10.237   7.167  12.822
36094W        W 7623  19.113  28.696  11.434
36095W        W 7624   0.250  32.356   0.815
36096W        W 7625  32.412  22.553   4.685
36097W        W 7626  18.150  19.731   0.940
36098W        W 7627  44.914  14.381   1.228
36099W        W 7628  34.512  17.860  12.477
36100W        W 7629  12.678  29.139  11.715
36101W        W 7630  34.912  30.450   3.913
36102W        W 7631  31.035  43.577   0.686
36103W        W 7632  15.592  23.283  14.984
36104W        W 7633   4.555  28.596  11.930
36105W        W 7634  15.537  41.807  12.099
36106W        W 7635   8.753  32.695   0.290
36107W        W 7636  28.485   9.615  11.464
36108W        W 7637  36.412  34.116  14.342
36109W        W 7638  15.439  25.198   3.066
36110W        W 7639  39.750  22.547  11.614
36111W        W 7640  24.186  38.348  14.256
36112W        W 7641  36.112  21.634  11.290
36113W        W 7642  42.854  34.096  10.724
36114W        W 7643   3.450   8.192   2.327
36115W        W 7644  12.562  37.379   4.207
36116W        W 7645  37.860  21.741   0.338
36117W        W 7646  37.345   7.774   2.640
36118W        W 7647  41.468  32.551   3.709
36119W        W 7648   4.764   9.701   2.100
36120W        W 7649   8.170  26.803  14.163
36121W        W 7650   8.919   1.925   4.825
36122W        W 7651  35.008  19.197  13.107
36123W        W 7652  14.389  22.490  13.046
36124W        W 7653  26.087   6.822  12.472
36125W        W 7654  10.094  15.128  12.149
36126W        W 7655   1.612  41.407  12.067
36127W        W 7656  25.230  37.631  13.693
36128W        W 7657  23.961  39.042  10.098
36129W        W 7658  16.032   7.895  13.108
36130W        W 7659  40.465  28.507   4.077
36131W        W 7660  19.263  18.661   2.876
36132W        W 7661  43.356  32.960  10.486
36133W        W 7662  40.506  28.355  10.635
36134W        W 7663   5.638   3.328   3.998
36135W        W 7664  28.178   8.857  13.281
36136W        W 7665  24.704  34.853   0.002
36137W        W 7666  18.028  23.058   1.242
36138W        W 7667  10.694  19.715  13.355
36139W        W 7668   3.742  24.530   4.830
36140W        W 7669  29.524  26.359  13.400
36141W        W 7670  12.588  17.196   1.683
36142W        W 7671  27.477   1.839   2.421
36143W        W 7672  42.495  43.184  13.117
36144W        W 7673  26.593  26.914   0.936
36145W        W 7674   9.095  42.034  14.811
36146W        W 7675   2.786  29.545  11.493
36147W        W 7676  44.518  40.264   0.931
36148W        W 7677   9.410   9.487  11.511
36149W        W 7678  19.317  44.859  14.460
36150W        W 7679  32.299  27.432   9.813
36151W        W 7680   6.307  35.693   1.286
36152W        W 7681  34.973  42.538   3.626
36153W        W 7682  10.508   9.388   4.028
36154W        W 7683  44.397  23.656   3.077
36155W        W 7684  20.191  42.865   0.025
36156W        W 7685  30.595  35.863   1.220
36157W        W 7686  11.719  18.602   0.201
36158W        W 7687  19.710  33.413  11.197
36159W        W 7688   1.655  36.393  11.623
36160W        W 7689   9.557  37.676  11.126
36161W        W 7690  39.006   7.729   3.916
36162W        W 7691  39.295   9.152   3.323
36163W        W 7692  29.406   5.211   2.785
36164W        W 7693  33.839  35.354   0.848
36165W        W 7694  15.236  38.624   2.858
36166W        W 7695  21.249   3.869   4.748
36167W        W 7696  31.035  38.747  14.685
36168W        W 7697   3.268  29.025   2.264
36169W        W 7698  18.483  23.830   2.827
36170W        W 7699  25.460  11.659  12.423
36171W        W 7700  10.231  25.234  12.010
36172W        W 7701  21.242  28.900  14.324
36173W        W 7702  33.299   2.189  11.134
36174W        W 7703  33.856  25.227  12.489
36175W        W 7704  17.252   6.930  11.928
36176W        W 7705  25.495  42.362  10.694
36177W        W 7706  32.521  14.048  14.017
36178W        W 7707   7.721  38.459  14.339
36179W        W 7708   1.218  23.918   0.082
36180W        W 7709  12.030  28.404  11.559
36181W        W 7710   7.293  36.076  12.567
36182W        W 7711  27.945  16.265  11.276
36183W        W 7712  37.584  41.592   3.213
36184W        W 7713  24.205  41.295  10.206
36185W        W 7714   3.877  18.011  10.189
36186W        W 7715  23.349  15.218   0.015
36187W        W 7716  28.574   6.279  13.306
36188W        W 7717  29.170  12.581   2.798
36189W        W 7718  40.385  20.994  14.905
36190W        W 7719   4.442   3.199  14.326
36191W        W 7720  41.702  30.720  10.692
36192W        W 7721  10.815  43.353   1.491
36193W        W 7722   9.282  10.597  13.113
36194W        W 7723  29.332  34.487  12.485
36195W        W 7724  18.665  17.597  14.839
36196W        W 7725  23.291   5.971  13.395
36197W        W 7726  21.177  40.506  11.636
36198W        W 7727  24.954   8.317   0.413
36199W        W 7728   2.288  29.162   0.461
36200W        W 7729  29.938  15.731  12.388
36201W        W 7730  37.047  23.739   1.378
36202W        W 7731  36.293  24.147   1.501
36203W        W 7732  14.941  42.182  14.842
36204W        W 7733  19.851  11.048   2.747
36205W        W 7734  28.268  10.123   3.194
36206W        W 7735  21.663  37.286   4.856
36207W        W 7736  22.742  12.840  14.269
36208W        W 7737  31.523  43.795   0.860
36209W        W 7738  19.493  27.070   4.586
36210W        W 7739   8.877  38.585  14.797
36211W        W 7740   4.310  24.297   1.964
36212W        W 7741  21.395  17.192   1.728
36213W        W 7742  32.230  20.584  13.775
36214W        W 7743  40.966  32.358   1.825
36215W        W 7744  17.674  15.664   3.858
36216W        W 7745  17.821  24.367  12.587
36217W        W 7746  37.371  10.287   1.798
36218W        W 7747  41.437  44.983  12.107
36219W        W 7748  11.275  37.756   1.813
36220W        W 7749  43.540  32.201   2.762
36221W        W 7750  38.370  33.372   2.182
36222W        W 7751   5.667  17.725  13.399
36223W        W 7752   7.961   2.803  12.614
36224W        W 7753  35.337  12.684  11.467
36225W        W 7754  12.406  23.075  12.550
36226W        W 7755  18.334  32.520  12.599
36227W        W 7756  17.125  15.086  12.063
36228W        W 7757   9.358  25.937  12.648
36229W        W 7758   2.218  42.015   4.071
36230W        W 7759  20.809  44.954   1.751
36231W        W 7760  31.691   8.689   1.727
36232W        W 7761   5.557  17.754  11.588
36233W        W 7762  28.711  28.060   0.800
36234W        W 7763  10.111  26.631  13.321
36235W        W 7764  30.675  34.696  13.551
36236W        W 7765   9.954  39.076   0.474
36237W        W 7766  39.793   2.325  10.784
36238W        W 7767  22.928  17.545   0.415
36239W        W 7768  43.303  32.447  11.900
36240W        W 7769  34.037  13.631  14.983
36241W        W 7770  15.828   8.209  13.757
36242W        W 7771  44.529  36.433   2.337
36243W        W 7772   4.265  43.887   3.672
36244W        W 7773   3.594  40.116  13.822
36245W        W 7774  16.886  44.104   0.344
36246W        W 7775  25.872   6.435   4.121
36247W        W 7776  34.334   0.514   4.824
36248W        W 7777  44.439   7.350   3.145
36249W        W 7778  16.378  39.883  11.534
36250W        W 7779  31.074  34.650   1.083
36251W        W 7780  20.126   9.702  14.555
36252W        W 7781  16.628  20.589  11.443
36253W        W 7782  42.085   3.885   1.291
36254W        W 7783   7.389  25.922   3.279
36255W        W 7784   2.393   4.941   2.396
36256W        W 7785  26.067  18.421  11.577
36257W        W 7786   3.793  28.267  14.301
36258W        W 7787  18.018   6.474   4.747
36259W        W 7788  27.138   3.351  14.949
36260W        W 7789   5.787  43.521   3.788
36261W        W 7790   6.356  16.191  11.067
36262W        W 7791  21.718  38.354  14.164
36263W        W 7792  10.108  37.171  13.470
36264W        W 7793  16.730   4.420  11.986
36265W        W 7794  38.803  26.961  14.221
36266W        W 7795   2.646  36.228  13.801
36267W        W 7796   0.372  24.616  14.516
36268W        W 7797  15.751   7.844   0.803
36269W        W 7798   6.461  35.368  14.950
36270W        W 7799   6.176  12.735   1.885
36271W        W 7800  13.264  12.671   1.466
36272W        W 7801   2.819  28.263   3.573
36273W        W 7802  18.224  32.128  12.306
36274W        W 7803  30.149   2.787   2.454
36275W        W 7804  30.550  11.551  14.862
36276W        W 7805  41.863   3.131   1.698
36277W        W 7806  14.258  31.363  13.035
36278W        W 7807  18.938  24.167  11.135
36279W        W 7808  22.473  24.587  12.907
36280W        W 7809  22.930  32.552   1.746
36281W        W 7810  20.326  24.762  11.795
36282W        W 7811  20.756  39.548  14.896
36283W        W 7812   3.784  42.830   3.609
36284W        W 7813  13.728  42.073  12.063
36285W        W 7814   3.639   8.771   0.453
36286W        W 7815  37.056  34.677   3.684
36287W        W 7816  31.056  33.074   3.575
36288W        W 7817  37.855  24.037   2.666
36289W        W 7818  29.430  15.018   1.704
36290W        W 7819  42.700  42.106  11.105
36291W        W 7820  17.840  22.628   3.645
36292W        W 7821  38.220  12.184   2.742
36293W        W 7822   0.112   4.506  12.635
36294W        W 7823   9.160  25.244  11.481
36295W        W 7824  34.913  13.267  13.083
36296W        W 7825  44.069  37.028   0.353
36297W        W 7826  10.810   1.347   4.277
36298W        W 7827  20.861  18.053   3.147
36299W        W 7828   4.819   3.286   5.133
36300W        W 7829  35.113  28.474  12.558
36301W        W 7830  40.164  24.676  11.179
36302W        W 7831   7.391   8.376   2.843
36303W        W 7832  17.212  33.190   0.930
36304W        W 7833  29.478  36.534   4.383
36305W        W 7834  33.387  24.779   1.377
36306W        W 7835  18.064  35.191  13.500
36307W        W 7836  18.086  38.120  13.924
36308W        W 7837   2.869  14.596  12.341
36309W        W 7838   2.475  13.584  10.723
36310W        W 7839  19.770   4.857  12.047
36311W        W 7840  28.944  35.134   3.122
36312W        W 7841  23.753   9.922  14.510
36313W        W 7842  36.480  32.182   3.163
36314W        W 7843  41.490   7.894   1.146
36315W        W 7844  20.134  29.166   3.198
36316W        W 7845  18.713  10.361  13.449
36317W        W 7846  22.134  21.769   2.832
36318W        W 7847  10.223  26.949   4.936
36319W        W 7848   2.263  35.440  12.471
36320W        W 7849  20.221  36.404   4.819
36321W        W 7850  31.217   8.671  13.309
36322W        W 7851  24.171  22.981  10.589
36323W        W 7852  18.456  24.078   4.481
36324W        W 7853  15.673  43.472  10.471
36325W        W 7854  19.733   6.543  12.907
36326W        W 7855   8.146  40.854   1.364
36327W        W 7856  17.106  38.393   2.146
36328W        W 7857  44.796  32.140   4.402
36329W        W 7858  23.439  12.081  12.565
36330W        W 7859   7.940  19.678   0.456
36331W        W 7860   7.152  40.477  12.054
36332W        W 7861  13.313  28.386   4.062
36333W        W 7862  25.922  19.122   0.365
36334W        W 7863  42.385  25.211  13.076
36335W        W 7864  31.421  32.677  12.437
36336W        W 7865   0.325   3.491   0.284
36337W        W 7866  32.731   7.634  14.718
36338W        W 7867  33.941  44.481   3.115
36339W        W 7868   3.316  20.026   0.483
36340W        W 7869  44.871  28.136  11.852
36341W        W 7870  28.591  21.626   3.321
36342W        W 7871  31.494   6.689  13.400
36343W        W 7872  11.738   7.328  13.066
36344W        W 7873  40.443  14.604  10.924
36345W        W 7874   6.176  38.516  12.171
36346W        W 7875  40.486  22.830  14.763
36347W        W 7876  26.474  23.734   0.982
36348W        W 7877  39.844  20.563   0.387
36349W        W 7878  37.363  35.173   4.678
36350W        W 7879  15.291  42.896  11.485
36351W        W 7880  33.606   9.079  12.648
36352W        W 7881  29.974  44.953  11.733
36353W        W 7882   2.487  44.753  12.990
36354W        W 7883  36.428  39.742  14.226
36355W        W 7884  41.905  34.581   4.535
36356W        W 7885   0.051  36.351  14.256
36357W        W 7886  27.957  38.462   3.639
36358W        W 7887  39.834  20.679  12.680
36359W        W 7888  37.245  16.331   0.757
36360W        W 7889  34.376  13.939  13.698
36361W        W 7890   6.663  37.806  12.938
36362W        W 7891  44.859  30.663  10.412
36363W        W 7892  21.309  16.154  10.671
36364W        W 7893  26.545   3.674   0.084
36365W        W 7894  33.365  20.536  14.794
36366W        W 7895  19.409  40.334  12.043
36367W        W 7896  19.938  25.073  13.431
36368W        W 7897  35.196  25.795   1.275
36369W        W 7898  42.759  28.630   3.225
36370W        W 7899  15.561  41.742  11.219
36371W        W 7900  28.600  43.846  11.981
36372W        W 7901   6.946  22.512   4.899
36373W        W 7902  26.736  23.219  10.548
36374W        W 7903  40.243  39.523   0.474
36375W        W 7904  43.169  40.351  11.440
36376W        W 7905  43.360  18.999  11.834
36377W        W 7906  19.062  20.044   2.919
36378W        W 7907  20.059  30.099  12.071
36379W        W 7908  28.922   3.211   3.260
36380W        W 7909  26.607  21.559   0.677
36381W        W 7910  14.153  36.363  14.393
36382W        W 7911   1.406  31.104   1.673
36383W        W 7912  15.392  31.521  13.837
36384W        W 7913  19.040  19.706   4.265
36385W        W 7914  24.911  29.396  12.544
36386W        W 7915  29.054  42.074  11.066
36387W        W 7916  13.718  41.300   2.491
36388W        W 7917  17.246  37.472   4.592
36389W        W 7918   8.604   2.903   0.530
36390W        W 7919  24.093  33.476  10.051
36391W        W 7920  25.080  13.084   4.107
36392W        W 7921   0.347  42.562   0.448
36393W        W 7922  31.437  28.403  10.900
36394W        W 7923  23.622  42.009   2.253
36395W        W 7924  43.754   5.784   4.706
36396W        W 7925  40.963  41.605  11.957
36397W        W 7926  42.772  43.298  11.432
36398W        W 7927  40.759  25.595   2.136
36399W        W 7928  24.760   5.786   0.929
36400W        W 7929  14.035   2.502  11.518
36401W        W 7930   0.862  37.054  14.322
36402W        W 7931  27.227  37.933  10.692
36403W        W 7932  16.150  30.611  10.310
36404W        W 7933  36.827   3.033   4.560
36405W        W 7934  40.052  41.046  14.039
36406W        W 7935  35.123  28.111   0.428
36407W        W 7936  32.533  30.982   2.907
36408W        W 7937  24.560  26.508   4.467
36409W        W 7938   7.770  41.713   1.349
36410W        W 7939   3.813  43.130   2.602
36411W        W 7940   3.869   7.887  11.030
36412W        W 7941  33.872  10.229  12.353
36413W        W 7942  16.239  17.836  13.978
36414W        W 7943  30.073   1.356  11.135
36415W        W 7944  37.841  25.182  10.633
36416W        W 7945  42.986  15.067   0.714
36417W        W 7946  43.894  20.849  14.513
36418W        W 7947  20.345  42.992   2.328
36419W        W 7948  30.131  11.176   1.192
36420W        W 7949   8.193  32.467   2.137
36421W        W 7950   4.642  12.048   1.259
36422W        W 7951  11.733  31.729   3.584
36423W        W 7952   7.725  39.614  13.316
36424W        W 7953  32.702   7.455   4.061
36425W        W 7954  34.339  22.013   1.123
36426W        W 7955  11.079  15.959  11.917
36427W        W 7956  42.058  12.032  14.017
36428W        W 7957  24.698   5.322   2.843
36429W        W 7958  22.643  11.397  12.521
36430W        W 7959  13.318   0.781  12.028
36431W        W 7960  40.336   8.427   4.611
36432W        W 7961   4.242  39.197  11.089
36433W        W 7962  44.403  16.253  14.453
36434W        W 7963  20.180  28.397  10.597
36435W        W 7964   2.699  20.585   2.717
36436W        W 7965  42.898   0.939  11.673
36437W        W 7966  21.867  34.932   3.686
36438W        W 7967  41.457  30.656   1.007
36439W        W 7968  35.120  36.075  14.462
36440W        W 7969  15.323  28.956  14.670
36441W        W 7970  11.451  25.125  13.403
36442W        W 7971   4.901   6.693  12.832
36443W        W 7972  31.948   0.017   4.615
36444W        W 7973  13.757  23.153  14.356
36445W        W 7974   6.164  33.357   1.684
36446W        W 7975   2.298  13.147  13.625
36447W        W 7976   3.111  31.411  11.136
36448W        W 7977   1.759  15.375   4.320
36449W        W 7978  38.233   6.486   1.123
36450W        W 7979  40.238   9.162  11.451
36451W        W 7980  30.368  43.212  12.352
36452W        W 7981  18.064   0.445  13.530
36453W        W 7982  33.748   9.756   2.880
36454W        W 7983  20.615  30.119   5.044
36455W        W 7984  15.870  18.343  14.781
36456W        W 7985  29.234  10.303   4.207
36457W        W 7986  17.807   2.554  10.955
36458W        W 7987  16.765  33.674   0.313
36459W        W 7988  41.848  10.203  11.163
36460W        W 7989  24.553  10.360   4.676
36461W        W 7990  26.988  12.760   1.834
36462W        W 7991   3.329  27.157   2.259
36463W        W 7992  11.365   6.759   3.411
36464W        W 7993  19.569  35.237  14.391
36465W        W 7994   2.478  24.896   3.377
36466W        W 7995  10.377  35.787   4.871
36467W        W 7996  42.284   1.885   0.910
36468W        W 7997  24.035  17.658  11.111
36469W        W 7998  41.042  14.076  12.528
36470W        W 7999  33.936  15.806   0.846
36471W        W 8000  42.432  16.113   4.272
36472W        W 8001  28.932  32.017  13.367
36473W        W 8002  11.261  17.373  11.202
36474W        W 8003  39.174  44.386   3.246
36475W        W 8004   4.274  20.141   0.416
36476W        W 8005  16.132   5.043   3.314
36477W        W 8006  23.710   2.655   1.637
36478W        W 8007  36.887  19.682  12.164
36479W        W 8008  11.574  26.550   3.795
36480W        W 8009   6.953  27.157  11.264
36481W        W 8010  16.688  31.901   0.795
36482W        W 8011  14.243   8.362  14.334
36483W        W 8012   0.756  43.767  11.646
36484W        W 8013  40.472  19.068  13.880
36485W        W 8014  15.117  24.393   2.722
36486W        W 8015  26.183   5.159   1.383
36487W        W 8016  39.690  43.104  11.996
36488W        W 8017   0.559  24.646   1.448
36489W        W 8018  42.446  35.254   4.264
36490W        W 8019  36.129  10.585   1.394
36491W        W 8020  13.330   7.867  12.838
36492W        W 8021  16.801  35.138   1.130
36493W        W 8022   6.400   6.821   1.954
36494W        W 8023  21.020  26.382   2.749
36495W        W 8024  27.191  20.325   0.324
36496W        W 8025  39.374  17.571   3.398
36497W        W 8026  26.684  14.730  11.931
36498W        W 8027  35.478  39.090   1.257
36499W        W 8028   6.068  38.014  12.160
36500W        W 8029   4.256  43.405  14.466
36501W        W 8030  24.994   6.917  13.137
36502W        W 8031  35.006  31.909   0.023
36503W        W 8032  27.067  16.171   1.006
36504W        W 8033  22.126   9.400  14.127
36505W        W 8034  11.247  17.464   1.733
36506W        W 8035  22.990  34.624  11.090
36507W        W 8036  12.917  20.341   4.353
36508W        W 8037  11.132  18.865   3.899
36509W        W 8038   3.770   0.222   0.837
36510W        W 8039  18.665  25.464  10.862
36511W        W 8040  15.644  33.669  13.585
36512W        W 8041   2.409   9.896   0.657
36513W        W 8042   2.882  19.170   4.298
36514W        W 8043  10.322  23.621  14.937
36515W        W 8044  15.367  22.786  13.940
36516W        W 8045  24.261  18.764  14.431
36517W        W 8046   0.989  10.677   3.198
36518W        W 8047  17.598  26.976   4.625
36519W        W 8048  11.702  26.072  13.757
36520W        W 8049  12.823   2.288   3.582
36521W        W 8050  44.660  21.768   4.391
36522W        W 8051  30.698  15.408  13.923
36523W        W 8052  43.555  15.752  14.790
36524W        W 8053  37.391   8.073   1.292
36525W        W 8054   9.332  43.954   3.124
36526W        W 8055  31.005   1.473  11.527
36527W        W 8056  19.620  10.946   4.230
36528W        W 8057   9.962  38.399  12.141
36529W        W 8058  35.269  23.801  13.899
36530W        W 8059   9.347   1.215  11.493
36531W        W 8060  19.071  38.538   2.240
36532W        W 8061  14.321  38.822  11.495
36533W        W 8062   6.220  14.675   0.524
36534W        W 8063  42.888  31.917   1.980
36535W        W 8064  39.089  30.008  12.330
36536W        W 8065  31.325  17.709   4.908
36537W        W 8066  16.563   3.812   1.213
36538W        W 8067  41.539  18.010  13.586
36539W        W 8068  41.780  12.662   0.852
36540W        W 8069   0.136   8.902  13.283
36541W        W 8070  28.155   0.205  10.600
36542W        W 8071  26.564   9.708  14.841
36543W        W 8072  12.052   9.306  13.038
36544W        W 8073  32.399   4.705  13.816
36545W        W 8074   3.719   5.958  14.406
36546W        W 8075  30.653   4.304  14.968
36547W        W 8076  16.820  37.846  13.598
36548W        W 8077  18.814  14.866  14.414
36549W        W 8078  14.460  43.900  12.899
36550W        W 8079  19.027  39.291  13.427
36551W        W 8080  41.586  11.787   3.764
36552W        W 8081  36.402  19.748  12.315
36553W        W 8082  33.906   5.334  13.416
36554W        W 8083   3.473  44.368  11.380
36555W        W 8084  33.195  21.979  13.172
36556W        W 8085  43.825   9.323  14.440
36557W        W 8086   1.740  16.247  12.869
36558W        W 8087  30.880  22.080   1.776
36559W        W 8088  16.964  12.223  11.932
36560W        W 8089   6.680  36.199   3.763
36561W        W 8090  23.316  25.491  13.131
36562W        W 8091   3.802  20.018  13.323
36563W        W 8092  25.567  11.180  12.106
36564W        W 8093  31.387  25.624   2.669
36565W        W 8094   1.122  26.165   0.298
36566W        W 8095  16.643   0.644  12.597
36567W        W 8096   6.184  17.656   1.825
36568W        W 8097  10.443  27.606  13.670
36569W        W 8098   4.465  17.115  12.634
36570W        W 8099  37.782  36.189  14.354
36571W        W 8100  40.379   0.760  13.276
36572W        W 8101  17.695  21.982  11.623
36573W        W 8102  13.858   1.181   2.702
36574W        W 8103  41.862  40.575  13.829
36575W        W 8104  33.167  36.833   0.496
36576W        W 8105  10.352  38.829  12.906
36577W        W 8106  14.291   5.463   0.432
36578W        W 8107  30.721  33.404  14.210
36579W        W 8108  28.954  11.419  14.287
36580W        W 8109  41.936   5.393  13.580
36581W        W 8110  19.290   5.676  10.866
36582W        W 8111   6.325  29.448  13.089
36583W        W 8112   2.225   9.701   2.673
36584W        W 8113  40.952  13.109  14.008
36585W        W 8114  41.213  27.590   2.860
36586W        W 8115  42.049  37.513  14.600
36587W        W 8116  33.423  21.683   1.547
36588W        W 8117  24.440  42.469   2.279
36589W        W 8118   1.276  16.282  11.615
36590W        W 8119  38.011  44.495  14.915
36591W        W 8120   2.934  27.893  11.351
36592W        W 8121   9.283  40.410  11.924
36593W        W 8122  10.222   0.934   2.922
36594W        W 8123  44.971  21.203  10.479
36595W        W 8124  18.066  43.287  10.581
36596W        W 8125   9.886  34.089  12.990
36597W        W 8126  42.279  32.483  13.656
36598W        W 8127  26.199  26.556   1.855
36599W        W 8128  35.765  15.065  14.759
36600W        W 8129   7.275  32.497   2.621
36601W        W 8130  30.420  40.381   1.193
36602W        W 8131  42.801  18.707   0.752
36603W        W 8132  25.010  27.051   1.021
36604W        W 8133  44.608   6.469  12.138
36605W        W 8134  42.131  39.005  14.425
36606W        W 8135  16.024  10.710   3.033
36607W        W 8136  36.436  38.433  11.158
36608W        W 8137   7.756  25.969  11.573
36609W        W 8138  14.055  39.007  12.056
36610W        W 8139   0.814  23.896  11.199
36611W        W 8140  21.478  27.039  12.032
36612W        W 8141   2.965  37.801   4.073
36613W        W 8142  18.052  17.024   3.760
36614W        W 8143  11.245  13.671  13.457
36615W        W 8144  42.720  42.144   5.046
36616W        W 8145  37.671   7.428  11.148
36617W        W 8146  22.424  12.787  11.176
36618W        W 8147  39.289   7.598  12.934
36619W        W 8148  22.978  33.453  14.422
36620W        W 8149  44.024   5.319   4.868
36621W        W 8150  33.960  32.516   4.368
36622W        W 8151  32.806   4.570   3.501
36623W        W 8152  23.034  16.030  13.452
36624W        W 8153  42.013   6.266   0.837
36625W        W 8154  20.694  27.061   1.749
36626W        W 8155  10.269  30.826  14.747
36627W        W 8156  14.921  11.834  10.000
36628W        W 8157  22.711   2.792   4.866
36629W        W 8158  28.541  17.276   1.805
36630W        W 8159  33.847  43.215   2.623
36631W        W 8160  23.490  29.525   3.287
36632W        W 8161  29.265   2.286   3.130
36633W        W 8162  29.123  20.007   3.615
36634W        W 8163  31.460   2.619  13.555
36635W        W 8164  31.606   4.442   1.648
36636W        W 8165  32.475  13.674   2.905
36637W        W 8166  17.813  15.043  11.202
36638W        W 8167  27.422  41.319   4.390
36639W        W 8168  19.522  17.262   1.326
36640W        W 8169  41.031  44.728   2.435
36641W        W 8170  21.232  26.209  10.732
36642W        W 8171  41.925  19.302   1.415
36643W        W 8172  23.799  37.482  13.990
36644W        W 8173  39.065  31.637   1.879
36645W        W 8174  44.038  18.477   1.880
36646W        W 8175   3.016  10.082   4.163
36647W        W 8176  44.258   5.760  13.299
36648W        W 8177  25.561  18.095   3.115
36649W        W 8178  26.872  10.812   4.101
36650W        W 8179  43.114  10.763  14.492
36651W        W 8180  42.398   9.864   2.907
36652W        W 8181  16.623   3.503   0.804
36653W        W 8182  39.682  41.048   3.657
36654W        W 8183  39.778  22.573  12.406
36655W        W 8184   2.769  23.641  14.875
36656W        W 8185  36.631  14.389   1.948
36657W        W 8186  42.314   1.357   0.787
36658W        W 8187  27.561  35.931  11.896
36659W        W 8188   7.704   1.479   3.673
36660W        W 8189  34.121  14.644  11.137
36661W        W 8190  30.366  32.928  13.059
36662W        W 8191  42.460  12.701  14.398
36663W        W 8192  12.747  44.756   9.958
36664W        W 8193  17.765  26.123   0.346
36665W        W 8194   1.780  27.484   3.655
36666W        W 8195  33.063  21.422  14.047
36667W        W 8196   2.520   8.943  13.323
36668W        W 8197  12.868  41.515  11.966
36669W        W 8198  24.431  23.977  11.889
36670W        W 8199  30.619  26.905   3.671
36671W        W 8200  15.591  12.700   2.799
36672W        W 8201  11.022   3.483   4.853
36673W        W 8202  33.356  27.148   0.433
36674W        W 8203   3.741   5.625   4.749
36675W        W 8204  25.176  37.796  11.779
36676W        W 8205  44.858   4.261   3.388
36677W        W 8206  44.411   9.685   3.710
36678W        W 8207  15.618   4.173  10.621
36679W        W 8208   0.292  32.854   4.092
36680W        W 8209  28.704  23.605   1.212
36681W        W 8210  24.560  23.828   0.832
36682W        W 8211  14.146   5.440   2.743
36683W        W 8212  15.059  31.592   4.160
36684W        W 8213  35.064  36.421   4.630
36685W        W 8214  44.498  22.239   0.282
36686W        W 8215  44.767  34.014   3.720
36687W        W 8216  29.184  11.869  12.051
36688W        W 8217  41.095   5.944   4.572
36689W        W 8218  25.879  38.982  14.409
36690W        W 8219  36.391  43.838  11.471
36691W        W 8220   5.305  42.560  14.466
36692W        W 8221  38.085   2.894  11.984
36693W        W 8222  26.766  39.161  13.352
36694W        W 8223  18.529  29.383  10.936
36695W        W 8224  21.284  41.454  12.981
36696W        W 8225  28.915  22.405   1.864
36697W        W 8226   1.067  35.642  11.529
36698W        W 8227   7.876   8.009  12.585
36699W        W 8228  27.648  29.721   3.587
36700W        W 8229  43.423  44.903   2.651
36701W        W 8230   0.498  35.517   4.591
36702W        W 8231  31.501  21.911   4.110
36703W        W 8232  17.900   9.931   4.873
36704W        W 8233  44.846   2.717   0.474
36705W        W 8234  36.242  19.003   4.183
36706W        W 8235  44.485  17.988   2.835
36707W        W 8236  16.486  19.954  14.334
36708W        W 8237   1.913  42.790   3.639
36709W        W 8238  28.121   1.310  10.206
36710W        W 8239  36.231  35.403  11.082
36711W        W 8240  21.033   9.632   4.181
36712W        W 8241  31.649  14.778   2.795
36713W        W 8242  16.109  11.616  14.930
36714W        W 8243   2.526  28.680   3.428
36715W        W 8244  29.244   0.427  14.700
36716W        W 8245  10.499  31.619  11.962
36717W        W 8246  12.643  25.520   0.962
36718W        W 8247  22.574  27.893  13.375
36719W        W 8248  25.052  14.669   3.194
36720W        W 8249  43.638   5.219   1.243
36721W        W 8250   9.225   0.870   0.232
36722W        W 8251  12.298   6.934  13.514
36723W        W 8252  32.170   0.075   2.260
36724W        W 8253   7.980  14.326   1.802
36725W        W 8254   4.257  27.789  13.728
36726W        W 8255  11.243  21.685   2.443
36727W        W 8256  19.059   8.725   4.590
36728W        W 8257  25.282  20.971   1.805
36729W        W 8258  28.427  18.555   2.384
36730W        W 8259  33.008   9.175   3.237
36731W        W 8260  44.219   9.454   2.371
36732W        W 8261  44.298  40.714   2.277
36733W        W 8262  33.827   3.781   2.927
36734W        W 8263  39.076  22.337   4.939
36735W        W 8264  10.885   4.478  14.888
36736W        W 8265  20.725  10.877   3.231
36737W        W 8266   9.987  12.298  13.966
36738W        W 8267  25.154  17.159   0.474
36739W        W 8268  43.591   1.561   2.556
36740W        W 8269  36.548  10.373  12.555
36741W        W 8270  38.435  18.160   3.108
36742W        W 8271  39.981  34.526  14.321
36743W        W 8272  29.962  36.539   4.635
36744W        W 8273   7.368  25.116   3.569
36745W        W 8274  35.873   5.901   4.195
36746W        W 8275  43.221  10.826  13.064
36747W        W 8276  28.811  16.486   3.258
36748W        W 8277   7.753  43.000   3.142
36749W        W 8278  21.527  13.202   0.900
36750W        W 8279  14.684  37.026  12.850
36751W        W 8280  26.691  28.180   2.364
36752W        W 8281   1.669   6.053   0.443
36753W        W 8282  18.777  12.390  11.178
36754W        W 8283  33.303  24.493   3.589
36755W        W 8284  35.360  15.840  11.427
36756W        W 8285  40.005  35.768  12.958
36757W        W 8286  42.404  38.303   1.696
36758W        W 8287  35.114  42.349   4.076
36759W        W 8288   6.145  36.465   4.177
36760W        W 8289   6.027  42.039   4.376
36761W        W 8290  32.676  22.248   2.322
36762W        W 8291  34.688  40.562  14.537
36763W        W 8292  28.669  33.151   2.552
36764W        W 8293  11.255  19.109  13.416
36765W        W 8294  23.925  29.731  14.513
36766W        W 8295   8.306  21.713  14.396
36767W        W 8296  21.568  29.109  12.405
36768W        W 8297   7.897  11.111  14.235
36769W        W 8298   9.589  42.179   0.951
36770W        W 8299  12.689  19.144  13.276
36771W        W 8300  18.485   0.902   1.761
36772W        W 8301  26.699  31.062   2.821
36773W        W 8302  22.911  20.746   3.822
36774W        W 8303  15.807  15.670  14.468
36775W        W 8304   5.446   5.804  11.993
36776W        W 8305  33.247   1.904   3.435
36777W        W 8306  19.546  14.849  13.815
36778W        W 8307  22.791  38.688  10.348
36779W        W 8308   0.683  13.625  10.984
36780W        W 8309  27.525  41.282  12.671
36781W        W 8310  10.147  25.288  12.851
36782W        W 8311   6.497  37.287  12.880
36783W        W 8312   5.779  17.664  11.130
36784W        W 8313  22.042   0.839  13.045
36785W        W 8314  31.059  38.937   1.934
36786W        W 8315  22.614  35.879   4.272
36787W        W 8316  30.533  32.057  14.009
36788W        W 8317   1.029   6.315   1.780
36789W        W 8318  22.530   2.983  12.873
36790W        W 8319  33.830  43.283  13.421
36791W        W 8320  42.395  14.871   0.972
36792W        W 8321  16.079  11.681  14.083
36793W        W 8322  10.233   6.807  13.701
36794W        W 8323  18.469  26.475  12.317
36795W        W 8324  24.517   5.939  13.968
36796W        W 8325  31.518  40.978  10.713
36797W        W 8326  16.132   7.588  11.665
36798W        W 8327   6.328  43.676  14.913
36799W        W 8328  34.015  24.904   1.113
36800W        W 8329  18.799   8.321  14.996
36801W        W 8330  23.509  13.832  14.401
36802W        W 8331   9.717  19.044  10.688
36803W        W 8332  21.139  32.664  11.675
36804W        W 8333   4.059  22.653  10.825
36805W        W 8334  17.140  41.456   1.707
36806W        W 8335  39.823  21.352  12.908
36807W        W 8336   2.778  34.675   3.512
36808W        W 8337  30.025  37.578   4.479
36809W        W 8338   0.649  15.723  10.662
36810W        W 8339  28.558  28.137   4.315
36811W        W 8340   2.434  32.087   3.382
36812W        W 8341  23.565  26.559  11.153
36813W        W 8342  23.595  39.054  14.485
36814W        W 8343  37.958  44.879  12.032
36815W        W 8344  32.372  44.034   1.422
36816W        W 8345  22.630  36.381   4.405
36817W        W 8346  19.097  34.038  11.111
36818W        W 8347  22.752  15.709  13.811
36819W        W 8348  22.335  35.567   0.609
36820W        W 8349   9.116   9.835  12.010
36821W        W 8350  39.955  23.270   0.409
36822W        W 8351   3.953  44.985   0.406
36823W        W 8352  21.172  21.220  11.335
36824W        W 8353  33.840   1.816   2.311
36825W        W 8354  43.847  16.320  14.969
36826W        W 8355  39.364  40.011   1.940
36827W        W 8356  37.928  21.345  13.859
36828W        W 8357   5.401  34.894   1.379
36829W        W 8358  43.516   4.177   1.216
36830W        W 8359  27.734  19.045   2.676
36831W        W 8360  35.003  25.255   2.699
36832W        W 8361   2.459   0.927   0.492
36833W        W 8362  41.255  16.208   2.698
36834W        W 8363  36.866  13.148   2.396
36835W        W 8364  30.595  12.840  10.289
36836W        W 8365  21.901  24.299   2.894
36837W        W 8366  13.441  37.629  12.381
36838W        W 8367  41.276  44.255   2.138
36839W        W 8368  39.547   2.828   0.402
36840W        W 8369  20.276  21.106   3.279
36841W        W 8370  32.402  43.907  12.898
36842W        W 8371  34.071   3.153   2.169
36843W        W 8372  13.670   2.174   2.656
36844W        W 8373   9.375  22.515   3.707
36845W        W 8374   5.967  14.388  10.757
36846W        W 8375  35.883   3.179  12.552
36847W        W 8376   4.679  17.814   3.693
36848W        W 8377  43.582  30.388   1.503
36849W        W 8378  42.515  13.162   0.965
36850W        W 8379   2.231  21.309  11.948
36851W        W 8380   8.256  29.951  14.891
36852W        W 8381   9.243  15.177  11.681
36853W        W 8382  19.003   0.156  11.882
36854W        W 8383  43.766  44.995  10.940
36855W        W 8384  30.001  38.418   4.061
36856W        W 8385   0.165   3.914  10.711
36857W        W 8386  37.151  37.779   0.415
36858W        W 8387  27.488   8.393  11.043
36859W        W 8388   0.006  43.447   0.169
36860W        W 8389   5.009  12.239  11.574
36861W        W 8390   3.249  31.887  11.049
36862W        W 8391  29.716   0.332  10.737
36863W        W 8392  37.099  17.762   1.048
36864W        W 8393  42.404  21.023   0.982
36865W        W 8394  26.181  15.786   0.829
36866W        W 8395   5.910  39.232   4.232
36867W        W 8396  29.823  31.137   2.376
36868W        W 8397  38.323  15.868  13.876
36869W        W 8398   5.399   9.354  13.249
36870W        W 8399  14.616  15.140   0.939
36871W        W 8400  12.417  37.430  13.382
36872W        W 8401  36.394   9.569  11.162
36873W        W 8402   8.242  19.585   4.257
36874W        W 8403  28.903   8.065  10.949
36875W        W 8404  39.025  33.995   3.791
36876W        W 8405   5.611  24.965   0.295
36877W        W 8406  30.903   8.364  13.582
36878W        W 8407  40.560  28.182   0.472
36879W        W 8408   9.253  40.777  11.272
36880W        W 8409  31.167   7.143  14.184
36881W        W 8410  11.432  19.038   3.406
36882W        W 8411  26.873  12.266  14.036
36883W        W 8412  35.366  23.024  11.676
36884W        W 8413  14.151  31.934   4.185
36885W        W 8414  25.513  33.439  10.466
36886W        W 8415  13.361  37.598  13.413
36887W        W 8416  42.439  11.918   1.028
36888W        W 8417  23.281  30.453  14.893
36889W        W 8418  22.777  15.164   1.854
36890W        W 8419  23.809  35.519  13.007
36891W        W 8420  37.475   3.295   3.217
36892W        W 8421   5.094  16.681  12.892
36893W        W 8422  44.227  39.065  13.497
36894W        W 8423  39.752  11.241  12.036
36895W        W 8424  16.813   8.288   3.260
36896W        W 8425  18.073  26.637   3.373
36897W        W 8426  14.181  28.379  10.932
36898W        W 8427   1.859   6.721   0.894
36899W        W 8428  25.045   3.936   4.798
36900W        W 8429  30.154  26.977   2.871
36901W        W 8430   0.808  35.632   5.007
36902W        W 8431  20.760  38.737   5.061
36903W        W 8432  39.389  29.000   2.738
36904W        W 8433  30.834  20.490  11.543
36905W        W 8434  36.078  28.927  12.003
36906W        W 8435  37.632  12.643   4.391
36907W        W 8436  29.380   3.384  10.867
36908W        W 8437  24.548   7.067   3.332
36909W        W 8438  25.618  27.941  14.336
36910W        W 8439  17.383  31.357  13.936
36911W        W 8440  10.129  16.310  12.378
36912W        W 8441  15.257   2.284  12.036
36913W        W 8442  38.464  14.618  11.161
36914W        W 8443  32.348  41.496  14.350
36915W        W 8444  17.246   0.079   3.687
36916W        W 8445  19.036  16.752   0.305
36917W        W 8446  36.039  23.488   3.645
36918W        W 8447   0.368  40.912  14.930
36919W        W 8448  33.006  21.476  10.305
36920W        W 8449  28.241  33.068  12.961
36921W        W 8450  37.502   8.973  14.000
36922W        W 8451  37.345  35.451   0.720
36923W        W 8452  44.342  40.913   3.755
36924W        W 8453  16.305  43.439  14.300
36925W        W 8454  38.028  26.188  14.256
36926W        W 8455   3.967  42.797  13.287
36927W        W 8456   4.340  36.837   0.561
36928W        W 8457  14.680  19.997   1.750
36929W        W 8458  41.795  36.500  13.490
36930W        W 8459  20.647  14.396   1.242
36931W        W 8460   3.702   9.697   4.174
36932W        W 8461  33.324   2.967  11.581
36933W        W 8462  36.584  11.394   4.020
36934W        W 8463  36.375  40.294  14.785
36935W        W 8464  33.448  41.287   3.545
36936W        W 8465   7.415  39.324   0.496
36937W        W 8466  43.121  32.971  13.328
36938W        W 8467   7.807  26.653   2.876
36939W        W 8468  38.439  12.968  13.993
36940W        W 8469  32.033  38.026   4.145
36941W        W 8470   9.916  17.670   1.660
36942W        W 8471  25.822  22.463  12.479
36943W        W 8472  22.220  28.385  14.488
36944W        W 8473  10.948  15.349   0.829
36945W        W 8474   3.252  32.424  10.448
36946W        W 8475   7.883  19.241   1.805
36947W        W 8476   2.339  12.550  11.528
36948W        W 8477  20.812   9.082  12.755
36949W        W 8478   0.095   6.028  13.379
36950W        W 8479  14.831   7.377   4.236
36951W        W 8480   3.773  29.408  14.468
36952W        W 8481  22.284   8.477   4.678
36953W        W 8482  18.487  19.241   3.778
36954W        W 8483  18.757  12.308  14.859
36955W        W 8484  42.290  40.321  13.975
36956W        W 8485  35.817  11.007   3.181
36957W        W 8486  30.907  23.065  13.924
36958W        W 8487  39.418  38.784   3.315
36959W        W 8488   3.664  31.905  12.987
36960W        W 8489  43.781  10.803   2.489
36961W        W 8490  32.278  37.199  10.414
36962W        W 8491  29.046  13.434  13.024
36963W        W 8492   1.355  16.837  11.209
36964W        W 8493  31.136  26.389   1.799
36965W        W 8494  21.916  25.840  12.113
36966W        W 8495  10.977   0.426  10.695
36967W        W 8496  38.619   3.359   1.285
36968W        W 8497  12.322  24.624   0.054
36969W        W 8498  43.228  24.309  12.360
36970W        W 8499  11.096   9.220  11.177
36971W        W 8500   4.196  30.518   0.003
36972W        W 8501   6.401   6.266   1.796
36973W        W 8502  36.537  31.765  13.783
36974W        W 8503   4.121  23.685   3.206
36975W        W 8504  41.051  31.422   1.973
36976W        W 8505  15.324  20.778  13.529
36977W        W 8506  40.835  33.501  12.413
36978W        W 8507  12.170  37.443  12.132
36979W        W 8508  18.754  26.340  11.926
36980W        W 8509  20.094  36.997  12.408
36981W        W 8510  26.022  32.506   3.676
36982W        W 8511  41.842   4.999   1.272
36983W        W 8512  19.230  13.742   1.353
36984W        W 8513  17.801  24.502  11.609
36985W        W 8514  42.263   9.746   0.910
36986W        W 8515   4.870  24.292   0.919
36987W        W 8516  27.030  39.498  12.891
36988W        W 8517  36.878   2.923  13.700
36989W        W 8518  27.645  25.735  13.729
36990W        W 8519  28.046   7.579   3.891
36991W        W 8520  21.928  28.546   0.902
36992W        W 8521   9.878   4.237  11.223
36993W        W 8522   8.171  27.530   1.914
36994W        W 8523  39.032  20.224   3.869
36995W        W 8524  18.195   4.880   0.337
36996W        W 8525  29.040  20.060   4.590
36997W        W 8526  40.043   4.227   0.414
36998W        W 8527  12.581  30.395   0.005
36999W        W 8528  11.994  12.289   4.708
37000W        W 8529  26.884  14.253   4.428
37001W        W 8530  33.964   6.353  12.302
37002W        W 8531  26.559  13.560   3.640
37003W        W 8532  31.669   6.915   4.168
37004W        W 8533  44.384  39.299  12.620
37005W        W 8534  14.089  36.606  12.586
37006W        W 8535  25.083  24.126   4.951
37007W        W 8536  15.175  12.764  14.828
37008W        W 8537   3.244  15.343   4.541
37009W        W 8538   9.050  20.711  14.987
37010W        W 8539  26.943   5.320  12.348
37011W        W 8540  27.108  40.572   3.349
37012W        W 8541  22.198  26.933  12.652
37013W        W 8542   9.207  22.589   3.189
37014W        W 8543  20.274   9.837   4.535
37015W        W 8544   8.404   7.739   4.660
37016W        W 8545  11.872  35.842  13.044
37017W        W 8546   0.946  38.430  11.738
37018W        W 8547  38.742  12.309   1.873
37019W        W 8548   6.750  37.847   4.102
37020W        W 8549  32.627  26.186   0.771
37021W        W 8550  30.828  28.348   2.627
37022W        W 8551   7.576   9.297  11.128
37023W        W 8552  31.153   6.186  13.860
37024W        W 8553  26.110   4.263   2.232
37025W        W 8554  29.634  44.379  10.475
37026W        W 8555  22.097  20.737   4.207
37027W        W 8556  15.290  12.219   4.102
37028W        W 8557  43.008   7.721  13.381
37029W        W 8558  28.352   0.765  11.447
37030W        W 8559  19.707  12.882   3.742
37031W        W 8560  30.853   0.911   3.760
37032W        W 8561  23.659  31.753  14.816
37033W        W 8562  30.452  17.495  14.865
37034W        W 8563  35.793  35.247   0.818
37035W        W 8564  28.344  21.522  11.702
37036W        W 8565  21.862  12.799   4.527
37037W        W 8566  22.061  16.567  14.757
37038W        W 8567   9.768  39.558  11.597
37039W        W 8568  30.899  21.496   0.080
37040W        W 8569  25.971  25.602  11.659
37041W        W 8570   4.019   5.906   2.035
37042W        W 8571  32.469  23.457  14.010
37043W        W 8572  40.867  15.543  11.846
37044W        W 8573  39.067   0.673   0.933
37045W        W 8574  12.673  15.731   2.463
37046W        W 8575  30.158  24.932  11.874
37047W        W 8576   1.716  44.895  14.284
37048W        W 8577  24.756   9.174  11.604
37049W        W 8578   5.852  28.957   1.705
37050W        W 8579   1.382   8.842   1.939
37051W        W 8580  27.981  17.635   2.369
37052W        W 8581  27.727   0.992  10.030
37053W        W 8582  10.793  12.769  12.917
37054W        W 8583  12.333  37.670  11.702
37055W        W 8584  26.311  15.524   3.612
37056W        W 8585  10.752  39.340  12.551
37057W        W 8586  25.543  17.607  13.529
37058W        W 8587  14.713  36.413   3.155
37059W        W 8588  29.802   2.930   2.816
37060W        W 8589   3.368  31.515  14.913
37061W        W 8590  11.434  25.264   3.905
37062W        W 8591  21.095  27.493   3.763
37063W        W 8592   9.332  11.191  12.455
37064W        W 8593  17.818  31.513   2.234
37065W        W 8594  14.936  35.874  13.936
37066W        W 8595  23.209  42.209  12.405
37067W        W 8596   9.231  16.209   3.555
37068W        W 8597  43.355  29.932   2.384
37069W        W 8598   6.235  18.557  11.190
37070W        W 8599  27.612  25.221  14.950
37071W        W 8600  30.768   1.980  14.537
37072W        W 8601  39.353   3.765   1.966
37073W        W 8602  20.725   1.499   1.863
37074W        W 8603  39.550  32.594  14.927
37075W        W 8604  36.813  13.435  14.647
37076W        W 8605  37.643  33.605  10.621
37077W        W 8606  35.610  32.050   4.221
37078W        W 8607  17.868  21.576   1.236
37079W        W 8608  40.807   8.895  14.428
37080W        W 8609  10.418  32.087   2.652
37081W        W 8610  36.522  30.377   2.841
37082W        W 8611  37.302  21.453  12.274
37083W        W 8612  33.412   6.810   3.684
37084W        W 8613  35.539   0.974  13.631
37085W        W 8614  40.753  32.953  14.366
37086W        W 8615   7.592  27.280  11.934
37087W        W 8616   1.078   1.410  14.354
37088W        W 8617  39.988   4.756   4.655
37089W        W 8618  38.568  39.640   2.690
37090W        W 8619  28.207  34.095  13.348
37091W        W 8620  11.401  44.486  14.100
37092W        W 8621  20.479   1.224   4.601
37093W        W 8622  15.638  20.900   1.939
37094W        W 8623  30.154  40.445   3.157
37095W        W 8624  39.012  20.745   1.105
37096W        W 8625  27.905  11.594  10.264
37097W        W 8626  24.553  42.626  10.590
37098W        W 8627  13.239  14.862   4.120
37099W        W 8628  22.334  33.018  10.632
37100W        W 8629  19.665   6.823  13.339
37101W        W 8630  41.426  16.315  12.309
37102W        W 8631   4.368   5.394  11.548
37103W        W 8632  15.053   5.190   3.577
37104W        W 8633   1.443   2.168   1.478
37105W        W 8634  19.986   6.867  12.076
37106W        W 8635   5.865  25.264  11.426
37107W        W 8636   2.244   5.794  12.957
37108W        W 8637  27.258  25.950   3.213
37109W        W 8638  18.559   6.377   5.027
37110W        W 8639  16.176   6.732   4.679
37111W        W 8640  41.219  31.162   1.517
37112W        W 8641  13.700  18.744  11.122
37113W        W 8642   7.719  30.500  11.130
37114W        W 8643  38.159  13.206   0.847
37115W        W 8644  20.086  20.090   4.683
37116W        W 8645   8.308   5.172  11.556
37117W        W 8646  22.643   0.471  12.474
37118W        W 8647  25.587  44.373  10.103
37119W        W 8648  43.448   1.403   4.488
37120W        W 8649  38.359  16.677  12.863
37121W        W 8650   3.013  20.715  13.540
37122W        W 8651  25.935   5.013   0.416
37123W        W 8652  33.876  17.681  11.064
37124W        W 8653   1.172   0.925   0.951
37125W        W 8654  44.582  23.729   0.181
37126W        W 8655  14.814  34.536   3.242
37127W        W 8656  22.881  10.328   5.061
37128W        W 8657  21.583  12.381  12.026
37129W        W 8658   3.877  23.688   3.662
37130W        W 8659  17.808  19.579   4.305
37131W        W 8660  10.559  12.714   5.036
37132W        W 8661  39.429   6.894  13.511
37133W        W 8662  14.229  44.876  14.858
37134W        W 8663  30.352   4.288  11.159
37135W        W 8664  32.898  41.423   3.649
37136W        W 8665  33.917  32.028  14.296
37137W        W 8666  13.171  10.019  11.988
37138W        W 8667  21.286   7.081   1.217
37139W        W 8668  31.514  35.479   0.854
37140W        W 8669   6.469   4.468  11.965
37141W        W 8670  14.128  26.645   0.269
37142W        W 8671  37.531  39.798  13.355
37143W        W 8672   6.283  12.109  14.266
37144W        W 8673   4.627   7.724  11.575
37145W        W 8674  33.074  11.770   0.893
37146W        W 8675   2.706  39.963   4.079
37147W        W 8676  41.456  34.934   2.891
37148W        W 8677   8.643  34.381   4.358
37149W        W 8678  11.996  38.815   0.268
37150W        W 8679  22.407  30.254   5.089
37151W        W 8680   3.844  36.173   4.566
37152W        W 8681  19.269  17.136  13.815
37153W        W 8682  11.231   8.823   3.218
37154W        W 8683  15.706  40.824  10.908
37155W        W 8684   1.642  15.293   1.989
37156W        W 8685  20.671  17.681  10.921
37157W        W 8686  15.845  14.093   2.283
37158W        W 8687  30.194   5.264  13.370
37159W        W 8688  32.557  44.224   0.817
37160W        W 8689  31.608  38.028  10.602
37161W        W 8690  27.413  38.814  10.270
37162W        W 8691  32.115  42.286  13.729
37163W        W 8692  44.270  20.191  12.256
37164W        W 8693  14.882  14.691   4.345
37165W        W 8694  18.438  20.187  11.464
37166W        W 8695  32.983   4.983   1.801
37167W        W 8696  42.446   0.797  12.083
37168W        W 8697  29.839   8.693   4.156
37169W        W 8698   0.211  44.495   2.805
37170W        W 8699  12.749  23.960  12.005
37171W        W 8700  21.680  44.302  13.068
37172W        W 8701  34.531  41.578  14.493
37173W        W 8702  13.887  35.719   2.322
37174W        W 8703  41.903  28.925   4.742
37175W        W 8704  31.671  44.512   1.737
37176W        W 8705  27.222   3.341   2.237
37177W        W 8706  40.240  18.320   0.464
37178W        W 8707  23.962  34.199  11.152
37179W        W 8708  18.084   7.830   0.446
37180W        W 8709  44.579  31.210   1.795
37181W        W 8710  22.439  23.176   2.891
37182W        W 8711   1.768  20.624   0.841
37183W        W 8712  35.140   8.921  12.959
37184W        W 8713  11.437  11.919  11.960
37185W        W 8714   9.338  41.425   4.694
37186W        W 8715  24.487  38.720   0.994
37187W        W 8716  41.128  35.347   2.869
37188W        W 8717  23.614   1.047  14.029
37189W        W 8718  28.569   2.433   3.685
37190W        W 8719  34.295  42.438  10.629
37191W        W 8720   1.462  12.107   3.329
37192W        W 8721  23.675   9.832   2.393
37193W        W 8722  30.633   1.958   0.075
37194W        W 8723   2.908   8.302   4.361
37195W        W 8724  24.466  33.616   0.616
37196W        W 8725   3.530  14.599   5.089
37197W        W 8726  20.237  36.365   3.348
37198W        W 8727  37.197  37.295  14.660
37199W        W 8728  23.073  25.739   4.465
37200W        W 8729  28.219  17.401  11.956
37201W        W 8730  42.499  33.428  10.661
37202W        W 8731   2.713  25.167  10.778
37203W        W 8732  25.259  23.641  12.969
37204W        W 8733  44.188  23.226  13.800
37205W        W 8734   4.672  42.390   9.888
37206W        W 8735  18.114  35.625  13.213
37207W        W 8736  35.666   9.900  10.744
37208W        W 8737  37.320  31.185  10.201
37209W        W 8738  35.749  34.410  11.992
37210W        W 8739  13.836  31.645   3.553
37211W        W 8740  23.236  16.917  11.694
37212W        W 8741  25.428   3.123   1.326
37213W        W 8742  25.404  39.435   1.420
37214W        W 8743   3.377  35.162  14.385
37215W        W 8744  40.926   2.458   4.384
37216W        W 8745  44.413   5.305   4.112
37217W        W 8746   4.860  11.649  11.212
37218W        W 8747  36.795  19.776   3.950
37219W        W 8748   2.046  19.033  14.485
37220W        W 8749  16.091  20.007   1.304
37221W        W 8750  24.439  43.720   4.417
37222W        W 8751  31.989  13.069  11.231
37223W        W 8752  10.889  37.908  11.327
37224W        W 8753  32.403  17.745   0.779
37225W        W 8754  28.331  15.613   3.975
37226W        W 8755   5.246   8.157  11.927
37227W        W 8756  33.611  22.276   0.368
37228W        W 8757  25.302  30.475   1.549
37229W        W 8758  14.007   1.346   1.391
37230W        W 8759  43.345   1.706  10.875
37231W        W 8760  23.204  26.161   2.642
37232W        W 8761  41.195  31.461  12.341
37233W        W 8762  43.451  27.962  10.205
37234W        W 8763   2.843   8.104  14.792
37235W        W 8764   4.160  18.795   0.935
37236W        W 8765  44.741  35.590   1.112
37237W        W 8766  26.302  16.161  12.036
37238W        W 8767  14.449  15.779   5.109
37239W        W 8768  42.278   5.380  10.439
37240W        W 8769  43.836  40.763  12.617
37241W        W 8770  23.308  33.122  10.463
37242W        W 8771  18.554  32.165  14.479
37243W        W 8772  28.027  23.841   4.817
37244W        W 8773  14.888   4.781   4.724
37245W        W 8774   2.811   7.538  11.660
37246W        W 8775   5.913  44.050   2.290
37247W        W 8776  14.895  32.840  13.542
37248W        W 8777  44.526  21.343   4.108
37249W        W 8778   1.248  31.128  14.758
37250W        W 8779  10.447  43.284  10.554
37251W        W 8780  15.017  36.398   1.219
37252W        W 8781  21.214  42.408  13.047
37253W        W 8782   3.311  13.288  13.128
37254W        W 8783  25.721   3.295  10.755
37255W        W 8784  20.657   8.173  14.415
37256W        W 8785  14.856  44.344  13.497
37257W        W 8786  26.975  16.220  14.554
37258W        W 8787  44.279  38.970   4.093
37259W        W 8788  43.935   6.322   0.460
37260W        W 8789  26.886  42.473  11.865
37261W        W 8790   2.628  20.580   0.218
37262W        W 8791  35.949  35.561   2.379
37263W        W 8792  18.521  34.459   1.652
37264W        W 8793  29.691  44.755   4.371
37265W        W 8794  30.157   5.840   4.588
37266W        W 8795   7.290  41.963  12.097
37267W        W 8796  30.808  40.552   4.459
37268W        W 8797   2.868  41.157   2.881
37269W        W 8798   8.230  12.723   3.204
37270W        W 8799  12.914  17.820  12.445
37271W        W 8800   3.519   8.681   1.487
37272W        W 8801  25.284  27.461   0.848
37273W        W 8802   8.805  16.351  14.837
37274W        W 8803  39.361  21.940   3.260
37275W        W 8804  36.704  15.119   1.836
37276W        W 8805   5.320  28.818   3.463
37277W        W 8806  20.572  15.749  11.559
37278W        W 8807  34.922  42.776   4.583
37279W        W 8808  23.109  39.946   1.378
37280W        W 8809  28.161   2.318  10.070
37281W        W 8810  29.683  38.736   4.311
37282W        W 8811   4.914  18.155   3.293
37283W        W 8812  32.682  34.012  13.072
37284W        W 8813  11.733  33.466   2.623
37285W        W 8814  32.267  33.743   3.618
37286W        W 8815  32.256  26.809   3.709
37287W        W 8816  23.401  16.245   3.030
37288W        W 8817  28.393  17.334   3.675
37289W        W 8818  29.915  37.424  14.433
37290W        W 8819   8.017  37.389   4.469
37291W        W 8820  40.757  37.137   2.264
37292W        W 8821   9.387  18.236  11.131
37293W        W 8822  16.757  24.290   0.270
37294W        W 8823  22.217  37.635  11.228
37295W        W 8824  44.253  16.186   1.452
37296W        W 8825  18.288  11.625  11.996
37297W        W 8826  29.303  15.697   4.930
37298W        W 8827  14.288  30.071  14.901
37299W        W 8828   6.370  41.213   1.352
37300W        W 8829   1.175  31.058  13.911
37301W        W 8830  29.423  12.050   0.388
37302W        W 8831  23.741  12.631   4.531
37303W        W 8832   6.929   3.176   3.860
37304W        W 8833  35.069  26.681  14.846
37305W        W 8834  28.115  42.924   2.345
37306W        W 8835   5.390   8.325   2.691
37307W        W 8836  25.796   0.900   1.784
37308W        W 8837  38.022   1.342   0.446
37309W        W 8838  17.681  18.252   0.427
37310W        W 8839  18.088  38.955   2.902
37311W        W 8840  39.983  13.275   1.656
37312W        W 8841  14.100  16.164   0.255
37313W        W 8842   8.817  43.982  10.880
37314W        W 8843  16.621  40.348   1.462
37315W        W 8844  33.108  26.549  13.489
37316W        W 8845  40.756  28.870   2.296
37317W        W 8846  24.706  31.006   2.655
37318W        W 8847  11.871  29.747  11.069
37319W        W 8848  11.796  11.389   2.804
37320W        W 8849  20.066  31.809  12.469
37321W        W 8850  44.446   4.413   1.596
37322W        W 8851  32.523  40.724  14.696
37323W        W 8852   0.766  31.366   1.599
37324W        W 8853   5.212  24.387   0.504
37325W        W 8854  26.436  42.873   4.067
37326W        W 8855  11.147  11.280   0.346
37327W        W 8856  23.907  26.146  11.428
37328W        W 8857  34.434  25.517   4.072
37329W        W 8858  11.918  26.884  10.002
37330W        W 8859  36.138  33.555  11.601
37331W        W 8860  19.844  29.601   3.238
37332W        W 8861   6.904  42.195   1.773
37333W        W 8862  40.845  26.460   4.780
37334W        W 8863  23.656   1.216   0.007
37335W        W 8864  39.809   2.491   1.759
37336W        W 8865  36.127  11.897  10.587
37337W        W 8866   3.321   2.889  11.009
37338W        W 8867  37.377  42.173  14.432
37339W        W 8868  26.433  36.392  10.680
37340W        W 8869  41.507  34.513  12.595
37341W        W 8870  42.856  10.121   5.443
37342W        W 8871  18.989  19.708  13.173
37343W        W 8872  35.159   3.563   2.757
37344W        W 8873   3.777  35.674   4.608
37345W        W 8874   4.672  23.355  11.036
37346W        W 8875  29.869  23.004  13.923
37347W        W 8876  21.454   2.156   1.528
37348W        W 8877  33.494  11.367  13.877
37349W        W 8878  36.524   6.713   2.686
37350W        W 8879  27.663  44.425   1.450
37351W        W 8880   4.357   7.117  12.081
37352W        W 8881  15.053  26.526   3.136
37353W        W 8882   2.458  11.134   1.464
37354W        W 8883   9.639  29.814   1.223
37355W        W 8884  32.095  24.192  10.787
37356W        W 8885  40.455  29.515  14.573
37357W        W 8886  36.210  43.864   2.141
37358W        W 8887  40.877   3.402  10.777
37359W        W 8888   3.930   7.882  12.080
37360W        W 8889  43.893  39.910   1.392
37361W        W 8890  37.833  40.924   2.804
37362W        W 8891  28.092   4.519   0.123
37363W        W 8892   6.280  17.597  11.170
37364W        W 8893  11.668  22.115   4.639
37365W        W 8894  33.666  13.720   4.260
37366W        W 8895  10.681  10.425  12.838
37367W        W 8896  18.828  39.361   1.677
37368W        W 8897  32.009  36.977   3.589
37369W        W 8898  26.655  26.155  12.967
37370W        W 8899   8.676  12.802  13.978
37371W        W 8900  11.770  11.084  13.906
37372W        W 8901  40.313  23.808   1.847
37373W        W 8902  13.175  10.578   4.013
37374W        W 8903   9.168  28.382   2.259
37375W        W 8904  21.111  29.418   3.510
37376W        W 8905  12.960  15.343  11.476
37377W        W 8906   5.873   2.110   4.713
37378W        W 8907  44.954   2.378   2.241
37379W        W 8908  38.882   7.991  13.965
37380W        W 8909  41.300  17.725  11.143
37381W        W 8910  40.232  25.508  14.441
37382W        W 8911  32.495  11.908  10.745
37383W        W 8912  18.069  34.348   3.122
37384W        W 8913  30.496   9.663  14.493
37385W        W 8914  34.591  30.373   3.079
37386W        W 8915   5.660  20.379   5.063
37387W        W 8916  22.237   7.607  14.919
37388W        W 8917  23.571  25.497  11.132
37389W        W 8918  35.396   7.253   4.604
37390W        W 8919   3.688  39.811   4.280
37391W        W 8920  38.073  40.475  11.287
37392W        W 8921  31.623   7.752   0.468
37393W        W 8922   8.547  11.116   0.836
37394W        W 8923  34.375  20.992  12.313
37395W        W 8924  37.373  23.019   3.148
37396W        W 8925  34.826  37.427  12.910
37397W        W 8926  13.151  17.679  12.020
37398W        W 8927  13.220  30.463  13.517
37399W        W 8928  23.671  24.031  10.684
37400W        W 8929  14.303   5.843   3.635
37401W        W 8930  21.710  36.379   4.329
37402W        W 8931  10.041   4.670   3.153
37403W        W 8932  10.694  32.032   1.964
37404W        W 8933   1.120  41.805  12.462
37405W        W 8934   5.734  10.667  14.491
37406W        W 8935  31.425  12.124   4.095
37407W        W 8936   8.179  30.478  10.923
37408W        W 8937  18.896  12.844  14.325
37409W        W 8938   4.095  11.243   0.754
37410W        W 8939  13.780  27.677   0.096
37411W        W 8940  17.595  19.755   2.743
37412W        W 8941   9.253  41.070  13.523
37413W        W 8942  28.418  33.939   4.089
37414W        W 8943  12.309   9.584   1.938
37415W        W 8944   7.924   6.802   2.303
37416W        W 8945  16.730  43.708  12.540
37417W        W 8946  22.514  43.417  11.963
37418W        W 8947  40.421  36.579   3.725
37419W        W 8948   5.940   6.692   1.712
37420W        W 8949  37.425  18.051   0.331
37421W        W 8950  39.316  31.909  10.757
37422W        W 8951  40.252  16.141   1.463
37423W        W 8952  44.046  42.865  11.566
37424W        W 8953  33.502  17.079   0.891
37425W        W 8954  20.053  10.744  11.569
37426W        W 8955   3.306  21.208   1.255
37427W        W 8956  38.118   0.292   2.911
37428W        W 8957  42.371   7.663   4.213
37429W        W 8958  14.158  33.980   1.292
37430W        W 8959  43.901  24.033   0.269
37431W        W 8960   1.596  28.060   1.500
37432W        W 8961  25.930  22.560  14.710
37433W        W 8962  38.790  31.507  11.743
37434W        W 8963   2.452   8.182   2.680
37435W        W 8964  27.554  11.729   4.401
37436W        W 8965   1.952  17.069   4.597
37437W        W 8966   6.694   2.189   3.669
37438W        W 8967   1.185  25.941  13.403
37439W        W 8968  24.559  10.305   0.457
37440W        W 8969   5.934  19.595   1.711
37441W        W 8970   6.147   2.469   0.648
37442W        W 8971  14.097   0.925   4.572
37443W        W 8972  24.030  10.851  14.014
37444W        W 8973  15.618  32.467  10.754
37445W        W 8974  28.812  15.044   0.748
37446W        W 8975  42.349  38.448  14.272
37447W        W 8976  20.653   5.458   1.216
37448W        W 8977  18.078  37.288  13.438
37449W        W 8978   8.717  23.986   1.833
37450W        W 8979   0.944  22.991   1.501
37451W        W 8980   7.856  29.383   0.843
37452W        W 8981   3.007  18.056  11.962
37453W        W 8982  12.338  36.670  11.692
37454W        W 8983  11.596  18.980   2.008
37455W        W 8984  36.827  33.325  11.111
37456W        W 8985  26.169   7.110   1.422
37457W        W 8986  11.046  38.429   2.313
37458W        W 8987  11.312  33.463   0.282
37459W        W 8988  26.006  16.485   3.688
37460W        W 8989  12.779  16.554   3.376
37461W        W 8990   0.064   2.408   1.383
37462W        W 8991  25.622  19.022  10.357
37463W        W 8992  25.571  13.804   2.736
37464W        W 8993   1.307  40.231  11.924
37465W        W 8994  26.091  18.772  13.451
37466W        W 8995  22.196  20.077   2.270
37467W        W 8996  30.223  37.205   4.136
37468W        W 8997  26.550  38.883   0.217
37469W        W 8998  30.685  42.342  11.964
37470W        W 8999   6.735  40.846   3.944
37471W        W 9000  42.598  35.504  11.671
37472W        W 9001  21.459   0.992   2.879
37473W        W 9002   9.995  18.289   1.249
37474W        W 9003  25.780  38.269  10.649
37475W        W 9004   2.253  42.585  13.682
37476W        W 9005  21.092  18.810  13.531
37477W        W 9006  36.648  29.162  13.021
37478W        W 9007  39.959  17.779  11.413
37479W        W 9008  40.882  39.840   2.940
37480W        W 9009  39.039  20.063   0.426
37481W        W 9010  31.627   1.392  13.223
37482W        W 9011  28.044  29.580   1.322
37483W        W 9012  21.271  12.147   2.220
37484W        W 9013  40.294  40.507   4.223
37485W        W 9014  16.718  29.589  12.959
37486W        W 9015  29.118  16.400  14.782
37487W        W 9016  10.918  18.020  11.295
37488W        W 9017  19.259  20.949   2.096
37489W        W 9018  32.686  37.145  13.408
37490W        W 9019  23.561  44.754  14.517
37491W        W 9020  38.396  43.852  13.642
37492W        W 9021  10.360  23.985  12.411
37493W        W 9022  42.370  26.301   1.056
37494W        W 9023  30.175  43.557   4.530
37495W        W 9024  37.293  39.448   0.943
37496W        W 9025  32.890  35.555  14.796
37497W        W 9026  44.008  34.412   0.020
37498W        W 9027  34.364   0.494   2.639
37499W        W 9028  33.019   8.162   4.865
37500W        W 9029  28.942  24.724  11.161
37501W        W 9030  23.963   4.339   3.317
37502W        W 9031   3.947  22.090   0.444
37503W        W 9032  28.915  44.459  11.278
37504W        W 9033  30.890  16.389  11.115
37505W        W 9034  44.451  15.784   2.732
37506W        W 9035  40.018  30.062  11.881
37507W        W 9036  14.667   4.955   2.334
37508W        W 9037  18.327  17.866  11.016
37509W        W 9038  17.233  23.239   3.598
37510W        W 9039   1.435  10.778   0.493
37511W        W 9040  22.615  42.733   0.432
37512W        W 9041  26.447  40.878  12.405
37513W        W 9042  13.323  43.297   1.425
37514W        W 9043   7.711  37.968   2.059
37515W        W 9044  41.561  34.404  11.886
37516W        W 9045  28.987  28.169   3.994
37517W        W 9046  43.334  15.608  13.958
37518W        W 9047   0.699  28.867   3.946
37519W        W 9048   4.194  44.700  10.517
37520W        W 9049  40.082   4.287  11.728
37521W        W 9050  39.519  33.949  12.880
37522W        W 9051  39.570  19.710  14.681
37523W        W 9052  39.054  27.177   3.099
37524W        W 9053  29.472  27.029  12.066
37525W        W 9054   0.368  21.741  13.164
37526W        W 9055  39.803  15.904   4.700
37527W        W 9056  38.799  36.771   1.551
37528W        W 9057  33.451  19.596   3.239
37529W        W 9058  20.252  20.239   2.938
37530W        W 9059  23.181  31.035  14.194
37531W        W 9060  31.924  24.750   0.028
37532W        W 9061  42.794  34.402   4.532
37533W        W 9062  44.350   0.170   3.375
37534W        W 9063  13.332  19.724  10.820
37535W        W 9064  20.194  43.504   3.242
37536W        W 9065  32.359  21.305   2.338
37537W        W 9066  44.985  42.655   4.216
37538W        W 9067  20.529  14.798  10.757
37539W        W 9068  17.666  10.623  12.481
37540W        W 9069  44.452  31.330  12.513
37541W        W 9070  41.406  27.054   1.166
37542W        W 9071  13.880  15.309  13.016
37543W        W 9072  38.910  32.123   4.201
37544W        W 9073  13.251  18.219   2.923
37545W        W 9074  23.670   7.204  13.339
37546W        W 9075  22.254   5.621   4.206
37547W        W 9076   3.647  17.179  11.414
37548W        W 9077  27.804  13.418  13.908
37549W        W 9078  16.993  24.741  14.738
37550W        W 9079   7.232  40.665   4.573
37551W        W 9080  38.752  26.454  14.221
37552W        W 9081  38.574  37.481   0.220
37553W        W 9082   8.553   7.019  14.675
37554W        W 9083  36.733   9.352   0.971
37555W        W 9084  22.566  10.189   1.413
37556W        W 9085  15.049   7.346   3.653
37557W        W 9086  30.589  32.397   4.814
37558W        W 9087  21.827  29.022   2.628
37559W        W 9088  14.840  34.376  11.187
37560W        W 9089  33.552  22.087  14.873
37561W        W 9090  19.098   7.260   4.782
37562W        W 9091  17.471   0.459   2.180
37563W        W 9092  34.927  34.917  12.076
37564W        W 9093  28.404  22.681   1.069
37565W        W 9094  21.685   0.972   2.003
37566W        W 9095  40.280  41.295  14.442
37567W        W 9096  10.289  13.670   2.692
37568W        W 9097  33.460  42.953  14.049
37569W        W 9098  17.483  10.042   4.563
37570W        W 9099  29.128  34.182  13.874
37571W        W 9100   4.570   2.719  13.498
37572W        W 9101  13.781  40.355  14.477
37573W        W 9102  19.946  25.668   1.333
37574W        W 9103   8.145  32.914  13.435
37575W        W 9104  27.169  15.162  10.982
37576W        W 9105   8.082  35.062  11.070
37577W        W 9106  23.653  14.584   4.209
37578W        W 9107  39.339  35.261  14.496
37579W        W 9108  31.994  30.436   1.886
37580W        W 9109  28.342  33.592  12.073
37581W        W 9110  20.049  26.528  11.653
37582W        W 9111  18.151  29.066  10.776
37583W        W 9112  10.436  24.520   1.008
37584W        W 9113   7.360   6.617   1.416
37585W        W 9114  18.603  39.551  10.686
37586W        W 9115  26.528  41.018  13.337
37587W        W 9116  13.660  42.493   2.583
37588W        W 9117   8.176  28.562  13.894
37589W        W 9118  40.848  26.102   2.250
37590W        W 9119  21.062  11.718   3.226
37591W        W 9120  19.128   6.635   3.333
37592W        W 9121   0.249  19.750  14.283
37593W        W 9122  39.212  12.398   2.739
37594W        W 9123  38.912  19.786  11.506
37595W        W 9124  18.772  25.045  10.117
37596W        W 9125   4.450   1.981   3.718
37597W        W 9126   9.427  42.749   2.787
37598W        W 9127  17.945   9.098   2.785
37599W        W 9128  28.516   6.439   3.808
37600W        W 9129   0.751  15.017   4.222
37601W        W 9130  13.134   8.632   0.492
37602W        W 9131   8.392  30.038  11.110
37603W        W 9132  36.863  31.111   3.791
37604W        W 9133  18.798  34.182   4.149
37605W        W 9134   7.898  17.510   1.264
37606W        W 9135  26.957  37.602  13.037
37607W        W 9136  44.771  43.739  11.960
37608W        W 9137  30.204  17.081   4.799
37609W        W 9138  10.562  24.018   0.152
37610W        W 9139  16.602   4.356  12.546
37611W        W 9140  10.410  31.628  11.126
37612W        W 9141   8.817   4.300   4.738
37613W        W 9142  19.044  31.217  11.686
37614W        W 9143  10.271  29.930  11.517
37615W        W 9144   1.789   8.376   4.701
37616W        W 9145   3.983   4.187   0.412
37617W        W 9146  32.455  43.587  13.920
37618W        W 9147   3.974  36.959  11.221
37619W        W 9148  13.615  18.755   4.740
37620W        W 9149  27.555   8.359   4.137
37621W        W 9150   2.674  41.484  13.065
37622W        W 9151  11.338  28.486  12.107
37623W        W 9152  35.909  17.173   0.200
37624W        W 9153  39.302  40.106  12.528
37625W        W 9154   9.888   1.498   4.557
37626W        W 9155   3.468  21.995  10.655
37627W        W 9156  35.950  18.034   4.096
37628W        W 9157  37.563  11.882  12.640
37629W        W 9158  20.260  12.304   0.945
37630W        W 9159  26.442  18.053   4.545
37631W        W 9160  28.948  33.336  11.617
37632W        W 9161  16.053  36.747   1.832
37633W        W 9162   4.763  40.358   1.901
37634W        W 9163   6.262  18.318  12.414
37635W        W 9164   9.623   7.824   0.648
37636W        W 9165  43.998  21.002  10.936
37637W        W 9166  44.907   7.822   3.109
37638W        W 9167  41.985  25.092  13.386
37639W        W 9168  11.314  40.045   2.807
37640W        W 9169  23.515  35.940  13.059
37641W        W 9170   1.499  11.351  11.364
37642W        W 9171  10.626   5.715  11.992
37643W        W 9172  41.612  43.761  14.754
37644W        W 9173  42.493  29.045  11.533
37645W        W 9174  18.775  29.948  13.654
37646W        W 9175  33.984  44.329   0.743
37647W        W 9176  25.956   9.431   4.215
37648W        W 9177  31.031  24.154  10.979
37649W        W 9178  38.973   4.784   2.712
37650W        W 9179   3.795   3.398  11.801
37651W        W 9180  42.058  24.532  10.910
37652W        W 9181  21.459  15.311   1.517
37653W        W 9182  10.250  22.233  13.087
37654W        W 9183  10.676   7.691   0.754
37655W        W 9184   9.791  28.403  14.989
37656W        W 9185  30.446  36.176   0.811
37657W        W 9186  11.716  23.567  14.916
37658W        W 9187  22.709  10.930   3.199
37659W        W 9188  39.415  42.087  11.988
37660W        W 9189   3.902   6.773  11.145
37661W        W 9190   3.348  30.386  14.899
37662W        W 9191   8.253  42.243   3.107
37663W        W 9192   0.434  26.749   0.175
37664W        W 9193  20.134  37.003  12.925
37665W        W 9194   7.651   9.630  12.901
37666W        W 9195  42.020  34.824   5.046
37667W        W 9196  21.930  36.529  12.456
37668W        W 9197   4.123  15.678  11.984
37669W        W 9198  27.529  25.563  12.047
37670W        W 9199  37.079   3.525  12.661
37671W        W 9200  34.421  20.077  10.593
37672W        W 9201   3.041  15.370   4.060
37673W        W 9202   9.206  12.275  14.418
37674W        W 9203   1.948  40.310   0.279
37675W        W 9204  36.060  17.663   0.120
37676W        W 9205  11.313  40.056   0.067
37677W        W 9206  33.573  26.092   3.975
37678W        W 9207  37.401  21.976   0.480
37679W        W 9208  34.816  35.497   2.871
37680W        W 9209  20.294   9.393  12.796
37681W        W 9210  43.271   6.096  14.887
37682W        W 9211  28.946  27.640   3.331
37683W        W 9212  29.843  15.563   4.148
37684W        W 9213  24.704  19.469  14.507
37685W        W 9214  32.041  39.121   0.414
37686W        W 9215  10.388   3.105  12.967
37687W        W 9216  14.060  34.696  11.409
37688W        W 9217  29.181   6.678  10.667
37689W        W 9218  34.197   2.894   1.681
37690W        W 9219  13.276  15.703  11.300
37691W        W 9220  36.903  16.704   0.861
37692W        W 9221   7.313  21.081  11.387
37693W        W 9222   4.127  41.958   3.639
37694W        W 9223  29.100  13.271  12.115
37695W        W 9224  39.920  33.388  11.376
37696W        W 9225  36.301  41.436   5.024
37697W        W 9226  42.894   6.999  10.565
37698W        W 9227   8.176  23.545  10.874
37699W        W 9228  24.763  24.358   3.043
37700W        W 9229  27.634   8.838   4.389
37701W        W 9230  14.009   5.452  14.449
37702W        W 9231  23.571  37.852   2.413
37703W        W 9232   2.292  27.400  11.054
37704W        W 9233  42.864  12.027   3.840
37705W        W 9234  10.847   2.344   0.511
37706W        W 9235   0.355  37.628  14.543
37707W        W 9236  11.878   8.259  13.472
37708W        W 9237  15.112   3.012   0.339
37709W        W 9238  10.359  32.151  14.255
37710W        W 9239  38.267  37.148  12.734
37711W        W 9240  39.316   9.894  10.778
37712W        W 9241  21.850  22.474   4.114
37713W        W 9242  12.381  26.922   4.180
37714W        W 9243  40.697  31.372   0.894
37715W        W 9244  30.810  32.455  12.438
37716W        W 9245  27.922  20.540   4.108
37717W        W 9246   6.298  40.657   3.185
37718W        W 9247  28.892  33.599  12.051
37719W        W 9248  38.334   5.488   0.619
37720W        W 9249   6.803  29.202  14.784
37721W        W 9250  27.191  32.483  11.870
37722W        W 9251  28.692  30.753  11.763
37723W        W 9252  28.949   7.255   1.639
37724W        W 9253  19.986   1.796  13.994
37725W        W 9254  27.393  34.540  12.011
37726W        W 9255  37.403  19.086  12.865
37727W        W 9256   6.409  13.407   1.380
37728W        W 9257  32.044   6.510   3.027
37729W        W 9258  18.673  20.771  12.985
37730W        W 9259   5.039  25.448   0.267
37731W        W 9260  15.223   0.246  14.835
37732W        W 9261  27.739   9.222  13.723
37733W        W 9262   7.740  40.477   3.124
37734W        W 9263  32.057  18.092   0.411
37735W        W 9264  20.499  36.415   0.729
37736W        W 9265  33.495   7.224   1.761
37737W        W 9266  24.661  14.714  10.662
37738W        W 9267   4.492   3.881   3.365
37739W        W 9268  31.072  41.172  11.531
37740W        W 9269   5.610  29.037  14.286
37741W        W 9270   6.144  41.272  12.570
37742W        W 9271  21.725   3.712   2.914
37743W        W 9272  23.961   0.516   1.830
37744W        W 9273  10.269  30.972  13.433
37745W        W 9274  29.911  24.950  13.823
37746W        W 9275  30.746   0.868   0.203
37747W        W 9276  33.842  17.751   0.817
37748W        W 9277  37.270  19.652  10.330
37749W        W 9278  15.476  25.482   2.213
37750W        W 9279  19.026  26.586   1.711
37751W        W 9280  25.409  29.836  11.033
37752W        W 9281  34.887  12.626   0.339
37753W        W 9282   0.849  35.560   2.367
37754W        W 9283  22.554  24.230  13.753
37755W        W 9284   3.976  15.610   0.850
37756W        W 9285  44.793  28.925  12.916
37757W        W 9286  41.587  28.417  13.068
37758W        W 9287  18.775  25.476   2.375
37759W        W 9288   3.252  42.473  14.465
37760W        W 9289  32.153  32.410   3.873
37761W        W 9290  33.072  24.979   2.611
37762W        W 9291  29.112   9.321   0.001
37763W        W 9292  18.244  21.544   4.620
37764W        W 9293   9.082  35.745   2.897
37765W        W 9294  42.541  23.675   4.050
37766W        W 9295  33.487  28.898   4.181
37767W        W 9296  36.745   9.628   1.869
37768W        W 9297  28.492   2.301   4.169
37769W        W 9298   8.920  30.857   3.568
37770W        W 9299  27.623  18.078  14.018
37771W        W 9300  17.052  10.884   1.261
37772W        W 9301  34.351  35.449  13.380
37773W        W 9302  30.322  17.070  12.367
37774W        W 9303  20.541   7.376  13.545
37775W        W 9304  23.903  34.907   0.705
37776W        W 9305  31.305  27.512  13.223
37777W        W 9306  34.383  25.990   3.879
37778W        W 9307  25.923  18.454  13.846
37779W        W 9308  40.114  29.498  11.174
37780W        W 9309   5.987   3.428   0.364
37781W        W 9310  44.481  31.509  10.813
37782W        W 9311  18.830  21.559  13.523
37783W        W 9312  16.507  24.559  11.623
37784W        W 9313  44.959  41.364   4.217
37785W        W 9314   0.232  23.684  11.090
37786W        W 9315  22.090   5.956   0.055
37787W        W 9316  28.096  17.880  12.029
37788W        W 9317  44.247   2.885   2.644
37789W        W 9318  34.484  27.292   0.877
37790W        W 9319  34.599  17.827   2.115
37791W        W 9320  15.047  39.613  14.115
37792W        W 9321  40.343  21.640  13.909
37793W        W 9322  41.401  35.356  13.494
37794W        W 9323   9.906  10.723  14.004
37795W        W 9324  23.090  20.811  11.085
37796W        W 9325  43.482  12.202  14.046
37797W        W 9326   5.398  23.153  13.942
37798W        W 9327  26.678  30.069   4.268
37799W        W 9328  12.614  27.567   0.814
37800W        W 9329  17.114   5.837  13.888
37801W        W 9330  41.149  38.088   3.759
37802W        W 9331  20.144  24.964  13.970
37803W        W 9332  31.633  19.321   1.668
37804W        W 9333   4.804  22.507  14.232
37805W        W 9334   1.848  22.300  11.069
37806W        W 9335  27.573  42.724   3.208
37807W        W 9336  26.493  17.072  14.022
37808W        W 9337  26.264  32.939   0.827
37809W        W 9338  43.797  21.587  12.544
37810W        W 9339   9.978   7.773  13.373
37811W        W 9340  18.688  15.423   0.766
37812W        W 9341  43.343  43.821  11.217
37813W        W 9342  38.424  19.558   1.258
37814W        W 9343  20.616  29.253   4.195
37815W        W 9344  25.680  18.186   0.401
37816W        W 9345  29.506  29.520   0.223
37817W        W 9346   9.680  21.507  14.989
37818W        W 9347   3.027  39.590   2.721
37819W        W 9348  33.224  42.334   0.212
37820W        W 9349   6.700  33.977  13.015
37821W        W 9350  44.466   2.712   0.852
37822W        W 9351  22.368  34.965  10.806
37823W        W 9352  24.210   3.777  13.586
37824W        W 9353  28.403  22.627   2.143
37825W        W 9354  27.411  33.009  10.681
37826W        W 9355  14.687  16.239  10.727
37827W        W 9356  43.559  29.236  12.289
37828W        W 9357  27.704  15.074  14.500
37829W        W 9358  33.884  38.482   2.949
37830W        W 9359  38.359  37.040   1.432
37831W        W 9360  15.330  24.593  13.368
37832W        W 9361  36.209  26.558   3.719
37833W        W 9362  19.572  33.512  12.672
37834W        W 9363  25.207  40.187   3.239
37835W        W 9364  13.115   5.966  12.072
37836W        W 9365  13.119   3.093  11.590
37837W        W 9366  23.469   5.279   0.898
37838W        W 9367   3.167   5.955  13.371
37839W        W 9368  27.793  10.703  14.423
37840W        W 9369  19.568   6.299  13.451
37841W        W 9370  30.841  17.188  13.718
37842W        W 9371  14.686   3.887  14.592
37843W        W 9372  17.186  13.254   2.851
37844W        W 9373  16.838   2.757  10.632
37845W        W 9374   6.169  13.234  11.450
37846W        W 9375  21.559   5.464   1.334
37847W        W 9376   8.241   1.392   3.762
37848W        W 9377  21.121  21.421  14.234
37849W        W 9378  32.453  21.742  14.450
37850W        W 9379  31.626   7.429   4.221
37851W        W 9380  34.087  17.524  12.482
37852W        W 9381   0.804   6.376   1.299
37853W        W 9382  15.912  10.153  12.387
37854W        W 9383   9.820  19.463   0.529
37855W        W 9384  25.746  37.835   1.676
37856W        W 9385   9.882  13.812   1.241
37857W        W 9386  23.709  10.112   3.616
37858W        W 9387  15.040  14.296   0.447
37859W        W 9388  44.245  14.674   3.261
37860W        W 9389   2.819   2.393   3.251
37861W        W 9390   6.213  21.955   1.861
37862W        W 9391  11.208  14.206   4.678
37863W        W 9392  17.998  41.862   1.132
37864W        W 9393  18.080  32.811   0.295
37865W        W 9394  17.628  15.336  10.818
37866W        W 9395  24.235  35.867  10.839
37867W        W 9396   7.333   7.873  11.601
37868W        W 9397   6.199   5.460  11.925
37869W        W 9398  36.930  18.260  14.273
37870W        W 9399  37.104  30.967   4.255
37871W        W 9400  30.671  40.299   3.569
37872W        W 9401   7.577   0.768  13.767
37873W        W 9402  14.730   0.035  14.900
37874W        W 9403  34.904  35.403   3.920
37875W        W 9404   2.781  29.699   3.421
37876W        W 9405   9.088  28.006   1.902
37877W        W 9406  21.979  40.669  11.850
37878W        W 9407  39.974   8.687  12.158
37879W        W 9408   5.942   1.884  14.109
37880W        W 9409  18.577   3.753  13.868
37881W        W 9410   9.270  43.432  14.794
37882W        W 9411  15.848  35.983   1.358
37883W        W 9412  36.568  12.725   0.213
37884W        W 9413   4.171  12.366  14.309
37885W        W 9414  15.503  19.964   4.290
37886W        W 9415  23.082  42.548   0.310
37887W        W 9416  35.791   4.346  11.209
37888W        W 9417  34.250   1.001   0.009
37889W        W 9418  26.635   2.695  13.529
37890W        W 9419   6.288  44.505  11.264
37891W        W 9420   5.757  13.340   3.044
37892W        W 9421  10.868  26.124   2.324
37893W        W 9422  35.315   8.411  13.008
37894W        W 9423  40.443   0.473   1.753
37895W        W 9424  17.210   4.515  12.169
37896W        W 9425   9.445  18.443  12.386
37897W        W 9426  41.252  33.595  11.583
37898W        W 9427  11.397  13.610   1.837
37899W        W 9428  16.921  38.358  13.506
37900W        W 9429  37.329  22.558   0.256
37901W        W 9430  15.646  25.356  10.345
37902W        W 9431   5.112  22.871  12.515
37903W        W 9432  37.452  29.194   1.737
37904W        W 9433  35.481   1.164  12.266
37905W        W 9434  43.202  33.116   1.689
37906W        W 9435   4.731  28.153  12.473
37907W        W 9436  24.127  10.231   1.708
37908W        W 9437   9.428  12.847   0.095
37909W        W 9438   0.243  35.014  13.997
37910W        W 9439  20.103  17.869  14.823
37911W        W 9440   3.781  11.137  13.414
37912W        W 9441  11.867   0.583   3.353
37913W        W 9442   9.648  30.093  12.959
37914W        W 9443  41.835  41.387  13.181
37915W        W 9444   3.090  42.145   3.725
37916W        W 9445  44.499  15.188   2.446
37917W        W 9446  19.086   6.047   0.859
37918W        W 9447  18.572   0.012   3.763
37919W        W 9448  20.271   6.242   0.475
37920W        W 9449  44.470  32.861  12.541
37921W        W 9450   5.737  33.757  11.502
37922W        W 9451  29.156  40.442   1.539
37923W        W 9452  10.173   8.303   4.756
37924W        W 9453  19.277  17.277  13.288
37925W        W 9454  35.860  14.414   3.645
37926W        W 9455  40.332  34.938  11.055
37927W        W 9456  36.538   9.853  14.826
37928W        W 9457  43.485   9.252   3.735
37929W        W 9458   4.352  13.065   1.901
37930W        W 9459  19.483   9.358  12.927
37931W        W 9460  23.784  13.651  14.834
37932W        W 9461  43.231  14.661   3.229
37933W        W 9462  21.525  10.847   2.309
37934W        W 9463  44.841  15.434   1.958
37935W        W 9464   8.828  29.714  11.245
37936W        W 9465  29.270  25.895  13.480
37937W        W 9466  37.537  27.544  10.969
37938W        W 9467  36.068  13.269   3.093
37939W        W 9468  11.747  12.637   1.392
37940W        W 9469   7.805   9.404   1.505
37941W        W 9470   7.905   5.275   4.750
37942W        W 9471  44.205  17.760  12.413
37943W        W 9472  31.583  42.636   1.777
37944W        W 9473  41.983   4.482   1.264
37945W        W 9474  28.302   2.182   3.228
37946W        W 9475  18.543  14.694   2.246
37947W        W 9476  14.836  39.851  14.774
37948W        W 9477  42.040  26.152   0.290
37949W        W 9478   4.455   1.954   4.602
37950W        W 9479   4.408  39.410   1.699
37951W        W 9480   8.846   3.347   0.434
37952W        W 9481  20.088  31.327  13.328
37953W        W 9482  25.002  11.120   2.736
37954W        W 9483  14.100  29.995  13.415
37955W        W 9484  36.852   7.269  14.555
37956W        W 9485  19.564  25.508   4.384
37957W        W 9486  28.128   8.669   0.428
37958W        W 9487  36.004  21.917  12.304
37959W        W 9488   4.428  38.563  13.053
37960W        W 9489   4.732  40.875  14.789
37961W        W 9490  29.498   4.239  14.866
37962W        W 9491  26.972  44.852   1.194
37963W        W 9492  44.465  13.729  14.483
37964W        W 9493   9.880  36.551  11.651
37965W        W 9494  25.178  43.682  14.412
37966W        W 9495  31.081  18.198   4.945
37967W        W 9496   6.542  43.395   4.553
37968W        W 9497  35.041  40.851  14.285
37969W        W 9498  27.490  33.671  11.350
37970W        W 9499  19.086  30.943  14.440
37971W        W 9500  31.948   8.418   3.415
37972W        W 9501  36.368   0.766   3.740
37973W        W 9502   1.840  35.487   2.837
37974W        W 9503  40.215  22.749   4.044
37975W        W 9504  33.680  21.498  12.024
37976W        W 9505  16.000  22.643  11.164
37977W        W 9506  22.197  22.164  14.944
37978W        W 9507   8.383  14.537   2.683
37979W        W 9508  30.626  41.809  11.846
37980W        W 9509   5.764  10.131   4.783
37981W        W 9510  16.782  23.062   4.646
37982W        W 9511  15.345  34.599   3.341
37983W        W 9512   5.525   5.553   3.696
37984W        W 9513  39.240  43.046  12.852
37985W        W 9514  11.859  22.981  11.102
37986W        W 9515  40.288  39.054   0.236
37987W        W 9516  31.102  24.133   0.393
37988W        W 9517  19.625  35.278   0.287
37989W        W 9518   6.786   1.198  11.966
37990W        W 9519  35.551  42.087   4.110
37991W        W 9520  15.780   1.303   1.591
37992W        W 9521   7.162  41.849  11.070
37993W        W 9522  38.738   6.685  11.054
37994W        W 9523  43.017  12.723   1.693
37995W        W 9524  11.681  35.566   4.074
37996W        W 9525  26.133  43.791  11.014
37997W        W 9526  22.209  13.658  13.779
37998W        W 9527  23.074  13.054   2.289
37999W        W 9528  19.170  37.083  12.383
38000W        W 9529  21.334  43.429   4.528
38001W        W 9530   3.780  22.589  11.557
38002W        W 9531  39.756  15.167   4.042
38003W        W 9532  13.399   9.887   3.243
38004W        W 9533  38.096  17.018   4.347
38005W        W 9534  25.694  25.312   4.875
38006W        W 9535  14.732  10.082   0.178
38007W        W 9536  10.276  29.615  11.111
38008W        W 9537  27.147  15.793  14.233
38009W        W 9538  43.016  34.040   0.802
38010W        W 9539   3.406  41.980  14.318
38011W        W 9540  19.492  13.847   3.791
38012W        W 9541  16.383   1.511  13.267
38013W        W 9542  25.440  13.899   5.043
38014W        W 9543   1.860   9.294  14.108
38015W        W 9544  42.946   0.994  12.178
38016W        W 9545  41.706  43.736  11.858
38017W        W 9546   1.545  21.290  12.588
38018W        W 9547  24.455   9.192  14.002
38019W        W 9548   2.334  30.509   0.917
38020W        W 9549  29.588  37.683  11.561
38021W        W 9550  37.552   4.242   3.227
38022W        W 9551   1.402  30.114   2.307
38023W        W 9552  29.367  17.928   5.024
38024W        W 9553  26.068  23.999  12.062
38025W        W 9554  20.923  18.057  12.462
38026W        W 9555  41.951  14.864   1.250
38027W        W 9556  10.440   7.833  14.342
38028W        W 9557  33.275   4.457  10.730
38029W        W 9558   7.143  22.041   2.695
38030W        W 9559  40.875  30.275   2.587
38031W        W 9560  43.029  29.127  12.417
38032W        W 9561  35.013  29.077  11.601
38033W        W 9562  30.921  40.319  14.799
38034W        W 9563  33.414  11.341   1.928
38035W        W 9564  30.109  31.149   4.337
38036W        W 9565  28.623  41.793  11.104
38037W        W 9566   6.760  37.066   2.049
38038W        W 9567  40.522   9.400   2.301
38039W        W 9568  30.390  36.265   4.558
38040W        W 9569  33.870  23.509  12.790
38041W        W 9570   5.997  44.400  13.682
38042W        W 9571  29.669  41.698  12.827
38043W        W 9572  37.851  22.131   3.221
38044W        W 9573  37.085  15.811  11.619
38045W        W 9574  16.060  17.641  14.437
38046W        W 9575  17.298  31.547   2.143
38047W        W 9576  26.122  23.312  14.755
38048W        W 9577  12.889   8.675  14.664
38049W        W 9578   8.845   5.890  12.524
38050W        W 9579  33.564  29.676   3.289
38051W        W 9580   9.677  35.538  13.981
38052W        W 9581  21.596  34.478  14.551
38053W        W 9582   0.678   3.296   4.631
38054W        W 9583  12.520  31.667   3.119
38055W        W 9584  29.828  10.214   2.172
38056W        W 9585  13.778  15.399   0.452
38057W        W 9586  20.637  42.014  12.594
38058W        W 9587  40.195   8.060   2.669
38059W        W 9588  20.519   3.340   4.264
38060W        W 9589  15.048  23.745  11.847
38061W        W 9590   3.368  24.102  11.699
38062W        W 9591  44.286   5.794  12.792
38063W        W 9592  35.855  11.660  13.394
38064W        W 9593  31.744  21.514  12.917
38065W        W 9594   7.909  13.106   3.599
38066W        W 9595  27.550   7.897  12.638
38067W        W 9596  31.239  30.929   2.171
38068W        W 9597  10.682  25.406   1.749
38069W        W 9598   2.469  21.639  10.571
38070W        W 9599  33.532   6.166  13.071
38071W        W 9600  12.396  30.455  12.352
38072W        W 9601  34.668  21.033   3.144
38073W        W 9602  35.379  29.066  12.629
38074W        W 9603  44.881  38.453   0.820
38075W        W 9604  14.374  30.563  11.240
38076W        W 9605  16.115  14.565  14.879
38077W        W 9606  12.073  42.227  11.609
38078W        W 9607   0.853  27.578   1.764
38079W        W 9608  17.961   0.762  12.434
38080W        W 9609  27.040  16.179   3.833
38081W        W 9610   1.010  20.342  11.275
38082W        W 9611  24.662  26.126   2.681
38083W        W 9612  43.312  33.226   4.177
38084W        W 9613   1.300  22.056   4.624
38085W        W 9614   5.216  24.293  12.448
38086W        W 9615   6.564  15.256   1.695
38087W        W 9616  19.716  40.437  14.563
38088W        W 9617  15.763  10.834   4.552
38089W        W 9618  30.120  25.341  14.628
38090W        W 9619   8.714  40.159   0.783
38091W        W 9620  13.224  27.781  13.467
38092W        W 9621  37.814  20.246  14.862
38093W        W 9622   4.312  40.718   3.142
38094W        W 9623  35.456   0.763   2.441
38095W        W 9624  10.962  41.276   3.396
38096W        W 9625  21.230  24.055   4.021
38097W        W 9626  31.994  24.495   0.471
38098W        W 9627   4.086  26.071   3.169
38099W        W 9628   7.448  40.279  11.138
38100W        W 9629  41.676  41.934   4.492
38101W        W 9630   1.989   1.360   4.709
38102W        W 9631  34.076  16.585  12.944
38103W        W 9632  24.047  43.300  13.954
38104W        W 9633  38.594  15.526  10.580
38105W        W 9634  34.385   4.700  12.530
38106W        W 9635  33.406  21.563  11.567
38107W        W 9636   4.723  18.041  11.085
38108W        W 9637  30.663  23.924   1.379
38109W        W 9638  43.855  23.426  11.557
38110W        W 9639  33.019  34.371  12.909
38111W        W 9640  39.484  41.271   3.190
38112W        W 9641  15.378   2.809   3.859
38113W        W 9642  31.662   0.748  11.490
38114W        W 9643  13.683  40.393   1.455
38115W        W 9644  40.754  21.527   2.144
38116W        W 9645   4.468  38.331   0.072
38117W        W 9646  16.826  41.421  13.947
38118W        W 9647   0.911  15.966   4.232
38119W        W 9648  14.103  24.165  13.514
38120W        W 9649  34.004  29.516  12.873
38121W        W 9650  19.108  27.356   2.915
38122W        W 9651   8.828  24.271   2.255
38123W        W 9652   1.231  42.488  11.282
38124W        W 9653  14.328  36.314  10.684
38125W        W 9654   7.808   1.935   3.373
38126W        W 9655   5.158  29.591   1.664
38127W        W 9656  26.514  40.212   4.133
38128W        W 9657  28.137  30.603  11.156
38129W        W 9658  31.031  19.746  11.083
38130W        W 9659  12.184  40.310  11.146
38131W        W 9660   9.281  37.045  13.302
38132W        W 9661  13.875  15.600   1.770
38133W        W 9662  28.999  40.061  12.402
38134W        W 9663   1.260   9.560  11.548
38135W        W 9664  22.579  20.813  11.184
38136W        W 9665  25.363  42.847  10.893
38137W        W 9666   8.153  15.253   4.946
38138W        W 9667  22.244  41.846   2.058
38139W        W 9668  15.259   8.924   2.689
38140W        W 9669  33.916  35.117   3.231
38141W        W 9670  33.111  43.479   4.906
38142W        W 9671  28.728  16.241  10.631
38143W        W 9672  27.976   5.713   5.119
38144W        W 9673  12.081  21.225   3.701
38145W        W 9674  44.472   0.323   1.867
38146W        W 9675   1.893  38.014   1.675
38147W        W 9676   1.855   3.762   4.602
38148W        W 9677  32.256  12.875   0.844
38149W        W 9678  38.447   0.456  14.364
38150W        W 9679   6.462  22.484  12.463
38151W        W 9680  13.176  22.505   0.828
38152W        W 9681   8.701   4.061   2.348
38153W        W 9682  37.439  11.864   2.274
38154W        W 9683  34.483   6.660   1.627
38155W        W 9684  18.620  25.109  14.760
38156W        W 9685  20.716  31.575  11.973
38157W        W 9686  43.273  43.847   1.177
38158W        W 9687  35.174  38.485  12.246
38159W        W 9688  24.278   0.449  10.731
38160W        W 9689  31.228  36.508  12.426
38161W        W 9690  10.871  10.423  14.550
38162W        W 9691  30.359  24.951  11.088
38163W        W 9692  21.055  43.476   2.391
38164W        W 9693  34.165  12.775  11.090
38165W        W 9694   4.369   8.142   2.869
38166W        W 9695  22.262   2.536  11.505
38167W        W 9696   6.635  21.298  13.162
38168W        W 9697  18.281  30.684   4.093
38169W        W 9698  20.736   9.290   3.940
38170W        W 9699   1.825  24.674  10.770
38171W        W 9700  32.270   5.228  14.956
38172W        W 9701  43.263  30.904   0.311
38173W        W 9702   9.949   3.337  12.858
38174W        W 9703   5.498  18.215   4.079
38175W        W 9704   6.932   6.239   3.569
38176W        W 9705  40.074  37.434  12.594
38177W        W 9706  16.672  43.552   1.109
38178W        W 9707  18.626  42.963  14.511
38179W        W 9708  34.406  18.468   4.191
38180W        W 9709  39.528  30.964   3.571
38181W        W 9710   8.622  40.711  12.339
38182W        W 9711  28.918  25.044   0.084
38183W        W 9712  24.281  20.880  11.158
38184W        W 9713  44.819  39.610   3.397
38185W        W 9714  17.267  27.347  11.943
38186W        W 9715   2.568  14.815  14.062
38187W        W 9716  12.817   9.721  13.896
38188W        W 9717  33.025  15.824   2.224
38189W        W 9718  17.209  34.086  12.448
38190W        W 9719   9.414   1.718  12.424
38191W        W 9720  28.416   0.333  11.189
38192W        W 9721  29.185   7.352   3.158
38193W        W 9722  38.964  44.397  12.032
38194W        W 9723  38.176  30.770   0.348
38195W        W 9724   3.044   0.436   4.535
38196W        W 9725  43.795  40.767   3.362
38197W        W 9726   1.221  13.365  12.507
38198W        W 9727  26.202  44.947  12.531
38199W        W 9728  35.913  11.038  12.513
38200W        W 9729  13.865  17.796   1.396
38201W        W 9730  17.285  12.436   1.323
38202W        W 9731   5.767  37.480   2.388
38203W        W 9732  34.859  22.681   4.477
38204W        W 9733  44.324  20.039   0.527
38205W        W 9734  31.609  23.266   1.738
38206W        W 9735  36.530   5.171   3.759
38207W        W 9736  29.571  37.537  10.045
38208W        W 9737  23.904   3.499  11.195
38209W        W 9738   0.336  11.775  14.796
38210W        W 9739  26.721   4.822  11.575
38211W        W 9740  35.492  17.156  14.423
38212W        W 9741  37.721   6.752   4.548
38213W        W 9742  41.397  17.265  14.923
38214W        W 9743   3.463   7.110  11.966
38215W        W 9744   3.820  28.325  12.940
38216W        W 9745  22.144   0.484  10.553
38217W        W 9746  26.935  17.196  11.066
38218W        W 9747  31.208  30.136   2.741
38219W        W 9748  32.801  14.236  13.011
38220W        W 9749  42.032  16.089  13.211
38221W        W 9750   6.171   9.675  11.189
38222W        W 9751  23.470  13.392  12.908
38223W        W 9752  23.964  13.212  12.922
38224W        W 9753  33.208  16.771  13.937
38225W        W 9754   6.240   0.050   3.288
38226W        W 9755   8.771   1.048   0.419
38227W        W 9756   8.174  12.798   0.293
38228W        W 9757   8.407   6.242  11.390
38229W        W 9758  25.011  21.599   4.061
38230W        W 9759  41.382  44.997  11.518
38231W        W 9760  31.474  14.614   2.336
38232W        W 9761   5.829  28.925   4.901
38233W        W 9762   0.164  21.620   4.289
38234W        W 9763  29.678  36.581  10.678
38235W        W 9764  22.063  42.577  13.438
38236W        W 9765  37.776  13.841   3.296
38237W        W 9766  19.963  10.334   0.710
38238W        W 9767   1.982  19.003  10.743
38239W        W 9768   7.588   3.321  14.714
38240W        W 9769  21.335   1.342  14.088
38241W        W 9770  39.899  16.651   2.713
38242W        W 9771  29.038  12.379   1.850
38243W        W 9772  20.764  23.848   4.180
38244W        W 9773  18.191  29.073  13.969
38245W        W 9774  17.969  33.472   3.697
38246W        W 9775  18.283  29.776  10.695
38247W        W 9776  30.790  31.888  11.602
38248W        W 9777  37.480  19.492  13.869
38249W        W 9778  13.839  39.523   3.564
38250W        W 9779  18.581  27.668  13.840
38251W        W 9780  25.905   8.952   1.756
38252W        W 9781  15.328  10.634  12.009
38253W        W 9782   0.200  29.146  11.049
38254W        W 9783   2.843  37.671   1.486
38255W        W 9784  16.787  33.412   3.242
38256W        W 9785   3.876  32.711  12.726
38257W        W 9786   7.797  11.859  10.331
38258W        W 9787  37.041  12.100  14.488
38259W        W 9788  19.511  24.222  12.014
38260W        W 9789  18.288   4.936   3.724
38261W        W 9790   7.053   2.885   2.887
38262W        W 9791  27.124   6.743  11.435
38263W        W 9792  30.500  21.727   4.813
38264W        W 9793  27.598  24.264  12.891
38265W        W 9794  21.527  37.363  12.443
38266W        W 9795   7.291  41.019   2.212
38267W        W 9796  22.704  34.298   0.470
38268W        W 9797  33.589  42.054   0.497
38269W        W 9798  38.682  11.155  11.068
38270W        W 9799  29.728   7.398   3.280
38271W        W 9800  33.896  30.498  14.079
38272W        W 9801  40.053   6.391   3.582
38273W        W 9802  12.842   3.501   1.371
38274W        W 9803  28.343   9.312  13.629
38275W        W 9804  39.763   6.292   1.823
38276W        W 9805  20.867  35.581   0.278
38277W        W 9806  43.223  41.501   4.385
38278W        W 9807  22.512  43.367   3.747
38279W        W 9808  43.421  20.371   0.008
38280W        W 9809  29.687   6.192  12.447
38281W        W 9810   9.338   8.996  12.314
38282W        W 9811  40.920  12.120   4.119
38283W        W 9812   5.618  10.213  10.656
38284W        W 9813  33.444   6.252  12.552
38285W        W 9814  23.442  14.683   0.731
38286W        W 9815   1.868  36.937   3.847
38287W        W 9816  26.381  38.379   4.444
38288W        W 9817  34.336  34.351   2.748
38289W        W 9818  31.827  25.215  14.818
38290W        W 9819   4.245  14.677   2.875
38291W        W 9820  19.178  33.506   1.474
38292W        W 9821  24.558  11.626  14.903
38293W        W 9822  30.193  20.629   0.585
38294W        W 9823  13.231  16.819   3.531
38295W        W 9824  14.154  10.155   1.328
38296W        W 9825   5.951  16.547  10.359
38297W        W 9826   1.325  12.377  12.656
38298W        W 9827   0.391   9.712   2.415
38299W        W 9828  14.121  16.145  13.908
38300W        W 9829  35.426  11.669   3.120
38301W        W 9830  34.271   2.928  14.045
38302W        W 9831  29.930  21.128  11.969
38303W        W 9832  38.451  13.387   1.852
38304W        W 9833   0.694   1.398   0.426
38305W        W 9834  32.513  38.094   1.859
38306W        W 9835  44.920  30.027  11.596
38307W        W 9836  40.464   0.714  13.763
38308W        W 9837  27.174   3.659  11.044
38309W        W 9838  21.845  27.209   1.335
38310W        W 9839   6.150  26.435  13.602
38311W        W 9840  25.366  28.115  10.234
38312W        W 9841  27.248  16.936   3.296
38313W        W 9842  37.421  10.319  13.731
38314W        W 9843  33.153  25.681   1.255
38315W        W 9844   8.715  14.127   2.739
38316W        W 9845   6.076  44.923  10.982
38317W        W 9846  24.980  42.331  10.718
38318W        W 9847   4.029  35.672   1.061
38319W        W 9848   6.594  16.173  14.453
38320W        W 9849  24.503  36.155   4.662
38321W        W 9850   1.461  10.837   0.990
38322W        W 9851  33.446   5.025  13.422
38323W        W 9852  36.006   3.496   2.215
38324W        W 9853   5.930  10.347  14.847
38325W        W 9854   6.939  11.719   1.182
38326W        W 9855  27.338  40.998   3.132
38327W        W 9856  16.600  34.282  12.879
38328W        W 9857  31.271   0.183   1.242
38329W        W 9858  21.538  28.609   3.209
38330W        W 9859  35.414   3.838   3.912
38331W        W 9860  13.308  23.919  13.968
38332W        W 9861  12.863  32.737  10.630
38333W        W 9862  35.942  34.836   4.679
38334W        W 9863  23.662  40.137  12.087
38335W        W 9864  22.425  20.915   2.546
38336W        W 9865  31.932  38.851  12.943
38337W        W 9866  43.869  34.738  11.103
38338W        W 9867   0.920  24.468   3.682
38339W        W 9868  24.057  28.103  12.178
38340W        W 9869  42.971  11.193  11.040
38341W        W 9870  42.008  38.856   2.379
38342W        W 9871   6.749  35.915   3.324
38343W        W 9872   4.875  33.746  14.768
38344W        W 9873  24.627  23.469   4.570
38345W        W 9874  34.867  18.141  10.110
38346W        W 9875  17.362   2.475  14.476
38347W        W 9876  37.381   1.490  12.121
38348W        W 9877   3.986  19.678  11.033
38349W        W 9878  32.668  18.310  14.055
38350W        W 9879  19.615  22.325  14.408
38351W        W 9880   7.684  36.427  12.304
38352W        W 9881  42.031  33.586   1.972
38353W        W 9882  24.229  32.428  13.963
38354W        W 9883  41.888  20.293   0.759
38355W        W 9884  26.863  15.661   4.307
38356W        W 9885  34.838  26.971  12.893
38357W        W 9886   7.748   3.586  11.598
38358W        W 9887  22.135  31.598   4.927
38359W        W 9888  34.563  29.411   0.420
38360W        W 9889  23.738  29.289   4.492
38361W        W 9890  24.525  18.614   1.191
38362W        W 9891  24.935  18.187  13.842
38363W        W 9892  22.362  35.999   1.850
38364W        W 9893  39.615   7.967   2.736
38365W        W 9894  35.596   5.950   1.179
38366W        W 9895   1.120  41.542  11.994
38367W        W 9896   5.664   6.197   3.861
38368W        W 9897  37.896  42.778  12.627
38369W        W 9898  15.713  16.516  13.974
38370W        W 9899  40.524   2.696   1.112
38371W        W 9900   8.378   2.211   3.621
38372W        W 9901   9.754  10.734   0.946
38373W        W 9902   8.717  19.067   4.487
38374W        W 9903  10.320  42.150  12.188
38375W        W 9904  31.017  19.632  11.959
38376W        W 9905  15.838   1.518  13.298
38377W        W 9906  20.604   0.267  13.321
38378W        W 9907  41.966   8.293   3.152
38379W        W 9908  44.297  41.805  12.924
38380W        W 9909  19.130   8.673  14.799
38381W        W 9910  34.103  15.887  13.512
38382W        W 9911  14.015  31.435   2.642
38383W        W 9912  39.372   8.438   2.751
38384W        W 9913  39.622  35.349   2.399
38385W        W 9914  32.332  22.162  11.989
38386W        W 9915  17.887  20.632  13.646
38387W        W 9916  29.522  39.785   1.399
38388W        W 9917  13.253   1.812  13.110
38389W        W 9918  38.930  21.154  10.628
38390W        W 9919   2.260  12.496   1.758
38391W        W 9920  32.983  36.798   1.873
38392W        W 9921   5.958   9.739   3.167
38393W        W 9922  38.433  40.580  10.508
38394W        W 9923  23.503  17.687  14.364
38395W        W 9924  38.405  18.024  11.633
38396W        W 9925  27.680   7.299  13.400
38397W        W 9926  15.104   9.714   1.334
38398W        W 9927   0.352  20.005  11.523
38399W        W 9928  17.714  14.131   4.246
38400W        W 9929  21.146  41.524   5.211
38401W        W 9930   0.167   3.807   1.728
38402W        W 9931  26.039  43.766   0.476
38403W        W 9932   5.232   9.007   0.068
38404W        W 9933  20.656  22.091   4.348
38405W        W 9934  43.750   1.328  13.706
38406W        W 9935  28.522  27.638  14.402
38407W        W 9936  32.536  28.585  14.832
38408W        W 9937  13.885  35.066  12.999
38409W        W 9938  32.569  16.184  10.195
38410W        W 9939  34.158   8.801  11.332
38411W        W 9940   2.739  23.632   3.370
38412W        W 9941  35.832  36.625  14.793
38413W        W 9942  43.304  32.610   4.858
38414W        W 9943  42.811   7.982  11.965
38415W        W 9944  20.069  18.790  11.256
38416W        W 9945   9.341   4.872  10.751
38417W        W 9946   5.241  31.176   3.132
38418W        W 9947  36.870  33.933   4.947
38419W        W 9948  40.948  10.676  10.883
38420W        W 9949   9.710  32.317  14.057
38421W        W 9950  26.125  42.811   0.419
38422W        W 9951  27.372  36.552   2.630
38423W        W 9952   0.673   3.718   1.748
38424W        W 9953  36.129  39.198   1.840
38425W        W 9954  40.852  33.910   1.306
38426W        W 9955  41.136  35.085   1.935
38427W        W 9956  42.785  19.997  14.473
38428W        W 9957  29.984  13.684   1.883
38429W        W 9958  37.285  38.320   1.837
38430W        W 9959  18.222  10.283  14.339
38431W        W 9960  26.157   5.678   3.148
38432W        W 9961  35.561  33.375   4.096
38433W        W 9962  18.566  13.467   0.031
38434W        W 9963  22.314  13.296  11.098
38435W        W 9964  34.376   5.947  13.998
38436W        W 9965  27.092   0.069  13.305
38437W        W 9966  31.500  23.969   4.861
38438W        W 9967  43.504  17.667  13.610
38439W        W 9968  19.577  30.085   1.396
38440W        W 9969  43.020   6.750   4.299
38441W        W 9970  35.799  16.324  12.851
38442W        W 9971  17.427   7.925  12.537
38443W        W 9972  19.238   0.388  11.495
38444W        W 9973  28.585   9.860   4.056
38445W        W 9974   6.174  39.364   1.391
38446W        W 9975   2.089  28.015   1.639
38447W        W 9976   0.909   1.134  12.999
38448W        W 9977   0.760  18.718   1.348
38449W        W 9978  36.317   6.586   1.857
38450W        W 9979  32.038  19.643  11.917
38451W        W 9980   8.658  17.529   2.140
38452W        W 9981  23.867  44.188  13.945
38453W        W 9982   3.865  21.346  11.068
38454W        W 9983  26.646  22.054   0.832
38455W        W 9984  39.935   1.878   4.129
38456W        W 9985  43.517  23.573   4.476
38457W        W 9986  39.052  17.726   4.703
38458W        W 9987   9.277  28.075  14.915
38459W        W 9988   6.689  25.585  10.382
38460W        W 9989  34.798   5.025  12.431
38461W        W 9990  20.953  13.108   0.020
38462W        W 9991  39.472  10.132   1.280
38463W        W 9992   6.132  23.093  11.105
38464W        W 9993  43.828   8.187   0.167
38465W        W 9994  38.970  43.850   4.032
38466W        W 9995  40.705   3.450  11.596
38467W        W 9996  42.292  20.743  12.431
38468W        W 9997  14.375   5.784   0.867
38469W        W 9998  22.652   8.854   2.000
38470W        W 9999  20.063   7.719  12.579
38471W        W10000  15.877  31.178   4.573
38472W        W10001   4.965  44.737   3.346
38473W        W10002  18.476  20.137   3.732
38474W        W10003   8.668  32.643  14.780
38475W        W10004  10.973   9.531   3.894
38476W        W10005  37.005  36.088  11.992
38477W        W10006   9.076   8.735   3.293
38478W        W10007  35.950  30.419   0.258
38479W        W10008  31.861   1.026  13.545
38480W        W10009  32.826   8.067   2.278
38481W        W10010  15.569  37.507  11.075
38482W        W10011  16.772   4.257   4.850
38483W        W10012  16.521   9.737  13.857
38484W        W10013   8.683  40.425   2.273
38485W        W10014  17.144  24.687   0.233
38486W        W10015   6.157  37.795  11.335
38487W        W10016  27.688  18.561   3.760
38488W        W10017  16.648  27.918  13.236
38489W        W10018  43.753   7.743   2.988
38490W        W10019  42.367   8.369   1.874
38491W        W10020   9.841  27.584  12.327
38492W        W10021  10.947   2.756   4.029
38493W        W10022  43.756  24.688   4.617
38494W        W10023  21.432   1.053  14.511
38495W        W10024  31.316  40.921   1.181
38496W        W10025  40.862  13.852  11.518
38497W        W10026  15.857  12.700   2.311
38498W        W10027  26.207   3.465  10.824
38499W        W10028  38.815  38.317   1.744
38500W        W10029  44.127  33.894   2.170
38501W        W10030  38.937  12.246  14.390
38502W        W10031   8.884  10.877   1.314
38503W        W10032   1.300  40.844  12.483
38504W        W10033  41.374  34.081  12.821
38505W        W10034  39.056  37.228   3.625
38506W        W10035  19.119  34.409   2.848
38507W        W10036  29.534  16.856  10.823
38508W        W10037  40.322  34.791  13.424
38509W        W10038  17.034  33.642   2.821
38510W        W10039  21.086  31.035   1.459
38511W        W10040  39.789  19.073  14.845
38512W        W10041   6.828   0.160  14.723
38513W        W10042  18.594  39.359  12.522
38514W        W10043  28.722  36.811  11.027
38515W        W10044  23.413   7.180  11.823
38516W        W10045  28.665  34.128   0.495
38517W        W10046  37.151  37.298  11.071
38518W        W10047  40.966  24.298  14.062
38519W        W10048   5.659  11.270  14.746
38520W        W10049  25.236  21.042  11.884
38521W        W10050  34.516   6.893   0.721
38522W        W10051  44.421   8.678   1.225
38523W        W10052   3.878  13.588  12.460
38524W        W10053   7.842  40.718   4.121
38525W        W10054  17.205   7.335  14.755
38526W        W10055  28.787  24.065  13.929
38527W        W10056  42.593  27.492  12.021
38528W        W10057  12.740  16.625   0.721
38529W        W10058  32.213  24.698   2.237
38530W        W10059  20.622  42.548   2.324
38531W        W10060  35.596  12.691  13.910
38532W        W10061   0.948   0.178   3.405
38533W        W10062  36.373  32.318  11.535
38534W        W10063  17.545  28.909   3.244
38535W        W10064  13.568  15.206  12.543
38536W        W10065   8.403  22.674   3.647
38537W        W10066  24.987   9.026   1.743
38538W        W10067  12.266  44.896   1.325
38539W        W10068  25.766   0.277  13.058
38540W        W10069  25.601  30.836   1.294
38541W        W10070   0.043  34.207   2.269
38542W        W10071  32.634  11.257   0.766
38543W        W10072  25.392  33.565  11.680
38544W        W10073   0.028  30.209  12.794
38545W        W10074  44.937  21.779   2.934
38546W        W10075   5.846  44.686   4.492
38547W        W10076  29.635  22.532  13.971
38548W        W10077  11.101   1.171   2.143
38549W        W10078   3.849  22.736  13.944
38550W        W10079  20.063  15.289  12.459
38551W        W10080  13.051  11.625   2.695
38552W        W10081  34.488  26.013  13.080
38553W        W10082  35.832   0.047   1.299
38554W        W10083  35.156  21.319  11.260
38555W        W10084  10.712   5.201   4.434
38556W        W10085  31.380  42.075   2.866
38557W        W10086  16.283  18.723   4.390
38558W        W10087  26.649  17.054  10.625
38559W        W10088   9.317  18.399   4.146
38560W        W10089  28.084  16.732   2.676
38561W        W10090  36.109  35.327  14.433
38562W        W10091  19.665  16.697   1.701
38563W        W10092  15.207  31.437   3.354
38564W        W10093  38.561   3.994  13.011
38565W        W10094  12.945  34.637  13.036
38566W        W10095   4.127  39.312   2.295
38567W        W10096  26.442  33.126   1.836
38568W        W10097  32.826  39.120   4.679
38569W        W10098  33.916  32.597   0.167
38570W        W10099   5.654  13.685   3.911
38571W        W10100   3.885   8.411   1.740
38572W        W10101  22.364  19.990   1.481
38573W        W10102  35.395  38.570  14.824
38574W        W10103   8.351  34.490   1.599
38575W        W10104  34.001  33.006  11.025
38576W        W10105   6.666  17.277   3.838
38577W        W10106   2.421  15.038  13.258
38578W        W10107  26.999  36.116   2.409
38579W        W10108  14.212   2.945   4.534
38580W        W10109  37.833  16.788   3.378
38581W        W10110  12.352  18.703   3.241
38582W        W10111  24.655  35.741  12.608
38583W        W10112  38.075  44.093  13.944
38584W        W10113  39.763  37.541  13.539
38585W        W10114   2.524   8.806   2.316
38586W        W10115  15.705  35.502  14.661
38587W        W10116   5.821  14.072  14.737
38588W        W10117  28.061   1.634  12.434
38589W        W10118  20.495   8.085   0.633
38590W        W10119  17.906  14.264   1.681
38591W        W10120  40.589  31.448   1.717
38592W        W10121  19.478   6.436   2.232
38593W        W10122  43.828  42.735   4.242
38594W        W10123  26.542  21.302   0.234
38595W        W10124  11.309  38.647   3.711
38596W        W10125  38.994   9.058   1.003
38597W        W10126  27.441  27.079  14.433
38598W        W10127  13.343   0.798   9.736
38599W        W10128  43.514  31.706  13.935
38600W        W10129  18.102  12.374   0.481
38601W        W10130  29.747  44.113   0.541
38602W        W10131  14.511  38.886  12.612
38603W        W10132  31.925  36.408   2.270
38604W        W10133  36.309  10.408  12.104
38605W        W10134   6.195  11.361   0.206
38606W        W10135  21.020  17.607  14.028
38607W        W10136   9.845   8.731  14.060
38608W        W10137   7.420  17.429   3.328
38609W        W10138   8.662  36.050   4.685
38610W        W10139  28.995   7.932  14.943
38611W        W10140  18.175  17.333   3.292
38612W        W10141  22.713  30.955  11.092
38613W        W10142  11.374  43.521  14.088
38614W        W10143  22.997   6.349   4.543
38615W        W10144   6.559  14.574  12.507
38616W        W10145  14.384  33.100   1.827
38617W        W10146  13.080  24.717   1.308
38618W        W10147  16.631  12.344  11.560
38619W        W10148  14.278  40.661  13.463
38620W        W10149  42.639  20.080   1.402
38621W        W10150  15.173  21.860   3.694
38622W        W10151   2.171  13.285  14.466
38623W        W10152  24.196   7.579  10.383
38624W        W10153   9.486  19.527  10.699
38625W        W10154  44.193  37.236   4.169
38626W        W10155   5.704  31.729  14.315
38627W        W10156   8.794   7.781  12.758
38628W        W10157  15.620  13.636   1.465
38629W        W10158  38.281   0.194  14.865
38630W        W10159  40.018  40.376  10.619
38631W        W10160  27.977   6.750   4.949
38632W        W10161  42.560   2.737   0.337
38633W        W10162  17.175  37.112  14.972
38634W        W10163  21.921  31.199  12.965
38635W        W10164  42.361  35.896   0.269
38636W        W10165  36.615  12.249  14.925
38637W        W10166  23.535   3.961   3.186
38638W        W10167  17.677  27.039  12.493
38639W        W10168   8.660  31.803   3.736
38640W        W10169  24.525  28.972   0.482
38641W        W10170  13.085  39.610  12.724
38642W        W10171  35.828  43.413   1.372
38643W        W10172   8.224  31.188   4.065
38644W        W10173  30.963  10.761   3.257
38645W        W10174  35.042   6.384  13.455
38646W        W10175   1.922  16.275  12.345
38647W        W10176  25.019  36.124   3.348
38648W        W10177  40.783  25.415   1.640
38649W        W10178   5.634   1.356   3.714
38650W        W10179   8.347  34.383   0.970
38651W        W10180  19.742  20.053   3.699
38652W        W10181  12.144   9.363   3.243
38653W        W10182   0.234  30.428  14.433
38654W        W10183  34.906  41.535   4.581
38655W        W10184   8.267  32.705   1.690
38656W        W10185   4.913  37.912   4.735
38657W        W10186   7.107  12.192   2.235
38658W        W10187  39.082  31.956   0.341
38659W        W10188  20.106  10.138   4.142
38660W        W10189  20.459  32.010  14.799
38661W        W10190  25.692  25.742  12.988
38662W        W10191  36.593  38.550   0.376
38663W        W10192  22.709   6.169  12.941
38664W        W10193  41.754  27.874   1.212
38665W        W10194  33.219  37.767  12.939
38666W        W10195   2.285  19.584   0.853
38667W        W10196  40.741  16.173   3.763
38668W        W10197  20.770  36.318   1.184
38669W        W10198  35.815  16.075  11.527
38670W        W10199  16.133  34.156  13.063
38671W        W10200  44.300  18.927   1.808
38672W        W10201  27.894  41.861  14.746
38673W        W10202  40.529   3.687   1.334
38674W        W10203  13.589   1.391   2.281
38675W        W10204  15.516  24.583   2.392
38676W        W10205   0.322   2.954   2.688
38677W        W10206  41.251   0.830   3.070
38678W        W10207  41.221  43.011   0.506
38679W        W10208  11.276  40.895  12.600
38680W        W10209  19.892   3.468  10.124
38681W        W10210   5.875  12.600   2.835
38682W        W10211   1.988  33.132   3.239
38683W        W10212  27.180  15.556  13.710
38684W        W10213  40.027   6.696  14.349
38685W        W10214  28.118  29.789   3.795
38686W        W10215   7.844   8.625   3.631
38687W        W10216  10.013  29.748  12.881
38688W        W10217  36.155   7.755   0.891
38689W        W10218  38.933  31.865   0.831
38690W        W10219  30.932  41.859   1.960
38691W        W10220   5.208  22.967  11.554
38692W        W10221   8.643   0.071  10.699
38693W        W10222  17.358  30.007  11.968
38694W        W10223  19.008   7.793   2.644
38695W        W10224   9.719   6.107   3.334
38696W        W10225   9.704  11.222   3.234
38697W        W10226  19.127  19.277  11.163
38698W        W10227  32.078  22.635  12.053
38699W        W10228   1.026  23.936   1.467
38700W        W10229  41.968  20.025  14.795
38701W        W10230  20.901  34.234   4.784
38702W        W10231  21.549  41.812   5.089
38703W        W10232  43.921   2.928   4.563
38704W        W10233  18.683  36.993  12.227
38705W        W10234   9.128   1.978   3.403
38706W        W10235  22.112  42.902  13.025
38707W        W10236  32.933  34.054   4.606
38708W        W10237   6.309  37.496  14.734
38709W        W10238  21.064   1.895  10.313
38710W        W10239  42.362   6.804   3.707
38711W        W10240  14.738  37.057  14.776
38712W        W10241  40.301  12.357   4.679
38713W        W10242   6.214  42.095   2.211
38714W        W10243  13.493   0.882   0.891
38715W        W10244  19.398  26.037   4.469
38716W        W10245   2.624  21.443   2.157
38717W        W10246  38.030  41.515  11.225
38718W        W10247  18.519  11.633  11.538
38719W        W10248  30.924  36.877  11.491
38720W        W10249  43.726  14.884  14.389
38721W        W10250  11.799  27.180   1.285
38722W        W10251  22.280  34.977   3.346
38723W        W10252  36.393  42.368   0.181
38724W        W10253  37.995  41.043   2.307
38725W        W10254  19.072   2.005  13.850
38726W        W10255  26.976  41.817   0.332
38727W        W10256  36.974  32.808   1.739
38728W        W10257  15.942  17.616   1.569
38729W        W10258  44.075   0.908   4.619
38730W        W10259  38.378  17.522  14.393
38731W        W10260   1.520  30.454  13.060
38732W        W10261   8.821  29.185   2.416
38733W        W10262  26.973  17.668  13.510
38734W        W10263  34.666   7.552  12.593
38735W        W10264  30.287  22.558  14.572
38736W        W10265  14.572   3.174  11.120
38737W        W10266   2.365  28.702  14.559
38738W        W10267  33.059  42.019  10.364
38739W        W10268  20.098  44.868   3.342
38740W        W10269  27.606   1.803  12.127
38741W        W10270  42.248   9.641  13.087
38742W        W10271  27.055  14.244  13.441
38743W        W10272  24.165  24.933  12.551
38744W        W10273  32.920  29.142   0.408
38745W        W10274   6.714  35.093   1.797
38746W        W10275   1.339  34.643  12.356
38747W        W10276   5.838   7.090   4.835
38748W        W10277  28.112   5.174  13.756
38749W        W10278   2.903  25.729   2.757
38750W        W10279  21.674  29.426  13.365
38751W        W10280  21.666  19.810  11.170
38752W        W10281  24.108  33.431   5.079
38753W        W10282   9.845  41.336   4.571
38754W        W10283   3.643  36.102  12.425
38755W        W10284  43.043  43.781  12.977
38756W        W10285  24.969  12.792  14.898
38757W        W10286   6.832  31.449  13.996
38758W        W10287  24.030   7.150  10.638
38759W        W10288  43.591  10.729  14.260
38760W        W10289  16.964  40.044  13.148
38761W        W10290  44.864  37.078   0.904
38762W        W10291  27.856  35.981   3.666
38763W        W10292  23.224  20.782   1.949
38764W        W10293  39.889  24.306  12.158
38765W        W10294  32.781   5.358  14.878
38766W        W10295  20.470  36.507  13.385
38767W        W10296   8.877   8.250  10.753
38768W        W10297   7.948  24.443  12.950
38769W        W10298  24.723  43.815  11.562
38770W        W10299  35.604   8.384  12.214
38771W        W10300  19.197  44.562   3.272
38772W        W10301  18.010  14.629  14.917
38773W        W10302  40.748   8.449   2.683
38774W        W10303  25.408   4.484  10.713
38775W        W10304  20.098   7.362  12.177
38776W        W10305   4.924   3.845   0.948
38777W        W10306  16.575   2.811  11.065
38778W        W10307  18.130  10.241   3.283
38779W        W10308  18.976  34.970   3.692
38780W        W10309   2.317   4.178   0.225
38781W        W10310  25.779  34.010   3.157
38782W        W10311  21.785  41.817   4.173
38783W        W10312   7.368  15.139   3.966
38784W        W10313  20.567  34.561  10.685
38785W        W10314   6.126   4.799  14.049
38786W        W10315  30.687   7.779  12.376
38787W        W10316  27.087  39.625   4.543
38788W        W10317  35.749  42.817  13.783
38789W        W10318  31.392  18.020  14.868
38790W        W10319   5.398   3.657   2.209
38791W        W10320  20.451   6.581  12.068
38792W        W10321   0.262   0.981  10.603
38793W        W10322   0.958  32.139  14.781
38794W        W10323   7.814  26.925  12.248
38795W        W10324  37.058   8.224   3.866
38796W        W10325  36.977  39.037   0.807
38797W        W10326   0.262  15.661   0.731
38798W        W10327  12.269  32.486  12.573
38799W        W10328  12.226  22.724   2.796
38800W        W10329  12.824  33.593   4.793
38801W        W10330  11.065  40.342  13.833
38802W        W10331   4.076  44.383  11.956
38803W        W10332   8.335  15.293  10.620
38804W        W10333  12.321  13.018  11.036
38805W        W10334  40.471  36.079   3.809
38806W        W10335  34.328  32.127  11.247
38807W        W10336  34.612  16.496  11.386
38808W        W10337   0.317  28.781  12.636
38809W        W10338  37.477  42.722   1.259
38810W        W10339  16.096   3.482   3.520
38811W        W10340  31.578   0.190  14.502
38812W        W10341  29.439  10.098  12.940
38813W        W10342   6.132  31.292  12.597
38814W        W10343  29.602  35.841  11.144
38815W        W10344  36.018  21.370   1.837
38816W        W10345  27.177  43.378   2.206
38817W        W10346  29.326  12.382  10.933
38818W        W10347  10.402  11.896  14.864
38819W        W10348   6.710  33.897   0.896
38820W        W10349  33.948   8.099  12.461
38821W        W10350  13.925  10.211   0.835
38822W        W10351  43.478  34.656   2.721
38823W        W10352  11.452  16.249   0.991
38824W        W10353  37.994   5.187  10.716
38825W        W10354  39.222  25.261  13.910
38826W        W10355  10.893  27.610  13.937
38827W        W10356   1.189  39.087  13.412
38828W        W10357   9.262   7.188  14.814
38829W        W10358   6.623  16.090   2.692
38830W        W10359   7.236  32.043   2.362
38831W        W10360  12.725  33.237   0.708
38832W        W10361  39.516  10.909  14.295
38833W        W10362   6.586  38.396  10.474
38834W        W10363  28.466  22.079   0.258
38835W        W10364   0.473  26.068   2.386
38836W        W10365  40.964   6.228   3.236
38837W        W10366  30.164  18.524  14.038
38838W        W10367  19.534   1.430  14.858
38839W        W10368  17.316  42.413   2.563
38840W        W10369  43.046  37.100  13.313
38841W        W10370   2.295  38.414   1.164
38842W        W10371  25.858   3.820   4.568
38843W        W10372  43.558  10.790   1.337
38844W        W10373  23.971  39.909  13.025
38845W        W10374  10.216  11.379  10.931
38846W        W10375   3.801  12.202   2.270
38847W        W10376  19.723   4.864  14.502
38848W        W10377  21.275   2.792   1.806
38849W        W10378  25.260   8.859  13.856
38850W        W10379  23.941   0.214  13.091
38851W        W10380  14.267   6.474  12.005
38852W        W10381  36.325  43.772  12.480
38853W        W10382  25.688  40.457  12.052
38854W        W10383   6.161  27.505   4.888
38855W        W10384  29.072  35.401   3.542
38856W        W10385   6.886  42.808   4.327
38857W        W10386   1.326  42.828   2.588
38858W        W10387  23.048  19.085   1.193
38859W        W10388  33.522   1.088   4.557
38860W        W10389  44.636  18.976  14.281
38861W        W10390  31.833   9.518  12.063
38862W        W10391  15.303  12.841  14.247
38863W        W10392  15.759   6.171  13.935
38864W        W10393   8.820  44.334   0.557
38865W        W10394   4.718   7.765   4.281
38866W        W10395  16.404   1.312   3.698
38867W        W10396   6.240  32.165   3.166
38868W        W10397  33.474  26.105  12.902
38869W        W10398  19.228  38.303   0.335
38870W        W10399  30.589  21.978   3.417
38871W        W10400  27.369  30.646  14.312
38872W        W10401  30.034  23.940  14.208
38873W        W10402   1.952   1.513  13.900
38874W        W10403  43.369   7.947  12.967
38875W        W10404  43.785  11.672  13.908
38876W        W10405  10.839  27.358  13.399
38877W        W10406  27.209  40.967  13.043
38878W        W10407  11.523  40.803  14.421
38879W        W10408  16.967  32.803  14.074
38880W        W10409  41.893   7.655  13.907
38881W        W10410  21.107  28.459   2.072
38882W        W10411  21.793  34.412  13.654
38883W        W10412  19.765  44.753   2.377
38884W        W10413  41.798  25.143  12.529
38885W        W10414  35.344  35.258  11.137
38886W        W10415  23.743   8.070  11.558
38887W        W10416  33.631  38.339   3.921
38888W        W10417   5.247   6.182   2.176
38889W        W10418   8.306  30.817  10.567
38890W        W10419  22.404  44.083  11.153
38891W        W10420  27.663  19.269   4.580
38892W        W10421  20.603   4.945  10.570
38893W        W10422  33.808  31.030  11.943
38894W        W10423   0.512  31.011   4.113
38895W        W10424   3.993  17.207   3.446
38896W        W10425  17.098  30.744   3.175
38897W        W10426  38.796  43.144  13.108
38898W        W10427   8.920  38.624   1.855
38899W        W10428   4.057   1.748   1.669
38900W        W10429  13.908   1.700  11.699
38901W        W10430   8.708   3.932  11.429
38902W        W10431  43.415  36.701   0.998
38903W        W10432  19.694  27.374  14.914
38904W        W10433  22.061  22.640   0.482
38905W        W10434  29.432  41.574   4.070
38906W        W10435   6.428   7.745   0.461
38907W        W10436  14.158  42.551  12.008
38908W        W10437  30.715   4.329   2.785
38909W        W10438  12.582  43.883  12.103
38910W        W10439  35.172  30.410  10.321
38911W        W10440  28.230  31.975   4.580
38912W        W10441  23.904   5.832  14.755
38913W        W10442  38.876  14.395   2.511
38914W        W10443   0.163  12.747  11.028
38915W        W10444  33.632  44.843  11.079
38916W        W10445  41.506   0.996  14.470
38917W        W10446  41.899  22.414   3.267
38918W        W10447  26.424  23.396   1.980
38919W        W10448  25.745   3.865  11.970
38920W        W10449  15.784  43.237  12.006
38921W        W10450  11.622  38.105  12.815
38922W        W10451  24.396   6.956  14.318
38923W        W10452   0.468  13.013   0.946
38924W        W10453  28.154  24.082  10.579
38925W        W10454  15.920  38.446   0.020
38926W        W10455  26.149   6.728  11.973
38927W        W10456   6.414  44.384   2.265
38928W        W10457  33.585  37.459   0.285
38929W        W10458  23.522  36.159  13.543
38930W        W10459  32.343  12.536   4.276
38931W        W10460  13.347  10.134   0.371
38932W        W10461   6.691  44.892  12.200
38933W        W10462  29.916  17.594  11.685
38934W        W10463  13.993  33.935  10.575
38935W        W10464  21.179  38.877   4.152
38936W        W10465  40.915  23.127   1.447
38937W        W10466  10.802   7.856   1.429
38938W        W10467  11.301  23.585   1.555
38939W        W10468  30.480  42.892   3.312
38940W        W10469  42.570  12.137  11.527
38941W        W10470  17.079   5.816   4.476
38942W        W10471  11.256  32.958  12.056
38943W        W10472  16.535  24.719  14.464
38944W        W10473  14.811  41.435   0.782
38945W        W10474  29.953  16.628   1.371
38946W        W10475   8.195  32.990   3.312
38947W        W10476  13.135   0.008   3.179
38948W        W10477  23.983  43.749   4.145
38949W        W10478   7.271  44.857  12.080
38950W        W10479  24.451   5.567   2.040
38951W        W10480  25.420  44.527   0.210
38952W        W10481  30.387  39.375   4.628
38953W        W10482  15.315  25.445   0.857
38954W        W10483  30.715  34.010  12.984
38955W        W10484  34.396  33.196  11.294
38956W        W10485  32.266  31.117   0.749
38957W        W10486  32.501  20.263   3.300
38958W        W10487  38.442   4.416   3.025
38959W        W10488  37.803  13.209  11.570
38960W        W10489  14.180  40.667  11.285
38961W        W10490  16.792  21.611  10.906
38962W        W10491  44.239  30.041  12.362
38963W        W10492   8.285  44.498  10.301
38964W        W10493  33.864  30.883  11.461
38965W        W10494  21.056   2.322   1.920
38966W        W10495  18.628  25.522  11.379
38967W        W10496  21.013  29.512   4.504
38968W        W10497  31.590  34.477   4.610
38969W        W10498  35.355   4.324  12.576
38970W        W10499   2.341  38.330  11.699
38971W        W10500  20.125  23.848  13.995
38972W        W10501  15.597   0.348   1.333
38973W        W10502   5.590  21.676   2.666
38974W        W10503  21.178  44.325   0.597
38975W        W10504  35.562  11.685   4.121
38976W        W10505  11.724  21.731   0.199
38977W        W10506  33.340  37.433  11.599
38978W        W10507   6.078  38.985  14.351
38979W        W10508  10.819   8.499   2.230
38980W        W10509  26.521   3.084   2.554
38981W        W10510  38.395  37.537  14.298
38982W        W10511   2.623   3.701  12.867
38983W        W10512   3.657  30.615  13.352
38984W        W10513  38.138   0.746   4.172
38985W        W10514   3.839  27.841   4.068
38986W        W10515  22.173  24.016  14.051
38987W        W10516  28.356  39.783  11.949
38988W        W10517  38.847   8.373   2.664
38989W        W10518  31.526  40.607  13.052
38990W        W10519   1.550  33.419   3.379
38991W        W10520  11.712  31.151  11.068
38992W        W10521  15.043  26.033  12.461
38993W        W10522  34.330   8.694   2.883
38994W        W10523  44.890  10.323   0.965
38995W        W10524  35.435  17.551   4.208
38996W        W10525   0.771  32.441   0.745
38997W        W10526  42.886  23.101  12.929
38998W        W10527   9.127  28.710   2.664
38999W        W10528  30.401  14.385  12.486
39000W        W10529  36.463   8.361   0.917
39001W        W10530   0.474  40.058  11.114
39002W        W10531  13.622  35.924   4.506
39003W        W10532  41.943  16.866  12.893
39004W        W10533   9.229  19.097   0.939
39005W        W10534  42.869  42.874  12.905
39006W        W10535   6.315   6.902  12.504
39007W        W10536  43.435  36.657   4.431
39008W        W10537  41.460  42.538   0.484
39009W        W10538   6.038  44.485  12.100
39010W        W10539  18.208  25.268  11.594
39011W        W10540  21.511  12.817  14.507
39012W        W10541   2.208  33.065  12.984
39013W        W10542  26.098  34.800   1.266
39014W        W10543  19.720  35.927   1.209
39015W        W10544  22.636  19.787  12.609
39016W        W10545  39.561  38.965  10.793
39017W        W10546   3.807  25.536   2.260
39018W        W10547   9.248   6.627  11.159
39019W        W10548  38.366   7.830   4.547
39020W        W10549  15.867  31.360   1.797
39021W        W10550  26.738   9.248   0.552
39022W        W10551  33.678  24.281  12.473
39023W        W10552   3.875  29.974   3.995
39024W        W10553  41.617  32.875  12.108
39025W        W10554  33.945  14.131  14.905
39026W        W10555  11.848  21.973   3.254
39027W        W10556  29.550  19.411   3.612
39028W        W10557   8.224   1.837  13.986
39029W        W10558  20.265  39.815   2.606
39030W        W10559   0.835  21.730   2.418
39031W        W10560  42.414  41.442  11.159
39032W        W10561  29.623  37.866   1.871
39033W        W10562   3.279  22.034   1.855
39034W        W10563   9.360  23.407   1.647
39035W        W10564  35.222  13.219  12.205
39036W        W10565  17.262  22.282   3.327
39037W        W10566   4.918  34.164   3.789
39038W        W10567   2.623  44.415   1.411
39039W        W10568  18.799  29.435  14.360
39040W        W10569   9.198  18.063  13.654
39041W        W10570   6.823  32.052   0.199
39042W        W10571  20.146  24.622  13.582
39043W        W10572  30.140  18.551   1.753
39044W        W10573  35.458   2.847   4.856
39045W        W10574  30.043  35.142  12.276
39046W        W10575  34.445  23.515  11.570
39047W        W10576  17.016  39.072  12.366
39048W        W10577   8.918  26.477  14.553
39049W        W10578   8.659   9.020  10.697
39050W        W10579  13.198  22.754  12.229
39051W        W10580  32.463   4.461   3.134
39052W        W10581   4.199   9.502   0.920
39053W        W10582  31.266  41.532   2.210
39054W        W10583  11.565   1.047   0.282
39055W        W10584   6.353  13.083   3.675
39056W        W10585  22.468   7.858   4.189
39057W        W10586  42.840   1.463   0.842
39058W        W10587  21.739   0.398  14.841
39059W        W10588  12.381  42.021  12.001
39060W        W10589   7.488  25.925   1.933
39061W        W10590  21.134   2.521   0.190
39062W        W10591   5.419  11.822   3.194
39063W        W10592  24.503  42.248  12.999
39064W        W10593   1.442  15.859   0.317
39065W        W10594  17.499   0.803   1.795
39066W        W10595  33.218  31.082  14.179
39067W        W10596  14.782   3.819   4.570
39068W        W10597  43.137  29.676   4.530
39069W        W10598  20.764  35.067  10.591
39070W        W10599  35.452  17.349  13.915
39071W        W10600  34.988  14.596  13.388
39072W        W10601  43.094  32.144  10.676
39073W        W10602  22.574   6.668   4.640
39074W        W10603  18.298   6.620   1.101
39075W        W10604  27.005  37.940  14.376
39076W        W10605  41.307  34.909   2.398
39077W        W10606   3.923  36.071  14.244
39078W        W10607  16.253  42.780  10.685
39079W        W10608  28.654  10.711   0.994
39080W        W10609   0.068  23.572   1.430
39081W        W10610  32.670  29.469  11.465
39082W        W10611   2.000  22.521  14.320
39083W        W10612  44.868  40.314   0.331
39084W        W10613  29.107  10.703   0.244
39085W        W10614  17.719  27.989   1.792
39086W        W10615  29.431   8.935  14.794
39087W        W10616  30.133  12.906   2.654
39088W        W10617  24.544  35.092  13.475
39089W        W10618  43.293  30.632  11.182
39090W        W10619  25.309   1.163   0.844
39091W        W10620  13.237  33.102   0.689
39092W        W10621  19.602  32.566   4.687
39093W        W10622  44.828  19.489   4.154
39094W        W10623  31.430   0.487   2.914
39095W        W10624  17.255   1.248  10.817
39096W        W10625  12.726  29.647   2.220
39097W        W10626   9.889  32.608   2.266
39098W        W10627  13.259   0.267   2.671
39099W        W10628  12.617  37.487   0.916
39100W        W10629  43.950   6.256   2.752
39101W        W10630  25.495  21.772   3.250
39102W        W10631  25.420   9.970   4.205
39103W        W10632  42.799  21.040  10.651
39104W        W10633  25.066  35.580   3.867
39105W        W10634  33.482  41.461  13.058
39106W        W10635  17.704  37.156   3.374
39107W        W10636  44.916  11.269  14.532
39108W        W10637  32.360   6.845  10.752
39109W        W10638  43.511  37.175   4.477
39110W        W10639  12.107  12.868   1.777
39111W        W10640  40.410  14.123  11.713
39112W        W10641  29.033  26.081   2.416
39113W        W10642  14.145   7.901  13.489
39114W        W10643  23.223   8.314   4.540
39115W        W10644  13.060  26.735   4.330
39116W        W10645  27.434  40.968   1.146
39117W        W10646  38.606   6.952  11.493
39118W        W10647  24.505   2.922  12.061
39119W        W10648  39.012   6.856   4.174
39120W        W10649  23.190  39.538   3.123
39121W        W10650  38.290  17.260   3.942
39122W        W10651  38.536  33.031  13.386
39123W        W10652   4.429   3.906   1.140
39124W        W10653  23.066  42.277  14.868
39125W        W10654  16.167  39.769  13.397
39126W        W10655  15.705   2.869   2.287
39127W        W10656   3.795  12.223  14.654
39128W        W10657   8.310   1.920  13.010
39129W        W10658  30.375  42.431   0.748
39130W        W10659  16.331  14.266   2.239
39131W        W10660  33.673  18.171  13.158
39132W        W10661  25.057  41.886  14.953
39133W        W10662  28.920  32.598  14.791
39134W        W10663   7.755  30.577   4.512
39135W        W10664   9.145  38.825   3.312
39136W        W10665  35.937  16.747  14.870
39137W        W10666   0.955   4.744   4.770
39138W        W10667  28.470  19.185   3.062
39139W        W10668  37.734  18.639   0.637
39140W        W10669  21.178   1.300  11.225
39141W        W10670  41.721   6.382   4.074
39142W        W10671  44.794  40.938   3.477
39143W        W10672  15.258  42.965  10.593
39144W        W10673   1.202  11.782  11.559
39145W        W10674  26.562   9.795  11.391
39146W        W10675  42.023  21.312   2.677
39147W        W10676  28.990   1.606   3.840
39148W        W10677  10.554  10.759  10.675
39149W        W10678  30.925  16.104  12.993
39150W        W10679  19.288   8.253   3.349
39151W        W10680  43.398  35.615   4.657
39152W        W10681  14.290   6.961  11.893
39153W        W10682  26.855   0.805   1.737
39154W        W10683  44.586  11.414  10.141
39155W        W10684  32.432  31.557  14.505
39156W        W10685  38.603  31.860   1.961
39157W        W10686   7.782  41.761  13.124
39158W        W10687  34.442  35.573   2.088
39159W        W10688  41.270  31.670  14.355
39160W        W10689  13.950   6.263   1.749
39161W        W10690  36.083  44.853  14.891
39162W        W10691  12.906   9.244  11.546
39163W        W10692   6.872   8.217   0.848
39164W        W10693  25.467  18.828  13.082
39165W        W10694  25.867   5.912   4.102
39166W        W10695  44.407  11.178   2.696
39167W        W10696  17.055  41.887  14.821
39168W        W10697  17.180  19.321   4.405
39169W        W10698  21.227  27.985   0.895
39170W        W10699  27.014  24.974   4.122
39171W        W10700  34.141  24.846   3.689
39172W        W10701  18.617  18.575   1.413
39173W        W10702  14.748  19.162   3.622
39174W        W10703  18.577  25.095   3.662
39175W        W10704  33.180  39.341   4.340
39176W        W10705  12.195   5.690   0.389
39177W        W10706  37.066  18.880  11.445
39178W        W10707  33.681   8.248   0.770
39179W        W10708  33.855  23.445   2.402
39180W        W10709   8.059  24.630  12.459
39181W        W10710  22.193  42.803  13.906
39182W        W10711  15.580   7.411   1.020
39183W        W10712  25.780  29.644   4.215
39184W        W10713   1.001  34.966   2.142
39185W        W10714  15.658  32.497  12.073
39186W        W10715   1.941   9.379   0.437
39187W        W10716  33.843  21.803   0.325
39188W        W10717   5.406   2.909  14.973
39189W        W10718   1.589  26.249  10.929
39190W        W10719   8.439  44.729   3.568
39191W        W10720  42.412   1.412   4.589
39192W        W10721  25.454   2.694   1.634
39193W        W10722   4.458  31.429   2.885
39194W        W10723  15.333  26.585   3.588
39195W        W10724  18.201   2.142  12.842
39196W        W10725  13.916  43.394   1.594
39197W        W10726  24.962   6.296   3.176
39198W        W10727  22.238  35.473  13.308
39199W        W10728  23.040  11.752   3.188
39200W        W10729  40.464  33.672   1.658
39201W        W10730  20.264   1.412  13.269
39202W        W10731  31.545  13.597   0.330
39203W        W10732   8.852  40.894  13.214
39204W        W10733   8.315  30.497  13.614
39205W        W10734  25.620   7.681   4.549
39206W        W10735  41.374   6.028   3.904
39207W        W10736  16.381  26.683  13.089
39208W        W10737  13.118  13.546   0.278
39209W        W10738  18.709  43.682   3.306
39210W        W10739  25.188  38.419   0.469
39211W        W10740  41.550  32.982  13.479
39212W        W10741   9.447  36.888   0.961
39213W        W10742  36.440  37.904   2.358
39214W        W10743  20.679   3.907   0.272
39215W        W10744  37.933   9.186   0.508
39216W        W10745  19.495  22.020   0.280
39217W        W10746  41.465  42.496  14.062
39218W        W10747  37.502  36.639  10.647
39219W        W10748  25.954  40.219  13.915
39220W        W10749  25.104  36.095  11.397
39221W        W10750  36.084  27.711  14.619
39222W        W10751  37.054  30.265  11.041
39223W        W10752  38.079  14.344   0.848
39224W        W10753  12.276  37.926  13.531
39225W        W10754  21.758  28.479  13.567
39226W        W10755  42.751   9.870  14.005
39227W        W10756  42.282  25.736   3.382
39228W        W10757  10.527  23.128   1.978
39229W        W10758   4.327  41.790  14.387
39230W        W10759  33.563  33.060   3.250
39231W        W10760  12.564  38.897   1.099
39232W        W10761  41.363   5.503   3.737
39233W        W10762   7.166  24.200   0.398
39234W        W10763  43.934  30.737   4.981
39235W        W10764  15.034  29.222  11.050
39236W        W10765   8.889  27.315   3.233
39237W        W10766  36.833  15.408   2.268
39238W        W10767  37.867  32.134   5.091
39239W        W10768  25.770  23.663  12.939
39240W        W10769  32.057  44.458   0.754
39241W        W10770  24.680  37.607  12.533
39242W        W10771  41.822  28.181   4.096
39243W        W10772  24.107  22.734  14.993
39244W        W10773   1.702  44.502  11.314
39245W        W10774  18.237  40.925   4.099
39246W        W10775  33.051   6.715   4.065
39247W        W10776  20.539  11.137   2.237
39248W        W10777  13.853  34.816   0.493
39249W        W10778  34.045   1.856  14.579
39250W        W10779  37.061  12.179  12.054
39251W        W10780   6.496  43.565   3.331
39252W        W10781   9.190  14.808   1.235
39253W        W10782   0.502  35.939   0.475
39254W        W10783  29.070  39.517   1.373
39255W        W10784  39.603  42.118  12.482
39256W        W10785  25.061  32.504   0.300
39257W        W10786  38.179   5.231  14.405
39258W        W10787   4.427  10.824   4.661
39259W        W10788  16.340  26.233  11.668
39260W        W10789   7.307  20.796  14.543
39261W        W10790  38.916  27.958  12.126
39262W        W10791  37.443  10.782   4.675
39263W        W10792  23.901  12.771   0.809
39264W        W10793  34.260  26.014   2.832
39265W        W10794  29.824  12.263  10.994
39266W        W10795  23.927  31.933   3.178
39267W        W10796  14.533  31.580   4.162
39268W        W10797  30.740  30.836   2.091
39269W        W10798  15.577  41.216  11.242
39270W        W10799  16.882   4.472  14.353
39271W        W10800  18.243   6.304  11.183
39272W        W10801   3.301  23.264   1.372
39273W        W10802  40.491  37.485   1.166
39274W        W10803  28.615  19.838   3.716
39275W        W10804  44.124  23.344   1.935
39276W        W10805  12.552   4.767   2.305
39277W        W10806  14.379   1.684   4.606
39278W        W10807  33.378  38.356  10.807
39279W        W10808  30.078  24.726   4.026
39280W        W10809  10.672  40.311  12.383
39281W        W10810  23.944  39.954  11.702
39282W        W10811   4.734  32.199  12.521
39283W        W10812  28.633   3.825  11.099
39284W        W10813  35.880  13.914   3.654
39285W        W10814  25.089  44.534  11.986
39286W        W10815  35.440  30.872   0.962
39287W        W10816  32.333   1.626  13.910
39288W        W10817  30.462  27.471   1.877
39289W        W10818  38.900  17.206  10.777
39290W        W10819  44.526   3.946   0.261
39291W        W10820   2.205  14.798  14.959
39292W        W10821  21.762   1.359   0.656
39293W        W10822  30.569  11.860   4.945
39294W        W10823  14.826  31.079   1.369
39295W        W10824  31.387  16.495   0.724
39296W        W10825   8.757  28.380  12.101
39297W        W10826   7.037  12.603  11.140
39298W        W10827  28.908  34.170   1.749
39299W        W10828  10.788   9.952  12.608
39300W        W10829  31.892  10.811   1.063
39301W        W10830  41.719   6.749   4.550
39302W        W10831  10.044  27.461  13.981
39303W        W10832  14.630  13.368  13.020
39304W        W10833  20.678  20.124   3.250
39305W        W10834  32.153  40.037   3.072
39306W        W10835  14.512  23.710   4.649
39307W        W10836   5.249  31.918  11.961
39308W        W10837  11.702  17.132   4.465
39309W        W10838   7.983  34.902   0.444
39310W        W10839  16.016  11.089  14.934
39311W        W10840  28.164  23.169  11.689
39312W        W10841  39.465  41.581  12.065
39313W        W10842   6.590  35.010  14.016
39314W        W10843  10.779   1.983  11.550
39315W        W10844  24.034  35.357   0.185
39316W        W10845  39.383  32.614   3.646
39317W        W10846  44.385  28.330   2.098
39318W        W10847   6.138   8.264   1.946
39319W        W10848  44.831   6.596  11.118
39320W        W10849  41.129  12.395  12.934
39321W        W10850  13.132   0.008   1.384
39322W        W10851  31.983  15.110  11.315
39323W        W10852  11.741  38.449  13.370
39324W        W10853  11.509   3.266   4.715
39325W        W10854  18.278  37.421  10.701
39326W        W10855  25.357   8.355   2.302
39327W        W10856  44.519  29.392   0.062
39328W        W10857  40.316  21.240   2.239
39329W        W10858  14.522  28.691  14.270
39330W        W10859   5.266   5.714  10.744
39331W        W10860   0.516  19.994   2.075
39332W        W10861   4.949  23.424   2.173
39333W        W10862  44.047  35.611   0.377
39334W        W10863   2.275  37.841  10.818
39335W        W10864  36.595  26.922  13.488
39336W        W10865  34.928  12.903  11.776
39337W        W10866  28.157  29.056  13.288
39338W        W10867   3.103   7.539   4.192
39339W        W10868  10.593  11.859  13.457
39340W        W10869  10.400  33.768   0.492
39341W        W10870   0.443  43.789   0.105
39342W        W10871  41.268  25.537  11.196
39343W        W10872  13.969   8.657   1.509
39344W        W10873  31.011   7.848   2.193
39345W        W10874   0.746   6.313  14.572
39346W        W10875  24.421  38.871   2.743
39347W        W10876   7.907  16.367  13.470
39348W        W10877  20.992  17.735   2.748
39349W        W10878  19.765  21.427   4.799
39350W        W10879   2.314  26.163  14.828
39351W        W10880  44.308  36.856  14.883
39352W        W10881  11.701  27.622  13.358
39353W        W10882   0.490  35.082   1.365
39354W        W10883   8.334  37.555   0.542
39355W        W10884  11.663  42.418  13.673
39356W        W10885  43.935   6.052   1.801
39357W        W10886  14.886  28.369  10.627
39358W        W10887  15.023  40.387  10.555
39359W        W10888  12.385  29.662  13.506
39360W        W10889  44.376  12.616   0.259
39361W        W10890  11.515  23.255   3.123
39362W        W10891  18.665  29.972   3.642
39363W        W10892  22.521  17.742  14.450
39364W        W10893  44.556  42.000  11.631
39365W        W10894  36.443   0.877   2.221
39366W        W10895  23.956  32.130   2.279
39367W        W10896  32.049  33.361  13.287
39368W        W10897  17.610  32.843   4.124
39369W        W10898  37.973  35.047  11.472
39370W        W10899   3.141  12.290  12.419
39371W        W10900  34.483  12.099  14.749
39372W        W10901  28.904  34.218   4.039
39373W        W10902  41.947   8.383  11.004
39374W        W10903  10.221   6.947   5.008
39375W        W10904  22.744  37.846   3.399
39376W        W10905  29.032  43.983  10.889
39377W        W10906   8.911  44.497   2.356
39378W        W10907   3.364  37.217   1.963
39379W        W10908  31.906  40.482   2.311
39380W        W10909  43.659  19.679  12.962
39381W        W10910  40.567  13.882   1.184
39382W        W10911  19.611   1.934   1.251
39383W        W10912  26.229  33.002   2.860
39384W        W10913  33.817  40.967  11.597
39385W        W10914   8.668   1.190  12.014
39386W        W10915  30.394   6.072  12.022
39387W        W10916  30.629   7.944  12.856
39388W        W10917  41.366   4.983  11.517
39389W        W10918  12.960  37.614  12.515
39390W        W10919   0.422  36.979  13.163
39391W        W10920  11.318  12.107   2.774
39392W        W10921  25.286  43.298  11.180
39393W        W10922  23.444  23.127  11.959
39394W        W10923   3.224  23.523   3.187
39395W        W10924  42.933  21.292  14.363
39396W        W10925  40.104  18.973   4.781
39397W        W10926  35.256  13.491   0.390
39398W        W10927  10.140  13.759   0.787
39399W        W10928  35.932   3.431  10.977
39400W        W10929  26.154  25.659   0.820
39401W        W10930  10.285  39.082  12.435
39402W        W10931  11.559  17.791  11.163
39403W        W10932  23.763   2.937  11.585
39404W        W10933  42.513  36.241   1.765
39405W        W10934   4.322  35.634  12.572
39406W        W10935  14.217  14.044  11.974
39407W        W10936  41.423  22.096  14.358
39408W        W10937  38.387  23.492   2.257
39409W        W10938   4.894  15.237  10.944
39410W        W10939  25.591  29.990  11.497
39411W        W10940   4.157  31.776   4.504
39412W        W10941  24.292  38.231   2.148
39413W        W10942  23.102  29.111   1.346
39414W        W10943  21.799  20.091  13.926
39415W        W10944   1.900  18.416   2.562
39416W        W10945   4.933  20.865  12.758
39417W        W10946  21.250  30.525  10.228
39418W        W10947  39.510  13.727   2.861
39419W        W10948  38.600  42.182  13.959
39420W        W10949   9.209  12.784  11.143
39421W        W10950   1.260  42.724  14.705
39422W        W10951  22.276  41.390  13.926
39423W        W10952   8.116   8.727  12.158
39424W        W10953  30.178  42.259  10.412
39425W        W10954   4.907  22.469   0.601
39426W        W10955  39.455  21.961   1.177
39427W        W10956  41.545  38.982   1.447
39428W        W10957  41.553  34.303  11.201
39429W        W10958   5.423  19.959  11.145
39430W        W10959  24.181  34.050   0.861
39431W        W10960  15.687  42.370  12.973
39432W        W10961  24.449  13.780   3.121
39433W        W10962  24.242   0.973  12.472
39434W        W10963  26.840  22.744  11.220
39435W        W10964   7.348   2.659   3.252
39436W        W10965  28.544   5.332  13.489
39437W        W10966  35.890  39.022  10.634
39438W        W10967  38.505  38.585   2.647
39439W        W10968  24.633   2.141  11.728
39440W        W10969  29.051  20.210   1.262
39441W        W10970  21.547  40.985  13.021
39442W        W10971  23.877  17.435   2.817
39443W        W10972   4.416  11.932   4.659
39444W        W10973  12.405  14.667  14.842
39445W        W10974   8.215  43.670  13.549
39446W        W10975   0.977   0.755   2.280
39447W        W10976  42.492   9.725  11.608
39448W        W10977  28.632  12.143  13.904
39449W        W10978  15.053   0.981  10.720
39450W        W10979  15.709  17.273   3.628
39451W        W10980  13.573  15.710   2.755
39452W        W10981   4.935   1.985  10.617
39453W        W10982  21.089  17.037  14.876
39454W        W10983  13.711  39.004  14.826
39455W        W10984   5.543  34.101  12.144
39456W        W10985  13.643  27.490  13.396
39457W        W10986  15.247  32.864   1.914
39458W        W10987  31.511  26.239  12.008
39459W        W10988   3.857   0.284  12.433
39460W        W10989   8.384   2.435   2.726
39461W        W10990   7.018  12.288   3.690
39462W        W10991  23.433  20.771   3.719
39463W        W10992  41.932  16.770  14.403
39464W        W10993  18.133  25.605  13.081
39465W        W10994  28.565   1.928   2.562
39466W        W10995  13.942   7.656  10.179
39467W        W10996  21.548  36.282   4.802
39468W        W10997   1.773  13.216   3.648
39469W        W10998  28.139  14.834   4.174
39470W        W10999  21.292  21.157   4.105
39471W        W11000  27.807  20.108  11.585
39472W        W11001  41.447   0.241   2.215
39473W        W11002  29.220  40.966   0.854
39474W        W11003   0.672  43.431   4.815
39475W        W11004  28.615  23.750  10.995
39476W        W11005   4.910  34.462   4.642
39477W        W11006  20.320  10.359   4.607
39478W        W11007  19.605   5.356   1.361
39479W        W11008  33.874  34.613  12.955
39480W        W11009  19.309  29.135   1.935
39481W        W11010  36.409  23.661   4.654
39482W        W11011  19.751  34.311  13.539
39483W        W11012   0.205  39.450   3.713
39484W        W11013  13.936  17.427   0.548
39485W        W11014  14.053  21.635   2.598
39486W        W11015  41.753  40.383   3.236
39487W        W11016  11.591  44.267  14.594
39488W        W11017   0.743  13.204  12.582
39489W        W11018  30.899  40.230   0.693
39490W        W11019   3.226  17.036  11.658
39491W        W11020  14.603   0.796   0.322
39492W        W11021  27.823  26.737   2.204
39493W        W11022   7.751  44.952  11.856
39494W        W11023  17.558  36.217  12.716
39495W        W11024  44.944  42.950   3.405
39496W        W11025   4.821  27.393   4.196
39497W        W11026   3.661  14.800   1.357
39498W        W11027   5.258  42.980   4.949
39499W        W11028  39.495  37.505   3.648
39500W        W11029  18.287  43.819  13.360
39501W        W11030   3.231   0.415  14.458
39502W        W11031  36.648  16.773   1.293
39503W        W11032  42.010  25.417  10.729
39504W        W11033   3.716  31.285  13.945
39505W        W11034  12.998  27.232  13.382
39506W        W11035  38.939  17.470  10.325
39507W        W11036  21.193   1.695  11.668
39508W        W11037  13.251   6.678  13.746
39509W        W11038   4.004  11.383   4.166
39510W        W11039   4.449  40.005  13.561
39511W        W11040  40.531  44.459   4.594
39512W        W11041  35.595  39.866  14.756
39513W        W11042  11.456  15.332  10.665
39514W        W11043   2.315  23.326  13.335
39515W        W11044  33.196  14.143  12.189
39516W        W11045  22.623  23.062   1.878
39517W        W11046  31.627  35.510   3.675
39518W        W11047  26.362  27.376   4.121
39519W        W11048  26.631  35.381   0.238
39520W        W11049  33.435  21.297   0.290
39521W        W11050   7.612  38.081   0.241
39522W        W11051  13.414  38.851  14.418
39523W        W11052  28.609  35.503   1.932
39524W        W11053  14.204   1.935  10.536
39525W        W11054  18.523  15.868   4.161
39526W        W11055  19.189  35.372  11.834
39527W        W11056  43.288   4.454   4.411
39528W        W11057  12.927  33.552   9.960
39529W        W11058   1.998  43.038  14.477
39530W        W11059   9.195  26.692  11.069
39531W        W11060   1.727  33.816   3.671
39532W        W11061   8.254   4.694   2.824
39533W        W11062  37.327   7.086  12.485
39534W        W11063   6.603  38.327  13.749
39535W        W11064   1.316  37.240  11.627
39536W        W11065  23.188  29.671  11.986
39537W        W11066  38.490   4.700   4.090
39538W        W11067  31.593  23.923  12.963
39539W        W11068  40.323  10.776  10.839
39540W        W11069  15.684  16.773   3.766
39541W        W11070   7.236  40.076  13.103
39542W        W11071   9.286  25.184  14.731
39543W        W11072  44.083  20.155   2.385
39544W        W11073  41.596  21.494  14.308
39545W        W11074   2.220  40.063   3.112
39546W        W11075   1.193   4.071   0.698
39547W        W11076  12.734  40.744   0.445
39548W        W11077   4.798   7.850  11.101
39549W        W11078  21.457  27.159   4.554
39550W        W11079  25.613   7.155  10.747
39551W        W11080  42.778  19.229  11.583
39552W        W11081  14.641  37.387  13.505
39553W        W11082   0.157   5.205   3.417
39554W        W11083  39.742   7.140  14.384
39555W        W11084  28.108  37.517  10.424
39556W        W11085   1.565  26.864   0.021
39557W        W11086  27.116  38.338  13.440
39558W        W11087  10.268  31.263  12.589
39559W        W11088   6.925  24.025  13.989
39560W        W11089   5.574  42.373   1.368
39561W        W11090  19.565  27.832   0.420
39562W        W11091  13.369   8.193  10.698
39563W        W11092   8.696  38.394   0.449
39564W        W11093  16.488  18.582   3.247
39565W        W11094  20.801  17.847  13.610
39566W        W11095  17.444  38.601  14.741
39567W        W11096   3.415  23.785  14.318
39568W        W11097  13.932  33.583   2.794
39569W        W11098  23.451  31.472   1.263
39570W        W11099  25.658   8.281   3.714
39571W        W11100  41.118  29.150   1.379
39572W        W11101  14.144  23.922  14.385
39573W        W11102  34.009   9.109   3.699
39574W        W11103  36.618  13.553   0.371
39575W        W11104  16.615   4.824   1.454
39576W        W11105  39.925  30.698   2.439
39577W        W11106  12.659  26.454   4.186
39578W        W11107   9.089  28.121  12.483
39579W        W11108   8.163  21.624   3.328
39580W        W11109   3.741   9.826   2.898
39581W        W11110   7.495  37.531   3.834
39582W        W11111  17.086  13.830   1.283
39583W        W11112  35.635  36.106  14.496
39584W        W11113  19.496  27.193   2.438
39585W        W11114   2.689  17.054  13.419
39586W        W11115  14.005   0.950  10.620
39587W        W11116  20.680  12.423   3.409
39588W        W11117  23.522  32.880  12.083
39589W        W11118  11.724  37.520  11.027
39590W        W11119   6.911   9.893   3.467
39591W        W11120   1.229  16.729   3.128
39592W        W11121  37.438  40.708  12.649
39593W        W11122  34.852  18.252  10.631
39594W        W11123  18.218   5.179   4.593
39595W        W11124  26.748  20.415   1.847
39596W        W11125   9.644  27.637   3.863
39597W        W11126  38.509  21.298   4.264
39598W        W11127  17.984  22.278  11.293
39599W        W11128  35.571  19.182  13.974
39600W        W11129  36.852  31.973  13.402
39601W        W11130   6.372  18.504   3.578
39602W        W11131  10.913  36.262   2.464
39603W        W11132  32.851  24.159  14.231
39604W        W11133  25.145  35.791  13.397
39605W        W11134  36.183  33.090   3.649
39606W        W11135  16.323  23.459   3.977
39607W        W11136  19.457  31.859   1.295
39608W        W11137  12.048  12.682  13.880
39609W        W11138   7.383   4.927   2.412
39610W        W11139   0.406  39.814   2.824
39611W        W11140   2.590  24.968  11.743
39612W        W11141  34.062  34.354   3.970
39613W        W11142  13.380  15.413  14.814
39614W        W11143  35.134  23.177  12.698
39615W        W11144  41.113  35.970   1.721
39616W        W11145   7.420  30.956   0.546
39617W        W11146  15.042  23.902  14.458
39618W        W11147  40.051  21.273   1.786
39619W        W11148  13.239  21.581   3.716
39620W        W11149  38.764   3.868   4.541
39621W        W11150   5.262   9.816  12.002
39622W        W11151  28.676   5.882   3.587
39623W        W11152  14.223  44.780  13.965
39624W        W11153  30.336  12.230   0.497
39625W        W11154  28.498  30.984   1.896
39626W        W11155   9.566  35.598   3.845
39627W        W11156  40.007  43.491  14.838
39628W        W11157  15.549  18.505  13.794
39629W        W11158  16.563   5.445  14.405
39630W        W11159  30.682  20.261  13.135
39631W        W11160  21.741  39.386   2.331
39632W        W11161  24.600  39.468  11.000
39633W        W11162   9.868  11.344   4.772
39634W        W11163   5.622   5.855   4.668
39635W        W11164  34.392  16.040   0.147
39636W        W11165   9.181   7.813   0.954
39637W        W11166   4.932  30.082  10.102
39638W        W11167  24.087  31.943  11.806
39639W        W11168  15.573  34.093  11.487
39640W        W11169   7.970  24.013  10.706
39641W        W11170  25.424  28.922   1.425
39642W        W11171  12.829  24.675  11.468
39643W        W11172  21.673  32.855  12.049
39644W        W11173  27.903   9.323  10.400
39645W        W11174  16.716  25.388  10.743
39646W        W11175  29.335   9.859   4.460
39647W        W11176  32.066  32.482   0.257
39648W        W11177  30.992  43.795  12.811
39649W        W11178  23.729  12.901  13.860
39650W        W11179   2.392  41.108   0.444
39651W        W11180  41.587  13.692  14.255
39652W        W11181  40.320  35.334  13.384
39653W        W11182   3.780   7.634  12.844
39654W        W11183  11.148   7.807   1.835
39655W        W11184  19.696   5.695   1.780
39656W        W11185  12.827  43.567  12.594
39657W        W11186  27.099  14.597   1.292
39658W        W11187  39.962   6.940  14.840
39659W        W11188  27.563  14.283   1.824
39660W        W11189  23.664  29.194   2.947
39661W        W11190   7.270  32.313   4.615
39662W        W11191  31.802   1.760   0.363
39663W        W11192  22.531  40.558   2.600
39664W        W11193  30.104  40.353  12.941
39665W        W11194  16.243  38.313  14.333
39666W        W11195   3.445  18.441   0.303
39667W        W11196  10.463  26.458   2.878
39668W        W11197   9.248  24.417  13.487
39669W        W11198  40.794  19.969  13.430
39670W        W11199  18.795   9.566   2.887
39671W        W11200  20.743  39.971  13.153
39672W        W11201   2.041   2.052  11.184
39673W        W11202  11.170   3.186   2.359
39674W        W11203  11.269  20.801   3.348
39675W        W11204  30.712  17.718  14.407
39676W        W11205  42.038  20.158  13.047
39677W        W11206  19.345  44.816  13.632
39678W        W11207  39.781  42.265   0.329
39679W        W11208   5.141  34.958   0.012
39680W        W11209  40.502   8.859  12.223
39681W        W11210  25.702  36.422   1.660
39682W        W11211  31.136  19.045  14.268
39683W        W11212  22.636  33.469  14.845
39684W        W11213  20.589  26.643   3.867
39685W        W11214  31.428  23.041  13.176
39686W        W11215  43.426  44.153   4.543
39687W        W11216   4.926   2.008  11.489
39688W        W11217  42.878  23.996  11.248
39689W        W11218  18.188  42.150  14.229
39690W        W11219  10.226  12.385  10.521
39691W        W11220  42.468  28.193  12.307
39692W        W11221  11.315  19.205   4.762
39693W        W11222   7.334   7.662   1.196
39694W        W11223   2.773   8.174   1.928
39695W        W11224  13.118  22.585  13.644
39696W        W11225   0.833  31.569  13.924
39697W        W11226  20.301   1.312   0.266
39698W        W11227  21.006   4.698  12.626
39699W        W11228  43.782  29.540   2.393
39700W        W11229  18.507   7.753   2.717
39701W        W11230  43.527  27.937  12.067
39702W        W11231  16.287   6.380   2.951
39703W        W11232  35.603  11.236   0.666
39704W        W11233  21.680  37.746   9.896
39705W        W11234  31.154  36.633   2.921
39706W        W11235  35.049   4.598   1.408
39707W        W11236  23.248  18.110   2.306
39708W        W11237  32.643  39.582   2.060
39709W        W11238  44.382  30.480  12.041
39710W        W11239  23.943   1.838   2.352
39711W        W11240  28.858  38.095   3.816
39712W        W11241  28.113  40.309  13.967
39713W        W11242  12.599  23.924  13.357
39714W        W11243  18.266  12.865  11.664
39715W        W11244  23.526  31.876  14.053
39716W        W11245  23.757   0.797  12.526
39717W        W11246  13.192  22.377   5.094
39718W        W11247  25.911  13.716   3.140
39719W        W11248  40.472  38.783  14.276
39720W        W11249   7.151   9.255   0.361
39721W        W11250  34.417  14.159   0.831
39722W        W11251   1.226  22.166   3.769
39723W        W11252  31.062  23.402  10.244
39724W        W11253  18.664  44.755   3.293
39725W        W11254  29.307   7.840   2.725
39726W        W11255  39.970  43.482  12.844
39727W        W11256  32.119   8.147  13.957
39728W        W11257  22.027   2.917  12.911
39729W        W11258   3.557  44.067   1.726
39730W        W11259  23.014  14.886  14.807
39731W        W11260  38.797  38.371  14.745
39732W        W11261  26.670  38.889   1.307
39733W        W11262  10.239   7.050   1.244
39734W        W11263  43.449   9.721   1.318
39735W        W11264  14.720  33.409   4.653
39736W        W11265  28.725  31.994  11.321
39737W        W11266  26.886  30.962   4.742
39738W        W11267  39.386  35.516  12.973
39739W        W11268  29.124   5.459   3.152
39740W        W11269   5.054  40.489  14.017
39741W        W11270   9.750  26.829   3.355
39742W        W11271  42.930  33.378  12.620
39743W        W11272  26.171  17.557   0.287
39744W        W11273  31.473   9.553   0.856
39745W        W11274  25.438  35.137   1.812
39746W        W11275   2.320   7.675  14.266
39747W        W11276  28.549  34.551   1.877
39748W        W11277  40.057   2.667   4.544
39749W        W11278  21.454  13.149  14.932
39750W        W11279  19.623  33.866   0.396
39751W        W11280   5.148   1.027   3.172
39752W        W11281  11.634  28.442  10.846
39753W        W11282   0.132  39.141   1.337
39754W        W11283  27.634  38.365  11.005
39755W        W11284  32.846  44.743  11.504
39756W        W11285  24.231   2.042   1.214
39757W        W11286  23.445  12.587  11.012
39758W        W11287   5.253  37.645  13.833
39759W        W11288  38.162  14.240   3.262
39760W        W11289  12.280   9.437  14.407
39761W        W11290   9.685  14.800  13.413
39762W        W11291  14.728  31.976  10.648
39763W        W11292   6.458  21.650  13.529
39764W        W11293  43.890  44.830   3.856
39765W        W11294  28.584   4.365   4.989
39766W        W11295  36.622  13.859  13.481
39767W        W11296  21.860  43.796   3.257
39768W        W11297  29.996  37.022   1.125
39769W        W11298  10.884  40.785  11.551
39770W        W11299  37.486  36.447   1.410
39771W        W11300  18.622  30.734   1.247
39772W        W11301  10.771   4.780   3.246
39773W        W11302  18.537  18.158  10.652
39774W        W11303  21.011  40.477  12.157
39775W        W11304  35.774  20.935  14.285
39776W        W11305  42.966   6.303   0.774
39777W        W11306  30.363  40.410  14.759
39778W        W11307  38.044  12.087  14.886
39779W        W11308  40.293  32.051  10.604
39780W        W11309  40.630  10.888  11.246
39781W        W11310  41.328  41.499  11.607
39782W        W11311   8.392  23.498   0.224
39783W        W11312  41.273  31.094  11.599
39784W        W11313  11.679  14.861  12.352
39785W        W11314  25.381  42.816   1.498
39786W        W11315  32.853   7.437   2.898
39787W        W11316  16.258  17.357  13.093
39788W        W11317   1.118  21.644  11.828
39789W        W11318  11.171   6.904  12.545
39790W        W11319  11.762   6.409  13.035
39791W        W11320  26.224  36.892   0.837
39792W        W11321   9.715  17.838   2.747
39793W        W11322   3.681  12.245  14.142
39794W        W11323  15.991  27.448   4.658
39795W        W11324  26.713  26.461   0.630
39796W        W11325  30.442  21.714   0.995
39797W        W11326  25.100  11.558   4.104
39798W        W11327  16.173   9.275  12.070
39799W        W11328  31.492  38.031   2.350
39800W        W11329  42.061  35.516  14.421
39801W        W11330  38.009   8.360  14.093
39802W        W11331   2.072   3.452  13.053
39803W        W11332  27.443  43.936   1.421
39804W        W11333  14.610  14.626   0.293
39805W        W11334  20.584  39.525   2.880
39806W        W11335  43.399  24.181   2.342
39807W        W11336  18.538  15.699  10.631
39808W        W11337  22.183  28.072   4.793
39809W        W11338   4.761  38.285  11.218
39810W        W11339  11.269   2.510   4.819
39811W        W11340   8.167   0.171   3.706
39812W        W11341  21.272  41.360   4.658
39813W        W11342  16.818   3.698   3.382
39814W        W11343  42.655  43.077  13.598
39815W        W11344   6.388  38.495   3.218
39816W        W11345  23.122  23.968   0.988
39817W        W11346  40.570   2.760   4.623
39818W        W11347  37.417  14.541   3.752
39819W        W11348  14.049  13.565  11.103
39820W        W11349  19.357  28.906   2.872
39821W        W11350  18.115  23.612  11.270
39822W        W11351  30.961   2.941  14.359
39823W        W11352  22.986  23.519   0.306
39824W        W11353   4.637   6.400  14.456
39825W        W11354  20.101  13.053  10.623
39826W        W11355  26.682   6.861   3.736
39827W        W11356  41.400  44.450  13.347
39828W        W11357   2.885  10.664  12.358
39829W        W11358   3.465  37.767  14.324
39830W        W11359   6.091  27.665  13.937
39831W        W11360  13.199  39.036  14.957
39832W        W11361  30.859  34.994   2.749
39833W        W11362  15.663  16.814   4.571
39834W        W11363  35.480   1.363   4.605
39835W        W11364  42.558  31.620  14.107
39836W        W11365  44.292   1.957  13.197
39837W        W11366  29.276   9.780   2.532
39838W        W11367  19.317  43.935  11.890
39839W        W11368   8.225  15.747   4.217
39840W        W11369  42.995  15.837   1.218
39841W        W11370  44.052  36.999  12.424
39842W        W11371  18.281  44.845  14.518
39843W        W11372  36.349  31.286  13.660
39844W        W11373   9.668  23.267   0.376
39845W        W11374   7.942  10.208  10.330
39846W        W11375  31.408  10.832   1.239
39847W        W11376  30.379  16.363   2.368
39848W        W11377  40.469  24.128   4.635
39849W        W11378  30.990   9.700  11.537
39850W        W11379  38.490  34.963   3.723
39851W        W11380  23.240  24.146  14.982
39852W        W11381  31.005  20.601  12.829
39853W        W11382   7.242   2.114   2.303
39854W        W11383  40.788  41.600  11.093
39855W        W11384  38.464  32.423   3.126
39856W        W11385   6.728  37.545  13.802
39857W        W11386  21.481  25.246   0.072
39858W        W11387  25.507  40.667   4.114
39859W        W11388  38.128   8.229  11.653
39860W        W11389  23.519  19.856  10.925
39861W        W11390  41.899  37.760   4.476
39862W        W11391  44.556  44.422   3.651
39863W        W11392  13.681  42.521  11.191
39864W        W11393  28.746  14.294   0.943
39865W        W11394   6.291  11.778  13.346
39866W        W11395  27.113  43.348   4.620
39867W        W11396  31.104  30.932   1.184
39868W        W11397  18.762  32.615   2.386
39869W        W11398   0.275  22.465   4.021
39870W        W11399  39.459  11.594  13.036
39871W        W11400  39.792  40.054  13.059
39872W        W11401  25.981  38.970   2.889
39873W        W11402  31.199  30.723   4.140
39874W        W11403  21.157  32.866  12.152
39875W        W11404  35.064   8.922   1.902
39876W        W11405  29.351  31.320   2.252
39877W        W11406  15.073   5.784   1.396
39878W        W11407  44.002  14.280  12.531
39879W        W11408  28.200  40.647   2.298
39880W        W11409  19.677   3.631   1.799
39881W        W11410  16.700  10.870   2.290
39882W        W11411   1.966  20.791   4.714
39883W        W11412   8.841  28.942  12.979
39884W        W11413  24.606  36.070  11.541
39885W        W11414  36.031  23.984   0.848
39886W        W11415  11.303  18.664   0.984
39887W        W11416   8.653  11.251  13.486
39888W        W11417   3.475  27.618   0.811
39889W        W11418  16.089   0.886   3.683
39890W        W11419  15.619  38.506   2.294
39891W        W11420  30.877  42.806   5.156
39892W        W11421   7.371  38.850  13.302
39893W        W11422  32.035  30.842   2.839
39894W        W11423  39.107  25.141  10.726
39895W        W11424   8.775  29.341  14.808
39896W        W11425   4.482  12.243  11.604
39897W        W11426  29.982  28.592   2.973
39898W        W11427  14.882  15.592  13.401
39899W        W11428   9.816  16.151   1.739
39900W        W11429  28.791  13.372   1.705
39901W        W11430  18.090  38.994   4.191
39902W        W11431  36.141  30.958   2.046
39903W        W11432   5.594  44.523  14.982
39904W        W11433  20.193  30.103   3.238
39905W        W11434  13.422  20.989  14.426
39906W        W11435  10.929  10.201   4.473
39907W        W11436  31.827  42.130  12.395
39908W        W11437   9.796  33.230  12.929
39909W        W11438  36.846  26.410  11.160
39910W        W11439  41.507  37.016  11.105
39911W        W11440  32.628   4.465   4.133
39912W        W11441   1.376  23.829   1.849
39913W        W11442  17.895  39.464  13.997
39914W        W11443   9.199   5.566   4.885
39915W        W11444  11.817  15.717  10.724
39916W        W11445  42.372   4.221  13.358
39917W        W11446  17.010  27.129  10.667
39918W        W11447  16.836   5.077   0.504
39919W        W11448   9.710  37.370   2.674
39920W        W11449  30.413  29.626   1.355
39921W        W11450  44.197  42.873  13.725
39922W        W11451  32.348  14.579   3.820
39923W        W11452  43.373  30.098  11.207
39924W        W11453  21.761  28.184  12.610
39925W        W11454  10.675   0.267  14.598
39926W        W11455  16.274  34.424  12.483
39927W        W11456  27.520  35.049  13.305
39928W        W11457  29.466  24.818  12.004
39929W        W11458  39.397  37.670  12.454
39930W        W11459  13.352  24.536   3.729
39931W        W11460  12.089   4.323   4.280
39932W        W11461   6.410  22.740  12.925
39933W        W11462  27.763  14.541   4.316
39934W        W11463  26.708   2.960  14.377
39935W        W11464  27.558   1.164   4.279
39936W        W11465  14.435  26.961   2.809
39937W        W11466  13.320   0.494   4.089
39938W        W11467  29.892  18.733   4.621
39939W        W11468  16.746  30.247   2.338
39940W        W11469  39.886  44.921   0.992
39941W        W11470  20.574  12.343  14.535
39942W        W11471  18.646   3.871  14.641
39943W        W11472  16.042  44.817  12.968
39944W        W11473  34.588  10.823   2.851
39945W        W11474  12.935  24.786   0.273
39946W        W11475  36.351  34.898   4.365
39947W        W11476  29.197  30.878  14.512
39948W        W11477  37.438  36.556  12.396
39949W        W11478  38.503  13.266   3.224
39950W        W11479  36.321  14.357   4.836
39951W        W11480  43.836  11.791   2.189
39952W        W11481   4.215   6.253   2.386
39953W        W11482   6.718   9.232   2.689
39954W        W11483   2.617   7.262   2.848
39955W        W11484  11.074  39.579  12.874
39956W        W11485  33.863  24.053  11.004
39957W        W11486   2.619  31.388  11.062
39958W        W11487  32.651  30.680  12.104
39959W        W11488  43.672   0.939   0.975
39960W        W11489   1.801  39.795  14.395
39961W        W11490  25.667   5.350  11.082
39962W        W11491   2.182  28.021   2.176
39963W        W11492  35.993  27.084  10.884
39964W        W11493  19.603  21.562  11.138
39965W        W11494  14.724  12.241   4.641
39966W        W11495  29.166  30.567  13.849
39967W        W11496   1.923  28.099   2.903
39968W        W11497   5.227   9.906   1.894
39969W        W11498  23.915   3.433  11.687
39970W        W11499   9.446  23.938  13.336
39971W        W11500  38.691  21.057  11.079
39972W        W11501  32.777  28.096   5.580
39973W        W11502  15.407   7.459  10.988
39974W        W11503  38.625  36.740   2.393
39975W        W11504  13.839  24.522   4.689
39976W        W11505  18.877  44.051  12.626
39977W        W11506  29.009  12.875  13.059
39978W        W11507   6.763  24.518  13.974
39979W        W11508  24.285  25.076   0.248
39980W        W11509  28.502  41.370   2.912
39981W        W11510  23.997  40.945  12.576
39982W        W11511  38.388  13.221  13.010
39983W        W11512  13.134  34.504  10.237
39984W        W11513  26.331  26.855   4.086
39985W        W11514  37.441  20.469   2.842
39986W        W11515  13.665  21.968  13.536
39987W        W11516  20.247   5.918   2.790
39988W        W11517   3.349   9.487  12.964
39989W        W11518   2.255  16.487  10.983
39990W        W11519  11.095  26.397  14.981
39991W        W11520  11.625  17.623  11.952
39992W        W11521  22.866  20.252   3.987
39993W        W11522  28.063  37.964   2.874
39994W        W11523  44.169   7.820   0.824
39995W        W11524  28.353  41.112   3.336
39996W        W11525   7.872  33.831  14.948
39997W        W11526  39.109  32.780  12.566
39998W        W11527  14.121  40.137   2.772
39999W        W11528  14.073  30.927  11.038
40000W        W11529  11.773   6.731  11.474
40001W        W11530  26.744  22.172  13.516
40002W        W11531  18.835   7.831  14.855
40003W        W11532  37.590  11.740   3.599
40004W        W11533  21.506  32.962   4.659
40005W        W11534  20.854  39.031  12.957
40006W        W11535  16.419  18.779   0.769
40007W        W11536  38.701  11.848  11.242
40008W        W11537  44.664  21.709  11.329
40009W        W11538  44.841   5.628   4.228
40010W        W11539  41.832   5.828  11.602
40011W        W11540  34.208  37.083   2.201
40012W        W11541   2.179   5.429   2.342
40013W        W11542   4.690  15.860  14.385
40014W        W11543  44.558  42.307   1.868
40015W        W11544   6.182  25.822  12.051
40016W        W11545  19.032  34.507   1.645
40017W        W11546   0.345  26.236   4.090
40018W        W11547  27.206   9.409   2.696
40019W        W11548  30.980  29.617  10.609
40020W        W11549  24.333  37.433   2.546
40021W        W11550  33.609  17.209  14.923
40022W        W11551   3.419  17.792  12.833
40023W        W11552  13.616  39.057   3.665
40024W        W11553   4.345  15.912   4.581
40025W        W11554  19.995  44.575  12.539
40026W        W11555  40.939  41.970   1.910
40027W        W11556  12.718  23.171  10.821
40028W        W11557  15.218  38.911   3.310
40029W        W11558   5.895  16.360   3.129
40030W        W11559  25.975  25.018   1.997
40031W        W11560   4.521   0.934   9.861
40032W        W11561  35.069  22.807  13.955
40033W        W11562  24.717   1.301  13.117
40034W        W11563   1.865  41.889   4.948
40035W        W11564  32.163  14.338   4.294
40036W        W11565  40.531  25.772  11.625
40037W        W11566  43.804   4.911   1.641
40038W        W11567  26.464  44.866  10.757
40039W        W11568  29.973  18.745   4.073
40040W        W11569  38.424  16.941   1.736
40041W        W11570   5.183  32.970  14.504
40042W        W11571   9.795  13.780  11.988
40043W        W11572  35.332  33.526   3.638
40044W        W11573  39.956  21.037  10.569
40045W        W11574   1.457   9.837   0.889
40046W        W11575  34.547   1.701  11.182
40047W        W11576  13.257  27.400  13.791
40048W        W11577  43.302  23.560  13.584
40049W        W11578  13.233   5.782   0.512
40050W        W11579  41.472  28.195   4.516
40051W        W11580   6.934   8.187  12.494
40052W        W11581   9.958  26.479   3.015
40053W        W11582  40.480   9.403   3.726
40054W        W11583  13.132  35.626  14.777
40055W        W11584  23.445  23.273   0.387
40056W        W11585  44.208   6.696  14.338
40057W        W11586  34.304  14.370  11.530
40058W        W11587  35.555  18.588   1.824
40059W        W11588  25.687  25.500   4.011
40060W        W11589  28.983  31.954   2.713
40061W        W11590  29.692  38.335   3.639
40062W        W11591  30.649  33.559  13.708
40063W        W11592  21.852  19.134   3.629
40064W        W11593  21.002  37.674  11.556
40065W        W11594  43.841  44.521   4.802
40066W        W11595   2.036  38.151   4.301
40067W        W11596  24.147  20.079  11.608
40068W        W11597  16.261  12.540   0.874
40069W        W11598  10.355   6.527   0.403
40070W        W11599  11.839  37.427  14.702
40071W        W11600  38.011  35.878   5.058
40072W        W11601  32.470  35.040   4.483
40073W        W11602  37.044  39.160  10.745
40074W        W11603   3.451  18.695   1.881
40075W        W11604  30.811  30.932  12.418
40076W        W11605   5.551  33.381   4.138
40077W        W11606  15.774   7.729   2.876
40078W        W11607  23.534   5.419  11.148
40079W        W11608  27.927   2.258  12.211
40080W        W11609  13.095  36.617   4.873
40081W        W11610   1.756  20.731   0.314
40082W        W11611  19.246  28.670  14.865
40083W        W11612   7.900  33.412   3.147
40084W        W11613  24.007  21.825  10.894
40085W        W11614  13.079  29.043  12.038
40086W        W11615  20.361  30.204  13.252
40087W        W11616  30.503  42.036  12.786
40088W        W11617  24.509  36.642  10.833
40089W        W11618  26.247  20.252   1.276
40090W        W11619  13.187  26.522   0.280
40091W        W11620  19.359   8.768  14.318
40092W        W11621  37.171   3.830  13.060
40093W        W11622  12.690  12.373  10.635
40094W        W11623  32.345  30.638  13.559
40095W        W11624  43.908  35.569   1.481
40096W        W11625  24.516  10.718   3.316
40097W        W11626  42.010   4.473  13.643
40098W        W11627   2.672  44.479  11.784
40099W        W11628   8.069   9.534   3.168
40100W        W11629   3.667  14.842  12.016
40101W        W11630  22.676  29.725  12.930
40102W        W11631  21.942   9.242  13.664
40103W        W11632  11.307   0.484  11.084
40104W        W11633  32.864  33.995   4.050
40105W        W11634  35.280  21.050   9.940
40106W        W11635  36.379  18.791   1.281
40107W        W11636  27.470  40.389  14.905
40108W        W11637  41.857  26.084   3.326
40109W        W11638   7.927  28.858   2.381
40110W        W11639  44.367  39.536   0.255
40111W        W11640  38.777   7.610  13.443
40112W        W11641  41.576  28.114   0.394
40113W        W11642  39.819  10.816   1.511
40114W        W11643  34.593  22.837  14.321
40115W        W11644  43.745   5.678   2.120
40116W        W11645  39.357  12.654  12.045
40117W        W11646  26.211   5.217   4.121
40118W        W11647  12.929   5.353   0.256
40119W        W11648  16.213   7.882   1.043
40120W        W11649  39.448  18.214   2.613
40121W        W11650  35.243   2.806  12.874
40122W        W11651   2.210  32.124  11.202
40123W        W11652  21.963  26.240   2.671
40124W        W11653  37.997  38.384   0.294
40125W        W11654  19.276  23.511   3.179
40126W        W11655  16.011  41.974  11.092
40127W        W11656  30.550  30.491   1.755
40128W        W11657   0.187  17.626  14.944
40129W        W11658  21.935  19.396   2.732
40130W        W11659  17.358   4.686  14.517
40131W        W11660  35.991  35.593  11.556
40132W        W11661   9.197  26.642  14.989
40133W        W11662   6.272  12.211  12.070
40134W        W11663  38.821  14.901   0.376
40135W        W11664   2.848  32.124   3.708
40136W        W11665  28.718   3.699   0.911
40137W        W11666  30.764  20.176  11.990
40138W        W11667  11.841  25.647  14.053
40139W        W11668  10.849  31.266  11.798
40140W        W11669  21.113  22.182   4.615
40141W        W11670  43.754  23.638  13.325
40142W        W11671  26.477  43.339   1.717
40143W        W11672   9.222  29.060  11.580
40144W        W11673  36.418  44.782  11.717
40145W        W11674  11.853  44.452  11.047
40146W        W11675  21.909   9.497  11.157
40147W        W11676  14.992  42.612  12.102
40148W        W11677  18.086  15.409  13.768
40149W        W11678  20.624  33.489  10.837
40150W        W11679  33.547  34.588   5.031
40151W        W11680  21.709  19.574   4.529
40152W        W11681   8.441  40.314  11.592
40153W        W11682   5.863  37.792   3.193
40154W        W11683  15.651  23.516   3.373
40155W        W11684  36.447  35.541   3.666
40156W        W11685  43.233   3.096   1.006
40157W        W11686  22.290  15.703   3.706
40158W        W11687  13.576  17.669   1.789
40159W        W11688  26.361  16.577   1.271
40160W        W11689   3.055  29.323   3.639
40161W        W11690   7.672   6.406   0.659
40162W        W11691  32.649  21.469  11.074
40163W        W11692  15.061  10.141  14.717
40164W        W11693   0.996  22.944  11.072
40165W        W11694  21.807  24.155   0.933
40166W        W11695  37.311  42.175   5.068
40167W        W11696  28.618  24.079   2.423
40168W        W11697  24.156  12.431  10.529
40169W        W11698  15.746  29.178  13.932
40170W        W11699  29.410  42.816  12.590
40171W        W11700  14.403   2.705  14.043
40172W        W11701  42.608  26.508  10.126
40173W        W11702  13.312  37.587   4.716
40174W        W11703  42.472  27.145  10.858
40175W        W11704  21.134   4.943   3.690
40176W        W11705  41.989  11.403  11.850
40177W        W11706  21.071  12.693  14.283
40178W        W11707  28.472   3.858  12.092
40179W        W11708  26.212  30.144   4.542
40180W        W11709  35.996  25.671   0.425
40181W        W11710  33.848  25.589  14.566
40182W        W11711  30.638  10.116   1.179
40183W        W11712  19.433   4.207  13.070
40184W        W11713  30.528  39.948   9.877
40185W        W11714  14.394  20.000  12.445
40186W        W11715   7.913  21.516  10.883
40187W        W11716  32.601  15.736   0.209
40188W        W11717  16.047  29.906   4.528
40189W        W11718  13.677  32.083   2.492
40190W        W11719  33.783  15.339   0.588
40191W        W11720  40.138  11.563  13.555
40192W        W11721  32.887  32.404   4.620
40193W        W11722   2.331  15.571  11.942
40194W        W11723  37.148   7.640   3.164
40195W        W11724  18.057  31.658  10.397
40196W        W11725  43.484  20.637  12.076
40197W        W11726   3.088  34.982  11.919
40198W        W11727  10.229  15.321   4.929
40199W        W11728  16.597  39.495  12.482
40200W        W11729  19.130  26.709   4.069
40201W        W11730  20.492  42.773   3.659
40202W        W11731   0.967  27.130   0.897
40203W        W11732   7.335  20.114   2.734
40204W        W11733  16.771  40.946  14.314
40205W        W11734  30.794  23.810  13.532
40206W        W11735  20.226   0.463  10.606
40207W        W11736  33.944  41.360   3.661
40208W        W11737  25.088  24.967  13.761
40209W        W11738   1.839  33.104  13.880
40210W        W11739  12.763  37.936  11.683
40211W        W11740  19.623   9.752  14.745
40212W        W11741  27.136  33.694  11.725
40213W        W11742  44.992  40.842  11.900
40214W        W11743  30.019  29.445  13.800
40215W        W11744  12.649  31.526   4.111
40216W        W11745  39.481  25.863   0.384
40217W        W11746  41.514   0.002   1.772
40218W        W11747  26.027  34.983  14.988
40219W        W11748  19.990  23.685  14.869
40220W        W11749  20.099  42.166  12.378
40221W        W11750  10.528  12.409  14.030
40222W        W11751   3.983  43.906  13.607
40223W        W11752   6.291  39.579   4.280
40224W        W11753   8.161  16.774  11.571
40225W        W11754   4.814  43.878  12.016
40226W        W11755   4.902  43.814   4.311
40227W        W11756  39.094  41.143  14.964
40228W        W11757   4.148  32.110  12.916
40229W        W11758  29.878  15.081  11.631
40230W        W11759  28.325  31.994   0.404
40231W        W11760   2.193  13.135   4.874
40232W        W11761  43.994  20.518   1.813
40233W        W11762  23.438  20.519   0.390
40234W        W11763  23.220   7.295  13.613
40235W        W11764  18.065  17.849  13.339
40236W        W11765  25.919  22.222   4.703
40237W        W11766  10.344   6.333  13.864
40238W        W11767  33.728  35.469   4.704
40239W        W11768   0.883   0.961  12.459
40240W        W11769  26.422  17.249  11.074
40241W        W11770  36.992   4.901   3.782
40242W        W11771  29.077  20.886   2.421
40243W        W11772  30.473  19.388  12.246
40244W        W11773  10.295  33.047  12.212
40245W        W11774  21.228   1.153   4.241
40246W        W11775   1.939  22.473   1.323
40247W        W11776   7.366  12.490   4.029
40248W        W11777   7.352  35.013  14.740
40249W        W11778   6.242   3.333   5.139
40250W        W11779  12.344  14.398   4.048
40251W        W11780  42.511  27.635   1.506
40252W        W11781  32.395  20.198  14.432
40253W        W11782  36.647   8.319   2.492
40254W        W11783  27.716  39.302  11.139
40255W        W11784  37.326  26.972  14.377
40256W        W11785  19.127  14.296   4.394
40257W        W11786  11.848   8.866  14.283
40258W        W11787   9.205  44.233  14.339
40259W        W11788   4.358  16.301  13.795
40260W        W11789  30.604  25.422   1.552
40261W        W11790  28.614   7.486   2.174
40262W        W11791  44.860  40.053   2.604
40263W        W11792  19.537  15.868  13.924
40264W        W11793   4.433   9.844   3.667
40265W        W11794  21.885  12.816  13.242
40266W        W11795  18.172  26.202  10.873
40267W        W11796  44.968  10.172   2.486
40268W        W11797  41.471  25.240   0.019
40269W        W11798   9.353  19.708   4.012
40270W        W11799  31.652  12.897   3.157
40271W        W11800   4.225  31.737  11.902
40272W        W11801  29.496  14.504   1.647
40273W        W11802  41.775  15.848   3.123
40274W        W11803  13.124   7.187  11.563
40275W        W11804   5.807  16.055   1.210
40276W        W11805  14.545   0.468   1.145
40277W        W11806  26.951  14.839   0.873
40278W        W11807  25.113  27.986  14.989
40279W        W11808  37.046  35.808  14.036
40280W        W11809   8.503  11.977  12.235
40281W        W11810  35.656  22.474   0.683
40282W        W11811   5.282  37.502  11.415
40283W        W11812  29.576   1.758   4.637
40284W        W11813  10.431  42.910  11.098
40285W        W11814   6.390  29.887  11.182
40286W        W11815  35.499  28.902   3.381
40287W        W11816   4.498  10.199  12.079
40288W        W11817  11.907   8.318   1.695
40289W        W11818  38.568  28.892   3.295
40290W        W11819  41.884  24.357  13.891
40291W        W11820  37.377   2.722   2.252
40292W        W11821  22.378   3.884  12.483
40293W        W11822  22.036   1.742   3.339
40294W        W11823  28.557  10.946  11.231
40295W        W11824  32.004  44.997   3.263
40296W        W11825  42.870  19.993   0.009
40297W        W11826  42.415  32.350  11.806
40298W        W11827   0.758  21.542  13.531
40299W        W11828   4.894   2.606   1.540
40300W        W11829   3.848  38.865  14.079
40301W        W11830   6.322  35.637   0.408
40302W        W11831  40.737  28.645   2.755
40303W        W11832  31.625  29.881   2.908
40304W        W11833  14.130  32.038  12.867
40305W        W11834  42.896  41.034  11.123
40306W        W11835  16.262  29.907   0.932
40307W        W11836  39.992  28.176   2.872
40308W        W11837   7.588  39.740   0.008
40309W        W11838  21.741  28.590  14.469
40310W        W11839  35.412  17.341   0.323
40311W        W11840   6.119  37.932  13.813
40312W        W11841  13.664   9.290  11.113
40313W        W11842  25.579   4.394  13.859
40314W        W11843   9.346  17.703  10.839
40315W        W11844   5.222  27.483   0.741
40316W        W11845  29.543  40.277   1.258
40317W        W11846  40.780   9.877   4.535
40318W        W11847  25.548  44.038  14.404
40319W        W11848  14.513   4.118  13.489
40320W        W11849   3.073  29.035  14.818
40321W        W11850  14.110  14.526   0.364
40322W        W11851   6.648   2.364  12.836
40323W        W11852   8.604  17.078  12.842
40324W        W11853  34.982   8.406  10.997
40325W        W11854  27.276   1.147   1.703
40326W        W11855  10.908  30.149   2.292
40327W        W11856   5.202  20.246   0.489
40328W        W11857  24.228   1.396   2.217
40329W        W11858  42.441  17.086  12.979
40330W        W11859  33.857  19.835   1.396
40331W        W11860   1.471  38.554  11.365
40332W        W11861  14.150  17.564   1.023
40333W        W11862  21.825  38.204  10.127
40334W        W11863  44.919  26.539  12.382
40335W        W11864  31.661  40.820   4.643
40336W        W11865  38.860  19.670   3.108
40337W        W11866  10.207  31.633   4.037
40338W        W11867  40.436   4.939  12.403
40339W        W11868  27.003   7.078  11.037
40340W        W11869  11.648  30.607  14.830
40341W        W11870  11.832  20.930   5.354
40342W        W11871   6.188  10.400   0.302
40343W        W11872  11.105  24.013   3.642
40344W        W11873  22.491  10.112  14.582
40345W        W11874  40.513  24.033   2.753
40346W        W11875   3.371   8.812   3.810
40347W        W11876  29.707  13.186   1.753
40348W        W11877  35.162   7.700  12.476
40349W        W11878  43.871  16.254  14.441
40350W        W11879  16.627  22.251   2.030
40351W        W11880  41.430  21.529   1.764
40352W        W11881  20.779  37.730  14.821
40353W        W11882  12.052  38.946   1.156
40354W        W11883  15.575  41.530  11.682
40355W        W11884  23.214  14.271   0.505
40356W        W11885  19.880   1.428   4.281
40357W        W11886  36.862  35.599  11.924
40358W        W11887   9.748  42.355  10.847
40359W        W11888  42.099  13.724  14.355
40360W        W11889   3.780  26.898   2.239
40361W        W11890  12.873   2.055   3.128
40362W        W11891  16.202   7.596  14.995
40363W        W11892  17.900  35.860  14.084
40364W        W11893  20.299  13.647   0.105
40365W        W11894  14.074  17.774   3.373
40366W        W11895  16.042  40.484   3.244
40367W        W11896  11.142  33.086   3.094
40368W        W11897  24.137  10.898   3.644
40369W        W11898  11.766  14.094   0.499
40370W        W11899   5.248  40.776  12.353
40371W        W11900   1.270  24.674   1.719
40372W        W11901  40.465  33.001  13.462
40373W        W11902   5.163  13.261  11.690
40374W        W11903  17.247  42.308   0.029
40375W        W11904  23.399  14.859   2.788
40376W        W11905   6.779   1.170  11.449
40377W        W11906   0.227  11.317   0.903
40378W        W11907   4.098  29.297   2.293
40379W        W11908  20.281  10.293  11.627
40380W        W11909   4.658  36.477  13.822
40381W        W11910  19.267   8.117  12.079
40382W        W11911   5.593   2.276  14.030
40383W        W11912  16.625  17.091  12.866
40384W        W11913   1.718  26.211   3.176
40385W        W11914  23.465   3.738  11.677
40386W        W11915  16.145  17.383  10.636
40387W        W11916  44.329  41.880  11.167
40388W        W11917  25.938  36.533  10.761
40389W        W11918  40.343  23.640  12.670
40390W        W11919   6.932   5.289  14.416
40391W        W11920   9.436  34.346   3.450
40392W        W11921  41.654  10.621   2.109
40393W        W11922   8.627  36.462  11.106
40394W        W11923   6.382  36.562   1.577
40395W        W11924   0.940   1.871   2.354
40396W        W11925  31.281   4.639  14.802
40397W        W11926  15.486  26.457  14.821
40398W        W11927   2.039  37.588  13.100
40399W        W11928  44.484   3.434  11.988
40400W        W11929  19.681   4.435  12.668
40401W        W11930   0.136   7.396  12.287
40402W        W11931  21.563  40.824  11.401
40403W        W11932  19.191  39.768   1.719
40404W        W11933  25.025  42.809  10.487
40405W        W11934  44.110  31.864  14.928
40406W        W11935  39.466  38.470  12.378
40407W        W11936  35.017   3.362  14.100
40408W        W11937   8.015  27.995  13.347
40409W        W11938   8.140  20.707   3.619
40410W        W11939  41.911   0.420  13.620
40411W        W11940  43.786  37.887   0.724
40412W        W11941  39.548  27.962   2.693
40413W        W11942  35.744  24.455  13.333
40414W        W11943  29.131  30.015  12.513
40415W        W11944  22.266  15.514  13.902
40416W        W11945  31.477   5.586   3.694
40417W        W11946  28.897  27.207   1.357
40418W        W11947   6.149  25.440  13.447
40419W        W11948  41.509  15.599  14.848
40420W        W11949  25.551  30.661   2.358
40421W        W11950  22.497  27.062  14.934
40422W        W11951   1.057  10.262  10.697
40423W        W11952  44.335   7.686  13.499
40424W        W11953  12.052  28.180  11.108
40425W        W11954  18.042   8.586   2.703
40426W        W11955  27.867   7.949  11.758
40427W        W11956   0.859  33.826   1.343
40428W        W11957  14.207   5.145  12.531
40429W        W11958  36.450   6.046   1.063
40430W        W11959  11.324  12.377   3.208
40431W        W11960  36.286  15.093  14.906
40432W        W11961  12.741  19.812   1.264
40433W        W11962  24.557  32.647   0.302
40434W        W11963  41.036  23.634  12.126
40435W        W11964  27.886  36.130  11.500
40436W        W11965  42.068  21.642  14.503
40437W        W11966  14.339  13.786   4.003
40438W        W11967  14.146  30.749  10.394
40439W        W11968  27.408  19.483   2.683
40440W        W11969   8.001  43.241  13.839
40441W        W11970  38.244  16.184   0.707
40442W        W11971   4.713  41.020   2.232
40443W        W11972  44.800  40.531  12.884
40444W        W11973  37.272   3.904   0.859
40445W        W11974  41.297  40.957   4.521
40446W        W11975   7.331   5.825  12.696
40447W        W11976  20.224  29.098   1.637
40448W        W11977   1.323  35.859  11.920
40449W        W11978   9.406   8.139   0.254
40450W        W11979  23.541  17.189  12.070
40451W        W11980  21.766  28.007   1.790
40452W        W11981  24.011  11.211  12.008
40453W        W11982  20.236  36.886   3.249
40454W        W11983  17.671  17.345   1.395
40455W        W11984   7.830  27.173  14.316
40456W        W11985   6.233  41.978  10.813
40457W        W11986  32.004  26.875  13.991
40458W        W11987  26.906   7.785  13.766
40459W        W11988   0.319  31.432  13.999
40460W        W11989  21.084   5.658   1.477
40461W        W11990   2.351   1.759  10.435
40462W        W11991  33.579  35.420   2.819
40463W        W11992  29.054  32.338   4.698
40464W        W11993  31.507  30.019   0.905
40465W        W11994  15.646  11.740  14.428
40466W        W11995  40.358  10.134   2.732
40467W        W11996   7.463  42.889   1.803
40468W        W11997  38.581  24.298   2.032
40469W        W11998  41.832  22.081   0.544
40470W        W11999  37.239  28.410  14.813
40471W        W12000  27.450  27.169   4.604
40472W        W12001  15.856  34.471   0.300
40473W        W12002  11.230  39.150   0.799
40474W        W12003  14.399   7.689   0.395
40475W        W12004   0.352   3.655  12.440
40476W        W12005  20.302  38.243  11.030
40477W        W12006  21.696  30.724  10.440
40478W        W12007  42.657  36.080  14.885
40479W        W12008  30.705  11.177  12.899
40480W        W12009  41.860  27.691   4.256
40481W        W12010   3.577  35.227  12.626
40482W        W12011  38.329  26.688  14.444
40483W        W12012  36.451   7.469  13.354
40484W        W12013  33.014  24.407  12.404
40485W        W12014  22.636  42.682   3.259
40486W        W12015  18.784  13.412  12.083
40487W        W12016   8.191  33.416   0.936
40488W        W12017  20.538  10.905   4.156
40489W        W12018  36.470  19.795   1.313
40490W        W12019  21.307  38.608  13.958
40491W        W12020   4.998  24.970   4.172
40492W        W12021  36.086  36.467   3.560
40493W        W12022  40.265   7.935  11.203
40494W        W12023  34.124  10.627   1.225
40495W        W12024  33.420  42.999   2.839
40496W        W12025  16.629  21.255  10.216
40497W        W12026  40.167   7.424   3.284
40498W        W12027  33.092   2.463   1.279
40499W        W12028  23.751  16.367  10.568
40500W        W12029  24.518  42.193   4.829
40501W        W12030   6.168  36.489  14.812
40502W        W12031  24.666   5.484  14.833
40503W        W12032  23.231   6.327  12.968
40504W        W12033  10.036  22.768   2.855
40505W        W12034   5.452   2.874  12.969
40506W        W12035  42.893  15.875   1.751
40507W        W12036  31.096  20.265   3.256
40508W        W12037  11.142  36.011   0.523
40509W        W12038  28.792  29.415   1.779
40510W        W12039  10.425  16.613   1.423
40511W        W12040  10.576  35.572   4.058
40512W        W12041   4.336  40.521  14.805
40513W        W12042   7.653   3.797  12.077
40514W        W12043  10.814  36.071  11.204
40515W        W12044  44.723   0.006  11.117
40516W        W12045  31.245  27.448   2.838
40517W        W12046  21.270  38.834   1.337
40518W        W12047  22.672  41.942   2.800
40519W        W12048  38.528  11.514  12.370
40520W        W12049  11.067  19.680  11.573
40521W        W12050  39.809  29.599   1.251
40522W        W12051   1.392  13.858  11.961
40523W        W12052  44.082  14.387   1.846
40524W        W12053  15.840   1.038  13.530
40525W        W12054  17.874  21.369   4.129
40526W        W12055  23.376   0.846  11.556
40527W        W12056   5.090  16.711   0.862
40528W        W12057  36.293  21.540  12.500
40529W        W12058   6.709  17.092  12.343
40530W        W12059   1.217  42.521  12.823
40531W        W12060  36.148  37.219  12.695
40532W        W12061   4.798  19.810  10.674
40533W        W12062  35.163  15.021   1.836
40534W        W12063  17.844  28.764  11.088
40535W        W12064  33.441   1.395  11.620
40536W        W12065  44.778  29.817   3.697
40537W        W12066  27.465  25.939   4.029
40538W        W12067  14.273  11.068  13.029
40539W        W12068  18.602  11.709   4.310
40540W        W12069  32.721   2.608   3.798
40541W        W12070  30.862   9.885  11.032
40542W        W12071  19.999  11.687   4.274
40543W        W12072  29.228   2.972  11.339
40544W        W12073  43.397  20.740  11.572
40545W        W12074  15.017  20.069   3.208
40546W        W12075  27.379  22.007  13.833
40547W        W12076  30.865  11.003   5.058
40548W        W12077   9.155  31.997  12.966
40549W        W12078  27.679  44.507  14.879
40550W        W12079  20.743   6.427   4.199
40551W        W12080   8.154  11.946  10.823
40552W        W12081  38.379   8.678  11.896
40553W        W12082   3.069  34.480   0.348
40554W        W12083  20.666  43.947   0.130
40555W        W12084  16.762   3.230  11.305
40556W        W12085   0.462  17.273  11.034
40557W        W12086  18.982  18.185  12.910
40558W        W12087   9.301  22.918   0.392
40559W        W12088   2.957  20.135  14.647
40560W        W12089  20.201  40.597   0.440
40561W        W12090   8.316  13.611   0.860
40562W        W12091  28.485  33.853   1.721
40563W        W12092  36.593   7.221   4.514
40564W        W12093   4.981  17.969   1.379
40565W        W12094   9.906  24.053  10.511
40566W        W12095   6.407   2.547   0.191
40567W        W12096  33.490  12.391  14.847
40568W        W12097  33.494  12.839  12.026
40569W        W12098  38.449  15.978  10.752
40570W        W12099  21.151  27.516   2.165
40571W        W12100  27.838  10.286   0.770
40572W        W12101  17.675  20.021  10.421
40573W        W12102  29.714  25.753   4.194
40574W        W12103  27.649   7.667  10.484
40575W        W12104  19.161  11.185  11.631
40576W        W12105  17.061   9.839   0.317
40577W        W12106  17.201  37.553  13.740
40578W        W12107   5.817  18.617  12.480
40579W        W12108  37.010   2.265  14.363
40580W        W12109  33.247  37.796   0.079
40581W        W12110  31.609  40.091  13.045
40582W        W12111  40.544  27.895   0.893
40583W        W12112   0.772  24.475  12.052
40584W        W12113  29.535  43.547   3.698
40585W        W12114  28.935   8.895  12.838
40586W        W12115  35.890  12.777  10.869
40587W        W12116   9.834  39.479  14.336
40588W        W12117  20.191   8.924   3.287
40589W        W12118  32.932  26.967   0.648
40590W        W12119  20.080  15.514  11.982
40591W        W12120  12.421   0.283  13.745
40592W        W12121  36.650  20.415  11.507
40593W        W12122  14.708  17.680  14.922
40594W        W12123  29.153  36.087  11.140
40595W        W12124  18.756  37.338   0.453
40596W        W12125   9.882  10.609   0.439
40597W        W12126  43.324  37.296  14.773
40598W        W12127  41.425  26.971  10.483
40599W        W12128  14.246  38.940   2.360
40600W        W12129   0.866  27.910   3.656
40601W        W12130  19.183  35.321   2.384
40602W        W12131  19.258  24.650   4.631
40603W        W12132  20.473  33.126   4.173
40604W        W12133  26.512   0.042   1.434
40605W        W12134   4.778   5.911   3.142
40606W        W12135  44.702  28.887  14.774
40607W        W12136   9.986  10.175   0.746
40608W        W12137  40.630  39.541  11.525
40609W        W12138  11.520   4.806   2.463
40610W        W12139   0.480  17.003  11.515
40611W        W12140  37.501   8.401   0.341
40612W        W12141   7.470  27.483  12.436
40613W        W12142  25.042  25.481   1.987
40614W        W12143  35.736   5.378  13.831
40615W        W12144  17.524  44.365   0.771
40616W        W12145  17.028  37.932   3.218
40617W        W12146  10.662   9.573  14.066
40618W        W12147  38.314  25.252   3.621
40619W        W12148  34.916  38.274   0.982
40620W        W12149  23.681   9.112   4.500
40621W        W12150  19.174  21.099   4.556
40622W        W12151   2.810  17.550   2.977
40623W        W12152  30.353  20.166  14.657
40624W        W12153  29.664  44.833  12.147
40625W        W12154   0.449   0.900  11.081
40626W        W12155  12.970  20.590   4.807
40627W        W12156   0.034  44.079  12.759
40628W        W12157  40.798  14.367   3.618
40629W        W12158  28.040  26.481  11.178
40630W        W12159   0.315  41.869  10.988
40631W        W12160  12.723   8.195  13.342
40632W        W12161  30.029  26.604  11.106
40633W        W12162  26.640   7.830   1.237
40634W        W12163  41.043  18.959  14.476
40635W        W12164  10.725  18.791  13.306
40636W        W12165   9.745   0.754   3.059
40637W        W12166  13.216  12.529  14.989
40638W        W12167  30.187  33.596  13.937
40639W        W12168  38.616  25.485  13.036
40640W        W12169  31.511  38.154  14.958
40641W        W12170  36.651  36.948  14.760
40642W        W12171  24.724  20.074   0.692
40643W        W12172  29.003  14.701  11.181
40644W        W12173   8.932  44.646   3.704
40645W        W12174   4.276  12.106   0.895
40646W        W12175  31.807  42.918   1.097
40647W        W12176  10.503  19.719  10.784
40648W        W12177  12.202  42.439   4.124
40649W        W12178  11.606  18.795   4.639
40650W        W12179  43.380  43.628   3.696
40651W        W12180  13.828   5.488  12.485
40652W        W12181  32.238  43.395  12.905
40653W        W12182   6.010  29.071   4.060
40654W        W12183  32.119   3.314   0.908
40655W        W12184  32.126   5.630   1.708
40656W        W12185  44.782  20.778   2.782
40657W        W12186  33.146  12.593   3.997
40658W        W12187  36.904  38.102   4.501
40659W        W12188   9.729  29.043  11.512
40660W        W12189  26.134  37.096   2.736
40661W        W12190  30.860   8.588  14.315
40662W        W12191  19.705   5.747   0.286
40663W        W12192  38.695  39.009   1.229
40664W        W12193  12.379  24.758  13.063
40665W        W12194  36.083   6.930   3.809
40666W        W12195  12.219  34.000  11.152
40667W        W12196  14.540  14.249  11.042
40668W        W12197  29.022  35.117   5.042
40669W        W12198  42.012  25.862  13.938
40670W        W12199  11.372  43.437  10.400
40671W        W12200  24.637  21.949   4.139
40672W        W12201  14.315  22.330   0.183
40673W        W12202  33.521  30.714  12.571
40674W        W12203   7.417  10.362  13.479
40675W        W12204  11.142  41.019  11.931
40676W        W12205  43.014  43.313   2.786
40677W        W12206  21.976  28.132  11.051
40678W        W12207  13.086  43.914  12.339
40679W        W12208  32.579  21.782   4.254
40680W        W12209   9.250   2.100  14.761
40681W        W12210   0.487  15.274   3.108
40682W        W12211  34.280  19.538   2.251
40683W        W12212  26.972   9.714  11.675
40684W        W12213  34.422   2.899   0.334
40685W        W12214  14.863  28.169   2.146
40686W        W12215  33.201  36.011  11.075
40687W        W12216  31.402   0.082   2.556
40688W        W12217  40.356  35.710   2.873
40689W        W12218  24.530  36.198  10.563
40690W        W12219   9.919  39.613   4.206
40691W        W12220   7.428  20.576  10.957
40692W        W12221  17.593  44.229  13.826
40693W        W12222  19.545  42.810   1.280
40694W        W12223  20.521  17.298   1.633
40695W        W12224  41.612  29.413   2.367
40696W        W12225  22.545  11.937  12.446
40697W        W12226  19.282  25.975  12.373
40698W        W12227   5.986  11.813  14.762
40699W        W12228  30.317  41.356  12.164
40700W        W12229  31.406   6.329   1.919
40701W        W12230   2.722   6.304  12.440
40702W        W12231   2.834   2.237  12.398
40703W        W12232  13.816  18.798  12.168
40704W        W12233   6.247  19.637  11.114
40705W        W12234  10.958  35.392  12.401
40706W        W12235  22.316  19.515  10.945
40707W        W12236  42.700  27.660  13.451
40708W        W12237  41.693  32.106   9.797
40709W        W12238  35.885  19.932  14.420
40710W        W12239   1.024  40.400  12.460
40711W        W12240  41.200  19.795  13.128
40712W        W12241  24.187  40.444   1.487
40713W        W12242  36.808  10.638   3.863
40714W        W12243   6.596  28.749  10.438
40715W        W12244  12.022  24.525   1.378
40716W        W12245  34.648  20.591  12.105
40717W        W12246  29.061  19.132   2.390
40718W        W12247   5.630   5.911  11.134
40719W        W12248  37.349  18.037  12.493
40720W        W12249  43.789  26.314  10.631
40721W        W12250   9.361  36.371  14.950
40722W        W12251  15.657  17.315  11.316
40723W        W12252  32.374  18.575   0.386
40724W        W12253  36.135   2.880   4.963
40725W        W12254  20.507   6.434   2.313
40726W        W12255  37.231  44.906   3.195
40727W        W12256  29.147  41.515  13.545
40728W        W12257  10.644  21.254   0.956
40729W        W12258  24.011  19.013   1.797
40730W        W12259  32.841  12.721   1.927
40731W        W12260  15.420  42.934   3.789
40732W        W12261  13.780  33.847   0.395
40733W        W12262  37.983   2.636  10.830
40734W        W12263  19.583  40.382   2.657
40735W        W12264  21.048  11.216  14.903
40736W        W12265  16.077  37.629  12.029
40737W        W12266  26.595  25.284   4.927
40738W        W12267  12.186  23.106  10.681
40739W        W12268  21.843  13.492  11.128
40740W        W12269  11.330   4.251  11.641
40741W        W12270   5.322  32.095  14.416
40742W        W12271   6.803  41.073   0.431
40743W        W12272  21.960  35.786  14.954
40744W        W12273   2.132   1.283  14.322
40745W        W12274  17.846  24.934   4.120
40746W        W12275  43.398  31.210  13.863
40747W        W12276   3.449   3.724  11.622
40748W        W12277   5.121  25.791  12.513
40749W        W12278  21.670  22.794  12.906
40750W        W12279  13.606  28.167  11.469
40751W        W12280  29.455  25.046   3.657
40752W        W12281  20.118  15.193   0.039
40753W        W12282  19.532  25.096   4.679
40754W        W12283  21.258  35.425   4.066
40755W        W12284   8.813  42.005  11.213
40756W        W12285  19.135   3.384  11.626
40757W        W12286  38.391  10.355  13.550
40758W        W12287  26.760  41.253   3.156
40759W        W12288  30.205  36.641  12.515
40760W        W12289   9.606  30.528  10.610
40761W        W12290  31.129   7.480  12.409
40762W        W12291  26.522   7.676   1.756
40763W        W12292   5.318  36.405   1.867
40764W        W12293   5.688   8.405  11.967
40765W        W12294   5.899  38.292   3.267
40766W        W12295  34.642  43.075   2.323
40767W        W12296  23.420  41.985   1.044
40768W        W12297   9.745  33.389  14.340
40769W        W12298   5.571   5.077  12.464
40770W        W12299  38.432  38.789  11.639
40771W        W12300   0.886  33.478   0.365
40772W        W12301  29.115  27.444   4.242
40773W        W12302  36.344   5.560  12.043
40774W        W12303  37.589  41.979  12.807
40775W        W12304  17.536  16.655  11.662
40776W        W12305  33.934   0.010  13.952
40777W        W12306  42.759  33.562  13.590
40778W        W12307  13.817   5.332  14.999
40779W        W12308  22.412   5.734  10.696
40780W        W12309  25.120   7.705   4.662
40781W        W12310  41.132  25.099   3.217
40782W        W12311  24.051  20.230   2.350
40783W        W12312  19.973  19.145   3.570
40784W        W12313  42.707  23.946   4.488
40785W        W12314  15.682  44.386   1.447
40786W        W12315  44.792  40.017  12.734
40787W        W12316  35.362  10.302  10.654
40788W        W12317  34.860  25.970   4.080
40789W        W12318  38.459  30.658   2.411
40790W        W12319  19.110  23.649  13.323
40791W        W12320  37.531  16.528   1.415
40792W        W12321  22.221  42.911   3.631
40793W        W12322  10.079  22.248   0.394
40794W        W12323  17.270  24.505  13.263
40795W        W12324  24.174   9.999  14.229
40796W        W12325   9.525  29.513  11.600
40797W        W12326  42.966  42.800   4.048
40798W        W12327   5.782  34.172   3.664
40799W        W12328  44.787  18.240  11.480
40800W        W12329  43.778   7.695  11.982
40801W        W12330  13.208  22.692  11.183
40802W        W12331  27.006  21.008   2.500
40803W        W12332  38.664  40.075   4.999
40804W        W12333  42.825  14.792   4.137
40805W        W12334  24.578  23.170  14.329
40806W        W12335  33.978  18.707  13.908
40807W        W12336   4.377  15.091   0.992
40808W        W12337  30.011  27.652  13.592
40809W        W12338   1.005   4.939  11.155
40810W        W12339  15.496   7.015   1.915
40811W        W12340  42.385  18.707  13.884
40812W        W12341  11.782   5.861  14.698
40813W        W12342  33.633  16.581   3.084
40814W        W12343  34.468  11.578  13.327
40815W        W12344  20.771   1.489   1.165
40816W        W12345   7.448   2.323   4.082
40817W        W12346  37.405  38.380   3.263
40818W        W12347  23.535   8.113  10.705
40819W        W12348   2.228  10.737  14.031
40820W        W12349  33.495  17.373   1.490
40821W        W12350   1.125  14.046   4.233
40822W        W12351  13.677  23.897  11.591
40823W        W12352  26.180   8.937   4.105
40824W        W12353  36.925   8.135   1.052
40825W        W12354  25.337  26.165   1.810
40826W        W12355   4.114  29.114  12.731
40827W        W12356  34.019  30.886   0.901
40828W        W12357  41.017  18.718   0.809
40829W        W12358  43.940  18.634  13.002
40830W        W12359  29.986  18.059  13.423
40831W        W12360  10.571  44.253   4.033
40832W        W12361  12.435   7.817   4.131
40833W        W12362  12.561  24.660   4.146
40834W        W12363  16.463   1.676   4.119
40835W        W12364  16.521  31.636   1.217
40836W        W12365  11.620  25.189   0.511
40837W        W12366  41.029  16.681  14.324
40838W        W12367   3.937  31.945   0.470
40839W        W12368   5.131  19.806   5.071
40840W        W12369  13.833  32.110   3.813
40841W        W12370  34.680   0.450   0.674
40842W        W12371  27.121   1.942   4.052
40843W        W12372  22.265  33.581   3.146
40844W        W12373  13.241   8.285   0.126
40845W        W12374  12.474  38.340   1.846
40846W        W12375  24.584  13.168  10.648
40847W        W12376  17.211  26.738  13.607
40848W        W12377   8.482  23.970  10.748
40849W        W12378  33.838  10.496   4.974
40850W        W12379  20.993   9.351  11.091
40851W        W12380   7.335  21.312   2.191
40852W        W12381  13.997   9.475  12.272
40853W        W12382   2.894  13.283   0.962
40854W        W12383  33.674  26.195   0.911
40855W        W12384  37.424   2.014   1.798
40856W        W12385  20.087  29.739  13.390
40857W        W12386  14.152  38.205   1.251
40858W        W12387  38.757   5.717  13.245
40859W        W12388   8.418  20.624  11.139
40860W        W12389  29.468   6.390   0.855
40861W        W12390  25.167  43.763  13.504
40862W        W12391  33.359   4.324  12.860
40863W        W12392  28.704  38.539  13.866
40864W        W12393  17.763  20.558   0.780
40865W        W12394  11.608  32.419   0.343
40866W        W12395  35.872  38.902   1.501
40867W        W12396  38.141   6.629  11.575
40868W        W12397   9.813  28.185  13.636
40869W        W12398  42.434  37.907   4.253
40870W        W12399  16.297   2.137   3.185
40871W        W12400  26.905  18.243  11.809
40872W        W12401   0.391  44.758   4.088
40873W        W12402  12.153  28.560   0.816
40874W        W12403  17.365  15.591  12.009
40875W        W12404  24.016  41.852  10.857
40876W        W12405  23.076  29.091   0.441
40877W        W12406  31.525  12.354   3.101
40878W        W12407  29.968  30.883  12.079
40879W        W12408   3.573   0.421   2.281
40880W        W12409  11.172  43.130  13.296
40881W        W12410  38.157  10.561  12.314
40882W        W12411   8.825  14.875  12.159
40883W        W12412  25.050  18.044   4.234
40884W        W12413  34.304  34.839   2.938
40885W        W12414  11.939   7.375   5.012
40886W        W12415  35.825  11.753  14.851
40887W        W12416  14.795   9.145   1.838
40888W        W12417   0.068  10.190  11.676
40889W        W12418  10.005   1.337  10.436
40890W        W12419  18.843  14.637   0.373
40891W        W12420  15.822   9.221  11.704
40892W        W12421  21.914  24.176   1.465
40893W        W12422  44.805  10.598  11.489
40894W        W12423  14.203  34.733   4.240
40895W        W12424  40.463  21.941   1.934
40896W        W12425  19.151   1.054   3.174
40897W        W12426  34.480  36.131  11.673
40898W        W12427  15.752  18.612  10.240
40899W        W12428  41.331  33.042   4.614
40900W        W12429  19.484  14.668  10.948
40901W        W12430  32.606  35.071  13.928
40902W        W12431  31.452  35.036   1.121
40903W        W12432  27.020  16.150   4.362
40904W        W12433   6.305  25.707  10.692
40905W        W12434  36.955  31.640   3.779
40906W        W12435  32.102  43.311   0.809
40907W        W12436  42.704   4.666  14.287
40908W        W12437  35.817  11.250  14.089
40909W        W12438  40.556  19.031  12.893
40910W        W12439  32.688  13.580   5.002
40911W        W12440   6.463  17.331  11.575
40912W        W12441  40.209  44.419   5.110
40913W        W12442  39.940   2.333  13.051
40914W        W12443  34.440  28.862  12.433
40915W        W12444  32.381  27.829  12.401
40916W        W12445  22.958   4.131   2.343
40917W        W12446  29.740  19.212   2.115
40918W        W12447   0.518  27.667   4.142
40919W        W12448   6.039  28.393   3.816
40920W        W12449  27.016  27.722  13.533
40921W        W12450  23.001  31.680  13.651
40922W        W12451  29.103  29.009   2.915
40923W        W12452  23.012  28.260  10.275
40924W        W12453  39.905  13.323   4.650
40925W        W12454  35.382  24.198   1.984
40926W        W12455  35.894  22.481  10.734
40927W        W12456  17.969   9.561  14.834
40928W        W12457  28.947   3.547  14.285
40929W        W12458   9.442   5.733   3.123
40930W        W12459  33.454  41.279  10.653
40931W        W12460   3.304   7.926  12.830
40932W        W12461  29.391  28.638   1.683
40933W        W12462   2.698  43.554  11.673
40934W        W12463  30.519  28.968  14.555
40935W        W12464  28.014  31.685  12.436
40936W        W12465  32.429  23.694   2.249
40937W        W12466  16.233   8.616  14.990
40938W        W12467  35.022  29.133   3.199
40939W        W12468   6.549  33.072   1.893
40940W        W12469   0.362  25.132   0.166
40941W        W12470  36.566  38.581   2.104
40942W        W12471  36.784  38.983  12.282
40943W        W12472  13.933  13.025   0.131
40944W        W12473  23.136  34.901   1.961
40945W        W12474  25.268  17.696  14.849
40946W        W12475  24.032   1.719  10.576
40947W        W12476   9.166  41.609  12.595
40948W        W12477  24.942  21.059  10.422
40949W        W12478  41.778  23.674  11.193
40950W        W12479   5.193  44.790  12.861
40951W        W12480  42.276  16.762  12.092
40952W        W12481  34.510   5.627  13.473
40953W        W12482  30.193  18.975   3.168
40954W        W12483  39.505  25.338  14.938
40955W        W12484  37.570  44.540  11.903
40956W        W12485  38.626  23.624   3.642
40957W        W12486   3.962  17.756  10.645
40958W        W12487  35.192   5.411  11.244
40959W        W12488  29.354  11.687  14.026
40960W        W12489  31.083  25.743  14.797
40961W        W12490  27.786  12.074  14.371
40962W        W12491  41.902   0.376   2.460
40963W        W12492   2.001   8.830   3.634
40964W        W12493  15.102   7.556  11.863
40965W        W12494  21.541  34.451   2.206
40966W        W12495  42.468   8.101   0.311
40967W        W12496  43.286  32.501  13.437
40968W        W12497  41.514   7.228   4.418
40969W        W12498  27.118  33.962   2.753
40970W        W12499   1.712   4.363   3.587
40971W        W12500  32.082   0.731   1.299
40972W        W12501  28.762  40.488  11.516
40973W        W12502  12.187  16.653  14.791
40974W        W12503  37.407  20.025   1.887
40975W        W12504  31.955  41.501  13.325
40976W        W12505   5.634  43.920  11.600
40977W        W12506  24.006  38.244  12.933
40978W        W12507  16.624   5.672  13.761
40979W        W12508  37.148  15.197   4.057
40980W        W12509  43.724  33.947   9.765
40981W        W12510  39.768  26.087  10.638
40982W        W12511  18.099  29.320  12.094
40983W        W12512   0.737  32.811  13.066
40984W        W12513  32.561  17.322  14.964
40985W        W12514  32.362   9.249  14.869
40986W        W12515  19.311  28.912   1.177
40987W        W12516  10.920  21.221  14.965
40988W        W12517   1.553  35.736   4.083
40989W        W12518  30.905  42.554  13.703
40990W        W12519   8.744  41.565   0.441
40991W        W12520  41.292   1.459  14.325
40992W        W12521  32.583   8.976  13.017
40993W        W12522  38.382  21.212  14.109
40994W        W12523  31.831  18.629  11.708
40995W        W12524  43.182   8.943   4.088
40996W        W12525  12.020  33.081   3.275
40997W        W12526  44.641   2.081  10.987
40998W        W12527  26.498  42.099   0.346
40999W        W12528  28.462  44.846   0.453
41000W        W12529   5.214  41.518   0.485
41001W        W12530  28.524  22.466   4.887
41002W        W12531   4.643  32.824  10.557
41003W        W12532  40.012  27.017   0.817
41004W        W12533   3.778  39.945  11.974
41005W        W12534  20.936  28.082   1.550
41006W        W12535   9.537  17.665  13.534
41007W        W12536  18.152  30.588   1.450
41008W        W12537  41.269   9.300   0.975
41009W        W12538  25.518  20.135  11.964
41010W        W12539  36.295  25.221   2.337
41011W        W12540  21.323  42.029   0.417
41012W        W12541  40.845  27.515   0.682
41013W        W12542  22.002  26.153  13.122
41014W        W12543  31.939  44.897   2.732
41015W        W12544  10.083  36.254  12.036
41016W        W12545   0.224  13.383   1.871
41017W        W12546  35.845  16.658  13.530
41018W        W12547  26.901  14.011   3.263
41019W        W12548  15.637   5.979   2.864
41020W        W12549  44.104  42.536   2.893
41021W        W12550  25.475   6.493  14.991
41022W        W12551  41.937  20.614   4.548
41023W        W12552  33.115  20.085   1.871
41024W        W12553   9.871  16.754   2.390
41025W        W12554   8.947  41.432  14.937
41026W        W12555  14.261  11.945   2.026
41027W        W12556  21.732  26.630  14.282
41028W        W12557  16.191  17.773   2.805
41029W        W12558  41.681  40.856   4.156
41030W        W12559  35.753   8.888  12.183
41031W        W12560  18.560  15.733   2.771
41032W        W12561  20.306  11.767  13.858
41033W        W12562  10.414  11.249  10.483
41034W        W12563  44.378  31.279  11.271
41035W        W12564  20.852  35.096   3.573
41036W        W12565  16.063  19.486   1.181
41037W        W12566   5.292  33.312  13.208
41038W        W12567  18.228  36.443  12.325
41039W        W12568  44.175   1.070  14.481
41040W        W12569  11.795  35.336  11.556
41041W        W12570   5.976  27.927   1.662
41042W        W12571  31.525  35.245  11.356
41043W        W12572  34.483  40.552  13.681
41044W        W12573   7.633  23.608   3.233
41045W        W12574  30.515   4.686  12.044
41046W        W12575  27.187  26.277   0.735
41047W        W12576  24.581  11.311   4.662
41048W        W12577  43.473   4.272  14.055
41049W        W12578  26.665  22.809   0.585
41050W        W12579  14.741  32.610   3.882
41051W        W12580  32.852   6.936  10.763
41052W        W12581  28.801  35.964  13.397
41053W        W12582  16.237   7.805   0.509
41054W        W12583  42.357  18.139   1.888
41055W        W12584  22.426  30.352   2.854
41056W        W12585   4.954  17.249   3.499
41057W        W12586  32.192  20.222  14.932
41058W        W12587  18.294  29.645   0.260
41059W        W12588  39.015  11.234  11.502
41060W        W12589   0.204  18.570  14.940
41061W        W12590  37.280   4.822  10.145
41062W        W12591  17.113  23.035   0.307
41063W        W12592  31.147  31.397   0.387
41064W        W12593  29.469  29.675  11.558
41065W        W12594   3.263  34.726   3.758
41066W        W12595   3.389  20.518  11.566
41067W        W12596  34.496  18.172   1.168
41068W        W12597  37.838  40.955  11.866
41069W        W12598  11.429   3.782   2.698
41070W        W12599   3.197  22.380  12.326
41071W        W12600  38.914   2.995  11.588
41072W        W12601  36.512   7.926  13.065
41073W        W12602  12.679   0.404   0.762
41074W        W12603  23.443  10.304  14.335
41075W        W12604  30.342   8.788  14.292
41076W        W12605  18.729  28.483   1.889
41077W        W12606  20.658   0.643  12.921
41078W        W12607  20.239  17.178   1.074
41079W        W12608  27.234   3.931  11.475
41080W        W12609   7.371  11.149   2.681
41081W        W12610   0.423  43.033   2.720
41082W        W12611  37.418   9.857  14.557
41083W        W12612  29.995  29.089  12.852
41084W        W12613  18.256  18.164   1.690
41085W        W12614  35.887  34.561   2.170
41086W        W12615  40.437   5.710  12.045
41087W        W12616  34.012  40.343  13.779
41088W        W12617   9.862  36.151  14.956
41089W        W12618  20.458  35.629  12.891
41090W        W12619   8.608  29.295  13.417
41091W        W12620  36.890   5.187   1.395
41092W        W12621   4.711  23.569  14.588
41093W        W12622  27.670  16.742  13.669
41094W        W12623  28.184   5.428   0.413
41095W        W12624  20.549   7.866  12.884
41096W        W12625  19.241  43.969   4.146
41097W        W12626  42.519  17.309   4.392
41098W        W12627  24.774  36.346   5.069
41099W        W12628  41.344  30.219  11.889
41100W        W12629  42.914  40.000   4.739
41101W        W12630  15.751  25.116  10.805
41102W        W12631   0.226  26.440   0.546
41103W        W12632  32.448   5.807  11.683
41104W        W12633  33.588  34.543   4.013
41105W        W12634  17.554  34.272   3.175
41106W        W12635   9.167   2.780  10.673
41107W        W12636  27.788  26.494  10.725
41108W        W12637  19.064  12.775   2.269
41109W        W12638  31.505  32.973   1.484
41110W        W12639  24.026  40.475  11.222
41111W        W12640  28.066  16.227   1.916
41112W        W12641  30.969  22.446  14.987
41113W        W12642  44.512  30.461   3.625
41114W        W12643  36.325   3.780   1.044
41115W        W12644  22.616   6.920  12.536
41116W        W12645  41.468  30.064  11.059
41117W        W12646  43.763  15.116   4.624
41118W        W12647  26.371  39.509  12.146
41119W        W12648   7.716  12.859   2.200
41120W        W12649  23.226  12.835  14.033
41121W        W12650  23.509  22.556  11.085
41122W        W12651   3.813   8.696   4.045
41123W        W12652   4.696  13.202  14.196
41124W        W12653  22.154  37.589  13.457
41125W        W12654  29.961  18.379  12.128
41126W        W12655  11.647   7.849   0.265
41127W        W12656   5.081  31.389  10.791
41128W        W12657  10.455   6.303  12.421
41129W        W12658   1.980  27.102  13.249
41130W        W12659  37.441  34.634  12.538
41131W        W12660  18.994   6.728   1.402
41132W        W12661  12.161  25.066  14.787
41133W        W12662  16.733   1.709   4.741
41134W        W12663   9.493  21.208   4.908
41135W        W12664   2.795   2.903   4.136
41136W        W12665  10.232   2.352   4.856
41137W        W12666   7.326  35.607  11.845
41138W        W12667   0.084  25.042  10.981
41139W        W12668   8.859  19.540   4.676
41140W        W12669  21.585  17.563  11.261
41141W        W12670  19.699  11.482   0.354
41142W        W12671  20.657  44.744   1.277
41143W        W12672  29.002   2.530  11.134
41144W        W12673   6.051  27.497   1.951
41145W        W12674  24.006  38.293  10.634
41146W        W12675  37.380  10.716  11.339
41147W        W12676   9.110  21.552   4.870
41148W        W12677  24.254  17.156   2.110
41149W        W12678   3.955  23.578  12.042
41150W        W12679   8.610  19.858   3.369
41151W        W12680   6.778  29.549   1.851
41152W        W12681  20.881  27.487  12.417
41153W        W12682   3.862  38.958  14.666
41154W        W12683   4.697  11.289   2.747
41155W        W12684  28.478   7.250   4.423
41156W        W12685  23.940  10.152   1.220
41157W        W12686  41.397  12.249   4.677
41158W        W12687  41.262  41.152   4.067
41159W        W12688   1.747  28.587   0.918
41160W        W12689   3.593  21.562   2.912
41161W        W12690  15.283  28.189   1.340
41162W        W12691  42.594  12.556   1.953
41163W        W12692  19.687  20.161  12.824
41164W        W12693  34.513  18.148   3.261
41165W        W12694   6.375  22.016   3.166
41166W        W12695  19.781  38.273  11.190
41167W        W12696  19.117  10.262  10.726
41168W        W12697  32.551  39.503  12.428
41169W        W12698   3.858  42.758   0.905
41170W        W12699  27.125  28.473  14.369
41171W        W12700  13.172  27.054   4.916
41172W        W12701  36.418  33.580   4.750
41173W        W12702  30.151  25.038   3.062
41174W        W12703  11.863   6.143   2.717
41175W        W12704  24.985   2.526   0.854
41176W        W12705  43.208   8.926  11.301
41177W        W12706  37.899  27.885   2.894
41178W        W12707  35.353  20.307   0.843
41179W        W12708  21.069  11.676   2.325
41180W        W12709  33.600  18.609  12.892
41181W        W12710  16.844  44.410  11.982
41182W        W12711   6.982   0.245   0.952
41183W        W12712   2.373  42.709  11.841
41184W        W12713  19.022  41.981   0.539
41185W        W12714  37.917   8.380   2.782
41186W        W12715   1.429   0.446   2.132
41187W        W12716   7.106  20.064  13.871
41188W        W12717  36.803  28.767   4.304
41189W        W12718   3.766  14.152  13.429
41190W        W12719   3.246   1.464  12.553
41191W        W12720  33.118  19.031   0.280
41192W        W12721  41.033  39.859  11.612
41193W        W12722  44.970  44.383   1.274
41194W        W12723  28.582  10.428  11.175
41195W        W12724  18.976  14.684   3.597
41196W        W12725  25.318  41.988   1.534
41197W        W12726  35.241  26.268   2.797
41198W        W12727   1.231  28.155   2.388
41199W        W12728  40.528  23.030  11.117
41200W        W12729  22.530   4.421  13.589
41201W        W12730  44.449  20.621  11.969
41202W        W12731  42.710  21.063  12.370
41203W        W12732  10.056  44.961  11.114
41204W        W12733  38.535  39.053  10.788
41205W        W12734  26.259  10.392  13.891
41206W        W12735  22.137  30.675  13.654
41207W        W12736   3.872  23.639  11.503
41208W        W12737  29.433  32.805  13.834
41209W        W12738  42.016  18.516   1.704
41210W        W12739   1.917  14.027  12.465
41211W        W12740  26.698  42.598  11.161
41212W        W12741   9.217   2.025  13.011
41213W        W12742   3.049  20.744  12.115
41214W        W12743  34.280  36.089   3.510
41215W        W12744  38.831  11.171  13.764
41216W        W12745   6.477   9.882   3.056
41217W        W12746  43.622  32.133  11.614
41218W        W12747  16.874  43.802  11.154
41219W        W12748  15.140   1.694   4.132
41220W        W12749  29.402   5.286   0.773
41221W        W12750   3.632   0.354   1.750
41222W        W12751   3.409  11.776  11.989
41223W        W12752  20.123  39.352   2.782
41224W        W12753  35.720  17.577   1.762
41225W        W12754  19.478  14.208   2.235
41226W        W12755   7.108  24.654  10.555
41227W        W12756  36.128  39.692  12.306
41228W        W12757  21.629  31.065  12.004
41229W        W12758  44.233  26.018  13.934
41230W        W12759  18.531  21.662  11.748
41231W        W12760  17.871  13.566   1.777
41232W        W12761  34.945  42.045  12.859
41233W        W12762  12.745  18.090  14.099
41234W        W12763  10.126  43.364  13.585
41235W        W12764  26.807  25.261   1.861
41236W        W12765  18.133  18.269   0.196
41237W        W12766  15.439  11.024   4.927
41238W        W12767  24.154   0.226   0.944
41239W        W12768  15.950  27.504   1.241
41240W        W12769  42.645  40.936   4.437
41241W        W12770  44.259  30.448   4.071
41242W        W12771  33.026   3.781   1.265
41243W        W12772  44.660  40.844   0.914
41244W        W12773  27.703  12.832   3.165
41245W        W12774  33.872  30.474  13.553
41246W        W12775  22.047  23.245   1.309
41247W        W12776  21.494  18.807   2.245
41248W        W12777  28.614  17.624   0.265
41249W        W12778  29.528  37.562   0.535
41250W        W12779  25.540  16.446  12.563
41251W        W12780   3.246   0.820   2.119
41252W        W12781  35.036  29.125  14.576
41253W        W12782  34.598  41.396   1.774
41254W        W12783  20.039  11.809   3.172
41255W        W12784  20.036  21.366  10.903
41256W        W12785  17.789   7.525  12.525
41257W        W12786  23.233  21.443  13.882
41258W        W12787   6.822  31.044  14.855
41259W        W12788  28.570   8.644   1.459
41260W        W12789  31.169  19.572   1.366
41261W        W12790   4.441   2.159  12.107
41262W        W12791  18.553   3.304  13.603
41263W        W12792  19.767  10.162  14.352
41264W        W12793  38.447  27.084   1.907
41265W        W12794  36.461  29.732   3.148
41266W        W12795  34.433  23.081  13.331
41267W        W12796  34.603  32.147   3.304
41268W        W12797   5.873  17.514   4.313
41269W        W12798   8.907   1.325   2.705
41270W        W12799  34.482  13.708  11.018
41271W        W12800  44.285  14.247   4.557
41272W        W12801  26.621  36.974  11.606
41273W        W12802   7.377   4.246   1.639
41274W        W12803  23.218   3.623  14.016
41275W        W12804  23.185  22.466   0.928
41276W        W12805  42.780   0.741   3.276
41277W        W12806  35.997  43.792  13.975
41278W        W12807  20.077  35.187   0.520
41279W        W12808  12.770  15.312   2.774
41280W        W12809  21.500  16.259  11.546
41281W        W12810  19.474  38.886  13.456
41282W        W12811  26.066  36.060  14.114
41283W        W12812  44.581   3.700  11.570
41284W        W12813  13.073  39.909   1.366
41285W        W12814   4.934   6.343  13.486
41286W        W12815  13.375  43.523  12.526
41287W        W12816  38.469   6.919   0.385
41288W        W12817  17.121   8.056   1.924
41289W        W12818  25.143  19.197   2.207
41290W        W12819  42.467   5.651  13.331
41291W        W12820   3.407  10.825   3.789
41292W        W12821   5.397  25.131  12.115
41293W        W12822  39.840  18.568  12.499
41294W        W12823  21.971  34.823  12.876
41295W        W12824  15.665  14.199   2.743
41296W        W12825  19.226   5.276   4.581
41297W        W12826  24.537  19.702  12.558
41298W        W12827   2.294  37.880  14.446
41299W        W12828   4.317  13.224   4.520
41300W        W12829   1.739  15.874  10.579
41301W        W12830   7.160  16.440   1.750
41302W        W12831  10.619  32.852   1.333
41303W        W12832   4.484  19.170   2.720
41304W        W12833  13.696  22.056  10.630
41305W        W12834  25.653  16.533   4.165
41306W        W12835  21.211  40.491   2.353
41307W        W12836  12.743  30.930  11.198
41308W        W12837  40.692  20.029  11.164
41309W        W12838   0.271  14.078   0.037
41310W        W12839   2.483  34.317  10.992
41311W        W12840  41.336   5.188   1.334
41312W        W12841   0.379  26.231   0.048
41313W        W12842  41.343   4.843  13.033
41314W        W12843  23.498  15.108  11.461
41315W        W12844  10.936  37.284   1.008
41316W        W12845  20.456  28.279  14.396
41317W        W12846  15.367  13.615   3.143
41318W        W12847  24.603  15.337   0.651
41319W        W12848   6.953  17.090   3.437
41320W        W12849  10.910  20.718   1.810
41321W        W12850  22.619  44.387   0.810
41322W        W12851  44.167  18.309  14.159
41323W        W12852  34.572  22.310  14.391
41324W        W12853  32.549  44.999  14.340
41325W        W12854   5.308   3.216  12.144
41326W        W12855  30.924   1.967  11.703
41327W        W12856  32.370  32.710  10.801
41328W        W12857   6.178   7.766  13.397
41329W        W12858   3.997  34.528   4.402
41330W        W12859   5.717   0.217   4.910
41331W        W12860  29.722  39.744  12.862
41332W        W12861  30.171   4.015  13.778
41333W        W12862   8.109  34.419  13.398
41334W        W12863  25.949  14.169   2.784
41335W        W12864  30.319  14.052  12.025
41336W        W12865  31.144   2.202  14.856
41337W        W12866   7.556  26.804  13.122
41338W        W12867  40.805  28.250  13.375
41339W        W12868   3.720  32.930  14.795
41340W        W12869   3.906  11.339  14.427
41341W        W12870   7.141  41.101   1.068
41342W        W12871  42.733  20.306   4.966
41343W        W12872   6.355  15.068  11.150
41344W        W12873  14.002  26.368   1.230
41345W        W12874  15.460  43.311   0.575
41346W        W12875  28.840  15.661  10.434
41347W        W12876  26.194   6.756  10.498
41348W        W12877  24.931  33.831   1.789
41349W        W12878  14.620   4.946  10.625
41350W        W12879  31.408  30.179  14.908
41351W        W12880  14.635  42.594  11.136
41352W        W12881  13.379   9.604   0.349
41353W        W12882   3.786  19.803  12.833
41354W        W12883  38.808  31.957  12.547
41355W        W12884  12.165  15.828   0.657
41356W        W12885  44.569  14.910   0.256
41357W        W12886  35.245  18.941   4.104
41358W        W12887  16.568  23.806   2.732
41359W        W12888  28.350  28.618  12.372
41360W        W12889  25.195   2.453   2.556
41361W        W12890   6.812   1.676   4.563
41362W        W12891  32.808   5.396   3.285
41363W        W12892  11.886  12.446  12.548
41364W        W12893  34.144  16.295   0.915
41365W        W12894  10.237  15.353  10.017
41366W        W12895  37.839  14.429   4.565
41367W        W12896  20.044   1.912   1.506
41368W        W12897   9.183  26.419   4.025
41369W        W12898  33.023  11.291   1.105
41370W        W12899   5.965  10.886  14.939
41371W        W12900   0.948  32.404  14.305
41372W        W12901  19.490   6.358   0.238
41373W        W12902   2.738  10.154   3.270
41374W        W12903   0.849  39.091   9.860
41375W        W12904   1.246   8.133  12.597
41376W        W12905  30.650  19.678  13.383
41377W        W12906   6.385  34.967  12.627
41378W        W12907   9.858  22.438  13.387
41379W        W12908  17.267  17.536  12.124
41380W        W12909   5.698  42.700   0.633
41381W        W12910  32.947  16.721  12.136
41382W        W12911  15.130  26.081  14.756
41383W        W12912  20.807   9.786   4.635
41384W        W12913  31.091   8.849   2.538
41385W        W12914  21.472  23.933  13.436
41386W        W12915  42.430  11.371   0.939
41387W        W12916  37.704   1.544  11.710
41388W        W12917  13.196  33.361  13.075
41389W        W12918   5.450  24.105  12.016
41390W        W12919   1.580   6.187   1.780
41391W        W12920   8.599  24.287   0.438
41392W        W12921   7.321  38.067   0.915
41393W        W12922  24.685   3.282   0.332
41394W        W12923   3.477  42.347   2.125
41395W        W12924  18.673  13.497   4.086
41396W        W12925  39.640  22.933  10.765
41397W        W12926  31.610  18.145   3.657
41398W        W12927   4.705  22.047   1.835
41399W        W12928  22.588   2.212  10.716
41400W        W12929  24.457  17.151  14.837
41401W        W12930  13.496  37.459   2.496
41402W        W12931  20.303  13.779   4.118
41403W        W12932  14.366  35.637  12.521
41404W        W12933   7.343  31.054  11.513
41405W        W12934  39.344  22.001   1.673
41406W        W12935  28.035  32.545  14.121
41407W        W12936  13.767  26.455   5.025
41408W        W12937  35.845  21.568  13.320
41409W        W12938  27.052   1.622  11.370
41410W        W12939  13.054  27.286  12.537
41411W        W12940  39.935  35.240  11.266
41412W        W12941  26.739  17.011  13.142
41413W        W12942   7.459  36.322   3.779
41414W        W12943   3.820  27.573  13.542
41415W        W12944  25.473  20.202  13.402
41416W        W12945  37.912  30.195   3.279
41417W        W12946   2.025  16.233   1.639
41418W        W12947   4.681  12.281   3.369
41419W        W12948  38.923  11.583  10.867
41420W        W12949  27.982  22.606  13.390
41421W        W12950  34.737   3.007  14.935
41422W        W12951  13.464   5.907   2.304
41423W        W12952  31.099  21.473  11.551
41424W        W12953   1.882  39.276  14.428
41425W        W12954   1.948  39.762  13.439
41426W        W12955  29.578  12.376   3.054
41427W        W12956  18.262  40.549  13.942
41428W        W12957  14.981   7.673   4.732
41429W        W12958   0.470  37.039  12.653
41430W        W12959  24.193  41.657   0.671
41431W        W12960   3.910   4.953  14.323
41432W        W12961  33.293  28.483  13.085
41433W        W12962  17.182  14.580   1.757
41434W        W12963   1.324   5.424  14.549
41435W        W12964  16.496  41.038  14.787
41436W        W12965  10.358   8.721   4.488
41437W        W12966  29.339  40.335  14.852
41438W        W12967   3.596  26.706  14.318
41439W        W12968  20.674  41.255  12.794
41440W        W12969  32.976  36.836   4.300
41441W        W12970  23.144   7.558  14.943
41442W        W12971   6.096  21.275   2.177
41443W        W12972   1.384  32.143   0.127
41444W        W12973  10.813  21.987   2.346
41445W        W12974  27.005  12.535   4.836
41446W        W12975   5.155  17.245  12.113
41447W        W12976  19.516  19.809   2.027
41448W        W12977  12.798  16.258   4.571
41449W        W12978  30.629  38.597   1.335
41450W        W12979   9.274  38.105   1.384
41451W        W12980  37.783  40.106  13.999
41452W        W12981  34.407   7.373  14.456
41453W        W12982  18.178   5.974  10.793
41454W        W12983  44.952   9.829   0.754
41455W        W12984  22.665  17.800  10.359
41456W        W12985  14.697  24.510  11.510
41457W        W12986  37.130  15.284   1.028
41458W        W12987  27.311  43.290   1.335
41459W        W12988  24.999  14.312  10.783
41460W        W12989  22.224  37.804   3.361
41461W        W12990   3.126  40.494   1.702
41462W        W12991  19.066  39.471   2.152
41463W        W12992  29.449  35.675  11.605
41464W        W12993   6.374  39.325  12.552
41465W        W12994   9.245  34.809  10.764
41466W        W12995   0.014  23.315  11.801
41467W        W12996  32.063  33.082  14.550
41468W        W12997  43.227  17.045   3.702
41469W        W12998  10.876  30.928   0.959
41470W        W12999  31.619  30.967   2.543
41471W        W13000  24.992  34.330   1.871
41472W        W13001   3.944  18.260  13.428
41473W        W13002  23.080  12.857  11.644
41474W        W13003  29.281  44.079   2.868
41475W        W13004   0.160  29.422   0.844
41476W        W13005  26.446  36.349  12.443
41477W        W13006  37.547  10.425   3.637
41478W        W13007  37.250  23.556  10.725
41479W        W13008   7.281  42.227   1.360
41480W        W13009  34.104  38.858   1.185
41481W        W13010  29.532  27.534   1.075
41482W        W13011   2.330   5.955   4.579
41483W        W13012  41.963  27.983   3.622
41484W        W13013  21.129  44.815  14.257
41485W        W13014   4.795  29.241   1.773
41486W        W13015  44.270  38.927   3.557
41487W        W13016  31.792  33.286   2.838
41488W        W13017  41.022   4.346  11.633
41489W        W13018   3.276   6.981   0.901
41490W        W13019  11.806   1.857  11.533
41491W        W13020  43.311  33.898  10.447
41492W        W13021  10.160  38.408   4.700
41493W        W13022   8.320  31.881  12.444
41494W        W13023  12.822  19.813   4.263
41495W        W13024   8.270  18.512   3.422
41496W        W13025   4.195  35.169  11.531
41497W        W13026  37.035  23.682   2.983
41498W        W13027  13.711   8.923  11.627
41499W        W13028  33.073  19.955   0.412
41500W        W13029   3.087   4.442   0.706
41501W        W13030  21.267  36.889   0.860
41502W        W13031  16.648  39.989   2.890
41503W        W13032  43.466  15.534   3.681
41504W        W13033   9.865  33.995  10.710
41505W        W13034  26.602  10.055   1.147
41506W        W13035  20.704   8.833   4.154
41507W        W13036  26.981  24.081  11.474
41508W        W13037  20.398   4.493   3.034
41509W        W13038  27.601  44.479  13.080
41510W        W13039  39.851  44.414   0.857
41511W        W13040  35.564  19.612  12.368
41512W        W13041  38.388   2.353  10.598
41513W        W13042  30.421   7.876  14.816
41514W        W13043   8.337  17.605  14.892
41515W        W13044  44.595  29.722   2.021
41516W        W13045  13.790  41.970   3.879
41517W        W13046  18.604  19.700  11.378
41518W        W13047  14.585  18.732  11.463
41519W        W13048  43.344  11.557   0.462
41520W        W13049  27.712  39.080  14.352
41521W        W13050   3.375  41.093  13.699
41522W        W13051  21.837   1.349  14.351
41523W        W13052  36.979  18.673  12.283
41524W        W13053  10.440  20.712   2.729
41525W        W13054   0.282  23.739  12.508
41526W        W13055  38.415  26.452   4.681
41527W        W13056  30.609  43.786   1.992
41528W        W13057  16.594  41.072   4.053
41529W        W13058  17.606  31.533  11.095
41530W        W13059  31.003  37.368  11.467
41531W        W13060  33.338  34.139   4.263
41532W        W13061  40.969   9.635   0.678
41533W        W13062   9.762   6.722  13.473
41534W        W13063  18.305  34.569   0.290
41535W        W13064  44.454  21.713   0.313
41536W        W13065  24.584   1.498  13.578
41537W        W13066  22.923   9.115   4.224
41538W        W13067  25.721   1.992   5.106
41539W        W13068  17.177  21.117  13.076
41540W        W13069  25.034  22.456   1.920
41541W        W13070  38.333   4.980  12.598
41542W        W13071  42.809  38.182   3.376
41543W        W13072  14.798  17.087   4.703
41544W        W13073  33.631   3.753  14.403
41545W        W13074  22.724  20.572  12.054
41546W        W13075  33.193   4.248   1.345
41547W        W13076   0.526  23.596  13.497
41548W        W13077  41.304  34.445   2.771
41549W        W13078   8.362  27.520   4.217
41550W        W13079   2.229  15.234  12.347
41551W        W13080  15.582  29.660  14.971
41552W        W13081   2.765   5.700  13.628
41553W        W13082   4.194  12.874  10.274
41554W        W13083   9.963  14.285   0.968
41555W        W13084  11.698  38.886   3.224
41556W        W13085   3.916  10.211   4.981
41557W        W13086  15.596  27.178  12.956
41558W        W13087   3.995  28.425   2.161
41559W        W13088  14.634  14.203   4.077
41560W        W13089  30.383  40.875   0.014
41561W        W13090  41.463   2.961  14.926
41562W        W13091  17.325  30.319   4.044
41563W        W13092  24.675   8.772  10.750
41564W        W13093  25.901  12.343   2.208
41565W        W13094  18.289   9.745  13.970
41566W        W13095  18.268  13.546   1.262
41567W        W13096  38.549  27.082   0.902
41568W        W13097  15.285  42.335   3.156
41569W        W13098   8.744  27.852   4.369
41570W        W13099  39.314  28.655   3.696
41571W        W13100  30.430  39.416  11.567
41572W        W13101  26.155  36.138   0.089
41573W        W13102   6.366   2.031  11.636
41574W        W13103  12.841  18.523   3.680
41575W        W13104  41.647  22.816  12.005
41576W        W13105  29.945   8.349   2.982
41577W        W13106   4.566  43.279   1.302
41578W        W13107  35.341  29.860  14.859
41579W        W13108  23.657  23.082   3.277
41580W        W13109  39.252  13.036  11.444
41581W        W13110  21.503  11.459  14.852
41582W        W13111  18.633  41.349  13.795
41583W        W13112   7.247   2.457   4.544
41584W        W13113  32.082  35.016  13.952
41585W        W13114  33.983  40.089   3.293
41586W        W13115  14.398  16.069   3.883
41587W        W13116  13.583  37.554  14.242
41588W        W13117  25.220  23.023  11.535
41589W        W13118  39.870   5.948  11.015
41590W        W13119  22.588  41.313   1.280
41591W        W13120  41.842  33.450  14.574
41592W        W13121  19.087  23.471   4.531
41593W        W13122  17.869   1.883   0.505
41594W        W13123  28.664  20.792  14.427
41595W        W13124  44.111  10.664   0.101
41596W        W13125  10.931  14.551  13.612
41597W        W13126  43.568  14.365  12.265
41598W        W13127  38.017  39.863   0.390
41599W        W13128  23.558   8.133   0.589
41600W        W13129  35.432   9.593  11.639
41601W        W13130  32.462  18.612  11.068
41602W        W13131  12.873  26.001   0.903
41603W        W13132  28.269   0.060  12.459
41604W        W13133  21.866   7.965  11.586
41605W        W13134  24.008  21.981   1.805
41606W        W13135  40.091  35.659   2.402
41607W        W13136  22.311  23.474   1.876
41608W        W13137  22.933  18.208  11.507
41609W        W13138   6.270  35.171  14.448
41610W        W13139  20.814  24.181   0.759
41611W        W13140   8.852   9.897  12.469
41612W        W13141   2.013   3.076   2.131
41613W        W13142  14.700  23.686   3.283
41614W        W13143  22.701  29.153  10.286
41615W        W13144  18.829  41.036  11.498
41616W        W13145  18.708  13.918   0.951
41617W        W13146  35.384  41.371  10.800
41618W        W13147  33.587  16.816  11.563
41619W        W13148  16.789  41.927   0.266
41620W        W13149   2.493   7.673   0.537
41621W        W13150  24.586   1.337  14.083
41622W        W13151  25.472  39.002  14.063
41623W        W13152  42.265  24.346   3.212
41624W        W13153  38.447  38.306  11.301
41625W        W13154  22.531  26.148  12.427
41626W        W13155  26.161  27.299   3.653
41627W        W13156  10.135  41.565   1.381
41628W        W13157  36.096  12.246  14.868
41629W        W13158  35.480  26.469   2.236
41630W        W13159   4.860  39.238  13.449
41631W        W13160  16.317  32.899  11.729
41632W        W13161   9.093  16.171   1.225
41633W        W13162  25.034  26.727   1.441
41634W        W13163  18.389  25.804  10.591
41635W        W13164   9.859  30.969   3.876
41636W        W13165  27.160  28.584   2.854
41637W        W13166   8.412  32.294   0.222
41638W        W13167  11.792  40.269   0.843
41639W        W13168  10.717  34.288   3.628
41640W        W13169   9.960  24.516   0.766
41641W        W13170  27.448  31.582   1.261
41642W        W13171  31.021  42.751   0.082
41643W        W13172  25.478  34.555  11.472
41644W        W13173  29.659  38.083  12.113
41645W        W13174  12.794   7.000   4.451
41646W        W13175   8.130  32.808  11.715
41647W        W13176  31.427  33.502  11.194
41648W        W13177  17.627   4.173  13.387
41649W        W13178  31.105   8.591   3.915
41650W        W13179  13.763  43.955  14.959
41651W        W13180  23.596   6.654  14.433
41652W        W13181   0.219  15.030  13.532
41653W        W13182  11.558   9.841  13.047
41654W        W13183  21.825   9.991   0.899
41655W        W13184  41.284  35.474   3.840
41656W        W13185  41.074  44.594  10.729
41657W        W13186  41.062  11.127   4.034
41658W        W13187  23.243   5.893   1.851
41659W        W13188  13.333  41.253   0.734
41660W        W13189  30.117  28.021   3.783
41661W        W13190  23.120  34.990  12.418
41662W        W13191  40.940  35.890   3.746
41663W        W13192  40.762  32.935   2.833
41664W        W13193  38.099   3.986  11.111
41665W        W13194  16.135  32.338  14.420
41666W        W13195   4.334  19.612   3.846
41667W        W13196  33.179  10.802  11.649
41668W        W13197  32.439  37.334  14.470
41669W        W13198  38.427  24.673  13.704
41670W        W13199   1.460  24.667  13.510
41671W        W13200  12.070   5.712  10.782
41672W        W13201   8.893   5.885  13.046
41673W        W13202  17.485  42.521   4.908
41674W        W13203  40.386   8.881  10.584
41675W        W13204  20.932  25.755   4.162
41676W        W13205  42.440  42.786   0.806
41677W        W13206  42.987   8.404   2.258
41678W        W13207  35.050  27.034   4.120
41679W        W13208   0.228  26.697   3.227
41680W        W13209  16.277  11.071   0.839
41681W        W13210   4.729  40.190  12.247
41682W        W13211  43.905  42.244   1.519
41683W        W13212  14.143  22.706   1.791
41684W        W13213   0.357  38.819  11.874
41685W        W13214   8.472  37.418   3.591
41686W        W13215  15.745  31.446   3.281
41687W        W13216  32.759   2.964   1.294
41688W        W13217  32.069   4.231   0.859
41689W        W13218  23.661  12.253  10.599
41690W        W13219  13.851   4.740  13.215
41691W        W13220  38.471  14.866   3.440
41692W        W13221  38.912  44.352  13.968
41693W        W13222  14.249   0.875   1.371
41694W        W13223  25.981  25.248  13.543
41695W        W13224  30.454  15.859   4.935
41696W        W13225  40.882  32.014  11.234
41697W        W13226  36.861  35.836  14.830
41698W        W13227  44.392  37.582  10.806
41699W        W13228  33.485  39.491   1.706
41700W        W13229  14.973  42.405   0.391
41701W        W13230  42.927  44.485  12.616
41702W        W13231  25.550  18.731  14.103
41703W        W13232  14.851  29.137   3.941
41704W        W13233  26.591  21.930  11.353
41705W        W13234  22.123  31.115  11.608
41706W        W13235   3.414  32.290   4.466
41707W        W13236  13.118  21.559  11.280
41708W        W13237  18.427  28.323   4.712
41709W        W13238   8.261  30.572  12.941
41710W        W13239  16.051  44.636  14.796
41711W        W13240  10.220  26.919  13.870
41712W        W13241   7.362  42.311   0.467
41713W        W13242  14.801  18.321  13.433
41714W        W13243   4.842  39.998   4.881
41715W        W13244  44.612   0.006  11.613
41716W        W13245  11.751  14.396  14.527
41717W        W13246   2.955  22.852  14.588
41718W        W13247  32.615  19.044   2.923
41719W        W13248  35.850  36.585  13.944
41720W        W13249   9.296   9.855  10.608
41721W        W13250  36.987  38.542  12.485
41722W        W13251  25.635  32.484  14.544
41723W        W13252  36.397  19.492  13.022
41724W        W13253  35.135   2.355   4.117
41725W        W13254  12.824  18.784  10.970
41726W        W13255  32.073  13.848   4.175
41727W        W13256   4.279  27.435  12.865
41728W        W13257   0.522  30.151  13.761
41729W        W13258  16.065   0.611  13.248
41730W        W13259  31.596   8.109   3.101
41731W        W13260  40.028   7.408   4.490
41732W        W13261  40.054  40.837   2.725
41733W        W13262   7.566  25.090  11.289
41734W        W13263   1.377  20.584   4.295
41735W        W13264  44.014  29.320  11.968
41736W        W13265  20.808  27.062   3.185
41737W        W13266  20.270  22.444   0.191
41738W        W13267  24.536   1.179   2.882
41739W        W13268   2.044   3.311   4.215
41740W        W13269  32.053  16.086  13.498
41741W        W13270  37.404   4.823  13.431
41742W        W13271  21.670   8.848   1.750
41743W        W13272   4.731   7.152  13.027
41744W        W13273  26.034  23.997   1.812
41745W        W13274  40.619   2.224   0.900
41746W        W13275  32.820  15.223   0.311
41747W        W13276   1.866   5.886   0.916
41748W        W13277  19.365   7.879  14.335
41749W        W13278  23.191  26.400   3.099
41750W        W13279  39.195  12.821  13.933
41751W        W13280  15.511  39.739  14.371
41752W        W13281  44.376  25.704   3.327
41753W        W13282   3.902  32.765   5.459
41754W        W13283  32.249  40.490  14.265
41755W        W13284  26.153   6.648   2.692
41756W        W13285  39.185  18.145   1.614
41757W        W13286  38.522  21.875   2.756
41758W        W13287  38.802  22.086   1.773
41759W        W13288  25.429  27.570   3.249
41760W        W13289  13.770  24.529   1.598
41761W        W13290  12.763   8.331   3.723
41762W        W13291  25.601   2.527  11.607
41763W        W13292  23.123   3.870   3.646
41764W        W13293   0.929  13.860  13.342
41765W        W13294  14.615  23.508  10.703
41766W        W13295  15.756  43.080  11.530
41767W        W13296  42.509  32.369   4.543
41768W        W13297  41.526   9.269  10.824
41769W        W13298  27.145   8.957   4.261
41770W        W13299  34.113  26.564  12.335
41771W        W13300  12.634  26.675   0.980
41772W        W13301   2.990  35.476  13.413
41773W        W13302  20.082  44.923   5.026
41774W        W13303   6.958  23.716   0.407
41775W        W13304  41.809  13.114   4.189
41776W        W13305  18.213  16.516   4.333
41777W        W13306   9.179  14.964  13.383
41778W        W13307  18.934  38.916   4.524
41779W        W13308   5.289  13.982   4.184
41780W        W13309  15.971  27.550  11.649
41781W        W13310  13.135  43.866  12.872
41782W        W13311   7.933  32.588  14.338
41783W        W13312  36.374  25.234  11.565
41784W        W13313  14.377  17.606   0.324
41785W        W13314  27.206  44.545   3.813
41786W        W13315   6.927  34.375  12.039
41787W        W13316  18.463  11.263  11.170
41788W        W13317  29.663   8.386   4.750
41789W        W13318  15.275  10.195   3.177
41790W        W13319  36.431  10.413   2.675
41791W        W13320  32.530  26.512   3.388
41792W        W13321  19.258  11.217  10.745
41793W        W13322   4.714  32.474  11.902
41794W        W13323  22.930  15.017   4.123
41795W        W13324  26.512  34.123   2.630
41796W        W13325  11.461  34.313   3.300
41797W        W13326   5.259   3.351  11.645
41798W        W13327  26.911  24.073   2.580
41799W        W13328  20.326  14.698   1.687
41800W        W13329  44.840  16.692   1.553
41801W        W13330  28.629  29.925  13.864
41802W        W13331  16.747   9.319  11.579
41803W        W13332  18.505  17.125  12.347
41804W        W13333   8.423  20.802   3.197
41805W        W13334  27.707   0.428  11.936
41806W        W13335  12.832  17.761  13.356
41807W        W13336  14.789   6.353  11.622
41808W        W13337  37.444   5.654   3.675
41809W        W13338  14.898  38.292   4.887
41810W        W13339  43.663   6.350   3.179
41811W        W13340  21.463  17.226   0.770
41812W        W13341  26.647  30.960   1.417
41813W        W13342  32.104  36.945  14.776
41814W        W13343  44.150   6.287   5.126
41815W        W13344  19.690   8.995   0.857
41816W        W13345   5.905  14.715  13.503
41817W        W13346   4.757  36.751   2.621
41818W        W13347  18.764  31.780   1.462
41819W        W13348  43.768  40.034   1.891
41820W        W13349  26.444  28.378   4.070
41821W        W13350   9.215  14.050   2.803
41822W        W13351  18.300  23.835  13.388
41823W        W13352  21.546  34.002  10.976
41824W        W13353  25.091  33.658  12.127
41825W        W13354  29.719  10.088   4.151
41826W        W13355  26.117  40.831   4.524
41827W        W13356  32.240  32.962   2.262
41828W        W13357  14.825  37.107  11.374
41829W        W13358  12.493  16.165   3.582
41830W        W13359  12.614  13.917   2.613
41831W        W13360  18.916  32.966  13.089
41832W        W13361  29.111  32.376  14.357
41833W        W13362  37.628  16.814  13.974
41834W        W13363  30.471  24.221  14.054
41835W        W13364  24.429   1.785   3.623
41836W        W13365  43.306  22.143   4.607
41837W        W13366  39.903  18.297  11.573
41838W        W13367  17.721  21.224  12.847
41839W        W13368   1.932  39.264  13.547
41840W        W13369  11.296   6.578  11.408
41841W        W13370   9.759  34.080   0.727
41842W        W13371  17.293  24.094   3.213
41843W        W13372  24.644   3.214   2.665
41844W        W13373  13.618  21.057   3.308
41845W        W13374  30.604   7.271  11.535
41846W        W13375  18.279   8.502  12.493
41847W        W13376  36.540  15.207  10.836
41848W        W13377   2.942  25.607  10.601
41849W        W13378  33.563  34.006  11.347
41850W        W13379  40.971  15.553  10.472
41851W        W13380  29.890  27.659  13.073
41852W        W13381  29.681  41.605   4.524
41853W        W13382  32.385  26.226   1.357
41854W        W13383   6.273  36.102   3.457
41855W        W13384   5.889  17.505  13.840
41856W        W13385  25.139  18.694   0.555
41857W        W13386  23.795  30.128   0.456
41858W        W13387  40.301   5.652   4.582
41859W        W13388  10.397  43.532   1.841
41860W        W13389  30.213   5.038  11.722
41861W        W13390  36.086  12.722   4.036
41862W        W13391  27.214  37.527   4.044
41863W        W13392   4.202  38.958  11.530
41864W        W13393  34.367  33.831   2.635
41865W        W13394   3.798  12.029   1.093
41866W        W13395  35.458  38.420   2.742
41867W        W13396  38.484  34.482   3.880
41868W        W13397  20.306  25.727  12.905
41869W        W13398   8.301  37.998  14.748
41870W        W13399  27.180   7.674   0.058
41871W        W13400  18.210  25.699   3.664
41872W        W13401  10.761  35.287   1.558
41873W        W13402  37.553   2.164   3.925
41874W        W13403  42.422   5.772  12.477
41875W        W13404  41.064  44.801  13.543
41876W        W13405  38.970  18.190  14.836
41877W        W13406   6.279  22.118   4.814
41878W        W13407   2.527   3.308  12.537
41879W        W13408  33.586  44.394  12.858
41880W        W13409  41.289  36.634  12.055
41881W        W13410  41.269  25.956  14.337
41882W        W13411   1.959   2.516  10.967
41883W        W13412  11.792  11.787   0.997
41884W        W13413   8.293  18.171  13.554
41885W        W13414  20.321  28.430   4.128
41886W        W13415  42.970  12.136  14.838
41887W        W13416  10.739  28.479  14.805
41888W        W13417  22.730  42.049  11.019
41889W        W13418   3.754  19.497  13.226
41890W        W13419  12.536  19.250  12.321
41891W        W13420  14.077  20.786   2.623
41892W        W13421  26.475  39.547  12.886
41893W        W13422  38.480  18.355  14.783
41894W        W13423  36.816  43.300  13.296
41895W        W13424  12.278  28.821  14.348
41896W        W13425  21.731  41.597   4.656
41897W        W13426  34.091  35.759   3.855
41898W        W13427   4.206  17.814   1.945
41899W        W13428  43.669  27.268  14.807
41900W        W13429  37.116   2.520  12.810
41901W        W13430  19.314  12.289   0.815
41902W        W13431  38.249  25.899  13.876
41903W        W13432   5.668  25.081  12.821
41904W        W13433  11.356   6.643   4.300
41905W        W13434  18.142  30.922  12.983
41906W        W13435  16.776   5.826   0.303
41907W        W13436  22.550  38.280  13.586
41908W        W13437   2.275  18.764   2.741
41909W        W13438  28.101   7.376  13.682
41910W        W13439  15.248  40.345   0.839
41911W        W13440  41.425  30.711  12.085
41912W        W13441  35.302  25.597   0.399
41913W        W13442   8.755  28.243  11.572
41914W        W13443  13.823  33.897  13.446
41915W        W13444  20.272  37.401  11.050
41916W        W13445  20.253  26.955   3.112
41917W        W13446  33.055  38.306   4.547
41918W        W13447   6.146   1.646  12.456
41919W        W13448   2.737   8.109   3.399
41920W        W13449  36.526  38.756  14.550
41921W        W13450  35.304  24.077   1.485
41922W        W13451  38.527  14.269   4.974
41923W        W13452  19.731  37.721  11.528
41924W        W13453  35.449  38.997   0.750
41925W        W13454  14.897  10.387  14.276
41926W        W13455  30.294  10.376  11.423
41927W        W13456  28.097  20.776  12.969
41928W        W13457  37.427  34.790   1.860
41929W        W13458  44.492  20.691   1.827
41930W        W13459  28.476  44.931   4.076
41931W        W13460  10.434  31.099   4.925
41932W        W13461  13.126  21.271  12.566
41933W        W13462  23.571  16.867   1.419
41934W        W13463  19.962  38.279   3.508
41935W        W13464  42.841  12.549   3.716
41936W        W13465  26.475  38.257   3.851
41937W        W13466  35.050  37.405   1.511
41938W        W13467  19.642  19.107  11.176
41939W        W13468  43.145   2.492  13.520
41940W        W13469  43.211  31.050  14.367
41941W        W13470  22.197  40.566  14.493
41942W        W13471   1.221  33.430  14.890
41943W        W13472   8.417  35.680  12.825
41944W        W13473  42.727  25.688   4.158
41945W        W13474  43.954  21.341   2.829
41946W        W13475   4.476  42.408  11.156
41947W        W13476  10.491   8.989  12.875
41948W        W13477   5.241   2.510  11.581
41949W        W13478  11.844  34.347  13.459
41950W        W13479  18.488  26.984   5.006
41951W        W13480  32.587  18.704   4.629
41952W        W13481   9.605   9.185  11.892
41953W        W13482  41.020  10.170  10.993
41954W        W13483  10.318   1.444   2.780
41955W        W13484  29.808  13.470   0.850
41956W        W13485  27.750  42.763   5.301
41957W        W13486   4.455  37.834  11.231
41958W        W13487  13.415  38.314   4.149
41959W        W13488  26.521   8.929   3.703
41960W        W13489  44.503   4.016   4.899
41961W        W13490  31.457  30.983  10.793
41962W        W13491  41.476  37.580  13.977
41963W        W13492  18.030   3.997  14.833
41964W        W13493   3.372   4.679   0.325
41965W        W13494  12.626  24.093  14.360
41966W        W13495  22.142  31.002   2.248
41967W        W13496  40.415  15.403  14.281
41968W        W13497  37.048  25.586   4.046
41969W        W13498   2.999   8.603   2.106
41970W        W13499  29.641  18.256   1.699
41971W        W13500  12.038  23.573  12.052
41972W        W13501  21.175  16.322   4.079
41973W        W13502  34.232  42.386  14.979
41974W        W13503   8.388  38.587  11.336
41975W        W13504  39.940  22.621   2.199
41976W        W13505  10.825   2.376  10.371
41977W        W13506  31.472  13.311  12.429
41978W        W13507  37.799  33.097  14.649
41979W        W13508  34.919  16.853  12.507
41980W        W13509  10.786  43.622   5.000
41981W        W13510  17.540   0.717  12.814
41982W        W13511  13.619  26.891   3.336
41983W        W13512  44.026   7.433   2.298
41984W        W13513   6.264  12.689   4.564
41985W        W13514  28.691   9.653   1.257
41986W        W13515  25.744  33.258  14.212
41987W        W13516   0.870  33.591   2.311
41988W        W13517  34.896   7.142  14.838
41989W        W13518  12.400  10.971  11.439
41990W        W13519  19.415   3.813   2.783
41991W        W13520  39.116  34.886  14.828
41992W        W13521  16.064  33.497  11.011
41993W        W13522   7.461   6.608  11.055
41994W        W13523   6.900  26.919   0.737
41995W        W13524   5.008  30.596  13.305
41996W        W13525   5.485  10.691   0.854
41997W        W13526  27.301  31.790   2.661
41998W        W13527   9.460  37.005  12.355
41999W        W13528  30.047  20.765  14.579
42000W        W13529  37.561  17.800  14.860
42001W        W13530  32.373   0.434   3.394
42002W        W13531   1.192   9.154   3.423
42003W        W13532  15.579  10.465   3.976
42004W        W13533  39.060  23.382  10.683
42005W        W13534   1.881  13.892   4.810
42006W        W13535  33.094  20.189   4.326
42007W        W13536  22.667   6.459  10.766
42008W        W13537  11.642  10.321   0.407
42009W        W13538  15.627   9.417  13.577
42010W        W13539  24.163  16.227   2.351
42011W        W13540  11.212   7.115   4.115
42012W        W13541  37.311  24.492   0.940
42013W        W13542   2.127  19.927   2.232
42014W        W13543  32.630  34.579   1.953
42015W        W13544  31.662  34.614  12.610
42016W        W13545  22.721  39.036  13.163
42017W        W13546   6.892  28.423   2.826
42018W        W13547  12.604  39.828   4.159
42019W        W13548  16.098   6.771  11.233
42020W        W13549   5.037  20.451   2.322
42021W        W13550  43.399  10.551  10.760
42022W        W13551  14.805  14.378   2.167
42023W        W13552  41.250  25.535   2.286
42024W        W13553   3.550  20.749  11.998
42025W        W13554  38.886  32.489  14.453
42026W        W13555  27.517  38.565   3.319
42027W        W13556  24.851  39.505  13.032
42028W        W13557  42.442  30.086  11.963
42029W        W13558  21.234  37.170  14.053
42030W        W13559  27.904  13.516   0.898
42031W        W13560  41.576  11.316   0.906
42032W        W13561  11.732  22.388   1.997
42033W        W13562  37.466  43.686  14.584
42034W        W13563  40.056  43.024  10.596
42035W        W13564  29.138  33.974   2.671
42036W        W13565   5.351  26.627  12.349
42037W        W13566  40.385  26.541   4.025
42038W        W13567  30.168  22.156   4.865
42039W        W13568  16.671  39.225  11.028
42040W        W13569  44.716  16.321   4.686
42041W        W13570  33.879  25.858   0.579
42042W        W13571   8.416   9.616  13.317
42043W        W13572  41.090  12.805  14.408
42044W        W13573  30.895  18.700   2.424
42045W        W13574  37.561  17.088   4.079
42046W        W13575   8.660  23.692  13.816
42047W        W13576  41.351   9.825   0.970
42048W        W13577  27.501  15.843  14.987
42049W        W13578  25.441  24.007   3.555
42050W        W13579  11.689  40.475  11.118
42051W        W13580  10.262  44.206   3.595
42052W        W13581  29.107  12.724  11.396
42053W        W13582  33.831   9.980   5.058
42054W        W13583   6.275  17.147  14.486
42055W        W13584  10.728  24.192  13.588
42056W        W13585  19.568  22.534  13.548
42057W        W13586   6.541  25.367   2.696
42058W        W13587   2.176  24.018  11.216
42059W        W13588  34.509  12.640  11.919
42060W        W13589  29.073  29.325  14.358
42061W        W13590  18.092  14.741   0.764
42062W        W13591   3.789  41.651  14.417
42063W        W13592   7.815  28.577  13.535
42064W        W13593  28.119  27.199  13.748
42065W        W13594  23.586  10.201  12.180
42066W        W13595  28.616   5.388   1.198
42067W        W13596  26.392  41.391   2.801
42068W        W13597  36.462  21.078   1.019
42069W        W13598  19.058  26.542  11.553
42070W        W13599  11.413  42.383   4.931
42071W        W13600  29.691  10.700   2.780
42072W        W13601   9.367  18.062  13.159
42073W        W13602  21.781  31.993  11.406
42074W        W13603   7.872  43.884   4.329
42075W        W13604  20.040  32.847  12.452
42076W        W13605   9.401  17.165  10.077
42077W        W13606  27.531  19.225   2.243
42078W        W13607  25.947   5.347  10.559
42079W        W13608  37.490  12.904   2.151
42080W        W13609  39.902  30.402  10.752
42081W        W13610   0.257  28.090  14.004
42082W        W13611  13.792   1.904   4.107
42083W        W13612  42.466  23.605  12.465
42084W        W13613   0.736  44.704   0.714
42085W        W13614  19.505  40.376  12.536
42086W        W13615  43.259  34.896  14.432
42087W        W13616  26.627   5.350   4.423
42088W        W13617   9.382  34.038  11.459
42089W        W13618   9.707  21.265  11.038
42090W        W13619  20.853  32.176   2.381
42091W        W13620   6.395  44.327  13.363
42092W        W13621  19.257  21.848   3.724
42093W        W13622  16.415  16.538   3.826
42094W        W13623  31.660   5.733  13.463
42095W        W13624  31.721   2.269   0.534
42096W        W13625  26.280  11.412   1.830
42097W        W13626  10.724  31.814   4.081
42098W        W13627  21.115  25.261  14.284
42099W        W13628  12.086  27.160  11.965
42100W        W13629   2.435   1.328  13.847
42101W        W13630  39.592  31.551   1.876
42102W        W13631  10.716  11.269   1.860
42103W        W13632  13.782  12.646   4.675
42104W        W13633  26.745  14.403  12.356
42105W        W13634   3.314  25.806  14.365
42106W        W13635  13.088  35.948  10.339
42107W        W13636   4.203  32.564   1.721
42108W        W13637  18.101   1.457  10.885
42109W        W13638  41.499   6.845   4.077
42110W        W13639  38.409  40.475  14.906
42111W        W13640   7.351   7.006   3.737
42112W        W13641  30.136  40.749   0.919
42113W        W13642  43.701  30.861   2.211
42114W        W13643  19.928  19.286   2.695
42115W        W13644   5.336  21.950   3.591
42116W        W13645   9.772   1.423  11.312
42117W        W13646   4.973   8.538   1.322
42118W        W13647  14.517  19.030  12.898
42119W        W13648  40.991  25.512  10.759
42120W        W13649  36.303   6.907   0.799
42121W        W13650  14.734  19.509   4.578
42122W        W13651  32.015   7.195  10.913
42123W        W13652   0.987   2.328  10.512
42124W        W13653  40.355  25.481   4.192
42125W        W13654   0.951  35.068  13.057
42126W        W13655   6.805  27.098  13.070
42127W        W13656  41.963   5.538  11.202
42128W        W13657  17.469  35.071   2.671
42129W        W13658  13.743  37.953  13.362
42130W        W13659  39.393   3.396   0.277
42131W        W13660  12.664   7.970  10.721
42132W        W13661  31.272  32.512   4.091
42133W        W13662  23.042  15.789  14.258
42134W        W13663   9.884   8.413  11.649
42135W        W13664  31.406  23.594   3.469
42136W        W13665   9.820  29.429  14.727
42137W        W13666  10.387  32.453   3.631
42138W        W13667  33.578  27.616   2.760
42139W        W13668   9.963  18.619   0.844
42140W        W13669  25.466  25.991  14.326
42141W        W13670  30.087  42.931  11.481
42142W        W13671   8.499  43.260  10.903
42143W        W13672  39.384  35.143   1.180
42144W        W13673  38.534   7.149  11.011
42145W        W13674  44.488  12.217  13.861
42146W        W13675  42.813   1.334  14.280
42147W        W13676  21.271  14.009  11.508
42148W        W13677   3.899   4.638   4.529
42149W        W13678  39.743  13.250  11.550
42150W        W13679  11.311  29.518   4.484
42151W        W13680  41.505  40.894  12.233
42152W        W13681  22.598  44.883   2.654
42153W        W13682   3.047  35.873  13.737
42154W        W13683   9.639  42.923  13.516
42155W        W13684  28.819   7.744   0.864
42156W        W13685  11.078  44.372  14.538
42157W        W13686   6.461  42.690  14.976
42158W        W13687  27.560  29.927  13.948
42159W        W13688  24.700  20.538   2.233
42160W        W13689  22.120  30.589   4.827
42161W        W13690  36.877  22.733   0.517
42162W        W13691  34.222  23.371  12.412
42163W        W13692  43.922  41.270  14.354
42164W        W13693  20.776  41.396  14.919
42165W        W13694  11.257  16.579   1.757
42166W        W13695  42.286  17.541  11.109
42167W        W13696  15.056   0.305   3.153
42168W        W13697   7.819  36.634   1.899
42169W        W13698  20.917  42.909  12.577
42170W        W13699   6.204  38.387   4.565
42171W        W13700  34.269   5.833  12.352
42172W        W13701   7.646  42.528  14.447
42173W        W13702  23.542  26.013  11.106
42174W        W13703   4.493   3.395   3.540
42175W        W13704  44.189   9.072  10.402
42176W        W13705  34.271  41.509   0.398
42177W        W13706  43.863  42.965   2.705
42178W        W13707   3.426  27.163   3.656
42179W        W13708  25.817   9.219  12.048
42180W        W13709  25.824  21.362   4.147
42181W        W13710  17.664  22.543   3.159
42182W        W13711   4.969   6.719  12.323
42183W        W13712  25.264  35.108  12.119
42184W        W13713   0.451  29.108   0.327
42185W        W13714  34.845  11.354  10.654
42186W        W13715  40.730  35.983   4.251
42187W        W13716  17.293   5.557  12.516
42188W        W13717  30.014   2.375  13.449
42189W        W13718  22.662  37.977  14.913
42190W        W13719  28.044  10.072   5.008
42191W        W13720  28.161  32.115  12.682
42192W        W13721  17.146  22.136   2.159
42193W        W13722   3.256  28.534  14.781
42194W        W13723  28.246  27.480   3.809
42195W        W13724   9.055  28.268  11.081
42196W        W13725  39.168   1.535  11.547
42197W        W13726  40.475  32.688  11.390
42198W        W13727  37.451   9.857   0.073
42199W        W13728  37.508  33.490   2.614
42200W        W13729  19.138  37.340  10.071
42201W        W13730   1.356   0.466  14.807
42202W        W13731  31.390  25.240  10.759
42203W        W13732  43.746  18.128   4.198
42204W        W13733  18.412  31.061  10.174
42205W        W13734  24.983  11.892   3.095
42206W        W13735  25.032   1.791   0.272
42207W        W13736   3.478  24.604  11.584
42208W        W13737  13.750  22.626  14.353
42209W        W13738  42.487  18.597   1.460
42210W        W13739  10.462  34.149   3.200
42211W        W13740  26.686   5.377  11.863
42212W        W13741  20.259  12.183  11.175
42213W        W13742   1.776  41.820  14.264
42214W        W13743   1.892  19.726   3.199
42215W        W13744  42.168  21.779  13.173
42216W        W13745   4.744  30.104   2.427
42217W        W13746  21.754   2.226  11.992
42218W        W13747  35.126  14.595  12.874
42219W        W13748  42.364  44.354   3.070
42220W        W13749  12.724  38.261   0.152
42221W        W13750  12.771  24.052   2.767
42222W        W13751  41.679   9.087   0.690
42223W        W13752  18.565  25.587  14.411
42224W        W13753   1.404  27.818   3.788
42225W        W13754  28.169  43.977  11.106
42226W        W13755  37.609   3.420   2.696
42227W        W13756  38.929  37.821   0.456
42228W        W13757  38.951  27.056   2.226
42229W        W13758   6.661  42.629  11.049
42230W        W13759   6.798  41.083   4.383
42231W        W13760   0.043  11.769   1.676
42232W        W13761   5.775  36.148  13.085
42233W        W13762  29.728  41.077   0.835
42234W        W13763  38.955   7.116  13.502
42235W        W13764  40.748  28.533  14.868
42236W        W13765  20.796  29.614   0.746
42237W        W13766  11.650   7.681  14.757
42238W        W13767  16.605   5.937   2.848
42239W        W13768  28.156  12.431  14.470
42240W        W13769  38.324   1.097  12.421
42241W        W13770  23.244  39.288  14.800
42242W        W13771  16.039  27.945  11.025
42243W        W13772  27.215   0.237   2.482
42244W        W13773  30.997   4.999  13.577
42245W        W13774  16.725   5.243   4.687
42246W        W13775  26.126  31.954  10.693
42247W        W13776   2.350  21.256  14.329
42248W        W13777   9.622  21.135  10.101
42249W        W13778  36.104   6.040   3.218
42250W        W13779  43.951   2.594  14.297
42251W        W13780  30.051  16.313  11.925
42252W        W13781  15.223  29.723   0.332
42253W        W13782  32.738  38.239  14.303
42254W        W13783  29.904   8.667   1.455
42255W        W13784   0.230  31.007  14.411
42256W        W13785  12.157  39.789   2.932
42257W        W13786  40.832  28.491   3.718
42258W        W13787   4.464   0.710   0.980
42259W        W13788  36.020  39.559  10.700
42260W        W13789   8.564  33.422   2.251
42261W        W13790  37.502  27.556   0.336
42262W        W13791  41.294  28.043   1.402
42263W        W13792  34.001  38.410   0.883
42264W        W13793  29.529   4.827  13.547
42265W        W13794   3.129   1.509   2.656
42266W        W13795   8.491   6.294  12.503
42267W        W13796  10.095  27.230   3.379
42268W        W13797   8.776  17.329  14.774
42269W        W13798  18.123  43.448  11.080
42270W        W13799  26.730  20.952  13.981
42271W        W13800  38.561   3.437  12.956
42272W        W13801  30.776   4.468   1.294
42273W        W13802  38.955  38.019  10.828
42274W        W13803  43.332  13.702  12.586
42275W        W13804  14.749  44.767   1.240
42276W        W13805   9.068  39.730   3.398
42277W        W13806  17.031   9.747  13.997
42278W        W13807   9.178  29.578  10.291
42279W        W13808  26.998   4.263   2.098
42280W        W13809  10.202   3.401   2.901
42281W        W13810  11.855  21.093   4.299
42282W        W13811  29.970  14.541   1.340
42283W        W13812  35.406   8.951  14.775
42284W        W13813  18.191  22.977  13.004
42285W        W13814   9.879   3.289  13.736
42286W        W13815   2.515  24.032   3.129
42287W        W13816  15.372  29.177   3.167
42288W        W13817   3.467   9.986  12.974
42289W        W13818  24.547  21.215   0.526
42290W        W13819  17.815  31.268   4.658
42291W        W13820  36.610   1.981  14.214
42292W        W13821  43.883  13.376   0.441
42293W        W13822  34.447  13.153  11.805
42294W        W13823  44.722  21.705  13.925
42295W        W13824  42.941  43.329  12.245
42296W        W13825  18.167  13.767  11.146
42297W        W13826  35.179  34.904  14.798
42298W        W13827  36.590  17.763   3.702
42299W        W13828  43.349  28.022   0.734
42300W        W13829  19.132  34.459  10.792
42301W        W13830  35.657  36.129   0.809
42302W        W13831  42.869   7.396   3.734
42303W        W13832  22.429  13.336  12.219
42304W        W13833   0.314  12.621   2.268
42305W        W13834   0.481  31.671   4.681
42306W        W13835  30.889  44.201   1.274
42307W        W13836  21.604   6.268   3.612
42308W        W13837  25.848  17.839   2.714
42309W        W13838  36.681   0.798   1.749
42310W        W13839   4.296  38.323  11.041
42311W        W13840  36.474   1.692   4.038
42312W        W13841  24.568  26.605  14.273
42313W        W13842  24.959  39.798  11.868
42314W        W13843  24.462  16.571   1.436
42315W        W13844  38.982  22.460   2.230
42316W        W13845  42.419  38.039   0.388
42317W        W13846  13.602  28.720   0.420
42318W        W13847  24.580  29.171   1.936
42319W        W13848  42.734  41.418   0.254
42320W        W13849  30.846   1.505   0.345
42321W        W13850   2.809  38.160   1.742
42322W        W13851   8.347  44.366   0.298
42323W        W13852  35.187   1.821   4.702
42324W        W13853  31.897   1.463   3.263
42325W        W13854  11.067  20.512  14.885
42326W        W13855   8.800  37.476   2.374
42327W        W13856  10.211  41.507   0.436
42328W        W13857  34.493  16.968  11.533
42329W        W13858  30.347  35.900   3.737
42330W        W13859  35.497  39.421  14.522
42331W        W13860   7.432   9.980  12.230
42332W        W13861  32.179  40.907   3.660
42333W        W13862   3.151  39.908  14.850
42334W        W13863  33.623  34.538   3.500
42335W        W13864  10.734  10.768   3.623
42336W        W13865  25.875  19.702   4.691
42337W        W13866  37.550  17.029   0.359
42338W        W13867  36.598  18.338   3.073
42339W        W13868  32.264   0.919   4.859
42340W        W13869  42.557  19.026  14.291
42341W        W13870  32.587  10.794  13.121
42342W        W13871  31.537  13.820  14.307
42343W        W13872   4.408   4.207   2.405
42344W        W13873  21.217  37.404  11.984
42345W        W13874  19.165  34.864   4.157
42346W        W13875  24.755  18.796  11.089
42347W        W13876  40.892   4.406   3.010
42348W        W13877   4.076  26.538  14.442
42349W        W13878  23.613   0.029  11.126
42350W        W13879  38.551  39.116   2.710
42351W        W13880  42.695  16.067   0.154
42352W        W13881   1.975  24.741  14.970
42353W        W13882  42.037  23.083  14.923
42354W        W13883  30.271  19.352  14.472
42355W        W13884  14.363   6.273  12.938
42356W        W13885  44.756  40.420   3.398
42357W        W13886   1.371  39.785   1.369
42358W        W13887   9.338   6.782   0.318
42359W        W13888  31.511  41.816   4.875
42360W        W13889  44.290  40.001   1.725
42361W        W13890   8.195  24.285  12.088
42362W        W13891   8.150  30.412  12.423
42363W        W13892  38.312  34.619   2.833
42364W        W13893  19.105  28.721   2.149
42365W        W13894   3.272   3.067   4.245
42366W        W13895  36.353  19.623  10.541
42367W        W13896  28.233  21.543  12.418
42368W        W13897  28.463  25.538  11.136
42369W        W13898  40.409   1.253  11.946
42370W        W13899   2.716  37.060   3.627
42371W        W13900   0.509  11.172  11.555
42372W        W13901  27.692  14.810   1.895
42373W        W13902  16.585  26.204   4.116
42374W        W13903  34.966  34.425   3.679
42375W        W13904  10.663  33.714   0.983
42376W        W13905   2.737  21.133  11.939
42377W        W13906  21.122  22.158  11.688
42378W        W13907  13.390  36.878  11.136
42379W        W13908  16.484   7.082   0.817
42380W        W13909  16.135  20.991  11.990
42381W        W13910   4.288  31.942  11.129
42382W        W13911  36.103  14.617   4.378
42383W        W13912  15.863  19.571   2.982
42384W        W13913   5.876  36.613  13.334
42385W        W13914   8.818   4.201  12.813
42386W        W13915   0.775  19.820   2.502
42387W        W13916  26.518   0.661  12.342
42388W        W13917  29.494  16.639  12.478
42389W        W13918   2.343  37.348  11.599
42390W        W13919   8.829  23.546  14.935
42391W        W13920  33.867  13.734  13.661
42392W        W13921  39.969  40.125   3.279
42393W        W13922   8.371  32.695  12.157
42394W        W13923  38.869   1.851   4.217
42395W        W13924   5.576  10.884  12.680
42396W        W13925   3.648  35.187   4.560
42397W        W13926  33.148  27.172   4.532
42398W        W13927  31.395  30.429  12.086
42399W        W13928  23.819  37.463   2.657
42400W        W13929  19.706  26.968  12.621
42401W        W13930  40.856   1.017   3.938
42402W        W13931  12.823  35.423   0.562
42403W        W13932  22.736  43.259   1.773
42404W        W13933  39.610  37.018  12.958
42405W        W13934  10.860  29.502  11.957
42406W        W13935  43.157   5.130   1.381
42407W        W13936  12.206  10.868   4.171
42408W        W13937  36.961   4.318  13.879
42409W        W13938  14.270  13.873   1.804
42410W        W13939  42.430  37.888  13.968
42411W        W13940  21.153  22.735   0.410
42412W        W13941  29.694  37.072   0.680
42413W        W13942   0.941  32.378   1.860
42414W        W13943  24.589  36.446   1.251
42415W        W13944  23.649   6.694  11.685
42416W        W13945  19.632  37.131  12.971
42417W        W13946   5.009  29.093  11.536
42418W        W13947  31.987  13.351   4.193
42419W        W13948  18.662   1.924   0.194
42420W        W13949  22.637  23.164  14.018
42421W        W13950  23.526  38.361   1.149
42422W        W13951  22.181  31.162  11.085
42423W        W13952   8.115  28.858   0.682
42424W        W13953  27.169   8.326  11.544
42425W        W13954  16.166  30.632  11.232
42426W        W13955   7.189  44.832   2.931
42427W        W13956  40.520   4.457  11.535
42428W        W13957  34.034   1.694   4.274
42429W        W13958  10.164   2.624  10.381
42430W        W13959  36.622  43.828  12.898
42431W        W13960  28.875  21.936  14.311
42432W        W13961  21.234  30.615  11.539
42433W        W13962  17.399  41.760   5.303
42434W        W13963   0.538  39.072   0.760
42435W        W13964   1.449  36.897   4.978
42436W        W13965  14.552   6.262  11.175
42437W        W13966  23.142  18.603  10.731
42438W        W13967  33.887  15.512  14.841
42439W        W13968  12.348  27.537  12.184
42440W        W13969  42.299  27.718  12.490
42441W        W13970  36.160   4.825   0.702
42442W        W13971  31.415  33.209  12.374
42443W        W13972  26.977  40.426   4.235
42444W        W13973  15.751  24.359  10.603
42445W        W13974   9.767  28.495   4.043
42446W        W13975  27.596  16.390   0.379
42447W        W13976  23.188  38.914  10.656
42448W        W13977  37.956  42.265  10.689
42449W        W13978  35.540   7.247   1.900
42450W        W13979   8.322   5.266  14.045
42451W        W13980   6.390  23.242  14.923
42452W        W13981  42.725  30.832  14.783
42453W        W13982  17.220   4.487   4.637
42454W        W13983  41.007  13.347   0.029
42455W        W13984   9.987  23.162  13.881
42456W        W13985  31.531   2.414  10.778
42457W        W13986  11.097  11.237  11.216
42458W        W13987  12.673  11.271  12.551
42459W        W13988  17.679  12.147   1.194
42460W        W13989  37.442  27.670   4.730
42461W        W13990  10.840  43.202  12.047
42462W        W13991  21.496   1.867   3.273
42463W        W13992  16.745   1.289  13.601
42464W        W13993  16.104  16.860  13.000
42465W        W13994  22.200  22.031  10.839
42466W        W13995   2.328  10.193   2.904
42467W        W13996  12.062   5.431   1.882
42468W        W13997  38.807  40.985   0.345
42469W        W13998  18.654   8.069  13.545
42470W        W13999   2.463  25.788  13.484
42471W        W14000  14.706  38.424  12.337
42472W        W14001  13.663  19.968   1.292
42473W        W14002  38.781  36.986   3.257
42474W        W14003  25.140  15.895   2.893
42475W        W14004   8.461  37.767   1.629
42476W        W14005   9.808  14.008  13.752
42477W        W14006  42.466  40.967   3.913
42478W        W14007  21.991  13.218  11.562
42479W        W14008  36.860  33.870  14.496
42480W        W14009  29.124   0.724   0.762
42481W        W14010  40.050  23.978   4.330
42482W        W14011  42.449  13.833  10.641
42483W        W14012   8.967  42.611  10.254
42484W        W14013  42.460  13.620   0.282
42485W        W14014  25.945  28.546   3.371
42486W        W14015  32.430  38.022   2.776
42487W        W14016  16.011  27.758   2.811
42488W        W14017  29.593  21.058  11.562
42489W        W14018   3.846  43.382   4.106
42490W        W14019  44.841  24.045   0.477
42491W        W14020   9.202  24.121   0.341
42492W        W14021  15.162  16.710  13.000
42493W        W14022  19.494  22.316  13.064
42494W        W14023  14.988  21.629  10.575
42495W        W14024  29.863  11.967   4.260
42496W        W14025   6.177   8.413  10.784
42497W        W14026  26.929  18.657  12.131
42498W        W14027  36.917  20.278   3.992
42499W        W14028   0.408   2.463   2.790
42500W        W14029   3.248  18.012   0.532
42501W        W14030  32.102  29.479   0.418
42502W        W14031  24.420  13.082   2.797
42503W        W14032  15.776  16.421  14.906
42504W        W14033  38.673  31.392   2.163
42505W        W14034   3.159  33.894  13.847
42506W        W14035  10.668  33.593  13.518
42507W        W14036   3.933  38.554  13.289
42508W        W14037  43.901  34.833  12.541
42509W        W14038  38.001   0.519  14.010
42510W        W14039  12.373  33.008  10.735
42511W        W14040  12.382  44.965  14.594
42512W        W14041  27.893  29.017  14.894
42513W        W14042  39.042  14.690  13.458
42514W        W14043  18.975  35.952   4.188
42515W        W14044  29.729   0.294  13.618
42516W        W14045  44.748  43.014  10.719
42517W        W14046  41.349  36.543   3.696
42518W        W14047  36.113  21.978   2.810
42519W        W14048   0.010  24.217   2.687
42520W        W14049   0.519  21.178   4.172
42521W        W14050  35.890  25.560   3.231
42522W        W14051   3.961  20.721  13.806
42523W        W14052   7.292  29.446   4.718
42524W        W14053  10.243  35.909  12.876
42525W        W14054  23.640  41.529   4.667
42526W        W14055  17.608  20.118   1.831
42527W        W14056  38.241  30.622   3.755
42528W        W14057  14.371  39.688  12.432
42529W        W14058   8.456  10.201  14.946
42530W        W14059   8.847  42.967   5.080
42531W        W14060   3.232   6.726  13.231
42532W        W14061  26.616  19.075   2.142
42533W        W14062  14.302   9.639   0.019
42534W        W14063  41.874  27.924  10.238
42535W        W14064   3.618  11.886   3.114
42536W        W14065  44.553  26.173  14.371
42537W        W14066   6.873  26.199  11.594
42538W        W14067  31.086  23.222  11.155
42539W        W14068  18.979  10.427  14.850
42540W        W14069  41.358  44.294   0.657
42541W        W14070  36.962   5.412   3.594
42542W        W14071  29.468  41.772  11.146
42543W        W14072   6.901  42.335  10.632
42544W        W14073  23.812  40.467  14.812
42545W        W14074  38.084  30.037   3.762
42546W        W14075  17.309   1.374   2.648
42547W        W14076  29.061  34.673   1.726
42548W        W14077  18.580  27.077  10.999
42549W        W14078  26.683  43.819  14.488
42550W        W14079  32.652  21.289  14.766
42551W        W14080  26.535  42.627   3.609
42552W        W14081  22.541  18.634  14.885
42553W        W14082  13.383  14.848  14.717
42554W        W14083   7.083  16.328   1.252
42555W        W14084  41.385  13.207   1.678
42556W        W14085   3.732   6.802  13.282
42557W        W14086  23.086  32.598  14.849
42558W        W14087  37.925  41.262  12.653
42559W        W14088  17.653  20.876   2.111
42560W        W14089   5.492  37.477  13.126
42561W        W14090   8.755  12.554  11.145
42562W        W14091  12.770  36.170  14.367
42563W        W14092  13.368  37.260  13.833
42564W        W14093  24.184  38.461   4.856
42565W        W14094  43.302  13.249  14.382
42566W        W14095   4.785  41.497   3.249
42567W        W14096  26.028   3.379  13.388
42568W        W14097   0.408   4.735   3.474
42569W        W14098   6.145  39.144   5.058
42570W        W14099  42.379   9.300  11.894
42571W        W14100  30.045  22.901   4.214
42572W        W14101  21.552  31.738   2.070
42573W        W14102  16.995  30.213  11.635
42574W        W14103  12.372  17.016   3.213
42575W        W14104  32.422  29.834  12.448
42576W        W14105  32.634  44.281   1.832
42577W        W14106  27.373  27.557   4.235
42578W        W14107   0.237  36.183   3.245
42579W        W14108  11.546  13.119  14.402
42580W        W14109  19.557   5.841   0.797
42581W        W14110  28.504  14.978  11.976
42582W        W14111  38.230  36.570  11.971
42583W        W14112  42.004  39.444   3.070
42584W        W14113  22.697  34.660   1.766
42585W        W14114  10.876  23.701  13.387
42586W        W14115  13.802  23.245  12.178
42587W        W14116  27.393   8.091  11.934
42588W        W14117  25.909  13.249  14.826
42589W        W14118  25.799  15.342  11.781
42590W        W14119  41.508  39.049  10.632
42591W        W14120  19.796  16.868  12.528
42592W        W14121  40.928  12.177   0.064
42593W        W14122  23.858  37.316  13.029
42594W        W14123  13.143  25.179  14.974
42595W        W14124  36.781  32.127  14.095
42596W        W14125   6.228  21.985  11.054
42597W        W14126  19.269  36.913   2.188
42598W        W14127   9.719  30.566   0.724
42599W        W14128  13.306  29.945  12.187
42600W        W14129  29.198  25.215   3.230
42601W        W14130  32.385   1.409   1.929
42602W        W14131   7.840  19.695   4.601
42603W        W14132  11.307  37.962   3.130
42604W        W14133  31.701   2.749   3.691
42605W        W14134  21.422  42.828  10.076
42606W        W14135   4.162  28.684  11.194
42607W        W14136  23.395   3.862  12.438
42608W        W14137  26.287  41.680  12.064
42609W        W14138   1.033  34.688  11.686
42610W        W14139  43.472  25.728   3.389
42611W        W14140  18.172  38.475   0.175
42612W        W14141  28.150  32.092   3.110
42613W        W14142   4.898  24.859   1.762
42614W        W14143   3.299  33.591   1.202
42615W        W14144  37.034  15.591   2.749
42616W        W14145  43.941   9.855   3.860
42617W        W14146   1.650  15.719   3.173
42618W        W14147  32.578  25.056   2.470
42619W        W14148  14.308  30.662  14.438
42620W        W14149  31.869  43.320  11.114
42621W        W14150  25.601  29.458  11.976
42622W        W14151  17.108  19.052  11.130
42623W        W14152  31.164  38.429   2.931
42624W        W14153  42.851  37.142  10.699
42625W        W14154  20.897  19.567  14.720
42626W        W14155  17.156  25.228   5.108
42627W        W14156   7.653  36.289   4.255
42628W        W14157  39.993  24.721  13.888
42629W        W14158  38.002  14.752  11.607
42630W        W14159  14.887  34.027   1.785
42631W        W14160  15.830   1.317   3.573
42632W        W14161   7.458   2.825  11.382
42633W        W14162  21.993   3.816   0.759
42634W        W14163  26.472  29.479  12.367
42635W        W14164  30.154  25.575   4.399
42636W        W14165  24.821  32.436   0.758
42637W        W14166  37.380  12.858  14.951
42638W        W14167  44.873  27.509   2.677
42639W        W14168  35.628  32.463  12.011
42640W        W14169  44.441  37.850   4.646
42641W        W14170  28.461  34.839  12.822
42642W        W14171  35.607   7.966  12.530
42643W        W14172  24.975   1.401  14.431
42644W        W14173   6.105   0.905   2.397
42645W        W14174   8.626   1.260  14.499
42646W        W14175  21.796  18.337  13.599
42647W        W14176   3.310  21.946  12.591
42648W        W14177  32.568  32.482   4.185
42649W        W14178   5.811  30.369   3.261
42650W        W14179  13.232  29.577  11.165
42651W        W14180  19.221  14.326   0.642
42652W        W14181  10.828   5.188  14.502
42653W        W14182  12.478  13.118   2.794
42654W        W14183  27.021  23.169  14.428
42655W        W14184   4.055   0.623  13.064
42656W        W14185  30.546  25.908  11.149
42657W        W14186   2.847  29.025  13.282
42658W        W14187   6.502  38.078   1.254
42659W        W14188   4.207  30.524  14.492
42660W        W14189  37.743  43.336   2.682
42661W        W14190   7.743  19.306   2.708
42662W        W14191  28.581  32.351   3.226
42663W        W14192  16.714  11.757   3.704
42664W        W14193  24.713   0.409   2.361
42665W        W14194  14.337  30.436   4.896
42666W        W14195  13.827  44.583   4.008
42667W        W14196   2.876  16.238  12.378
42668W        W14197  24.644   8.186  14.399
42669W        W14198  15.536  35.092   4.716
42670W        W14199  21.732   9.262   0.145
42671W        W14200   9.722  24.066  14.954
42672W        W14201  35.548  35.648  13.878
42673W        W14202  32.574  15.082   3.854
42674W        W14203  21.528  16.670  13.872
42675W        W14204  24.462  17.511  14.481
42676W        W14205  36.028  32.226  14.872
42677W        W14206  17.450  32.590  11.042
42678W        W14207  40.695  11.890  11.172
42679W        W14208  10.746  44.018  12.571
42680W        W14209  28.947  25.844   0.209
42681W        W14210  21.616   6.972   4.113
42682W        W14211   3.793  11.828   2.622
42683W        W14212  27.266  39.250  12.483
42684W        W14213   4.123  13.367  11.161
42685W        W14214  38.251  38.807  11.157
42686W        W14215  37.969  32.894   0.093
42687W        W14216  36.314  43.757   3.517
42688W        W14217  24.670   3.929   1.897
42689W        W14218  34.409  31.140  12.685
42690W        W14219  14.378  28.491  10.467
42691W        W14220  29.471  40.686   2.789
42692W        W14221   6.210  31.637  11.618
42693W        W14222  10.850  33.102  11.067
42694W        W14223  42.346  19.226  12.800
42695W        W14224   0.035  29.635  11.033
42696W        W14225  15.211   1.400  13.887
42697W        W14226  12.266  12.035  11.288
42698W        W14227  23.398   9.640   3.655
42699W        W14228  34.377  43.942  12.584
42700W        W14229  26.039   5.363  14.302
42701W        W14230   1.649  36.549   4.163
42702W        W14231  25.716  12.324   0.803
42703W        W14232  24.117  22.972   1.717
42704W        W14233  33.785   9.222   0.314
42705W        W14234  33.858  39.118  14.948
42706W        W14235  36.868  19.310  11.222
42707W        W14236  22.025  37.143   3.876
42708W        W14237  27.740  24.496   2.329
42709W        W14238  34.145  20.732   3.800
42710W        W14239  26.914   1.275  14.448
42711W        W14240  11.727   1.975   2.358
42712W        W14241  29.412  37.022   2.338
42713W        W14242  14.156  43.272  14.977
42714W        W14243   0.233  24.662  12.080
42715W        W14244  30.939  44.236   2.196
42716W        W14245  12.007  20.748   0.027
42717W        W14246   5.814  20.325   1.208
42718W        W14247  33.133  13.996  13.323
42719W        W14248  42.487  25.123  13.593
42720W        W14249  24.962  41.070  13.830
42721W        W14250   1.801  41.070  11.633
42722W        W14251   8.575  14.400   0.591
42723W        W14252  28.008  14.040  12.143
42724W        W14253  27.000  12.082   3.033
42725W        W14254  29.222  37.621   3.103
42726W        W14255   6.768  29.607   3.618
42727W        W14256  40.110  44.222  10.703
42728W        W14257  39.673  41.951   2.343
42729W        W14258   5.903  28.132   0.041
42730W        W14259   7.412  40.007   3.357
42731W        W14260   0.691  29.501   2.355
42732W        W14261   0.174  21.622  11.449
42733W        W14262   3.705  37.726   4.092
42734W        W14263  11.657   3.183  12.618
42735W        W14264  21.011  39.092  14.861
42736W        W14265  15.970  14.964   1.613
42737W        W14266  13.956  25.732   4.348
42738W        W14267  18.691  20.022  13.477
42739W        W14268  10.824  43.118   5.093
42740W        W14269   0.040   3.934   0.353
42741W        W14270  17.126  38.900   0.883
42742W        W14271  23.257  21.511   4.700
42743W        W14272   8.408  28.921   4.164
42744W        W14273   1.127  23.615   2.256
42745W        W14274  42.454  35.611   4.664
42746W        W14275   6.376  29.273   1.316
42747W        W14276  25.779  23.008  11.000
42748W        W14277   6.722  11.597  14.090
42749W        W14278  18.872   4.590  14.287
42750W        W14279  16.576  17.277   3.549
42751W        W14280  41.521   5.182   4.135
42752W        W14281  42.355  42.088   4.001
42753W        W14282  26.136  24.184   3.159
42754W        W14283  30.319  19.720  11.348
42755W        W14284  38.951  11.126  10.612
42756W        W14285  22.076  35.257  11.984
42757W        W14286   0.262  43.847  11.801
42758W        W14287  43.432   2.813   4.101
42759W        W14288  17.608   0.316  11.989
42760W        W14289  27.613  33.875   3.031
42761W        W14290   9.777  16.374  10.688
42762W        W14291  44.757   6.182  14.806
42763W        W14292  29.137   5.720  14.633
42764W        W14293  17.226  19.988  12.069
42765W        W14294  17.046  29.616   1.582
42766W        W14295  18.429  20.677   2.785
42767W        W14296  43.814   3.071   1.729
42768W        W14297  24.757  24.046  13.809
42769W        W14298  17.304   5.809   0.337
42770W        W14299  15.026  11.158   4.112
42771W        W14300   5.018  26.750  14.395
42772W        W14301  17.417  15.192   2.751
42773W        W14302  44.084   9.869   2.083
42774W        W14303  31.550   9.767   0.357
42775W        W14304   5.717   0.728   4.796
42776W        W14305   1.737  11.107   3.419
42777W        W14306  25.249  24.674   2.662
42778W        W14307  21.437  21.440  11.742
42779W        W14308  20.280  13.305   2.540
42780W        W14309   7.960  10.723   3.654
42781W        W14310  41.138  40.578  14.597
42782W        W14311   2.200  16.811  13.489
42783W        W14312  43.375   6.210  13.019
42784W        W14313  30.945  20.251   4.062
42785W        W14314   8.234   5.398   3.451
42786W        W14315  26.767  40.608   3.754
42787W        W14316   8.815  14.854   0.876
42788W        W14317  19.949  26.444   1.838
42789W        W14318  43.863   8.590  12.063
42790W        W14319  16.666  24.233   1.431
42791W        W14320  32.145  23.737  11.035
42792W        W14321   4.348  30.938   2.869
42793W        W14322  15.859  44.341  10.710
42794W        W14323   0.676  16.835  14.393
42795W        W14324  42.307  27.086   4.488
42796W        W14325  44.505  36.508   1.429
42797W        W14326  26.147  40.282   0.406
42798W        W14327  21.181   5.884   2.855
42799W        W14328  29.492  12.641  13.029
42800W        W14329   4.462  19.262  12.458
42801W        W14330  17.994  34.634  13.939
42802W        W14331  17.726  24.528  12.110
42803W        W14332  20.847  35.068   3.064
42804W        W14333   2.336  16.125  14.787
42805W        W14334  23.757  15.216  13.478
42806W        W14335  13.228   0.392  11.573
42807W        W14336  22.157  22.038  11.384
42808W        W14337  23.459  11.806   4.277
42809W        W14338   4.857  39.838  12.584
42810W        W14339   4.045  24.985   1.485
42811W        W14340   7.381  17.647   2.429
42812W        W14341  24.021  32.532  11.061
42813W        W14342  12.778  39.808  11.938
42814W        W14343  41.519   8.312   3.536
42815W        W14344  44.268  31.982   0.732
42816W        W14345  14.187  16.606  12.990
42817W        W14346  25.064  20.279   1.024
42818W        W14347  14.348   5.237  14.063
42819W        W14348  30.417  35.626   1.652
42820W        W14349   2.397  14.284  11.278
42821W        W14350  17.327  41.447  14.850
42822W        W14351  26.658  39.960   2.068
42823W        W14352  38.757  43.757   1.447
42824W        W14353  41.760  28.625  13.624
42825W        W14354  37.944  24.132  12.590
42826W        W14355  18.095   5.963  11.554
42827W        W14356   8.170  34.613   4.584
42828W        W14357   9.349   6.350  10.736
42829W        W14358  15.714  37.038  11.280
42830W        W14359   0.430  25.648  11.860
42831W        W14360   3.375  30.085  12.871
42832W        W14361  18.792  19.245   0.259
42833W        W14362  23.792  44.829  12.364
42834W        W14363  44.578  15.790   4.631
42835W        W14364  11.906   6.427   0.986
42836W        W14365   5.492  28.582   1.699
42837W        W14366  29.757  13.552   1.382
42838W        W14367   8.936  16.201   3.135
42839W        W14368  10.200  22.479  12.308
42840W        W14369  34.986   3.742   0.899
42841W        W14370  35.986   0.822  13.365
42842W        W14371  28.551  43.904   3.570
42843W        W14372   1.462  27.253   4.550
42844W        W14373  23.587  14.136   4.595
42845W        W14374  23.251  18.020   4.109
42846W        W14375  18.290  33.437   4.111
42847W        W14376   3.038  13.544   2.165
42848W        W14377  13.063  31.496  10.704
42849W        W14378  11.515  19.034  11.210
42850W        W14379  16.151   6.280   2.226
42851W        W14380   4.961  26.212  10.779
42852W        W14381  32.686  40.301  11.077
42853W        W14382  40.351  12.637  11.708
42854W        W14383  17.610  28.454   0.802
42855W        W14384  41.657  19.897   0.180
42856W        W14385  32.121  30.176   4.583
42857W        W14386   0.641  35.334   4.130
42858W        W14387  29.138   1.370   1.231
42859W        W14388  12.760  17.541  14.909
42860W        W14389  32.393  11.475  11.557
42861W        W14390  39.299   5.720   2.396
42862W        W14391  33.228  17.238  12.344
42863W        W14392  39.109   4.659  12.387
42864W        W14393   0.492   1.954  14.747
42865W        W14394  32.193  13.303   1.803
42866W        W14395  38.209  40.600  11.908
42867W        W14396  24.707   5.725  12.972
42868W        W14397  23.172  26.647  12.147
42869W        W14398  31.925  27.485   4.192
42870W        W14399  40.993  28.434  11.404
42871W        W14400   9.816  41.332   0.708
42872W        W14401  38.314  31.434  12.021
42873W        W14402  38.467   6.780  14.295
42874W        W14403  30.241  43.240   0.325
42875W        W14404  32.609  36.849  12.368
42876W        W14405   1.930   3.482   3.117
42877W        W14406  16.087  19.688  12.853
42878W        W14407  16.845  27.470   1.741
42879W        W14408  23.077  34.375   2.661
42880W        W14409   2.083  30.705   2.804
42881W        W14410  20.413  25.679   2.827
42882W        W14411  32.593  35.981  14.727
42883W        W14412  17.618  44.340  14.879
42884W        W14413  29.831  11.722   1.676
42885W        W14414   1.831  15.030   1.182
42886W        W14415  19.676   1.009  12.959
42887W        W14416  39.300  33.425   3.090
42888W        W14417  30.024  43.407  12.701
42889W        W14418  13.817  33.400  13.597
42890W        W14419  19.322   3.304   2.860
42891W        W14420  37.888  44.047   1.236
42892W        W14421  20.627  18.036   3.605
42893W        W14422  10.889  33.993  10.775
42894W        W14423   6.317   0.373  10.235
42895W        W14424  31.964  33.476  11.002
42896W        W14425  28.379  32.618  14.822
42897W        W14426  27.059  20.524   3.202
42898W        W14427  36.403  27.425   1.898
42899W        W14428  40.815  32.832   4.196
42900W        W14429  16.607  20.858   4.370
42901W        W14430   8.022  19.852  10.587
42902W        W14431  10.884  35.246  14.704
42903W        W14432  14.013  38.074   0.260
42904W        W14433   2.042  37.037   1.479
42905W        W14434  25.625  28.186  14.808
42906W        W14435  30.694  26.657  11.640
42907W        W14436  42.471  24.005   1.382
42908W        W14437  10.848  10.855  11.492
42909W        W14438  14.588  35.433  11.225
42910W        W14439  16.786  25.874  11.043
42911W        W14440  17.071  28.296  10.713
42912W        W14441  18.812  12.198  13.838
42913W        W14442  10.675  26.981  12.379
42914W        W14443  35.906   6.319  13.799
42915W        W14444  22.156   7.860  10.521
42916W        W14445  26.461  10.900  10.750
42917W        W14446  42.439  38.914  10.719
42918W        W14447  12.338  10.432  11.515
42919W        W14448   8.822   0.680  14.935
42920W        W14449  31.577  14.873  13.266
42921W        W14450  17.028  42.340   0.493
42922W        W14451  33.686   5.415   3.593
42923W        W14452  14.349  40.883  12.980
42924W        W14453  28.821  24.368  13.511
42925W        W14454   6.260   6.704  11.199
42926W        W14455   6.769  36.128   4.610
42927W        W14456  33.638   7.172   0.871
42928W        W14457  19.235  12.083  11.099
42929W        W14458  12.275  15.022  11.231
42930W        W14459  44.598  24.907  11.079
42931W        W14460  13.089   2.432   4.247
42932W        W14461  24.468  41.274   1.518
42933W        W14462  18.325  25.648   2.632
42934W        W14463  42.461  14.106  11.598
42935W        W14464   1.382  21.943  12.761
42936W        W14465  13.274  34.300  12.838
42937W        W14466  39.901  22.539  10.556
42938W        W14467   3.920  44.606  11.537
42939W        W14468  29.609  41.626   1.817
42940W        W14469  29.612  35.923   4.447
42941W        W14470  44.417  15.875  13.042
42942W        W14471  22.025   3.233  12.507
42943W        W14472  21.111  13.108   2.477
42944W        W14473  12.538  16.796  14.402
42945W        W14474  36.395   1.925   4.487
42946W        W14475  36.090  16.319   2.065
42947W        W14476  25.713  25.695  11.228
42948W        W14477  36.627  22.587  14.277
42949W        W14478  18.640  11.633  10.377
42950W        W14479   7.074  39.644   3.166
42951W        W14480  39.368  20.889   2.344
42952W        W14481  13.740  13.596   2.783
42953W        W14482   3.407  30.452  13.820
42954W        W14483  31.733  29.532   0.864
42955W        W14484  38.963  35.518  14.254
42956W        W14485  12.894  36.869   1.429
42957W        W14486  32.358   6.434   1.354
42958W        W14487  19.479   5.320   0.791
42959W        W14488  24.431  18.952  12.097
42960W        W14489  27.893  17.467   3.704
42961W        W14490  25.508  33.136   0.956
42962W        W14491  19.830  15.478  13.290
42963W        W14492  41.527   1.375  14.823
42964W        W14493  43.815   7.248  10.652
42965W        W14494  18.739   0.245  11.462
42966W        W14495  16.129  39.817   3.624
42967W        W14496  19.929   9.151  11.864
42968W        W14497  19.768  43.039  11.888
42969W        W14498   0.288  34.488   1.132
42970W        W14499  31.119   5.926   4.578
42971W        W14500   6.635  15.771  10.993
42972W        W14501  43.561  13.538   2.244
42973W        W14502  44.954   7.212   1.901
42974W        W14503   4.379   8.081  12.925
42975W        W14504  20.273  14.794   3.130
42976W        W14505  23.151  32.570   2.214
42977W        W14506  15.792  35.968   4.684
42978W        W14507  32.854  19.572   4.932
42979W        W14508  32.276  37.385   1.426
42980W        W14509   9.370  33.915   3.708
42981W        W14510  38.472  39.009   4.124
42982W        W14511  16.965  25.069  12.061
42983W        W14512   6.579  23.780  14.593
42984W        W14513  39.478  32.684  13.453
42985W        W14514  26.309  12.764   3.596
42986W        W14515  41.413  20.217   2.582
42987W        W14516  29.136  24.545   3.652
42988W        W14517  38.043  19.984  10.712
42989W        W14518  28.665  22.094   0.812
42990W        W14519   9.858  13.829  13.111
42991W        W14520  41.983  13.891   3.256
42992W        W14521  21.832  35.582   0.442
42993W        W14522  19.707  33.962  12.872
42994W        W14523  10.743  14.301   2.131
42995W        W14524  30.868  11.329   4.383
42996W        W14525  18.366  18.205   3.636
42997W        W14526  38.411  38.028   2.424
42998W        W14527  19.251   5.753  12.074
42999W        W14528  15.165  14.060   4.925
43000W        W14529  33.117  34.771  13.822
43001W        W14530   9.456  12.678  13.252
43002W        W14531  13.696  40.349   2.949
43003W        W14532   5.160  19.820  12.861
43004W        W14533  21.169  42.699   2.037
43005W        W14534   2.919  40.761  14.842
43006W        W14535  32.632  43.755  14.443
43007W        W14536  24.249  10.884  12.557
43008W        W14537  32.993  27.650   3.741
43009W        W14538   2.268  20.679  10.794
43010W        W14539  13.844  13.115  13.598
43011W        W14540  11.569  42.307  13.064
43012W        W14541  27.153  20.168   1.620
43013W        W14542  14.360   3.289  10.560
43014W        W14543   9.861  13.853  14.468
43015W        W14544  30.736   5.908  14.386
43016W        W14545  35.819  31.455   4.639
43017W        W14546  18.768  32.523  12.862
43018W        W14547  21.183  16.094   2.182
43019W        W14548  35.367   5.953   0.684
43020W        W14549  21.202  36.310   4.143
43021W        W14550  42.896  34.525  14.561
43022W        W14551  18.280  19.202  14.750
43023W        W14552  44.804  24.972   3.140
43024W        W14553  37.658  23.663  13.131
43025W        W14554  16.139  16.885   0.434
43026W        W14555  26.512  23.717  11.089
43027W        W14556  19.824  13.502   1.977
43028W        W14557   3.248  28.934  10.839
43029W        W14558   1.005  41.051  12.867
43030W        W14559  33.917   3.288   3.206
43031W        W14560  41.019  22.655   2.782
43032W        W14561  30.982  44.899  13.526
43033W        W14562  33.956  28.672   1.300
43034W        W14563  23.740  18.514  14.946
43035W        W14564  15.179  32.357   1.823
43036W        W14565  30.274   2.138  14.685
43037W        W14566  36.339  27.699  13.961
43038W        W14567  35.895  11.333  10.688
43039W        W14568  13.160   0.497   2.222
43040W        W14569  30.947  37.527   0.919
43041W        W14570  33.413  26.843   3.261
43042W        W14571  14.877  30.595  11.106
43043W        W14572  22.932  43.807   2.810
43044W        W14573  36.410  27.225  11.117
43045W        W14574  38.016   3.524   2.383
43046W        W14575  25.457  13.218   1.430
43047W        W14576   1.490  19.814  12.581
43048W        W14577   3.966   6.015   0.728
43049W        W14578  25.105   5.299  11.016
43050W        W14579  28.708  42.449  14.253
43051W        W14580  44.587  35.479   0.629
43052W        W14581  40.070  24.943   4.639
43053W        W14582  34.792  16.272  13.078
43054W        W14583  15.633  28.736  10.741
43055W        W14584  40.026  10.847  11.255
43056W        W14585  23.979  17.241  11.409
43057W        W14586   1.048  25.611   2.765
43058W        W14587  23.412   0.234  14.383
43059W        W14588  23.631  38.389  12.623
43060W        W14589  31.622   5.438  12.988
43061W        W14590  24.196  39.938   0.796
43062W        W14591  13.796  14.492   3.430
43063W        W14592  13.649  41.255  11.651
43064W        W14593  20.048   1.291   3.324
43065W        W14594  39.930  15.215   0.963
43066W        W14595  29.798  37.994  10.795
43067W        W14596  17.797  21.806  11.126
43068W        W14597  15.567  13.059  11.171
43069W        W14598  37.277  21.563  12.774
43070W        W14599  42.273  20.212  12.600
43071W        W14600  38.527  23.625   0.396
43072W        W14601  38.394  17.096   0.331
43073W        W14602   3.036  33.841   3.264
43074W        W14603  43.529   8.860  14.517
43075W        W14604   6.221  23.473  12.498
43076W        W14605  11.144  23.491   3.701
43077W        W14606   9.818   5.926   2.817
43078W        W14607  22.799  27.614  11.061
43079W        W14608   8.276  10.926   1.764
43080W        W14609  14.314  17.954  11.472
43081W        W14610  26.151  10.586  11.648
43082W        W14611   8.776  16.099  12.773
43083W        W14612  39.549  34.684   0.032
43084W        W14613  27.158  24.580   3.571
43085W        W14614  41.991  39.116  12.719
43086W        W14615  25.525  15.336  10.502
43087W        W14616  42.381  25.781  10.781
43088W        W14617  25.636  43.558   0.786
43089W        W14618  30.035  29.637   0.211
43090W        W14619  31.444  15.624   3.929
43091W        W14620  42.177  41.258  12.184
43092W        W14621  16.313  37.641  10.299
43093W        W14622  44.239  31.862   3.265
43094W        W14623  20.726  34.845   0.718
43095W        W14624  22.399  43.380  14.811
43096W        W14625  18.796  17.576  11.127
43097W        W14626  26.546  36.891   3.139
43098W        W14627  25.734  17.494  14.698
43099W        W14628  22.100  36.800  12.023
43100W        W14629  10.682  17.126   0.296
43101W        W14630  42.983  34.343  12.588
43102W        W14631  18.694  17.086  11.000
43103W        W14632  17.166  42.290  11.078
43104W        W14633  33.075  36.469  13.765
43105W        W14634  44.761  27.055  13.104
43106W        W14635  16.515  42.323   0.470
43107W        W14636  25.911  33.067   1.769
43108W        W14637  23.044  32.814  11.840
43109W        W14638  35.867   1.771  13.880
43110W        W14639   5.363  20.184   4.228
43111W        W14640  40.299  42.034   2.088
43112W        W14641  14.628  23.482  11.674
43113W        W14642  42.825  25.920   1.361
43114W        W14643   8.858  34.798  10.437
43115W        W14644  14.160  41.496   4.270
43116W        W14645   1.067   8.278   0.057
43117W        W14646  38.533  16.741   2.596
43118W        W14647  29.047  35.463   0.155
43119W        W14648  16.613  31.575  13.322
43120W        W14649  16.853  40.641   3.206
43121W        W14650  13.324  37.886   3.269
43122W        W14651  19.188   8.235   2.858
43123W        W14652  37.630   0.829   4.246
43124W        W14653  13.576  30.324  10.913
43125W        W14654  37.710  15.587  12.657
43126W        W14655  13.070  40.409  11.638
43127W        W14656   0.408  10.260  13.764
43128W        W14657  25.505  12.212  13.554
43129W        W14658   9.059  27.518   2.141
43130W        W14659  29.382  34.756   0.439
43131W        W14660   6.794  39.843  12.919
43132W        W14661  43.270  24.107  14.412
43133W        W14662   1.889   2.944   0.806
43134W        W14663  25.435  26.478   0.530
43135W        W14664   1.792  33.603  11.329
43136W        W14665   7.930  15.997  12.399
43137W        W14666   1.475   1.363   0.765
43138W        W14667  20.547  23.639  12.516
43139W        W14668  14.133   2.876   1.844
43140W        W14669  40.765  23.488  11.290
43141W        W14670   6.349  18.642   1.765
43142W        W14671  15.229  19.635  14.478
43143W        W14672  44.759  37.103  12.828
43144W        W14673  39.050  30.584   0.756
43145W        W14674  12.692  42.268   4.200
43146W        W14675  29.645  40.557  11.615
43147W        W14676  10.337   5.685  11.419
43148W        W14677  42.411  39.122  13.040
43149W        W14678  32.003  38.381  13.179
43150W        W14679   4.979  19.191  12.062
43151W        W14680  19.759  13.565   3.373
43152W        W14681  24.537  17.183   1.674
43153W        W14682   1.830  28.187   0.602
43154W        W14683  35.224  16.089   1.896
43155W        W14684   3.404  41.602  10.934
43156W        W14685  32.478   1.727   3.810
43157W        W14686  28.670  10.976  14.408
43158W        W14687   3.436   7.592   3.729
43159W        W14688  25.618  22.225  13.466
43160W        W14689  17.604   0.216   4.901
43161W        W14690  43.745   0.860   1.838
43162W        W14691  30.093  30.238   1.790
43163W        W14692  30.574  21.997  13.573
43164W        W14693  30.615  26.696  10.270
43165W        W14694   4.636   9.811   2.618
43166W        W14695  34.561  39.099   2.248
43167W        W14696  34.930  36.286  13.963
43168W        W14697  39.538   4.404  13.953
43169W        W14698   1.418  42.497  13.723
43170W        W14699  26.424   7.986   0.233
43171W        W14700  28.898  26.367   4.270
43172W        W14701  25.985  30.497  10.730
43173W        W14702  16.308  21.712   3.976
43174W        W14703   1.353  31.351  13.535
43175W        W14704  32.518  10.550  12.486
43176W        W14705  14.589  24.507  14.013
43177W        W14706  27.497  11.220   4.665
43178W        W14707  38.048  18.771  13.076
43179W        W14708  22.023   3.200   2.269
43180W        W14709  36.073   8.470  12.033
43181W        W14710  32.533  17.826  14.254
43182W        W14711   9.170  24.634   2.045
43183W        W14712  33.577  43.579   0.469
43184W        W14713  19.043  22.789   0.874
43185W        W14714  23.224  38.747   2.636
43186W        W14715  38.889  18.157  12.444
43187W        W14716  25.378  28.857  13.836
43188W        W14717  16.841   4.926  14.996
43189W        W14718  26.963   6.553  10.994
43190W        W14719  28.175   7.202  11.507
43191W        W14720   4.849   0.014  13.156
43192W        W14721  30.978   9.873   3.403
43193W        W14722  31.022  28.958   1.234
43194W        W14723  30.076  32.961  11.754
43195W        W14724  33.056   4.277  13.372
43196W        W14725  40.827  11.380  12.995
43197W        W14726  35.099  24.993  14.099
43198W        W14727   3.273  39.687  11.188
43199W        W14728  38.021  18.580  14.802
43200W        W14729  12.702  44.078  12.652
43201W        W14730  10.336  34.370  13.012
43202W        W14731  44.368   2.281   3.418
43203W        W14732  37.942   2.724   0.849
43204W        W14733   7.330  36.850  14.289
43205W        W14734  24.749  38.926   3.722
43206W        W14735  14.951  33.352  14.287
43207W        W14736  16.138  31.950   3.896
43208W        W14737  37.811  26.044  11.045
43209W        W14738  31.006  26.813  11.191
43210W        W14739  13.776  25.016  14.977
43211W        W14740  34.116  13.573   3.110
43212W        W14741   6.362  16.223   3.283
43213W        W14742   0.495  33.851   3.931
43214W        W14743  39.151   4.651   0.791
43215W        W14744  14.388  23.998  10.830
43216W        W14745  41.478  14.389  10.641
43217W        W14746  40.696  30.164  12.470
43218W        W14747  39.295  23.974  14.375
43219W        W14748  43.162  41.619   1.830
43220W        W14749   1.511   6.231  14.967
43221W        W14750  31.590  22.918   1.308
43222W        W14751  32.934  36.297  10.756
43223W        W14752  28.650  32.967   4.226
43224W        W14753   6.725  29.186   3.317
43225W        W14754  10.811  14.131  14.311
43226W        W14755  36.290   5.723   0.446
43227W        W14756  19.181  14.662   2.316
43228W        W14757  41.082  33.965   2.891
43229W        W14758  27.645   4.450  14.043
43230W        W14759   0.157  19.103   4.194
43231W        W14760  14.742  21.538   3.701
43232W        W14761   3.809   7.015  10.658
43233W        W14762   8.871   5.421  13.308
43234W        W14763  20.705   3.700   2.654
43235W        W14764  21.811  16.684  14.318
43236W        W14765  11.552  17.673  14.320
43237W        W14766  21.285  36.021   0.940
43238W        W14767  43.754  11.587   1.716
43239W        W14768  35.387  31.887   2.322
43240W        W14769  15.423   9.729  11.147
43241W        W14770  36.144  12.574   1.212
43242W        W14771  13.524  44.072   1.274
43243W        W14772  35.870  23.519  11.610
43244W        W14773  24.606   7.163  12.806
43245W        W14774  26.606  43.680   2.350
43246W        W14775   4.836  42.709  13.422
43247W        W14776  38.773  35.833  11.671
43248W        W14777  42.768   0.129   1.504
43249W        W14778  40.734   2.021  13.328
43250W        W14779   1.509   3.713   0.504
43251W        W14780  38.835  20.570   0.136
43252W        W14781  35.870  14.740  14.250
43253W        W14782   6.916   9.244  14.847
43254W        W14783  38.063  21.070   0.969
43255W        W14784  32.782  36.591  11.595
43256W        W14785  29.502  28.992  13.444
43257W        W14786   4.275  40.705   4.491
43258W        W14787  37.569   7.813  14.719
43259W        W14788   2.887  22.238   4.317
43260W        W14789  19.984  19.727  12.830
43261W        W14790  18.584  18.695   2.285
43262W        W14791  12.641  13.368  12.202
43263W        W14792  30.459  44.875  10.437
43264W        W14793  37.582  31.106   3.234
43265W        W14794  21.472  32.495   1.435
43266W        W14795   2.791  42.803   4.434
43267W        W14796  29.021  41.710  14.023
43268W        W14797  13.174   0.394   0.980
43269W        W14798  20.759  19.211  13.593
43270W        W14799  35.021  24.514   1.377
43271W        W14800  32.900   8.470  14.801
43272W        W14801   8.639  28.874  12.218
43273W        W14802   1.586  35.822  11.457
43274W        W14803  17.645  19.360   2.303
43275W        W14804  20.128   6.947   3.604
43276W        W14805  18.348  25.134  13.041
43277W        W14806  31.939  10.210   1.351
43278W        W14807  11.597  37.976  12.294
43279W        W14808   5.207   2.684  12.089
43280W        W14809   7.371  27.011   0.928
43281W        W14810  32.957  32.636  13.923
43282W        W14811  31.599  34.936   0.642
43283W        W14812  15.586  36.900   4.721
43284W        W14813  20.988   0.285   4.561
43285W        W14814   5.987  32.380   1.933
43286W        W14815  11.595  37.062  14.986
43287W        W14816   8.633   0.031   3.939
43288W        W14817  13.369  34.018   3.377
43289W        W14818  13.656  41.777  12.470
43290W        W14819   0.213  40.864   2.762
43291W        W14820  15.204   4.751   4.169
43292W        W14821  16.162  29.657   0.279
43293W        W14822  43.941  14.194  13.107
43294W        W14823  36.017  15.356   0.256
43295W        W14824  44.712  31.956  13.061
43296W        W14825   4.201  37.121   2.869
43297W        W14826   3.643  36.856  13.534
43298W        W14827  42.432  43.924  12.532
43299W        W14828  12.350  23.161  11.189
43300W        W14829   4.456  33.934   0.042
43301W        W14830  35.043  10.920   2.234
43302W        W14831  13.657   6.098   1.345
43303W        W14832  21.583  13.617  11.548
43304W        W14833  28.849  12.102   4.184
43305W        W14834  44.522   4.254  11.653
43306W        W14835  27.147  16.095  13.098
43307W        W14836   3.320   7.360  11.546
43308W        W14837   1.272  15.632  13.734
43309W        W14838   0.831  25.429  14.010
43310W        W14839  21.298  10.204  12.616
43311W        W14840  17.789  43.074  10.959
43312W        W14841  12.377  11.640  10.994
43313W        W14842  42.393  11.338  12.132
43314W        W14843  31.009   0.641   0.909
43315W        W14844  39.688  23.525   3.605
43316W        W14845  26.215   3.874   1.915
43317W        W14846  32.404  36.877  11.902
43318W        W14847   3.354  40.322  12.506
43319W        W14848   0.965  38.788   0.947
43320W        W14849   2.925  21.672   4.132
43321W        W14850  34.679  33.102  14.724
43322W        W14851  36.340  26.411   0.701
43323W        W14852  21.246  40.790   0.297
43324W        W14853  15.199  21.021  11.559
43325W        W14854   6.789  38.810   3.210
43326W        W14855  26.106  34.874  13.133
43327W        W14856  24.119  42.955  13.244
43328W        W14857   6.677   2.377  11.428
43329W        W14858   6.861  38.140   2.177
43330W        W14859  15.169   9.857   0.379
43331W        W14860   1.457  24.697  12.554
43332W        W14861  11.308   5.879  12.525
43333W        W14862   4.791   5.466  10.539
43334W        W14863   7.270  32.458   4.121
43335W        W14864   2.746  30.681   4.161
43336W        W14865  15.190   5.348   3.115
43337W        W14866  13.140  32.210   3.310
43338W        W14867  16.394  37.277  14.458
43339W        W14868  41.995  24.809   3.424
43340W        W14869  44.720  26.226   2.636
43341W        W14870  39.010  18.262  13.820
43342W        W14871  17.849   0.416   2.653
43343W        W14872  31.670  36.818   1.849
43344W        W14873  22.637  40.708   0.442
43345W        W14874  23.216  32.046  11.205
43346W        W14875  15.295  38.945   2.263
43347W        W14876   0.893   1.262  14.825
43348W        W14877  19.424  43.937  11.035
43349W        W14878  27.186   1.970   3.538
43350W        W14879  34.094   2.051  14.115
43351W        W14880   3.714  40.471  14.183
43352W        W14881   8.859   3.896   4.061
43353W        W14882  38.108  22.120   2.080
43354W        W14883  24.422  43.928  11.164
43355W        W14884  30.789   5.690  12.704
43356W        W14885  41.443  16.660   0.584
43357W        W14886  24.589  39.024  10.701
43358W        W14887  21.818  18.745  12.586
43359W        W14888  43.295  36.475  11.146
43360W        W14889  21.743   3.485   1.422
43361W        W14890  44.708  27.539   0.704
43362W        W14891  16.404  27.353   1.427
43363W        W14892  10.164  39.451   3.761
43364W        W14893  33.038  42.221   4.444
43365W        W14894  14.546  44.954   3.645
43366W        W14895   6.858  10.305  11.503
43367W        W14896  41.062   9.753   3.217
43368W        W14897   4.280  41.285   0.480
43369W        W14898  22.778  11.694   3.649
43370W        W14899  42.359   7.318  11.677
43371W        W14900   8.439  13.815   2.419
43372W        W14901  43.321  39.847   1.634
43373W        W14902   6.836  12.569  13.306
43374W        W14903   9.946   7.706   2.597
43375W        W14904  24.616  29.373   2.421
43376W        W14905  34.458  16.067   1.370
43377W        W14906  43.722  33.322  14.034
43378W        W14907  13.398  33.491   2.802
43379W        W14908   6.811  26.429   0.545
43380W        W14909  29.220  16.629   1.792
43381W        W14910  42.976   1.228   3.337
43382W        W14911   1.283  44.570  14.073
43383W        W14912   4.468   8.416  12.515
43384W        W14913  13.320  14.400  11.588
43385W        W14914  19.928  16.442  11.129
43386W        W14915  34.433  21.793  14.419
43387W        W14916   3.334  23.626   2.143
43388W        W14917  19.092  14.089  11.555
43389W        W14918  11.531  41.476  10.778
43390W        W14919  23.482  16.668  12.089
43391W        W14920  10.250  13.944  13.497
43392W        W14921  34.322   9.397  13.024
43393W        W14922   0.093  16.781   4.948
43394W        W14923  41.929  43.972  12.570
43395W        W14924  13.168   7.096   2.682
43396W        W14925   4.474   4.144   4.060
43397W        W14926   4.643  28.090  14.490
43398W        W14927  32.426  38.786  14.795
43399W        W14928   9.785  23.674   1.772
43400W        W14929  38.699  31.682   0.151
43401W        W14930  39.584  42.979  12.470
43402W        W14931  19.992   7.114   2.154
43403W        W14932   5.946  13.335   0.841
43404W        W14933  14.717  16.054   3.224
43405W        W14934  43.575  30.616  10.739
43406W        W14935  34.209  21.400   1.307
43407W        W14936  10.303  23.038  12.974
43408W        W14937  20.051  10.060   1.136
43409W        W14938  13.701   4.792  11.774
43410W        W14939   4.219   2.441  14.026
43411W        W14940   5.235  24.606   1.427
43412W        W14941  15.061   0.903   3.706
43413W        W14942  10.161  34.672  11.221
43414W        W14943  28.580  42.843  12.285
43415W        W14944   2.950   9.063   3.642
43416W        W14945  40.194   7.716  14.345
43417W        W14946  30.462  28.733   2.693
43418W        W14947  35.624  28.091   1.298
43419W        W14948  17.118   0.998  11.385
43420W        W14949   9.001  17.950   3.706
43421W        W14950  12.692  11.623   2.236
43422W        W14951  12.645  25.261   0.177
43423W        W14952  15.546  37.805  13.942
43424W        W14953   9.864  12.703   3.309
43425W        W14954   6.180  39.964   4.609
43426W        W14955  37.973  16.747   1.899
43427W        W14956  17.594  38.351  13.802
43428W        W14957  24.253  23.245   0.043
43429W        W14958  41.922  25.383  12.962
43430W        W14959   3.448  28.109   4.234
43431W        W14960  44.541  33.384   1.246
43432W        W14961   0.378  10.086   4.668
43433W        W14962  23.175  24.183   3.747
43434W        W14963  28.912  20.074  14.736
43435W        W14964  28.939  38.542  12.442
43436W        W14965  25.188  25.529   2.532
43437W        W14966  27.918  25.650   1.356
43438W        W14967  22.777  11.161  11.620
43439W        W14968   2.167  10.414   0.412
43440W        W14969   8.486  35.217  12.565
43441W        W14970  28.285   5.784  10.487
43442W        W14971   5.939  36.782  11.417
43443W        W14972  40.831   0.015   3.740
43444W        W14973  15.803   1.027   0.753
43445W        W14974  18.141   6.868   0.042
43446W        W14975  10.315  17.158   4.601
43447W        W14976  30.151  38.798  10.697
43448W        W14977  36.637  16.562  13.883
43449W        W14978   4.241  40.352  14.315
43450W        W14979  11.576  41.187  10.293
43451W        W14980  35.914   1.028   3.705
43452W        W14981   8.935  23.514   1.887
43453W        W14982  11.852  37.758  11.524
43454W        W14983   2.740  42.637   4.958
43455W        W14984  36.672   9.699   1.364
43456W        W14985  22.894  32.129  14.835
43457W        W14986   8.611  43.328  13.149
43458W        W14987  31.224  39.169  11.449
43459W        W14988  31.633   1.446   0.790
43460W        W14989  13.170   9.416  11.135
43461W        W14990  23.617  37.125   0.359
43462W        W14991  21.275   3.418  12.944
43463W        W14992  37.750   6.925  14.039
43464W        W14993  20.211  15.603   4.225
43465W        W14994  10.083  34.554  14.921
43466W        W14995   1.896  25.029   3.233
43467W        W14996  27.516  40.026  11.609
43468W        W14997  20.960  20.573   3.285
43469W        W14998  31.155  30.842  13.852
43470W        W14999  42.580   4.753   4.055
43471W        W15000  36.450   2.919  14.012
43472W        W15001  28.989   4.807   3.822
43473W        W15002  34.328  42.126   4.271
43474W        W15003  33.605  22.361  14.442
43475W        W15004  22.636  12.850   2.775
43476W        W15005  15.625  23.171  11.425
43477W        W15006  38.551   1.289   4.835
43478W        W15007  42.888  27.532   3.939
43479W        W15008  44.077   0.084  11.735
43480W        W15009   1.257  33.383  14.359
43481W        W15010  27.109  41.478   2.126
43482W        W15011   1.410  24.942   3.019
43483W        W15012   4.578  24.893  10.033
43484W        W15013  25.453  34.420   3.191
43485W        W15014  29.032  21.822  12.984
43486W        W15015  28.506  25.547  12.547
43487W        W15016  34.306   7.199  11.783
43488W        W15017  39.021  21.550   0.004
43489W        W15018  29.569  20.606  14.432
43490W        W15019  22.396   4.401  13.080
43491W        W15020  24.447  20.257   3.224
43492W        W15021  40.379  10.396  14.940
43493W        W15022  44.569   4.413   2.587
43494W        W15023   3.120  20.645   0.032
43495W        W15024  16.680   0.292   3.369
43496W        W15025   1.868  42.262  12.378
43497W        W15026  32.696  11.755  11.230
43498W        W15027  14.655  21.228  13.893
43499W        W15028  33.531   7.215  11.190
43500W        W15029  42.188  23.569   1.434
43501W        W15030  15.138  19.052   0.886
43502W        W15031  12.705  34.354   2.624
43503W        W15032  17.429  25.575   2.153
43504W        W15033  37.384  26.368   4.175
43505W        W15034  32.445  41.021  13.914
43506W        W15035  26.985  31.489  11.525
43507W        W15036  15.538  36.644   1.880
43508W        W15037  40.320   3.296   0.473
43509W        W15038  34.345  34.081   4.333
43510W        W15039  24.926  38.881   2.897
43511W        W15040  33.981  29.004   4.431
43512W        W15041  38.465  27.676  12.610
43513W        W15042  34.504   3.454   2.188
43514W        W15043  30.445  31.872   3.555
43515W        W15044   9.581   6.747   1.732
43516W        W15045  29.139  37.359  12.271
43517W        W15046   6.398  37.106   3.416
43518W        W15047  23.886   5.678   3.618
43519W        W15048  10.094  22.547  13.845
43520W        W15049   1.301  31.080  11.856
43521W        W15050   6.315  20.970  10.904
43522W        W15051  30.998   0.424   3.707
43523W        W15052  26.683  25.945  11.600
43524W        W15053  14.929  36.219  14.900
43525W        W15054  10.831   7.266   1.691
43526W        W15055  44.803  40.831  12.381
43527W        W15056   4.474  17.335  14.015
43528W        W15057  28.047  34.603   0.340
43529W        W15058   4.644  10.160  10.932
43530W        W15059  15.696  13.122   0.553
43531W        W15060  31.164   0.687  12.374
43532W        W15061  37.885  15.771  10.227
43533W        W15062  27.855   3.733  14.925
43534W        W15063  19.742  14.068  14.301
43535W        W15064  18.366  38.500  12.442
43536W        W15065   7.948  44.070   5.027
43537W        W15066   2.562  35.617   1.213
43538W        W15067  19.107   2.312   3.678
43539W        W15068   8.890   4.428  13.654
43540W        W15069  16.844  36.638  12.929
43541W        W15070  24.764   2.644  12.963
43542W        W15071  26.198  28.643   2.920
43543W        W15072  19.225   9.686  11.986
43544W        W15073  28.538  26.168   2.271
43545W        W15074  44.095  38.127   3.873
43546W        W15075  35.124  32.116   3.256
43547W        W15076  32.919  28.676   3.623
43548W        W15077   9.354  33.521  13.518
43549W        W15078  17.979  27.934  13.256
43550W        W15079   1.832  33.636  13.815
43551W        W15080   6.482  17.844   2.229
43552W        W15081  30.613  12.197  10.575
43553W        W15082  44.786  20.289  13.758
43554W        W15083  18.121   7.294  13.291
43555W        W15084  19.490   8.311  13.549
43556W        W15085  24.633  34.375   0.956
43557W        W15086  43.938  19.026   4.301
43558W        W15087  43.250  44.383   3.108
43559W        W15088  30.577  40.395  10.716
43560W        W15089   8.583  11.282  11.738
43561W        W15090  20.624  34.761   2.123
43562W        W15091   9.242   7.888  10.630
43563W        W15092   5.991  41.361   3.436
43564W        W15093  10.605  22.052  12.100
43565W        W15094  39.579   3.299  12.409
43566W        W15095   6.594  32.425   0.507
43567W        W15096   8.841  15.136  10.397
43568W        W15097  26.636  28.641   2.089
43569W        W15098  20.695   9.297   4.453
43570W        W15099  31.539  18.286   0.308
43571W        W15100  36.657  34.671  12.152
43572W        W15101  26.468  13.224   5.023
43573W        W15102  29.995   6.952  12.183
43574W        W15103   7.210  23.293  14.722
43575W        W15104   1.081   7.813  10.635
43576W        W15105   5.336  23.274  10.701
43577W        W15106  40.296   4.585  12.928
43578W        W15107  22.955  37.717   4.723
43579W        W15108  43.559   0.278  12.556
43580W        W15109   0.717  35.071  12.592
43581W        W15110   2.593  24.936  12.976
43582W        W15111  13.144  10.741  13.231
43583W        W15112   7.150   9.869   4.738
43584W        W15113  22.965  19.183   0.684
43585W        W15114  15.839  33.011  10.752
43586W        W15115  35.074  13.214  14.480
43587W        W15116  11.314  32.642   2.186
43588W        W15117  43.846  30.322  12.055
43589W        W15118   8.319  11.834   3.441
43590W        W15119   1.679  40.284   1.981
43591W        W15120   1.058  11.928   1.687
43592W        W15121  26.899  13.798   0.478
43593W        W15122  17.545  14.599  11.261
43594W        W15123  19.156  21.338  10.952
43595W        W15124   8.769  42.778  10.736
43596W        W15125  13.278   6.405   4.110
43597W        W15126  14.360  31.728  13.931
43598W        W15127  35.417  21.137   3.649
43599W        W15128   1.104   8.695   2.756
43600W        W15129  39.329  40.681  11.051
43601W        W15130  24.474  21.720  11.135
43602W        W15131  26.172   4.321   3.721
43603W        W15132   1.781  38.972   2.075
43604W        W15133   0.286  12.636  13.783
43605W        W15134  39.894  16.152   2.806
43606W        W15135  23.938   0.602   3.248
43607W        W15136  16.548  19.682   0.397
43608W        W15137  13.093   9.396  13.078
43609W        W15138  30.511  24.745  13.927
43610W        W15139  40.817  28.995  10.790
43611W        W15140  28.880  30.959  12.638
43612W        W15141  36.155   3.783  14.583
43613W        W15142   2.274  35.159   4.111
43614W        W15143  20.917  29.728  11.578
43615W        W15144   1.187  42.005   4.113
43616W        W15145  35.149  30.348  11.975
43617W        W15146  31.589  33.143  10.866
43618W        W15147  27.692  42.563  14.386
43619W        W15148   0.940   5.021  14.968
43620W        W15149  21.549  26.458   3.224
43621W        W15150   4.127  17.293   2.913
43622W        W15151  16.286  18.104  13.496
43623W        W15152  36.909  33.556  13.674
43624W        W15153  37.727  33.400  11.338
43625W        W15154  26.452   1.357  13.464
43626W        W15155  32.638  43.902  11.051
43627W        W15156  41.009  17.278   3.780
43628W        W15157  17.368  26.524   2.744
43629W        W15158   3.314   9.597   2.705
43630W        W15159  11.845  16.637  13.838
43631W        W15160   4.316  41.829  10.562
43632W        W15161  22.097  43.826   1.343
43633W        W15162   6.352  26.089  10.095
43634W        W15163   2.837  38.014   0.441
43635W        W15164   0.068  29.002  13.349
43636W        W15165  38.595  43.701  14.560
43637W        W15166  13.341  24.084  10.795
43638W        W15167  11.045  41.648  10.645
43639W        W15168  28.616  17.734  11.894
43640W        W15169  15.653   6.442   0.641
43641W        W15170  17.490  33.125  12.808
43642W        W15171   1.659   4.815   1.900
43643W        W15172  39.366  32.905   3.175
43644W        W15173  11.363  36.643   3.691
43645W        W15174   7.722  31.998   2.184
43646W        W15175  40.490  18.204  13.391
43647W        W15176  15.732  12.085  12.217
43648W        W15177  17.720  28.476  14.428
43649W        W15178  42.664  26.442   4.510
43650W        W15179   2.010   0.022  12.979
43651W        W15180  35.086   1.571  10.305
43652W        W15181  10.105  27.611   4.133
43653W        W15182  13.818  37.755   3.354
43654W        W15183  44.914  28.903  12.346
43655W        W15184   2.356  42.854   4.655
43656W        W15185  41.508   2.618   0.296
43657W        W15186  18.153  26.483   4.867
43658W        W15187   1.949  17.822  13.377
43659W        W15188  23.798  33.638   4.054
43660W        W15189  17.683  41.458  11.539
43661W        W15190   3.522  12.710   0.721
43662W        W15191  23.141  30.610  13.884
43663W        W15192  10.873  43.798  13.888
43664W        W15193  20.836  24.714  11.936
43665W        W15194  29.167  11.321  12.980
43666W        W15195  41.715  31.660   0.741
43667W        W15196   6.504  34.797  11.485
43668W        W15197  12.953  16.723   0.219
43669W        W15198  33.328  37.430  14.266
43670W        W15199   5.264  33.869   1.512
43671W        W15200  10.124   8.824   3.181
43672W        W15201   1.254   0.887  14.458
43673W        W15202  27.245  43.223  12.830
43674W        W15203  33.542  21.831   2.035
43675W        W15204  44.838  12.297   1.399
43676W        W15205  11.546  41.004  10.983
43677W        W15206  16.585  30.437   0.337
43678W        W15207   0.234  16.312   4.038
43679W        W15208  21.702  17.951   1.287
43680W        W15209   5.760  26.864  10.609
43681W        W15210  10.257   8.753  11.882
43682W        W15211  38.885   3.359   4.601
43683W        W15212  15.353  25.041  13.081
43684W        W15213   9.778  37.627   4.450
43685W        W15214  42.418  17.045   2.889
43686W        W15215  38.660  22.080  13.868
43687W        W15216  18.643  12.191   1.387
43688W        W15217  40.324  19.307   2.927
43689W        W15218  14.584  39.767  14.319
43690W        W15219  33.499  32.845   0.357
43691W        W15220  24.500  18.854  10.576
43692W        W15221   6.395  36.925   4.237
43693W        W15222   5.825  14.865  13.004
43694W        W15223   2.387  14.473   1.832
43695W        W15224  33.556   3.375   2.774
43696W        W15225  25.588   3.000  11.176
43697W        W15226  15.676  15.197  12.008
43698W        W15227  12.355  37.053  13.009
43699W        W15228  17.742  15.174   3.343
43700W        W15229  11.841  25.677  12.820
43701W        W15230   7.531   3.770  14.460
43702W        W15231  30.085   6.831  11.696
43703W        W15232  24.515  33.498  14.588
43704W        W15233  36.301   0.348  14.019
43705W        W15234  20.333   1.713   4.514
43706W        W15235  23.096   8.571   0.018
43707W        W15236   0.008  35.885   2.857
43708W        W15237  24.723  38.818  12.045
43709W        W15238  20.041  21.075  13.312
43710W        W15239  33.377  20.186  14.368
43711W        W15240  34.127   8.427  11.680
43712W        W15241  11.370  26.648  13.406
43713W        W15242  28.693  13.132   2.203
43714W        W15243  35.080   4.669   2.368
43715W        W15244  28.906  29.572   2.701
43716W        W15245  25.043  10.350  11.989
43717W        W15246  24.088  21.040  14.763
43718W        W15247  29.385  38.028   1.435
43719W        W15248  19.965   9.805   0.589
43720W        W15249  13.261  38.292  12.935
43721W        W15250  32.234  15.762  10.994
43722W        W15251  28.587  23.694  10.419
43723W        W15252  39.091   9.221  14.536
43724W        W15253  39.396   9.176   1.394
43725W        W15254  36.035   3.926   1.438
43726W        W15255  43.805  21.623  13.906
43727W        W15256  21.727  19.286   2.272
43728W        W15257  34.100   7.173   0.519
43729W        W15258   7.334  39.370  12.513
43730W        W15259  39.328  42.527  12.630
43731W        W15260  44.097   4.482   3.869
43732W        W15261  25.524   1.660  12.667
43733W        W15262  20.122  39.235  12.101
43734W        W15263   4.301   9.893   2.215
43735W        W15264  44.467  19.238   0.850
43736W        W15265  27.738  16.767   3.114
43737W        W15266  36.316  27.567   2.410
43738W        W15267  18.589  39.148   1.272
43739W        W15268  38.385  28.660   2.630
43740W        W15269  14.229   1.768  12.622
43741W        W15270   3.814  12.354  12.968
43742W        W15271  14.708  23.625   1.397
43743W        W15272  13.417   5.245   0.371
43744W        W15273  41.805  14.394   2.786
43745W        W15274   5.289  30.877  12.168
43746W        W15275  23.436  12.337   3.770
43747W        W15276  41.993  10.749  12.556
43748W        W15277   7.902  42.696  12.559
43749W        W15278  24.529  27.258   0.284
43750W        W15279  25.698  10.327  11.575
43751W        W15280  40.344  18.686  12.553
43752W        W15281  25.798  34.507  11.080
43753W        W15282  14.004   4.587   3.213
43754W        W15283  14.214  17.063   0.274
43755W        W15284   4.764  41.958   4.511
43756W        W15285   2.134  35.860  11.541
43757W        W15286  24.614  30.355   2.308
43758W        W15287  17.088  10.892   4.350
43759W        W15288  36.166  17.885  12.027
43760W        W15289   1.672  22.406   1.789
43761W        W15290  22.230  18.892   4.620
43762W        W15291  12.382  29.367  12.086
43763W        W15292  16.872  39.645   0.211
43764W        W15293  38.775  34.244   4.247
43765W        W15294   5.062  18.471   0.687
43766W        W15295  23.455  36.459  11.444
43767W        W15296   1.508  11.404   2.864
43768W        W15297  39.894  43.744  14.345
43769W        W15298  35.814  16.770  10.858
43770W        W15299  14.139   2.782   0.917
43771W        W15300  31.078  44.793  12.122
43772W        W15301  33.690  12.578  14.367
43773W        W15302  30.504  34.012   0.726
43774W        W15303  27.537  28.943   4.261
43775W        W15304  30.450   7.066  11.980
43776W        W15305  44.931   6.322   1.710
43777W        W15306  18.427  25.861   1.260
43778W        W15307   2.333  22.824  13.139
43779W        W15308  19.268  10.876   4.633
43780W        W15309  11.901  24.138   2.324
43781W        W15310  21.237  38.322  12.016
43782W        W15311  33.226   4.454  11.936
43783W        W15312  30.883  23.647   0.441
43784W        W15313  39.465  29.129  11.531
43785W        W15314  24.004  38.831  14.283
43786W        W15315  23.986   6.840   4.359
43787W        W15316  34.323  30.537   4.660
43788W        W15317  36.349   2.238   0.532
43789W        W15318  21.095  33.646  12.611
43790W        W15319  37.017  44.063   4.198
43791W        W15320   8.806   8.486   4.947
43792W        W15321  29.105  19.527   3.346
43793W        W15322   4.941  24.452   2.149
43794W        W15323  26.060  42.447  12.851
43795W        W15324  19.320  25.206   3.256
43796W        W15325  41.094  14.872   2.462
43797W        W15326  25.514   6.829   1.312
43798W        W15327  19.862  28.888   2.848
43799W        W15328   7.944  23.515   4.970
43800W        W15329   5.936  28.646   2.216
43801W        W15330   4.615  14.106  10.018
43802W        W15331  29.045   3.703   3.379
43803W        W15332   9.028   6.342   1.265
43804W        W15333  32.303  18.494   2.283
43805W        W15334  21.597  29.790  12.999
43806W        W15335  30.478  12.190   3.598
43807W        W15336  44.994  20.488  12.567
43808W        W15337  38.371   9.163   1.256
43809W        W15338  36.161  10.839  12.906
43810W        W15339  15.835  23.963  10.263
43811W        W15340  30.528   3.359   0.039
43812W        W15341  21.503  42.000   0.914
43813W        W15342  19.687  39.993  14.297
43814W        W15343   6.206  24.225  12.912
43815W        W15344  14.842   8.668   1.381
43816W        W15345  14.730  17.736   0.717
43817W        W15346   8.793   0.620  12.585
43818W        W15347  35.536  14.876  13.007
43819W        W15348  42.637   6.431   2.002
43820W        W15349  21.722  41.104   1.128
43821W        W15350  27.986   8.654   4.068
43822W        W15351   7.663  33.527   4.073
43823W        W15352  40.550  24.694   3.773
43824W        W15353  16.762  17.738   2.616
43825W        W15354   9.350   8.663  11.164
43826W        W15355   3.214  25.388   0.383
43827W        W15356  34.869   4.495  12.488
43828W        W15357  22.180  21.548  10.646
43829W        W15358  24.282  11.605   3.015
43830W        W15359  30.068  31.191   1.361
43831W        W15360  38.032  42.780  10.660
43832W        W15361  22.722  21.953  13.327
43833W        W15362  34.418  20.659  11.650
43834W        W15363  40.169  18.658  13.035
43835W        W15364  12.527  16.599  11.160
43836W        W15365  28.494  19.350  10.459
43837W        W15366  30.034  34.058  13.723
43838W        W15367  38.488  18.455   4.554
43839W        W15368  21.057  27.473   4.660
43840W        W15369  14.351  40.828   2.375
43841W        W15370  14.324   1.620   2.331
43842W        W15371  38.327  23.715  13.518
43843W        W15372   9.865  42.884   4.317
43844W        W15373   5.620  16.797   3.164
43845W        W15374  17.097   7.241  10.471
43846W        W15375  26.854  17.728   0.756
43847W        W15376  16.282   6.867  10.766
43848W        W15377  41.370   4.727  14.417
43849W        W15378  21.002  15.524   1.694
43850W        W15379  20.142  20.556  11.504
43851W        W15380  12.099  35.886   0.850
43852W        W15381  30.287  40.517  12.424
43853W        W15382  11.171  21.615   2.977
43854W        W15383  21.680  26.865  11.188
43855W        W15384  27.706  36.532  12.989
43856W        W15385  41.082  22.184  13.978
43857W        W15386  11.847   3.077  10.681
43858W        W15387  26.646  36.807  13.828
43859W        W15388   6.772   0.817   1.668
43860W        W15389   2.388  25.339  11.178
43861W        W15390  36.077  24.153  12.435
43862W        W15391   8.180  31.390  12.414
43863W        W15392   7.121   2.788   4.151
43864W        W15393   4.314  21.768  10.740
43865W        W15394   1.850  31.386  10.707
43866W        W15395  20.977   4.581   2.295
43867W        W15396  33.071  23.240  11.045
43868W        W15397  17.762  33.102  10.435
43869W        W15398   2.835  10.770   1.424
43870W        W15399  29.417  38.373  12.442
43871W        W15400  32.021  28.977  12.931
43872W        W15401  17.376  12.369  12.872
43873W        W15402  15.336  26.852  14.409
43874W        W15403   4.981  42.004   3.217
43875W        W15404   7.216  39.283   2.245
43876W        W15405  21.694  25.081  12.699
43877W        W15406   6.052  18.801   3.016
43878W        W15407  24.431  33.925  12.031
43879W        W15408  32.282  14.077   3.763
43880W        W15409  16.827  10.387   1.351
43881W        W15410  36.824  33.306  14.512
43882W        W15411   8.754  35.781   0.315
43883W        W15412   5.348  18.056   0.885
43884W        W15413  27.070   9.863  10.697
43885W        W15414  30.520  24.264  13.538
43886W        W15415  20.701  22.728  14.734
43887W        W15416  44.524  44.960   0.405
43888W        W15417   5.729   6.218  13.776
43889W        W15418  17.521  14.844  10.805
43890W        W15419  39.909  43.246  14.384
43891W        W15420  43.385   3.280   5.000
43892W        W15421  27.538  29.829   4.096
43893W        W15422   1.340  34.641  10.467
43894W        W15423  21.161  10.425   0.519
43895W        W15424  43.435  31.156  12.686
43896W        W15425   5.831  15.536   0.284
43897W        W15426   7.794   2.923  14.967
43898W        W15427  36.882  37.044   0.212
43899W        W15428  17.758  23.494  14.683
43900W        W15429  36.804  16.125  10.676
43901W        W15430   4.912  10.642  14.402
43902W        W15431  40.532   1.983  10.789
43903W        W15432  44.890  41.934   1.691
43904W        W15433  38.465  26.164  14.564
43905W        W15434  24.505   8.924  13.342
43906W        W15435  30.958  43.383   2.528
43907W        W15436  41.275  18.482   2.742
43908W        W15437  27.048  41.056   3.573
43909W        W15438  17.599   0.332   3.379
43910W        W15439   9.410  12.564  10.283
43911W        W15440  15.783  25.752  12.073
43912W        W15441  18.664   3.425  10.300
43913W        W15442  27.465  31.204  11.075
43914W        W15443   1.290   1.319   1.277
43915W        W15444  13.773   2.922   2.258
43916W        W15445   9.134  37.557  11.617
43917W        W15446  17.614   6.216   2.892
43918W        W15447  23.237  41.323  12.706
43919W        W15448  29.580  44.274  14.520
43920W        W15449  25.608  21.687   2.233
43921W        W15450  18.580  12.554   0.317
43922W        W15451  28.015   5.779  13.810
43923W        W15452  41.990  13.083   1.050
43924W        W15453  36.441  20.893  11.507
43925W        W15454  15.185  26.731  13.926
43926W        W15455  37.758  22.653  10.587
43927W        W15456  34.430   5.372   0.348
43928W        W15457  10.429  15.159   3.140
43929W        W15458  36.829   3.256   0.338
43930W        W15459  17.853  11.340   0.832
43931W        W15460  32.597  26.153   2.995
43932W        W15461  41.387  29.739  10.664
43933W        W15462  22.197  19.399   4.469
43934W        W15463  37.515   7.894   0.221
43935W        W15464  28.988  36.444   1.010
43936W        W15465   4.163  12.893   3.326
43937W        W15466  28.715  10.309   0.345
43938W        W15467  12.624  31.139  12.613
43939W        W15468  31.685   1.365   2.813
43940W        W15469  33.984   3.901   4.646
43941W        W15470  29.409  34.942   1.327
43942W        W15471  12.880  40.535  12.985
43943W        W15472  31.842  18.621   2.459
43944W        W15473  32.213  20.741   2.829
43945W        W15474  13.862  27.040   3.789
43946W        W15475   7.318  31.378  14.917
43947W        W15476  39.074  26.302   4.087
43948W        W15477   0.741  14.297  12.043
43949W        W15478  26.609   1.365   0.958
43950W        W15479   9.821  26.186  12.109
43951W        W15480  35.833  40.315  14.803
43952W        W15481  24.136  23.903  10.472
43953W        W15482  22.687  33.865   3.309
43954W        W15483   7.302   9.472  14.590
43955W        W15484  22.366  14.095   2.617
43956W        W15485  41.362  14.107   2.753
43957W        W15486  20.796  15.019  11.161
43958W        W15487  21.298  38.111   9.866
43959W        W15488  15.753  32.655   4.591
43960W        W15489  15.580  41.038  13.465
43961W        W15490  16.354  28.444   5.308
43962W        W15491  32.663  26.723  14.262
43963W        W15492  26.002   2.645   4.106
43964W        W15493  28.377  21.742  14.466
43965W        W15494  31.941  12.664  14.029
43966W        W15495  35.940  42.476  11.315
43967W        W15496  39.369  34.532   4.521
43968W        W15497  27.564  41.310   1.924
43969W        W15498  12.889  11.842   1.804
43970W        W15499  16.229  22.504  12.852
43971W        W15500  14.753  29.202   4.620
43972W        W15501  18.715   4.448   1.404
43973W        W15502   6.818  36.869  11.178
43974W        W15503  41.492  30.024   3.618
43975W        W15504  40.587  40.372   4.658
43976W        W15505  37.826  27.361  14.038
43977W        W15506  34.906  11.176   1.339
43978W        W15507   9.180  23.163   3.686
43979W        W15508  21.077  42.356   3.938
43980W        W15509   7.755  41.375  10.663
43981W        W15510  43.399  27.701  11.621
43982W        W15511  10.629  38.050   4.584
43983W        W15512  11.935  41.248  13.598
43984W        W15513  39.720  22.934  11.275
43985W        W15514  44.931  37.925   4.505
43986W        W15515  18.888  36.027   2.167
43987W        W15516  39.580  12.234   2.417
43988W        W15517  28.078   1.496   0.748
43989W        W15518  15.106   3.449  11.591
43990W        W15519  30.037  29.137  14.518
43991W        W15520  34.864  14.986   3.308
43992W        W15521  44.007   4.962   4.128
43993W        W15522  41.593  27.689  12.007
43994W        W15523   0.152  21.748  13.629
43995W        W15524  20.435  25.692   4.349
43996W        W15525  39.239  23.789   4.226
43997W        W15526   0.527  37.987   2.302
43998W        W15527  33.488  22.082  12.427
43999W        W15528  30.170  40.281  10.358
44000W        W15529  39.109  37.455   1.883
44001W        W15530   2.353  42.423   4.359
44002W        W15531  35.506  37.148   4.036
44003W        W15532  13.315   2.879  13.203
44004W        W15533  34.333  30.651   1.757
44005W        W15534   7.297  29.655   4.225
44006W        W15535  42.823   7.092  11.557
44007W        W15536  41.478  44.618   3.060
44008W        W15537  32.351  20.429  11.355
44009W        W15538   3.193  23.534  13.333
44010W        W15539   9.900  35.817  11.729
44011W        W15540  11.932  17.229  12.939
44012W        W15541  17.005  11.759   3.285
44013W        W15542  17.715  27.483  14.543
44014W        W15543   3.852   8.209   1.270
44015W        W15544  15.845  15.545  11.620
44016W        W15545  38.418   8.493   0.393
44017W        W15546  44.836  22.191  10.585
44018W        W15547  37.275  12.694   1.661
44019W        W15548  38.477  19.132   0.950
44020W        W15549  27.033   6.694  14.904
44021W        W15550  18.855  35.970  13.160
44022W        W15551  42.298  27.978   4.251
44023W        W15552  26.232   4.178  11.959
44024W        W15553   0.720  28.169   4.079
44025W        W15554  28.506  34.361  13.019
44026W        W15555  12.318   3.017  13.440
44027W        W15556  13.181   3.145  10.681
44028W        W15557  43.960  11.146  10.930
44029W        W15558  33.867  27.467  13.764
44030W        W15559   7.965  44.300  13.842
44031W        W15560  39.266  42.709  10.135
44032W        W15561  21.633  13.256   1.871
44033W        W15562  28.406   8.145   0.000
44034W        W15563  11.565   4.175   4.256
44035W        W15564  17.537  41.710  11.096
44036W        W15565  38.945   6.735  11.954
44037W        W15566  19.843  11.449  12.389
44038W        W15567   6.172  38.332  13.450
44039W        W15568  30.113   6.723  13.551
44040W        W15569   5.186   3.373   0.834
44041W        W15570  20.744  44.563   0.770
44042W        W15571   8.259  30.220  11.946
44043W        W15572  31.126  24.166   1.428
44044W        W15573   5.639  20.001  13.988
44045W        W15574   0.945  24.693  12.488
44046W        W15575   2.668   8.624  12.432
44047W        W15576  30.377  41.815  10.619
44048W        W15577  28.700  27.305   3.638
44049W        W15578  17.805   8.946  13.040
44050W        W15579  35.951  13.682  14.232
44051W        W15580  20.345   9.663   1.906
44052W        W15581  22.085  44.452   3.864
44053W        W15582   9.171   6.258  12.798
44054W        W15583  22.706  15.586   2.737
44055W        W15584  35.587  11.139  12.137
44056W        W15585   1.421  11.240  13.351
44057W        W15586  11.670   8.235   4.366
44058W        W15587  25.039  37.589   3.687
44059W        W15588  38.477   6.039   3.374
44060W        W15589   1.849  17.106  12.766
44061W        W15590  42.444  44.430   4.565
44062W        W15591  38.635  12.148   5.296
44063W        W15592   2.739  39.454   0.835
44064W        W15593  16.682  23.841   4.097
44065W        W15594  12.646  13.285  13.644
44066W        W15595   6.279  28.191  11.585
44067W        W15596  20.310  38.999  12.543
44068W        W15597   1.430  10.111  12.478
44069W        W15598  33.588  29.345  12.627
44070W        W15599   9.477  31.007   1.718
44071W        W15600  39.312  19.470  13.369
44072W        W15601  17.839  11.414  13.652
44073W        W15602  12.975  17.761  10.694
44074W        W15603  10.542   4.329   2.431
44075W        W15604  31.228  37.761  13.886
44076W        W15605  27.062   0.520   4.483
44077W        W15606  36.408  26.491   0.197
44078W        W15607  17.530  12.658  13.289
44079W        W15608  14.619  37.971  12.088
44080W        W15609  44.735  36.300  12.918
44081W        W15610  38.813  14.975   4.264
44082W        W15611  11.140  20.240  12.858
44083W        W15612  20.992  32.127  12.491
44084W        W15613  21.354   6.672  14.128
44085W        W15614  27.499  23.842   0.821
44086W        W15615  25.770  32.974  14.659
44087W        W15616  16.354  40.317   4.190
44088W        W15617  20.872  39.474   3.286
44089W        W15618  22.972  17.142  14.795
44090W        W15619   4.826  15.387  12.900
44091W        W15620  36.307  23.064  14.229
44092W        W15621  27.030  38.605   4.574
44093W        W15622  29.039   0.686  11.940
44094W        W15623  36.581  17.326  11.915
44095W        W15624  18.530  15.474   3.229
44096W        W15625  19.628  15.125   1.745
44097W        W15626  25.234   7.008  14.114
44098W        W15627  41.046  21.768   3.334
44099W        W15628  21.810   5.161  14.379
44100W        W15629   1.503  32.989  14.859
44101W        W15630   9.278  22.856  11.278
44102W        W15631  36.580   5.166  13.825
44103W        W15632  32.901  43.803  11.500
44104W        W15633  15.215  11.070  11.157
44105W        W15634  38.381  20.967  13.657
44106W        W15635   3.983  17.806   4.102
44107W        W15636  44.628  15.408  12.891
44108W        W15637  33.204  14.931   1.240
44109W        W15638  24.437  20.535  13.860
44110W        W15639  28.677  16.852  11.488
44111W        W15640  23.751   3.169   2.778
44112W        W15641   0.779  28.632  12.894
44113W        W15642  22.966  26.416  11.470
44114W        W15643  17.598  38.910   2.776
44115W        W15644  43.055  16.530   1.247
44116W        W15645  18.514  29.108   3.146
44117W        W15646  33.422  13.924   2.378
44118W        W15647  23.639   7.153   2.207
44119W        W15648  33.802  23.688   3.380
44120W        W15649  44.700  44.940   0.929
44121W        W15650  15.181  31.085  11.182
44122W        W15651   4.232  19.225  11.022
44123W        W15652   4.453  42.085   3.240
44124W        W15653  23.217   9.793   2.113
44125W        W15654  13.175   0.730   4.522
44126W        W15655   1.561   6.309   0.874
44127W        W15656   7.173   8.567  10.815
44128W        W15657  21.335  32.135   3.187
44129W        W15658  29.066   4.960   3.345
44130W        W15659   3.557  28.100   2.812
44131W        W15660  42.721  16.104  11.941
44132W        W15661  29.406   2.307  14.070
44133W        W15662  28.071  24.599  10.671
44134W        W15663   9.462  19.693  12.867
44135W        W15664   4.366   6.300  14.920
44136W        W15665  22.636  16.523  10.689
44137W        W15666  41.748  15.188  13.432
44138W        W15667   1.174   5.356  13.646
44139W        W15668  27.671  39.601   4.033
44140W        W15669   7.978  15.759  14.986
44141W        W15670  33.442   3.753   3.735
44142W        W15671  14.618  12.722   2.630
44143W        W15672  43.794   3.380  14.922
44144W        W15673  34.563  13.375  14.074
44145W        W15674   5.137  37.404  14.296
44146W        W15675  25.951  10.669   4.851
44147W        W15676  15.263  29.911   4.449
44148W        W15677  25.267  30.091  13.466
44149W        W15678  19.063  23.719   1.225
44150W        W15679  11.694  28.091   4.596
44151W        W15680  35.088   3.202   0.995
44152W        W15681  42.578   1.726  12.451
44153W        W15682  11.078  27.913   0.336
44154W        W15683   6.345  11.779   4.926
44155W        W15684   1.197  35.058   3.175
44156W        W15685  32.461  27.061  12.828
44157W        W15686  17.957   4.504   1.963
44158W        W15687  31.682  31.922  12.437
44159W        W15688  10.190  42.365   1.733
44160W        W15689   7.473  35.416   1.984
44161W        W15690  40.496  36.836   1.905
44162W        W15691  37.491  29.746   1.770
44163W        W15692  16.831  21.114   0.930
44164W        W15693  35.711  16.173  13.387
44165W        W15694  39.852  40.794   4.086
44166W        W15695  43.555  10.773  12.097
44167W        W15696  38.511  10.912   0.980
44168W        W15697  11.809  35.080  12.655
44169W        W15698  42.364  43.852   1.749
44170W        W15699  35.484  40.875   0.958
44171W        W15700   1.216  28.025  13.998
44172W        W15701  43.524  29.938  13.439
44173W        W15702  26.139  39.038   3.868
44174W        W15703   3.908   8.435   4.660
44175W        W15704  41.899   7.286  13.531
44176W        W15705  34.048  11.603   3.656
44177W        W15706   8.284  39.117  10.519
44178W        W15707  12.004  20.312  10.995
44179W        W15708  12.778  44.435  14.063
44180W        W15709  31.049  13.326   4.107
44181W        W15710   8.645  24.203  14.025
44182W        W15711  30.951  15.891  11.011
44183W        W15712  10.155  25.666  10.889
44184W        W15713  30.511  21.707   1.511
44185W        W15714  15.044   1.886   1.759
44186W        W15715  32.844  11.523  10.786
44187W        W15716  43.509  28.071   2.679
44188W        W15717  28.722   8.318  14.634
44189W        W15718  41.911  28.967   0.265
44190W        W15719   1.351   4.406   2.087
44191W        W15720  31.397  22.246   1.785
44192W        W15721  14.440  39.248   2.763
44193W        W15722  19.612  35.385   1.177
44194W        W15723  12.952   4.443  13.499
44195W        W15724  41.979  25.606   1.118
44196W        W15725  13.667   0.383  11.832
44197W        W15726  16.020  33.057  13.823
44198W        W15727  23.184  10.767   2.774
44199W        W15728  13.987  20.065   3.225
44200W        W15729  29.357   7.339  12.493
44201W        W15730   2.052   1.955  11.693
44202W        W15731  32.994  39.682   1.677
44203W        W15732  42.345  14.612  12.443
44204W        W15733  31.194  41.748  14.952
44205W        W15734  17.047   9.611  14.486
44206W        W15735  15.228  26.195  10.238
44207W        W15736   9.443  19.062   9.746
44208W        W15737   0.433  29.683   4.525
44209W        W15738  18.529  30.038   0.541
44210W        W15739  23.087   4.749  12.413
44211W        W15740  38.287  29.590   1.440
44212W        W15741  42.263  31.181   1.455
44213W        W15742  30.525  43.816  11.134
44214W        W15743   3.717  20.623  14.731
44215W        W15744  29.608  21.207  14.461
44216W        W15745  31.164  17.535  10.483
44217W        W15746   6.003  40.859   2.558
44218W        W15747  31.659  18.466  14.832
44219W        W15748  30.841  44.232   3.182
44220W        W15749  11.807   5.138  12.412
44221W        W15750   3.479  41.756   2.784
44222W        W15751  22.686  22.078  11.316
44223W        W15752  21.160  26.010   0.088
44224W        W15753  43.550  43.367  10.985
44225W        W15754  13.533  23.677   0.032
44226W        W15755   8.116  19.785  14.849
44227W        W15756  28.609   0.410   3.874
44228W        W15757  41.048   1.941   3.699
44229W        W15758   1.365   3.371  12.432
44230W        W15759   3.316  13.900  13.971
44231W        W15760   2.248  11.173   0.364
44232W        W15761  25.530  16.155  10.611
44233W        W15762  43.916   2.134   3.205
44234W        W15763  17.292  41.964  11.467
44235W        W15764  16.377  25.110  14.012
44236W        W15765  22.714  42.900   3.732
44237W        W15766  18.256  40.969   3.581
44238W        W15767  43.267  13.138   2.414
44239W        W15768  18.631  17.149   4.805
44240W        W15769  31.503  13.152   4.229
44241W        W15770   0.750  11.797  12.528
44242W        W15771  26.174  20.198   3.818
44243W        W15772  30.617  40.849  11.568
44244W        W15773  15.133  44.747   4.119
44245W        W15774   3.875  40.823  11.554
44246W        W15775   6.667  10.035   0.315
44247W        W15776  25.054   8.913  12.054
44248W        W15777  38.633  31.626  13.659
44249W        W15778  16.473  12.461  13.903
44250W        W15779  31.961  29.172  10.748
44251W        W15780  23.135   2.326  14.318
44252W        W15781  10.731  15.526  14.436
44253W        W15782  27.899  35.976   2.153
44254W        W15783  24.229   2.905  12.522
44255W        W15784  16.351  20.189  11.584
44256W        W15785  34.411  29.400   2.016
44257W        W15786  44.172  40.670   0.925
44258W        W15787  36.024  13.812  14.731
44259W        W15788  24.967  17.574  14.395
44260W        W15789   0.505  20.749   4.470
44261W        W15790  29.773  33.477  14.556
44262W        W15791   6.842  38.010   0.328
44263W        W15792  24.168  23.493   0.867
44264W        W15793  21.028  37.210  14.896
44265W        W15794  42.397   1.914  11.094
44266W        W15795  23.103  21.708  11.125
44267W        W15796  34.144  43.497   3.598
44268W        W15797   1.261  15.665   1.749
44269W        W15798  21.981   3.380   4.487
44270W        W15799  34.860   3.471   1.816
44271W        W15800  26.660  32.451  13.418
44272W        W15801  35.665   7.325   4.169
44273W        W15802  38.561  19.649   1.740
44274W        W15803  18.621  16.049  14.938
44275W        W15804  15.019  26.461   4.505
44276W        W15805  11.280  44.633  12.941
44277W        W15806   6.238  32.523   4.122
44278W        W15807  23.565  44.496  11.077
44279W        W15808  15.005  44.936   1.652
44280W        W15809  36.604  16.790   0.439
44281W        W15810   7.310  32.057   1.843
44282W        W15811  12.239  20.356   3.771
44283W        W15812  40.136   5.887   0.232
44284W        W15813   4.816  40.501   2.970
44285W        W15814  26.216   5.899   0.863
44286W        W15815  16.577   0.348   0.950
44287W        W15816  28.065   4.740   1.892
44288W        W15817  20.352  39.924  13.505
44289W        W15818  32.648  38.775  11.911
44290W        W15819  44.575  13.722   5.123
44291W        W15820  30.192  13.791   0.912
44292W        W15821  18.475  29.095   0.390
44293W        W15822  11.171  40.879  14.036
44294W        W15823  31.171   4.829  12.618
44295W        W15824  36.678  42.555  13.910
44296W        W15825  16.570  36.000   0.767
44297W        W15826  14.237  11.343   4.366
44298W        W15827  12.718  19.067  11.844
44299W        W15828  41.754  35.326   0.791
44300W        W15829   0.697  41.753   4.135
44301W        W15830  15.188  35.554   0.307
44302W        W15831  18.055  32.145  14.509
44303W        W15832  41.562  26.035   0.787
44304W        W15833  43.499   7.773  11.558
44305W        W15834  11.213  37.451   1.398
44306W        W15835  14.730   3.409   1.218
44307W        W15836  11.451  11.191  14.942
44308W        W15837  35.918  41.990  11.110
44309W        W15838  21.929  17.186  11.515
44310W        W15839  18.250   7.634   0.905
44311W        W15840  34.395   5.909   4.190
44312W        W15841  26.748  11.156  11.109
44313W        W15842  35.596  22.713   1.152
44314W        W15843  34.247   6.232  11.466
44315W        W15844  20.607  40.807  14.703
44316W        W15845  14.428  18.897   5.084
44317W        W15846  42.006  44.073   0.039
44318W        W15847  20.217  21.040   0.172
44319W        W15848  44.813  24.793   0.786
44320W        W15849  21.632   9.178  14.112
44321W        W15850  36.953   6.325  13.965
44322W        W15851  20.604   3.631   0.707
44323W        W15852  23.788  37.070   4.378
44324W        W15853   6.057  34.981  14.008
44325W        W15854  12.181  40.839  13.324
44326W        W15855  18.607   1.795  13.853
44327W        W15856  23.935  27.984  13.177
44328W        W15857  44.210  30.573   2.319
44329W        W15858  12.524   4.035  14.336
44330W        W15859  20.922   3.791  11.332
44331W        W15860  41.482   1.957  12.972
44332W        W15861  29.708  18.868  13.917
44333W        W15862  37.485  38.624  12.111
44334W        W15863  22.992  24.802  10.855
44335W        W15864  34.620  40.830  14.994
44336W        W15865  41.803  38.385  14.306
44337W        W15866  18.462  42.924   3.809
44338W        W15867   7.469  11.778  12.537
44339W        W15868  28.548   3.661   3.212
44340W        W15869  37.916  10.178  14.065
44341W        W15870  17.553  24.729   1.984
44342W        W15871  22.581  11.662  11.564
44343W        W15872  23.213  26.945   1.317
44344W        W15873  41.403   3.770   2.480
44345W        W15874  19.149  34.037   0.221
44346W        W15875  11.928  12.390  11.126
44347W        W15876  17.690   3.237  12.432
44348W        W15877   6.679  22.824   1.903
44349W        W15878   4.313  33.165   3.589
44350W        W15879  42.900   9.621   4.145
44351W        W15880  27.533  29.501   0.351
44352W        W15881  30.637   7.367  10.633
44353W        W15882   8.657  15.114  11.457
44354W        W15883  34.895  43.452  13.762
44355W        W15884  11.675  11.422   1.832
44356W        W15885   4.948  41.324   1.819
44357W        W15886   4.119  38.378   1.384
44358W        W15887  37.648  11.249  13.356
44359W        W15888  16.175  13.498  13.001
44360W        W15889  27.681  27.848   0.740
44361W        W15890  44.458  33.807  12.936
44362W        W15891  18.088   4.818   2.380
44363W        W15892   8.213  38.904  14.794
44364W        W15893   1.003  21.381   4.116
44365W        W15894  42.492  34.831   1.862
44366W        W15895  43.315   9.416  11.877
44367W        W15896  29.883  30.086  14.953
44368W        W15897   7.146  22.438   3.028
44369W        W15898  31.900  35.047   2.659
44370W        W15899  31.841  30.948  14.879
44371W        W15900   0.360  41.428  14.033
44372W        W15901  21.325  26.730  14.594
44373W        W15902  13.792  30.074   1.372
44374W        W15903   7.917   8.930  11.265
44375W        W15904  22.593  39.251   4.220
44376W        W15905  37.286  36.961  12.052
44377W        W15906   8.227  19.364  12.661
44378W        W15907  41.176  27.875  13.399
44379W        W15908  37.042  16.622  10.754
44380W        W15909  29.580  41.143   1.619
44381W        W15910  33.460   0.289  11.218
44382W        W15911  38.103  13.005   1.869
44383W        W15912   1.101  14.797   0.202
44384W        W15913   8.128  38.490  13.998
44385W        W15914   1.134  38.884   1.435
44386W        W15915   2.271  21.140  11.282
44387W        W15916  33.607  43.022  11.057
44388W        W15917  15.089  21.203  11.065
44389W        W15918  30.701  39.821   3.791
44390W        W15919  38.416  36.037   0.350
44391W        W15920  38.474  38.905  12.538
44392W        W15921   3.705  14.298  10.736
44393W        W15922  31.338  20.455   4.323
44394W        W15923  39.506  30.182  13.008
44395W        W15924  17.893  15.196   2.551
44396W        W15925   0.979  32.479   2.395
44397W        W15926  19.061  32.076   4.133
44398W        W15927  31.358  11.258   3.601
44399W        W15928   6.886  24.707   3.481
44400W        W15929   2.961  40.331   4.346
44401W        W15930   4.399  15.226   1.984
44402W        W15931  25.315  33.029   4.982
44403W        W15932   5.555  35.097   3.136
44404W        W15933  18.144  19.818  12.194
44405W        W15934  37.160   2.492   2.655
44406W        W15935  13.721   2.472   0.859
44407W        W15936  36.838  16.746  14.985
44408W        W15937  44.453  38.001   3.156
44409W        W15938  29.683  16.839   4.248
44410W        W15939  15.224  13.421   1.835
44411W        W15940  15.619  18.210   3.829
44412W        W15941   3.444   4.519  13.418
44413W        W15942  18.148  23.284   4.132
44414W        W15943  28.931  26.759  12.121
44415W        W15944  21.063  14.985   4.353
44416W        W15945  22.294   9.623  11.976
44417W        W15946   3.120  11.761   3.239
44418W        W15947  27.189  42.807  11.255
44419W        W15948  26.012  40.077   2.972
44420W        W15949  28.199  42.299  13.885
44421W        W15950  15.804  22.273   3.241
44422W        W15951  23.157  42.053   2.050
44423W        W15952   8.195  17.735   0.903
44424W        W15953   0.103  44.113  14.901
44425W        W15954  36.831   8.645  12.005
44426W        W15955  27.627  25.964  12.403
44427W        W15956  22.741   1.988  14.253
44428W        W15957  20.040  11.306  14.057
44429W        W15958   5.157  30.553   1.252
44430W        W15959  13.596  20.354   3.600
44431W        W15960  23.683   7.757   0.247
44432W        W15961  21.321  16.864  14.327
44433W        W15962   7.879  37.789  10.541
44434W        W15963  42.961  28.943  13.117
44435W        W15964  13.182   8.193   4.788
44436W        W15965  16.332   4.341   0.640
44437W        W15966  22.535  21.049   3.039
44438W        W15967  32.653   3.866  12.404
44439W        W15968  31.897  23.595   2.311
44440W        W15969   4.495  27.603  14.652
44441W        W15970   4.920   8.326   0.776
44442W        W15971  39.768  23.067  12.129
44443W        W15972  28.945  26.153  12.925
44444W        W15973  32.139   7.787   0.489
44445W        W15974  21.135  22.003  14.877
44446W        W15975  32.430  29.125   0.574
44447W        W15976   1.238  43.354   0.943
44448W        W15977  38.882  25.144   1.510
44449W        W15978   0.935  14.363  12.511
44450W        W15979  43.331  40.421   4.170
44451W        W15980  30.877   9.174   2.189
44452W        W15981  35.089  39.367   2.964
44453W        W15982  28.125   6.661   3.561
44454W        W15983   5.212   7.435   0.826
44455W        W15984  43.357  33.818   3.286
44456W        W15985  33.989   6.273  13.844
44457W        W15986  39.445  29.400   1.722
44458W        W15987  14.560  41.163   4.126
44459W        W15988  21.431   3.744  11.137
44460W        W15989  16.256  13.980  11.852
44461W        W15990  44.355  37.401  12.611
44462W        W15991   3.508   3.527   4.205
44463W        W15992  41.368   2.742   4.307
44464W        W15993  34.962  43.503   0.330
44465W        W15994  32.043  33.497  12.039
44466W        W15995  38.492  31.935  12.018
44467W        W15996  12.853  41.520   2.074
44468W        W15997  42.728  39.783   4.208
44469W        W15998   3.916  19.380   3.404
44470W        W15999   6.296  29.751  12.652
44471W        W16000  30.205  27.505   3.650
44472W        W16001  17.127   5.032  12.149
44473W        W16002  30.559  22.663   4.244
44474W        W16003  37.002  30.415  14.331
44475W        W16004  44.645  14.901  13.006
44476W        W16005  32.010  33.349   3.840
44477W        W16006  41.051  18.864  13.152
44478W        W16007  14.206   0.828   3.570
44479W        W16008  29.855  25.202   4.149
44480W        W16009  25.610   2.455  13.850
44481W        W16010  29.758  29.669  11.112
44482W        W16011  28.774  39.078   3.335
44483W        W16012   2.440  40.416   1.206
44484W        W16013  37.339   9.419  14.267
44485W        W16014  18.685   3.448   0.405
44486W        W16015  21.836   6.808   0.019
44487W        W16016  16.765  33.196   1.223
44488W        W16017   4.211  23.184   3.329
44489W        W16018  36.587  10.956   1.917
44490W        W16019  15.904   0.045  11.072
44491W        W16020  11.827  40.955   4.837
44492W        W16021  31.205  33.642  14.257
44493W        W16022  34.118  30.685   3.764
44494W        W16023  42.790  20.045  12.075
44495W        W16024  35.379   4.166  13.064
44496W        W16025  41.657  38.760   4.149
44497W        W16026  11.844  34.975   1.016
44498W        W16027  43.564  38.868   3.102
44499W        W16028   5.506  27.034   3.651
44500W        W16029   8.677  27.654   1.794
44501W        W16030  42.427  40.508   0.474
44502W        W16031  20.648  39.533  14.042
44503W        W16032  24.819  22.037   2.109
44504W        W16033  43.771  37.813  12.167
44505W        W16034  40.220  30.355   2.108
44506W        W16035  15.399  21.292  13.422
44507W        W16036  20.810  37.985   3.224
44508W        W16037  40.725  31.112   1.339
44509W        W16038   9.921  14.137   0.481
44510W        W16039   4.176   7.944  11.633
44511W        W16040  11.126  12.613   1.901
44512W        W16041  26.218  25.568  12.095
44513W        W16042  31.998  18.162  11.910
44514W        W16043   7.154  21.011   1.800
44515W        W16044  16.293  15.673  13.510
44516W        W16045  25.001  28.516   1.412
44517W        W16046  28.460  24.017  13.445
44518W        W16047   4.646  32.467  14.030
44519W        W16048  23.223  19.730  11.729
44520W        W16049  30.601  44.812   3.168
44521W        W16050  24.840   1.794  14.788
44522W        W16051  29.428  37.877  11.132
44523W        W16052   1.662  20.576  14.799
44524W        W16053  13.862  19.285   0.492
44525W        W16054  20.648   7.440  12.064
44526W        W16055  41.529  34.522   3.825
44527W        W16056  41.422  10.854   3.753
44528W        W16057  27.366  28.035   1.307
44529W        W16058  40.369  21.765  13.290
44530W        W16059  39.487  31.418  10.713
44531W        W16060  30.603  11.361   1.348
44532W        W16061  22.984  26.041   2.176
44533W        W16062  25.180   0.878  10.449
44534W        W16063  11.164  38.891  11.029
44535W        W16064   7.166  19.647   0.222
44536W        W16065  25.208  29.720   3.421
44537W        W16066  34.085  38.929  12.977
44538W        W16067  24.498  11.852  14.428
44539W        W16068  20.787  33.127  10.435
44540W        W16069  42.726  43.186   1.293
44541W        W16070  27.041  41.972   3.298
44542W        W16071   9.152  27.118  14.806
44543W        W16072  20.180  36.628   2.355
44544W        W16073  41.864  10.117  13.890
44545W        W16074  35.873  26.709   1.717
44546W        W16075   6.731  31.971   2.606
44547W        W16076  25.671  19.180  14.353
44548W        W16077  26.609   1.522  11.125
44549W        W16078  25.011  28.181  12.194
44550W        W16079  20.679   0.266   1.347
44551W        W16080  30.130  44.044  13.791
44552W        W16081  12.304   8.857  12.318
44553W        W16082  42.598  12.336  12.025
44554W        W16083  15.637  30.204   4.623
44555W        W16084  10.075  25.099  11.539
44556W        W16085   3.749  15.110   4.501
44557W        W16086  27.960   9.641   2.346
44558W        W16087  27.116  31.521   4.450
44559W        W16088  43.331  39.564  13.465
44560W        W16089   8.505  37.380   4.095
44561W        W16090   3.045  44.162  11.586
44562W        W16091  13.711  10.642   0.063
44563W        W16092  17.575   5.776   1.592
44564W        W16093  32.428  27.554   4.046
44565W        W16094  15.654  37.280  13.980
44566W        W16095  17.512  16.835   1.418
44567W        W16096  33.507   6.301  12.026
44568W        W16097  37.359  15.615   1.411
44569W        W16098  30.360  13.308  10.269
44570W        W16099  30.469  21.565  10.998
44571W        W16100  40.568  31.110   4.528
44572W        W16101  12.410  34.768  11.874
44573W        W16102   1.319  17.552   1.688
44574W        W16103  21.953  29.487  10.624
44575W        W16104  35.016  15.345   2.211
44576W        W16105  37.517  44.095   1.912
44577W        W16106  22.580  36.441   4.966
44578W        W16107   5.023  43.832   1.296
44579W        W16108  20.617  27.175   2.711
44580W        W16109  11.619  14.354   2.644
44581W        W16110  17.974  41.923   1.640
44582W        W16111  31.376  43.441  11.225
44583W        W16112  17.079  38.434   3.334
44584W        W16113  16.429  37.381  10.736
44585W        W16114   9.568  43.902   2.142
44586W        W16115  11.000  32.490  12.791
44587W        W16116  40.795  33.158   3.359
44588W        W16117   3.901  21.160   0.079
44589W        W16118  43.498   2.444   0.244
44590W        W16119  43.196  24.052   4.644
44591W        W16120  22.897   3.117  11.556
44592W        W16121  18.683  23.575  13.579
44593W        W16122  33.597  25.116  13.013
44594W        W16123   1.001  15.065  13.004
44595W        W16124  22.977  16.055   3.270
44596W        W16125  14.339  15.676   1.568
44597W        W16126   4.506  21.730  11.594
44598W        W16127  36.288  40.025  11.914
44599W        W16128  28.637  25.944  11.986
44600W        W16129  40.988  32.704   2.250
44601W        W16130  25.467  31.255   3.133
44602W        W16131   9.514  25.519   1.819
44603W        W16132  24.943  10.425   3.265
44604W        W16133  19.761  37.847   3.741
44605W        W16134  38.129  38.278  13.550
44606W        W16135  26.052  23.047   4.432
44607W        W16136  26.755  44.388  14.809
44608W        W16137  37.405   5.206   3.124
44609W        W16138  39.329  18.662   2.392
44610W        W16139   7.190  28.977   1.547
44611W        W16140  13.506   3.926  11.679
44612W        W16141  11.237   4.304   1.679
44613W        W16142  33.322  19.275   0.987
44614W        W16143  13.259  39.961  11.857
44615W        W16144  41.233  44.856  12.600
44616W        W16145  17.412  37.136  13.335
44617W        W16146   9.209  35.623  12.124
44618W        W16147  35.330  36.511   0.924
44619W        W16148  22.148  19.815  11.345
44620W        W16149  38.835  23.094   0.944
44621W        W16150  27.668   2.936   0.946
44622W        W16151   6.716   9.320   3.569
44623W        W16152  10.838  31.924  14.219
44624W        W16153  29.388  26.291  13.944
44625W        W16154  18.649  29.864   4.292
44626W        W16155  25.443   2.637   1.094
44627W        W16156  38.332  41.281   4.617
44628W        W16157  24.040  19.524  12.622
44629W        W16158  37.502  24.595   3.333
44630W        W16159  15.282  11.901   0.256
44631W        W16160  21.497  17.273   4.094
44632W        W16161  18.352   1.309  11.811
44633W        W16162  42.274  43.303  10.553
44634W        W16163   5.029  28.120  10.451
44635W        W16164  11.555  20.147   4.654
44636W        W16165   1.397   0.781  11.196
44637W        W16166   0.673   8.000   5.116
44638W        W16167  39.290  44.457   0.430
44639W        W16168  37.240  26.833   3.315
44640W        W16169  11.588  12.620   0.583
44641W        W16170  25.433  38.889  12.610
44642W        W16171  27.146  31.748  13.332
44643W        W16172  24.941   4.235   0.101
44644W        W16173   5.829  25.450   1.902
44645W        W16174  31.513   4.642  11.641
44646W        W16175  36.689  23.912   1.787
44647W        W16176   1.332  23.703   1.095
44648W        W16177   0.753  26.138  13.624
44649W        W16178  34.802  25.592  11.045
44650W        W16179  40.865  27.116  13.168
44651W        W16180   6.892  43.437   1.354
44652W        W16181  44.459  12.414  12.833
44653W        W16182  42.998   1.194  11.206
44654W        W16183  42.769  10.309  14.323
44655W        W16184  39.562  28.205   3.639
44656W        W16185  25.529  26.739  11.212
44657W        W16186  29.672  21.958   0.620
44658W        W16187   7.670  40.571   3.641
44659W        W16188  34.587  37.353  11.091
44660W        W16189  10.129  32.013  13.815
44661W        W16190   2.270  27.824  11.962
44662W        W16191  27.996  20.837  11.170
44663W        W16192  12.809  12.890  12.309
44664W        W16193   9.343   7.682  11.108
44665W        W16194  18.146  35.968   4.636
44666W        W16195  12.641   0.367  14.805
44667W        W16196  18.822  27.962  12.393
44668W        W16197  32.435  37.824   3.276
44669W        W16198  30.459  41.373   2.618
44670W        W16199  27.788  20.997   2.710
44671W        W16200  44.326  38.367  12.549
44672W        W16201  23.189   3.783  12.933
44673W        W16202  18.757   5.884   1.263
44674W        W16203  24.068   7.320   3.485
44675W        W16204   5.976   1.246   4.177
44676W        W16205  28.592  19.221  11.958
44677W        W16206  21.564   0.574  14.367
44678W        W16207   0.810  36.851  10.698
44679W        W16208  28.238  13.497  13.635
44680W        W16209  42.978  27.818   1.982
44681W        W16210  39.859  37.749  11.813
44682W        W16211  27.561  19.003   4.080
44683W        W16212  32.938   7.470  10.502
44684W        W16213  34.920  31.255  11.585
44685W        W16214  20.771  19.230  12.564
44686W        W16215  40.831  10.853  13.147
44687W        W16216  16.803  20.018  13.906
44688W        W16217  12.275   3.391  11.126
44689W        W16218  20.719  41.684  13.115
44690W        W16219  10.776  43.832   9.754
44691W        W16220  17.057  44.527   2.055
44692W        W16221  39.609   0.264  13.462
44693W        W16222  10.897  10.814   0.309
44694W        W16223  18.756  21.274   1.341
44695W        W16224   1.165  12.255   4.641
44696W        W16225  12.231  19.067  14.506
44697W        W16226  37.607  22.187   2.238
44698W        W16227   2.949  31.080   1.045
44699W        W16228   2.062   7.074  11.307
44700W        W16229   9.590  18.276  13.981
44701W        W16230  25.498  32.901   0.477
44702W        W16231  12.099  35.387  11.149
44703W        W16232  28.453   7.657   4.747
44704W        W16233  17.193  26.901   3.767
44705W        W16234  41.914  38.501   1.950
44706W        W16235  28.543   8.344   0.481
44707W        W16236  11.664  37.941  13.345
44708W        W16237   2.236   7.639  13.408
44709W        W16238   3.120  36.831   2.889
44710W        W16239  14.174  16.631   0.593
44711W        W16240  15.758  30.693  13.728
44712W        W16241  23.122  12.662   4.566
44713W        W16242  40.340  27.633  13.763
44714W        W16243   0.019   6.223  11.934
44715W        W16244  14.722  42.100  11.230
44716W        W16245  26.476  18.603   2.009
44717W        W16246  18.764  33.361   4.884
44718W        W16247  19.855  10.710  13.431
44719W        W16248  20.200  38.857   2.734
44720W        W16249  13.132  43.330  12.938
44721W        W16250  35.781  16.632  12.431
44722W        W16251  12.188  42.226   3.655
44723W        W16252  23.287  43.469  11.203
44724W        W16253  13.051   3.229  14.980
44725W        W16254   7.389   1.835   4.661
44726W        W16255  22.462  44.921  11.482
44727W        W16256  11.356   4.749  13.577
44728W        W16257   1.946   0.471   2.237
44729W        W16258   7.231  20.764   4.214
44730W        W16259  40.241  10.318  13.538
44731W        W16260  24.295  30.150  14.563
44732W        W16261  43.361  31.377   1.339
44733W        W16262  28.570   4.179   1.763
44734W        W16263   5.813  21.246  11.232
44735W        W16264  37.845  43.741  11.936
44736W        W16265  36.159  23.857  12.979
44737W        W16266   0.212  16.825  14.607
44738W        W16267  30.990  33.333   3.140
44739W        W16268   8.881  40.706   3.138
44740W        W16269   8.519   4.722   4.136
44741W        W16270  44.015  25.606  12.979
44742W        W16271  10.448  15.567   2.413
44743W        W16272  19.764   3.275   2.591
44744W        W16273  18.978   7.892  13.977
44745W        W16274   8.155  27.583  11.871
44746W        W16275   1.739  31.925  12.513
44747W        W16276   0.242  32.353   4.178
44748W        W16277  39.237  33.971  14.614
44749W        W16278   7.760  26.641   0.929
44750W        W16279  27.975  12.613  11.188
44751W        W16280   7.223   0.958   1.944
44752W        W16281  14.596   0.809   3.899
44753W        W16282  31.318  39.682  14.306
44754W        W16283  22.975  41.724   1.262
44755W        W16284   4.243  21.988  13.008
44756W        W16285  37.661  30.514  13.487
44757W        W16286  43.840  16.639   5.015
44758W        W16287   8.329   9.833   3.544
44759W        W16288  12.125  40.944  11.905
44760W        W16289  30.871   7.898  11.904
44761W        W16290  37.454  26.169   4.845
44762W        W16291  36.390   7.209  14.909
44763W        W16292  24.192   9.830  14.781
44764W        W16293  23.185  42.358   2.681
44765W        W16294  16.773   1.777   0.310
44766W        W16295  43.225   8.808  12.630
44767W        W16296  26.401  25.443  14.324
44768W        W16297  22.204  28.572   4.892
44769W        W16298  28.932  10.734   4.079
44770W        W16299  19.449   1.830  11.152
44771W        W16300  18.548  33.988   2.256
44772W        W16301  21.686  29.969   4.380
44773W        W16302  25.537   1.880   0.354
44774W        W16303  29.652  14.233   3.610
44775W        W16304  19.301  42.898   2.281
44776W        W16305   5.398   8.835   3.770
44777W        W16306  19.728  24.551  11.190
44778W        W16307   1.705   5.071  10.684
44779W        W16308  21.221  34.146  11.357
44780W        W16309  20.844   7.172  10.969
44781W        W16310  36.542   5.943  11.166
44782W        W16311  15.787   3.790   2.272
44783W        W16312  27.166  14.707   0.417
44784W        W16313  40.013  19.880  13.029
44785W        W16314  39.814  12.862  13.144
44786W        W16315   1.811  11.675  13.474
44787W        W16316   6.259   8.972   2.770
44788W        W16317  39.010  43.778   0.922
44789W        W16318  39.791   9.904   1.920
44790W        W16319  38.405  42.548   0.934
44791W        W16320  37.604  24.168  12.981
44792W        W16321  21.123  37.434  11.069
44793W        W16322  40.972   1.867   1.729
44794W        W16323   8.140  25.378  12.738
44795W        W16324  35.966  27.664   0.120
44796W        W16325  28.411  44.598  12.183
44797W        W16326  40.728  38.841   0.978
44798W        W16327   9.712  16.193  14.427
44799W        W16328  34.278  13.428  13.654
44800W        W16329  29.944  40.586   1.374
44801W        W16330  21.445  43.281  14.362
44802W        W16331  41.057  44.166  13.606
44803W        W16332  21.776  30.100   3.220
44804W        W16333  37.306  31.742   4.591
44805W        W16334  23.614  39.365   5.095
44806W        W16335  22.290  43.523  12.436
44807W        W16336  31.509  13.100  11.069
44808W        W16337   9.229   2.993  14.315
44809W        W16338  36.111  41.032  12.000
44810W        W16339  11.636  40.500  12.597
44811W        W16340   9.354  15.693  11.913
44812W        W16341  13.974  13.134  14.623
44813W        W16342  25.737  41.924   4.067
44814W        W16343   8.861  14.636   4.891
44815W        W16344  40.924   2.872  13.864
44816W        W16345  42.320   1.887   3.376
44817W        W16346  33.615  14.180  10.277
44818W        W16347  16.354  22.583   4.161
44819W        W16348  12.502  29.522   1.737
44820W        W16349  40.936  32.584   3.749
44821W        W16350  10.612  30.470  10.743
44822W        W16351  26.775  10.596  14.360
44823W        W16352   7.799  15.333   1.254
44824W        W16353  37.479  27.100  10.674
44825W        W16354   6.345  18.510   2.653
44826W        W16355  25.848  14.814   2.798
44827W        W16356   8.809  26.562   4.577
44828W        W16357  43.822  38.314  12.492
44829W        W16358   6.247  35.180  11.212
44830W        W16359  22.453  16.128   1.834
44831W        W16360  16.691   3.184   4.518
44832W        W16361  34.387   6.293  14.472
44833W        W16362  27.184  44.690  14.764
44834W        W16363  37.982  44.207   0.330
44835W        W16364  44.219   4.758  12.481
44836W        W16365  39.630  21.208  13.585
44837W        W16366  15.856  37.032   3.262
44838W        W16367  43.257  25.649   1.224
44839W        W16368  34.750   5.694  11.168
44840W        W16369  15.719  38.828  14.227
44841W        W16370  15.620  27.617   1.925
44842W        W16371  35.905  26.007  13.949
44843W        W16372  17.719  33.774   4.353
44844W        W16373  14.660  26.614  11.897
44845W        W16374   8.357  20.524   1.381
44846W        W16375  43.530  33.856  13.144
44847W        W16376  11.800   7.243  13.569
44848W        W16377  23.045   2.436   4.664
44849W        W16378  18.190  27.724   9.856
44850W        W16379  13.776   2.306   3.143
44851W        W16380   1.967  30.663  14.695
44852W        W16381  28.672  28.315  13.229
44853W        W16382   4.838  16.062  13.921
44854W        W16383  17.364  35.147   3.220
44855W        W16384  42.377   8.837   1.400
44856W        W16385  27.932  35.776  14.366
44857W        W16386  22.297   4.776   1.103
44858W        W16387  10.285  36.467  14.827
44859W        W16388  11.943  39.520  11.167
44860W        W16389  19.585  38.546  11.832
44861W        W16390   6.226   4.041  12.126
44862W        W16391  43.872  25.712   1.770
44863W        W16392  26.430   6.951   2.385
44864W        W16393  22.807  43.463  11.062
44865W        W16394  32.675  34.499   0.509
44866W        W16395  34.464  30.477   1.280
44867W        W16396   4.033  26.035   4.073
44868W        W16397   1.954  35.039   1.717
44869W        W16398  11.625  18.162   0.463
44870W        W16399   3.738  30.380   5.050
44871W        W16400  10.248  21.641  14.287
44872W        W16401  35.937  31.973  11.847
44873W        W16402  16.118  23.217  11.483
44874W        W16403  20.095  31.584   0.768
44875W        W16404  14.614  27.369  12.380
44876W        W16405  27.737  26.898   4.258
44877W        W16406   2.437  43.041   1.778
44878W        W16407  10.566  37.390   3.157
44879W        W16408  17.593  14.044   2.022
44880W        W16409  11.409  20.416   0.356
44881W        W16410  17.601  21.824   1.781
44882W        W16411  31.828  30.614  13.592
44883W        W16412  16.371  41.912  14.284
44884W        W16413  43.977  30.571  14.950
44885W        W16414   7.787  16.654   0.469
44886W        W16415  41.705   0.838   3.318
44887W        W16416  14.394  41.142   0.380
44888W        W16417   4.511  30.150   4.699
44889W        W16418  22.036  36.456   1.739
44890W        W16419  30.049  14.235   4.002
44891W        W16420   1.027  34.881   2.682
44892W        W16421  31.121  42.033   3.649
44893W        W16422   3.519   1.810   0.461
44894W        W16423  17.012  28.493   2.577
44895W        W16424  44.754   3.904   3.760
44896W        W16425   3.389   6.148  14.027
44897W        W16426  15.257  11.382   0.211
44898W        W16427  14.267  39.550   1.458
44899W        W16428   9.717  39.380  12.057
44900W        W16429  35.525  42.101  14.422
44901W        W16430  31.630  19.038  14.403
44902W        W16431   6.705  43.465   2.201
44903W        W16432  20.077  43.304  14.778
44904W        W16433   7.146  27.159   4.583
44905W        W16434  42.718   8.234  11.529
44906W        W16435   7.270  34.024  13.012
44907W        W16436  22.056   0.294   3.614
44908W        W16437  15.301  35.986   1.348
44909W        W16438  17.970  18.809  14.568
44910W        W16439   6.773  18.659  12.648
44911W        W16440  23.799  40.123   2.743
44912W        W16441  18.214  25.478  14.796
44913W        W16442  19.298  29.036  12.761
44914W        W16443   2.892  30.542  14.713
44915W        W16444  24.430  24.637  10.476
44916W        W16445  27.077  19.621   4.632
44917W        W16446   9.410   8.337  10.789
44918W        W16447  21.337   6.188   0.397
44919W        W16448  17.627  21.668   2.719
44920W        W16449   9.103   0.403  12.955
44921W        W16450  17.070  34.073   3.243
44922W        W16451   9.663  16.364  11.571
44923W        W16452   8.363  21.301   0.007
44924W        W16453  27.004  42.409   0.955
44925W        W16454  31.567  35.360   4.524
44926W        W16455  13.532  18.394  13.962
44927W        W16456  23.237  11.437   3.851
44928W        W16457  34.557  25.102  11.929
44929W        W16458  39.547  28.109  11.527
44930W        W16459   5.154  38.008   1.763
44931W        W16460  13.174  43.699  14.756
44932W        W16461  22.226  33.000  14.227
44933W        W16462  44.474  15.767   3.752
44934W        W16463  17.075   5.231   2.316
44935W        W16464  36.558  18.444  14.580
44936W        W16465  32.695  23.580  13.502
44937W        W16466  43.648  27.024   1.402
44938W        W16467  20.167  13.703   1.106
44939W        W16468  38.538  19.691   4.415
44940W        W16469  27.558   9.305   4.608
44941W        W16470  39.395  24.574   4.936
44942W        W16471  40.151  31.004   0.329
44943W        W16472  36.816   4.431   3.666
44944W        W16473  41.219  35.075  11.306
44945W        W16474  31.304  41.440  14.510
44946W        W16475  35.197  30.868   3.737
44947W        W16476  43.495   2.453   2.312
44948W        W16477  15.654  34.142   3.331
44949W        W16478  25.113   8.230   3.586
44950W        W16479  23.549  28.740  13.542
44951W        W16480  38.882  39.333  11.100
44952W        W16481   0.428   0.539  14.761
44953W        W16482  13.140  10.441   2.254
44954W        W16483  10.283  43.447  11.009
44955W        W16484  42.404  16.192   0.556
44956W        W16485  16.837  18.061  14.874
44957W        W16486  36.428  44.765   3.629
44958W        W16487   7.795  31.506   3.832
44959W        W16488  30.608  38.518  13.066
44960W        W16489  11.791  12.323  13.394
44961W        W16490  39.603  13.215   2.980
44962W        W16491  14.547  40.864  12.108
44963W        W16492  13.866   3.482  12.923
44964W        W16493   0.030  19.309   1.472
44965W        W16494  41.141  22.061  14.978
44966W        W16495  29.460  10.762   4.107
44967W        W16496  24.470  17.301  11.628
44968W        W16497  31.765  11.289  12.568
44969W        W16498   4.738  35.625  10.856
44970W        W16499  41.215  42.437   2.269
44971W        W16500  25.159  33.512   3.252
44972W        W16501  25.462   9.073   1.443
44973W        W16502  39.251  44.782  12.829
44974W        W16503   9.859   1.895  13.910
44975W        W16504   8.901  43.839   0.715
44976W        W16505  20.371  18.054  11.555
44977W        W16506  40.624  35.054   1.807
44978W        W16507   5.015  14.356  12.807
44979W        W16508  36.159   7.197  11.095
44980W        W16509  39.574  23.284  11.691
44981W        W16510  25.100  18.698   0.034
44982W        W16511  38.906  12.467   0.760
44983W        W16512  33.474  32.727  11.512
44984W        W16513  10.871  42.267   0.487
44985W        W16514  31.360  33.604   2.865
44986W        W16515  19.963  10.147  14.822
44987W        W16516  18.738  22.979   2.540
44988W        W16517  23.060  26.982   2.130
44989W        W16518  29.199  10.044   3.366
44990W        W16519  31.053  20.291  13.526
44991W        W16520  31.369  15.506   0.800
44992W        W16521  30.414  19.046  12.617
44993W        W16522  30.554  41.784  13.606
44994W        W16523  26.756  41.743   2.933
44995W        W16524  37.525  20.812  13.350
44996W        W16525   4.106  17.624  13.367
44997W        W16526  34.286   1.463   1.816
44998W        W16527  23.649  29.149   1.413
44999W        W16528  29.169   2.857   1.697
45000W        W16529  16.602  13.505   3.159
45001W        W16530  11.587  17.705  10.172
45002W        W16531  26.505  27.787  12.956
45003W        W16532  42.241  38.380  13.373
45004W        W16533  10.559  32.562  11.985
45005W        W16534  40.164   4.991   0.047
45006W        W16535  44.436  36.302  14.986
45007W        W16536  33.341   7.359   2.713
45008W        W16537  26.247  16.337  12.661
45009W        W16538   9.084  18.124  12.160
45010W        W16539  20.210  18.608  12.785
45011W        W16540  17.230  11.792  12.062
45012W        W16541  16.287  30.699  12.791
45013W        W16542  42.049  10.357   1.912
45014W        W16543   8.409  32.155  13.774
45015W        W16544  31.352  26.216  13.937
45016W        W16545   4.423   2.158  14.445
45017W        W16546  30.555  40.337  11.569
45018W        W16547  11.492  19.147   0.991
45019W        W16548   4.499  40.756   2.625
45020W        W16549   3.527   1.486   0.947
45021W        W16550   5.545   9.180   0.425
45022W        W16551  39.623   2.999  11.979
45023W        W16552  44.643  36.994   4.089
45024W        W16553  38.727  26.237   2.866
45025W        W16554  34.442  20.291   4.641
45026W        W16555  12.256  17.750   2.145
45027W        W16556   8.930   4.216   1.897
45028W        W16557  19.249   8.836   0.675
45029W        W16558  23.093   2.785  14.057
45030W        W16559  36.158   6.838  11.496
45031W        W16560  42.294   9.182  12.848
45032W        W16561  37.022  14.818  13.521
45033W        W16562  31.801  28.604   4.626
45034W        W16563  15.801   4.840  12.582
45035W        W16564  28.016  21.160   2.266
45036W        W16565  26.444  32.048  12.969
45037W        W16566  23.040  38.444  14.293
45038W        W16567  15.107  17.343   1.308
45039W        W16568  11.149  39.960  14.604
45040W        W16569   4.765   6.263   2.773
45041W        W16570  34.710  36.097   2.210
45042W        W16571  12.919   8.611  11.549
45043W        W16572  40.561  26.431   1.746
45044W        W16573  27.599   8.566  11.975
45045W        W16574   8.459  37.898   3.793
45046W        W16575  34.541  22.971  10.675
45047W        W16576  15.287  22.638  14.856
45048W        W16577  38.349   5.843  13.509
45049W        W16578  19.668  43.925  12.783
45050W        W16579  35.805  24.136   1.318
45051W        W16580  20.223  10.851   4.739
45052W        W16581   2.412  11.765   3.786
45053W        W16582   3.818  41.830   3.242
45054W        W16583  40.887  34.411   0.631
45055W        W16584  34.370  16.638  13.347
45056W        W16585  15.073  19.126  11.103
45057W        W16586  22.061  32.929  11.488
45058W        W16587  38.972  31.863  11.139
45059W        W16588  15.244  28.920  13.147
45060W        W16589  32.707  22.211   3.616
45061W        W16590   4.473   4.345   1.905
45062W        W16591   6.799  15.543   1.333
45063W        W16592  33.148  30.975  13.174
45064W        W16593  23.277  28.436   0.971
45065W        W16594  37.038  11.769  10.785
45066W        W16595   8.586  22.585   4.608
45067W        W16596  37.997  35.419  14.769
45068W        W16597  31.933  26.211   4.482
45069W        W16598  44.881  24.967   2.206
45070W        W16599  41.252  34.145  10.809
45071W        W16600  26.159  36.080   4.866
45072W        W16601  18.351  40.810  14.386
45073W        W16602  41.185   2.038  12.545
45074W        W16603  30.510   2.112  11.432
45075W        W16604   4.320  39.332   0.369
45076W        W16605  12.573  31.197   4.532
45077W        W16606   0.919  37.346   0.914
45078W        W16607   0.676   7.703  13.310
45079W        W16608  28.274  20.336  13.959
45080W        W16609  15.279  29.067   4.198
45081W        W16610  42.262  41.187   1.559
45082W        W16611  43.448  22.432   0.699
45083W        W16612  17.009   0.536  11.147
45084W        W16613  34.086  43.493  14.739
45085W        W16614  36.591  41.342  11.432
45086W        W16615  10.203   5.457  12.065
45087W        W16616  30.181  15.715  11.576
45088W        W16617  42.580  26.016   0.654
45089W        W16618  36.544  40.235  14.282
45090W        W16619  19.249  35.858   3.146
45091W        W16620   3.195  24.279  11.238
45092W        W16621  19.597  10.046  12.948
45093W        W16622   5.803  19.656   3.511
45094W        W16623   8.360  28.075  13.830
45095W        W16624  43.701  17.855  11.185
45096W        W16625  15.493   2.681   1.856
45097W        W16626  24.571   3.601  10.253
45098W        W16627  31.957  38.951  14.928
45099W        W16628   5.529  19.480  12.436
45100W        W16629  44.517   8.786  12.438
45101W        W16630  23.267  36.466  14.391
45102W        W16631  11.647  33.898   1.872
45103W        W16632   9.308   8.677   0.246
45104W        W16633  37.267   1.358   3.212
45105W        W16634   5.240   4.676  14.468
45106W        W16635  40.492  21.035  11.721
45107W        W16636  14.125  19.715   1.358
45108W        W16637  39.584  41.752  14.441
45109W        W16638  42.328  27.166   1.703
45110W        W16639  33.424   5.903   3.748
45111W        W16640   5.344  40.060   1.304
45112W        W16641  19.780  15.190   3.824
45113W        W16642  23.108  22.672  10.038
45114W        W16643   0.747   5.720   2.907
45115W        W16644  12.819  41.852  11.217
45116W        W16645  18.083  24.991  14.819
45117W        W16646  17.095  42.528   1.837
45118W        W16647  28.447  44.500   4.366
45119W        W16648  34.414  19.785  11.557
45120W        W16649  17.017   4.602   0.362
45121W        W16650   7.301  17.826   0.376
45122W        W16651  21.014  15.049   1.443
45123W        W16652   7.338  28.657  12.082
45124W        W16653  23.569  41.761  14.563
45125W        W16654  18.979  18.607  12.027
45126W        W16655  42.440  26.255  10.963
45127W        W16656  43.396  34.392   3.834
45128W        W16657  38.386  29.134   2.867
45129W        W16658  13.631  20.761   2.898
45130W        W16659   9.226  40.525   2.314
45131W        W16660   2.445  22.627  10.175
45132W        W16661  28.181   2.490   2.064
45133W        W16662  11.917  35.492   2.279
45134W        W16663  23.700  34.582   3.870
45135W        W16664   7.695  15.112  13.914
45136W        W16665  32.072  39.294  12.609
45137W        W16666  43.405  15.234   2.154
45138W        W16667  22.741  22.716  14.304
45139W        W16668  11.757  36.960   2.501
45140W        W16669  11.478  19.605   1.347
45141W        W16670  44.971  38.639  10.574
45142W        W16671  33.518  15.932  10.711
45143W        W16672  34.938  12.299  14.896
45144W        W16673  12.102  31.655  10.530
45145W        W16674  19.245  20.313   0.095
45146W        W16675  42.281   0.862  12.595
45147W        W16676  18.381  15.167  14.448
45148W        W16677  18.189  41.337  12.084
45149W        W16678  44.745  23.646   2.700
45150W        W16679   4.472  18.775  10.967
45151W        W16680   4.442  26.210  13.834
45152W        W16681  10.243   4.884  10.366
45153W        W16682  21.080   7.748  12.939
45154W        W16683  36.352  29.762  10.922
45155W        W16684  32.701  11.658  14.951
45156W        W16685   2.571  24.704  10.562
45157W        W16686  35.012  25.126  13.625
45158W        W16687  20.479   6.948   2.174
45159W        W16688   5.038  27.712   2.739
45160W        W16689  19.815   7.788  10.711
45161W        W16690  11.291  37.465  12.575
45162W        W16691  28.068  32.619  12.802
45163W        W16692  15.341  31.123  12.980
45164W        W16693   8.857  32.151  11.667
45165W        W16694   2.293  35.410   0.783
45166W        W16695  38.123   6.271  12.384
45167W        W16696  17.207  42.228   1.421
45168W        W16697  21.307  19.862  11.575
45169W        W16698  41.438   4.461   0.014
45170W        W16699  11.344  20.656   3.832
45171W        W16700  41.472  24.838   1.478
45172W        W16701  28.723  21.223  10.621
45173W        W16702  34.411  38.109  11.624
45174W        W16703  20.047  14.696  14.880
45175W        W16704  11.381  43.084   4.234
45176W        W16705   7.169  35.135   1.077
45177W        W16706  12.348  19.889  13.928
45178W        W16707  40.538   3.150  12.014
45179W        W16708  21.063  29.431  10.743
45180W        W16709  32.454  31.521  11.598
45181W        W16710   9.275  35.536   1.244
45182W        W16711  22.923  12.875  13.611
45183W        W16712  19.326  10.326   4.579
45184W        W16713  16.255  34.590   1.066
45185W        W16714  41.572  11.086   3.298
45186W        W16715  14.028  28.987  13.458
45187W        W16716  14.132  35.240   4.307
45188W        W16717  26.090  27.921   1.861
45189W        W16718  36.286   3.941   4.229
45190W        W16719  44.810  25.181  11.895
45191W        W16720  23.756  21.907   0.303
45192W        W16721   9.325  36.020  13.499
45193W        W16722   9.265  39.327  14.177
45194W        W16723   1.504  40.001   0.417
45195W        W16724  41.928  22.317  11.186
45196W        W16725   2.290  22.476   3.127
45197W        W16726  34.091  23.925  14.921
45198W        W16727  26.077  22.503  14.221
45199W        W16728  42.321  14.786   4.287
45200W        W16729   1.915  43.993  14.492
45201W        W16730  30.394  38.907   4.857
45202W        W16731   8.191  22.229   0.973
45203W        W16732  41.128  15.189   3.810
45204W        W16733  23.133   6.966   2.580
45205W        W16734   2.278  25.481   1.454
45206W        W16735  17.803  44.664   2.686
45207W        W16736  33.052  11.816   4.638
45208W        W16737  16.164  18.078   2.311
45209W        W16738  24.635   6.738   1.090
45210W        W16739  44.729  40.409   2.235
45211W        W16740  19.244  15.327   0.983
45212W        W16741  23.429  32.633   1.734
45213W        W16742   2.151  25.756   4.037
45214W        W16743  41.632  23.561   3.465
45215W        W16744   8.136   0.275   1.301
45216W        W16745  10.723  20.032  10.451
45217W        W16746  34.491   6.837  10.679
45218W        W16747  36.573  14.508   2.602
45219W        W16748  19.160  38.726   4.044
45220W        W16749   2.360  33.419   3.001
45221W        W16750   4.221  39.894  11.554
45222W        W16751  20.644  22.131   0.896
45223W        W16752   2.786  22.210   1.817
45224W        W16753  26.374  26.046   0.548
45225W        W16754   7.207  23.742  12.511
45226W        W16755  24.089   9.082  11.091
45227W        W16756   8.926  14.047   3.251
45228W        W16757  40.456  21.562   5.051
45229W        W16758  37.049  20.578  10.705
45230W        W16759  44.455  12.389  14.775
45231W        W16760  43.427  13.407  14.867
45232W        W16761  18.443  25.099  11.126
45233W        W16762  31.570  23.958   5.367
45234W        W16763  23.955  15.977  12.475
45235W        W16764  14.641  36.639   4.504
45236W        W16765  11.154  13.327   3.225
45237W        W16766  17.068  34.374   1.376
45238W        W16767  20.526   3.369  13.486
45239W        W16768  25.598   7.558   2.069
45240W        W16769   8.784  40.098   0.263
45241W        W16770  20.815  30.018   4.572
45242W        W16771  13.221  32.820  13.049
45243W        W16772   4.764  23.615  14.099
45244W        W16773  40.348  17.353   0.410
45245W        W16774  37.708  28.642  13.583
45246W        W16775   6.884  32.366   1.823
45247W        W16776  17.717  33.543   1.828
45248W        W16777  44.232  26.229  11.551
45249W        W16778  37.515  12.254   4.704
45250W        W16779  19.783  25.995   3.174
45251W        W16780   2.881  38.233  12.372
45252W        W16781   3.861  18.024   0.777
45253W        W16782  22.661  18.672   4.423
45254W        W16783  36.158  41.981   0.472
45255W        W16784  27.663  22.149   3.347
45256W        W16785  37.863  12.776   0.809
45257W        W16786   4.457   8.761  13.429
45258W        W16787  17.776  27.615   5.698
45259W        W16788  36.581  23.956   2.840
45260W        W16789  41.505  12.903   4.667
45261W        W16790  17.483   7.875   3.647
45262W        W16791  23.141   7.181  14.087
45263W        W16792  21.024  15.811   0.810
45264W        W16793   4.819  37.411   4.547
45265W        W16794  16.166  17.479   3.775
45266W        W16795  40.806  39.347  11.984
45267W        W16796  16.852   2.674   0.186
45268W        W16797   9.171  32.456   0.440
45269W        W16798  17.557  26.164  10.729
45270W        W16799   1.072   5.439   0.253
45271W        W16800   7.176   8.093   3.225
45272W        W16801   2.762  42.772  13.869
45273W        W16802  13.193  36.581   4.378
45274W        W16803   1.516  28.647   0.348
45275W        W16804   4.041  13.874   1.311
45276W        W16805   9.776   6.538   4.182
45277W        W16806  44.893  11.779   4.148
45278W        W16807  13.867  31.174   1.965
45279W        W16808  11.540  14.707  12.811
45280W        W16809  21.697  36.269  13.318
45281W        W16810  25.955   4.367   1.756
45282W        W16811  31.201  25.079   2.171
45283W        W16812  24.102  28.179   2.483
45284W        W16813  37.714  17.877  11.187
45285W        W16814  10.747   1.560   0.048
45286W        W16815  19.217   2.627  12.639
45287W        W16816   3.345  22.473   4.174
45288W        W16817  40.960  13.068   1.251
45289W        W16818  16.143  44.492   1.645
45290W        W16819  38.131  28.668   1.633
45291W        W16820  26.583  32.488   2.814
45292W        W16821  31.474  41.530   2.917
45293W        W16822  32.394  15.124  11.642
45294W        W16823  42.386  29.961   0.803
45295W        W16824   7.383  28.646  11.165
45296W        W16825  10.776  23.704   3.390
45297W        W16826  13.303  17.487  13.397
45298W        W16827   0.787  27.503   4.561
45299W        W16828  16.691   9.415   0.261
45300W        W16829   4.310   2.285  11.607
45301W        W16830  20.190  24.595   2.385
45302W        W16831   2.392  31.727   0.293
45303W        W16832  27.001  36.500  14.502
45304W        W16833  17.804  16.224  11.536
45305W        W16834  24.842  22.673  12.602
45306W        W16835  21.895  11.155  12.886
45307W        W16836  31.901  22.547   3.258
45308W        W16837  13.100  29.961   3.833
45309W        W16838  27.927  12.012   4.133
45310W        W16839  28.798   7.642   4.340
45311W        W16840  44.772  25.984   3.151
45312W        W16841  39.019  30.283   0.274
45313W        W16842  29.167  11.223  11.148
45314W        W16843  41.354  15.631   3.617
45315W        W16844  37.749   4.667  11.606
45316W        W16845   9.270  31.140  11.055
45317W        W16846  44.291  19.954   3.647
45318W        W16847  18.295   6.002   4.774
45319W        W16848  16.786  15.029  11.534
45320W        W16849  15.623  32.117   2.448
45321W        W16850  38.971   6.350   4.392
45322W        W16851  35.879  16.600   0.858
45323W        W16852   7.302   9.740   3.175
45324W        W16853   4.807  44.863   4.279
45325W        W16854  25.416   1.811  11.032
45326W        W16855   1.906   0.595   1.302
45327W        W16856  44.414  11.331  14.515
45328W        W16857   1.874  32.034  12.025
45329W        W16858  13.563  21.508  12.689
45330W        W16859  23.701  13.151   4.326
45331W        W16860  12.293  18.513  11.169
45332W        W16861  26.878  25.825   2.416
45333W        W16862  14.338  32.645  10.644
45334W        W16863  35.104  16.769  10.084
45335W        W16864   3.296   1.882  14.988
45336W        W16865  33.044   6.267  12.990
45337W        W16866  44.807  10.248  10.709
45338W        W16867   7.198  34.387   4.112
45339W        W16868  41.094  21.042  12.684
45340W        W16869  30.312  16.790   5.194
45341W        W16870  28.790  18.661  14.880
45342W        W16871   9.398  36.317   4.596
45343W        W16872   5.789  44.561   3.587
45344W        W16873  18.825  26.500  14.487
45345W        W16874  44.018  15.646  11.808
45346W        W16875  36.272  24.914   2.750
45347W        W16876  31.226  24.051   2.819
45348W        W16877   5.682  29.457   1.720
45349W        W16878   4.384  26.978  12.645
45350W        W16879  10.705  14.115  13.792
45351W        W16880  18.998  12.173   0.407
45352W        W16881   0.941   9.049   1.707
45353W        W16882  18.977  22.047   0.185
45354W        W16883  39.412  16.057  10.661
45355W        W16884  20.743  17.662   0.338
45356W        W16885  21.148  13.447  13.709
45357W        W16886  35.468  30.413   1.384
45358W        W16887  30.755   8.580   5.130
45359W        W16888  32.513   5.215  12.033
45360W        W16889   7.556  14.695  12.497
45361W        W16890  25.886  19.635   0.394
45362W        W16891  14.855   1.735   1.316
45363W        W16892  16.612  29.171   4.047
45364W        W16893  27.072  37.124   2.384
45365W        W16894  10.121  13.611   4.193
45366W        W16895   1.982  44.865  11.547
45367W        W16896  20.744  21.335  12.620
45368W        W16897   3.483  22.008   3.225
45369W        W16898  28.484  15.299  13.031
45370W        W16899  35.535  33.869   0.910
45371W        W16900  19.761   5.342   4.515
45372W        W16901  42.763   0.373   0.203
45373W        W16902  13.534  24.493   1.136
45374W        W16903  12.858  42.548   0.427
45375W        W16904   6.073  39.317  14.982
45376W        W16905  35.076  26.747  13.908
45377W        W16906   6.195  15.946   0.396
45378W        W16907   5.708  15.606  12.479
45379W        W16908   4.190  35.207   0.938
45380W        W16909  32.386  23.071  12.744
45381W        W16910  24.519  12.446   0.366
45382W        W16911  10.703  26.252  12.277
45383W        W16912  29.649  41.549  14.535
45384W        W16913  36.914  36.354   3.071
45385W        W16914   6.407  20.515   1.862
45386W        W16915  37.468   7.605  12.468
45387W        W16916   4.328  32.383  13.601
45388W        W16917  41.577  18.214  12.734
45389W        W16918  32.606  12.951  11.973
45390W        W16919  15.587  30.686  13.161
45391W        W16920  34.063   6.030  11.888
45392W        W16921  40.367  34.426   3.558
45393W        W16922  37.099  35.841   2.169
45394W        W16923  32.530   9.328  13.825
45395W        W16924  23.139  31.687   3.731
45396W        W16925  38.559  29.707  13.005
45397W        W16926  35.953  17.228   3.129
45398W        W16927  25.814  35.793   3.955
45399W        W16928  33.977  43.877  10.602
45400W        W16929  30.152  36.074   1.388
45401W        W16930   4.465  22.146   1.364
45402W        W16931  44.302   6.409  14.748
45403W        W16932  18.849   6.930   0.409
45404W        W16933  20.199   5.960  14.808
45405W        W16934  10.329  15.745  13.792
45406W        W16935  14.174  25.979  14.058
45407W        W16936  31.594  41.254   2.505
45408W        W16937  35.146  21.873  11.269
45409W        W16938   7.710   7.982   1.374
45410W        W16939  10.580  40.966  14.770
45411W        W16940  13.432   5.861   3.224
45412W        W16941   0.784  19.117  14.771
45413W        W16942  19.715   8.173   3.058
45414W        W16943   6.240  21.473  11.065
45415W        W16944   9.915  28.151  10.701
45416W        W16945  11.749  30.655   2.623
45417W        W16946  20.498  32.152   1.262
45418W        W16947  32.807  44.221  14.360
45419W        W16948  16.909  30.952   4.579
45420W        W16949   0.438  19.046   4.629
45421W        W16950  30.076  20.581   3.873
45422W        W16951  17.688  33.589  13.040
45423W        W16952  17.006  13.307  11.477
45424W        W16953  41.787  18.191   4.539
45425W        W16954  31.603  18.590  13.123
45426W        W16955   8.702   6.371  12.983
45427W        W16956  42.684  31.509   4.098
45428W        W16957  11.756  21.581   3.572
45429W        W16958  34.107  30.980   4.849
45430W        W16959  27.704   2.133  11.367
45431W        W16960  17.249   1.436   2.160
45432W        W16961  33.846  32.031  11.172
45433W        W16962  42.057  17.290   2.589
45434W        W16963   7.212  23.583  11.242
45435W        W16964  11.286  39.298   4.587
45436W        W16965  27.217  39.839   0.442
45437W        W16966  18.745   2.897  10.441
45438W        W16967   2.884  32.114  12.447
45439W        W16968  15.007  25.760   2.197
45440W        W16969  16.711  18.103  12.776
45441W        W16970  44.633  13.823   3.658
45442W        W16971  20.772  30.427  11.116
45443W        W16972  14.768  37.053  11.976
45444W        W16973  12.466   3.384   2.176
45445W        W16974  10.049  22.835  14.319
45446W        W16975  23.104  12.050   1.434
45447W        W16976  17.846   9.254   3.273
45448W        W16977   0.421  17.631   1.344
45449W        W16978  11.692  14.185   0.006
45450W        W16979   3.192   0.197  13.502
45451W        W16980  35.604  21.223  14.991
45452W        W16981  33.164   6.693  12.075
45453W        W16982  35.309   3.699  13.834
45454W        W16983  39.006  33.968   1.756
45455W        W16984  29.050   3.352   1.881
45456W        W16985  36.845  10.131   3.795
45457W        W16986   3.596  14.063   4.392
45458W        W16987  24.598  13.546   2.665
45459W        W16988  17.092  22.995   4.034
45460W        W16989   3.930  36.700   1.749
45461W        W16990  22.582  15.217  14.799
45462W        W16991  18.542  36.812   0.599
45463W        W16992  24.718  42.535   3.646
45464W        W16993  16.547  36.600   3.571
45465W        W16994  15.178   5.102   2.257
45466W        W16995  20.009  36.633   2.864
45467W        W16996  44.885   4.112   4.213
45468W        W16997  43.314  29.280  13.975
45469W        W16998  12.246  10.679   2.299
45470W        W16999   6.220  44.462  10.749
45471W        W17000  13.388  26.614   4.705
45472W        W17001  25.612  17.333   3.713
45473W        W17002  32.883  43.865  13.965
45474W        W17003  34.980  20.561  11.675
45475W        W17004  20.118  12.226   1.891
45476W        W17005  16.103  14.031   4.582
45477W        W17006   2.448   6.147   4.122
45478W        W17007  20.499  23.528  13.034
45479W        W17008  44.488   3.201  14.294
45480W        W17009  40.346  37.861  11.945
45481W        W17010  17.044  18.601   0.562
45482W        W17011  11.500  34.620  12.451
45483W        W17012  27.500  38.394   4.680
45484W        W17013  36.573   7.771   1.172
45485W        W17014   0.548  18.753   4.204
45486W        W17015  33.116   5.332  11.151
45487W        W17016  42.959  37.311   2.322
45488W        W17017  31.551  23.956   1.166
45489W        W17018   2.404  24.709   0.801
45490W        W17019  32.066  44.806   0.336
45491W        W17020   2.262  26.162   3.670
45492W        W17021  19.762   2.301   4.294
45493W        W17022  12.769  23.018   0.353
45494W        W17023   1.318  17.184   0.330
45495W        W17024  37.069  33.398   3.337
45496W        W17025  22.200  41.784   2.555
45497W        W17026   8.704  26.722   0.884
45498W        W17027  23.249  27.947  12.528
45499W        W17028  25.415  33.979   1.897
45500W        W17029  41.844  26.727   2.736
45501W        W17030  14.506  25.502  12.957
45502W        W17031  35.499  17.076   2.881
45503W        W17032  44.308   1.345  12.481
45504W        W17033  23.274  11.444   0.442
45505W        W17034   1.943  37.186   4.286
45506W        W17035  39.526  37.358  11.098
45507W        W17036  36.562  22.995   2.714
45508W        W17037   6.120   6.385   3.178
45509W        W17038  17.240  17.206   1.678
45510W        W17039   6.659  36.460   4.203
45511W        W17040  28.821  36.599  12.598
45512W        W17041  27.929  35.091   0.420
45513W        W17042  21.850  20.299   4.059
45514W        W17043  35.784  31.184  12.396
45515W        W17044  42.125  17.969   2.339
45516W        W17045   1.228  28.569  13.140
45517W        W17046  33.837  29.511   2.813
45518W        W17047  44.366   4.508   5.144
45519W        W17048  11.726  20.132   2.646
45520W        W17049   9.662  33.493   4.340
45521W        W17050  30.167  41.310  11.673
45522W        W17051  37.605   2.926   1.805
45523W        W17052   4.654  43.326  12.731
45524W        W17053   6.708  44.434  10.995
45525W        W17054  18.983  13.771   3.775
45526W        W17055  15.566  12.241  13.566
45527W        W17056  42.856  42.827   2.653
45528W        W17057  21.241  10.367  14.440
45529W        W17058  36.098  25.649   4.286
45530W        W17059  27.055   7.623  12.779
45531W        W17060  36.343  25.998  12.910
45532W        W17061   0.489  32.106   5.263
45533W        W17062  39.920   3.185  14.495
45534W        W17063  31.509  23.638   2.659
45535W        W17064  43.774  23.664  11.112
45536W        W17065  11.203  28.621  12.971
45537W        W17066  32.917  20.743  10.539
45538W        W17067   2.888   1.187  14.054
45539W        W17068  15.653  13.865   4.392
45540W        W17069  27.267  41.810   4.226
45541W        W17070  10.737  37.904  12.365
45542W        W17071  30.379  26.945  13.144
45543W        W17072  14.212   7.878   1.796
45544W        W17073  23.297   6.853  12.994
45545W        W17074  42.678  10.182  11.363
45546W        W17075  35.183  43.026   4.970
45547W        W17076  43.326  24.607  13.538
45548W        W17077   2.130  26.391  14.367
45549W        W17078  19.145  23.602  14.332
45550W        W17079   6.080  29.201   4.543
45551W        W17080  43.421   6.911   1.777
45552W        W17081  19.892  17.867  10.295
45553W        W17082   5.884  41.249   1.897
45554W        W17083  40.289  39.087   0.772
45555W        W17084  26.118   4.650  12.959
45556W        W17085  24.260  10.298   2.201
45557W        W17086  11.176  15.714  10.379
45558W        W17087  15.822  38.011   2.366
45559W        W17088  11.455  36.586  12.512
45560W        W17089   8.863  36.338  11.557
45561W        W17090  30.010  24.546   3.190
45562W        W17091  21.261  19.592   4.863
45563W        W17092  29.100  33.656  13.895
45564W        W17093  37.400  24.576  12.105
45565W        W17094  31.367  24.919   0.759
45566W        W17095  26.656   6.857  10.717
45567W        W17096  16.172  26.570  11.146
45568W        W17097  16.114  39.116   2.819
45569W        W17098  41.773  27.769  12.509
45570W        W17099  29.972  14.399  12.162
45571W        W17100  21.515   9.263   2.048
45572W        W17101  23.323  40.026   0.357
45573W        W17102  10.819  23.756  14.774
45574W        W17103  38.389  15.657  12.008
45575W        W17104  15.490  33.332  12.044
45576W        W17105  33.081  24.550  10.617
45577W        W17106  25.134  16.307   1.961
45578W        W17107  29.083   6.023   1.760
45579W        W17108  34.915  43.979   1.502
45580W        W17109  24.612   8.202   4.858
45581W        W17110   1.407  39.102   0.737
45582W        W17111  35.779   6.821  13.683
45583W        W17112  20.528  34.886  12.540
45584W        W17113  39.004  15.188   4.754
45585W        W17114  35.810  25.611  13.616
45586W        W17115  32.594  18.667  12.898
45587W        W17116  40.748  42.870  14.549
45588W        W17117  20.299   6.488  14.030
45589W        W17118  19.352   7.276   1.739
45590W        W17119  10.329  10.221  12.478
45591W        W17120  30.854   0.894  13.362
45592W        W17121  36.583  19.229   3.122
45593W        W17122   5.823   7.264  13.972
45594W        W17123  43.069  38.230  14.545
45595W        W17124  31.543   2.998  13.933
45596W        W17125  25.017   4.157  10.753
45597W        W17126  24.877   4.409   1.796
45598W        W17127   7.913  21.184   0.380
45599W        W17128  28.991  15.306  12.844
45600W        W17129  10.714  12.294  13.171
45601W        W17130  15.176   5.743  11.396
45602W        W17131  24.032   9.261  14.819
45603W        W17132   8.792   9.380   4.806
45604W        W17133  17.758  35.331  14.860
45605W        W17134  34.571  44.234   1.939
45606W        W17135  12.487  21.146  11.906
45607W        W17136   0.820  10.253   3.487
45608W        W17137  11.735   4.986   0.708
45609W        W17138  24.109  15.145   2.410
45610W        W17139  38.750  35.926   3.332
45611W        W17140  19.893  42.328  11.577
45612W        W17141  16.789   0.194  10.835
45613W        W17142  25.622  31.133   1.715
45614W        W17143  18.037  35.872   2.193
45615W        W17144  11.304  19.234  14.453
45616W        W17145   7.187  18.368  12.445
45617W        W17146  27.352   6.664   1.006
45618W        W17147   6.727   9.639  10.672
45619W        W17148  44.739   5.201  10.659
45620W        W17149  39.383  22.770  11.926
45621W        W17150  43.834   7.795   1.959
45622W        W17151  14.880  13.997  13.802
45623W        W17152   0.253  15.110  14.894
45624W        W17153  41.071   9.121  11.201
45625W        W17154  31.712  11.281   1.201
45626W        W17155  37.478  18.069   3.185
45627W        W17156  40.063  34.641   3.185
45628W        W17157   1.348   8.179  13.461
45629W        W17158  39.330  33.637   3.556
45630W        W17159  39.924   6.959  11.015
45631W        W17160  42.586  31.536  12.660
45632W        W17161   9.567  17.837   3.692
45633W        W17162  24.986   6.317   2.267
45634W        W17163  32.589  26.469  13.461
45635W        W17164  12.173  38.834  12.587
45636W        W17165   9.104  25.647  11.175
45637W        W17166  36.040   3.668   0.509
45638W        W17167   6.698  29.251   0.853
45639W        W17168  32.043  37.423  14.090
45640W        W17169  37.088   7.300   4.357
45641W        W17170  19.637  15.825   2.791
45642W        W17171  10.122  33.021  10.522
45643W        W17172  19.886   9.913   1.910
45644W        W17173  26.425   4.432  10.551
45645W        W17174   4.244   7.377  11.603
45646W        W17175  41.877  35.461  13.296
45647W        W17176  14.668  34.791   2.780
45648W        W17177  29.826  42.542   3.800
45649W        W17178  35.616  29.367  11.011
45650W        W17179  16.681  13.103   2.801
45651W        W17180  23.598  43.343  12.552
45652W        W17181  43.423   7.642   1.346
45653W        W17182  17.580  28.830  13.400
45654W        W17183   0.951   6.019   3.937
45655W        W17184   3.287  31.686  14.419
45656W        W17185  16.261  38.884   4.175
45657W        W17186   2.810  17.051   3.126
45658W        W17187  44.021  17.022  13.828
45659W        W17188   8.127   7.267   4.636
45660W        W17189   4.294  42.779   3.852
45661W        W17190  32.718  17.388  14.449
45662W        W17191  41.049  19.714   0.677
45663W        W17192  33.629   4.742  11.508
45664W        W17193  19.864  16.204  10.682
45665W        W17194  38.835  24.202   2.791
45666W        W17195  19.039  43.367   2.109
45667W        W17196  27.873  24.244   1.367
45668W        W17197  24.336  17.658   3.741
45669W        W17198  27.415  30.168   3.642
45670W        W17199  16.669  37.660  11.102
45671W        W17200  23.366  12.848   0.354
45672W        W17201  41.133  23.897  13.800
45673W        W17202  34.544  36.324  11.213
45674W        W17203  31.816   1.203  14.493
45675W        W17204  33.147  38.125   0.489
45676W        W17205  25.209   5.876  12.407
45677W        W17206  37.613   0.921   3.381
45678W        W17207  44.677   9.429   4.513
45679W        W17208  22.632  34.077   0.988
45680W        W17209  37.785  31.710   4.297
45681W        W17210  41.797  18.038   0.829
45682W        W17211  40.560  43.764   0.803
45683W        W17212  19.503  20.275   2.792
45684W        W17213  18.723  15.847  12.633
45685W        W17214  33.067  34.245  14.740
45686W        W17215  35.996  39.083  14.280
45687W        W17216  14.670  15.167   3.738
45688W        W17217  40.315  25.311   2.412
45689W        W17218  19.830  41.400   1.320
45690W        W17219   2.008   3.365  11.179
45691W        W17220  19.768   1.732   3.649
45692W        W17221   5.262  25.290  12.586
45693W        W17222  44.299  13.662   0.366
45694W        W17223  15.102  41.789  12.516
45695W        W17224  27.964  40.138  11.194
45696W        W17225  10.427  22.572   3.134
45697W        W17226  42.610   1.361   2.114
45698W        W17227  16.879   6.899   2.787
45699W        W17228  44.083  36.192   3.909
45700W        W17229  33.096  40.734  13.777
45701W        W17230  42.826  35.042  13.439
45702W        W17231   8.404  34.827   4.155
45703W        W17232   6.833  20.349  13.001
45704W        W17233  33.323  26.691  13.938
45705W        W17234   9.662   7.940  13.015
45706W        W17235  32.615  20.277   1.816
45707W        W17236  21.540  13.121  13.566
45708W        W17237  41.250   6.418  14.943
45709W        W17238  44.917  25.210   1.748
45710W        W17239  43.386  23.802   3.546
45711W        W17240   0.438   2.345   1.765
45712W        W17241  31.260  38.417  12.400
45713W        W17242  29.987  30.571  13.538
45714W        W17243  34.432  22.178  11.046
45715W        W17244  44.604  33.982  14.652
45716W        W17245  27.162   8.851  12.018
45717W        W17246  26.988  23.182   0.775
45718W        W17247  43.311  31.138   1.781
45719W        W17248  42.882  26.925   5.055
45720W        W17249  39.463   3.906   0.357
45721W        W17250  26.922  27.661  11.688
45722W        W17251   7.126  42.488  12.927
45723W        W17252  30.714  30.520   4.349
45724W        W17253  12.074  31.056   4.562
45725W        W17254  17.659  18.855   4.587
45726W        W17255  15.189  33.962   3.550
45727W        W17256  26.057   5.951  13.553
45728W        W17257  33.029  28.410   1.768
45729W        W17258  44.765   4.753   1.871
45730W        W17259  32.053   4.159  11.197
45731W        W17260  20.064  10.131  12.088
45732W        W17261  41.879   3.881  11.922
45733W        W17262  25.018   2.854   0.394
45734W        W17263  39.750  23.828  12.046
45735W        W17264  22.498   6.531   0.812
45736W        W17265  18.189  36.554  14.787
45737W        W17266  38.025   7.981   4.125
45738W        W17267  21.710  17.839   2.177
45739W        W17268   2.833   1.691  13.880
45740W        W17269  34.061  27.674   5.010
45741W        W17270  33.933   0.872   1.329
45742W        W17271  43.325  13.169   3.279
45743W        W17272  38.043  44.560   3.326
45744W        W17273  32.402  32.948   3.254
45745W        W17274  42.339  23.299  11.515
45746W        W17275  26.735   9.168  11.070
45747W        W17276  28.629  36.280   4.442
45748W        W17277  18.522   3.415   4.084
45749W        W17278   1.064  34.047   2.102
45750W        W17279  31.018  33.871  10.569
45751W        W17280  12.778  25.812   1.376
45752W        W17281  17.316  43.347   2.156
45753W        W17282  25.249  38.813   3.285
45754W        W17283  18.508  37.447   3.650
45755W        W17284  31.456   8.681  11.962
45756W        W17285  20.305  36.865   4.093
45757W        W17286  39.217   4.096   0.824
45758W        W17287  37.979  34.965  14.526
45759W        W17288   1.831  19.472  14.318
45760W        W17289   8.006  38.567   0.960
45761W        W17290  35.294  22.720  11.224
45762W        W17291  17.691   6.278  11.660
45763W        W17292  21.126  32.191  13.372
45764W        W17293   5.956  27.184  10.964
45765W        W17294  23.888  30.967   3.715
45766W        W17295  38.984  18.228   3.807
45767W        W17296  36.178  14.252   1.046
45768W        W17297  31.519  10.290  12.299
45769W        W17298  14.617  43.840   1.513
45770W        W17299  16.529  44.967  11.517
45771W        W17300  40.303  26.111   1.244
45772W        W17301  36.349  21.813   4.929
45773W        W17302   1.272  11.862   2.923
45774W        W17303  15.697   0.264   4.870
45775W        W17304   7.891  29.052   2.846
45776W        W17305  34.722  41.789   3.273
45777W        W17306  19.549  38.385   3.833
45778W        W17307  35.914   5.370   2.513
45779W        W17308   1.726  16.607   2.298
45780W        W17309   2.781  18.633   2.672
45781W        W17310  27.375  32.467  10.619
45782W        W17311  35.430  20.777  14.777
45783W        W17312  24.123   7.997  14.393
45784W        W17313  31.942  23.795   5.057
45785W        W17314  30.689  22.124   1.267
45786W        W17315  25.176  36.444   1.526
45787W        W17316  23.148   2.800   3.440
45788W        W17317  26.583   3.391   3.988
45789W        W17318   3.600  35.937  14.802
45790W        W17319  39.984  39.630   4.601
45791W        W17320   5.636  35.894  14.620
45792W        W17321  26.789  14.853  10.759
45793W        W17322  31.130  23.271  12.484
45794W        W17323  18.126  32.286   0.391
45795W        W17324  41.499  31.581  14.868
45796W        W17325   4.285  26.080   3.622
45797W        W17326  27.425  17.106   2.834
45798W        W17327   1.846  29.223   2.350
45799W        W17328  15.238  27.516   4.928
45800W        W17329  41.038  31.224  14.029
45801W        W17330  11.869  18.241   3.892
45802W        W17331  38.992  41.431  14.546
45803W        W17332  26.619  44.552  11.510
45804W        W17333  21.898   0.301  11.110
45805W        W17334  15.678  15.818   3.697
45806W        W17335  21.162   8.437  13.503
45807W        W17336   1.980  29.626   4.207
45808W        W17337  32.984  37.308   1.901
45809W        W17338  21.726  15.177   3.715
45810W        W17339  23.769  28.547  14.477
45811W        W17340   1.875  17.218  11.397
45812W        W17341  43.738  27.603  13.419
45813W        W17342  23.670  26.953   0.271
45814W        W17343  43.525  36.121  12.380
45815W        W17344   8.793  40.413  14.040
45816W        W17345   0.055  29.633  11.914
45817W        W17346   7.609  20.529  14.882
45818W        W17347  16.102  13.201  10.629
45819W        W17348   0.422   5.424  10.699
45820W        W17349  16.889  11.689   2.764
45821W        W17350  39.025  16.035  13.502
45822W        W17351  17.671  41.791  12.910
45823W        W17352  37.057  16.605  12.925
45824W        W17353  19.341  14.301  12.952
45825W        W17354   9.383   2.891  14.817
45826W        W17355  17.991  13.215  14.430
45827W        W17356  16.370  32.089   3.011
45828W        W17357  40.334  37.050  10.828
45829W        W17358   0.931  25.214  10.732
45830W        W17359  30.435  20.661   4.239
45831W        W17360  42.656  10.372  13.369
45832W        W17361   7.970   5.393  14.467
45833W        W17362  25.776  27.183   3.320
45834W        W17363  27.670   5.643  11.923
45835W        W17364   1.966  37.968   3.216
45836W        W17365  32.145   8.012   3.146
45837W        W17366   9.860  41.724  13.831
45838W        W17367   1.642  23.773   2.291
45839W        W17368  15.327  44.848   3.241
45840W        W17369  43.313  44.757  11.142
45841W        W17370  12.722  16.594  13.001
45842W        W17371  12.486  39.046   4.888
45843W        W17372  15.922   2.265  10.638
45844W        W17373  39.895  12.128   2.803
45845W        W17374   4.247  18.184  14.705
45846W        W17375  16.781  42.779   0.383
45847W        W17376  37.681  35.376   0.323
45848W        W17377  13.678  36.398   4.262
45849W        W17378  32.363  42.630  13.456
45850W        W17379  27.093   6.760   4.850
45851W        W17380  43.306  41.943  13.918
45852W        W17381  23.551   6.723   4.638
45853W        W17382  17.772  26.597  10.499
45854W        W17383  12.384  17.556   4.189
45855W        W17384  29.704  32.875  11.373
45856W        W17385  24.004  13.739  14.206
45857W        W17386  43.468  40.884   2.093
45858W        W17387  42.396  28.208   3.382
45859W        W17388   0.769  40.237   3.532
45860W        W17389  14.239   2.578   3.183
45861W        W17390  37.102  43.868  14.240
45862W        W17391   5.459  39.702  14.250
45863W        W17392  20.213   2.757  10.753
45864W        W17393   8.621  15.390   2.778
45865W        W17394  34.382  16.568  11.840
45866W        W17395  11.278  29.113  13.692
45867W        W17396  30.426  11.057  14.505
45868W        W17397  16.550  15.759  14.999
45869W        W17398  43.526  38.634  11.032
45870W        W17399  41.716  23.773   3.923
45871W        W17400  42.713  16.702   3.472
45872W        W17401  18.762  43.540   1.697
45873W        W17402  16.249  22.048  11.225
45874W        W17403   8.724  15.349   1.005
45875W        W17404   3.787  28.598  14.685
45876W        W17405  18.778  17.154  13.141
45877W        W17406  29.595  35.338  13.420
45878W        W17407   8.170   7.886  12.000
45879W        W17408  25.132  35.504   1.016
45880W        W17409  31.449   2.944  10.844
45881W        W17410   4.766   1.525  12.461
45882W        W17411  22.196  38.309  14.888
45883W        W17412  12.194  36.149  14.843
45884W        W17413  44.294  21.093  13.113
45885W        W17414   6.736   9.825  11.684
45886W        W17415  37.078  33.133  13.407
45887W        W17416  26.590  42.339  10.726
45888W        W17417  19.721  27.948   1.001
45889W        W17418  19.917   8.882   2.422
45890W        W17419  14.044  43.552   0.696
45891W        W17420  10.566   3.205  14.464
45892W        W17421  33.261  19.024  13.393
45893W        W17422  32.208  26.758  12.518
45894W        W17423  12.646   9.384   2.783
45895W        W17424   0.233  14.169  13.922
45896W        W17425  39.917  26.150   4.587
45897W        W17426   1.210  28.916   1.914
45898W        W17427  26.433  13.545   0.469
45899W        W17428   0.829  14.885  12.537
45900W        W17429  43.423  34.409  14.395
45901W        W17430  35.780   6.353   4.449
45902W        W17431  31.598  30.072   0.388
45903W        W17432   1.802  15.849   4.512
45904W        W17433  37.086  13.786  14.985
45905W        W17434  32.032  39.514   3.715
45906W        W17435  40.974   4.803   1.331
45907W        W17436  43.062  17.689  14.475
45908W        W17437   0.524  30.783   3.645
45909W        W17438   1.570  31.604   4.787
45910W        W17439  22.452  36.931   3.664
45911W        W17440   3.180  38.722  10.785
45912W        W17441  42.325  41.856  13.860
45913W        W17442  40.081  24.095  10.738
45914W        W17443  18.604  11.774  14.512
45915W        W17444  31.663   4.157  14.790
45916W        W17445  27.635  21.274   4.656
45917W        W17446  11.308  32.148   3.948
45918W        W17447   4.637   3.400   0.131
45919W        W17448  42.880  43.086   0.811
45920W        W17449   8.353  39.351   0.514
45921W        W17450  20.055  14.710  13.950
45922W        W17451  27.665  17.564  14.004
45923W        W17452  37.774  14.498   0.289
45924W        W17453  11.360  10.702   3.761
45925W        W17454  18.257  13.109  14.851
45926W        W17455  13.876  41.636  12.920
45927W        W17456  26.966   2.206  14.473
45928W        W17457   9.090  38.893  12.971
45929W        W17458  19.619  23.499  14.551
45930W        W17459  22.798  36.943  11.581
45931W        W17460  24.152  42.375  14.015
45932W        W17461  21.560  38.249   4.881
45933W        W17462  34.525  19.051   1.387
45934W        W17463  13.139   8.051   4.275
45935W        W17464   8.684  37.634  14.791
45936W        W17465  44.385  38.002  14.288
45937W        W17466   7.587  12.390  12.091
45938W        W17467  24.543   3.447  13.346
45939W        W17468   1.784  35.613   2.330
45940W        W17469  20.227   9.182  14.669
45941W        W17470  37.415  43.357   2.294
45942W        W17471  14.729  13.839  12.777
45943W        W17472  33.520  43.981  13.171
45944W        W17473  33.172  22.122   2.307
45945W        W17474  21.171   4.158  11.017
45946W        W17475  11.232   2.264  11.565
45947W        W17476  29.568  37.136  14.780
45948W        W17477  21.131  22.596   3.854
45949W        W17478   2.361  37.816   0.323
45950W        W17479  10.226   3.595   9.945
45951W        W17480  22.769  19.437  14.431
45952W        W17481  10.915  21.961  13.488
45953W        W17482  21.853  39.877  11.527
45954W        W17483  37.820   7.092   3.201
45955W        W17484   2.237  19.094   4.866
45956W        W17485  23.033  37.755  12.874
45957W        W17486  31.092  21.318  12.517
45958W        W17487  23.739  33.792   0.830
45959W        W17488  39.311  33.509  12.702
45960W        W17489  29.431  31.961   5.470
45961W        W17490  35.624   1.853   0.905
45962W        W17491  14.369  33.539   0.506
45963W        W17492  28.379  16.514   4.496
45964W        W17493   6.767   3.741  12.413
45965W        W17494  38.401  20.945   1.358
45966W        W17495   5.491  25.922   4.418
45967W        W17496  24.911  28.924  10.653
45968W        W17497  24.099   4.564  11.615
45969W        W17498  25.956  26.012  12.141
45970W        W17499  29.117   5.839   0.367
45971W        W17500   8.370   9.715  12.561
45972W        W17501   0.295  36.893  10.655
45973W        W17502  30.486  10.603   4.146
45974W        W17503  21.435  13.249   1.397
45975W        W17504   6.784  37.605   1.290
45976W        W17505  42.334  23.149  10.611
45977W        W17506  11.409   2.334  12.970
45978W        W17507  34.677  27.611  14.362
45979W        W17508  38.999  42.189  11.657
45980W        W17509  28.340  23.196  12.190
45981W        W17510  11.424  38.790  11.472
45982W        W17511  39.763  36.037  11.680
45983W        W17512  31.895  27.159  12.666
45984W        W17513  23.269  33.353  11.929
45985W        W17514  18.204  20.179  13.705
45986W        W17515  32.907  22.167   4.118
45987W        W17516  25.450  25.116   2.872
45988W        W17517  24.027  11.813  13.415
45989W        W17518  26.565  27.225  12.081
45990W        W17519   9.902   0.495   0.392
45991W        W17520  16.034  42.423   1.429
45992W        W17521  40.476  19.477   1.944
45993W        W17522  14.304   7.157  14.787
45994W        W17523  25.973  17.938   3.798
45995W        W17524  25.259  26.562   4.975
45996W        W17525  13.070  27.947   4.145
45997W        W17526  22.374  35.056  13.623
45998W        W17527  43.822  11.680  12.983
45999W        W17528  43.876  41.554   2.706
46000W        W17529  27.369   9.919   2.661
46001W        W17530  35.785  34.505   2.675
46002W        W17531   9.895  40.508  13.137
46003W        W17532   5.192   7.274  14.401
46004W        W17533  10.594   2.646   0.188
46005W        W17534  35.315  24.035  11.404
46006W        W17535  35.947  40.722   1.820
46007W        W17536  27.952  25.074  10.916
46008W        W17537  29.692  35.981  11.981
46009W        W17538   4.803  20.319   3.885
46010W        W17539  27.103  21.136   1.927
46011W        W17540   7.657  31.819  12.981
46012W        W17541  38.258  12.481   1.780
46013W        W17542  25.988   4.905   0.936
46014W        W17543  33.676  34.659   2.182
46015W        W17544  35.436  19.546  14.835
46016W        W17545  15.924  11.279   1.853
46017W        W17546   3.889  15.618   4.600
46018W        W17547  15.593   3.195  12.904
46019W        W17548   1.313  14.765  12.434
46020W        W17549  34.960  17.761   4.375
46021W        W17550  28.694  32.489  13.508
46022W        W17551  12.546  28.136   0.423
46023W        W17552  12.772   3.400   0.365
46024W        W17553  35.995   2.725   0.990
46025W        W17554  38.526  39.659  10.869
46026W        W17555  12.083  40.784  14.340
46027W        W17556  12.675  18.235  12.642
46028W        W17557   5.725   4.181   2.731
46029W        W17558  27.022  25.621   4.824
46030W        W17559  25.789  33.814   2.259
46031W        W17560  26.019   7.954   4.294
46032W        W17561  13.663  27.544   0.985
46033W        W17562  31.398  11.730  10.706
46034W        W17563  35.993  12.340   3.118
46035W        W17564  31.954  19.533   3.212
46036W        W17565  43.858  29.394  12.843
46037W        W17566  31.582   7.905   4.436
46038W        W17567   7.997  13.214  10.500
46039W        W17568  29.776  24.682  12.492
46040W        W17569  12.001  16.952  12.496
46041W        W17570  19.667   2.030  12.083
46042W        W17571   2.290  26.639   4.403
46043W        W17572  42.508  28.179   2.364
46044W        W17573  28.414   3.438   4.256
46045W        W17574  21.175  32.855  13.058
46046W        W17575  11.248  11.838   1.033
46047W        W17576  31.404  32.976  14.768
46048W        W17577  12.216  18.472  12.591
46049W        W17578  36.507  29.208   3.192
46050W        W17579   6.413  14.891  13.460
46051W        W17580  44.879   9.683   2.649
46052W        W17581  18.689  36.271   4.522
46053W        W17582  16.560   0.863   4.570
46054W        W17583   7.889  10.899   0.035
46055W        W17584  44.396  40.015  12.062
46056W        W17585   8.569  33.144  14.675
46057W        W17586  10.449  14.673  12.877
46058W        W17587  10.790  32.325   4.187
46059W        W17588  39.815   9.151   3.328
46060W        W17589  21.524  38.943  14.914
46061W        W17590  34.417  44.909   0.826
46062W        W17591  16.431  30.077   4.814
46063W        W17592   2.649  42.741  13.358
46064W        W17593  33.867   2.555  11.105
46065W        W17594  34.497  44.427   2.739
46066W        W17595   1.799   9.863  11.905
46067W        W17596   3.269  41.333   4.472
46068W        W17597  28.995  24.565   4.176
46069W        W17598   8.154  34.099  12.003
46070W        W17599  16.250  34.601  13.914
46071W        W17600  13.644  21.516   2.283
46072W        W17601  44.482   3.820   4.398
46073W        W17602  35.719  10.310  13.438
46074W        W17603  19.319  31.424   0.307
46075W        W17604   1.558  42.716  12.482
46076W        W17605  29.123   3.377   0.229
46077W        W17606  30.345   7.769   5.257
46078W        W17607  12.361   8.348   0.713
46079W        W17608   0.513  12.518   3.127
46080W        W17609  29.432   4.266   3.212
46081W        W17610  28.750  11.824   2.598
46082W        W17611  17.312  33.692   0.780
46083W        W17612  21.205   1.031   1.285
46084W        W17613  33.600   8.370  13.882
46085W        W17614  32.360  16.865  12.546
46086W        W17615  13.341   2.533   3.438
46087W        W17616  10.829  10.145   3.328
46088W        W17617   7.577  22.849   4.431
46089W        W17618  25.706   8.188   0.952
46090W        W17619  23.184   5.226  10.744
46091W        W17620  21.153  12.372   2.669
46092W        W17621  23.234  28.318   4.146
46093W        W17622  19.494  25.697  11.913
46094W        W17623   4.492  25.967  11.664
46095W        W17624  33.982  26.877   4.618
46096W        W17625  17.057   6.776   3.250
46097W        W17626   5.560  28.583   3.868
46098W        W17627  31.440  26.090  11.507
46099W        W17628  32.712  12.440  14.555
46100W        W17629   2.842  20.810   3.644
46101W        W17630  31.141   9.445   3.187
46102W        W17631  11.871  36.611  14.855
46103W        W17632  27.178  44.744  14.245
46104W        W17633  35.457  27.954   1.906
46105W        W17634  31.466  41.501  11.494
46106W        W17635  14.720  40.402   4.062
46107W        W17636   1.425   1.799  12.591
46108W        W17637  16.837  25.203   0.664
46109W        W17638  42.367  30.694   0.566
46110W        W17639  25.237   3.300   5.028
46111W        W17640  29.979   8.293  12.245
46112W        W17641  38.364  28.838   4.168
46113W        W17642  20.183  24.916  14.473
46114W        W17643  18.308   4.422   0.746
46115W        W17644  32.851  21.605   0.159
46116W        W17645  23.077   7.312  10.580
46117W        W17646  23.620  40.436  13.742
46118W        W17647  37.963  18.008  10.739
46119W        W17648  21.321   7.284   2.613
46120W        W17649  31.430  34.943   4.782
46121W        W17650  17.663  37.536  12.025
46122W        W17651  41.431  26.088  13.849
46123W        W17652   4.821  35.157  14.514
46124W        W17653   0.003  14.651  13.935
46125W        W17654  17.126   6.892  12.442
46126W        W17655  28.146   1.252   2.329
46127W        W17656  11.342  21.603   3.886
46128W        W17657  28.659  39.762   1.118
46129W        W17658  16.165   2.989   1.314
46130W        W17659  14.296  13.363  11.509
46131W        W17660   5.658  41.804  10.766
46132W        W17661  44.795  30.455   4.054
46133W        W17662  13.695   7.303  13.961
46134W        W17663  16.032  30.688   3.693
46135W        W17664  31.024   3.581   1.293
46136W        W17665   9.306  24.079   1.311
46137W        W17666  37.501  26.992   2.460
46138W        W17667  29.410  31.701  12.554
46139W        W17668  39.440  10.637   1.209
46140W        W17669   3.959  39.488   2.774
46141W        W17670   1.815  13.985   1.472
46142W        W17671   5.531  29.551   3.049
46143W        W17672   7.833  10.952   1.499
46144W        W17673  22.607  30.483  13.247
46145W        W17674  12.773   7.537   1.709
46146W        W17675  23.491  13.807   2.070
46147W        W17676  39.046  31.365  13.459
46148W        W17677  10.844  27.392   2.666
46149W        W17678  17.287  19.964  11.125
46150W        W17679   1.640  18.721  14.863
46151W        W17680  11.399  11.508  10.582
46152W        W17681  17.220  22.187   1.654
46153W        W17682  11.561  39.544  13.036
46154W        W17683  24.099  15.048  12.646
46155W        W17684  12.372   4.160  12.865
46156W        W17685  19.777  43.793  12.302
46157W        W17686   8.897  34.486  12.579
46158W        W17687   8.260   0.732   2.192
46159W        W17688  34.445   5.782   1.815
46160W        W17689  10.823   2.954   2.654
46161W        W17690  43.914   8.360   4.635
46162W        W17691  17.566   2.675  14.916
46163W        W17692  15.312  33.482  11.571
46164W        W17693   8.911  23.985  11.604
46165W        W17694   9.503  39.804  14.047
46166W        W17695  32.074  19.890  12.913
46167W        W17696  44.721  21.293  12.781
46168W        W17697  25.116   4.882   1.729
46169W        W17698  33.604  25.268  14.940
46170W        W17699  27.399  26.528   1.167
46171W        W17700  28.208   5.710  12.791
46172W        W17701   9.951  12.267  11.118
46173W        W17702  43.702   0.122   1.217
46174W        W17703  29.002  27.595  10.905
46175W        W17704   9.681  17.582   3.238
46176W        W17705  26.379  22.443  13.247
46177W        W17706  30.002   5.897  12.948
46178W        W17707   5.471  42.939  10.533
46179W        W17708  26.043  10.235   2.462
46180W        W17709  18.164  39.035  13.142
46181W        W17710   9.098  18.383  14.053
46182W        W17711  19.158  13.014  14.743
46183W        W17712  28.796  20.631   2.064
46184W        W17713  40.744  31.184  11.554
46185W        W17714  30.625   6.816  10.564
46186W        W17715  15.834  13.355  12.353
46187W        W17716   3.324  37.820   1.309
46188W        W17717  29.972   5.461  14.153
46189W        W17718  23.720   2.427   2.158
46190W        W17719  43.471  20.547   1.989
46191W        W17720  39.419  19.577   4.767
46192W        W17721  30.657  35.001   4.195
46193W        W17722  23.145  36.152   3.928
46194W        W17723  29.255  25.619   2.429
46195W        W17724  16.262  43.367  12.886
46196W        W17725  20.022   4.107  12.392
46197W        W17726  20.147  40.934   4.592
46198W        W17727   8.840  20.161   0.525
46199W        W17728  14.939  23.907  10.760
46200W        W17729   7.203  23.722   4.460
46201W        W17730  18.727   2.430   0.513
46202W        W17731  30.117   6.172   3.267
46203W        W17732  37.103  30.068  12.766
46204W        W17733  21.691  25.493   1.031
46205W        W17734   6.233  18.836  10.444
46206W        W17735  37.973  10.202   1.266
46207W        W17736  18.751  27.362   4.079
46208W        W17737   3.399   7.432   0.680
46209W        W17738  34.858   0.107  12.531
46210W        W17739  21.584  11.756   1.281
46211W        W17740   5.244  23.476  11.659
46212W        W17741  10.110   0.340   2.211
46213W        W17742  40.542  28.075   3.759
46214W        W17743  38.936  36.996   2.001
46215W        W17744  42.277  35.644  13.589
46216W        W17745  20.707  21.219  14.442
46217W        W17746  32.045  25.656  12.566
46218W        W17747  41.967  20.535  14.866
46219W        W17748  39.283  30.969  14.808
46220W        W17749  14.371  42.261   1.820
46221W        W17750  32.819  43.983   1.190
46222W        W17751   6.439  38.278  12.588
46223W        W17752  28.884  16.714  14.404
46224W        W17753  38.481  39.100   0.301
46225W        W17754  32.144   3.361   1.414
46226W        W17755  32.611   4.669  14.335
46227W        W17756  34.978  21.836  13.516
46228W        W17757   5.379   5.926  14.055
46229W        W17758  25.908  39.385  13.562
46230W        W17759  30.384  40.324   0.676
46231W        W17760  24.620  12.152  14.856
46232W        W17761  15.623  38.887   3.660
46233W        W17762  11.951  25.467   1.382
46234W        W17763  33.534  29.957   4.805
46235W        W17764  29.132   0.856   1.357
46236W        W17765  30.435  20.169   4.051
46237W        W17766  25.186   9.214  11.290
46238W        W17767   9.777  36.060  13.071
46239W        W17768   7.996  26.018  12.137
46240W        W17769   7.238  28.936  11.631
46241W        W17770  24.531  38.475  10.618
46242W        W17771  29.788  44.083   1.122
46243W        W17772  22.759  25.425   4.152
46244W        W17773  16.367  39.343   0.055
46245W        W17774  26.588  41.354   1.448
46246W        W17775  10.218  19.826   0.364
46247W        W17776  41.519  19.193   2.344
46248W        W17777  44.165  26.107  13.043
46249W        W17778  13.722  37.046   0.007
46250W        W17779  21.164  44.356  13.983
46251W        W17780   6.620  24.609  11.351
46252W        W17781  34.930  21.583  11.640
46253W        W17782  21.949  21.631   4.444
46254W        W17783  37.786  33.091   1.474
46255W        W17784  34.007  25.035   2.711
46256W        W17785  39.751  31.197  12.805
46257W        W17786  40.616  34.218  12.340
46258W        W17787  23.460   2.899   1.250
46259W        W17788  24.793   2.781  13.839
46260W        W17789  44.049  32.637  14.487
46261W        W17790  25.198  27.629   0.347
46262W        W17791   0.544  29.927  12.075
46263W        W17792  44.703  12.087   4.865
46264W        W17793  36.629  41.580  13.988
46265W        W17794  43.181  24.306  12.890
46266W        W17795  33.832   0.380  12.951
46267W        W17796  27.118  14.221  13.967
46268W        W17797  28.185  20.471  13.456
46269W        W17798  11.810   3.007  13.476
46270W        W17799   0.736  12.455   1.995
46271W        W17800   9.763  11.685  11.905
46272W        W17801  29.305  44.749   4.020
46273W        W17802  41.542  31.472   1.806
46274W        W17803  23.452   2.018   2.307
46275W        W17804  22.599  23.339   3.601
46276W        W17805   8.364  43.445   3.577
46277W        W17806  38.647  18.251  11.232
46278W        W17807  40.752  32.132   1.421
46279W        W17808   1.925   5.945   4.084
46280W        W17809  14.620  14.802   1.326
46281W        W17810   9.881  44.836   3.078
46282W        W17811  31.008  16.305  14.927
46283W        W17812  24.770  37.090  12.459
46284W        W17813   2.492  32.712  11.981
46285W        W17814  12.303  34.480   4.613
46286W        W17815  27.906  43.420  13.485
46287W        W17816  22.104  28.862   3.987
46288W        W17817  12.770  39.278  11.944
46289W        W17818  21.278  21.222   0.134
46290W        W17819  43.565  20.741   3.364
46291W        W17820   5.554  28.076   3.733
46292W        W17821  16.076   7.740   4.549
46293W        W17822  24.626  17.629   0.342
46294W        W17823   8.250  37.001   3.836
46295W        W17824  10.731  21.271  11.122
46296W        W17825  21.431  18.123  12.447
46297W        W17826  34.416  28.561   4.087
46298W        W17827  36.116  41.261   3.279
46299W        W17828  43.482  36.338   1.349
46300W        W17829  29.716  25.504   3.739
46301W        W17830  23.786  10.451   0.817
46302W        W17831   1.148   3.478   5.136
46303W        W17832   6.492  31.416   4.545
46304W        W17833  24.518   2.309   3.771
46305W        W17834   7.082   1.935   1.817
46306W        W17835  29.546  43.572  14.881
46307W        W17836   1.665  32.171  12.992
46308W        W17837  19.591  32.910   1.059
46309W        W17838  33.196  41.016  13.339
46310W        W17839  15.185  27.505  13.523
46311W        W17840   6.906  25.917   1.871
46312W        W17841  15.815  18.647  11.219
46313W        W17842   7.867  10.640   4.626
46314W        W17843  15.186   6.683  11.516
46315W        W17844   6.200   2.493  13.047
46316W        W17845  37.571  30.030  12.582
46317W        W17846  17.215  25.454  14.412
46318W        W17847   2.720   3.933  13.784
46319W        W17848  35.354   2.997   0.412
46320W        W17849  10.340   0.003   3.380
46321W        W17850   1.649  10.620   4.384
46322W        W17851   6.184   9.923  11.691
46323W        W17852  28.911  32.190   1.278
46324W        W17853   7.051  11.554   4.270
46325W        W17854  39.817  14.747  11.970
46326W        W17855   9.851  25.949   3.156
46327W        W17856   1.137   7.718  13.518
46328W        W17857  28.549  35.983  12.045
46329W        W17858  25.110  19.304  11.121
46330W        W17859  18.110  21.088  13.511
46331W        W17860  27.636   0.890   0.515
46332W        W17861   0.288   9.165   3.605
46333W        W17862  11.230  14.355   1.414
46334W        W17863  24.231  12.867  14.478
46335W        W17864  26.624  21.478  11.126
46336W        W17865  14.596   7.165   3.830
46337W        W17866  44.554  12.591  10.833
46338W        W17867  18.003  21.545   0.001
46339W        W17868  43.921  12.857   0.406
46340W        W17869  14.603  26.747   2.338
46341W        W17870  26.970  25.960  14.903
46342W        W17871   8.822  19.745   2.648
46343W        W17872  21.577   9.473  11.556
46344W        W17873  17.242  26.063   1.825
46345W        W17874  11.748  23.600  11.622
46346W        W17875   8.105  39.562  12.955
46347W        W17876   7.892  10.213  12.110
46348W        W17877  10.138  17.134   0.248
46349W        W17878   8.506  16.629  10.156
46350W        W17879  18.160  34.128   0.856
46351W        W17880  26.104  15.991   3.771
46352W        W17881  26.451  39.503   3.266
46353W        W17882  27.171   3.194  14.460
46354W        W17883   5.992  43.941   1.023
46355W        W17884   9.802  23.651  11.209
46356W        W17885  38.812  17.691   1.482
46357W        W17886  21.057  34.571   5.173
46358W        W17887  28.121  40.352  10.739
46359W        W17888  38.164  11.765   0.297
46360W        W17889  38.792  23.015  12.159
46361W        W17890  38.470  35.822   0.838
46362W        W17891  27.431  39.061   3.139
46363W        W17892   4.426  12.590   0.923
46364W        W17893  25.584  36.129  12.273
46365W        W17894  10.875  30.922  10.722
46366W        W17895  20.358  36.646   1.266
46367W        W17896  19.137   6.854  12.464
46368W        W17897  39.214  28.639   0.820
46369W        W17898   2.804  32.418  12.863
46370W        W17899  20.026   8.227  12.699
46371W        W17900  31.015  32.107   2.333
46372W        W17901  11.710   3.283   0.414
46373W        W17902  20.806  40.950   4.587
46374W        W17903  12.775  42.353  11.215
46375W        W17904  21.693  37.593  13.760
46376W        W17905  22.120  11.876   1.331
46377W        W17906   2.036   4.763   3.748
46378W        W17907  28.647  32.400   3.738
46379W        W17908  13.358   6.644   3.637
46380W        W17909  41.803  21.920  13.544
46381W        W17910  37.031   4.225  10.645
46382W        W17911  22.100  19.550   3.892
46383W        W17912  44.341  35.188   2.671
46384W        W17913   6.232  29.057   3.199
46385W        W17914  37.337   8.221  10.495
46386W        W17915   3.261  35.598   0.816
46387W        W17916  43.525  34.198   2.951
46388W        W17917  44.557   7.978   4.171
46389W        W17918  30.656  19.714  14.270
46390W        W17919   7.674  41.105   3.697
46391W        W17920   2.546  16.086   2.322
46392W        W17921   9.232  42.555   0.817
46393W        W17922   5.224  32.939  12.482
46394W        W17923  33.456   6.432   1.390
46395W        W17924  24.511  32.365  11.086
46396W        W17925   2.403  41.691  13.475
46397W        W17926   4.763  38.213  14.304
46398W        W17927  35.110  30.932  14.994
46399W        W17928  25.489   8.999  13.400
46400W        W17929  18.358  18.706  13.579
46401W        W17930  13.410  21.648  11.708
46402W        W17931  27.685  38.828   1.286
46403W        W17932  35.407  19.460  13.331
46404W        W17933  14.820  14.695  13.378
46405W        W17934  43.439  34.232   4.402
46406W        W17935   3.215  20.977  11.661
46407W        W17936   2.130  30.029   0.847
46408W        W17937  21.932  26.168  13.985
46409W        W17938  10.598  28.981  14.798
46410W        W17939  34.419  34.992  10.403
46411W        W17940  40.406  42.729   0.850
46412W        W17941  19.298  33.550  10.945
46413W        W17942   7.643  22.353  14.483
46414W        W17943  14.829  11.679   3.653
46415W        W17944  41.949   9.207   4.593
46416W        W17945  13.712  12.745  11.413
46417W        W17946  12.847  27.534   4.354
46418W        W17947  30.406   2.003   1.868
46419W        W17948   9.972  25.649  13.646
46420W        W17949  10.298  37.896  10.554
46421W        W17950  28.621  16.770   2.699
46422W        W17951  16.006  29.634   2.632
46423W        W17952   7.936  41.879  10.700
46424W        W17953  19.090  11.376  12.939
46425W        W17954  42.379   2.339  11.411
46426W        W17955   3.529   1.745  11.754
46427W        W17956  13.207   7.661   4.659
46428W        W17957  11.219  11.205   4.744
46429W        W17958  39.875  40.944  12.637
46430W        W17959  21.244  37.489   9.747
46431W        W17960  35.647  14.141   3.242
46432W        W17961  31.101   2.765  12.986
46433W        W17962  36.490  19.779  11.406
46434W        W17963   8.897  10.303   4.634
46435W        W17964   9.598   2.808   0.308
46436W        W17965  42.704   9.268   1.829
46437W        W17966  41.377   8.668   1.808
46438W        W17967  26.075  42.852  14.897
46439W        W17968  17.748  33.330  11.703
46440W        W17969  14.319   4.691  14.955
46441W        W17970  40.035  13.162  14.921
46442W        W17971  38.648  23.061   1.464
46443W        W17972  42.360   3.352  13.966
46444W        W17973  22.742  41.717   0.316
46445W        W17974  42.764  38.496  10.752
46446W        W17975   6.790  10.296  10.985
46447W        W17976  19.928   1.750  12.514
46448W        W17977  27.670  30.210  14.378
46449W        W17978  39.516  37.859  14.530
46450W        W17979   1.726  36.623  14.825
46451W        W17980  42.370  17.293  11.601
46452W        W17981  43.809  12.403  12.600
46453W        W17982   5.500  21.238  12.079
46454W        W17983  17.740  25.304  14.346
46455W        W17984  43.851  12.647   0.876
46456W        W17985  29.406  39.844  11.944
46457W        W17986  10.126  28.819   1.979
46458W        W17987  33.924  39.982   2.778
46459W        W17988  24.727  32.613   2.203
46460W        W17989  15.081  25.220   1.282
46461W        W17990  13.813  11.327  12.920
46462W        W17991   7.155   2.360  12.660
46463W        W17992  42.070   4.808  12.304
46464W        W17993  12.192  42.283   2.796
46465W        W17994   0.005  26.619  13.840
46466W        W17995  18.300  19.429   1.337
46467W        W17996  16.696  12.315  12.429
46468W        W17997  25.629  40.688  10.684
46469W        W17998  23.916  13.012   2.729
46470W        W17999  41.346  27.309   0.710
46471W        W18000  37.074  26.812   1.562
46472W        W18001  24.240   0.268   1.462
46473W        W18002  30.245  19.071   4.866
46474W        W18003  22.699  30.675  12.798
46475W        W18004  11.394  41.644  11.282
46476W        W18005  24.742   9.342   3.767
46477W        W18006   2.918  27.504  12.289
46478W        W18007  31.488  44.212  13.041
46479W        W18008  15.303  16.085  13.270
46480W        W18009   2.686  40.445   4.760
46481W        W18010  42.007  39.436  11.923
46482W        W18011  21.133  28.134  11.262
46483W        W18012  34.594  28.021   1.336
46484W        W18013  29.411  43.405   0.994
46485W        W18014   5.799  21.879  11.892
46486W        W18015  16.194  21.770  13.848
46487W        W18016  21.293  30.039  14.213
46488W        W18017  20.076   7.280  10.807
46489W        W18018  42.533   7.781   3.727
46490W        W18019  41.385  22.282   0.392
46491W        W18020   0.005   3.613   4.130
46492W        W18021  22.653  35.919   1.311
46493W        W18022   8.641   2.467  12.489
46494W        W18023  40.753  24.958   0.685
46495W        W18024  32.987  38.547   0.765
46496W        W18025  31.421  29.658  14.900
46497W        W18026  43.890  12.905   1.359
46498W        W18027  11.807  20.949  14.574
46499W        W18028  21.492  34.986   2.321
46500W        W18029  24.053  43.059   1.829
46501W        W18030  14.428   3.822  11.454
46502W        W18031  43.928   7.903  13.797
46503W        W18032  28.971  39.055  12.345
46504W        W18033  18.756  10.662  10.771
46505W        W18034   8.146   6.751  10.633
46506W        W18035  38.364  21.468   1.302
46507W        W18036  29.718   3.381  13.575
46508W        W18037  41.933  10.948   3.673
46509W        W18038  39.481  26.113   1.781
46510W        W18039   2.212  23.807   1.278
46511W        W18040  14.336  34.492   4.944
46512W        W18041  14.165  21.489  11.207
46513W        W18042  20.612   8.330  13.536
46514W        W18043   3.568  33.098  12.914
46515W        W18044  39.057  39.148   1.914
46516W        W18045  16.345  33.570   4.735
46517W        W18046  36.876  30.246   3.983
46518W        W18047  27.385  39.577  11.932
46519W        W18048  41.700  32.012   1.706
46520W        W18049  10.448  23.844  12.920
46521W        W18050  36.373   5.275   2.265
46522W        W18051  39.071  26.628   2.980
46523W        W18052  36.524  23.091   0.742
46524W        W18053  11.952  34.825   1.506
46525W        W18054   9.442  14.110   3.263
46526W        W18055  39.930  37.776   3.639
46527W        W18056   9.461  40.796   1.876
46528W        W18057  42.804   7.415   4.590
46529W        W18058   0.578  35.092  14.887
46530W        W18059  32.158  18.133  14.442
46531W        W18060  30.559  30.992   4.089
46532W        W18061   1.009  31.827  11.532
46533W        W18062  25.232  34.438  10.542
46534W        W18063  19.235  38.367   3.033
46535W        W18064  36.040  29.038   3.671
46536W        W18065  13.659  43.419  13.842
46537W        W18066  20.177  42.857  12.120
46538W        W18067   0.022  19.406   0.445
46539W        W18068   9.943  10.236   4.177
46540W        W18069  13.733   4.324   3.749
46541W        W18070  41.817  24.550   4.358
46542W        W18071  32.678  39.369   4.253
46543W        W18072  12.775  17.557  14.045
46544W        W18073  28.067  37.926   3.399
46545W        W18074  32.304  28.593  11.392
46546W        W18075  34.789  29.639  10.725
46547W        W18076  29.109  22.133   3.699
46548W        W18077  36.732  32.824  14.259
46549W        W18078  43.298  40.896  11.414
46550W        W18079  24.872  25.190  11.980
46551W        W18080   3.566  16.780   2.722
46552W        W18081  10.249  36.480   4.185
46553W        W18082   6.687  22.275  14.103
46554W        W18083  19.032   5.566   4.184
46555W        W18084  39.448  36.939  12.059
46556W        W18085  13.097  26.695  13.337
46557W        W18086  23.900  20.272   0.145
46558W        W18087  39.575  23.443  10.724
46559W        W18088   6.482  37.451   1.760
46560W        W18089  12.313   7.052   2.811
46561W        W18090  29.131  43.904   4.239
46562W        W18091  30.369  42.054   1.457
46563W        W18092  36.306  14.177   2.319
46564W        W18093  41.261  29.693   1.030
46565W        W18094  11.948  44.879  14.939
46566W        W18095  32.020   4.777   5.151
46567W        W18096  36.432  31.886  10.994
46568W        W18097  40.844  28.567   1.861
46569W        W18098  35.094  38.772   1.132
46570W        W18099   3.287  24.034   1.853
46571W        W18100  15.297  23.002  10.574
46572W        W18101  26.063  19.721  10.633
46573W        W18102  33.584  34.067  14.783
46574W        W18103  12.731   4.201  13.892
46575W        W18104  10.711   4.212   4.100
46576W        W18105  42.846  24.401  12.018
46577W        W18106   7.513  12.077   3.734
46578W        W18107  30.970  24.532   0.098
46579W        W18108  24.073  28.421   1.460
46580W        W18109   2.019  36.164  10.652
46581W        W18110  43.921  29.629  12.387
46582W        W18111  30.143   7.414  10.818
46583W        W18112  14.262  34.021   0.273
46584W        W18113  40.730  17.659   2.470
46585W        W18114  40.865  20.659  12.382
46586W        W18115  26.502  18.573   4.442
46587W        W18116  21.979  18.228   3.836
46588W        W18117   5.448  38.446   1.852
46589W        W18118  19.199  10.597   1.314
46590W        W18119  40.497   9.598  13.957
46591W        W18120   0.745  31.931   3.164
46592W        W18121   7.262  10.894   1.158
46593W        W18122   0.121  19.451  12.536
46594W        W18123  32.385  20.299  12.922
46595W        W18124  42.757  33.879  12.415
46596W        W18125  34.154  37.100   1.423
46597W        W18126  13.863  12.709   3.825
46598W        W18127  10.868  40.241  12.849
46599W        W18128  27.543  32.135   2.410
46600W        W18129  27.981  23.271  10.332
46601W        W18130  35.828  23.722  12.583
46602W        W18131   4.330  14.491   4.251
46603W        W18132  28.841  24.127  14.749
46604W        W18133   8.358   7.743  13.034
46605W        W18134  19.785  26.937   0.230
46606W        W18135  39.973  12.450   0.935
46607W        W18136  11.397   5.789   0.947
46608W        W18137  44.063  44.582  10.996
46609W        W18138  34.078   3.832  14.887
46610W        W18139  14.858  40.953  13.944
46611W        W18140  27.581  40.436   4.254
46612W        W18141  23.652   6.649   1.920
46613W        W18142   1.745  33.089   4.214
46614W        W18143   3.693   2.747   4.148
46615W        W18144  29.393  39.124  12.009
46616W        W18145  39.521  34.942  11.369
46617W        W18146  33.050   8.709   4.107
46618W        W18147  16.586  10.854   0.423
46619W        W18148   9.477  42.297   0.448
46620W        W18149  25.736  40.351   3.765
46621W        W18150   8.113   4.907   0.411
46622W        W18151  11.366  28.485  14.486
46623W        W18152  33.265  34.123   3.345
46624W        W18153   4.481  41.424   4.300
46625W        W18154  32.022  41.403   3.354
46626W        W18155  41.503  21.126   0.864
46627W        W18156  36.166  23.251   2.364
46628W        W18157  43.786  16.324   1.724
46629W        W18158  29.031  12.775  11.916
46630W        W18159  36.505  37.375   0.909
46631W        W18160   9.170  42.757  14.494
46632W        W18161  24.671  34.614   0.482
46633W        W18162   0.202  35.609  12.101
46634W        W18163  12.006  30.332  11.695
46635W        W18164  43.726  16.750   0.512
46636W        W18165  44.737  21.617  11.830
46637W        W18166   6.786  24.963  10.924
46638W        W18167  40.825  11.106  13.904
46639W        W18168  29.472  26.273   3.183
46640W        W18169  33.641  33.449  12.576
46641W        W18170  33.062   2.712  10.685
46642W        W18171  28.897  44.883  11.608
46643W        W18172  15.162  25.937   4.915
46644W        W18173  14.812  10.507   3.263
46645W        W18174  13.697  31.013   1.053
46646W        W18175  14.401  14.897   4.169
46647W        W18176  17.102  39.383  10.422
46648W        W18177  42.543  13.757  12.205
46649W        W18178  28.431   0.124   0.901
46650W        W18179  39.500  23.481   0.343
46651W        W18180   3.426  12.685   2.704
46652W        W18181  29.362  25.381   4.127
46653W        W18182  33.898  14.579   4.238
46654W        W18183  36.051   2.936  11.002
46655W        W18184  33.603  31.555  11.227
46656W        W18185   0.171  40.362  13.679
46657W        W18186  16.632  17.516   4.029
46658W        W18187  22.121  19.869   4.304
46659W        W18188  21.206  32.150   1.026
46660W        W18189  13.581  11.177   2.826
46661W        W18190  44.426  11.496  13.256
46662W        W18191  33.930  21.668   1.678
46663W        W18192   4.418  31.324   4.587
46664W        W18193  24.649  26.863   4.817
46665W        W18194  34.636  40.402  11.579
46666W        W18195  14.696  15.714  12.934
46667W        W18196   3.242  21.027   2.079
46668W        W18197   1.524  28.807   4.112
46669W        W18198  44.439  17.218  14.072
46670W        W18199  16.734  29.093  14.768
46671W        W18200  42.757  41.870  12.541
46672W        W18201   8.344  15.878   4.726
46673W        W18202  23.706  31.501   4.601
46674W        W18203   6.798  36.033  14.544
46675W        W18204  24.391   3.627   2.266
46676W        W18205  10.196   4.368  14.692
46677W        W18206  41.442  34.634  14.392
46678W        W18207   0.487  10.850  14.904
46679W        W18208   5.013  28.108  14.072
46680W        W18209  44.335  25.179  11.657
46681W        W18210  43.946  26.658  11.502
46682W        W18211  43.510   7.299  12.149
46683W        W18212  41.343  30.093   1.364
46684W        W18213   9.299  17.201  13.555
46685W        W18214  33.447  21.789   3.643
46686W        W18215  41.545   5.320   2.307
46687W        W18216  22.005  24.018  11.007
46688W        W18217  43.061  35.886  13.775
46689W        W18218  24.581  30.404  13.949
46690W        W18219   1.882  19.094  12.505
46691W        W18220  34.615  10.664  12.841
46692W        W18221  16.554  42.897  12.914
46693W        W18222  27.047  33.907  11.227
46694W        W18223  21.327  31.330  10.733
46695W        W18224   3.837  19.694  10.546
46696W        W18225   5.442   1.953  10.697
46697W        W18226   9.649  43.199   0.279
46698W        W18227  42.931  42.492   3.633
46699W        W18228  12.090   3.494  12.644
46700W        W18229  14.394  24.206   4.270
46701W        W18230   5.114  43.418  11.912
46702W        W18231  44.360  16.913  10.888
46703W        W18232  16.069  29.409   2.174
46704W        W18233   2.907   1.182  14.575
46705W        W18234   0.109  14.867   0.345
46706W        W18235  13.852  29.851   1.874
46707W        W18236  12.672  20.998  13.800
46708W        W18237  29.146  43.239   4.605
46709W        W18238   1.696  27.752   3.221
46710W        W18239  30.919  29.363  12.546
46711W        W18240   1.966  35.110  13.557
46712W        W18241  32.630  16.384   0.814
46713W        W18242  43.275  38.044   4.541
46714W        W18243   0.883  10.236   2.955
46715W        W18244  35.390  18.653  11.616
46716W        W18245  36.300  23.681  12.336
46717W        W18246  31.429  40.923   0.281
46718W        W18247  29.028  38.760  11.888
46719W        W18248  20.505   8.432  12.593
46720W        W18249  41.106  38.069  10.624
46721W        W18250  28.439  11.111  10.592
46722W        W18251  44.924  16.068  11.628
46723W        W18252   0.272  43.217   4.089
46724W        W18253  39.529  18.167   1.222
46725W        W18254  33.176  26.412   4.128
46726W        W18255  44.835  24.058  11.404
46727W        W18256  38.791   0.762  14.018
46728W        W18257  13.830  17.277  14.536
46729W        W18258  16.605  24.345   4.251
46730W        W18259   7.281  35.850  14.520
46731W        W18260   8.349  17.677  10.256
46732W        W18261  33.601   0.297   4.185
46733W        W18262   3.486  33.922   2.352
46734W        W18263  30.099  39.358   2.807
46735W        W18264  16.719  43.985  13.655
46736W        W18265  19.010  19.477  13.685
46737W        W18266   9.327  30.510  13.322
46738W        W18267  31.392  43.681  13.158
46739W        W18268  30.751  29.092   3.227
46740W        W18269  22.072  21.081   0.673
46741W        W18270  26.955  30.053  14.877
46742W        W18271  26.022  21.270  14.751
46743W        W18272  24.004  17.820   0.366
46744W        W18273  25.854  44.216  13.052
46745W        W18274  41.877  13.641   4.245
46746W        W18275  42.300   4.741   2.339
46747W        W18276  20.983   0.806   2.776
46748W        W18277  42.565  43.138   4.963
46749W        W18278  39.787   5.852  13.012
46750W        W18279   5.140  33.589   2.869
46751W        W18280  37.878   2.412  12.126
46752W        W18281   7.697  38.763   1.332
46753W        W18282   1.319  32.757  12.407
46754W        W18283  22.209  22.624   4.761
46755W        W18284  40.219   6.010  11.694
46756W        W18285  21.694  29.476   0.862
46757W        W18286   8.595  12.723  13.474
46758W        W18287  32.457  24.615   2.687
46759W        W18288  20.281  16.102  13.572
46760W        W18289  11.350  21.144  12.255
46761W        W18290  16.687  38.380   1.893
46762W        W18291  14.303  21.959  11.988
46763W        W18292   9.224  24.033  12.008
46764W        W18293  29.120   7.203  10.744
46765W        W18294  44.920  11.844  10.270
46766W        W18295  30.681  40.575  14.394
46767W        W18296  13.750  28.520   1.346
46768W        W18297  37.630  35.499  12.348
46769W        W18298  33.468  30.412   2.315
46770W        W18299  10.229   6.964  12.340
46771W        W18300  35.444  11.693   4.627
46772W        W18301  37.458   4.350   4.667
46773W        W18302   0.857   8.728   0.221
46774W        W18303  28.793   4.304   2.663
46775W        W18304  10.826  19.002  14.438
46776W        W18305  30.112  11.484  11.089
46777W        W18306   6.826  24.079   4.305
46778W        W18307  22.224   4.270  12.159
46779W        W18308  10.881   6.819  12.957
46780W        W18309   4.900   7.822   0.554
46781W        W18310  19.648   6.310   4.950
46782W        W18311  36.039  23.010   2.799
46783W        W18312  36.844  38.548  14.931
46784W        W18313  11.382   9.682  11.198
46785W        W18314  42.484   9.681   0.443
46786W        W18315   3.337  14.575  13.352
46787W        W18316  13.157  38.490   1.451
46788W        W18317  22.575  30.905  13.525
46789W        W18318   4.173  20.843   4.053
46790W        W18319  43.962   5.697  10.634
46791W        W18320  40.045  42.466  14.027
46792W        W18321  41.447  24.448  14.521
46793W        W18322   2.517   9.304   3.795
46794W        W18323  24.144  27.426   1.502
46795W        W18324  15.775  29.007  14.417
46796W        W18325  15.449  34.359   0.007
46797W        W18326  43.965  30.094   3.186
46798W        W18327  23.983   9.242   3.185
46799W        W18328  32.838   1.643   3.305
46800W        W18329   0.254  14.156  10.750
46801W        W18330  12.923  44.334  10.198
46802W        W18331  32.922  38.280   1.604
46803W        W18332  39.348   6.705   3.100
46804W        W18333  27.708   2.833   3.808
46805W        W18334  19.106  22.486   4.592
46806W        W18335  16.996  20.499  13.864
46807W        W18336  21.706  35.702   2.669
46808W        W18337  17.825  28.967   3.677
46809W        W18338  13.674  28.479   4.833
46810W        W18339  10.202  18.399   4.119
46811W        W18340  10.198  36.981  14.930
46812W        W18341   6.523  35.120   0.403
46813W        W18342  15.403   7.721   1.423
46814W        W18343  29.335  22.195   9.867
46815W        W18344  21.696  22.609   4.722
46816W        W18345  12.280  34.869   4.270
46817W        W18346  28.639  29.919   1.707
46818W        W18347  20.228  42.440   3.058
46819W        W18348  28.134  29.665  13.996
46820W        W18349  31.836   4.797   1.329
46821W        W18350   3.861   6.254   2.785
46822W        W18351  11.089   8.286   1.286
46823W        W18352  31.926   2.703  11.068
46824W        W18353  21.610   0.295   3.356
46825W        W18354   5.305  24.756  14.496
46826W        W18355  10.447  19.144  14.782
46827W        W18356  36.469  13.207  14.962
46828W        W18357  25.710  15.719  10.828
46829W        W18358  17.264  18.753   3.772
46830W        W18359   5.873  26.378  10.489
46831W        W18360  35.939  43.921   3.136
46832W        W18361  27.971  27.429   3.385
46833W        W18362  24.768  16.881   3.651
46834W        W18363  40.057  33.862  12.918
46835W        W18364  33.851  33.267   1.231
46836W        W18365  40.143   4.428   5.034
46837W        W18366  13.328  15.332   3.171
46838W        W18367  34.756   1.035   0.037
46839W        W18368  18.113   8.582  12.006
46840W        W18369  16.383   7.845   3.675
46841W        W18370  43.013   6.336  11.160
46842W        W18371  26.990  42.314   0.447
46843W        W18372  22.456   1.852   0.833
46844W        W18373   1.408  16.164  14.895
46845W        W18374  37.813  43.400  14.291
46846W        W18375   0.306  31.625   3.872
46847W        W18376  23.299  22.726  13.447
46848W        W18377  44.074  43.816  10.533
46849W        W18378  33.478   3.525   3.283
46850W        W18379  18.719  10.387  14.344
46851W        W18380   3.016  43.339   2.218
46852W        W18381  40.790  34.375   2.761
46853W        W18382  33.452   8.889   1.469
46854W        W18383  24.464  18.358   0.739
46855W        W18384   4.443  44.911  12.829
46856W        W18385   4.243  10.599  11.891
46857W        W18386  21.186  13.159   3.343
46858W        W18387  14.581  31.117   3.460
46859W        W18388  13.692  22.638   2.209
46860W        W18389  22.873  34.919  10.654
46861W        W18390  18.186  19.753   9.693
46862W        W18391  32.047   7.232  14.318
46863W        W18392  12.356  33.540   2.358
46864W        W18393  13.639  25.411   1.038
46865W        W18394  12.237  38.228   4.788
46866W        W18395  26.799  22.370   2.242
46867W        W18396  13.112  38.423   4.565
46868W        W18397  35.158   1.117  14.684
46869W        W18398  42.409   7.290   4.917
46870W        W18399  21.092  21.089   1.122
46871W        W18400   4.161  44.179   3.232
46872W        W18401   8.730  31.754  13.734
46873W        W18402  44.984  14.908   1.255
46874W        W18403  40.804  16.306  14.606
46875W        W18404  23.306  44.451  11.572
46876W        W18405  38.417  44.359  12.783
46877W        W18406  36.592   1.415   4.450
46878W        W18407   6.631  34.547  10.949
46879W        W18408  22.616  19.275   4.139
46880W        W18409   4.674  20.511   0.420
46881W        W18410  34.161  38.623  11.098
46882W        W18411  44.224   5.250  10.720
46883W        W18412  40.564   5.746   4.116
46884W        W18413  27.007   6.725   4.118
46885W        W18414  23.145  41.956   3.035
46886W        W18415  33.438  14.272  11.758
46887W        W18416  29.265  28.073   2.273
46888W        W18417   8.620  13.201   1.415
46889W        W18418  21.554  22.859   2.145
46890W        W18419  26.609  37.716  12.554
46891W        W18420  42.251   3.372  10.968
46892W        W18421  30.453  10.602   3.335
46893W        W18422  34.400  38.362   2.833
46894W        W18423   0.734  43.929   3.583
46895W        W18424  39.309  17.041   1.695
46896W        W18425  21.975  27.991  11.872
46897W        W18426  30.675  19.231  14.086
46898W        W18427  13.101   7.179  10.659
46899W        W18428  42.986  20.012   2.811
46900W        W18429  32.590  42.603  11.903
46901W        W18430  21.137  33.880  13.162
46902W        W18431  21.767  38.900   3.737
46903W        W18432  15.184  26.220  12.965
46904W        W18433  26.666  30.816  10.010
46905W        W18434  15.324  37.301  11.493
46906W        W18435   8.737  23.469  12.488
46907W        W18436  20.372   0.238   1.770
46908W        W18437  13.728  13.059   2.733
46909W        W18438  11.297  36.104  11.919
46910W        W18439  15.212  38.572   3.704
46911W        W18440  39.527  21.004   5.106
46912W        W18441  30.234  18.460  11.676
46913W        W18442   4.754  39.923  11.361
46914W        W18443  37.947   3.685  10.689
46915W        W18444  37.001  12.342   3.301
46916W        W18445  22.998   8.606   4.154
46917W        W18446   0.558  28.197  11.386
46918W        W18447  17.142  36.238  13.052
46919W        W18448  30.611  24.054   1.867
46920W        W18449  16.804  26.667  10.653
46921W        W18450  16.090  36.843   0.903
46922W        W18451  34.128   2.985   4.555
46923W        W18452   2.859  41.825   0.767
46924W        W18453  25.480  29.048  11.191
46925W        W18454   2.930  13.108  12.484
46926W        W18455  44.907  28.008  13.107
46927W        W18456  20.472  26.452   1.812
46928W        W18457  25.274  26.119  10.730
46929W        W18458  32.120  17.328  12.802
46930W        W18459  35.827  42.505  14.270
46931W        W18460  44.952  23.031  13.926
46932W        W18461   0.959  33.143  13.440
46933W        W18462  27.870  33.350  12.107
46934W        W18463  40.969  29.345   3.222
46935W        W18464  43.462  16.897  10.559
46936W        W18465  34.869  24.149   2.785
46937W        W18466  25.625  14.510  14.720
46938W        W18467  17.812  30.562  11.538
46939W        W18468  24.536  22.579  12.174
46940W        W18469  35.505   9.235  11.253
46941W        W18470  34.818  41.383   1.286
46942W        W18471   3.438  30.537   4.604
46943W        W18472   8.370   9.321   2.327
46944W        W18473  12.748  24.669  10.638
46945W        W18474  40.055   7.968  14.780
46946W        W18475  20.691   6.861   2.727
46947W        W18476   9.979  19.763   2.401
46948W        W18477   3.192   3.834  14.003
46949W        W18478   1.106   7.046   4.098
46950W        W18479  38.001  34.830  10.433
46951W        W18480  16.189  31.590   3.032
46952W        W18481  20.084  42.270  10.559
46953W        W18482  37.161  35.431   0.224
46954W        W18483  38.872  22.575   0.819
46955W        W18484  37.994  25.972  12.449
46956W        W18485   2.009  22.533   4.458
46957W        W18486  16.847  15.113  12.494
46958W        W18487  18.582   7.746   0.319
46959W        W18488  31.319  35.681   0.374
46960W        W18489  19.803  39.661   3.422
46961W        W18490  44.646   6.123   3.458
46962W        W18491  22.527  34.079   4.971
46963W        W18492  14.750  40.399  13.449
46964W        W18493  41.474  42.335  11.154
46965W        W18494  43.823  40.853  10.347
46966W        W18495  42.542  35.042  12.993
46967W        W18496  25.062  10.712   3.677
46968W        W18497  41.098  21.669  14.301
46969W        W18498   6.213  43.830   1.474
46970W        W18499  17.144  16.852  14.032
46971W        W18500  13.541  15.785   1.411
46972W        W18501   7.169   3.199  11.146
46973W        W18502  12.745  26.194   3.747
46974W        W18503  14.175   8.372   2.932
46975W        W18504  11.573  41.851   2.280
46976W        W18505  16.161  38.348  13.118
46977W        W18506  39.950  16.083   1.040
46978W        W18507  31.945  39.984   0.123
46979W        W18508  28.922  36.090  12.414
46980W        W18509  29.886  23.102  12.119
46981W        W18510  34.313   9.282  13.957
46982W        W18511   4.945  33.622   0.294
46983W        W18512  23.077  23.680  14.815
46984W        W18513   0.211  11.798   2.674
46985W        W18514   8.611  31.754  10.758
46986W        W18515  44.892  31.667   1.514
46987W        W18516  13.821  35.528  14.315
46988W        W18517   0.212  17.118   4.569
46989W        W18518  16.194   5.965   3.230
46990W        W18519  23.252  25.496  14.905
46991W        W18520   2.449   2.358  11.179
46992W        W18521  21.053  42.369  12.571
46993W        W18522  18.818  31.260   0.366
46994W        W18523   9.716  25.462  10.607
46995W        W18524  24.605  40.618  12.068
46996W        W18525  25.732  10.227   0.811
46997W        W18526  31.582  33.543   2.417
46998W        W18527  41.289  26.040   4.617
46999W        W18528  36.881  33.619   0.921
47000W        W18529  33.651  10.676  12.512
47001W        W18530   4.705  41.859   3.631
47002W        W18531  14.197  13.640  14.063
47003W        W18532   9.434   2.930  11.112
47004W        W18533   3.685  25.092  11.462
47005W        W18534   5.693   1.334  14.503
47006W        W18535  43.266  23.630  11.243
47007W        W18536  19.640  37.650  12.931
47008W        W18537  19.125  14.653  12.433
47009W        W18538  26.613   2.875  13.036
47010W        W18539  25.654  20.787   0.306
47011W        W18540   4.262  41.529   3.395
47012W        W18541  12.691   7.389   1.213
47013W        W18542  27.026  11.332  12.939
47014W        W18543   8.168  43.534  12.941
47015W        W18544  10.400   8.146   1.863
47016W        W18545   5.201  39.516   3.651
47017W        W18546  42.451  10.674  13.920
47018W        W18547   9.332  29.875  12.629
47019W        W18548  34.011  16.013   3.255
47020W        W18549  14.410  40.219  11.285
47021W        W18550   5.382  33.708   3.332
47022W        W18551   1.663  29.102   3.691
47023W        W18552  43.865  40.334  12.923
47024W        W18553  25.603  21.602  14.784
47025W        W18554  24.203  42.363  12.482
47026W        W18555  40.440  28.989  14.897
47027W        W18556  44.215  34.987  10.194
47028W        W18557  34.489   3.774  14.567
47029W        W18558  17.713  12.187   3.236
47030W        W18559  44.186  44.438   2.739
47031W        W18560  20.136  14.283  14.558
47032W        W18561  22.005  28.465   1.924
47033W        W18562   9.735  28.661  12.906
47034W        W18563  21.545   6.211   1.824
47035W        W18564   2.089  43.487  10.721
47036W        W18565  26.525  17.956  12.169
47037W        W18566  43.905  32.157   0.437
47038W        W18567  43.387   9.837   4.572
47039W        W18568  12.580   5.027   3.156
47040W        W18569  17.691  12.031  13.057
47041W        W18570  12.711   0.996   2.320
47042W        W18571  13.836  38.922  11.606
47043W        W18572  30.701  30.092  10.958
47044W        W18573  18.263  13.819   4.098
47045W        W18574  20.574  25.839   2.376
47046W        W18575   7.674  20.185   4.658
47047W        W18576   2.501   7.465  10.453
47048W        W18577  41.256  17.480  14.346
47049W        W18578  22.561   5.300   2.119
47050W        W18579   0.585  15.792   9.980
47051W        W18580  19.375  41.742  10.511
47052W        W18581  23.118  41.571   1.791
47053W        W18582  37.255  15.837   4.581
47054W        W18583  24.923  19.217   2.697
47055W        W18584   3.765   9.739   0.493
47056W        W18585  33.185  23.259  13.777
47057W        W18586  19.790  30.177   2.363
47058W        W18587   3.214  22.050  11.101
47059W        W18588  17.776  41.328  13.114
47060W        W18589  18.142   5.481  14.898
47061W        W18590   5.967  33.954  14.027
47062W        W18591  33.961  19.452   3.240
47063W        W18592  22.247  14.302  13.015
47064W        W18593  16.244   7.260  11.101
47065W        W18594  27.598   4.521   1.792
47066W        W18595  27.242  28.496  13.065
47067W        W18596  32.498  33.785  13.526
47068W        W18597  33.644  14.145   3.343
47069W        W18598  26.068  36.068  13.079
47070W        W18599  23.091  27.773   0.229
47071W        W18600  30.748  39.606  14.395
47072W        W18601   3.004   6.687   1.665
47073W        W18602  17.842  13.284   1.324
47074W        W18603  29.692  39.363  13.541
47075W        W18604  20.674  18.124  11.148
47076W        W18605  32.176  42.338  13.007
47077W        W18606   9.741  25.183   4.775
47078W        W18607   4.279   2.413  12.589
47079W        W18608  33.542  18.804   3.766
47080W        W18609  30.540  21.096  13.368
47081W        W18610  38.898  40.129  11.604
47082W        W18611   6.657  11.149  12.020
47083W        W18612  12.302  41.816   1.368
47084W        W18613  25.521   4.899  13.585
47085W        W18614  18.531  13.351   3.222
47086W        W18615  43.567   3.974   4.501
47087W        W18616   1.281  37.633   3.427
47088W        W18617  25.709  36.535   4.998
47089W        W18618  35.962  33.484  10.749
47090W        W18619  40.563  43.831  10.729
47091W        W18620  24.130  21.302  12.900
47092W        W18621  35.348  29.918   1.217
47093W        W18622  10.417  24.016   0.830
47094W        W18623  40.110  42.059   1.539
47095W        W18624  41.774  35.887   1.546
47096W        W18625   6.296  10.339   4.143
47097W        W18626   7.972  35.506   4.620
47098W        W18627  33.915  30.969  10.589
47099W        W18628   3.758  16.336  14.558
47100W        W18629  32.701  10.781   2.674
47101W        W18630  41.401   5.804   2.173
47102W        W18631   0.642  15.522   4.392
47103W        W18632   5.886  12.189  13.018
47104W        W18633  14.207  21.969  14.776
47105W        W18634  36.755   3.945   0.783
47106W        W18635  11.195  34.053   0.464
47107W        W18636  13.378  44.726   0.515
47108W        W18637  11.780   0.393   2.369
47109W        W18638  30.329  15.864  12.042
47110W        W18639  41.383   6.147  13.262
47111W        W18640  23.134  30.195   2.144
47112W        W18641  30.128  28.122   0.464
47113W        W18642  33.485  26.529   2.222
47114W        W18643  29.085  20.999  13.502
47115W        W18644  33.055   7.866  12.282
47116W        W18645  20.101  19.738  11.164
47117W        W18646   1.245  12.296   0.941
47118W        W18647  37.136  18.788   5.069
47119W        W18648  30.461   7.862   3.583
47120W        W18649   4.041  32.423   2.196
47121W        W18650  14.781  42.792   2.197
47122W        W18651  32.931  21.107   0.307
47123W        W18652  10.666  42.926   4.640
47124W        W18653  27.871  38.504  11.704
47125W        W18654   5.322  15.866   1.325
47126W        W18655   0.163  14.677   0.832
47127W        W18656  40.471  19.225  11.934
47128W        W18657   3.058   6.248   0.951
47129W        W18658  14.212  44.610  10.989
47130W        W18659  26.445  22.407   5.105
47131W        W18660  34.970  31.424   0.300
47132W        W18661  42.850  35.136  10.743
47133W        W18662  19.076  19.561   2.692
47134W        W18663  18.132  41.531   0.267
47135W        W18664  39.372  14.871   2.387
47136W        W18665  16.005   0.474  14.271
47137W        W18666  31.008   6.790  11.278
47138W        W18667  22.054   7.871   2.826
47139W        W18668  42.790  14.680  12.197
47140W        W18669  15.745  10.858   0.806
47141W        W18670   9.048  36.833  11.522
47142W        W18671  20.245  22.714   1.334
47143W        W18672  40.453  41.011   0.397
47144W        W18673  37.829  10.875   3.839
47145W        W18674  29.212   1.359  12.459
47146W        W18675  12.227   4.299   3.086
47147W        W18676  34.987  37.498   0.344
47148W        W18677  36.004  25.186   4.052
47149W        W18678  24.531  37.411  12.987
47150W        W18679  33.018  15.328   1.769
47151W        W18680  11.625   4.792   3.261
47152W        W18681  29.172  31.036   2.657
47153W        W18682  24.259  19.571  11.019
47154W        W18683  32.316  37.460  13.106
47155W        W18684  33.893  39.577  14.727
47156W        W18685   0.084  35.047  14.943
47157W        W18686  23.638  42.781   0.037
47158W        W18687  17.763   1.290  13.507
47159W        W18688  27.128  11.868   1.832
47160W        W18689  40.381  34.977  13.937
47161W        W18690  17.794  18.811   3.786
47162W        W18691  14.607  24.207   4.815
47163W        W18692  35.098  21.808   1.062
47164W        W18693  34.028  22.100   1.987
47165W        W18694   1.895  10.828   0.241
47166W        W18695  28.155  21.988   4.160
47167W        W18696  34.213  14.335  12.434
47168W        W18697  22.722   8.756  13.506
47169W        W18698  36.120  19.778  11.051
47170W        W18699   4.853  25.034  14.404
47171W        W18700  42.598   9.357  13.862
47172W        W18701  25.865  32.949   5.038
47173W        W18702  33.579  29.173   3.715
47174W        W18703  20.800  14.211  11.537
47175W        W18704  38.547  31.154   0.322
47176W        W18705  16.314   4.654  12.181
47177W        W18706  38.403   8.144   2.848
47178W        W18707  27.467  12.337   1.148
47179W        W18708  37.996  23.452   3.598
47180W        W18709   0.949  38.321  10.705
47181W        W18710  38.497  12.166  14.640
47182W        W18711  14.733  39.331  12.391
47183W        W18712  37.629  25.614  14.898
47184W        W18713  24.933  21.537   0.566
47185W        W18714  31.167   4.980   2.644
47186W        W18715  19.616  40.480  14.001
47187W        W18716  21.028   5.303   4.059
47188W        W18717  44.815  23.980   3.094
47189W        W18718  20.125   2.329  12.918
47190W        W18719  19.661  39.446  12.028
47191W        W18720  40.382  17.035   3.533
47192W        W18721  20.559   4.425   1.149
47193W        W18722  19.113   5.254   1.160
47194W        W18723  44.307  34.009   0.919
47195W        W18724  23.238  28.613  14.015
47196W        W18725  12.917  22.354   4.121
47197W        W18726  21.539  25.580   2.312
47198W        W18727  22.670  35.398   4.071
47199W        W18728  14.827  39.893   4.821
47200W        W18729  37.369  20.794  14.880
47201W        W18730  23.388  17.525   4.220
47202W        W18731  37.276  26.661   1.086
47203W        W18732  36.122   3.711  10.595
47204W        W18733  43.599  15.130  13.968
47205W        W18734  35.341  33.492  11.990
47206W        W18735  23.691  26.982  13.485
47207W        W18736  19.632  22.833  14.535
47208W        W18737  28.753  35.064  11.193
47209W        W18738  41.049  38.529  14.834
47210W        W18739  42.225  30.842  10.621
47211W        W18740  23.096  33.050  12.300
47212W        W18741  16.861  29.731  14.458
47213W        W18742  38.097  37.886  12.560
47214W        W18743  34.385  15.571  11.450
47215W        W18744  16.295  43.545  13.377
47216W        W18745  20.768  20.588  13.074
47217W        W18746  18.743  23.179   0.686
47218W        W18747  37.309  41.351  13.347
47219W        W18748   2.898  23.502   2.381
47220W        W18749  17.849  18.330  13.341
47221W        W18750  29.681  17.129   2.829
47222W        W18751  13.191   0.288  13.083
47223W        W18752   4.232  24.031  12.103
47224W        W18753  28.884  19.281  12.419
47225W        W18754   2.787  21.066  11.423
47226W        W18755  34.834  27.177  14.084
47227W        W18756  20.671  34.036   3.904
47228W        W18757  33.669  33.620   1.980
47229W        W18758   2.646   0.740   3.818
47230W        W18759  34.159  14.106  11.112
47231W        W18760  26.436  17.515   4.700
47232W        W18761  18.973  13.267  11.208
47233W        W18762  27.481  40.799   0.282
47234W        W18763   3.454  14.995   4.089
47235W        W18764  25.449  43.303  10.642
47236W        W18765  27.061  40.702  11.182
47237W        W18766  24.027  25.817  11.017
47238W        W18767  21.677  18.004   2.670
47239W        W18768  13.931  27.304  14.770
47240W        W18769  16.577  35.831   3.189
47241W        W18770  26.225   8.145   1.189
47242W        W18771  37.160  34.796   5.052
47243W        W18772  29.080  14.024  11.058
47244W        W18773  29.529  11.884   4.646
47245W        W18774  35.195  14.612  13.856
47246W        W18775   7.822  30.201   4.154
47247W        W18776  39.538  34.536   3.151
47248W        W18777  10.874  23.171  13.516
47249W        W18778  33.912  32.481   1.604
47250W        W18779  28.004  24.941   0.106
47251W        W18780  32.443  13.586   0.290
47252W        W18781  16.271  24.630  13.729
47253W        W18782  34.195  40.138  12.878
47254W        W18783  24.694   1.997  13.475
47255W        W18784   5.961  12.825  11.226
47256W        W18785   6.530  32.106   4.107
47257W        W18786  30.957  33.549  10.986
47258W        W18787  24.041   1.489  14.809
47259W        W18788  25.573   7.251  11.650
47260W        W18789  14.357  38.861  10.965
47261W        W18790  15.356  10.642   2.426
47262W        W18791  43.260  32.154   1.699
47263W        W18792  36.094   5.869  12.854
47264W        W18793  19.516  37.312   2.415
47265W        W18794   5.121  20.005   3.222
47266W        W18795  23.160  12.598   2.658
47267W        W18796  41.392  10.340   3.828
47268W        W18797  32.989   6.365   3.210
47269W        W18798  37.580  35.242   1.666
47270W        W18799  14.357  35.424   3.399
47271W        W18800   4.696   4.662   0.847
47272W        W18801  41.980  42.016   0.646
47273W        W18802  28.128  26.941  12.534
47274W        W18803   2.749  44.558  13.604
47275W        W18804   6.926  22.170   1.385
47276W        W18805  34.063   1.491   3.795
47277W        W18806  30.832   4.802   4.657
47278W        W18807  35.909  19.968   4.923
47279W        W18808  24.201  34.374   3.685
47280W        W18809  31.049  13.078  10.845
47281W        W18810  15.063  38.667   4.567
47282W        W18811  22.939  44.606  13.441
47283W        W18812  39.537  23.191   2.343
47284W        W18813  17.425  12.250  13.847
47285W        W18814  24.585  20.835  12.528
47286W        W18815  29.057  28.478  12.876
47287W        W18816  11.143  33.592  13.331
47288W        W18817   5.832  37.455   4.532
47289W        W18818  23.834   5.306   4.777
47290W        W18819   4.521  30.668  13.176
47291W        W18820  17.818   6.839   0.932
47292W        W18821   8.103  14.215  12.916
47293W        W18822  43.720  43.496  14.420
47294W        W18823  38.758  21.090  14.438
47295W        W18824  30.182  20.121   2.272
47296W        W18825  10.275  39.932   4.463
47297W        W18826  34.222  25.900  14.773
47298W        W18827  38.020  23.655   0.438
47299W        W18828   2.501  44.944   1.385
47300W        W18829   5.183  15.528  12.528
47301W        W18830  13.049  19.748   0.237
47302W        W18831  36.790  21.968  13.507
47303W        W18832  40.372  43.883  14.089
47304W        W18833  30.842  13.021   1.877
47305W        W18834  11.580  17.247  11.601
47306W        W18835  27.049  15.562  13.208
47307W        W18836  23.632  24.696  11.421
47308W        W18837  24.027  22.033  12.652
47309W        W18838  37.337  14.319   0.047
47310W        W18839  33.367  22.225   2.825
47311W        W18840  26.476  39.533   2.347
47312W        W18841  27.140  30.856  13.179
47313W        W18842  25.471  38.066  14.984
47314W        W18843  37.526   0.596  12.187
47315W        W18844  40.398  22.320   3.773
47316W        W18845  21.119  12.188   4.711
47317W        W18846   3.175   5.361   2.141
47318W        W18847  24.626  31.783   1.902
47319W        W18848  15.110  29.244   1.312
47320W        W18849   1.437  40.367  12.779
47321W        W18850  38.418  20.255  10.941
47322W        W18851  16.747  27.197   2.566
47323W        W18852  44.029   5.777  14.300
47324W        W18853  33.152  40.742   4.229
47325W        W18854   3.304  16.248   0.879
47326W        W18855   2.599  23.659  12.524
47327W        W18856  38.949  13.716  14.110
47328W        W18857  16.119  34.938  12.514
47329W        W18858  32.845   2.580  11.134
47330W        W18859  40.960  17.522  11.528
47331W        W18860  19.203  18.867   1.136
47332W        W18861  43.964  15.348   0.896
47333W        W18862   0.781  40.159   0.271
47334W        W18863  36.000  37.345  11.278
47335W        W18864  35.861  33.502  13.273
47336W        W18865  37.530  35.119  12.683
47337W        W18866  26.545  41.395  12.439
47338W        W18867  27.091  43.219  11.549
47339W        W18868  13.210  36.576   1.141
47340W        W18869  22.160  29.977   0.326
47341W        W18870  17.331  35.996   0.398
47342W        W18871  26.668  34.450  14.286
47343W        W18872  24.807  33.012   4.843
47344W        W18873  32.066  14.805  11.889
47345W        W18874  22.771   9.128   2.535
47346W        W18875  13.566  12.841  13.913
47347W        W18876  17.456  20.725   3.088
47348W        W18877  23.355  22.531  10.519
47349W        W18878  36.094  10.163   2.338
47350W        W18879  14.600  18.171   3.645
47351W        W18880  26.478  44.741  12.120
47352W        W18881   3.772  28.085  12.459
47353W        W18882   8.836  13.145   0.940
47354W        W18883  35.509  18.473   2.722
47355W        W18884  25.270   7.854  14.725
47356W        W18885  14.576  15.496  10.254
47357W        W18886  16.113   0.359   1.201
47358W        W18887  38.278  33.908   1.264
47359W        W18888  23.066  14.216   3.954
47360W        W18889   9.481  24.998   1.792
47361W        W18890  11.661  33.918   4.408
47362W        W18891  40.483  30.986  11.132
47363W        W18892  42.559  33.014   3.488
47364W        W18893  32.427  21.472   3.881
47365W        W18894  28.038  27.484  14.544
47366W        W18895  38.739   2.299   4.616
47367W        W18896   9.783  10.700  11.902
47368W        W18897  20.562  10.208  12.058
47369W        W18898  12.841  12.345   1.958
47370W        W18899  21.795  14.883  14.388
47371W        W18900   6.724  44.415  12.420
47372W        W18901  22.424  32.962   2.300
47373W        W18902  21.495  34.657  14.046
47374W        W18903  16.464  37.107   0.444
47375W        W18904  14.123  30.314   3.667
47376W        W18905  14.910  13.862  11.032
47377W        W18906   9.305  19.921   0.352
47378W        W18907  14.631  24.228  14.447
47379W        W18908  28.045   8.469  10.134
47380W        W18909  13.659  33.542   4.305
47381W        W18910  15.233  35.925  10.725
47382W        W18911  44.167  27.142   0.504
47383W        W18912  36.805  21.814   2.330
47384W        W18913  27.542  24.773  12.795
47385W        W18914  15.283   9.238   3.576
47386W        W18915  41.972  30.220   1.028
47387W        W18916  35.187  13.310  13.520
47388W        W18917  28.968  35.160   1.807
47389W        W18918  17.859  16.157   2.846
47390W        W18919  19.224  31.736  11.834
47391W        W18920  27.695  43.228  13.072
47392W        W18921  42.909  14.541   2.159
47393W        W18922  25.644   5.508   3.253
47394W        W18923  32.586   8.349  11.564
47395W        W18924   3.233  30.882   4.133
47396W        W18925  26.495  36.067  10.263
47397W        W18926  35.036  44.839  14.855
47398W        W18927  31.955  20.276   2.641
47399W        W18928  31.741   2.187   3.670
47400W        W18929  15.230  12.656   0.790
47401W        W18930   3.275  27.165   0.649
47402W        W18931   5.629  18.280  12.867
47403W        W18932  16.553  24.688  14.994
47404W        W18933  43.784  38.753  13.495
47405W        W18934  25.249   3.830  11.722
47406W        W18935  36.686   7.344   4.005
47407W        W18936   5.177   1.434  14.012
47408W        W18937  35.496   8.704  12.612
47409W        W18938   7.333  18.234  14.087
47410W        W18939  11.687  35.878  10.772
47411W        W18940  18.402  34.861  13.696
47412W        W18941   3.868  43.656   2.547
47413W        W18942  39.935  39.346  10.968
47414W        W18943  40.943  17.831  12.414
47415W        W18944  27.218   4.849  12.475
47416W        W18945   9.407  10.307  14.502
47417W        W18946  21.232  16.054   0.239
47418W        W18947  22.909  44.446   2.682
47419W        W18948  19.124  41.452  11.710
47420W        W18949  22.490  38.982  11.815
47421W        W18950  42.739  42.595  10.719
47422W        W18951  44.707   3.388   3.750
47423W        W18952  16.531  41.872   0.750
47424W        W18953  21.068  37.509   3.225
47425W        W18954  40.439  37.475  11.132
47426W        W18955  19.842  41.487  14.808
47427W        W18956   5.339  21.469  11.178
47428W        W18957  11.448  21.231   2.154
47429W        W18958  18.161  28.158   0.067
47430W        W18959  40.586   5.741   2.668
47431W        W18960  30.523  12.165  14.980
47432W        W18961  30.040  28.938   2.391
47433W        W18962  27.125  34.081  12.084
47434W        W18963  25.965   1.559   0.264
47435W        W18964  10.343  40.981  10.448
47436W        W18965   0.191  31.623   2.839
47437W        W18966  33.992  24.435   4.678
47438W        W18967  30.703  35.617  14.274
47439W        W18968  15.799  44.276  13.513
47440W        W18969  15.913  38.992   1.857
47441W        W18970   1.267  10.425   3.667
47442W        W18971   5.546  34.617   0.941
47443W        W18972   9.424  42.777   1.505
47444W        W18973  43.138   2.943  12.175
47445W        W18974  21.657   7.969   4.000
47446W        W18975  19.678  35.519  14.829
47447W        W18976  13.836  39.304   4.061
47448W        W18977   3.005  44.792   1.343
47449W        W18978  21.708  34.003   4.871
47450W        W18979  29.280  15.751  13.448
47451W        W18980   7.391  26.976   2.724
47452W        W18981   1.959  27.557   2.753
47453W        W18982   5.892  26.708   3.462
47454W        W18983   8.652   2.363   2.304
47455W        W18984   8.041  39.937  13.957
47456W        W18985  30.855   8.355  12.106
47457W        W18986  39.133  16.899   0.061
47458W        W18987  34.365   6.856   3.986
47459W        W18988  44.129  28.196   4.937
47460W        W18989  17.734  15.276   4.728
47461W        W18990  37.719  40.035   3.395
47462W        W18991  36.386  34.365  10.437
47463W        W18992   2.101  23.491  14.487
47464W        W18993  35.520  29.819  11.889
47465W        W18994  17.789  19.742   0.475
47466W        W18995  18.168   2.302   3.615
47467W        W18996  36.476  21.896  11.550
47468W        W18997   2.043   7.012  12.906
47469W        W18998  34.999  44.768  13.356
47470W        W18999  34.460  38.596  11.503
47471W        W19000  35.871   3.350  14.546
47472W        W19001  26.421  31.846   1.508
47473W        W19002  32.612   7.137   2.132
47474W        W19003  33.454  15.747   0.724
47475W        W19004  25.514   9.652   3.332
47476W        W19005  37.532   6.108   2.329
47477W        W19006  18.154   7.335  11.146
47478W        W19007   3.817   7.124  12.876
47479W        W19008  26.707  35.433   0.746
47480W        W19009  41.571  42.248   0.913
47481W        W19010  23.969  31.088   4.781
47482W        W19011  13.549   6.388  11.311
47483W        W19012   3.478   9.451  11.630
47484W        W19013   4.031  24.194   3.167
47485W        W19014  34.702  42.931  11.262
47486W        W19015  13.340  20.634  11.456
47487W        W19016  23.968  20.750  11.589
47488W        W19017   3.208  26.315  14.393
47489W        W19018  21.420  18.980  12.383
47490W        W19019  29.864  23.537   3.817
47491W        W19020  18.038  16.412  13.965
47492W        W19021  21.050  44.877   0.319
47493W        W19022   4.951  42.348  11.019
47494W        W19023  12.211  21.500   0.182
47495W        W19024  18.591  25.500  12.419
47496W        W19025  12.641  14.239  10.640
47497W        W19026  31.607  31.597   3.911
47498W        W19027  17.787  24.998  13.912
47499W        W19028  17.334  13.137   2.286
47500W        W19029  44.966  44.189  13.769
47501W        W19030  17.997  32.310  11.882
47502W        W19031  27.543  44.221   0.968
47503W        W19032  16.548   3.693  12.888
47504W        W19033  25.811  19.083  13.847
47505W        W19034  43.455  24.431  14.010
47506W        W19035   0.315  15.713  12.505
47507W        W19036  40.043   3.500   4.270
47508W        W19037  36.419   6.860   4.195
47509W        W19038  14.191  22.387   2.183
47510W        W19039  32.318  15.323   3.206
47511W        W19040  19.468  10.282  14.796
47512W        W19041  36.526  23.082  12.889
47513W        W19042  16.633  27.702   4.118
47514W        W19043  35.457  26.203  14.251
47515W        W19044  13.741  27.264  13.878
47516W        W19045   5.171  41.735  13.359
47517W        W19046  24.354  44.016  13.820
47518W        W19047   3.882  11.655  12.226
47519W        W19048  32.440  15.261   0.845
47520W        W19049  19.960  28.560   3.762
47521W        W19050   2.263  30.596  10.243
47522W        W19051  12.076   3.341  14.701
47523W        W19052  34.154  14.045   3.305
47524W        W19053  44.147  31.095   2.155
47525W        W19054  33.233   7.690  11.321
47526W        W19055  20.571  16.212   1.958
47527W        W19056  26.610  36.978   1.659
47528W        W19057   7.279  34.439   0.304
47529W        W19058  15.805  16.726  12.038
47530W        W19059  18.987  25.636  14.087
47531W        W19060  43.925  44.695  14.067
47532W        W19061  23.322   0.015   3.842
47533W        W19062   4.831  41.561  10.444
47534W        W19063   7.717   1.580  12.111
47535W        W19064  22.273  34.488   3.210
47536W        W19065  22.717   7.679  12.126
47537W        W19066  24.117   7.294  12.977
47538W        W19067  35.518  35.269   1.297
47539W        W19068   3.941  22.629  10.317
47540W        W19069  41.826  15.675  13.945
47541W        W19070  19.907  41.767  14.240
47542W        W19071  22.751  15.074   2.674
47543W        W19072  20.936  12.076   1.315
47544W        W19073  20.210  15.410   4.713
47545W        W19074  39.774  21.291   2.272
47546W        W19075   5.927  17.061  12.215
47547W        W19076   4.020  32.184  13.961
47548W        W19077  20.216  16.719   2.813
47549W        W19078  31.360  38.907   2.795
47550W        W19079  16.334  23.347  14.444
47551W        W19080  38.803  25.690   0.399
47552W        W19081  17.138  24.056  14.508
47553W        W19082  13.365  12.767   3.695
47554W        W19083   1.978  17.137   3.309
47555W        W19084  19.775   6.216   1.815
47556W        W19085  29.196  28.556   2.150
47557W        W19086   1.495  21.702  14.007
47558W        W19087   8.417   9.895   3.012
47559W        W19088  26.153  43.025   2.355
47560W        W19089  11.198  34.064  14.877
47561W        W19090  24.646  16.869  13.995
47562W        W19091  35.390  28.899   0.302
47563W        W19092  17.729  27.838   4.665
47564W        W19093  10.370  22.576   3.658
47565W        W19094  21.246   8.662  11.555
47566W        W19095  10.224   8.822  12.385
47567W        W19096  12.730  27.510   2.280
47568W        W19097  18.644  13.722   4.557
47569W        W19098  25.445  19.450  12.486
47570W        W19099  19.494  12.473   0.377
47571W        W19100  34.149  44.960  14.433
47572W        W19101  27.177  12.899   0.464
47573W        W19102  23.410  37.373  12.013
47574W        W19103  21.987   5.265  11.865
47575W        W19104   0.254  26.786  14.260
47576W        W19105   1.438  12.121   4.210
47577W        W19106  39.368  10.842   4.115
47578W        W19107   4.530  21.132  12.538
47579W        W19108  21.306   4.727  14.471
47580W        W19109   6.607  22.240  13.084
47581W        W19110  26.357  11.757  10.644
47582W        W19111  37.832   1.992  13.075
47583W        W19112  40.538  32.950  12.962
47584W        W19113  17.686  25.382   4.420
47585W        W19114   8.656  41.400   1.884
47586W        W19115  11.986  10.671  12.583
47587W        W19116  39.732  25.194  13.895
47588W        W19117  12.746  27.524  12.990
47589W        W19118   4.779   8.222   1.732
47590W        W19119  30.077  36.944  11.665
47591W        W19120  41.426   9.695  12.569
47592W        W19121  11.773  11.888   2.901
47593W        W19122  33.402   5.847   0.908
47594W        W19123   8.696  36.182   2.192
47595W        W19124  29.051   8.729   2.728
47596W        W19125   3.397  33.278  10.211
47597W        W19126  39.894  28.254  12.562
47598W        W19127  35.452  36.956   0.683
47599W        W19128  20.452   5.825   2.299
47600W        W19129   3.580  43.988   9.987
47601W        W19130  11.103  11.891   3.205
47602W        W19131  26.760   9.042  10.313
47603W        W19132  19.151  42.225  10.740
47604W        W19133   8.846  31.502   4.160
47605W        W19134  39.305  21.199   3.638
47606W        W19135   7.950  13.733   0.374
47607W        W19136  22.146  43.303  14.009
47608W        W19137  36.377  15.206   2.354
47609W        W19138  21.468  28.673   1.282
47610W        W19139  31.607  38.566  14.661
47611W        W19140  27.635  24.612   3.361
47612W        W19141  25.610  39.444  11.217
47613W        W19142  29.755  11.157  12.984
47614W        W19143  17.712  43.475  11.384
47615W        W19144  35.112  37.011  12.734
47616W        W19145  31.697   3.378  14.759
47617W        W19146  23.226  39.066  12.507
47618W        W19147  23.174  36.198  13.950
47619W        W19148  43.730   4.561  11.116
47620W        W19149   8.588  37.880   2.114
47621W        W19150  39.867  21.426  14.024
47622W        W19151   3.039   4.957  13.531
47623W        W19152  17.554   6.763   2.204
47624W        W19153  30.671  35.345  11.149
47625W        W19154  28.366   7.185  13.293
47626W        W19155   5.697  16.512   1.790
47627W        W19156  35.788  40.621  13.481
47628W        W19157   6.168  20.568   9.967
47629W        W19158  43.696  41.625   3.709
47630W        W19159  21.981  32.353   0.501
47631W        W19160  39.438  18.531   0.542
47632W        W19161  15.334  13.699  10.635
47633W        W19162  24.995  43.761  11.042
47634W        W19163  42.581  23.977  11.670
47635W        W19164  27.700  12.289   2.600
47636W        W19165  23.610   8.024   1.097
47637W        W19166   5.180  40.801   0.043
47638W        W19167  24.179   9.815   3.563
47639W        W19168   8.862  11.374   4.282
47640W        W19169   8.870  13.173   2.814
47641W        W19170  43.257  44.381   2.600
47642W        W19171   7.744   6.635   1.804
47643W        W19172   1.555   5.258  11.918
47644W        W19173  15.100  11.354  13.370
47645W        W19174  23.688  31.279  11.132
47646W        W19175   7.403   6.807  13.754
47647W        W19176  32.973  32.648   2.435
47648W        W19177  14.334  44.354  13.591
47649W        W19178  27.012  33.768  14.481
47650W        W19179   0.727   2.347   4.105
47651W        W19180  16.003  28.680   1.786
47652W        W19181  18.284  13.747  13.451
47653W        W19182  41.803  37.443   1.041
47654W        W19183   7.882  24.088  11.601
47655W        W19184  15.318  13.862   3.612
47656W        W19185  33.847  26.113  12.463
47657W        W19186  43.832  16.030  13.108
47658W        W19187  18.068   1.914   0.989
47659W        W19188  21.630  42.497  12.115
47660W        W19189  37.141  33.029   4.799
47661W        W19190  35.435   0.696  11.646
47662W        W19191   9.576  15.076  14.939
47663W        W19192  14.818  22.024   1.836
47664W        W19193   9.701   6.040   4.155
47665W        W19194   9.366  41.952  13.864
47666W        W19195  19.576  35.119   4.254
47667W        W19196  14.064  29.684  11.550
47668W        W19197  21.016  10.153   3.227
47669W        W19198  21.726  18.232   3.131
47670W        W19199  29.614  26.977   3.622
47671W        W19200  18.309  35.610  14.297
47672W        W19201   2.668  42.299   0.853
47673W        W19202   6.927  35.632   4.610
47674W        W19203   3.790  27.741   1.861
47675W        W19204  29.827   5.925  13.928
47676W        W19205   6.716  37.771  14.878
47677W        W19206  15.268  29.169  11.596
47678W        W19207  32.979   0.854   2.887
47679W        W19208  28.413  26.310   1.441
47680W        W19209  23.744  16.232  12.901
47681W        W19210  35.618  39.937  13.493
47682W        W19211   4.842  11.324   1.900
47683W        W19212  27.890  29.292  10.330
47684W        W19213  27.937   3.554  13.309
47685W        W19214  29.906  10.337   0.829
47686W        W19215  16.790  26.118   1.591
47687W        W19216  19.758   5.910   1.291
47688W        W19217  26.162   1.075  10.678
47689W        W19218  26.277   9.629   2.841
47690W        W19219  13.296  30.483  12.413
47691W        W19220  10.562   9.139  14.918
47692W        W19221   2.716  18.436   3.169
47693W        W19222   9.435  35.039   1.338
47694W        W19223   1.671  43.259   4.575
47695W        W19224  34.501  12.960   4.578
47696W        W19225  44.528  38.614  10.838
47697W        W19226  29.481   7.684   1.343
47698W        W19227  36.937  28.358   4.604
47699W        W19228  39.943   5.700  12.533
47700W        W19229  35.883  25.584  12.647
47701W        W19230   1.966  12.225   4.184
47702W        W19231  18.057  23.006  12.110
47703W        W19232  18.136  28.586   0.959
47704W        W19233  18.123  12.719   2.085
47705W        W19234  10.378  33.945  10.677
47706W        W19235  16.438  35.140   0.227
47707W        W19236  30.404   2.425  12.516
47708W        W19237  43.826  12.173   4.323
47709W        W19238  43.369  13.856  10.597
47710W        W19239   1.790  17.571  13.787
47711W        W19240  13.836   6.756   3.901
47712W        W19241  19.793  13.899  12.522
47713W        W19242  30.620  26.143   0.835
47714W        W19243   3.711  33.947   2.818
47715W        W19244  43.950   0.612  14.459
47716W        W19245   4.501   6.918   1.332
47717W        W19246  21.219  12.840   2.923
47718W        W19247  43.707  11.084   1.740
47719W        W19248  34.846  40.331  14.965
47720W        W19249  28.497  44.804  14.521
47721W        W19250  21.386  27.592  12.365
47722W        W19251  12.356  43.315  13.900
47723W        W19252  35.005  14.036   4.062
47724W        W19253   6.956  22.907   3.186
47725W        W19254  34.135  10.721   4.036
47726W        W19255  39.351  29.595   0.262
47727W        W19256  29.406  22.597   4.847
47728W        W19257  32.465  16.973   2.050
47729W        W19258  17.329   3.230  12.028
47730W        W19259   4.803  26.458   4.255
47731W        W19260   7.451  12.572  14.777
47732W        W19261  35.045  44.356   2.766
47733W        W19262  28.069  29.022   1.914
47734W        W19263  25.744  35.483   0.571
47735W        W19264  25.628   4.667   0.182
47736W        W19265  33.461  14.952  10.657
47737W        W19266  38.951  42.320  14.811
47738W        W19267   9.113   0.192  10.951
47739W        W19268  33.709  31.677  13.454
47740W        W19269  24.197   2.912  13.493
47741W        W19270  34.826  18.111  14.903
47742W        W19271   5.507   1.827  13.787
47743W        W19272  14.145  18.276   3.411
47744W        W19273  17.574  10.127  12.424
47745W        W19274  29.080  29.974  13.027
47746W        W19275   6.194  42.909  13.516
47747W        W19276  30.286  25.455  11.967
47748W        W19277  12.720   9.997  10.649
47749W        W19278  44.222   9.187  12.499
47750W        W19279  27.101   4.876  10.026
47751W        W19280  42.900  33.625   3.509
47752W        W19281  16.715  19.820  13.422
47753W        W19282  12.507  18.592   2.685
47754W        W19283   5.790  28.562   3.394
47755W        W19284  23.402  38.912   4.926
47756W        W19285  38.943  11.249   1.794
47757W        W19286   8.929  30.541   2.303
47758W        W19287   2.439   7.802  12.882
47759W        W19288  25.666  23.239   2.914
47760W        W19289  43.399  16.403  10.658
47761W        W19290   3.395  40.879  14.665
47762W        W19291  24.031  38.759  13.001
47763W        W19292  43.484  33.452  10.667
47764W        W19293  21.081  17.078  10.694
47765W        W19294  36.662  40.084   2.318
47766W        W19295  14.563  41.982  13.415
47767W        W19296   0.207   6.958  11.103
47768W        W19297  37.439  17.030  14.411
47769W        W19298  30.565   5.268  13.722
47770W        W19299  40.656  33.616   4.576
47771W        W19300  37.087  17.606  13.049
47772W        W19301  16.018  29.482  12.008
47773W        W19302   8.939  42.942  14.073
47774W        W19303  18.989   2.413  10.667
47775W        W19304  40.519   4.950   0.747
47776W        W19305  40.479  18.645   0.834
47777W        W19306   8.085  13.175  14.730
47778W        W19307  44.022  33.537   2.703
47779W        W19308  43.370  30.082  12.115
47780W        W19309  29.650   0.138   0.409
47781W        W19310  43.078   1.751  12.558
47782W        W19311  33.502   1.944  11.624
47783W        W19312  36.605  32.270   4.020
47784W        W19313  37.748  31.645   4.843
47785W        W19314  16.699  41.061   4.597
47786W        W19315  13.830  21.990   1.416
47787W        W19316  39.814  35.856   1.263
47788W        W19317  19.653  38.123   1.214
47789W        W19318  10.037  18.735   1.527
47790W        W19319  10.816  27.957  14.857
47791W        W19320   8.536  20.279   0.927
47792W        W19321  13.179  11.209  11.220
47793W        W19322  21.522  10.134  12.116
47794W        W19323   4.969  34.569   4.120
47795W        W19324  26.274  20.246  12.514
47796W        W19325   5.830  24.860   0.824
47797W        W19326  23.017  18.855  12.213
47798W        W19327  15.546  39.957   2.709
47799W        W19328  28.353  35.867   3.544
47800W        W19329  22.095  18.077  11.169
47801W        W19330  33.287  36.980  14.554
47802W        W19331  38.438  30.430   1.934
47803W        W19332  38.535  26.598  14.998
47804W        W19333  39.698  36.054   4.113
47805W        W19334  19.643  39.899   0.712
47806W        W19335  13.833  24.599  13.457
47807W        W19336  27.781   2.488  14.801
47808W        W19337  26.990  39.521  14.286
47809W        W19338  25.702  18.587   4.861
47810W        W19339  22.086  23.970   4.548
47811W        W19340  36.823  39.508   3.272
47812W        W19341  44.397  19.490   3.867
47813W        W19342   0.833   2.373  12.056
47814W        W19343  20.081  38.585  10.496
47815W        W19344  39.468  18.529   4.804
47816W        W19345  26.723  16.828   0.952
47817W        W19346  26.090  37.467  14.042
47818W        W19347  42.414  14.633   1.990
47819W        W19348  44.249  38.948   1.170
47820W        W19349   3.744  19.729   2.655
47821W        W19350  15.650  13.745  13.189
47822W        W19351   2.884  13.826   0.438
47823W        W19352  24.120  21.793  13.135
47824W        W19353   0.480  31.569   0.322
47825W        W19354  40.317  42.968   3.374
47826W        W19355  17.326  26.573   1.497
47827W        W19356  15.825  14.424   0.830
47828W        W19357  32.137  12.232   4.627
47829W        W19358  26.892   7.892   0.452
47830W        W19359  10.320  18.798   5.023
47831W        W19360   1.700  39.541  13.940
47832W        W19361  32.454  35.149   3.553
47833W        W19362   8.730  16.290  13.735
47834W        W19363  32.095  43.981  13.487
47835W        W19364   1.750  21.155   0.638
47836W        W19365  37.752  17.344  13.882
47837W        W19366  35.368   1.580   4.150
47838W        W19367  16.799  41.177   3.167
47839W        W19368  31.680  29.034  13.405
47840W        W19369  36.064  18.301  13.221
47841W        W19370  36.204  21.009   5.107
47842W        W19371  42.346  42.584   4.160
47843W        W19372  25.983   3.911  13.413
47844W        W19373   5.167  43.316   3.653
47845W        W19374  33.965   8.812   2.201
47846W        W19375  23.526  13.330  14.220
47847W        W19376  37.627  41.302   0.806
47848W        W19377  21.380  11.890   1.766
47849W        W19378  40.979  24.603   4.755
47850W        W19379   5.940   0.468  11.111
47851W        W19380  17.997  12.412   2.831
47852W        W19381  29.590  12.174   0.864
47853W        W19382  15.793  29.579   3.857
47854W        W19383  12.794  16.172   2.704
47855W        W19384  26.131  43.422   4.592
47856W        W19385  43.774  13.402   4.230
47857W        W19386  18.377   5.379  12.469
47858W        W19387  24.125  36.384   1.526
47859W        W19388  32.084  23.004  11.676
47860W        W19389  21.345  36.505   0.356
47861W        W19390   7.914  36.647   2.813
47862W        W19391   5.691  22.006  14.806
47863W        W19392   6.929  44.465   2.224
47864W        W19393  34.813  40.159  11.136
47865W        W19394  40.778  42.100  12.008
47866W        W19395  21.018   2.064  13.600
47867W        W19396  16.608  24.198  13.304
47868W        W19397  41.476  36.826  12.502
47869W        W19398   4.101  20.556   1.260
47870W        W19399  34.589   0.543   2.118
47871W        W19400  25.830  31.376  12.968
47872W        W19401  42.783   1.941   1.044
47873W        W19402  31.740  20.813   1.779
47874W        W19403  28.861   1.266  10.504
47875W        W19404  12.963  12.753   3.338
47876W        W19405  10.581  12.167   4.101
47877W        W19406  37.982  44.070  11.563
47878W        W19407  23.620  32.832   0.871
47879W        W19408  27.106   2.332  10.753
47880W        W19409  35.133  18.704  13.122
47881W        W19410   0.509  34.843   4.140
47882W        W19411   5.488  41.030  11.508
47883W        W19412  40.268  15.172   4.164
47884W        W19413  13.745  35.440  10.755
47885W        W19414  13.707  23.108   4.469
47886W        W19415   5.758  20.158   0.391
47887W        W19416  33.106   6.486  10.734
47888W        W19417  12.683  24.897  14.809
47889W        W19418  29.759  42.861   5.016
47890W        W19419   0.491  44.303   2.358
47891W        W19420  27.519  27.336   0.749
47892W        W19421  22.449   4.269   2.382
47893W        W19422  12.876  20.995   3.837
47894W        W19423  41.135   6.038  12.114
47895W        W19424  36.861   0.531  14.863
47896W        W19425   7.907  20.644   1.608
47897W        W19426  35.040  16.002   3.346
47898W        W19427  25.362  22.741  11.129
47899W        W19428   5.441  33.651  12.393
47900W        W19429   2.527  38.072  14.890
47901W        W19430  15.650  41.778   2.217
47902W        W19431  30.471  30.469   2.888
47903W        W19432  38.418  32.705   2.697
47904W        W19433  17.525  10.775  10.259
47905W        W19434  24.685  10.182  13.968
47906W        W19435   7.132   3.132  12.606
47907W        W19436  27.477   3.916  12.129
47908W        W19437  41.033   5.968   2.787
47909W        W19438  38.793  24.979  13.906
47910W        W19439  19.315  15.684  13.420
47911W        W19440   6.703  25.494  10.959
47912W        W19441  28.416  11.788   4.074
47913W        W19442  43.229  38.010   2.367
47914W        W19443  40.775   0.052   1.092
47915W        W19444  37.643  33.549  14.205
47916W        W19445  33.872  44.840  10.636
47917W        W19446  26.495  15.106   0.882
47918W        W19447  42.514   6.678   4.225
47919W        W19448  33.894  32.441  12.448
47920W        W19449  22.587  34.882   4.226
47921W        W19450  36.287   7.932  13.526
47922W        W19451  26.104  42.501   2.218
47923W        W19452  42.246  11.911  11.108
47924W        W19453  32.145  36.368   4.529
47925W        W19454  18.427  24.868  11.872
47926W        W19455   6.709  37.918   1.720
47927W        W19456  20.571  24.129   0.277
47928W        W19457  35.604  39.494  13.118
47929W        W19458   1.584  33.183   1.734
47930W        W19459  43.790  42.333   3.881
47931W        W19460  39.141  38.893  10.342
47932W        W19461  19.723  12.148  13.154
47933W        W19462  34.813  35.624  12.300
47934W        W19463   7.314  37.579  14.000
47935W        W19464   1.455   5.707  14.972
47936W        W19465   0.963  10.678   0.706
47937W        W19466  11.750   4.934  14.826
47938W        W19467  36.058   5.753  14.455
47939W        W19468   7.763  40.028   1.920
47940W        W19469  38.783  21.465   2.176
47941W        W19470  16.779  15.285  11.107
47942W        W19471  15.407  42.009  14.699
47943W        W19472   7.742  15.814  11.956
47944W        W19473  15.028  28.608  14.401
47945W        W19474  17.436  30.915   4.602
47946W        W19475  11.873  27.134   2.167
47947W        W19476  25.143  20.836   4.586
47948W        W19477  20.197  34.857   0.923
47949W        W19478  42.724  42.971   0.345
47950W        W19479  42.560  42.473   1.782
47951W        W19480  20.689  22.477   0.501
47952W        W19481  37.653   0.985   0.724
47953W        W19482  25.976  17.830  11.608
47954W        W19483  27.921  25.544  11.182
47955W        W19484  39.122  32.304  14.886
47956W        W19485  32.442  42.997   3.188
47957W        W19486   8.075   8.182  11.028
47958W        W19487  14.227  35.853  14.276
47959W        W19488   0.027  11.794  14.383
47960W        W19489  28.411   2.474  13.836
47961W        W19490  17.113   2.873  14.712
47962W        W19491   8.874  37.134  14.872
47963W        W19492  33.013   5.500   0.791
47964W        W19493  42.826   3.418   4.223
47965W        W19494  12.437   3.740   0.506
47966W        W19495   7.823  29.474  11.156
47967W        W19496  26.370  44.394  10.987
47968W        W19497  13.655  25.487   0.090
47969W        W19498  32.637   4.709  12.785
47970W        W19499   9.355  32.987  12.796
47971W        W19500  11.939  16.219   4.893
47972W        W19501   8.815  29.337   4.917
47973W        W19502  20.340  37.923   1.555
47974W        W19503   6.246   5.632   3.222
47975W        W19504  27.489   6.784  14.688
47976W        W19505   0.855   4.876   3.212
47977W        W19506  14.658   3.874  14.053
47978W        W19507   0.531  34.383  13.716
47979W        W19508  12.439  31.053   4.069
47980W        W19509  35.432  42.425   0.406
47981W        W19510   9.946  15.861   3.801
47982W        W19511   4.745  23.532   1.694
47983W        W19512  35.804  44.170  13.377
47984W        W19513  19.569   9.231  13.446
47985W        W19514  34.551   1.723  13.355
47986W        W19515  30.066  43.458  10.832
47987W        W19516  11.354  10.633  14.403
47988W        W19517   5.942  39.649  11.550
47989W        W19518   0.506  41.782   2.941
47990W        W19519   8.273  20.997   4.035
47991W        W19520  22.689  43.011   0.004
47992W        W19521   0.879  39.514   1.954
47993W        W19522  31.474  38.237   1.004
47994W        W19523  19.937   8.632   2.898
47995W        W19524   8.394  10.663   1.299
47996W        W19525  20.220   5.526  14.474
47997W        W19526  25.068  31.969   1.649
47998W        W19527  43.875   8.470  13.366
47999W        W19528   9.639  30.336   1.188
48000W        W19529  23.439  33.028  11.587
48001W        W19530  40.861   8.925  13.483
48002W        W19531  40.847  36.856  12.817
48003W        W19532  24.296   5.399  11.773
48004W        W19533  18.100   0.395  12.108
48005W        W19534  44.715  12.409   3.894
48006W        W19535  19.444  16.487   2.179
48007W        W19536  30.142  22.340   2.284
48008W        W19537  14.821  11.789  13.080
48009W        W19538  24.526  17.697  13.407
48010W        W19539  22.071  25.366   0.279
48011W        W19540  41.873  15.183  10.905
48012W        W19541   2.224  30.065  11.104
48013W        W19542  35.478  17.013  12.585
48014W        W19543  27.023  32.366   3.781
48015W        W19544  22.768  40.941  10.326
48016W        W19545  35.519   7.337  13.219
48017W        W19546  27.546   7.402   0.313
48018W        W19547  21.825  36.469  14.444
48019W        W19548  11.590  32.668  11.116
48020W        W19549   8.491  26.099  12.144
48021W        W19550  16.855  24.176  12.838
48022W        W19551  31.289   1.896  14.446
48023W        W19552  25.472  40.900   3.646
48024W        W19553  22.732  30.208  14.434
48025W        W19554  12.626   8.266   4.325
48026W        W19555  30.743  17.772   3.645
48027W        W19556  13.674   1.305  10.467
48028W        W19557  30.699  13.364   0.244
48029W        W19558  12.073   8.400  14.049
48030W        W19559  23.337  25.645  12.422
48031W        W19560  22.843   6.641  14.720
48032W        W19561  40.275   0.700  12.785
48033W        W19562  16.164   0.271   0.157
48034W        W19563  20.455  34.218   0.245
48035W        W19564   2.440  33.896   2.297
48036W        W19565  15.172  18.810   3.544
48037W        W19566  25.133  26.120  14.819
48038W        W19567  27.569  10.003  12.997
48039W        W19568  21.967  37.539  10.288
48040W        W19569  28.139  28.276   3.138
48041W        W19570   2.755  39.841   0.176
48042W        W19571  35.462  16.245   1.256
48043W        W19572   9.419  42.472  13.296
48044W        W19573  11.081  35.547  10.989
48045W        W19574  25.826  17.826   0.772
48046W        W19575  24.725  39.904  11.269
48047W        W19576   6.217  27.078   2.205
48048W        W19577  10.289  27.529  10.790
48049W        W19578  40.897  16.388   3.320
48050W        W19579  21.082  11.199   0.715
48051W        W19580   4.733  43.364   0.283
48052W        W19581  36.593  41.898   2.327
48053W        W19582   5.635  18.745   3.982
48054W        W19583  15.551  41.482   4.646
48055W        W19584   4.372  22.231   2.206
48056W        W19585   8.461  37.626  11.189
48057W        W19586  24.791  16.112  12.921
48058W        W19587  11.622  10.632   3.313
48059W        W19588   2.707  38.656  13.874
48060W        W19589  29.971  31.688  14.536
48061W        W19590  11.842  23.819   3.224
48062W        W19591  15.590   4.907   1.428
48063W        W19592   0.978  43.265  13.011
48064W        W19593  37.034  29.174   2.528
48065W        W19594  42.755   5.971  13.020
48066W        W19595  12.262  15.903  11.457
48067W        W19596  18.632  32.964  12.488
48068W        W19597   2.354   2.283   1.515
48069W        W19598   3.184  17.365  11.237
48070W        W19599  19.332  16.566   4.428
48071W        W19600   5.306  38.967  11.627
48072W        W19601  15.762  25.054   0.079
48073W        W19602  36.363  44.339   2.408
48074W        W19603  14.744  26.550  14.382
48075W        W19604  42.193   7.219   0.587
48076W        W19605  12.715   5.259  10.701
48077W        W19606  41.925  19.230  11.172
48078W        W19607  28.657   2.952  13.833
48079W        W19608   0.706  41.530   0.738
48080W        W19609  18.290  19.384  10.191
48081W        W19610  33.930  40.587  12.913
48082W        W19611  40.885  30.101   1.658
48083W        W19612  20.376  42.434  11.369
48084W        W19613  28.388  37.570  14.308
48085W        W19614  32.609   4.858  14.830
48086W        W19615   0.800  13.369   1.135
48087W        W19616   8.791  31.454  14.159
48088W        W19617  44.303  39.324  13.943
48089W        W19618   7.858  18.345  13.367
48090W        W19619  14.994  30.095   2.440
48091W        W19620  42.330  39.972  11.871
48092W        W19621   0.060  32.115   1.281
48093W        W19622  23.140  38.525  11.123
48094W        W19623  15.285   7.287  13.331
48095W        W19624   1.802  21.193  13.094
48096W        W19625  28.618  42.565  13.754
48097W        W19626  35.354  20.814  12.860
48098W        W19627  23.005  27.656  11.520
48099W        W19628  36.262  26.706   3.175
48100W        W19629  39.466  10.585  13.013
48101W        W19630   4.004  19.167   9.804
48102W        W19631   5.408  37.898   4.512
48103W        W19632   9.160  41.818   4.384
48104W        W19633  41.071  29.769  11.094
48105W        W19634  21.674  40.742  12.541
48106W        W19635   7.186  10.485  10.696
48107W        W19636   2.421  19.267   2.834
48108W        W19637  27.403  27.799  11.918
48109W        W19638  39.777  14.283   3.698
48110W        W19639   8.576  10.091  12.879
48111W        W19640  38.515   3.471   0.772
48112W        W19641  33.039  15.242   4.623
48113W        W19642  25.833  37.354  14.916
48114W        W19643  35.502  22.257   2.310
48115W        W19644  23.960  25.938   3.253
48116W        W19645  15.311  21.666  14.453
48117W        W19646  12.580   8.810   0.573
48118W        W19647  23.637   3.029   0.212
48119W        W19648  41.948  38.929   3.751
48120W        W19649  33.130   1.728  10.946
48121W        W19650   3.730   5.932  12.240
48122W        W19651   9.177  41.283  14.469
48123W        W19652  12.279  38.447  14.476
48124W        W19653  28.094   1.467   2.880
48125W        W19654  29.379  24.161   3.366
48126W        W19655  15.777   2.269   3.267
48127W        W19656  18.818  22.238  10.143
48128W        W19657   3.941  10.808   3.737
48129W        W19658  27.229  17.860   1.893
48130W        W19659  20.714  44.140  11.440
48131W        W19660  29.467  29.679   3.337
48132W        W19661  21.262  29.546  11.199
48133W        W19662  11.735  31.959   3.105
48134W        W19663  37.534  24.607  11.031
48135W        W19664  32.659  34.035   1.301
48136W        W19665  10.220  15.393   1.815
48137W        W19666  41.234  43.056   1.781
48138W        W19667   7.896  22.347  10.882
48139W        W19668  16.055  17.283   2.751
48140W        W19669  17.347  18.075  10.463
48141W        W19670  40.838  41.318  11.516
48142W        W19671   8.801  35.821   3.323
48143W        W19672   2.979  24.540   2.323
48144W        W19673  27.404  11.385   3.530
48145W        W19674  15.291   5.464   4.410
48146W        W19675  13.997  23.906   1.775
48147W        W19676  37.784   6.079   0.285
48148W        W19677  42.439  11.841  14.737
48149W        W19678  42.032  32.189   2.052
48150W        W19679  20.939  22.296   2.649
48151W        W19680  25.011  30.129   0.226
48152W        W19681   8.117  18.727   1.397
48153W        W19682  33.125  32.516  11.168
48154W        W19683  21.133  20.530   2.390
48155W        W19684  37.996  23.450  11.422
48156W        W19685  38.214  32.091   1.730
48157W        W19686   2.220  17.090  14.360
48158W        W19687  36.431  34.136  12.959
48159W        W19688   9.081  38.957   1.498
48160W        W19689  42.587  33.951   3.885
48161W        W19690  28.217  19.969   2.792
48162W        W19691  22.625  20.647   4.263
48163W        W19692  37.473  43.909  10.716
48164W        W19693  16.806  14.292   2.479
48165W        W19694  41.965   4.814   3.173
48166W        W19695   0.710  21.627  12.192
48167W        W19696  27.587   5.383   3.894
48168W        W19697   0.299   9.712   2.922
48169W        W19698  34.891   6.784  11.506
48170W        W19699  29.974  13.134   4.092
48171W        W19700  43.461  23.491   3.953
48172W        W19701  38.816   7.148  14.380
48173W        W19702  34.507  40.561  12.588
48174W        W19703  42.422  21.037  12.849
48175W        W19704  38.598  15.809   3.130
48176W        W19705   6.109   5.124   1.822
48177W        W19706   3.275  14.574   3.721
48178W        W19707  28.714  44.379  10.821
48179W        W19708  40.399  37.581   3.610
48180W        W19709   5.340   5.718  14.536
48181W        W19710   7.822   0.369   4.259
48182W        W19711  12.535  37.864  13.058
48183W        W19712  24.598  29.304   1.336
48184W        W19713  31.175   1.932  10.778
48185W        W19714   6.705   6.590  12.532
48186W        W19715  11.674  14.264  14.037
48187W        W19716  26.940   7.861  14.298
48188W        W19717  10.446  15.169  13.107
48189W        W19718  22.588  17.578  12.028
48190W        W19719  22.507  31.194   3.340
48191W        W19720  27.423  22.613  12.161
48192W        W19721  34.567  13.030  14.461
48193W        W19722  30.604  16.005  14.976
48194W        W19723  41.036  31.905   2.745
48195W        W19724  14.577  14.344   1.101
48196W        W19725  18.583  15.060  13.976
48197W        W19726   0.649  35.366   3.304
48198W        W19727  13.242  43.594   0.760
48199W        W19728   4.630  16.544   1.768
48200W        W19729  21.404  22.738   5.206
48201W        W19730   2.786  15.344   0.992
48202W        W19731  10.295   2.226  11.463
48203W        W19732  32.384  22.704   3.335
48204W        W19733  17.760  12.734  10.964
48205W        W19734  33.863  15.044   0.162
48206W        W19735  22.685  41.782  14.363
48207W        W19736  34.064   8.338   0.416
48208W        W19737  40.831  27.608  12.455
48209W        W19738  25.060  23.165  12.824
48210W        W19739  44.041  34.196   0.496
48211W        W19740  18.531  26.565  11.527
48212W        W19741   0.705   5.430   1.255
48213W        W19742  19.552  25.359   3.887
48214W        W19743  18.325  42.465   2.187
48215W        W19744  22.146  41.638  13.488
48216W        W19745  24.499  26.636   2.757
48217W        W19746  42.236  20.606   2.252
48218W        W19747  10.625  30.857  11.592
48219W        W19748  20.770  33.444   2.047
48220W        W19749   3.493  28.635   0.499
48221W        W19750  27.518  12.819  13.772
48222W        W19751   8.304  11.134  14.573
48223W        W19752  22.457  32.680   1.867
48224W        W19753   6.016  34.617   3.675
48225W        W19754   8.331  41.370   3.577
48226W        W19755  43.982   8.874   3.446
48227W        W19756  43.942   5.218   0.822
48228W        W19757  30.587   3.193  12.026
48229W        W19758  18.558  38.710   0.455
48230W        W19759   7.049  36.027   0.038
48231W        W19760  19.803   9.500  11.503
48232W        W19761  41.003  32.852   1.751
48233W        W19762  30.555  12.680   0.291
48234W        W19763  17.616  24.519  10.603
48235W        W19764  40.445  31.074  13.299
48236W        W19765   1.802  43.804  14.955
48237W        W19766  33.345  27.794  12.574
48238W        W19767  22.714  43.862  12.148
48239W        W19768   0.991  10.714  14.030
48240W        W19769  37.254  24.972   0.756
48241W        W19770  33.992   5.363  14.332
48242W        W19771  14.100  23.661   2.228
48243W        W19772  30.204   8.034  13.132
48244W        W19773  24.792  24.314  14.845
48245W        W19774  43.900  22.479   2.158
48246W        W19775  21.193   1.312   1.865
48247W        W19776  28.505  17.571   2.278
48248W        W19777  21.599  41.505  11.203
48249W        W19778  40.537  41.488  10.569
48250W        W19779  12.153   7.000   4.692
48251W        W19780  16.220  12.108   4.546
48252W        W19781  14.308  18.676   2.235
48253W        W19782  36.815  25.844  13.944
48254W        W19783  13.690  36.003  13.411
48255W        W19784  31.105  38.984   3.736
48256W        W19785  10.638  30.217   0.299
48257W        W19786  33.560  36.987  14.994
48258W        W19787  36.644  37.109  13.397
48259W        W19788  18.308  17.058  12.843
48260W        W19789  12.896  36.920  12.818
48261W        W19790  13.108  32.814   1.998
48262W        W19791   0.728  16.543  12.701
48263W        W19792  42.391  39.868   1.829
48264W        W19793   7.069  36.631   0.813
48265W        W19794  39.427  23.331   4.360
48266W        W19795   1.257   8.334  10.636
48267W        W19796   6.655  18.809   1.364
48268W        W19797  33.487  26.188   0.417
48269W        W19798  42.768   0.805   4.263
48270W        W19799  18.077  43.817   2.811
48271W        W19800  14.061  41.780   1.796
48272W        W19801  30.485  29.593  10.771
48273W        W19802   4.193  36.476  11.994
48274W        W19803  17.950   7.420  10.681
48275W        W19804  17.242  36.353   3.909
48276W        W19805  29.108  41.089  12.271
48277W        W19806  30.617  16.733  13.845
48278W        W19807  36.727  41.409   3.310
48279W        W19808  36.370  38.631   5.105
48280W        W19809  16.843   5.201   2.782
48281W        W19810   8.673  26.526  12.386
48282W        W19811  35.042  39.331   1.388
48283W        W19812  10.730   5.204  13.508
48284W        W19813  21.474  15.588  11.939
48285W        W19814  11.380   6.272  10.382
48286W        W19815  10.141   7.602   2.049
48287W        W19816   5.724   3.159   2.679
48288W        W19817  13.296  17.711   3.035
48289W        W19818  37.517  23.513  14.138
48290W        W19819   5.394  10.550  13.044
48291W        W19820  33.930   5.936   4.825
48292W        W19821   0.991   1.423  11.981
48293W        W19822  22.831  24.314  10.747
48294W        W19823  32.273  18.688   2.762
48295W        W19824   4.149  32.682  14.026
48296W        W19825  32.014   7.491   2.873
48297W        W19826  33.055  17.169  11.352
48298W        W19827   3.788  14.144   5.251
48299W        W19828  39.912  25.480  10.750
48300W        W19829  39.294  21.003   1.454
48301W        W19830  11.380  25.600  13.139
48302W        W19831  19.023  25.967   0.876
48303W        W19832  23.091   8.339   0.485
48304W        W19833  42.027   6.859   4.127
48305W        W19834  39.599  19.053   2.181
48306W        W19835   6.709  29.077   1.678
48307W        W19836  24.312   8.912   0.737
48308W        W19837  34.342  23.312   1.834
48309W        W19838  24.854   7.902  13.838
48310W        W19839  36.793  14.754   0.278
48311W        W19840  26.338   6.108  11.396
48312W        W19841   2.955  25.658   1.799
48313W        W19842   3.150  21.819   3.696
48314W        W19843  20.534  21.842   3.673
48315W        W19844  22.502  15.825   3.230
48316W        W19845  14.277  41.954   4.069
48317W        W19846   9.922  33.010   1.942
48318W        W19847   5.955  10.235  13.394
48319W        W19848   9.797  11.182   1.481
48320W        W19849  13.147  37.152   2.729
48321W        W19850  11.989  23.002   4.633
48322W        W19851  43.361  11.296   4.687
48323W        W19852  44.528  30.773   1.342
48324W        W19853  18.743   7.981   3.134
48325W        W19854  38.934   6.689   1.340
48326W        W19855  12.256   2.830   4.339
48327W        W19856  40.997  26.614   0.696
48328W        W19857  12.605  29.738  14.354
48329W        W19858  21.876  40.401  13.266
48330W        W19859  19.494  43.972   2.834
48331W        W19860  16.055  25.551  13.802
48332W        W19861   8.427   5.313   0.464
48333W        W19862  17.266  25.169  12.530
48334W        W19863   2.020   8.748  14.830
48335W        W19864  32.862  26.572   0.980
48336W        W19865   1.488   5.254   2.668
48337W        W19866  13.115  20.729  12.490
48338W        W19867   6.849  34.324   2.235
48339W        W19868   6.196   6.149   0.417
48340W        W19869   2.721  29.524  13.227
48341W        W19870  43.001   4.437  13.921
48342W        W19871   1.949  35.660  14.339
48343W        W19872  16.759   4.673  13.903
48344W        W19873  27.668  41.269   4.837
48345W        W19874  19.178   1.889  12.025
48346W        W19875  30.585  28.079   0.707
48347W        W19876  14.590  25.220  12.199
48348W        W19877  20.672   8.453  11.480
48349W        W19878  21.441  37.925  10.314
48350W        W19879  12.458   4.499  10.303
48351W        W19880   8.769  11.891  14.533
48352W        W19881  18.678   7.786  11.664
48353W        W19882  15.373  40.953   3.525
48354W        W19883  21.830  25.081   3.382
48355W        W19884   9.822  31.926   4.934
48356W        W19885  13.076  32.842  11.639
48357W        W19886  14.472   5.351  11.331
48358W        W19887  12.269   3.921  12.401
48359W        W19888  27.032   7.910   2.343
48360W        W19889  19.087   8.203   0.920
48361W        W19890  14.702   5.941  13.702
48362W        W19891  14.674  32.401  10.346
48363W        W19892  34.906   8.914   3.652
48364W        W19893  27.019  19.101   3.343
48365W        W19894  13.731   9.147  14.366
48366W        W19895   1.065  31.505  12.087
48367W        W19896  41.070  41.033  13.636
48368W        W19897  38.328  30.458  10.329
48369W        W19898  40.624  18.243  12.498
48370W        W19899  17.259   5.640  14.813
48371W        W19900  42.864  40.325  10.590
48372W        W19901  39.214  25.402   3.175
48373W        W19902  44.360  15.181  12.463
48374W        W19903   6.602  40.494  12.130
48375W        W19904   4.407  11.884   3.201
48376W        W19905  40.613   3.192  11.165
48377W        W19906  23.490   7.154   0.827
48378W        W19907  36.010  33.168  13.966
48379W        W19908  13.071  32.462  11.972
48380W        W19909  11.809   4.109   2.870
48381W        W19910   2.267   4.439   2.525
48382W        W19911  28.359  16.045  14.170
48383W        W19912  26.687   8.887   2.414
48384W        W19913  12.187  26.971   1.751
48385W        W19914  20.978  38.861  13.445
48386W        W19915  37.822  34.817   1.483
48387W        W19916  41.006  23.632   1.695
48388W        W19917  30.183   4.406   0.194
48389W        W19918  11.923  21.704  14.737
48390W        W19919   2.746   4.282   2.679
48391W        W19920  34.999  43.227  14.236
48392W        W19921  36.928  44.075   0.344
48393W        W19922  32.084  10.393  14.230
48394W        W19923  41.458  30.632  12.583
48395W        W19924  15.388   5.611  10.960
48396W        W19925   8.578  21.127  12.893
48397W        W19926  29.768   9.310   3.676
48398W        W19927  34.433  27.615   0.457
48399W        W19928  13.162   4.829  14.469
48400W        W19929   2.540  41.281  13.759
48401W        W19930  38.047  38.612   3.476
48402W        W19931   8.803   6.171   0.819
48403W        W19932   4.915  19.934  11.149
48404W        W19933  30.876   7.810  10.509
48405W        W19934  10.892  43.531  12.496
48406W        W19935  43.059  33.879  12.845
48407W        W19936   0.815  19.418   9.980
48408W        W19937  18.539  31.973   4.965
48409W        W19938  38.203  17.535   2.416
48410W        W19939  34.786  29.556   2.343
48411W        W19940  13.681  39.053  11.127
48412W        W19941  29.515   7.679  14.211
48413W        W19942  17.602  32.955  12.310
48414W        W19943  21.944  18.546   2.279
48415W        W19944  40.592  24.010  10.740
48416W        W19945  10.624  41.581   2.619
48417W        W19946  43.295   0.711  12.429
48418W        W19947  32.568  34.952  13.433
48419W        W19948  23.563  29.672   0.291
48420W        W19949   3.790  29.937  14.498
48421W        W19950   1.806  21.063   3.800
48422W        W19951  43.467  13.929   3.074
48423W        W19952  40.440   6.811  13.572
48424W        W19953  15.333  39.784   1.968
48425W        W19954  20.997  18.734  11.455
48426W        W19955  23.392  27.414   3.244
48427W        W19956  32.649  43.252   4.831
48428W        W19957   3.706  25.718   0.390
48429W        W19958  41.586   8.348   4.064
48430W        W19959  20.587  34.881  12.025
48431W        W19960  42.423  17.390  13.389
48432W        W19961  29.309  35.467  12.062
48433W        W19962   3.149  34.415  10.602
48434W        W19963  44.128  31.599  11.671
48435W        W19964  30.620  28.114  13.317
48436W        W19965   0.471  33.490   1.195
48437W        W19966  36.526   9.385   0.042
48438W        W19967  14.733  15.623   0.042
48439W        W19968   9.773  23.859   1.263
48440W        W19969  17.119  17.221  13.003
48441W        W19970  32.680  21.704  13.816
48442W        W19971  30.854  31.036  11.631
48443W        W19972  37.755  43.227  11.934
48444W        W19973   5.277  36.751   0.457
48445W        W19974  25.133  14.956  14.307
48446W        W19975   2.448   2.319   4.205
48447W        W19976  10.881  43.399   1.995
48448W        W19977  15.701  15.326   0.792
48449W        W19978  21.513   1.576  12.914
48450W        W19979   9.806   1.763   1.727
48451W        W19980  16.748  22.225   2.889
48452W        W19981  33.891  26.656  11.874
48453W        W19982  37.876   9.201  12.277
48454W        W19983  32.406  33.266   1.236
48455W        W19984  38.988  19.162  12.538
48456W        W19985  13.570   6.470  13.385
48457W        W19986  21.534  14.850  10.583
48458W        W19987  37.905   2.196  10.559
48459W        W19988  32.354  28.442   4.675
48460W        W19989  12.535  41.866  10.741
48461W        W19990  39.145  26.510  11.973
48462W        W19991  35.364   8.679   4.244
48463W        W19992  35.485  32.175   0.567
48464W        W19993  43.493  10.221   0.777
48465W        W19994  17.953  15.753  11.690
48466W        W19995  10.430  40.166  11.575
48467W        W19996  32.836   9.912   0.866
48468W        W19997  12.135  31.118  12.394
48469W        W19998   8.474   3.283  14.459
48470W        W19999  21.042  18.304   4.248
48471W        W20000  10.367  37.889  11.454
48472W        W20001  35.510   3.694   2.367
48473W        W20002  22.207  11.247  10.582
48474W        W20003  12.845  33.517  11.092
48475W        W20004  15.307  30.998   2.705
48476W        W20005  22.716  35.874   3.776
48477W        W20006   0.323  13.187  13.361
48478W        W20007   7.074  43.154  14.303
48479W        W20008  34.727  18.632  14.408
48480W        W20009   2.397  40.862  13.985
48481W        W20010  42.104   8.829  14.491
48482W        W20011  37.852  11.740   3.161
48483W        W20012  26.342  15.779   4.171
48484W        W20013  23.539  16.225  13.497
48485W        W20014   7.342  19.850   5.216
48486W        W20015  15.597  23.776   3.812
48487W        W20016  26.368   9.554   0.288
48488W        W20017  15.902  30.134  10.357
48489W        W20018  38.293  44.015   2.700
48490W        W20019  21.272  26.665  10.963
48491W        W20020  35.076  20.838   4.071
48492W        W20021  16.879  31.418  13.815
48493W        W20022  38.481  12.828  10.431
48494W        W20023  32.546  30.307  13.886
48495W        W20024  38.555  29.392   1.906
48496W        W20025   5.473  32.923   4.356
48497W        W20026  12.290  12.075  12.508
48498W        W20027  30.316  13.325  11.201
48499W        W20028  41.836  36.048  12.065
48500W        W20029  42.072  19.723   3.315
48501W        W20030  40.058  33.995   3.734
48502W        W20031  10.143  14.706   3.337
48503W        W20032  42.615   6.576  11.407
48504W        W20033  31.661  14.830  11.593
48505W        W20034  39.538   4.360   0.031
48506W        W20035   1.047  21.603  11.286
48507W        W20036  17.610  17.089  14.740
48508W        W20037  30.639   1.189  11.130
48509W        W20038   6.824   2.393   2.205
48510W        W20039  36.263  11.124  11.123
48511W        W20040   2.194  14.192   3.207
48512W        W20041  23.120  21.820  14.513
48513W        W20042  19.588  11.979   0.462
48514W        W20043  12.824  17.308  12.154
48515W        W20044  17.809   0.767   4.174
48516W        W20045   4.756  31.181   2.420
48517W        W20046  37.917  12.202   4.368
48518W        W20047  14.678  37.980   3.310
48519W        W20048   7.152  23.810   3.959
48520W        W20049  37.840  22.085   4.087
48521W        W20050  28.575  21.290  12.107
48522W        W20051   3.079  37.499  14.567
48523W        W20052  42.357   1.376   2.605
48524W        W20053  29.476  29.592  10.654
48525W        W20054  40.402  25.290  13.431
48526W        W20055  40.974  41.720   1.437
48527W        W20056  26.083  21.538  13.338
48528W        W20057   6.877  14.689   1.934
48529W        W20058  37.067  34.411  12.287
48530W        W20059  26.935  19.404   2.905
48531W        W20060   1.657   3.840  12.472
48532W        W20061  13.592  30.989   1.557
48533W        W20062  40.295   4.379   4.192
48534W        W20063  34.814  38.844  14.809
48535W        W20064   5.944   4.241  12.534
48536W        W20065   9.428  19.596   3.499
48537W        W20066  42.611  29.241   3.732
48538W        W20067  24.074   9.810   4.417
48539W        W20068  29.956   2.804   3.295
48540W        W20069   8.678  11.211   4.734
48541W        W20070  40.107   7.324  12.722
48542W        W20071  11.403  31.042  14.982
48543W        W20072  26.603   3.040   4.574
48544W        W20073   8.204  24.038   4.414
48545W        W20074  38.609  36.929   3.839
48546W        W20075  31.512  30.464   2.343
48547W        W20076  30.984   7.051   2.773
48548W        W20077  15.603  24.732   2.887
48549W        W20078  24.932  37.151  13.320
48550W        W20079  20.492  34.205   3.409
48551W        W20080  12.623   4.244  12.199
48552W        W20081   9.808  35.963   3.579
48553W        W20082   6.138   5.935  13.484
48554W        W20083  14.660  32.477   1.231
48555W        W20084  43.091  23.160  11.104
48556W        W20085  42.975  40.274   2.665
48557W        W20086   9.989  42.226   4.769
48558W        W20087  42.910   0.491   4.650
48559W        W20088  28.665   1.465   0.741
48560W        W20089  16.847  35.190  12.000
48561W        W20090  23.056   5.309   3.510
48562W        W20091  35.821   2.838  11.587
48563W        W20092  25.246  11.194  12.589
48564W        W20093   8.488  12.331  13.867
48565W        W20094   0.249  12.819   4.606
48566W        W20095  38.085  33.024  12.483
48567W        W20096   7.426  14.151   4.067
48568W        W20097  14.187  25.625   2.246
48569W        W20098   5.335  20.566  11.554
48570W        W20099   5.197  37.150  12.396
48571W        W20100  17.400  38.509  13.361
48572W        W20101   4.187  11.778   1.335
48573W        W20102  31.420  36.157  11.543
48574W        W20103   5.957  20.588  14.343
48575W        W20104  22.954  37.908  10.562
48576W        W20105  12.682  44.881   1.646
48577W        W20106  23.929  25.107   1.286
48578W        W20107  25.386   8.342  13.893
48579W        W20108  20.688  37.593  10.836
48580W        W20109  24.760   0.287   0.134
48581W        W20110  16.468  10.227  14.942
48582W        W20111  30.399  15.502  11.021
48583W        W20112  37.388  41.293  10.555
48584W        W20113  23.364  38.313   0.554
48585W        W20114  19.368  21.844  14.375
48586W        W20115  20.204  12.744  12.405
48587W        W20116   7.247  24.250   4.598
48588W        W20117  34.387  35.314   3.136
48589W        W20118  26.962   4.491  13.950
48590W        W20119  44.818  24.475   1.247
48591W        W20120   8.689  41.343   2.421
48592W        W20121  38.258  18.264   1.165
48593W        W20122  10.940   0.361   2.407
48594W        W20123   2.999  15.588  13.186
48595W        W20124  23.654  30.993   2.738
48596W        W20125  31.138  41.138  13.306
48597W        W20126  10.821  21.530   3.952
48598W        W20127  10.016  19.494  10.746
48599W        W20128  38.264  40.723   1.240
48600W        W20129  34.940   6.711  12.406
48601W        W20130  43.071  15.711   0.098
48602W        W20131  22.609  13.631   0.365
48603W        W20132   8.567   5.204  12.050
48604W        W20133   1.403  24.234  11.138
48605W        W20134  14.710  32.955  14.521
48606W        W20135  10.195  42.293  11.137
48607W        W20136  34.654  23.066  12.516
48608W        W20137  39.464  15.145   3.254
48609W        W20138  27.623  14.566  14.505
48610W        W20139  18.266  17.182   1.897
48611W        W20140  26.475  44.028  10.222
48612W        W20141  10.075  40.048  12.524
48613W        W20142  25.958  43.535  10.552
48614W        W20143   4.777  30.569   1.617
48615W        W20144  32.894  19.079   1.190
48616W        W20145  17.068  44.910  12.745
48617W        W20146  41.138  27.937   2.410
48618W        W20147  28.469  27.543   1.797
48619W        W20148  11.214  20.668   0.817
48620W        W20149  32.899  32.648  12.401
48621W        W20150  24.221   2.521   1.424
48622W        W20151  15.579  12.835  12.912
48623W        W20152  17.166  17.721  14.449
48624W        W20153  20.748  18.557   3.622
48625W        W20154  26.564   0.567  11.847
48626W        W20155  30.106  21.284  11.513
48627W        W20156  37.915   5.311   0.872
48628W        W20157  32.996   3.118  11.978
48629W        W20158  13.665  14.863   1.381
48630W        W20159  37.427  42.049   3.770
48631W        W20160   4.646  33.946   4.198
48632W        W20161  17.556  29.433   3.688
48633W        W20162  21.951  23.125  14.583
48634W        W20163  10.754  18.009   0.778
48635W        W20164  10.836   0.247  12.179
48636W        W20165  25.382  26.640  13.897
48637W        W20166  13.246  26.065   0.040
48638W        W20167  34.088  15.625  13.964
48639W        W20168  11.224  14.627   4.968
48640W        W20169  28.407  16.583   2.226
48641W        W20170  29.330   9.104   0.972
48642W        W20171  33.755  28.911   1.708
48643W        W20172  13.088  11.791   3.193
48644W        W20173  33.435   8.263   4.559
48645W        W20174  17.567   0.843   2.738
48646W        W20175  42.157  15.233   3.632
48647W        W20176  38.641  21.009   2.967
48648W        W20177   5.266   3.652   4.122
48649W        W20178  34.626  23.059  13.830
48650W        W20179  29.396   8.347  13.390
48651W        W20180   7.038   4.263  14.980
48652W        W20181  28.624  13.150  11.936
48653W        W20182  17.149  31.605   0.801
48654W        W20183   1.482  35.005   1.309
48655W        W20184  11.610  15.825   1.823
48656W        W20185  33.333  13.525   2.784
48657W        W20186   6.080  31.545   2.336
48658W        W20187  36.682  21.728  13.961
48659W        W20188  43.059  34.434   2.947
48660W        W20189  18.984  36.603   0.825
48661W        W20190  35.484  44.375   0.459
48662W        W20191  19.624   0.524  14.354
48663W        W20192  35.154  21.956  11.934
48664W        W20193  30.870  10.154   5.014
48665W        W20194   7.165  25.085  11.622
48666W        W20195   7.699   4.841  12.376
48667W        W20196  22.764  22.585   4.090
48668W        W20197  22.556  42.160   2.336
48669W        W20198  10.215   6.207  12.864
48670W        W20199  22.982  31.244   4.536
48671W        W20200  34.939  15.810  10.333
48672W        W20201   6.126  32.839   1.705
48673W        W20202  14.343  26.457  13.923
48674W        W20203  28.969  26.570  12.609
48675W        W20204  19.938  28.729   0.284
48676W        W20205   8.101  26.281  14.146
48677W        W20206  34.022  17.503   3.390
48678W        W20207  27.250  43.737  12.816
48679W        W20208  15.097  35.608  11.164
48680W        W20209  10.788  39.349   0.591
48681W        W20210  43.275  13.866   1.904
48682W        W20211  10.699  21.835   1.870
48683W        W20212  26.667   8.350  14.978
48684W        W20213  41.498   0.496  12.050
48685W        W20214  10.726  43.356  13.541
48686W        W20215  35.541   3.338  14.145
48687W        W20216  30.106  36.599   1.421
48688W        W20217   5.665   2.460  14.915
48689W        W20218  12.373  30.987  13.704
48690W        W20219  20.278  32.074   0.792
48691W        W20220  12.700  17.937   0.776
48692W        W20221  13.370  20.654  11.987
48693W        W20222  24.519   2.903   1.203
48694W        W20223  16.113  35.461   0.511
48695W        W20224   2.793  22.016  14.873
48696W        W20225  21.691  13.370  12.973
48697W        W20226  14.816   5.813  14.190
48698W        W20227  10.205  39.819   1.900
48699W        W20228  33.719   9.751   3.404
48700W        W20229  14.838  14.049   2.561
48701W        W20230  42.735  44.346  10.821
48702W        W20231  38.085   5.687  11.614
48703W        W20232   3.908   8.102   3.194
48704W        W20233   8.788   0.646   2.711
48705W        W20234  22.907  31.461   1.105
48706W        W20235   1.016  44.747  10.673
48707W        W20236  36.408  25.320   1.506
48708W        W20237  44.259  27.535  13.379
48709W        W20238  35.099  11.169   4.640
48710W        W20239  38.579  35.476  10.945
48711W        W20240  43.687  26.446  11.944
48712W        W20241  18.565  26.650  13.337
48713W        W20242  42.550  16.208   3.369
48714W        W20243  23.112  32.928  13.311
48715W        W20244  43.275  19.290  11.407
48716W        W20245   4.394  18.342  12.300
48717W        W20246   8.306   4.640  13.442
48718W        W20247  25.661   7.638   5.263
48719W        W20248  14.054  14.010   0.446
48720W        W20249  10.135   5.418   0.801
48721W        W20250  32.072  32.436  11.344
48722W        W20251   0.188   7.531   2.791
48723W        W20252  39.974  13.775  11.686
48724W        W20253  35.267  36.956   3.157
48725W        W20254  36.375   2.043   1.272
48726W        W20255  19.177  18.545   1.875
48727W        W20256  26.514  43.678   1.326
48728W        W20257  20.147  22.193   3.736
48729W        W20258   3.894  41.011  12.037
48730W        W20259  36.330  38.329   0.778
48731W        W20260   8.871  33.987  11.561
48732W        W20261   7.231  19.317  12.352
48733W        W20262  39.075  13.243  14.700
48734W        W20263  12.246  10.654  11.057
48735W        W20264  12.114  34.581  14.738
48736W        W20265   4.270  12.432  12.044
48737W        W20266  26.225  37.290   1.804
48738W        W20267  37.590  29.599   0.322
48739W        W20268  27.921  18.276  12.790
48740W        W20269  40.280  42.022  13.864
48741W        W20270  24.792   9.380  14.355
48742W        W20271   2.454  43.556  14.976
48743W        W20272  40.020   0.928  12.054
48744W        W20273  36.151  25.935   0.835
48745W        W20274  14.690  22.522   1.800
48746W        W20275  12.143   5.642  14.382
48747W        W20276  37.921  24.164   4.666
48748W        W20277  10.852  23.570  12.588
48749W        W20278  24.804  11.853   4.388
48750W        W20279  44.914  43.927   4.433
48751W        W20280  29.438   5.715  13.659
48752W        W20281  43.412   8.720   2.309
48753W        W20282  30.553  44.786  14.466
48754W        W20283  31.605   9.595   3.298
48755W        W20284  22.758  36.479   0.714
48756W        W20285   4.241   3.305  14.783
48757W        W20286  11.810   5.422  11.106
48758W        W20287  21.907  18.502  14.080
48759W        W20288   4.098   2.661  10.455
48760W        W20289  23.994  27.512  11.602
48761W        W20290  31.084   4.151  10.895
48762W        W20291  37.343  29.579  12.684
48763W        W20292  44.855  35.528   4.631
48764W        W20293  39.852  26.019   2.157
48765W        W20294  23.729  39.357  11.096
48766W        W20295  17.053  13.556   4.097
48767W        W20296  10.094   6.781   1.675
48768W        W20297  41.942  42.410  13.786
48769W        W20298   7.124  26.682   2.217
48770W        W20299  10.484  22.241  13.569
48771W        W20300  13.576  32.633   4.387
48772W        W20301  11.734  14.999   3.552
48773W        W20302  28.652  43.565  13.876
48774W        W20303  25.561  26.382   2.878
48775W        W20304  43.230  40.315   3.124
48776W        W20305  41.144   5.905  14.373
48777W        W20306  15.066  14.370  11.132
48778W        W20307  42.184  36.101   4.081
48779W        W20308  23.136  41.516  14.374
48780W        W20309  14.680  12.755   1.665
48781W        W20310   8.441  24.100  13.536
48782W        W20311  15.560  11.985   5.269
48783W        W20312   9.709   2.800  10.685
48784W        W20313   3.726   8.589  11.682
48785W        W20314  35.767  19.140  12.437
48786W        W20315  41.113  42.537   4.905
48787W        W20316  29.350   1.143  10.569
48788W        W20317  10.960  27.393   3.616
48789W        W20318   6.831   5.248  11.340
48790W        W20319  29.637  32.300   0.156
48791W        W20320  33.031   7.990  14.980
48792W        W20321  29.300   5.829   0.936
48793W        W20322  26.165  26.202   3.697
48794W        W20323  34.621  13.871  14.163
48795W        W20324   1.500  17.765   3.111
48796W        W20325  17.070   5.993  12.388
48797W        W20326  25.614  14.516   1.026
48798W        W20327  23.608   8.346  11.153
48799W        W20328  26.273  36.039   0.590
48800W        W20329  12.407  11.805  12.066
48801W        W20330   9.274   0.528   4.076
48802W        W20331   8.682  42.968  11.899
48803W        W20332  19.984  42.622  13.464
48804W        W20333   5.791  11.915  13.466
48805W        W20334  11.094   7.148   3.115
48806W        W20335  13.734  38.240   0.884
48807W        W20336   9.361  21.775   2.327
48808W        W20337  42.544  40.871   2.825
48809W        W20338   7.662  43.527   3.101
48810W        W20339  40.588  11.277  13.460
48811W        W20340  43.880  39.246   3.332
48812W        W20341  15.842  35.331  10.923
48813W        W20342   9.973  42.787  13.888
48814W        W20343   8.634   5.762   2.847
48815W        W20344  17.038  41.962   1.845
48816W        W20345  37.361  43.399  10.697
48817W        W20346  20.223  16.481   4.663
48818W        W20347  40.136  20.061   1.351
48819W        W20348  42.335  11.224   4.689
48820W        W20349  13.085  18.359  11.231
48821W        W20350   5.329   8.042   4.786
48822W        W20351  34.905  36.923   4.777
48823W        W20352  17.963  16.892   0.102
48824W        W20353  19.840  27.120   1.429
48825W        W20354  35.944  20.743  11.530
48826W        W20355  32.103   8.162  10.662
48827W        W20356  43.362   1.818   1.666
48828W        W20357  24.744  35.576   1.433
48829W        W20358  27.902   6.026   4.153
48830W        W20359  11.957  36.667  12.510
48831W        W20360  41.370   0.841  10.872
48832W        W20361  13.093  18.552  11.707
48833W        W20362  42.085  28.467  13.000
48834W        W20363  25.284  15.256   4.973
48835W        W20364  20.133  27.232   0.814
48836W        W20365  35.800  13.962   0.905
48837W        W20366  15.692  25.227   0.570
48838W        W20367   9.595  20.076  10.741
48839W        W20368  12.626   5.760  12.142
48840W        W20369  33.969  39.519  10.656
48841W        W20370  35.605  26.986   3.542
48842W        W20371  25.520  12.721   2.209
48843W        W20372   3.971  11.760   0.653
48844W        W20373  29.260  31.607  13.906
48845W        W20374  22.315  36.008   5.067
48846W        W20375  27.166  39.053  10.657
48847W        W20376  28.601   4.775  12.541
48848W        W20377   3.351  14.570  11.111
48849W        W20378   6.033  10.601  11.245
48850W        W20379  20.765   9.603  12.882
48851W        W20380  13.715  34.399  12.547
48852W        W20381  16.855  42.653   2.676
48853W        W20382  42.626  24.034  10.800
48854W        W20383   3.404  38.633  13.101
48855W        W20384  24.011  17.791  14.503
48856W        W20385   4.986  25.915  14.986
48857W        W20386  25.251  31.555  14.425
48858W        W20387   0.879   4.356   3.206
48859W        W20388   7.263  35.679  11.335
48860W        W20389  25.233  21.447  10.652
48861W        W20390  32.696  36.151   1.005
48862W        W20391  21.093  34.217  10.865
48863W        W20392  37.272  26.149  13.893
48864W        W20393  15.644  17.635  10.648
48865W        W20394  11.345   6.231  14.012
48866W        W20395   6.291  21.082   9.954
48867W        W20396  24.065  25.191   1.798
48868W        W20397  34.483  25.566  10.643
48869W        W20398  12.808  17.241  14.457
48870W        W20399  36.397   9.321  13.193
48871W        W20400  13.552  18.693  14.959
48872W        W20401   3.831  21.596  10.619
48873W        W20402  15.883  35.720  11.543
48874W        W20403  42.765   3.481   1.878
48875W        W20404  11.838  38.797  10.503
48876W        W20405  24.634   5.020  10.672
48877W        W20406  30.787  40.007   1.198
48878W        W20407  16.173  21.628   0.414
48879W        W20408  26.048  44.270   0.246
48880W        W20409  23.632  24.626   2.464
48881W        W20410  17.093   8.621  14.047
48882W        W20411  16.702  28.220  12.795
48883W        W20412  21.615  33.486   4.749
48884W        W20413  40.300  32.510   0.743
48885W        W20414  43.725  26.139  11.498
48886W        W20415  17.655  17.597  13.094
48887W        W20416   6.335  18.373  10.726
48888W        W20417  27.500   4.889   3.741
48889W        W20418  39.630  20.064  12.620
48890W        W20419   9.181   0.879   0.779
48891W        W20420  12.674  10.786  13.472
48892W        W20421  29.991   8.569   3.465
48893W        W20422   8.589  30.180  13.031
48894W        W20423  36.720  17.985  13.077
48895W        W20424  34.946  44.397   3.657
48896W        W20425   5.167   5.438  12.673
48897W        W20426  33.908  42.494  10.994
48898W        W20427  43.492   5.494   0.811
48899W        W20428  35.312   1.862  11.567
48900W        W20429  12.848   2.722  11.920
48901W        W20430   7.116  11.448  12.793
48902W        W20431   0.271  31.102   2.785
48903W        W20432  15.756  11.782   1.911
48904W        W20433  21.511  27.050  14.980
48905W        W20434  43.998  32.085   4.215
48906W        W20435  36.303  24.981   1.098
48907W        W20436   8.584   8.140  11.179
48908W        W20437  36.916  34.568   0.677
48909W        W20438   0.161  37.920  11.074
48910W        W20439  33.216  16.762  13.042
48911W        W20440  18.332   3.385   1.844
48912W        W20441  20.939  20.212  11.500
48913W        W20442  16.831  17.131  10.235
48914W        W20443  41.253  37.054   2.313
48915W        W20444   5.353  44.064  13.391
48916W        W20445  27.037  19.557  12.510
48917W        W20446  39.120  26.484  11.117
48918W        W20447  20.927  37.892   4.166
48919W        W20448  16.264  37.904   4.355
48920W        W20449  38.475  31.452  10.556
48921W        W20450   0.677  31.491   4.173
48922W        W20451  14.786   5.017  14.651
48923W        W20452  27.128  30.225  13.999
48924W        W20453  12.866  38.058  10.826
48925W        W20454  25.823  34.392   1.432
48926W        W20455   9.220  16.288  13.537
48927W        W20456  19.096  13.324   0.715
48928W        W20457  15.079   6.290  11.165
48929W        W20458  10.207  37.790   3.843
48930W        W20459   1.752  25.092  13.447
48931W        W20460   0.269  33.524  13.794
48932W        W20461  23.060   8.846   1.275
48933W        W20462  44.784  29.170   1.885
48934W        W20463  11.775  31.864  14.489
48935W        W20464  14.302  44.933  12.384
48936W        W20465  21.165  18.258  12.017
48937W        W20466  16.292  32.052  13.967
48938W        W20467   9.853  40.954  10.627
48939W        W20468  11.713  42.606   1.781
48940W        W20469  36.539  30.330   0.770
48941W        W20470   7.818  26.070  11.040
48942W        W20471  29.915  28.679  14.758
48943W        W20472  43.918  34.277   1.860
48944W        W20473  37.441   2.614  13.523
48945W        W20474   6.139  17.640   0.831
48946W        W20475  15.344   9.762   0.856
48947W        W20476  37.330  16.915  12.564
48948W        W20477   8.706  11.387   2.239
48949W        W20478   6.821  30.498  13.322
48950W        W20479   8.792   5.023   5.083
48951W        W20480  10.707   4.636  12.288
48952W        W20481  24.599  18.373  10.722
48953W        W20482  31.510  22.624   0.877
48954W        W20483  27.726  15.613   3.880
48955W        W20484  33.523   1.951   1.653
48956W        W20485  39.961  42.483  12.553
48957W        W20486  25.118  16.083  11.660
48958W        W20487  33.897   3.668  13.260
48959W        W20488  12.262  30.870   1.347
48960W        W20489  25.977  22.630   3.592
48961W        W20490  14.212  37.755   1.579
48962W        W20491  34.432  10.817  14.011
48963W        W20492  13.636   3.712   3.026
48964W        W20493   0.733  23.629   2.628
48965W        W20494  21.211  27.919   2.484
48966W        W20495   3.642  31.760   4.473
48967W        W20496  41.211  17.080   0.378
48968W        W20497  44.457  15.257   1.064
48969W        W20498  38.473   9.137  12.849
48970W        W20499  14.023   1.766  10.981
48971W        W20500  35.418  41.053   4.151
48972W        W20501  38.076  17.040  11.075
48973W        W20502  13.353  42.714  14.634
48974W        W20503   8.394  32.587   0.664
48975W        W20504  13.058  15.730   2.823
48976W        W20505  35.795   1.085  14.493
48977W        W20506  44.588  33.410  14.393
48978W        W20507   9.131  32.083   1.755
48979W        W20508  20.666  31.090  13.697
48980W        W20509  34.588  33.971  13.291
48981W        W20510  19.727  12.393   4.337
48982W        W20511   4.458  38.327  12.565
48983W        W20512  40.492  21.151  10.731
48984W        W20513   5.265  25.558   1.231
48985W        W20514   4.061  28.555  12.070
48986W        W20515  32.601  25.538  14.894
48987W        W20516   8.572  14.278   2.236
48988W        W20517  33.731  30.975  14.408
48989W        W20518  17.707  21.432  13.395
48990W        W20519  44.231  18.295   0.932
48991W        W20520   5.687  28.453  13.507
48992W        W20521  25.533  13.779  11.548
48993W        W20522  23.020  35.882  12.895
48994W        W20523  26.374  34.713   5.387
48995W        W20524  38.386   6.474   3.677
48996W        W20525  39.537  35.212  11.831
48997W        W20526   7.427   6.341  13.427
48998W        W20527  36.852   0.496   2.871
48999W        W20528   5.987  18.396  14.983
49000W        W20529   3.983  23.143   2.436
49001W        W20530  18.696  36.545  14.893
49002W        W20531  10.322  33.611   1.833
49003W        W20532  22.585  17.550  13.976
49004W        W20533  17.518  21.681   0.241
49005W        W20534  30.460  37.005   1.391
49006W        W20535  35.304   6.868  13.510
49007W        W20536  40.159  13.394   0.755
49008W        W20537   4.447  10.770   3.800
49009W        W20538   0.335   9.026   4.537
49010W        W20539   3.987  21.611  11.495
49011W        W20540  39.717  14.249  12.833
49012W        W20541  10.291  40.987   0.485
49013W        W20542  34.089  17.088  12.211
49014W        W20543  14.132  10.342  10.559
49015W        W20544  26.071   0.450  12.592
49016W        W20545  12.013  36.136  13.446
49017W        W20546  29.942  41.564   2.196
49018W        W20547  34.641  20.225  11.444
49019W        W20548  40.721  41.318  12.337
49020W        W20549  24.282   9.102   2.240
49021W        W20550   6.379  19.786  14.882
49022W        W20551  18.448  34.403  13.924
49023W        W20552  43.799   0.813  12.411
49024W        W20553  12.734  42.504   4.674
49025W        W20554  36.475  39.536   4.296
49026W        W20555  19.994  44.104   1.818
49027W        W20556  22.415  43.393   1.380
49028W        W20557  23.758  16.219  11.102
49029W        W20558   5.982  44.232   3.208
49030W        W20559  39.498   8.882  14.574
49031W        W20560  19.086  31.613  11.362
49032W        W20561  40.524   8.635  12.695
49033W        W20562  32.089  32.123  13.925
49034W        W20563  19.885  27.470  12.613
49035W        W20564  16.256  24.514   1.647
49036W        W20565  26.581  16.339   0.873
49037W        W20566  35.068  24.095  12.275
49038W        W20567  10.886  32.760   1.879
49039W        W20568   4.337   2.793   0.921
49040W        W20569  20.543  25.105  11.192
49041W        W20570   7.175  25.415  11.158
49042W        W20571  36.094  14.286   0.542
49043W        W20572  23.288  40.898  10.360
49044W        W20573  28.389  42.279   1.141
49045W        W20574  35.988   9.554   3.668
49046W        W20575  15.490  31.000   3.334
49047W        W20576  22.667  38.508  14.922
49048W        W20577   9.760  37.968   4.061
49049W        W20578  28.851  38.552  11.426
49050W        W20579   2.242  40.392  13.979
49051W        W20580  10.449   6.879  13.238
49052W        W20581  29.566   8.182  12.577
49053W        W20582  19.556  11.291  14.906
49054W        W20583  23.496   0.767  10.690
49055W        W20584   2.158  10.627   4.229
49056W        W20585  23.734   3.713  14.693
49057W        W20586  22.551  43.272  12.874
49058W        W20587  40.876  31.854   0.995
49059W        W20588   4.807  17.999  13.020
49060W        W20589  33.041  12.640   1.428
49061W        W20590  35.925  39.576  14.158
49062W        W20591  18.670   6.926   3.311
49063W        W20592   8.860  12.814   4.665
49064W        W20593  21.924  17.125  10.620
49065W        W20594  35.883  43.969   3.676
49066W        W20595  38.463  13.583   2.682
49067W        W20596   2.994  10.284  14.138
49068W        W20597  15.683  14.776   3.867
49069W        W20598   2.845  29.206   4.615
49070W        W20599   4.126  16.275  14.913
49071W        W20600   6.278  43.370  13.285
49072W        W20601  25.083   8.785  11.546
49073W        W20602  39.913  33.114  13.861
49074W        W20603  34.811   5.303   3.311
49075W        W20604  28.844   3.157  13.379
49076W        W20605  37.291   3.321  11.985
49077W        W20606  29.264  41.803  14.766
49078W        W20607  17.633  17.186  10.585
49079W        W20608   0.694  36.414   0.528
49080W        W20609  39.227   7.481  12.102
49081W        W20610  13.705   9.922   1.206
49082W        W20611  11.257  10.109   2.642
49083W        W20612   8.883  38.024   3.500
49084W        W20613  21.198  17.627  11.629
49085W        W20614  12.178  11.087   2.678
49086W        W20615  19.382   8.407  11.596
49087W        W20616  25.797   9.455   1.685
49088W        W20617  24.465  44.900   0.382
49089W        W20618   8.383   2.686  13.248
49090W        W20619  40.801  39.875  13.878
49091W        W20620  44.289  43.968  13.556
49092W        W20621   6.801  18.993  14.979
49093W        W20622   7.491  14.156   1.783
49094W        W20623  17.108  19.744  13.098
49095W        W20624  24.685   8.346   3.845
49096W        W20625  33.140   2.328   2.230
49097W        W20626  35.977   1.295   0.326
49098W        W20627  14.521  24.954   2.403
49099W        W20628  11.875  38.450  11.918
49100W        W20629  10.432   3.594   1.866
49101W        W20630  37.674   2.207   0.372
49102W        W20631  22.581  39.777  14.546
49103W        W20632  25.454  36.347  11.707
49104W        W20633  19.784  30.441  13.854
49105W        W20634  11.315  27.388  13.615
49106W        W20635  43.053   6.648  11.657
49107W        W20636  12.721   1.564   0.731
49108W        W20637   9.133   5.332   0.847
49109W        W20638  12.814  39.419   3.127
49110W        W20639  28.710  17.964   4.096
49111W        W20640   8.276  25.057  10.996
49112W        W20641  34.086  24.669  14.316
49113W        W20642   5.989  27.186   3.592
49114W        W20643   6.661  13.776  12.958
49115W        W20644  44.846   7.849   3.660
49116W        W20645   3.488   7.523   2.852
49117W        W20646  30.182  19.021   0.355
49118W        W20647  40.030   0.991   0.917
49119W        W20648  22.066  38.553  12.403
49120W        W20649  34.242  17.419  13.636
49121W        W20650  40.943  10.369   4.546
49122W        W20651  23.019  21.205   2.816
49123W        W20652  18.916   8.245  11.725
49124W        W20653   4.752  38.998  11.658
49125W        W20654   3.402  18.911  13.575
49126W        W20655   0.916  17.857  11.752
49127W        W20656   4.078  22.811   1.641
49128W        W20657   5.249  24.242   2.857
49129W        W20658  37.844   2.008   3.535
49130W        W20659  39.671   6.115  11.852
49131W        W20660   3.808  13.277  12.006
49132W        W20661  37.624  14.142  11.762
49133W        W20662  42.432   5.638   4.242
49134W        W20663   3.667  41.994  13.855
49135W        W20664  20.279   6.370  11.184
49136W        W20665  39.314  42.207   1.291
49137W        W20666  18.005   1.389   0.496
49138W        W20667   9.755  18.114   4.194
49139W        W20668  27.344  32.834   4.136
49140W        W20669  31.723  33.892  11.939
49141W        W20670  32.713  40.975  12.654
49142W        W20671   5.484   1.208   1.501
49143W        W20672  41.279  22.675   4.043
49144W        W20673   8.354   4.215  11.716
49145W        W20674   0.209  29.130   1.595
49146W        W20675  18.672  20.276  13.915
49147W        W20676  32.110  29.183  14.387
49148W        W20677  10.255  13.331   0.491
49149W        W20678   3.893  26.491  13.954
49150W        W20679  11.742  36.719   4.895
49151W        W20680  13.111  19.206   2.331
49152W        W20681  40.454  11.630  10.810
49153W        W20682  31.681  21.018  11.989
49154W        W20683   0.218  15.712   3.191
49155W        W20684  35.281  26.755  10.972
49156W        W20685  13.321  29.573  12.981
49157W        W20686  29.526  35.440   1.436
49158W        W20687  14.399  35.037  13.053
49159W        W20688  25.992   2.342  13.403
49160W        W20689  37.859  21.128  12.908
49161W        W20690  11.060  18.262   4.172
49162W        W20691  14.512  34.498  11.552
49163W        W20692  11.752  15.198   4.020
49164W        W20693  34.432   7.934  13.576
49165W        W20694   5.726  41.723  14.483
49166W        W20695  14.665   1.276   9.997
49167W        W20696  17.557  42.443  10.744
49168W        W20697  36.670  16.031  14.963
49169W        W20698  15.545   1.484   4.372
49170W        W20699  36.075   6.174   2.187
49171W        W20700  11.909  27.424   1.714
49172W        W20701  36.108  39.195   4.153
49173W        W20702  20.806   8.347   1.607
49174W        W20703   1.126   9.601  13.460
49175W        W20704  42.792  30.601   3.911
49176W        W20705  39.609  22.807  12.822
49177W        W20706  33.062  14.341   4.170
49178W        W20707  19.484   8.699   2.631
49179W        W20708  18.784  40.896  12.141
49180W        W20709  11.100  25.019  11.602
49181W        W20710   9.338  33.203   2.611
49182W        W20711   6.148   6.350   3.933
49183W        W20712  38.398  41.616   2.812
49184W        W20713  14.201  30.044   2.811
49185W        W20714   6.410   1.427  11.230
49186W        W20715  40.049  29.196   4.671
49187W        W20716  38.996  35.098  11.247
49188W        W20717  32.982  14.467   1.290
49189W        W20718   4.267  36.238   4.899
49190W        W20719  44.406  37.506  11.298
49191W        W20720  37.462   6.434   3.553
49192W        W20721  27.625  40.559   3.181
49193W        W20722  38.040  41.052  14.851
49194W        W20723   9.212   9.870   4.113
49195W        W20724  37.327  22.513   2.881
49196W        W20725  41.648  31.282   2.321
49197W        W20726  28.587  21.807  12.092
49198W        W20727  41.460  10.824   0.781
49199W        W20728  39.930  32.616   2.670
49200W        W20729  19.119  17.177   2.930
49201W        W20730   9.948   0.318   3.241
49202W        W20731   3.951   9.510   2.244
49203W        W20732  26.136  27.186  14.539
49204W        W20733  37.120   8.131  14.572
49205W        W20734   0.924  31.850   1.762
49206W        W20735   1.987  31.460  13.418
49207W        W20736  19.342  33.081  14.935
49208W        W20737   6.624   8.354  13.884
49209W        W20738  17.345  33.085  13.846
49210W        W20739   0.309  35.317   2.364
49211W        W20740   5.528  13.744  12.296
49212W        W20741  12.683  37.107   1.876
49213W        W20742   4.028  21.329  12.716
49214W        W20743   4.978  23.959  11.044
49215W        W20744   2.737   4.819   2.773
49216W        W20745  43.911  31.200   2.617
49217W        W20746  18.273  36.945  13.051
49218W        W20747  23.158  23.002   4.737
49219W        W20748  13.255  20.099   1.854
49220W        W20749  12.290  43.489   0.841
49221W        W20750  24.448  23.895  14.188
49222W        W20751   5.804   6.806   3.056
49223W        W20752  23.115  13.783   1.724
49224W        W20753   7.754  21.116   1.405
49225W        W20754  24.942  26.268   4.693
49226W        W20755  12.731  31.519   0.779
49227W        W20756  30.462  19.734   3.304
49228W        W20757  38.062  42.948  11.153
49229W        W20758  14.598  37.150   4.635
49230W        W20759   8.433   0.393   9.821
49231W        W20760  21.464  44.513  11.194
49232W        W20761  25.315  10.653   2.696
49233W        W20762  36.489   4.391  13.345
49234W        W20763  39.747   1.528  11.116
49235W        W20764   7.098   8.623  13.216
49236W        W20765  41.894   3.193   0.706
49237W        W20766   0.210   9.272   2.164
49238W        W20767  27.913  22.424  14.828
49239W        W20768  32.707  32.906  11.152
49240W        W20769  21.597  13.957  11.115
49241W        W20770  44.963  25.976   2.258
49242W        W20771  36.430  17.015   2.559
49243W        W20772   5.293  16.951   0.442
49244W        W20773  41.307  25.305   2.775
49245W        W20774  39.029  22.910   3.200
49246W        W20775  35.067  20.198  12.757
49247W        W20776  42.784  30.966   4.665
49248W        W20777  25.593   4.003  13.048
49249W        W20778  41.282  28.989   2.312
49250W        W20779  24.076  27.243   2.781
49251W        W20780   9.772  40.545  14.383
49252W        W20781  33.290  30.055  14.264
49253W        W20782  33.198  40.850  14.274
49254W        W20783  26.458  21.122  12.383
49255W        W20784   7.281   3.502  14.078
49256W        W20785  36.644  15.171  14.500
49257W        W20786  20.375  14.010  12.962
49258W        W20787  31.055  27.940   1.505
49259W        W20788  32.806  11.797  12.955
49260W        W20789  36.109  29.494   0.477
49261W        W20790  12.258   8.062   2.892
49262W        W20791  15.519  33.834  11.915
49263W        W20792  11.846  20.401   2.158
49264W        W20793   6.334   6.313   4.921
49265W        W20794  22.505   3.917  13.392
49266W        W20795  28.569   5.227  14.431
49267W        W20796  36.621  10.821  11.381
49268W        W20797   2.958   2.317   2.761
49269W        W20798  18.029  24.044  12.227
49270W        W20799   9.367  43.023   1.966
49271W        W20800  35.369  41.377   1.287
49272W        W20801  44.963   9.749  12.453
49273W        W20802  31.365  28.069   3.325
49274W        W20803  44.985   5.679  11.605
49275W        W20804  35.113  13.761  14.363
49276W        W20805  42.246  13.330   3.317
49277W        W20806  15.786  32.174  13.444
49278W        W20807  20.369  31.377  12.475
49279W        W20808   8.888  25.113   2.633
49280W        W20809  25.510  26.504  10.393
49281W        W20810  11.165  30.007   0.297
49282W        W20811  10.726   7.362   0.338
49283W        W20812  12.369   1.025  10.495
49284W        W20813  16.222  43.294  11.423
49285W        W20814  27.421  13.711   0.613
49286W        W20815  37.556  25.672   4.727
49287W        W20816  29.994  35.441   3.100
49288W        W20817  21.343  41.236  13.468
49289W        W20818   6.315  33.054   1.254
49290W        W20819   1.377  40.986   2.585
49291W        W20820  42.414  32.654  13.174
49292W        W20821  23.628   6.136  10.690
49293W        W20822  24.614  27.560   1.662
49294W        W20823  39.143   7.937  13.337
49295W        W20824  35.864  28.658  14.935
49296W        W20825  40.067  26.184   1.700
49297W        W20826   6.763  36.429   3.295
49298W        W20827  44.986  39.017   4.709
49299W        W20828  14.116  26.279  14.925
49300W        W20829  23.030  44.903  14.439
49301W        W20830   1.989  38.358  14.419
49302W        W20831  18.173  36.865  11.497
49303W        W20832  26.170  37.880  13.749
49304W        W20833   2.515  21.673  13.587
49305W        W20834  17.404  43.883  12.043
49306W        W20835  40.392  19.690   4.680
49307W        W20836  39.567  35.462  12.467
49308W        W20837  34.646  36.442  12.060
49309W        W20838   8.339   4.369  12.911
49310W        W20839  27.631  21.013   4.173
49311W        W20840  23.551  10.887  11.447
49312W        W20841  35.161  37.987  14.018
49313W        W20842  15.128  33.124   3.306
49314W        W20843  34.342   7.989  12.115
49315W        W20844  26.083  30.140  12.131
49316W        W20845  43.980   0.688  13.175
49317W        W20846   7.284  27.126  12.799
49318W        W20847  25.225  32.502   4.274
49319W        W20848  31.045  29.133   3.788
49320W        W20849  44.199  26.982   1.460
49321W        W20850  34.284   8.995  13.346
49322W        W20851  36.334  26.531   1.803
49323W        W20852  41.489   5.486  11.375
49324W        W20853   5.627  34.233  11.664
49325W        W20854  12.838  41.776   4.152
49326W        W20855  38.104  27.371  12.066
49327W        W20856   5.686  21.761   3.163
49328W        W20857   5.125  11.368   0.563
49329W        W20858  35.814  17.765   4.512
49330W        W20859  35.472   9.552   4.749
49331W        W20860  21.340  39.051  13.113
49332W        W20861  40.886  29.083   1.849
49333W        W20862  33.595  11.567   0.225
49334W        W20863   3.756   9.340   2.689
49335W        W20864   7.121  15.433   4.938
49336W        W20865  27.802  42.855   4.281
49337W        W20866  26.544   6.313  11.898
49338W        W20867  37.425  36.780  11.587
49339W        W20868  27.020  17.576   4.137
49340W        W20869  25.364  24.450   4.543
49341W        W20870   3.267  24.282   4.474
49342W        W20871  28.831  22.236  11.456
49343W        W20872  35.505   0.684   3.856
49344W        W20873  34.936  23.278  11.239
49345W        W20874  44.617  38.839  12.562
49346W        W20875  19.832  25.004   4.191
49347W        W20876  17.970  29.861  14.388
49348W        W20877  41.928  40.114  13.632
49349W        W20878  21.238   6.211   4.086
49350W        W20879  32.152  44.420  13.053
49351W        W20880  11.944   3.365   2.183
49352W        W20881  15.900  15.176  14.587
49353W        W20882   6.623  22.274   1.842
49354W        W20883  37.672  38.512  13.603
49355W        W20884  26.950  22.830   1.983
49356W        W20885  44.987  10.447   1.994
49357W        W20886  18.028  13.221   3.407
49358W        W20887  20.739  37.066  13.931
49359W        W20888  37.288  41.930  11.104
49360W        W20889  11.860  14.166   2.238
49361W        W20890  27.495  40.945  11.018
49362W        W20891  35.510  32.395   4.622
49363W        W20892  23.414  28.965  11.532
49364W        W20893  21.778  21.421   0.384
49365W        W20894   5.214  22.458  11.612
49366W        W20895   9.187  35.848   4.631
49367W        W20896  28.196  30.661   3.561
49368W        W20897  28.047  14.566  13.272
49369W        W20898  26.751  29.886   1.171
49370W        W20899  11.741  16.849   1.775
49371W        W20900  44.394   9.172   0.301
49372W        W20901  44.942  20.171  14.262
49373W        W20902   1.732   0.948   4.476
49374W        W20903  37.112  28.069  13.874
49375W        W20904   1.196  22.651   1.782
49376W        W20905  16.693  29.665  13.927
49377W        W20906   3.959   9.402  11.851
49378W        W20907  36.394   9.477  11.703
49379W        W20908  36.532  16.224  11.094
49380W        W20909   1.942  27.043  14.692
49381W        W20910  40.395   3.871   2.215
49382W        W20911  31.204  42.362  14.069
49383W        W20912  21.055  38.839  12.049
49384W        W20913  31.908  26.437   3.629
49385W        W20914   3.980  34.314  14.418
49386W        W20915  13.636  36.540   2.739
49387W        W20916  10.381  13.610   2.128
49388W        W20917   9.102  31.887  10.712
49389W        W20918  33.854  43.969   3.214
49390W        W20919   8.572  39.048  11.184
49391W        W20920  39.851  10.316   1.604
49392W        W20921  37.677  13.509   2.906
49393W        W20922  34.462  36.335   0.301
49394W        W20923  21.436   5.993  10.458
49395W        W20924  24.723  23.831   4.210
49396W        W20925   2.224  19.382  11.050
49397W        W20926  24.805  16.344   0.687
49398W        W20927  31.068  32.143  13.115
49399W        W20928  10.738  42.727  13.309
49400W        W20929  31.539  11.565   0.784
49401W        W20930   9.150  41.538   3.112
49402W        W20931   8.511   1.800   3.903
49403W        W20932  44.999  34.702   0.744
49404W        W20933  44.387   7.433  14.829
49405W        W20934  34.042  40.376  12.448
49406W        W20935  24.069   2.747  13.005
49407W        W20936  39.499  43.868  11.512
49408W        W20937  20.146  33.643  12.833
49409W        W20938  39.682  28.006   2.127
49410W        W20939   5.234   0.912   4.840
49411W        W20940  32.134   7.689  11.958
49412W        W20941  23.112  12.908  10.737
49413W        W20942  32.381  18.757   1.819
49414W        W20943  17.123   9.792  13.098
49415W        W20944   8.200  37.801  11.854
49416W        W20945  10.415  14.215  12.436
49417W        W20946  41.998  37.401  10.449
49418W        W20947   6.888  34.841   2.227
49419W        W20948  43.851   2.532   2.798
49420W        W20949  37.945  44.292  12.533
49421W        W20950  15.847  35.089  13.250
49422W        W20951  25.010  41.907   2.456
49423W        W20952  40.275  37.542   4.653
49424W        W20953   5.967  14.312   5.016
49425W        W20954  16.393  18.079  14.412
49426W        W20955  19.582  23.161  13.799
49427W        W20956  37.545   3.322  11.541
49428W        W20957  29.653  12.078  14.528
49429W        W20958  29.524  17.851   4.159
49430W        W20959   3.863  32.131  13.423
49431W        W20960  43.402  11.597   2.383
49432W        W20961  30.631   6.543  12.814
49433W        W20962   5.664  26.412   2.611
49434W        W20963   1.195  38.469   4.076
49435W        W20964  13.323  16.546   1.555
49436W        W20965  32.505  10.288  14.892
49437W        W20966  34.593  19.941  12.788
49438W        W20967   2.046  12.118  13.352
49439W        W20968   3.982  29.560   1.300
49440W        W20969  41.070  29.747  13.519
49441W        W20970  15.259  24.134   3.188
49442W        W20971   8.155  38.311  12.064
49443W        W20972  42.867   8.163   1.790
49444W        W20973  18.187   6.923   2.411
49445W        W20974  43.944  34.520  10.232
49446W        W20975  32.404  25.730  14.394
49447W        W20976  13.396   4.875   2.037
49448W        W20977  16.155  38.979  11.136
49449W        W20978  22.280   1.702  10.875
49450W        W20979  24.131  10.109  11.116
49451W        W20980  31.028  29.381  13.910
49452W        W20981   4.638  26.542  11.036
49453W        W20982   9.544  17.044   4.212
49454W        W20983  22.583   8.311  12.316
49455W        W20984   9.645  24.063  13.802
49456W        W20985  31.849  32.042   4.042
49457W        W20986  18.220  44.358  10.034
49458W        W20987  41.069  35.787  13.794
49459W        W20988   8.348   2.365  13.906
49460W        W20989  22.290  24.260  10.674
49461W        W20990  20.663   5.707  14.725
49462W        W20991  20.607  20.549  11.259
49463W        W20992  13.744  44.045  14.000
49464W        W20993  25.715  44.981  14.378
49465W        W20994  18.988   8.842  10.772
49466W        W20995  39.444  17.631   3.908
49467W        W20996  29.939  40.463   2.700
49468W        W20997  33.494  35.026  14.049
49469W        W20998  31.518   0.956  13.972
49470W        W20999  14.027  32.475  12.553
49471W        W21000   1.813   5.312   1.364
49472W        W21001   5.771  36.003  13.592
49473W        W21002   1.451  26.547   1.255
49474W        W21003   9.645  17.122  14.374
49475W        W21004  17.753  29.109   2.262
49476W        W21005  22.111  26.628   0.779
49477W        W21006   3.947  15.186  10.846
49478W        W21007  31.621  19.576   5.091
49479W        W21008  21.459  36.944   1.349
49480W        W21009  44.186  37.414   0.017
49481W        W21010  41.704  29.008  11.959
49482W        W21011  38.258  26.181  13.437
49483W        W21012  27.570  17.467  13.076
49484W        W21013   3.427  31.943   4.053
49485W        W21014  38.477  32.206  11.153
49486W        W21015  34.704  32.654  14.980
49487W        W21016  17.735  39.432  13.021
49488W        W21017  38.578  38.049   4.622
49489W        W21018  36.467  44.300  14.717
49490W        W21019  27.988  15.615   3.040
49491W        W21020  36.469  34.803   1.403
49492W        W21021  39.957  21.833  11.099
49493W        W21022  22.432  36.535  12.340
49494W        W21023  41.224  21.995   2.900
49495W        W21024  18.743  44.741   4.162
49496W        W21025  19.243  18.155  14.328
49497W        W21026   7.160  44.497   4.069
49498W        W21027  24.152  26.642   3.669
49499W        W21028  39.927  35.065  13.602
49500W        W21029  41.933   5.979  12.467
49501W        W21030  34.374   6.706  11.614
49502W        W21031   0.944  13.580  14.699
49503W        W21032  31.861  35.478  14.954
49504W        W21033   0.490  29.831   3.202
49505W        W21034  14.710  31.025  14.443
49506W        W21035  38.566  40.992   2.259
49507W        W21036  20.126  33.049  13.961
49508W        W21037  42.048  14.743  14.808
49509W        W21038  24.119  23.728   3.211
49510W        W21039  34.942  27.838  13.107
49511W        W21040  36.577  43.890  14.358
49512W        W21041   7.223  14.718   2.365
49513W        W21042  33.568  27.102   0.899
49514W        W21043  28.456  16.752   0.329
49515W        W21044  26.185  38.672  10.707
49516W        W21045   5.257   9.307  13.796
49517W        W21046  20.528  22.051   2.457
49518W        W21047  35.928   5.437   3.018
49519W        W21048  26.904  41.920  10.698
49520W        W21049  17.642  26.074  12.589
49521W        W21050  22.793   8.754  12.124
49522W        W21051   3.665   5.832  13.558
49523W        W21052  34.839  24.609  13.853
49524W        W21053  27.684  19.576   0.246
49525W        W21054  25.587  32.763   4.605
49526W        W21055   0.812  19.431  11.070
49527W        W21056  23.530   3.888   0.976
49528W        W21057  25.977  20.478  13.979
49529W        W21058  27.974  41.098   2.474
49530W        W21059  34.875   3.400   3.379
49531W        W21060  19.455  25.870  10.932
49532W        W21061   1.365  16.656   4.086
49533W        W21062   9.549  15.160  11.198
49534W        W21063   1.366   5.978   3.593
49535W        W21064  31.230  44.904  14.067
49536W        W21065   6.336  23.302   4.217
49537W        W21066  28.436  26.111   4.167
49538W        W21067  17.590  19.352   4.712
49539W        W21068   9.191   6.851   3.415
49540W        W21069   6.985  41.831   3.989
49541W        W21070  10.842  41.090   2.340
49542W        W21071   3.491  31.053  13.080
49543W        W21072  31.849  17.711  12.580
49544W        W21073  42.322  22.537  14.810
49545W        W21074   8.312  20.736   0.915
49546W        W21075  11.728  36.545  14.342
49547W        W21076  41.752  22.597   3.787
49548W        W21077  42.983  24.994  14.944
49549W        W21078  40.714  41.511  14.307
49550W        W21079  22.651  24.256  14.262
49551W        W21080  29.257  44.489  13.082
49552W        W21081  38.506  36.475  10.482
49553W        W21082   7.450  23.336  14.284
49554W        W21083  33.437  38.033   4.291
49555W        W21084  34.907   6.741   2.355
49556W        W21085  41.519  26.613   1.452
49557W        W21086  26.459  13.161   1.261
49558W        W21087  30.626  30.428  14.457
49559W        W21088  20.664  19.367   0.518
49560W        W21089  12.624  17.074   2.666
49561W        W21090  32.542  43.264   1.731
49562W        W21091   3.321  39.518   3.585
49563W        W21092  44.740  28.439  11.441
49564W        W21093  41.591  39.169   2.284
49565W        W21094  16.870  19.609  12.006
49566W        W21095   3.767  30.404  14.239
49567W        W21096  30.656   5.766   4.431
49568W        W21097  25.450  44.899   4.798
49569W        W21098   9.140   0.001   4.098
49570W        W21099   7.158   1.483   2.062
49571W        W21100  11.312   8.792  12.068
49572W        W21101  16.018   1.781   1.695
49573W        W21102  30.938  17.245  12.406
49574W        W21103  31.724  44.356   3.667
49575W        W21104  24.058  20.020   1.273
49576W        W21105  42.729  31.997  12.859
49577W        W21106   5.205  11.467  14.576
49578W        W21107   8.466   1.528  14.916
49579W        W21108  23.556  10.418   3.161
49580W        W21109  28.375  44.890   2.636
49581W        W21110  13.216  24.757  14.203
49582W        W21111  28.274  43.016  13.396
49583W        W21112   0.809  42.684   2.778
49584W        W21113   4.391   9.252  12.158
49585W        W21114   5.908   5.311   3.998
49586W        W21115  25.509  10.567  14.880
49587W        W21116  42.046  10.142   3.233
49588W        W21117  16.072  37.321  11.098
49589W        W21118   1.347   9.140  13.420
49590W        W21119  44.181  16.562   2.248
49591W        W21120  18.684   2.029  11.964
49592W        W21121  36.474  43.407  11.731
49593W        W21122   8.142   1.874  12.129
49594W        W21123  15.555   4.674   3.152
49595W        W21124  19.242  25.111  12.410
49596W        W21125  10.919  33.201   1.600
49597W        W21126  33.950  18.052   4.616
49598W        W21127  32.607  38.515   2.390
49599W        W21128  28.982  18.619   2.386
49600W        W21129  25.053  33.798   2.838
49601W        W21130  43.892  40.607   3.853
49602W        W21131  30.226  40.627   3.626
49603W        W21132  31.699  23.908   9.821
49604W        W21133   0.331  38.072   3.683
49605W        W21134  19.346   0.251   0.233
49606W        W21135   8.832  34.827   2.337
49607W        W21136  11.178  18.850   1.439
49608W        W21137  19.612  43.101  14.933
49609W        W21138  18.413  10.834   3.934
49610W        W21139   0.398  35.488  12.552
49611W        W21140  22.432  37.853   3.834
49612W        W21141  20.710  17.595   2.293
49613W        W21142  38.013  34.009  13.053
49614W        W21143  33.632   7.259   2.271
49615W        W21144  24.220  26.947   3.217
49616W        W21145  42.937  11.487   3.864
49617W        W21146  31.927  18.130   3.098
49618W        W21147  11.104  41.308  11.037
49619W        W21148  39.720  11.776  11.244
49620W        W21149  11.848   0.225   1.353
49621W        W21150  16.340   0.008   4.976
49622W        W21151  33.097  26.906   2.872
49623W        W21152   5.350   2.363  13.562
49624W        W21153  29.057  35.258   4.026
49625W        W21154  19.663  33.487  14.081
49626W        W21155  12.106  24.137  14.270
49627W        W21156  40.749  42.586   1.237
49628W        W21157  36.841  14.165  10.790
49629W        W21158  39.888  35.905  14.768
49630W        W21159  26.930   2.368   0.894
49631W        W21160  13.654   7.122  14.455
49632W        W21161  18.753  31.177   2.144
49633W        W21162  38.865  30.680   1.636
49634W        W21163  38.892   5.874   2.042
49635W        W21164  29.176  32.884  14.419
49636W        W21165  28.428  41.564   4.236
49637W        W21166  42.290   0.544   2.173
49638W        W21167  41.052  38.236   4.873
49639W        W21168  15.336   3.896  12.439
49640W        W21169   8.977  13.315  14.474
49641W        W21170  34.013   2.821   2.587
49642W        W21171  22.729   5.012   1.280
49643W        W21172  28.261  19.903   3.326
49644W        W21173   9.274  18.027   0.769
49645W        W21174  43.543  36.293  10.737
49646W        W21175  17.159   9.861  11.112
49647W        W21176  40.062  27.055  10.726
49648W        W21177  35.291   2.893   4.348
49649W        W21178  38.841  29.659   0.078
49650W        W21179  10.321  25.759   1.762
49651W        W21180   2.306  40.516   3.324
49652W        W21181  17.820  40.849   3.833
49653W        W21182  38.335  36.800   3.396
49654W        W21183  10.187  11.246   4.097
49655W        W21184   0.359  14.581  14.943
49656W        W21185   2.931  19.677   3.192
49657W        W21186  32.318  10.636  11.103
49658W        W21187   7.700  20.578  13.016
49659W        W21188   4.300  34.597   2.322
49660W        W21189  23.461   4.239  11.582
49661W        W21190   7.557  12.400   2.445
49662W        W21191  15.116  10.097  13.839
49663W        W21192  32.386  10.065   1.587
49664W        W21193  44.203  40.349   1.336
49665W        W21194  15.274   5.867   3.230
49666W        W21195   3.807  11.063  14.862
49667W        W21196  35.460  20.382   1.758
49668W        W21197   9.915  16.285  14.908
49669W        W21198   0.391  39.815  14.896
49670W        W21199  10.214  18.380   3.275
49671W        W21200  17.649  17.877  12.430
49672W        W21201  10.745  39.972   4.228
49673W        W21202  39.068   3.322  12.444
49674W        W21203  26.350   7.060   3.385
49675W        W21204  40.321   9.157   0.453
49676W        W21205  17.098  34.862  12.944
49677W        W21206   7.890  43.455  14.813
49678W        W21207  17.972  13.350  12.565
49679W        W21208   8.096  10.219   0.556
49680W        W21209  16.707  44.398  13.311
49681W        W21210  22.589  42.554  13.605
49682W        W21211  33.506  21.058  10.837
49683W        W21212  21.688   7.114  11.526
49684W        W21213  29.197  32.457  13.509
49685W        W21214   3.784  41.013   2.306
49686W        W21215  25.426  32.475  11.532
49687W        W21216   4.379   1.450   2.827
49688W        W21217  36.469  17.540   1.711
49689W        W21218  12.438  42.404  10.745
49690W        W21219  20.791  30.185   0.076
49691W        W21220  38.427  17.765   1.104
49692W        W21221  26.765  27.678  10.433
49693W        W21222  44.936   7.020  13.562
49694W        W21223  19.602  18.183   0.707
49695W        W21224  32.042  14.040  14.959
49696W        W21225  17.185  19.198  13.818
49697W        W21226   2.351  34.075  14.508
49698W        W21227  35.055  39.433  13.946
49699W        W21228  29.866  16.142  11.474
49700W        W21229  34.129  10.723  13.049
49701W        W21230   0.509   8.699   3.233
49702W        W21231   7.434   5.237  11.210
49703W        W21232   9.363   9.093   3.622
49704W        W21233  26.245  10.340   0.763
49705W        W21234  22.143  17.356  11.937
49706W        W21235  35.102  43.347  12.352
49707W        W21236   4.232  19.298  13.844
49708W        W21237  25.049   0.477  12.801
49709W        W21238   8.646   9.723   2.560
49710W        W21239   6.980  37.145  14.015
49711W        W21240  39.843   6.711   3.212
49712W        W21241  44.565   6.639  12.655
49713W        W21242  11.538  34.878  13.056
49714W        W21243  28.179   6.470   3.065
49715W        W21244  25.074  33.483  10.734
49716W        W21245  26.690  25.030  11.519
49717W        W21246  41.373  44.950   0.317
49718W        W21247  42.489  37.797   1.835
49719W        W21248  17.320  10.267   1.193
49720W        W21249  15.443  14.647   1.254
49721W        W21250  11.824   3.021  14.983
49722W        W21251   5.954  38.258  11.721
49723W        W21252   8.011  10.145   4.458
49724W        W21253  10.450  21.864   3.191
49725W        W21254   0.903  41.550  10.973
49726W        W21255  25.508   1.031  13.370
49727W        W21256  16.197  25.159  14.494
49728W        W21257  22.852  33.630   0.776
49729W        W21258  28.149  44.300  14.844
49730W        W21259  37.147  42.863  13.285
49731W        W21260  34.758  35.796   1.741
49732W        W21261  38.126  14.753  14.950
49733W        W21262  14.744  11.770   2.763
49734W        W21263   9.751   3.832  14.461
49735W        W21264  24.035  31.947  14.052
49736W        W21265  19.787  36.622  13.988
49737W        W21266   5.647   8.130   1.839
49738W        W21267  25.130  36.049  14.177
49739W        W21268  16.652  20.002  10.996
49740W        W21269  39.594  15.611   3.453
49741W        W21270  39.245  25.414   1.192
49742W        W21271  28.396  10.727   0.536
49743W        W21272  20.902  19.643  13.825
49744W        W21273  12.212   7.165   1.276
49745W        W21274  20.146   9.440   3.221
49746W        W21275  25.775  29.755  14.882
49747W        W21276  37.513  36.027   2.733
49748W        W21277  20.209  16.783  12.827
49749W        W21278  26.721  34.302   3.056
49750W        W21279  36.580  22.799   1.230
49751W        W21280  35.712   7.857   3.576
49752W        W21281  44.343  26.993   2.468
49753W        W21282  20.260  17.051   3.672
49754W        W21283  37.493  25.742   1.501
49755W        W21284  34.648  20.656  14.057
49756W        W21285  17.160  28.515  14.370
49757W        W21286   5.379  19.957  12.394
49758W        W21287   5.535  20.500   2.425
49759W        W21288  21.548  43.611   3.668
49760W        W21289  17.632   7.715  14.784
49761W        W21290  28.027  39.382   3.694
49762W        W21291   6.181  44.995   4.760
49763W        W21292  33.056  31.144   1.727
49764W        W21293  26.973   9.372  10.673
49765W        W21294   1.465   7.003   4.488
49766W        W21295   1.849  39.260   4.940
49767W        W21296  40.932  20.116  14.745
49768W        W21297  15.990  15.832   1.943
49769W        W21298  32.307  11.844  13.063
49770W        W21299  11.170   7.966  12.232
49771W        W21300  38.584  17.782  12.208
49772W        W21301   5.485  24.634   3.823
49773W        W21302  26.867  34.692   1.042
49774W        W21303  37.853  31.988  13.868
49775W        W21304   2.834  38.070   4.747
49776W        W21305   4.084  44.494  13.595
49777W        W21306  17.241   5.786  13.377
49778W        W21307  28.195   7.439  11.943
49779W        W21308  34.207  32.047   0.713
49780W        W21309  26.127   1.311   1.853
49781W        W21310  31.781  10.375  11.609
49782W        W21311  39.389  38.270   3.285
49783W        W21312  44.443  32.521  13.894
49784W        W21313   2.796  12.260  11.580
49785W        W21314  12.821   3.969  12.593
49786W        W21315  13.224   5.625   2.721
49787W        W21316  14.785   7.497   3.170
49788W        W21317   3.379  34.427  12.664
49789W        W21318  18.012  16.965   1.400
49790W        W21319   7.713  33.365   1.717
49791W        W21320  25.790  34.658  12.517
49792W        W21321  11.535  17.297  14.960
49793W        W21322  38.738   7.040   5.042
49794W        W21323   1.641  13.100   1.160
49795W        W21324   9.897  14.061   4.137
49796W        W21325   8.443  42.804  13.204
49797W        W21326  23.076  30.474  11.179
49798W        W21327  16.703   3.703  11.484
49799W        W21328  33.043  24.511   1.771
49800W        W21329  32.103  32.264   1.547
49801W        W21330  19.971   2.308  10.609
49802W        W21331  40.781   3.514   4.165
49803W        W21332  19.542  44.765  12.371
49804W        W21333  28.079  23.477   2.878
49805W        W21334   9.886  25.231  11.025
49806W        W21335  37.023  21.362  13.804
49807W        W21336   5.673  19.128   1.680
49808W        W21337   2.581   4.524  14.450
49809W        W21338  20.898  38.478   9.827
49810W        W21339  12.764  20.134  14.100
49811W        W21340  31.848  34.831  11.591
49812W        W21341  11.543  24.544  11.176
49813W        W21342   8.091  26.749   0.539
49814W        W21343  43.277  12.616   3.205
49815W        W21344   2.325  15.858   1.866
49816W        W21345  20.576  26.934  14.941
49817W        W21346   8.438  16.595   4.671
49818W        W21347  10.719  23.038   1.000
49819W        W21348  10.801   8.825  11.920
49820W        W21349  19.318  32.560  12.197
49821W        W21350  15.737   4.815  13.082
49822W        W21351   8.261  32.158   4.405
49823W        W21352  13.044  12.371   3.712
49824W        W21353  34.640  11.702   0.661
49825W        W21354  16.413  27.651  10.266
49826W        W21355   3.748  31.395   3.321
49827W        W21356   5.788  16.655   3.632
49828W        W21357  11.256   8.292   3.225
49829W        W21358  37.531  28.061  10.732
49830W        W21359  19.544  34.849  12.839
49831W        W21360  37.367  14.178   1.404
49832W        W21361   8.399  17.113   0.083
49833W        W21362  21.537  22.986  14.281
49834W        W21363  32.083  10.859   1.888
49835W        W21364   1.220  32.557  13.851
49836W        W21365  15.349  26.949  14.923
49837W        W21366  31.728   6.827   0.895
49838W        W21367  16.310  34.732   3.541
49839W        W21368  16.660  16.298   4.622
49840W        W21369   0.519  44.192  12.541
49841W        W21370   8.498  24.740   2.779
49842W        W21371  32.740   1.312   2.886
49843W        W21372   8.354  17.907   4.232
49844W        W21373  42.356  34.428  14.771
49845W        W21374  13.248  20.987   1.826
49846W        W21375   4.437   7.647   2.745
49847W        W21376   8.400  34.374  14.434
49848W        W21377  15.287  20.965  13.051
49849W        W21378  27.354  34.512   0.882
49850W        W21379  30.922  15.186   0.804
49851W        W21380  39.808  44.931   3.026
49852W        W21381  27.237  43.062  12.257
49853W        W21382  42.969  15.140  13.387
49854W        W21383  15.804  21.268  13.067
49855W        W21384  23.583  10.552  11.822
49856W        W21385   4.359  28.197  12.963
49857W        W21386  30.146  11.267   2.188
49858W        W21387  16.518  41.345   3.612
49859W        W21388  13.557   5.644  14.260
49860W        W21389  36.931  44.239   4.678
49861W        W21390  34.053  26.723  11.341
49862W        W21391   6.180  25.336   4.638
49863W        W21392   0.969  39.499  10.696
49864W        W21393  20.880  21.671   0.202
49865W        W21394  36.503  22.830  13.322
49866W        W21395  18.152  23.863  12.902
49867W        W21396  30.423  41.404  13.935
49868W        W21397  27.106  41.875  11.641
49869W        W21398  12.060  36.552  11.236
49870W        W21399  43.210  15.003  14.412
49871W        W21400  15.084  29.576   2.665
49872W        W21401  12.665  39.063  14.931
49873W        W21402  31.971  28.709   3.692
49874W        W21403  30.558  13.704   2.955
49875W        W21404  36.640  25.271   2.735
49876W        W21405  36.666  44.305  11.507
49877W        W21406  14.678   8.124   1.728
49878W        W21407   7.685   1.876  13.644
49879W        W21408  26.296   0.340  13.076
49880W        W21409   3.490   6.524   0.996
49881W        W21410  34.540  10.133  11.189
49882W        W21411  17.324  39.216   2.374
49883W        W21412  14.193  26.987  13.897
49884W        W21413  34.848  44.556   2.284
49885W        W21414  36.971  35.332  14.731
49886W        W21415   9.140  11.276   3.234
49887W        W21416  12.682   5.646   2.676
49888W        W21417  24.679  17.312  10.746
49889W        W21418  28.709   0.953   0.497
49890W        W21419   8.326   1.282   1.276
49891W        W21420  35.633  15.289   0.976
49892W        W21421  17.538  13.175   4.233
49893W        W21422  20.239  26.946  11.885
49894W        W21423  24.403  30.553   2.725
49895W        W21424  27.129  40.536   1.989
49896W        W21425  12.639  40.554   0.935
49897W        W21426  42.701  36.774   4.164
49898W        W21427  26.745   3.335   4.991
49899W        W21428  15.428  15.529  14.144
49900W        W21429   2.269  24.890   2.906
49901W        W21430  44.418  14.003  10.443
49902W        W21431  10.343  10.603   2.739
49903W        W21432   6.929  19.731   4.045
49904W        W21433  14.690  12.915  13.602
49905W        W21434  28.528  21.770  13.622
49906W        W21435  22.736  37.008   3.236
49907W        W21436  44.135   6.317   1.389
49908W        W21437   8.196   2.236   0.265
49909W        W21438  11.673   2.299   4.586
49910W        W21439  12.604  13.965   1.057
49911W        W21440  24.183   7.643  10.887
49912W        W21441  15.744  29.122   2.716
49913W        W21442  21.186  16.863   4.089
49914W        W21443  21.359  15.355  12.661
49915W        W21444  34.126  43.717  13.277
49916W        W21445  29.637  41.071  11.631
49917W        W21446   3.951  32.414   1.280
49918W        W21447  24.326   3.211  12.945
49919W        W21448  42.573  20.676  11.851
49920W        W21449  29.164   0.795   4.498
49921W        W21450  16.221  11.985   1.754
49922W        W21451  21.069   6.787  11.271
49923W        W21452  34.208  16.338  11.090
49924W        W21453  30.562  31.356   2.814
49925W        W21454   7.181  29.868   0.440
49926W        W21455  18.092  38.168   3.322
49927W        W21456  17.344  41.015   0.367
49928W        W21457   2.541   3.240  13.095
49929W        W21458  34.521  17.363  11.202
49930W        W21459   8.684  11.538   3.200
49931W        W21460  33.533  36.106  12.532
49932W        W21461  15.212  29.862  14.701
49933W        W21462  20.280  26.051   0.520
49934W        W21463  37.492  39.048  14.436
49935W        W21464  15.735   8.260  12.866
49936W        W21465  31.513   8.365   4.190
49937W        W21466  13.344   3.413  10.274
49938W        W21467  18.745  16.546  11.707
49939W        W21468  14.196   3.378   1.918
49940W        W21469  31.426  22.001  11.173
49941W        W21470  27.456  29.403  12.101
49942W        W21471  15.315  15.512  11.569
49943W        W21472  39.218  11.159   3.223
49944W        W21473  32.513   5.210   1.879
49945W        W21474   3.232  43.559  12.769
49946W        W21475   6.873  28.725   0.705
49947W        W21476   8.190   1.359  13.799
49948W        W21477  33.620  35.592  11.663
49949W        W21478  16.793   1.691   1.354
49950W        W21479  22.061  36.295   3.188
49951W        W21480   4.125  29.973   0.774
49952W        W21481  39.107  40.310  14.346
49953W        W21482  10.421  10.613  14.384
49954W        W21483  30.378  11.566  14.354
49955W        W21484  12.991  26.892  11.155
49956W        W21485  14.623  28.174   3.731
49957W        W21486  35.928   0.503   3.621
49958W        W21487  12.708  28.890   2.903
49959W        W21488  20.916  44.755   4.430
49960W        W21489  19.213  34.991   3.222
49961W        W21490  43.953  17.676  10.751
49962W        W21491   0.168  40.947   0.827
49963W        W21492  10.198   1.427   1.692
49964W        W21493  16.574  43.677   4.550
49965W        W21494   1.338  15.546  14.288
49966W        W21495  14.854  42.668  10.674
49967W        W21496  34.069  21.077  14.982
49968W        W21497  33.714  17.664  13.369
49969W        W21498   7.365  36.385  13.694
49970W        W21499  15.301   9.268  11.928
49971W        W21500  40.438   8.492  11.359
49972W        W21501  31.683  27.056  13.372
49973W        W21502   6.858   3.940   3.215
49974W        W21503  19.245  33.091   0.710
49975W        W21504   2.761  24.134  11.674
49976W        W21505  19.184  27.082   0.800
49977W        W21506   0.887  41.070  10.732
49978W        W21507  12.284   2.791  14.819
49979W        W21508  24.294   2.780  10.750
49980W        W21509  39.376  33.130   2.664
49981W        W21510   0.432  28.086  13.098
49982W        W21511  18.916  10.814   3.777
49983W        W21512  27.079  24.503  13.981
49984W        W21513   6.708  41.180  13.440
49985W        W21514  17.067   2.225   4.190
49986W        W21515   0.442  38.021   4.601
49987W        W21516  38.483  41.382  14.569
49988W        W21517  28.197  44.339  10.746
49989W        W21518  13.476   7.770   5.071
49990W        W21519  18.555  19.568  14.428
49991W        W21520  27.712   3.819   0.972
49992W        W21521  13.878  40.831   3.623
49993W        W21522  19.574  12.800  14.984
49994W        W21523  20.244   7.199  14.834
49995W        W21524  38.931  38.759  14.425
49996W        W21525  34.663  17.064   4.371
49997W        W21526   6.869  43.910   0.701
49998W        W21527   2.801  19.583  14.275
49999W        W21528   5.507  24.154   1.351
50000W        W21529  20.837  43.907  13.436
50001W        W21530  25.762  42.392  12.435
50002W        W21531  29.648   3.727  11.135
50003W        W21532   8.154  33.257   2.503
50004W        W21533  42.240  21.545   1.459
50005W        W21534   0.820   9.228  10.695
50006W        W21535  28.660   3.636  11.636
50007W        W21536  31.724  15.959  12.543
50008W        W21537  36.856  33.883   3.291
50009W        W21538  13.391  25.324   2.707
50010W        W21539  17.007   0.571   0.340
50011W        W21540  34.857  33.631  12.053
50012W        W21541  28.054  29.511   2.251
50013W        W21542   8.762  43.505  14.914
50014W        W21543   9.097  38.913  14.436
50015W        W21544  21.558   6.234   4.553
50016W        W21545  35.337  30.567  11.545
50017W        W21546  20.523  16.553  14.431
50018W        W21547  27.745  16.274  10.207
50019W        W21548  26.227  39.076   2.210
50020W        W21549  29.077  41.921   3.574
50021W        W21550   4.631  39.482  13.864
50022W        W21551  35.312  34.078   2.802
50023W        W21552  35.391  31.586   4.343
50024W        W21553  30.593  12.571  13.439
50025W        W21554  44.317  28.525  14.016
50026W        W21555  41.522   9.000   1.370
50027W        W21556  29.190  12.849   1.356
50028W        W21557  21.045  19.337   0.161
50029W        W21558  31.624  35.476   1.387
50030W        W21559  22.300   3.513  12.834
50031W        W21560  35.550  32.442   3.273
50032W        W21561   9.836   3.926   1.233
50033W        W21562  20.898  33.321  12.198
50034W        W21563   3.951  11.590   4.686
50035W        W21564  20.352   7.427   1.280
50036W        W21565   3.149  37.091   3.347
50037W        W21566  30.229  22.088  14.831
50038W        W21567   0.561  23.218  11.026
50039W        W21568   5.499  41.215   0.108
50040W        W21569  41.654  26.163  14.957
50041W        W21570  37.301  25.116   2.113
50042W        W21571  14.146   7.409   2.916
50043W        W21572  35.751  28.602   3.722
50044W        W21573  42.908  20.487   2.667
50045W        W21574  41.097  19.606  14.789
50046W        W21575  14.997   0.577  14.428
50047W        W21576  35.496  28.410   0.893
50048W        W21577   9.387  18.334   3.628
50049W        W21578  19.487  24.191   4.527
50050W        W21579  20.166  25.945   1.867
50051W        W21580  43.327  10.723   4.145
50052W        W21581  12.129  28.329  14.482
50053W        W21582  10.927  23.675   1.153
50054W        W21583  15.628  38.193  11.851
50055W        W21584   3.468  30.376  10.561
50056W        W21585  19.810  24.504  14.459
50057W        W21586  18.281   6.960  10.528
50058W        W21587  44.837  21.936   2.446
50059W        W21588  24.761  13.594  14.578
50060W        W21589   6.935   2.521  10.678
50061W        W21590  12.714   3.233  11.925
50062W        W21591  21.812  10.453  11.248
50063W        W21592  44.134   8.671   2.813
50064W        W21593  10.914   6.934  13.469
50065W        W21594  43.531  20.564  11.101
50066W        W21595  27.558  38.056  14.405
50067W        W21596  22.178  33.482   1.689
50068W        W21597  33.526   4.028  11.861
50069W        W21598   7.383  21.493   1.709
50070W        W21599  37.260  32.559   4.083
50071W        W21600  36.987  25.451  12.905
50072W        W21601  23.125   0.437   3.634
50073W        W21602  32.208  40.508   2.829
50074W        W21603  24.477   8.701   4.781
50075W        W21604  43.816  10.665   3.299
50076W        W21605   5.905  31.543   4.151
50077W        W21606  25.147  44.551  12.526
50078W        W21607   2.482  40.551   4.313
50079W        W21608  32.214  44.710  13.980
50080W        W21609  39.862   3.915   4.559
50081W        W21610  13.415  41.915  12.909
50082W        W21611  16.358  41.355  10.825
50083W        W21612  23.078  36.004  11.427
50084W        W21613  41.784  43.689  14.190
50085W        W21614  11.203  39.947   1.379
50086W        W21615  38.550  41.861  14.767
50087W        W21616  12.885  34.993  11.262
50088W        W21617  12.261  23.058   1.679
50089W        W21618  42.185  37.470   4.145
50090W        W21619   2.174  25.087   2.335
50091W        W21620  20.549  29.386   0.301
50092W        W21621  15.785  11.095   3.248
50093W        W21622  10.201  24.230  11.964
50094W        W21623  23.930  11.849  12.457
50095W        W21624  21.147  18.552  12.475
50096W        W21625  15.258  14.613  14.362
50097W        W21626  12.709   8.370   0.296
50098W        W21627  34.559  34.675   2.410
50099W        W21628  25.791  38.145  12.051
50100W        W21629  15.218  16.280  13.949
50101W        W21630  25.938   2.406   0.947
50102W        W21631  22.558  12.487  12.423
50103W        W21632  15.883  38.280   4.496
50104W        W21633   8.927  19.690  12.993
50105W        W21634  23.011  26.966  14.918
50106W        W21635  33.409  37.872  13.482
50107W        W21636   5.925  10.103  11.065
50108W        W21637   5.304  44.949  14.088
50109W        W21638  20.879  42.999   2.439
50110W        W21639  15.829   2.210  13.811
50111W        W21640   4.231  11.594   2.812
50112W        W21641  24.111  34.876   1.799
50113W        W21642   3.769  20.266   0.517
50114W        W21643  16.113  21.403   3.616
50115W        W21644  17.641   5.815   2.086
50116W        W21645  41.573   5.893   0.814
50117W        W21646  12.389  22.022  14.007
50118W        W21647  11.385  41.764   4.079
50119W        W21648  30.709  31.365  12.019
50120W        W21649   4.516   7.758  14.700
50121W        W21650  20.050  25.269  12.935
50122W        W21651   5.883   9.367   0.765
50123W        W21652  33.250  40.880   0.483
50124W        W21653   8.287   0.460   2.647
50125W        W21654  18.107  42.491  11.474
50126W        W21655  30.984  27.640  14.252
50127W        W21656  26.236  41.327  11.093
50128W        W21657   9.244  29.532   4.469
50129W        W21658   1.983  14.203  14.377
50130W        W21659  40.049  21.153  12.447
50131W        W21660   5.720  31.605  12.386
50132W        W21661   3.635  40.108  12.922
50133W        W21662   0.418  35.597   1.919
50134W        W21663  43.899  40.829  13.131
50135W        W21664  26.595   9.584   1.370
50136W        W21665  41.701  23.486  14.902
50137W        W21666   2.634  39.036  10.239
50138W        W21667  27.593  15.398  11.182
50139W        W21668  22.957  41.807  12.622
50140W        W21669   0.312   7.575  13.649
50141W        W21670   0.242  40.525   2.115
50142W        W21671  33.096  27.520   1.788
50143W        W21672  13.357  21.072   2.350
50144W        W21673   9.737  21.358  11.548
50145W        W21674  35.259  28.999  13.507
50146W        W21675  28.545  14.376  12.959
50147W        W21676   5.803  10.332   4.310
50148W        W21677  22.085  10.769  11.681
50149W        W21678  38.366   8.369   4.354
50150W        W21679  36.994  36.258  12.518
50151W        W21680  38.822  29.075  14.439
50152W        W21681  21.767  31.991   4.958
50153W        W21682  19.551  15.052  13.313
50154W        W21683   5.621  22.688  13.991
50155W        W21684   9.254  34.469  11.164
50156W        W21685  22.077   3.988   2.166
50157W        W21686  40.770  34.759  13.657
50158W        W21687  35.092  33.597   0.387
50159W        W21688   3.342  22.555   3.269
50160W        W21689  15.864  14.633  13.314
50161W        W21690  18.176  39.778   1.065
50162W        W21691  21.650  38.616  11.924
50163W        W21692  13.555   7.149  10.329
50164W        W21693  42.975  39.050  14.076
50165W        W21694   2.734  18.760   3.604
50166W        W21695  41.643  23.970  13.023
50167W        W21696  26.465  21.892  10.857
50168W        W21697  27.600  38.588  14.458
50169W        W21698  16.491  30.072   4.294
50170W        W21699  37.430  23.212  13.289
50171W        W21700  14.591  19.801  10.681
50172W        W21701  15.588  14.674  11.827
50173W        W21702  20.102  35.556   4.975
50174W        W21703  36.462  31.683   3.193
50175W        W21704   0.041   8.442  11.199
50176W        W21705  12.958  14.298   2.753
50177W        W21706  39.972  44.902   0.042
50178W        W21707   0.235  28.132   1.480
50179W        W21708   7.597  15.248   4.758
50180W        W21709  40.639   4.276   2.449
50181W        W21710  41.030  23.761  11.642
50182W        W21711  30.380   7.885   0.895
50183W        W21712  16.534  39.985   0.476
50184W        W21713   2.198  16.114   0.296
50185W        W21714  11.490  33.249  11.686
50186W        W21715  33.840  35.420  13.360
50187W        W21716  21.008  15.481  11.713
50188W        W21717  18.732  23.375   1.538
50189W        W21718  17.208  37.810  10.025
50190W        W21719  18.637  18.781  11.661
50191W        W21720  34.528  13.585   2.270
50192W        W21721  15.780  42.608   0.201
50193W        W21722  40.921  14.550  10.699
50194W        W21723  41.858  44.546  11.189
50195W        W21724  24.784  41.530  14.570
50196W        W21725  43.522  15.744   1.216
50197W        W21726  29.065  39.873  11.547
50198W        W21727  39.177  24.077  13.889
50199W        W21728  30.219  36.162  11.120
50200W        W21729  29.998   5.255   0.059
50201W        W21730  14.152  26.868   1.131
50202W        W21731  35.402  20.647   1.280
50203W        W21732  42.435  19.147  11.217
50204W        W21733  15.387  23.128   3.134
50205W        W21734   9.515  32.178   0.152
50206W        W21735  35.493  19.577  14.302
50207W        W21736  11.619  19.068   3.894
50208W        W21737  40.281  26.829   2.641
50209W        W21738  39.436  13.614   0.414
50210W        W21739   3.787  28.977  12.123
50211W        W21740  32.121  23.752   4.198
50212W        W21741  38.109  11.552  13.990
50213W        W21742  30.591  22.121  12.515
50214W        W21743  21.511   4.514  10.835
50215W        W21744  40.485   9.132   2.749
50216W        W21745  17.682   2.706   4.825
50217W        W21746  26.241  33.403   4.078
50218W        W21747   2.334  20.479   4.896
50219W        W21748  32.608  30.566   1.250
50220W        W21749  17.562  20.774  12.214
50221W        W21750  44.761  18.674  10.563
50222W        W21751  15.609   1.926  14.558
50223W        W21752  38.028   5.002   4.171
50224W        W21753   8.371  43.459  14.534
50225W        W21754  26.607  31.883   3.199
50226W        W21755  17.056   1.591   5.136
50227W        W21756   8.760  29.304  10.475
50228W        W21757  40.902  20.030   2.725
50229W        W21758   3.881  19.061  11.997
50230W        W21759  11.670   8.718  10.298
50231W        W21760  30.533  12.135  14.457
50232W        W21761  17.608   5.989  12.551
50233W        W21762  19.809  20.021  13.303
50234W        W21763  11.291  23.565   2.764
50235W        W21764  13.604  17.874  11.968
50236W        W21765  23.483  15.749  12.683
50237W        W21766  23.235   7.374   2.905
50238W        W21767  33.821   5.210  11.590
50239W        W21768  15.008  25.244   2.216
50240W        W21769  15.625   8.286   3.573
50241W        W21770  27.450  34.830  12.436
50242W        W21771  38.748  19.185   1.882
50243W        W21772  39.401  11.572   0.984
50244W        W21773  13.317  31.666  12.182
50245W        W21774  29.569   3.921  10.651
50246W        W21775  43.305   7.483  14.938
50247W        W21776  29.956  29.899   1.387
50248W        W21777  23.728  36.678  14.529
50249W        W21778  28.164  38.391  11.271
50250W        W21779  24.283  41.528  11.666
50251W        W21780   8.774  21.460  11.496
50252W        W21781  28.121  14.351   0.340
50253W        W21782  16.612   9.712   3.477
50254W        W21783  30.215  29.900   4.818
50255W        W21784  41.595  19.187   3.817
50256W        W21785   4.645  19.588  12.073
50257W        W21786  27.290  21.604  12.526
50258W        W21787  28.839  11.666  13.838
50259W        W21788   2.992  42.809  12.956
50260W        W21789   5.937  29.475   3.373
50261W        W21790   4.941  30.929   1.976
50262W        W21791   6.992  42.692   1.865
50263W        W21792   1.319  33.527   0.652
50264W        W21793  24.476  41.260  13.822
50265W        W21794  14.773  34.143  10.595
50266W        W21795  18.997  19.474  14.744
50267W        W21796  33.497  24.547  10.921
50268W        W21797   1.943  17.723   2.355
50269W        W21798  10.033  28.939   4.193
50270W        W21799  21.923  30.985   1.788
50271W        W21800  22.580  22.600  11.173
50272W        W21801  38.894  37.136  11.311
50273W        W21802   1.740  19.645   2.438
50274W        W21803  42.547  39.870   3.712
50275W        W21804  34.559   0.628  11.740
50276W        W21805  18.499   5.873  13.916
50277W        W21806  11.753  14.889   0.853
50278W        W21807  31.334  37.086  11.199
50279W        W21808  28.268  43.819   0.395
50280W        W21809  33.787  25.966  13.836
50281W        W21810  18.995  30.645  13.260
50282W        W21811  33.678  40.778   0.846
50283W        W21812   0.657   4.947   1.807
50284W        W21813   6.019  24.199   1.313
50285W        W21814  18.081  30.566   2.025
50286W        W21815  36.022   8.114  11.113
50287W        W21816  24.243  13.566  12.007
50288W        W21817  16.970  19.933   4.056
50289W        W21818  13.167   3.938   2.323
50290W        W21819   1.488   7.690   1.282
50291W        W21820  43.949   4.091  13.987
50292W        W21821  25.692  36.381  13.855
50293W        W21822  36.233  12.245  11.624
50294W        W21823  10.098  30.842  11.540
50295W        W21824  13.243  43.993  10.443
50296W        W21825  34.886  19.085  12.171
50297W        W21826  22.248  10.397   3.620
50298W        W21827  35.480  29.787   3.043
50299W        W21828  31.431  26.146  14.979
50300W        W21829  32.140  16.193   4.419
50301W        W21830  40.117  38.000   3.205
50302W        W21831  25.253  36.269   4.893
50303W        W21832   8.336  40.372  11.103
50304W        W21833  37.965  34.074   0.306
50305W        W21834  15.308  24.611  10.730
50306W        W21835   3.661  31.575   1.223
50307W        W21836   0.162  35.192   4.296
50308W        W21837  19.001  43.317   3.946
50309W        W21838   3.371  23.249  12.463
50310W        W21839  34.828  21.121   4.540
50311W        W21840  39.539  35.881  13.870
50312W        W21841  41.449  21.308  13.003
50313W        W21842   8.469  13.985  10.093
50314W        W21843  26.995   5.915   4.645
50315W        W21844  24.796  13.398  11.065
50316W        W21845  30.894  40.294  13.577
50317W        W21846  39.883  31.778  11.192
50318W        W21847  42.327  29.089   3.236
50319W        W21848   6.599  23.542  13.362
50320W        W21849  12.930  33.098   4.813
50321W        W21850   0.411  40.962   3.652
50322W        W21851  23.662   6.301   2.783
50323W        W21852   8.661  30.504   2.751
50324W        W21853  30.377   2.768  13.381
50325W        W21854  38.038  26.775  14.892
50326W        W21855  14.787   6.137  13.205
50327W        W21856   1.483  11.451  14.344
50328W        W21857  29.939  14.547  14.460
50329W        W21858   2.784   9.789   1.408
50330W        W21859  27.462  13.644  11.414
50331W        W21860   6.305  30.141  13.850
50332W        W21861   2.215  42.323  11.223
50333W        W21862  12.704  22.258  12.525
50334W        W21863  21.152  11.703   0.949
50335W        W21864  24.219  13.423   3.618
50336W        W21865  13.225  35.089  14.726
50337W        W21866   1.543  37.067   1.354
50338W        W21867   2.194   4.480  12.986
50339W        W21868   3.912   6.670   3.611
50340W        W21869  26.227  17.601   3.031
50341W        W21870  14.115  29.713   3.238
50342W        W21871  12.589   9.477  10.582
50343W        W21872  31.644  31.982   1.636
50344W        W21873  36.321  40.880  11.523
50345W        W21874   0.439  32.626   0.376
50346W        W21875  31.049  41.873   4.157
50347W        W21876  29.980   0.484   0.582
50348W        W21877  33.176  11.257   4.167
50349W        W21878  14.505   0.859   1.863
50350W        W21879  35.006   7.424   1.774
50351W        W21880   7.181   6.682  14.222
50352W        W21881  27.000  16.307  11.589
50353W        W21882   5.396  34.513   4.410
50354W        W21883  16.858  28.178   3.371
50355W        W21884   5.671   0.873  11.986
50356W        W21885  19.094  15.183  13.523
50357W        W21886  20.446  25.705   1.478
50358W        W21887  37.485  14.842   3.330
50359W        W21888  42.538   6.660  10.809
50360W        W21889  23.439  30.113  13.008
50361W        W21890  11.322  31.968   2.603
50362W        W21891   8.753  13.397   0.505
50363W        W21892  10.777   3.969  14.924
50364W        W21893  15.891  40.714   2.145
50365W        W21894   5.900   4.377  11.966
50366W        W21895   6.764  18.328  13.033
50367W        W21896  41.214  22.961   0.785
50368W        W21897  29.473  30.993   3.691
50369W        W21898  13.210   3.216   1.012
50370W        W21899   5.021  29.188  14.857
50371W        W21900   3.886  14.123  11.729
50372W        W21901  10.606  21.116   3.554
50373W        W21902   4.567  16.607  11.085
50374W        W21903  24.119   6.257  10.651
50375W        W21904   3.584  37.690   0.840
50376W        W21905  43.804  30.908  12.951
50377W        W21906  41.292  11.631  12.929
50378W        W21907  19.069  32.335   3.511
50379W        W21908  32.861   1.567   0.643
50380W        W21909  27.947  17.195   2.823
50381W        W21910  36.410  39.741   4.807
50382W        W21911  27.540  20.609  12.894
50383W        W21912  23.509  19.112  13.472
50384W        W21913  10.330  26.105   3.254
50385W        W21914  17.196  27.197  13.349
50386W        W21915  38.532  39.020   3.590
50387W        W21916  21.535  20.970   1.378
50388W        W21917  12.252  32.416  13.079
50389W        W21918  16.644   6.501   2.166
50390W        W21919   0.375  42.718   3.146
50391W        W21920  12.829  27.744  11.029
50392W        W21921  15.548  22.536  14.419
50393W        W21922  19.096  42.761   2.780
50394W        W21923  24.158  37.063   3.950
50395W        W21924  21.189  35.470  11.651
50396W        W21925  43.362  35.451  14.925
50397W        W21926  35.441  34.612   1.905
50398W        W21927   6.205  31.627   1.402
50399W        W21928  21.778  17.211   1.397
50400W        W21929  16.929  20.193  11.397
50401W        W21930   3.137   0.034   3.686
50402W        W21931  34.650   0.183  14.830
50403W        W21932  27.393  10.817   2.404
50404W        W21933  29.898  42.956  12.473
50405W        W21934  16.832  32.073  12.574
50406W        W21935  29.961  15.259  13.571
50407W        W21936  10.951   3.430   1.845
50408W        W21937  40.730  28.046   3.246
50409W        W21938  33.922  24.075   3.062
50410W        W21939  31.686  22.268  14.953
50411W        W21940  41.365  41.768  12.607
50412W        W21941  34.056   2.477  14.441
50413W        W21942   2.910  11.098   0.032
50414W        W21943  22.204  17.689  13.314
50415W        W21944  21.066  29.151  10.085
50416W        W21945   2.175  40.102  13.095
50417W        W21946   0.924   1.995  12.604
50418W        W21947  32.104  18.092  13.392
50419W        W21948   6.176  12.342  11.161
50420W        W21949  19.674   2.723  14.202
50421W        W21950  27.899  16.737   2.194
50422W        W21951   8.617   4.804  13.922
50423W        W21952   4.126  33.136   0.052
50424W        W21953   5.183  41.529  14.475
50425W        W21954  34.317  25.538  11.148
50426W        W21955  28.557  39.373   4.621
50427W        W21956  40.399   3.165   4.905
50428W        W21957  29.211  17.144  14.381
50429W        W21958  14.608   3.068  12.031
50430W        W21959   4.643  28.081   0.456
50431W        W21960   8.929  39.386  12.766
50432W        W21961  16.527  20.253   3.823
50433W        W21962   9.420  14.229  11.516
50434W        W21963   5.794   0.065   3.525
50435W        W21964   4.301  13.602   0.945
50436W        W21965  43.939   2.550  11.029
50437W        W21966   8.398  14.801  10.444
50438W        W21967  14.326  25.209  11.363
50439W        W21968  19.301  12.198  10.403
50440W        W21969  28.693  38.314  12.056
50441W        W21970  40.830   7.420   2.699
50442W        W21971  11.451   8.842  11.130
50443W        W21972  19.558  25.686   2.147
50444W        W21973  21.143   9.135   4.277
50445W        W21974  15.581  38.802   0.218
50446W        W21975  25.430  36.337   0.784
50447W        W21976  42.002   3.438  13.453
50448W        W21977   4.687  44.519  10.579
50449W        W21978   9.214  30.590  13.882
50450W        W21979  37.002  30.189  14.845
50451W        W21980  28.895  41.714   1.755
50452W        W21981  12.535   9.499  13.068
50453W        W21982  23.411  15.710   3.264
50454W        W21983  23.283  40.375   2.155
50455W        W21984   4.215  30.192   2.439
50456W        W21985  15.256  37.014  12.183
50457W        W21986  21.933   1.845   0.788
50458W        W21987   6.091   9.168  11.191
50459W        W21988  26.675  32.130   0.819
50460W        W21989  10.310  10.290   3.229
50461W        W21990  31.947  40.468   3.852
50462W        W21991   4.268  12.101   3.648
50463W        W21992  19.672  40.864  12.567
50464W        W21993  12.662  34.986   0.321
50465W        W21994   3.674  32.456   3.345
50466W        W21995  39.439   8.561  11.495
50467W        W21996  17.701  31.071  11.342
50468W        W21997  40.758  22.183   4.590
50469W        W21998  39.603   7.303  12.605
50470W        W21999   1.791  44.795  14.779
50471W        W22000  34.331  36.460   4.282
50472W        W22001  19.241   0.545   4.134
50473W        W22002   1.578  18.321  13.855
50474W        W22003  24.448  26.709  13.786
50475W        W22004  40.532  18.820  11.190
50476W        W22005   8.195  40.057   0.792
50477W        W22006  19.723   4.439  11.134
50478W        W22007  24.208   4.301   1.202
50479W        W22008  28.435  40.317   4.863
50480W        W22009  22.441   1.486  13.062
50481W        W22010  17.705   1.706   3.852
50482W        W22011   5.260  26.486   2.300
50483W        W22012  13.085  41.997   2.929
50484W        W22013  17.349  39.536  14.860
50485W        W22014  40.848  19.020  11.585
50486W        W22015  21.665  38.450   0.627
50487W        W22016  27.887  10.163  10.495
50488W        W22017   4.954  39.320   0.815
50489W        W22018  11.563   9.269  12.080
50490W        W22019  44.578  15.774  14.715
50491W        W22020   1.425   0.403  13.783
50492W        W22021   8.121   9.162  13.506
50493W        W22022   4.370   6.472   3.818
50494W        W22023   4.690   2.814  11.835
50495W        W22024  44.051   9.782  14.305
50496W        W22025  37.601  18.537   4.142
50497W        W22026  27.510  17.778  13.532
50498W        W22027  24.082  12.773   2.296
50499W        W22028  16.591   5.684   4.434
50500W        W22029   6.745  21.952   4.105
50501W        W22030  24.175   6.826   3.586
50502W        W22031  26.045  11.760  14.054
50503W        W22032  22.674   1.395  11.629
50504W        W22033  19.592   7.776   0.162
50505W        W22034  35.131  20.467  13.921
50506W        W22035  20.184  21.121   4.680
50507W        W22036   8.922  23.000   3.208
50508W        W22037   8.084  18.774  13.533
50509W        W22038  31.650  31.854   0.808
50510W        W22039  32.507  36.099   0.260
50511W        W22040  24.600  27.033  10.905
50512W        W22041  29.904  32.835   3.545
50513W        W22042   9.719   6.279  12.967
50514W        W22043   2.029  20.223   4.100
50515W        W22044  35.329  37.457   0.780
50516W        W22045   8.041   9.040   3.317
50517W        W22046  18.575  22.558  10.587
50518W        W22047  33.004  20.238  13.990
50519W        W22048   1.023  15.615   0.506
50520W        W22049  14.297   2.630  12.059
50521W        W22050  16.536  32.134   0.317
50522W        W22051  40.354  22.153  14.512
50523W        W22052  38.538  18.448  13.963
50524W        W22053  41.381  32.008  11.476
50525W        W22054   0.326  38.892   1.763
50526W        W22055  15.809   6.592   5.042
50527W        W22056   0.785   0.631  12.827
50528W        W22057   1.734   2.850   0.307
50529W        W22058  29.189   3.945   4.353
50530W        W22059   1.965  15.136   2.390
50531W        W22060  31.827  31.463  14.907
50532W        W22061  18.217  20.842   4.220
50533W        W22062   4.500  28.674  10.803
50534W        W22063  21.009  21.598   3.899
50535W        W22064   8.775   0.775   4.012
50536W        W22065  37.869   4.883   2.132
50537W        W22066  15.047   1.819  13.310
50538W        W22067  36.083  40.508  11.997
50539W        W22068  33.387  16.284  13.262
50540W        W22069  21.522   2.568   3.744
50541W        W22070  16.036  10.720   4.056
50542W        W22071  19.493  34.903   2.190
50543W        W22072   6.924  23.251   4.573
50544W        W22073  21.424  34.696   1.401
50545W        W22074   3.848   0.912  14.880
50546W        W22075  12.085  12.580   3.612
50547W        W22076  33.388  26.020   2.247
50548W        W22077  20.097  19.727   2.881
50549W        W22078   4.737  26.976   2.898
50550W        W22079  15.243  27.547  10.490
50551W        W22080  36.415  10.726   4.691
50552W        W22081  21.658  30.999  13.346
50553W        W22082  28.957  20.192  12.424
50554W        W22083   9.366  40.898  10.786
50555W        W22084  36.464  18.186   4.088
50556W        W22085   1.221   9.648   1.329
50557W        W22086  23.701  23.115  13.391
50558W        W22087  25.531  20.699  11.587
50559W        W22088  24.565  25.275   1.000
50560W        W22089  20.980  24.652   1.966
50561W        W22090  42.320  41.565  10.636
50562W        W22091   7.460  10.201   2.902
50563W        W22092  30.956  33.447  12.365
50564W        W22093  21.149  43.798  10.702
50565W        W22094  28.519  18.876   3.532
50566W        W22095  40.279  43.030   0.459
50567W        W22096   5.333  20.377   1.436
50568W        W22097  11.908  20.625   2.766
50569W        W22098  42.875  28.132   0.531
50570W        W22099  15.837  15.723  10.755
50571W        W22100  26.495  15.606  11.881
50572W        W22101  44.995   8.910   0.689
50573W        W22102  34.894  36.903  11.922
50574W        W22103  35.652  44.708   2.393
50575W        W22104   4.666   3.940  12.132
50576W        W22105  15.478  27.634  11.503
50577W        W22106  11.869  44.098   2.805
50578W        W22107  36.807  16.261  11.579
50579W        W22108  13.758  20.355   2.630
50580W        W22109  13.131  10.611   2.761
50581W        W22110  21.189  43.358   0.707
50582W        W22111  17.553  21.338   1.919
50583W        W22112   6.407  22.658  11.958
50584W        W22113  17.306   8.159   3.245
50585W        W22114  42.429  25.738  12.116
50586W        W22115  42.213  25.229   3.148
50587W        W22116   9.838  19.677   3.838
50588W        W22117  12.260   5.413  12.457
50589W        W22118  33.886  22.652   4.802
50590W        W22119  42.753   2.783  14.808
50591W        W22120  19.789   0.029  14.304
50592W        W22121  38.375   5.393   2.711
50593W        W22122  27.549  17.104   0.930
50594W        W22123   0.475  34.094   3.041
50595W        W22124  26.001   8.846  13.366
50596W        W22125  15.430   6.103  14.763
50597W        W22126  35.366  10.689   0.746
50598W        W22127  38.745  10.269   0.767
50599W        W22128  32.751  43.673   2.402
50600W        W22129  30.045  44.494   0.939
50601W        W22130   9.788  37.065  14.066
50602W        W22131   9.069  42.837   3.631
50603W        W22132  44.107  30.454   1.466
50604W        W22133  41.615  22.304  13.912
50605W        W22134   2.683  42.879   2.218
50606W        W22135  30.188   2.406   3.636
50607W        W22136   2.850  20.580  11.645
50608W        W22137  21.726   5.372   0.468
50609W        W22138  43.698   3.376   2.257
50610W        W22139  19.380   9.169   1.336
50611W        W22140  25.262  15.577  13.476
50612W        W22141  28.654  30.596  11.276
50613W        W22142  19.224  18.725  14.872
50614W        W22143  30.887  14.612  10.681
50615W        W22144  39.690  22.076  10.712
50616W        W22145  12.256  20.207  12.807
50617W        W22146  25.054  25.872  12.523
50618W        W22147   5.724  35.965  14.103
50619W        W22148   6.101  39.620  12.081
50620W        W22149  30.152  27.055  10.868
50621W        W22150  40.407  19.185  10.555
50622W        W22151  25.159  23.004  12.337
50623W        W22152  10.669  26.922   2.759
50624W        W22153  14.842  30.484  12.089
50625W        W22154  43.617  42.334   1.962
50626W        W22155  18.290   2.415   3.125
50627W        W22156  23.643   3.388   1.163
50628W        W22157  42.764   2.927   1.727
50629W        W22158  28.227  14.736  12.797
50630W        W22159  17.695  30.423   3.724
50631W        W22160  43.422   9.633  13.431
50632W        W22161  16.265  23.075   4.784
50633W        W22162   6.602  32.468   1.020
50634W        W22163   6.111  42.818  12.606
50635W        W22164  34.901  24.999   3.178
50636W        W22165  11.221  40.558  10.641
50637W        W22166  24.451   9.163   4.164
50638W        W22167  43.577  19.476  13.425
50639W        W22168   6.978  33.381   0.407
50640W        W22169  39.233  36.760   2.342
50641W        W22170  14.716  22.130   2.841
50642W        W22171  39.465  13.061   1.731
50643W        W22172   7.188  32.943   2.348
50644W        W22173  33.433  42.251  11.880
50645W        W22174  13.244   3.594   4.859
50646W        W22175   3.933   5.150  11.588
50647W        W22176  23.782   0.167  14.731
50648W        W22177  42.848   5.454   4.511
50649W        W22178   6.779   2.926   0.210
50650W        W22179   3.868  25.441   2.791
50651W        W22180   8.256  32.503   3.149
50652W        W22181  23.618  33.092  13.587
50653W        W22182  25.058  44.942   2.604
50654W        W22183  17.838  40.558  11.977
50655W        W22184  21.094  21.783  13.868
50656W        W22185  18.750  25.041  11.520
50657W        W22186  35.868  19.335   0.872
50658W        W22187  22.351  22.973  13.623
50659W        W22188  19.656  36.742   2.470
50660W        W22189  27.863  24.186   3.561
50661W        W22190   9.363   4.324  11.970
50662W        W22191  13.749  24.115   2.871
50663W        W22192  13.295  44.474  11.406
50664W        W22193  10.047   3.216   4.843
50665W        W22194  13.406  23.283   4.085
50666W        W22195  44.543  25.224   0.870
50667W        W22196  28.580  34.084   2.177
50668W        W22197  27.594   9.038   2.667
50669W        W22198  36.496   7.218   2.581
50670W        W22199  30.756  43.868   4.272
50671W        W22200  30.641   3.935   1.315
50672W        W22201   1.701  40.565  11.784
50673W        W22202   4.172  15.763   0.393
50674W        W22203  40.386  20.032  14.945
50675W        W22204   0.823  38.646  14.965
50676W        W22205   5.155  31.607   9.968
50677W        W22206  19.668  24.879   3.707
50678W        W22207  33.968  33.484  11.261
50679W        W22208  40.737  42.784  12.959
50680W        W22209  41.730   9.937  11.609
50681W        W22210  10.174  20.683   4.638
50682W        W22211  42.959  25.649  11.407
50683W        W22212  23.504  15.734  11.142
50684W        W22213  15.847  25.541   4.044
50685W        W22214  29.117  37.417  14.789
50686W        W22215  20.139  11.262   5.041
50687W        W22216   4.217  33.746  12.230
50688W        W22217   3.017   9.559  11.420
50689W        W22218  36.628  16.330   3.236
50690W        W22219   2.871   9.355   2.785
50691W        W22220  42.266   2.331   1.764
50692W        W22221   3.268  33.513  11.200
50693W        W22222   0.175   1.883   1.856
50694W        W22223  33.672  40.984  13.116
50695W        W22224  14.063   5.373   3.704
50696W        W22225  40.938   0.120  12.297
50697W        W22226  41.621  28.790   0.815
50698W        W22227  26.430  14.104  12.074
50699W        W22228  22.019  13.124   3.717
50700W        W22229  25.383  36.922   1.619
50701W        W22230   2.320  33.662   3.910
50702W        W22231  11.166  41.016   0.954
50703W        W22232   9.765  40.933  13.406
50704W        W22233  11.261  35.546  14.952
50705W        W22234   1.746  31.941  11.112
50706W        W22235  40.974  10.240   2.299
50707W        W22236   8.442  33.161  13.849
50708W        W22237  30.598  25.886  11.785
50709W        W22238  35.080  34.971   1.284
50710W        W22239  23.193  27.745  11.999
50711W        W22240  40.763  16.025   1.914
50712W        W22241  42.041  39.908  10.586
50713W        W22242  13.747   6.460   0.780
50714W        W22243   6.152  42.575  13.055
50715W        W22244  29.116  17.680   3.864
50716W        W22245  14.369  11.464   3.321
50717W        W22246  43.478  21.404   1.630
50718W        W22247  24.321   8.184  14.830
50719W        W22248   4.863   2.052  12.425
50720W        W22249   1.839  18.257   0.029
50721W        W22250  26.611   6.438   2.577
50722W        W22251  26.555   4.837  13.832
50723W        W22252   7.870  16.628   1.460
50724W        W22253   8.927  40.392   2.722
50725W        W22254  22.615   7.799  14.571
50726W        W22255  28.424  40.263   0.860
50727W        W22256   1.400  38.028  11.269
50728W        W22257  15.202  11.809  11.549
50729W        W22258  26.229  42.650   2.717
50730W        W22259  44.161  41.799   3.089
50731W        W22260  11.257  22.623  10.463
50732W        W22261  22.441  22.232  12.992
50733W        W22262  23.760  24.151  14.910
50734W        W22263  38.337   8.425  10.638
50735W        W22264  38.008  33.440   0.025
50736W        W22265   3.027  38.559  12.761
50737W        W22266   4.131   3.474   0.251
50738W        W22267  35.487  41.251  12.920
50739W        W22268  32.693  28.989  12.607
50740W        W22269  34.906  10.844  14.194
50741W        W22270  39.572  28.360   4.593
50742W        W22271  43.441  21.224   2.146
50743W        W22272   2.427   1.798  10.955
50744W        W22273  21.994  24.189  11.874
50745W        W22274  30.903   7.935  11.004
50746W        W22275   8.860   8.777   1.503
50747W        W22276  34.573  41.738  12.706
50748W        W22277   4.703   5.768  12.456
50749W        W22278  38.107  10.027  12.302
50750W        W22279   3.757  19.954  14.080
50751W        W22280  20.911  33.588   4.164
50752W        W22281  14.262  24.604  14.430
50753W        W22282   1.220   3.335   2.363
50754W        W22283  23.989   7.410   4.982
50755W        W22284  21.464  35.451  11.193
50756W        W22285   7.732   9.928   4.091
50757W        W22286   7.579  32.218  10.779
50758W        W22287  38.843   9.834   2.936
50759W        W22288  44.406  32.076  10.828
50760W        W22289  25.061  25.739  13.410
50761W        W22290  13.184   8.718  13.854
50762W        W22291  22.206  20.072  13.565
50763W        W22292  40.407   1.460  10.737
50764W        W22293   6.641  37.367   4.172
50765W        W22294  39.551  23.253  12.568
50766W        W22295  18.875  41.045   3.448
50767W        W22296  11.512  41.989  11.660
50768W        W22297  30.960   3.246   3.727
50769W        W22298  20.796  33.020   3.781
50770W        W22299  32.180  35.088   3.114
50771W        W22300  19.203   3.008   4.266
50772W        W22301  16.231  22.261   4.988
50773W        W22302  17.627  43.214  11.834
50774W        W22303   8.347  24.880  14.944
50775W        W22304  38.003  43.588  13.857
50776W        W22305  44.247  36.708   4.192
50777W        W22306  10.690   9.908   2.401
50778W        W22307   8.097   8.882   4.205
50779W        W22308  31.039   9.410  11.087
50780W        W22309  29.599  37.164  11.554
50781W        W22310  36.591  16.147   1.974
50782W        W22311   0.280   2.969   4.197
50783W        W22312  33.928  44.434  10.995
50784W        W22313  44.795  25.484  14.754
50785W        W22314  26.437  17.114   2.891
50786W        W22315   2.743  20.988   1.935
50787W        W22316   9.862  27.639  12.863
50788W        W22317  43.555  18.870   0.225
50789W        W22318  27.425  29.118  11.600
50790W        W22319  27.153  30.143   2.854
50791W        W22320  18.593  11.411  14.115
50792W        W22321  39.116   3.961  11.126
50793W        W22322  19.219  39.507  11.783
50794W        W22323  42.598  21.741  14.436
50795W        W22324  31.940  35.208   1.874
50796W        W22325   9.627  21.724   1.335
50797W        W22326   4.435   0.700  13.784
50798W        W22327  17.283  14.828   0.224
50799W        W22328  32.126  40.919   3.156
50800W        W22329  20.712  21.600   0.698
50801W        W22330  23.344  21.448  10.230
50802W        W22331  13.804  39.332  13.452
50803W        W22332  16.227  18.589   0.324
50804W        W22333  39.262  41.115  13.417
50805W        W22334  44.128   0.862  11.492
50806W        W22335  30.172  22.257  11.684
50807W        W22336  33.560  37.407  13.210
50808W        W22337  27.517  19.475   1.802
50809W        W22338  14.038  35.017  13.516
50810W        W22339  35.946   7.210   4.621
50811W        W22340  14.424  12.238  11.157
50812W        W22341   2.439  14.636   4.076
50813W        W22342  15.440   1.122   1.943
50814W        W22343  34.420   6.776   2.153
50815W        W22344  24.419  33.928  11.158
50816W        W22345  10.574  36.944  12.659
50817W        W22346  20.591   7.600  11.127
50818W        W22347  18.603   9.862   3.713
50819W        W22348  32.027  10.272   3.012
50820W        W22349   2.748   1.498  11.757
50821W        W22350  35.150  10.674   1.282
50822W        W22351  25.129   8.217   4.105
50823W        W22352  20.757   6.166  12.137
50824W        W22353   8.805  34.666  10.985
50825W        W22354  13.350   8.336  14.622
50826W        W22355  22.997  39.777  13.837
50827W        W22356  43.503  28.931   1.383
50828W        W22357   5.573  29.528  13.959
50829W        W22358  36.488   6.377  10.914
50830W        W22359  22.257  12.904  12.500
50831W        W22360   8.966  24.328   3.159
50832W        W22361  37.931  34.838  12.463
50833W        W22362  31.134  28.494   1.436
50834W        W22363  38.991  39.248   3.728
50835W        W22364  44.339  34.816  11.442
50836W        W22365  16.290  44.887   3.571
50837W        W22366  20.969  22.264  13.111
50838W        W22367  18.711  21.635   2.505
50839W        W22368  32.040  20.001   0.404
50840W        W22369  35.572  44.010  10.634
50841W        W22370  44.702  11.469  11.657
50842W        W22371   8.540  39.978  13.858
50843W        W22372  10.289  27.519  13.177
50844W        W22373   7.600  28.927   0.742
50845W        W22374  24.783  42.924  11.845
50846W        W22375  13.873  27.628   1.447
50847W        W22376   3.512  24.772  13.523
50848W        W22377  33.200   9.773  12.390
50849W        W22378  10.322  38.726  11.958
50850W        W22379  13.993  36.079   3.555
50851W        W22380  43.243   2.632  14.828
50852W        W22381   9.967   2.629   0.750
50853W        W22382  10.236  11.021   4.555
50854W        W22383  43.763  38.404   3.225
50855W        W22384  36.160  10.589   0.428
50856W        W22385  28.178  28.018   0.750
50857W        W22386  22.687   5.963   4.212
50858W        W22387  17.166  25.530  12.055
50859W        W22388   0.995  38.626   3.616
50860W        W22389   2.132  20.475  11.513
50861W        W22390  27.530  12.006  12.416
50862W        W22391  41.995  31.981  12.480
50863W        W22392  39.095  21.095   1.944
50864W        W22393  37.789  39.479   4.542
50865W        W22394   4.791  11.358  12.889
50866W        W22395  12.464  32.371  13.805
50867W        W22396  10.818  11.951   2.769
50868W        W22397  37.704  35.526   2.793
50869W        W22398  33.411  41.785  10.683
50870W        W22399  34.216  37.284  12.382
50871W        W22400  20.467  17.646   1.245
50872W        W22401  29.602  40.380   5.050
50873W        W22402  41.304  43.824   2.826
50874W        W22403   0.760  37.083   1.334
50875W        W22404  24.234  17.163   3.771
50876W        W22405  33.952   1.866   4.744
50877W        W22406  29.248  37.912  14.138
50878W        W22407  37.248  19.659   3.722
50879W        W22408  22.036  14.999   3.160
50880W        W22409  12.166  18.238   2.463
50881W        W22410  44.240  28.134   0.438
50882W        W22411  19.830  42.956   2.257
50883W        W22412  14.765  32.375   3.114
50884W        W22413  17.154   2.944   4.621
50885W        W22414  29.004  24.494   0.983
50886W        W22415   3.416  13.891   2.252
50887W        W22416  18.135  30.592   5.386
50888W        W22417   0.997  30.500  11.021
50889W        W22418  31.184   8.758  13.821
50890W        W22419  42.902  26.430  14.892
50891W        W22420  26.699  32.780   2.145
50892W        W22421  22.140  32.301   3.605
50893W        W22422  42.425  31.177  13.897
50894W        W22423  26.767  27.961   0.320
50895W        W22424  13.732  24.580   2.103
50896W        W22425  29.924  16.126   2.264
50897W        W22426  14.546  42.875   9.943
50898W        W22427  29.716  44.635   0.465
50899W        W22428  13.615  16.128  13.917
50900W        W22429  23.195  41.056   2.002
50901W        W22430  37.675  24.190   1.742
50902W        W22431   2.407  13.284  14.958
50903W        W22432  34.496  33.931  11.825
50904W        W22433   4.796   6.614   0.975
50905W        W22434  18.182   4.637   3.290
50906W        W22435  36.137  14.183  11.622
50907W        W22436  39.919  35.262  12.798
50908W        W22437   1.197   2.472   3.838
50909W        W22438   2.419  25.270   4.175
50910W        W22439  33.534   8.556   3.378
50911W        W22440  30.357   8.101   0.394
50912W        W22441  37.910   6.425  14.129
50913W        W22442   8.642  30.519  11.154
50914W        W22443   4.343  27.486   1.167
50915W        W22444  20.961  41.577  13.590
50916W        W22445  26.111  35.860   2.852
50917W        W22446  26.210  40.452  12.163
50918W        W22447  17.300  25.532   3.165
50919W        W22448  39.949  21.638  13.558
50920W        W22449  30.462   7.585  11.952
50921W        W22450  13.717  33.935  14.439
50922W        W22451  15.826  28.637  13.078
50923W        W22452  44.927   3.426  14.446
50924W        W22453   5.360  19.126  14.818
50925W        W22454  39.845  34.067   2.111
50926W        W22455   7.344  26.141   4.592
50927W        W22456  32.440  23.012  14.283
50928W        W22457  15.564  42.239  11.139
50929W        W22458  31.282  37.129   3.075
50930W        W22459  43.012  26.117   4.209
50931W        W22460   5.156  42.887   2.719
50932W        W22461  39.874   7.878  12.921
50933W        W22462  16.192  22.163   0.465
50934W        W22463  14.265  31.424   3.726
50935W        W22464  41.604  19.570  14.794
50936W        W22465   3.409  41.228   2.695
50937W        W22466  37.373  22.690  13.592
50938W        W22467  39.459   0.728   4.077
50939W        W22468  12.177  15.809  12.954
50940W        W22469  27.621  21.943   4.767
50941W        W22470  20.486   9.924  12.537
50942W        W22471  30.040  43.032  14.061
50943W        W22472  18.806  40.072  10.662
50944W        W22473  37.186   6.380   0.982
50945W        W22474  26.720  14.603   1.944
50946W        W22475   9.709   0.701   2.556
50947W        W22476  25.729  17.195   1.048
50948W        W22477   7.191  39.152   3.144
50949W        W22478  43.755   0.211  13.052
50950W        W22479  32.463   2.034  12.497
50951W        W22480  35.479  11.615  13.069
50952W        W22481  41.556  22.135   0.969
50953W        W22482   5.748  42.505  14.896
50954W        W22483   4.001  30.329   0.434
50955W        W22484   8.281  23.689   1.404
50956W        W22485   0.593   9.300  11.156
50957W        W22486  38.622  40.527  14.411
50958W        W22487   4.016   7.989  12.561
50959W        W22488  27.860   6.752  10.785
50960W        W22489   0.163  39.717   2.358
50961W        W22490  41.689  30.113   4.613
50962W        W22491  37.040  18.024  11.706
50963W        W22492  30.420   6.212   4.280
50964W        W22493   6.543  17.989  14.293
50965W        W22494  10.715  15.540  12.588
50966W        W22495  30.443  30.809  11.438
50967W        W22496  22.070  15.531   3.162
50968W        W22497  14.165   8.289   3.426
50969W        W22498  44.448  22.945   1.317
50970W        W22499   9.880  40.984  11.487
50971W        W22500   8.494   1.267  11.520
50972W        W22501   8.227  26.109   3.416
50973W        W22502  16.474  11.606   0.826
50974W        W22503  20.001  24.759   2.843
50975W        W22504  38.500  33.093   0.837
50976W        W22505  19.203   8.374  10.728
50977W        W22506  25.279  30.977   4.140
50978W        W22507  43.831  33.913   4.542
50979W        W22508  18.095  27.471   2.765
50980W        W22509  38.484   5.708  14.455
50981W        W22510  16.124  14.050  14.973
50982W        W22511  33.043  27.633  11.029
50983W        W22512  41.967  41.506  13.655
50984W        W22513   0.917  39.362  12.198
50985W        W22514   8.145  31.990   4.875
50986W        W22515  37.414  41.368   1.293
50987W        W22516   4.320  19.972  12.062
50988W        W22517  35.661  35.049  14.627
50989W        W22518   1.858  29.196  14.730
50990W        W22519  41.318   4.349  10.701
50991W        W22520  17.779  38.223   4.587
50992W        W22521  26.799  22.421   4.211
50993W        W22522   1.956  12.835  10.657
50994W        W22523  30.821  35.319  12.087
50995W        W22524  16.182   7.089  14.889
50996W        W22525   0.024  22.088   1.458
50997W        W22526   2.356   3.835   4.843
50998W        W22527  14.030  27.996  11.760
50999W        W22528  29.561   5.468  14.463
51000W        W22529   5.766  19.045   0.764
51001W        W22530   1.243  40.438   0.230
51002W        W22531  39.942  22.959   4.553
51003W        W22532  19.961  12.433   3.866
51004W        W22533   0.395  23.242   3.672
51005W        W22534   2.676  26.354  13.482
51006W        W22535  34.053  29.492   0.226
51007W        W22536  27.696   3.593   4.834
51008W        W22537  41.544  44.793   4.771
51009W        W22538  29.122  16.141   2.391
51010W        W22539  34.479   3.034   2.484
51011W        W22540  24.597  20.046  12.951
51012W        W22541  38.995   8.643   4.593
51013W        W22542  41.790  41.925  13.887
51014W        W22543  21.617   8.443  12.450
51015W        W22544  16.657  40.947   0.855
51016W        W22545  42.814  41.344   4.077
51017W        W22546  26.404  22.838   2.063
51018W        W22547  27.723  30.285   4.507
51019W        W22548  38.072  24.957  11.046
51020W        W22549  41.514  20.344   0.360
51021W        W22550  37.048   4.307   4.121
51022W        W22551  13.310  10.355   1.752
51023W        W22552  42.280  17.262   3.349
51024W        W22553  34.545   0.265  14.315
51025W        W22554  33.900  37.096   3.218
51026W        W22555  23.499   2.366  13.162
51027W        W22556  40.573   6.231   2.882
51028W        W22557  36.793  40.402   4.219
51029W        W22558  24.203  27.613  13.568
51030W        W22559   0.960  16.403  14.369
51031W        W22560  26.583  35.048   4.854
51032W        W22561  26.912   1.183   2.769
51033W        W22562  20.055  16.374   1.938
51034W        W22563  16.737  21.231  13.349
51035W        W22564  27.654  32.437   0.990
51036W        W22565  20.662  42.835  11.928
51037W        W22566  39.778  40.280   4.147
51038W        W22567  26.584  43.615   2.882
51039W        W22568  40.009  14.731  10.670
51040W        W22569  44.328  36.140  12.002
51041W        W22570  42.748   7.156   0.712
51042W        W22571   1.433   6.144   2.693
51043W        W22572  23.135  33.076   1.743
51044W        W22573  37.521  10.427   0.361
51045W        W22574  21.712  30.908  13.835
51046W        W22575  30.091  33.166   2.328
51047W        W22576   4.193  37.578  13.276
51048W        W22577  25.712  44.810  14.877
51049W        W22578  23.487   3.208  13.800
51050W        W22579  26.622  27.741  13.874
51051W        W22580  15.613  17.006  12.832
51052W        W22581  38.899  25.042   0.493
51053W        W22582  29.655  29.188   3.177
51054W        W22583  12.384   1.460   5.181
51055W        W22584  33.924  39.842   4.295
51056W        W22585  12.249   1.405   4.312
51057W        W22586  37.381  19.133  13.427
51058W        W22587  11.082  34.587  14.768
51059W        W22588   1.975  26.466  13.879
51060W        W22589  13.491  17.306   5.223
51061W        W22590  14.354   6.824  10.488
51062W        W22591   8.406  17.369   4.171
51063W        W22592  21.345  19.281   1.201
51064W        W22593  34.458  31.123   2.636
51065W        W22594  24.772  30.144  14.369
51066W        W22595  34.440  37.939  12.096
51067W        W22596  37.619  43.041   3.290
51068W        W22597   2.080   9.064   2.567
51069W        W22598  44.970   4.704   0.794
51070W        W22599  22.231  34.232  13.373
51071W        W22600  30.700  10.675   2.816
51072W        W22601  12.047  33.179  14.422
51073W        W22602  28.584  17.458  12.306
51074W        W22603  12.896  32.659   2.429
51075W        W22604  37.597  42.718   0.760
51076W        W22605  14.198  31.860   0.184
51077W        W22606  35.489  41.522   1.832
51078W        W22607  29.657  44.902  11.122
51079W        W22608  28.932   9.802   0.357
51080W        W22609  14.258  10.405   1.787
51081W        W22610  12.956   5.918   3.039
51082W        W22611  12.117   5.953   1.867
51083W        W22612  22.053  41.299  12.445
51084W        W22613  35.466  29.803   0.719
51085W        W22614  33.082  14.765   4.834
51086W        W22615  29.615  21.167  12.379
51087W        W22616   7.662  17.727   4.563
51088W        W22617  30.997  38.025   1.090
51089W        W22618  30.065  27.128   4.617
51090W        W22619  26.095   3.253  11.682
51091W        W22620   2.423  42.928   3.624
51092W        W22621  38.461  35.007  11.213
51093W        W22622  28.683  29.979  10.740
51094W        W22623  10.220  28.624  14.708
51095W        W22624  40.583  11.584  13.895
51096W        W22625  38.326  40.018  10.380
51097W        W22626  16.180  10.310   2.625
51098W        W22627  43.047  11.306  13.285
51099W        W22628  32.872  22.229  13.838
51100W        W22629   1.728  26.413  12.941
51101W        W22630  34.411   7.987  12.628
51102W        W22631  41.468   5.233  14.345
51103W        W22632   5.718   0.226   0.479
51104W        W22633  39.791  39.869   1.393
51105W        W22634  16.668   8.340  11.955
51106W        W22635  17.444  15.304  13.007
51107W        W22636  31.527  29.355  13.009
51108W        W22637  11.758  40.493   4.608
51109W        W22638  15.579  14.387   5.097
51110W        W22639  20.470  27.805   5.054
51111W        W22640  37.044  24.889   4.186
51112W        W22641  17.125  36.995  11.834
51113W        W22642  27.139  20.329  14.452
51114W        W22643  14.151  29.206   4.105
51115W        W22644  39.028  41.250   1.254
51116W        W22645   9.310   4.496   0.935
51117W        W22646  20.925  33.180   2.484
51118W        W22647  26.226  31.084   2.605
51119W        W22648  15.733  15.975  13.015
51120W        W22649  15.812  16.330   1.803
51121W        W22650  13.086  27.896  14.387
51122W        W22651  43.700  24.446   1.572
51123W        W22652   5.795  33.679  12.017
51124W        W22653  19.280  36.660  12.139
51125W        W22654  14.851  27.023   1.941
51126W        W22655  18.940  36.792  14.152
51127W        W22656  29.928  39.324  13.061
51128W        W22657  31.156  38.418  10.677
51129W        W22658  34.440  44.113  13.123
51130W        W22659   8.202  42.132  11.865
51131W        W22660   5.597   8.156  11.500
51132W        W22661  19.028   5.740  12.579
51133W        W22662  24.100  32.934   1.026
51134W        W22663  42.268  13.166   1.462
51135W        W22664   6.382  27.546   4.397
51136W        W22665  21.913  21.772   1.412
51137W        W22666   2.626  18.304  10.274
51138W        W22667  37.305   5.373  14.770
51139W        W22668  26.577  15.330   4.035
51140W        W22669  44.771  25.726   1.746
51141W        W22670  26.401  34.448  11.695
51142W        W22671  37.547  21.878  12.421
51143W        W22672  30.883   1.313   1.700
51144W        W22673   8.611  42.272  11.596
51145W        W22674   3.815  15.167   2.685
51146W        W22675  25.887   3.789   2.338
51147W        W22676  33.934  16.291  10.655
51148W        W22677  26.118  36.115  11.058
51149W        W22678  10.203  22.086   1.879
51150W        W22679  18.032  38.112  12.538
51151W        W22680  36.826  26.802  14.365
51152W        W22681  40.786  16.798  10.685
51153W        W22682  40.166  13.759   4.669
51154W        W22683  43.537   7.400   1.823
51155W        W22684   8.415   8.706  12.571
51156W        W22685  22.746  38.911   0.477
51157W        W22686   7.301  27.947   3.165
51158W        W22687  41.327   5.405  12.377
51159W        W22688  33.497  20.282   0.253
51160W        W22689   1.309  32.006  14.381
51161W        W22690  18.274  35.692  11.110
51162W        W22691  27.167  43.985   4.701
51163W        W22692  40.975   8.352   3.541
51164W        W22693   3.952   8.286  11.326
51165W        W22694   0.528  16.458  12.007
51166W        W22695  23.249  38.773   0.361
51167W        W22696  19.234  14.239   3.594
51168W        W22697  44.393  32.697   2.816
51169W        W22698  34.600  26.111   2.459
51170W        W22699  39.366  38.436  10.248
51171W        W22700  30.668   1.240   1.223
51172W        W22701  17.249  25.633   4.718
51173W        W22702   1.775  21.402  14.758
51174W        W22703  20.196   0.771   3.345
51175W        W22704  21.315  28.609   0.344
51176W        W22705   5.827  19.574   0.793
51177W        W22706  33.719  30.346   2.778
51178W        W22707  26.080  35.935   4.387
51179W        W22708  12.563  44.355  13.088
51180W        W22709   6.654  39.605   2.296
51181W        W22710   6.492  19.665  14.386
51182W        W22711  30.069  10.784  10.447
51183W        W22712  29.276  18.343   1.339
51184W        W22713  43.412  39.429   4.110
51185W        W22714  43.691   1.141   4.965
51186W        W22715  15.255  30.027   4.945
51187W        W22716  22.663   2.758   2.237
51188W        W22717  44.761   9.453   1.124
51189W        W22718  33.452  43.792  12.156
51190W        W22719  26.632  28.892   1.243
51191W        W22720   5.214  18.818  13.887
51192W        W22721  31.065  27.442   1.728
51193W        W22722  43.300  30.121  14.360
51194W        W22723   7.113  27.988   3.662
51195W        W22724  26.487  39.521  14.174
51196W        W22725   3.216  20.778  14.012
51197W        W22726  11.859  33.426   5.161
51198W        W22727   5.793  35.977   3.264
51199W        W22728  44.875  18.055  13.570
51200W        W22729  42.354  15.248   4.522
51201W        W22730   1.694  20.746   2.832
51202W        W22731  10.778  30.363   2.760
51203W        W22732   5.409  42.002   1.706
51204W        W22733   0.705  16.527   2.234
51205W        W22734   0.811  14.182   4.631
51206W        W22735  29.868  23.183   2.649
51207W        W22736   0.820   8.169  13.490
51208W        W22737  24.481  34.324   3.250
51209W        W22738   7.151  17.750  13.417
51210W        W22739  10.845   6.088  14.029
51211W        W22740  15.810   8.128   5.012
51212W        W22741   9.169  34.967  12.602
51213W        W22742  31.927  29.684  12.490
51214W        W22743  12.567  12.789  14.692
51215W        W22744   3.014   1.892   2.310
51216W        W22745  14.351  35.848  10.915
51217W        W22746  31.945  37.565   3.928
51218W        W22747  35.352  27.903   0.860
51219W        W22748  35.026   6.223   2.268
51220W        W22749   5.293  31.435   2.661
51221W        W22750  30.669   5.255   0.708
51222W        W22751   9.891  10.370  14.913
51223W        W22752  12.713  16.801  12.040
51224W        W22753  10.110   6.411   3.213
51225W        W22754  17.738   3.915  14.350
51226W        W22755  30.123  38.758   1.523
51227W        W22756  19.327  21.794   1.723
51228W        W22757  44.730   4.854  14.473
51229W        W22758  34.160  44.329   4.078
51230W        W22759  43.860  21.226   1.009
51231W        W22760  16.726  19.848   2.280
51232W        W22761  37.401   9.325   4.266
51233W        W22762  31.913  27.188  11.528
51234W        W22763   4.252  43.503   3.343
51235W        W22764  18.323  21.665  13.506
51236W        W22765  18.769  28.567  14.695
51237W        W22766  27.661  27.216   2.098
51238W        W22767  32.347  19.245  11.999
51239W        W22768  21.612  18.071  14.051
51240W        W22769  23.706  33.385  12.196
51241W        W22770  21.970  37.923  11.569
51242W        W22771  17.061  15.606   2.772
51243W        W22772  13.231  28.054  13.895
51244W        W22773   3.377  20.584   1.862
51245W        W22774  38.109   5.908  11.156
51246W        W22775  44.766  28.000  13.998
51247W        W22776  15.798  17.596  13.071
51248W        W22777  21.351   4.750   0.196
51249W        W22778  40.344  21.118  10.225
51250W        W22779   7.183  17.797  14.341
51251W        W22780   6.305   8.169   0.149
51252W        W22781   6.608  33.246   5.058
51253W        W22782  41.262  28.652   2.801
51254W        W22783  42.473  29.096  13.425
51255W        W22784  37.879   1.300  12.678
51256W        W22785  20.905   9.326  13.607
51257W        W22786  17.589  14.780   0.971
51258W        W22787  15.830  16.429   0.838
51259W        W22788  43.383   8.388   4.576
51260W        W22789  44.393  21.007  14.547
51261W        W22790   2.456  30.838   1.312
51262W        W22791  14.282  33.461  11.274
51263W        W22792  14.783  38.388   2.772
51264W        W22793  39.086   8.991   2.308
51265W        W22794   9.941  18.553  10.653
51266W        W22795  22.522   6.715   3.199
51267W        W22796   1.191  39.379  13.874
51268W        W22797  31.517  35.525  12.600
51269W        W22798   0.381  32.336  12.474
51270W        W22799   2.300  25.495  10.691
51271W        W22800  40.496  34.122  12.829
51272W        W22801  23.839  39.139  11.949
51273W        W22802  34.094   7.216   4.244
51274W        W22803   6.328  42.122  11.705
51275W        W22804   2.018   1.982   0.357
51276W        W22805  28.701  22.135  13.294
51277W        W22806   8.232  29.644   1.768
51278W        W22807  16.037  12.500   1.796
51279W        W22808  43.213  39.864   0.683
51280W        W22809  27.644   6.586  10.356
51281W        W22810  31.367   8.976  10.162
51282W        W22811   5.741   3.796   3.812
51283W        W22812  11.275  31.137   4.041
51284W        W22813  25.957  33.576   1.197
51285W        W22814  26.664  24.191   4.129
51286W        W22815  22.242  25.702  13.942
51287W        W22816   1.273  44.457  11.601
51288W        W22817  44.541  37.504  13.097
51289W        W22818   1.435  11.825   4.637
51290W        W22819  20.135  11.037  14.959
51291W        W22820  31.634  22.383   1.335
51292W        W22821   4.204  38.942   2.736
51293W        W22822  10.902   0.491   0.004
51294W        W22823  10.378  13.190  11.535
51295W        W22824  34.921   1.258   4.209
51296W        W22825  22.902  10.142  10.449
51297W        W22826   0.733  31.090  12.212
51298W        W22827   4.218   3.394  12.519
51299W        W22828  44.036  10.921  13.430
51300W        W22829  14.052  23.059  13.947
51301W        W22830  29.948  18.726   0.828
51302W        W22831  32.581  17.832   1.259
51303W        W22832  29.697   1.162  12.667
51304W        W22833   2.813  33.770   4.068
51305W        W22834   7.751  26.236   4.243
51306W        W22835  23.012  12.769   3.159
51307W        W22836  28.350  34.327   0.845
51308W        W22837  29.467  20.253   4.348
51309W        W22838  42.871   4.617  12.541
51310W        W22839  20.293  23.845  12.063
51311W        W22840   3.291  30.663   0.444
51312W        W22841  25.015   3.266  14.541
51313W        W22842  31.495  40.641   4.026
51314W        W22843  10.068   4.856   4.068
51315W        W22844  10.183   6.534  12.032
51316W        W22845  31.605   2.778   2.780
51317W        W22846  23.057  29.699   2.273
51318W        W22847   6.100   9.653  14.843
51319W        W22848   2.796   7.864   2.915
51320W        W22849  20.299  17.781   4.777
51321W        W22850  28.278  39.192   3.270
51322W        W22851  10.303  22.041  11.562
51323W        W22852  39.962  18.518   4.573
51324W        W22853  16.723   5.150   1.926
51325W        W22854  15.729  24.621   1.906
51326W        W22855  28.190  12.471   1.341
51327W        W22856  42.467  28.055   4.733
51328W        W22857  33.559  25.046   2.976
51329W        W22858  25.713  37.882   3.222
51330W        W22859  27.517   9.335   2.243
51331W        W22860  34.066  36.777  11.521
51332W        W22861  34.310  32.501   0.959
51333W        W22862  25.431  25.468   3.568
51334W        W22863   1.671  14.635  14.315
51335W        W22864   0.020   5.728  10.658
51336W        W22865  16.854  22.233  12.134
51337W        W22866   6.167   9.464  12.549
51338W        W22867  23.609   9.633   4.562
51339W        W22868  42.972  17.354   1.689
51340W        W22869  41.454  15.733  10.575
51341W        W22870  29.628   1.535  14.774
51342W        W22871  13.371  18.247  12.917
51343W        W22872   4.768  27.949   4.089
51344W        W22873  32.869  40.089  14.970
51345W        W22874  28.977  21.465   1.649
51346W        W22875  41.011  44.262   4.379
51347W        W22876   4.227  44.955  14.898
51348W        W22877  22.522  29.237  12.998
51349W        W22878  12.061  19.517   0.321
51350W        W22879   3.373   1.734   4.506
51351W        W22880  28.122  33.107   4.189
51352W        W22881  43.272  36.016  11.952
51353W        W22882  17.347   5.135   4.048
51354W        W22883  33.562  17.017  14.307
51355W        W22884  26.019   0.408   1.770
51356W        W22885  44.449  42.257  12.076
51357W        W22886  21.614  43.924   4.542
51358W        W22887  42.618  36.195   2.918
51359W        W22888  34.091  17.271   1.692
51360W        W22889  31.596  10.304  14.347
51361W        W22890  44.889   6.363  12.982
51362W        W22891   6.833  26.502   3.654
51363W        W22892  44.994  30.905  13.332
51364W        W22893  16.469  30.547   2.711
51365W        W22894  44.782   2.183  13.119
51366W        W22895   2.265  40.934  11.381
51367W        W22896  10.505  26.487  13.600
51368W        W22897  11.579  25.057   2.697
51369W        W22898  13.783  40.821  13.463
51370W        W22899   2.298  38.881  11.752
51371W        W22900  35.424  24.574   4.107
51372W        W22901  14.989  10.888  14.311
51373W        W22902  11.657  43.004  12.538
51374W        W22903  24.771  30.415  11.639
51375W        W22904  28.377  37.121   4.186
51376W        W22905  43.616  35.341  14.474
51377W        W22906  16.687  23.704  13.371
51378W        W22907  37.479  16.313  14.009
51379W        W22908  34.304  43.888   0.025
51380W        W22909  19.001  11.683  10.746
51381W        W22910   4.304  35.366  14.885
51382W        W22911  35.534  38.275  14.422
51383W        W22912  37.612   3.199  10.196
51384W        W22913   1.927  26.498  12.474
51385W        W22914  35.818  13.839  10.702
51386W        W22915  41.289  36.033  14.755
51387W        W22916  42.070  42.780   2.844
51388W        W22917  23.701  36.462   1.855
51389W        W22918  25.580  34.057  12.461
51390W        W22919  43.132  38.646   2.844
51391W        W22920   6.479  28.429  13.028
51392W        W22921  18.529  32.453  10.570
51393W        W22922  34.671  27.337  11.162
51394W        W22923  19.278  24.514   3.686
51395W        W22924  22.609  44.759   4.958
51396W        W22925  17.308  22.311   1.165
51397W        W22926  28.256   6.766  11.154
51398W        W22927  10.780  21.476   2.283
51399W        W22928   2.221  36.513   1.902
51400W        W22929  37.090  42.387  12.124
51401W        W22930  41.249   7.354   2.394
51402W        W22931  44.376  43.042   0.725
51403W        W22932  33.332  33.674   4.642
51404W        W22933  23.165   1.456  10.840
51405W        W22934  35.758  37.475   4.931
51406W        W22935   3.728  18.644  12.271
51407W        W22936   5.875  42.958  11.612
51408W        W22937  22.465  22.167   2.777
51409W        W22938  12.199  18.691  11.661
51410W        W22939  31.098  37.548  12.354
51411W        W22940  20.277  21.125  14.180
51412W        W22941   3.035  23.766  11.486
51413W        W22942   3.010  14.214  11.885
51414W        W22943   2.255  15.187  13.741
51415W        W22944   0.173  20.636  14.426
51416W        W22945  39.065  15.708  10.545
51417W        W22946  34.964  35.054   2.655
51418W        W22947  11.799  25.333  12.432
51419W        W22948  31.087  12.162  11.532
51420W        W22949  24.491  15.568   1.700
51421W        W22950  17.309  31.415  13.069
51422W        W22951  25.679   1.882   1.093
51423W        W22952  24.421  13.257   1.399
51424W        W22953  16.591  17.122  10.692
51425W        W22954   6.746  39.088  11.662
51426W        W22955   5.530   0.775   0.196
51427W        W22956   3.351   6.760  14.217
51428W        W22957  36.480  15.693  13.355
51429W        W22958  44.052  20.991  11.887
51430W        W22959  24.760   3.707  11.590
51431W        W22960  26.663   2.510   1.780
51432W        W22961  25.916  23.998   3.812
51433W        W22962  29.726   9.379   4.559
51434W        W22963  27.903  44.136   2.749
51435W        W22964  30.647   3.794  13.912
51436W        W22965   1.701  17.687  12.105
51437W        W22966   8.453  19.379  10.353
51438W        W22967  29.458  41.689   2.872
51439W        W22968  39.267  11.844  14.531
51440W        W22969  33.212   7.234   3.236
51441W        W22970   5.323  12.943   3.727
51442W        W22971  31.599   5.663  12.527
51443W        W22972  35.642  14.160   1.895
51444W        W22973  44.584  26.785  14.819
51445W        W22974  18.586  34.529  10.698
51446W        W22975  38.414  42.628   2.931
51447W        W22976  13.656  22.318   3.580
51448W        W22977  24.627   5.278  12.144
51449W        W22978  16.175  28.789   3.636
51450W        W22979  12.969   1.521   1.466
51451W        W22980   3.001  30.841   4.598
51452W        W22981  36.936  42.042   0.999
51453W        W22982  37.572  33.364   3.538
51454W        W22983  19.673   1.618   0.830
51455W        W22984  14.675  19.652  13.585
51456W        W22985  41.505  23.459  12.938
51457W        W22986  25.928  14.673  13.875
51458W        W22987  22.544   5.448  11.099
51459W        W22988  42.323  44.442   2.579
51460W        W22989  19.333  31.336   1.369
51461W        W22990  31.895  16.531  14.733
51462W        W22991   6.487  11.440  11.631
51463W        W22992  35.586  11.920   1.638
51464W        W22993  26.729  27.641  10.939
51465W        W22994   7.754  32.355  12.975
51466W        W22995  21.354  43.711  10.209
51467W        W22996  43.533  41.911  10.743
51468W        W22997  21.074  29.394   2.515
51469W        W22998  38.157  31.441   2.823
51470W        W22999  23.821  41.280  11.619
51471W        W23000  37.983  43.681   0.256
51472W        W23001  26.622  24.620   1.894
51473W        W23002   3.518  23.913  13.165
51474W        W23003  10.872   4.274  11.948
51475W        W23004  44.459  41.944  10.666
51476W        W23005  30.588  29.948  13.135
51477W        W23006   3.928  25.105  14.294
51478W        W23007  12.580   2.801   1.839
51479W        W23008  11.657  10.706  14.847
51480W        W23009  26.921   8.402  11.983
51481W        W23010   9.749  32.128  11.477
51482W        W23011   4.354  13.411   3.286
51483W        W23012  18.812  33.613  11.060
51484W        W23013  21.487  39.305   1.426
51485W        W23014  21.613  42.521   2.276
51486W        W23015   6.512  19.466   0.262
51487W        W23016   1.868   6.795   2.222
51488W        W23017  19.729  16.693  13.006
51489W        W23018  21.750   8.845   3.295
51490W        W23019  26.015  19.833   0.888
51491W        W23020  40.323  43.438   3.567
51492W        W23021  23.265  28.103  11.630
51493W        W23022  13.187  27.373  11.230
51494W        W23023  16.580  14.372   3.734
51495W        W23024  12.601  43.369  12.188
51496W        W23025  41.798  29.482  13.926
51497W        W23026   8.104   6.568   5.064
51498W        W23027  42.813  30.380  12.896
51499W        W23028   5.168  19.295   0.292
51500W        W23029   0.493  30.544  11.096
51501W        W23030  12.775  36.175   2.128
51502W        W23031  21.692  35.441   4.376
51503W        W23032   3.203  39.382   1.393
51504W        W23033  18.841   0.861   2.118
51505W        W23034  42.310  14.932  11.447
51506W        W23035   0.898   1.909  10.812
51507W        W23036  23.087  11.078   3.519
51508W        W23037  33.080  35.290  13.888
51509W        W23038  35.100   3.205  11.269
51510W        W23039  18.617  34.863   1.934
51511W        W23040  20.036  23.582  12.443
51512W        W23041  37.654  13.693  11.504
51513W        W23042  26.061   7.162  12.898
51514W        W23043  36.516  29.780  10.445
51515W        W23044  43.410  13.622   0.495
51516W        W23045   8.627   8.585   2.841
51517W        W23046   2.951  40.118   2.684
51518W        W23047  43.026  23.561   4.687
51519W        W23048  39.906  28.513  11.557
51520W        W23049  40.025  24.438  11.665
51521W        W23050  24.768  41.576  11.488
51522W        W23051   7.657   2.074  12.264
51523W        W23052   3.804   7.096  11.542
51524W        W23053  28.898  28.069  11.814
51525W        W23054  27.076  44.514  12.432
51526W        W23055  27.756  23.900  12.044
51527W        W23056  20.180  34.132  10.966
51528W        W23057  20.367   1.496   1.489
51529W        W23058  19.308  38.547   9.999
51530W        W23059  28.536   9.371   4.217
51531W        W23060  23.883  28.458   0.011
51532W        W23061  22.549  37.586   5.040
51533W        W23062  35.640  36.316   3.749
51534W        W23063  21.121  16.771   0.343
51535W        W23064  20.180  28.000  10.939
51536W        W23065  11.635   2.748  11.592
51537W        W23066  37.630  34.249  14.925
51538W        W23067  36.030   4.002  13.548
51539W        W23068  31.199  39.785   0.686
51540W        W23069   9.085   3.445  12.433
51541W        W23070   6.180  18.642  13.463
51542W        W23071  44.421  19.992   1.539
51543W        W23072  27.318  28.631   3.881
51544W        W23073  14.793  37.599   4.818
51545W        W23074  11.197  27.210   1.720
51546W        W23075  43.038  22.481   0.312
51547W        W23076  41.242  23.742   0.274
51548W        W23077  13.707  34.914  10.699
51549W        W23078  30.403  30.428  13.251
51550W        W23079  43.057  13.729  12.151
51551W        W23080  33.481  26.782  11.021
51552W        W23081  19.064  42.350   4.518
51553W        W23082  32.283  15.197   4.785
51554W        W23083  14.857  35.512   3.228
51555W        W23084  33.680  36.037  12.030
51556W        W23085   2.933  23.260   4.457
51557W        W23086  29.657  11.765  12.641
51558W        W23087  44.432  17.794  12.872
51559W        W23088  10.615  31.367  10.712
51560W        W23089  20.080  38.755   5.256
51561W        W23090  36.483  41.241   4.601
51562W        W23091  34.827   2.236  12.059
51563W        W23092  42.056  44.770   4.679
51564W        W23093  28.368  20.688   4.781
51565W        W23094   3.146  35.352  12.295
51566W        W23095  30.246  26.133  13.425
51567W        W23096   3.829  43.347   3.579
51568W        W23097  37.737  11.670  13.078
51569W        W23098  13.475  13.878  11.530
51570W        W23099  20.797   8.817  13.521
51571W        W23100   2.768  19.531  13.375
51572W        W23101  15.374  40.376  12.186
51573W        W23102  33.802   2.169  12.073
51574W        W23103   7.788   4.694   2.611
51575W        W23104  10.636   1.154   1.298
51576W        W23105  34.309  18.241   3.731
51577W        W23106  40.437   6.146   4.411
51578W        W23107  19.501  18.195  12.863
51579W        W23108  39.845  12.297  11.380
51580W        W23109  30.014  37.108  11.183
51581W        W23110  34.057  31.813  14.786
51582W        W23111   3.277  19.803  13.935
51583W        W23112  10.402  21.839   0.166
51584W        W23113  38.287   3.763   3.198
51585W        W23114  24.146  14.210   0.962
51586W        W23115  12.233  26.997   2.829
51587W        W23116   0.714  42.893   2.151
51588W        W23117  25.495  18.241   2.631
51589W        W23118  10.127  42.877   1.540
51590W        W23119  19.916  16.521   2.434
51591W        W23120  34.859   8.731   2.832
51592W        W23121  23.634  42.593   2.755
51593W        W23122  11.893  20.127  13.987
51594W        W23123  16.735  24.755   2.854
51595W        W23124  44.815  26.132  14.926
51596W        W23125  11.304  38.478  13.884
51597W        W23126  42.250  44.219  12.924
51598W        W23127  44.294  30.510  13.033
51599W        W23128  37.782   1.401   3.228
51600W        W23129  18.055  35.133  14.051
51601W        W23130   7.126  35.598  13.341
51602W        W23131   5.444  39.547   2.687
51603W        W23132  11.133  21.507  11.405
51604W        W23133   2.198  31.666  10.968
51605W        W23134  16.340  26.507   1.182
51606W        W23135  23.079  42.848   2.983
51607W        W23136  36.017  27.169  14.749
51608W        W23137  28.004   8.758  13.738
51609W        W23138   0.947  23.406  11.282
51610W        W23139  37.596  33.483  11.824
51611W        W23140  41.353  24.580   0.873
51612W        W23141  32.106  25.186  14.322
51613W        W23142   1.271  27.621   4.852
51614W        W23143  25.048  18.031   3.230
51615W        W23144  37.994  22.989  11.599
51616W        W23145  29.917  44.265   3.275
51617W        W23146   4.081  38.479   2.468
51618W        W23147  18.067  14.429  13.993
51619W        W23148  15.023  44.052   0.391
51620W        W23149  33.584  41.261  13.549
51621W        W23150  21.244  16.227  13.783
51622W        W23151   4.507   9.451   3.336
51623W        W23152  37.666  39.742   2.108
51624W        W23153   8.752  14.775   3.367
51625W        W23154  29.022  10.439  12.909
51626W        W23155   4.738  26.148   0.939
51627W        W23156   9.225   2.467  11.077
51628W        W23157  37.157   4.781   4.326
51629W        W23158  25.213  14.212   0.779
51630W        W23159  34.920   6.844   0.288
51631W        W23160  44.941  30.220   2.743
51632W        W23161   0.423  29.064  14.256
51633W        W23162  25.736  10.776   1.455
51634W        W23163  25.690   2.750  13.418
51635W        W23164  29.869  31.366  12.516
51636W        W23165  12.612   1.829   1.727
51637W        W23166  27.485  25.937   2.723
51638W        W23167   1.434   7.841   4.465
51639W        W23168  40.124  31.154   4.284
51640W        W23169   5.574  24.047  13.942
51641W        W23170   2.325  25.890  14.364
51642W        W23171  14.554   9.735   3.601
51643W        W23172  21.509  36.848  12.477
51644W        W23173  42.972  28.123  13.509
51645W        W23174  17.353  15.307  12.486
51646W        W23175   9.122  24.614  12.612
51647W        W23176   8.233  20.239  10.849
51648W        W23177  33.718  10.856   2.651
51649W        W23178   5.247  36.541   1.365
51650W        W23179   3.264   8.905  11.624
51651W        W23180  30.421  15.609   3.272
51652W        W23181  36.291  42.500   1.386
51653W        W23182  12.776  33.051   4.197
51654W        W23183  30.603  31.798   2.216
51655W        W23184  26.146  21.196  10.140
51656W        W23185  11.127  39.750  11.262
51657W        W23186  33.675  10.709  11.503
51658W        W23187  16.804   3.490   2.884
51659W        W23188  33.477   4.211  12.356
51660W        W23189  20.446   6.962  13.860
51661W        W23190   2.195  17.833  12.132
51662W        W23191  34.473   9.219  14.453
51663W        W23192   0.100  22.091  14.533
51664W        W23193  38.373  33.213   2.694
51665W        W23194  24.660  38.586   2.260
51666W        W23195   1.406  23.775  13.349
51667W        W23196  31.859  13.871  10.790
51668W        W23197   4.058   6.928  12.468
51669W        W23198  25.716  44.226  13.919
51670W        W23199  24.540   6.239   0.309
51671W        W23200  16.121  24.435   4.075
51672W        W23201  33.503   8.721  14.415
51673W        W23202  42.910  17.112   2.708
51674W        W23203  28.150  12.212  14.007
51675W        W23204  16.852  33.420  11.348
51676W        W23205  33.679  19.257  11.546
51677W        W23206  38.108  18.732  13.938
51678W        W23207  16.625  17.224  11.533
51679W        W23208  33.061  20.072  11.693
51680W        W23209  20.829  43.379   1.708
51681W        W23210  30.448   5.288  14.720
51682W        W23211   5.891  21.092   0.028
51683W        W23212  10.355   3.676  12.871
51684W        W23213  31.839  44.379  12.083
51685W        W23214  10.396  26.660  14.275
51686W        W23215   4.296   5.342   1.487
51687W        W23216  31.477   1.868   2.770
51688W        W23217  43.811  25.039  12.201
51689W        W23218  40.087   6.260   0.855
51690W        W23219  13.758  41.785   3.272
51691W        W23220  20.720  39.576   1.836
51692W        W23221  29.784   0.504   4.640
51693W        W23222  33.863   1.286  14.832
51694W        W23223   7.894  26.604  13.473
51695W        W23224   6.405  19.264   2.283
51696W        W23225  18.543  23.864  11.168
51697W        W23226  18.975  34.544   3.321
51698W        W23227  17.013  12.879   1.267
51699W        W23228  13.914  22.497   1.373
51700W        W23229  38.490   2.654   4.903
51701W        W23230   6.142  32.442  13.423
51702W        W23231   7.272  15.568  11.921
51703W        W23232  33.347  33.920  13.848
51704W        W23233  15.371  10.375  11.572
51705W        W23234  34.522  36.958   4.391
51706W        W23235  23.488  34.705  11.137
51707W        W23236   4.569  24.125  14.040
51708W        W23237   6.474  32.928  11.002
51709W        W23238  31.601  42.922  12.822
51710W        W23239  20.568  10.382   4.148
51711W        W23240   4.909  25.349  12.069
51712W        W23241  34.015  29.434   4.152
51713W        W23242  40.818  24.591  11.903
51714W        W23243   6.755  10.761  10.761
51715W        W23244   9.863  44.179  12.723
51716W        W23245  35.428   7.434  14.758
51717W        W23246  18.025  11.856  10.746
51718W        W23247  22.949  38.402   4.143
51719W        W23248  38.935   2.148   2.724
51720W        W23249   4.847  38.064   0.330
51721W        W23250  25.738  31.598  10.539
51722W        W23251   1.194  27.014  12.389
51723W        W23252  34.541   9.783  13.798
51724W        W23253  14.450  10.201   0.908
51725W        W23254   1.974  19.378   4.087
51726W        W23255  39.038  14.639   4.564
51727W        W23256  32.577  28.707   5.051
51728W        W23257  24.910  33.839  13.547
51729W        W23258  29.162  35.934  13.803
51730W        W23259  43.917   7.884  14.504
51731W        W23260  36.134   9.540  14.742
51732W        W23261  12.512  41.057   0.779
51733W        W23262  13.228  22.086  13.791
51734W        W23263  11.644   5.341   1.055
51735W        W23264  16.352  34.351  13.471
51736W        W23265  21.368   0.279   0.422
51737W        W23266   1.898  23.007  13.406
51738W        W23267   4.758  19.353  11.621
51739W        W23268  12.598  19.543  11.545
51740W        W23269  41.761  11.757  11.281
51741W        W23270   3.337  42.320   1.626
51742W        W23271  27.035   6.699   1.813
51743W        W23272  21.492  29.647   3.765
51744W        W23273  33.603   8.426  10.751
51745W        W23274  14.130  12.796   4.302
51746W        W23275  38.013   0.596   1.485
51747W        W23276  32.321  41.554   1.591
51748W        W23277   3.826   4.893  12.003
51749W        W23278  44.474   4.270  12.529
51750W        W23279  32.992   4.957  12.434
51751W        W23280  25.730  30.239  13.292
51752W        W23281  39.854  21.557   0.316
51753W        W23282  23.225  40.094   0.851
51754W        W23283  11.913   6.252   3.602
51755W        W23284   9.656  41.443  13.302
51756W        W23285   4.720   5.867   4.582
51757W        W23286   8.000  34.336  14.766
51758W        W23287   5.839  14.657   4.631
51759W        W23288  14.729  10.890  11.183
51760W        W23289  36.829  38.762   1.225
51761W        W23290  12.224  16.062   1.309
51762W        W23291  43.464  31.958   4.271
51763W        W23292  30.215  37.054   0.602
51764W        W23293  25.904  21.174  10.728
51765W        W23294  37.914  34.286  11.718
51766W        W23295  12.302   3.623   4.846
51767W        W23296  21.951  16.212   3.630
51768W        W23297  32.054  31.356   0.352
51769W        W23298  36.882  39.553  14.920
51770W        W23299  20.481  31.526  13.917
51771W        W23300  36.306  14.106  12.122
51772W        W23301  28.503   3.157  10.334
51773W        W23302   8.623  20.163  11.449
51774W        W23303  18.967  34.552   4.528
51775W        W23304  25.727  32.072  13.623
51776W        W23305   8.767  29.135   3.397
51777W        W23306  23.991  26.015  14.232
51778W        W23307  37.387  41.989  12.334
51779W        W23308  27.277  25.586   0.042
51780W        W23309  14.649  27.795  14.039
51781W        W23310  11.676  16.192  12.993
51782W        W23311  19.624  24.189   0.478
51783W        W23312   1.243  23.288   4.096
51784W        W23313  35.376  12.146  11.640
51785W        W23314   6.975  42.810   4.885
51786W        W23315  18.154  44.259  13.097
51787W        W23316   5.072  43.250   1.305
51788W        W23317  20.299  39.012  11.488
51789W        W23318  27.461  20.629   3.849
51790W        W23319   7.332  20.771   2.254
51791W        W23320   8.227   9.800  11.469
51792W        W23321   9.399  19.076  13.540
51793W        W23322  18.315  11.277   4.474
51794W        W23323   6.802  15.339  12.031
51795W        W23324  11.057  42.403   0.009
51796W        W23325  43.802  23.930   2.156
51797W        W23326  10.433  34.914  13.981
51798W        W23327  33.649  39.459   0.698
51799W        W23328  40.501  37.346   1.855
51800W        W23329  36.543  20.599   3.803
51801W        W23330  14.793  15.637   1.823
51802W        W23331  24.048  32.927  13.951
51803W        W23332  42.669  27.102  11.423
51804W        W23333  33.049  13.112  12.152
51805W        W23334  13.811  29.570   1.434
51806W        W23335  42.658  15.251  12.982
51807W        W23336   0.556  22.059   3.070
51808W        W23337   5.057  17.011   2.608
51809W        W23338  41.388  20.501   1.860
51810W        W23339   1.868  37.511  10.822
51811W        W23340  32.104  34.029  14.063
51812W        W23341  40.376   8.704  14.687
51813W        W23342  23.975  13.911  12.279
51814W        W23343  21.393   0.423  11.135
51815W        W23344   3.188   1.962   4.057
51816W        W23345  38.981   1.062  11.643
51817W        W23346  42.427  42.953  12.653
51818W        W23347   3.897  14.650   3.575
51819W        W23348   4.395  42.090  14.807
51820W        W23349  30.501   5.275   2.234
51821W        W23350   4.327  38.036  13.755
51822W        W23351   7.864  32.457  11.147
51823W        W23352   3.689  17.850   1.247
51824W        W23353  43.089  42.469   1.848
51825W        W23354   3.978  34.403  11.003
51826W        W23355  26.753  12.658  13.329
51827W        W23356   4.442  27.152   1.733
51828W        W23357  14.473  22.156   0.651
51829W        W23358  43.905  38.754  14.373
51830W        W23359  22.208  16.083  14.837
51831W        W23360  39.554  44.040   0.260
51832W        W23361  36.569  37.434  12.108
51833W        W23362  29.949  26.055   3.090
51834W        W23363  25.476  38.071   1.314
51835W        W23364  23.658  13.053  12.348
51836W        W23365  30.489  32.331   2.340
51837W        W23366  44.953  28.932  11.477
51838W        W23367  10.557  24.160  10.700
51839W        W23368   7.776  34.034  12.879
51840W        W23369  21.836  15.524   0.237
51841W        W23370  28.523  44.388  10.335
51842W        W23371  18.306  18.301   4.459
51843W        W23372   1.956  44.407  12.292
51844W        W23373   1.468  21.297  14.322
51845W        W23374  18.801   4.831   3.590
51846W        W23375  41.855  27.035   1.413
51847W        W23376   7.625  17.977  12.450
51848W        W23377  19.672  21.487   1.486
51849W        W23378  34.875  17.569   0.434
51850W        W23379  22.070  36.453   4.799
51851W        W23380  12.801  30.244  14.536
51852W        W23381  31.058  24.024  11.468
51853W        W23382  28.824  43.823  13.471
51854W        W23383   1.456   4.883   4.956
51855W        W23384  26.265  20.623   2.624
51856W        W23385  34.827  15.843  14.960
51857W        W23386  13.645  28.635  11.619
51858W        W23387  38.659  40.739   2.844
51859W        W23388   0.407  13.023   3.222
51860W        W23389  32.480  32.860  13.848
51861W        W23390  23.508  27.653  11.518
51862W        W23391  10.102   8.184   1.437
51863W        W23392  36.046   6.227  11.127
51864W        W23393  14.103   7.813  12.177
51865W        W23394  21.121  31.433   2.850
51866W        W23395  27.059  37.110  13.019
51867W        W23396  16.462  26.522   1.711
51868W        W23397  18.714  23.949   2.385
51869W        W23398  30.116  32.109  14.818
51870W        W23399  40.495  15.921  14.342
51871W        W23400  33.208  13.099  14.605
51872W        W23401  11.263  11.249  13.521
51873W        W23402  35.435  44.793   0.165
51874W        W23403  24.299  23.550   4.182
51875W        W23404   9.123  32.520   3.841
51876W        W23405  29.882  12.275  10.090
51877W        W23406   2.944  18.311   2.207
51878W        W23407   8.052  11.424   1.439
51879W        W23408  20.886  35.644  14.063
51880W        W23409  14.129  39.735   4.024
51881W        W23410  34.156   1.257  13.280
51882W        W23411   6.648   6.268  12.929
51883W        W23412   7.622  32.585   4.943
51884W        W23413  23.278  38.916   1.251
51885W        W23414   0.271  22.449  10.651
51886W        W23415  18.527  28.492   3.789
51887W        W23416  19.652  17.734   1.019
51888W        W23417  28.230  12.062   0.850
51889W        W23418  26.953  42.938  13.145
51890W        W23419   7.347  32.396   3.625
51891W        W23420  41.616   5.729  14.324
51892W        W23421  21.244   7.473  10.795
51893W        W23422  13.780  16.609  12.427
51894W        W23423  22.197  32.485  12.931
51895W        W23424  26.924  14.302   3.903
51896W        W23425  26.183  30.554  11.187
51897W        W23426  17.657  19.744  11.392
51898W        W23427  21.399  38.416   0.175
51899W        W23428  34.985  15.851   2.850
51900W        W23429  11.789  29.081  13.793
51901W        W23430  42.694   9.216  12.495
51902W        W23431   7.762   8.820  13.378
51903W        W23432  32.990  33.532  10.927
51904W        W23433  31.109  21.267   4.984
51905W        W23434  14.650  26.906   4.259
51906W        W23435  40.118  36.049  10.730
51907W        W23436   0.242  32.899   1.720
51908W        W23437  18.809  38.569  14.373
51909W        W23438  14.733  44.320   1.722
51910W        W23439  40.840   0.871   3.423
51911W        W23440  39.025   1.421  12.948
51912W        W23441   2.867  44.349  13.126
51913W        W23442   7.235  29.964   4.662
51914W        W23443  24.507   1.850   4.146
51915W        W23444   3.533  29.731   1.733
51916W        W23445  16.084  28.573  14.445
51917W        W23446  41.005   5.359  11.557
51918W        W23447  39.345   2.686   3.347
51919W        W23448   4.453  21.584   3.555
51920W        W23449  26.032  25.020  11.200
51921W        W23450  11.958  41.779  11.824
51922W        W23451   5.150  38.451   1.413
51923W        W23452   3.872  27.956   0.859
51924W        W23453  13.655  41.432   4.448
51925W        W23454  39.929   2.490   0.450
51926W        W23455   9.261  37.231  11.242
51927W        W23456   4.263  43.094  12.437
51928W        W23457  21.972  34.057   3.119
51929W        W23458  15.781   3.128  13.886
51930W        W23459   1.488   4.618  14.128
51931W        W23460  35.022   9.941   0.879
51932W        W23461  34.023   1.911   2.816
51933W        W23462  22.173  15.245  13.035
51934W        W23463  20.299   4.657  11.526
51935W        W23464  30.957  10.801  10.670
51936W        W23465   9.359  41.402   1.286
51937W        W23466  16.040   8.095  11.569
51938W        W23467   8.465  38.258   3.225
51939W        W23468  21.112   3.552   0.159
51940W        W23469  26.076  19.786   2.121
51941W        W23470  19.111  35.334   1.431
51942W        W23471  42.695  21.769   1.419
51943W        W23472  23.633  22.731  14.772
51944W        W23473  16.865  42.475  13.970
51945W        W23474   6.691  12.090   2.821
51946W        W23475  18.056  32.953  12.564
51947W        W23476  35.345  34.870  13.829
51948W        W23477  15.527  27.254   4.595
51949W        W23478  40.231  19.871   2.173
51950W        W23479  38.843  10.661   4.151
51951W        W23480  12.116   3.173   1.174
51952W        W23481  42.206  19.723  12.853
51953W        W23482  40.286  27.139  13.905
51954W        W23483  23.563  36.919  11.172
51955W        W23484  43.977  22.465  12.530
51956W        W23485  36.347  17.342   0.439
51957W        W23486  44.206  22.473   1.373
51958W        W23487  43.546  28.676   4.132
51959W        W23488  10.334  43.368   0.941
51960W        W23489  13.192  43.215  13.800
51961W        W23490  44.957  19.473   0.976
51962W        W23491   0.359  25.114   2.367
51963W        W23492  44.864  25.322   4.123
51964W        W23493  31.374  40.380  11.216
51965W        W23494  43.287  40.115  12.165
51966W        W23495  43.501  28.057  14.767
51967W        W23496  30.047  42.805   0.555
51968W        W23497  15.626  22.577  13.505
51969W        W23498   0.539  22.693  13.400
51970W        W23499   7.849   8.161   2.784
51971W        W23500  37.475  34.391   1.411
51972W        W23501  42.486  17.090  14.904
51973W        W23502   1.060   6.814  10.808
51974W        W23503  30.665  27.161  13.565
51975W        W23504   3.519   4.600   2.665
51976W        W23505   7.418   6.754  12.838
51977W        W23506  28.426  14.132  14.558
51978W        W23507   7.306  33.809   3.824
51979W        W23508  25.796  26.997   2.106
51980W        W23509  38.611  31.090  10.912
51981W        W23510  34.833  32.024  11.180
51982W        W23511  34.292  16.153  13.098
51983W        W23512   8.159   3.472  12.895
51984W        W23513  14.193  12.831   1.417
51985W        W23514  39.012  31.104   3.349
51986W        W23515   9.631  44.515  14.471
51987W        W23516  21.419  17.158  11.527
51988W        W23517  17.877  40.472   1.352
51989W        W23518   1.443  24.195   0.979
51990W        W23519  41.789  10.502  12.982
51991W        W23520  26.512  37.373  10.779
51992W        W23521  36.521  28.672   4.726
51993W        W23522  38.470  34.083  13.278
51994W        W23523  36.676  19.286   2.200
51995W        W23524  42.346  37.155  11.565
51996W        W23525  28.023   9.788  13.077
51997W        W23526  13.235  33.869  11.932
51998W        W23527  22.724  28.049  11.704
51999W        W23528   1.508  14.787  13.842
52000W        W23529   8.113  25.799  13.914
52001W        W23530   4.424  14.565  14.728
52002W        W23531  44.749  15.715   0.693
52003W        W23532  32.714   3.805   0.274
52004W        W23533  23.094  40.803  13.888
52005W        W23534  28.359  14.364   3.622
52006W        W23535  16.898  25.975  12.006
52007W        W23536  12.213  11.347  14.004
52008W        W23537   2.482  10.242  14.035
52009W        W23538  15.327  32.986   2.845
52010W        W23539  10.769   6.718   2.894
52011W        W23540  43.283   9.367   3.254
52012W        W23541  19.036  17.815  10.712
52013W        W23542  38.979  40.306   2.619
52014W        W23543  16.656  33.326  13.206
52015W        W23544  21.076  19.038   1.760
52016W        W23545  35.071  26.660   1.435
52017W        W23546  10.497  38.239  12.033
52018W        W23547  27.368  23.240   0.335
52019W        W23548   0.202  44.985  10.953
52020W        W23549  31.908  33.078   5.047
52021W        W23550  42.766  24.675   1.820
52022W        W23551  10.298  23.217  12.109
52023W        W23552  23.198  40.050  13.435
52024W        W23553  17.354  13.609  14.019
52025W        W23554  33.935  11.553   1.446
52026W        W23555  26.004   2.332  14.420
52027W        W23556   4.404  15.836  14.861
52028W        W23557   3.381  42.083  13.450
52029W        W23558  26.880  39.473   0.283
52030W        W23559   4.682  17.138   1.185
52031W        W23560  14.294  37.056  11.687
52032W        W23561  20.749  36.869   0.798
52033W        W23562  16.834  16.067   1.533
52034W        W23563  28.663  15.573  14.147
52035W        W23564   6.713  25.406   1.875
52036W        W23565  12.690  19.092  13.805
52037W        W23566  22.876   1.436   4.392
52038W        W23567   7.411  35.864   1.726
52039W        W23568   1.693  36.586  13.963
52040W        W23569  10.357  33.568   2.819
52041W        W23570  29.488  21.880  11.049
52042W        W23571  42.907  19.250  10.666
52043W        W23572  22.148  17.860   2.885
52044W        W23573   6.304  32.146   0.179
52045W        W23574  20.445  17.583  13.859
52046W        W23575   9.886   7.921   0.207
52047W        W23576  25.083  39.324   4.566
52048W        W23577  23.298  12.120   1.913
52049W        W23578  14.616   4.332  12.296
52050W        W23579  29.916   7.150  14.831
52051W        W23580  39.908  44.792  12.594
52052W        W23581  25.267  20.018   1.403
52053W        W23582   5.763   8.871   2.146
52054W        W23583  44.136  44.101  12.506
52055W        W23584   9.792   5.686  13.454
52056W        W23585  40.816  29.670   4.683
52057W        W23586  35.609  14.916  13.847
52058W        W23587  41.304  40.778   1.496
52059W        W23588  25.849  37.002  10.546
52060W        W23589  30.719  10.335   3.724
52061W        W23590  34.867   9.791  13.367
52062W        W23591   4.431  21.654  14.392
52063W        W23592  41.219  29.177  12.003
52064W        W23593  26.394   3.774   2.403
52065W        W23594  39.559   7.150   4.541
52066W        W23595   2.496   3.951   2.379
52067W        W23596  40.459   2.388   0.429
52068W        W23597   7.565  11.615   2.926
52069W        W23598  41.294   9.669   1.852
52070W        W23599   1.616  33.630   0.224
52071W        W23600  20.211  40.461  14.715
52072W        W23601  31.125   8.454   2.907
52073W        W23602  41.016  17.636   2.911
52074W        W23603  17.227   6.872  11.411
52075W        W23604  36.469  42.349   4.049
52076W        W23605  25.567  44.296   3.796
52077W        W23606  16.218  28.987  14.114
52078W        W23607  37.726  44.278   5.161
52079W        W23608  32.663  37.432  10.677
52080W        W23609   1.172  18.276  11.611
52081W        W23610  37.415  21.242  10.733
52082W        W23611  23.522  29.506   2.126
52083W        W23612  33.936  34.364  13.411
52084W        W23613  28.223  35.251  14.606
52085W        W23614  21.464  29.546  14.954
52086W        W23615  11.071  39.871  12.438
52087W        W23616  38.600  24.273  11.845
52088W        W23617  42.264   9.887  11.146
52089W        W23618   5.033  13.022   4.145
52090W        W23619   3.678  17.284   2.635
52091W        W23620   6.036  21.441  11.678
52092W        W23621  17.481  23.536  10.613
52093W        W23622  44.076   3.266   4.923
52094W        W23623  43.379  33.704  14.902
52095W        W23624  26.394  23.201   4.794
52096W        W23625   5.341   2.167   0.244
52097W        W23626  12.596  37.140  11.860
52098W        W23627   0.772  16.027  14.052
52099W        W23628  43.988   9.833  13.428
52100W        W23629  41.700  30.157  11.542
52101W        W23630  38.834  31.053  12.522
52102W        W23631   7.808  41.010   2.227
52103W        W23632  29.615  30.002   0.396
52104W        W23633  32.334  12.828   1.922
52105W        W23634   4.637  13.329   4.072
52106W        W23635  39.646   1.721  11.595
52107W        W23636  42.494   3.800  11.185
52108W        W23637  35.461   1.252   2.824
52109W        W23638  29.885  19.809   3.687
52110W        W23639  39.940  24.147   0.110
52111W        W23640   8.771  14.702   3.863
52112W        W23641  32.352   8.324   0.467
52113W        W23642  15.619  20.985   2.860
52114W        W23643  37.429  32.904  10.695
52115W        W23644   7.942  17.459  11.087
52116W        W23645  20.169   8.742   1.479
52117W        W23646  25.239  14.168  11.706
52118W        W23647  39.232  41.449   1.743
52119W        W23648  18.255   5.456  10.793
52120W        W23649   0.797  34.224   0.996
52121W        W23650  44.982  12.632   1.862
52122W        W23651  37.989  42.354   1.665
52123W        W23652  11.132  15.245  11.068
52124W        W23653  22.922   6.368  13.399
52125W        W23654   8.914  18.221   1.390
52126W        W23655   6.582   4.828  14.335
52127W        W23656   8.910  15.124   4.135
52128W        W23657   4.834  42.036   2.392
52129W        W23658  24.887  33.912  14.826
52130W        W23659   7.812  21.627   0.755
52131W        W23660   3.131  34.286   3.566
52132W        W23661  26.068  44.807   0.254
52133W        W23662  19.472   3.882  14.326
52134W        W23663  10.226  39.572   2.917
52135W        W23664  30.837  44.527  13.210
52136W        W23665  14.756   0.384   1.631
52137W        W23666   7.904  35.473   1.681
52138W        W23667  33.788  43.516   2.119
52139W        W23668  37.718  12.104   2.805
52140W        W23669  18.112  24.372  10.536
52141W        W23670  40.047  32.542  12.617
52142W        W23671  24.593   4.430   4.058
52143W        W23672  37.322  37.842  11.907
52144W        W23673   5.275   9.306   2.924
52145W        W23674  11.200  11.081   2.868
52146W        W23675  14.545   4.467   4.024
52147W        W23676  22.918  29.046  11.384
52148W        W23677  40.813  10.809  11.731
52149W        W23678  24.017  11.871   0.338
52150W        W23679  17.730  32.293   0.755
52151W        W23680  42.532  16.048  13.286
52152W        W23681  33.448   8.729  13.526
52153W        W23682  33.094   7.698  13.521
52154W        W23683   0.746  30.072  10.088
52155W        W23684  43.047  40.762   2.844
52156W        W23685  34.357  38.076  12.729
52157W        W23686  24.940  38.440   4.582
52158W        W23687  34.185  22.812  12.452
52159W        W23688  25.009  11.453   1.197
52160W        W23689   6.277  32.989  14.815
52161W        W23690  36.482  39.907  13.272
52162W        W23691  18.172  10.483  13.485
52163W        W23692  19.980  28.500  14.797
52164W        W23693  20.439  28.156  10.166
52165W        W23694   5.778  10.125  14.384
52166W        W23695  19.296  25.940  14.436
52167W        W23696  18.274  16.529   4.852
52168W        W23697   7.064  34.982  13.786
52169W        W23698  37.464   8.178  12.498
52170W        W23699   1.497  12.568  10.809
52171W        W23700   3.965  36.609  14.355
52172W        W23701  30.975  13.303   2.301
52173W        W23702  35.254  28.551   3.738
52174W        W23703  39.510  32.448  12.561
52175W        W23704   6.722  28.155  14.733
52176W        W23705  14.332  14.926  14.496
52177W        W23706  40.964   6.807  11.675
52178W        W23707  31.855  21.233   2.358
52179W        W23708   4.194  29.562   4.108
52180W        W23709  41.783   2.038   1.015
52181W        W23710  41.492  32.011  12.269
52182W        W23711  12.308  12.220   3.259
52183W        W23712  40.877  14.221   4.681
52184W        W23713  34.504   2.015   2.658
52185W        W23714  14.598   1.725  10.251
52186W        W23715  11.161  23.809   4.115
52187W        W23716  25.107  15.717  12.074
52188W        W23717   3.184  25.031  11.592
52189W        W23718  18.311  19.122  13.275
52190W        W23719  16.217  16.645   1.319
52191W        W23720  29.681  34.829   5.555
52192W        W23721  15.071   6.481   2.365
52193W        W23722   5.054   5.193   3.599
52194W        W23723  40.450   5.096  12.883
52195W        W23724  31.312   7.269  10.045
52196W        W23725  35.542  30.582   2.712
52197W        W23726  12.381  32.237  11.353
52198W        W23727   7.894   6.341  14.370
52199W        W23728  11.863  16.908   3.190
52200W        W23729  37.839  42.581  11.586
52201W        W23730  26.119   9.891   0.996
52202W        W23731  32.437  17.632  10.885
52203W        W23732   1.276  36.123   1.817
52204W        W23733  21.021  34.967  12.389
52205W        W23734   6.322  37.350   2.255
52206W        W23735  39.320  33.530   1.781
52207W        W23736  14.619  42.393   4.096
52208W        W23737  20.063  13.171  12.153
52209W        W23738   2.228  12.035   0.546
52210W        W23739  19.424  17.626  11.615
52211W        W23740  26.092  18.551   0.499
52212W        W23741  20.308  23.370  11.510
52213W        W23742  36.499  22.120   1.002
52214W        W23743  29.420   7.752   0.253
52215W        W23744  44.676  10.925   1.605
52216W        W23745  41.918  33.203   0.889
52217W        W23746  14.367  17.328   2.285
52218W        W23747  26.076  13.377  11.182
52219W        W23748  22.972   3.532  13.368
52220W        W23749   2.792   9.129  11.555
52221W        W23750  26.059  29.918  13.051
52222W        W23751   0.745  24.230  11.600
52223W        W23752  21.037  28.721  13.208
52224W        W23753  14.699   6.598   1.400
52225W        W23754   9.042  11.253   0.860
52226W        W23755  12.366  37.973   0.837
52227W        W23756  21.764   5.203   2.766
52228W        W23757  34.988  12.319  13.442
52229W        W23758  16.812  40.979  12.465
52230W        W23759   5.034  30.997   1.480
52231W        W23760  25.928  40.723  13.912
52232W        W23761  35.190  20.905   3.248
52233W        W23762  44.897  41.567   1.313
52234W        W23763  21.242  36.486   2.105
52235W        W23764  31.041  20.316   0.857
52236W        W23765  20.520   1.492   0.711
52237W        W23766   3.387  31.371   0.831
52238W        W23767  21.031   6.983  13.442
52239W        W23768  12.379  27.438   4.153
52240W        W23769  44.863   3.938  14.456
52241W        W23770  25.118   4.827   3.052
52242W        W23771  14.841  32.791   1.597
52243W        W23772   5.757  15.040   1.371
52244W        W23773  38.439   4.887   2.805
52245W        W23774  20.157   0.974   4.292
52246W        W23775   7.407  31.218  14.458
52247W        W23776  10.861   1.223   0.448
52248W        W23777  25.323   2.264  11.227
52249W        W23778  19.475  37.784  14.337
52250W        W23779   7.913  28.437   1.023
52251W        W23780  38.053  32.985   0.591
52252W        W23781  34.582  31.443   2.223
52253W        W23782  23.702   9.822   1.862
52254W        W23783  24.312  36.269  11.152
52255W        W23784  20.896  33.941   0.997
52256W        W23785  30.692  36.003  12.890
52257W        W23786  42.795  31.668   0.084
52258W        W23787  16.331  19.281  12.584
52259W        W23788  39.511  26.569   4.150
52260W        W23789  13.491  34.103  14.896
52261W        W23790  19.171   0.314   0.709
52262W        W23791  13.064  22.569   4.605
52263W        W23792  17.586  25.607   0.297
52264W        W23793   8.435  30.762   0.519
52265W        W23794  23.077   7.364  13.141
52266W        W23795  16.629  26.602  13.842
52267W        W23796  12.760   4.994   1.454
52268W        W23797   5.674   8.355   5.003
52269W        W23798  42.493   7.545  13.548
52270W        W23799  12.687  35.511  11.021
52271W        W23800  28.863  36.613  14.503
52272W        W23801  32.187  31.960  12.550
52273W        W23802  24.652  14.063   2.720
52274W        W23803  10.692  44.962  13.350
52275W        W23804  11.203   6.550   0.488
52276W        W23805  35.197  22.214   2.729
52277W        W23806  11.066   2.113   5.073
52278W        W23807   7.201  32.406  11.703
52279W        W23808  39.745  42.472   1.460
52280W        W23809   1.383  42.863   3.599
52281W        W23810  17.779   0.244  14.868
52282W        W23811  14.791  35.671  10.758
52283W        W23812  12.331   1.259  14.007
52284W        W23813   2.484   8.769   2.823
52285W        W23814  41.838  15.133   4.645
52286W        W23815  26.479  24.652  14.788
52287W        W23816   6.165  25.729  11.178
52288W        W23817   4.419  20.205  13.356
52289W        W23818  10.864   1.482   0.910
52290W        W23819  33.462   0.088   2.837
52291W        W23820   8.593  14.920   2.369
52292W        W23821  34.754  20.936   2.459
52293W        W23822  19.995  26.622   1.326
52294W        W23823  11.664  30.049  11.412
52295W        W23824  15.514  27.321   2.349
52296W        W23825   9.577   6.249   1.953
52297W        W23826  24.633  37.967   2.444
52298W        W23827  43.335  26.587   0.328
52299W        W23828  13.180  41.948   0.362
52300W        W23829  20.995  39.717   4.488
52301W        W23830  30.893  10.960  14.764
52302W        W23831  34.540  41.549   0.854
52303W        W23832  43.033  34.434   2.435
52304W        W23833   7.598  34.883  11.176
52305W        W23834  34.636  10.689   1.291
52306W        W23835  37.618   0.364   2.231
52307W        W23836  22.798   1.003   1.697
52308W        W23837  28.573  37.789   4.644
52309W        W23838  31.664  33.860  14.289
52310W        W23839  11.438  15.778   3.705
52311W        W23840  33.077  33.970  10.595
52312W        W23841  14.370  17.981  10.785
52313W        W23842  35.756  25.768   5.151
52314W        W23843  25.513  15.774   2.463
52315W        W23844  17.075  44.269  11.093
52316W        W23845  39.372  42.297   4.104
52317W        W23846  40.934  32.907  11.523
52318W        W23847  43.101  40.916   4.751
52319W        W23848  25.041  43.783   3.753
52320W        W23849  11.823  36.388   0.745
52321W        W23850  24.107  27.166  10.771
52322W        W23851  30.517  10.889   2.311
52323W        W23852  22.893  19.425   1.963
52324W        W23853  42.585  42.504  12.026
52325W        W23854  13.104  32.158   5.052
52326W        W23855   5.452  12.779   0.275
52327W        W23856  18.306  38.029  12.040
52328W        W23857   6.945  19.270   1.389
52329W        W23858  39.368  41.668  12.581
52330W        W23859  15.962  29.973   2.173
52331W        W23860  44.585  44.879  13.173
52332W        W23861  16.270  29.081   2.626
52333W        W23862  34.250  30.147  13.391
52334W        W23863  25.652   4.944  12.519
52335W        W23864  11.711  27.613  12.429
52336W        W23865  36.167  14.601  12.461
52337W        W23866   7.151   7.338  14.890
52338W        W23867  43.180  39.776  13.911
52339W        W23868  23.725  14.236  11.963
52340W        W23869   1.217  20.806   1.659
52341W        W23870  11.835  25.689  10.647
52342W        W23871  20.943   3.845  11.915
52343W        W23872  33.336   4.964   2.174
52344W        W23873   5.858  27.651  11.171
52345W        W23874  29.152  43.848  14.041
52346W        W23875  18.630  23.738  14.563
52347W        W23876  12.378   8.443  10.709
52348W        W23877   1.900  29.565  10.531
52349W        W23878  43.989  23.112   4.149
52350W        W23879  24.606  28.452   1.759
52351W        W23880  29.753  31.619  12.091
52352W        W23881  40.342  15.895   2.753
52353W        W23882  36.702  44.484  10.805
52354W        W23883  20.447  19.971  13.986
52355W        W23884  18.983  16.087   4.234
52356W        W23885   8.790  44.451   4.591
52357W        W23886  36.162  44.062  12.092
52358W        W23887   0.580  25.107   4.869
52359W        W23888  18.619  33.368   0.810
52360W        W23889  17.304  41.467  10.708
52361W        W23890  19.824  28.888   1.912
52362W        W23891  43.767   9.688   0.666
52363W        W23892  41.011   9.633   4.133
52364W        W23893  23.430   3.280   4.657
52365W        W23894  21.492  30.833   4.820
52366W        W23895   4.272  13.351   0.486
52367W        W23896  15.385  32.536   2.279
52368W        W23897   3.986  25.964  13.905
52369W        W23898  15.300   5.599   2.119
52370W        W23899   3.472   9.745   3.326
52371W        W23900  14.168   8.913  11.387
52372W        W23901  36.932  30.674   0.905
52373W        W23902  38.778   0.886  12.597
52374W        W23903  21.837  11.675   1.745
52375W        W23904   2.575  14.019  11.676
52376W        W23905  42.216  13.348   2.277
52377W        W23906  22.120   6.689   4.171
52378W        W23907   2.515  43.363   2.368
52379W        W23908  13.081   6.102   0.083
52380W        W23909   4.204  25.090  12.990
52381W        W23910  44.945   1.874  13.929
52382W        W23911  30.728  22.982   4.748
52383W        W23912  17.584   7.797  11.637
52384W        W23913   2.401   2.089  13.381
52385W        W23914   7.860   7.798   3.160
52386W        W23915   3.557  33.889  10.967
52387W        W23916  13.598   0.638  10.601
52388W        W23917  18.379  15.217  10.507
52389W        W23918  14.372  13.328   4.263
52390W        W23919   5.309  41.029   4.413
52391W        W23920  42.608  11.662   2.962
52392W        W23921  14.185  18.471  13.540
52393W        W23922   3.330   2.396  11.126
52394W        W23923  35.358  42.890   2.818
52395W        W23924   5.926  17.661   2.278
52396W        W23925   5.419  16.945   4.827
52397W        W23926  10.629  26.205  10.438
52398W        W23927  16.578   1.161  12.631
52399W        W23928  29.667   6.684  10.934
52400W        W23929  33.322  28.001  14.478
52401W        W23930   9.790  15.878   2.422
52402W        W23931  37.277  43.489   0.501
52403W        W23932  26.733  20.993  11.950
52404W        W23933  33.468  41.880  14.410
52405W        W23934  25.731  14.740  11.107
52406W        W23935  26.487  33.915   0.021
52407W        W23936   2.457   3.562   2.718
52408W        W23937  10.707  28.600  13.859
52409W        W23938  15.800  26.874  14.654
52410W        W23939  38.878  40.473   0.209
52411W        W23940  35.557   6.004  11.642
52412W        W23941  44.291  26.790   4.234
52413W        W23942   1.064  26.471   2.149
52414W        W23943   4.311  42.975  11.017
52415W        W23944   9.358   8.611   3.744
52416W        W23945  12.145   5.602   2.722
52417W        W23946  37.629  31.493   2.816
52418W        W23947   8.962  31.031  12.637
52419W        W23948  25.233  16.830   2.785
52420W        W23949  44.840  12.441  13.490
52421W        W23950   0.403  30.044   0.221
52422W        W23951  12.036  23.333   3.205
52423W        W23952  43.219  14.180   3.646
52424W        W23953  37.334   1.766   3.669
52425W        W23954  35.444  15.671   3.097
52426W        W23955  11.876  23.273  12.494
52427W        W23956   0.433  44.204  13.532
52428W        W23957  17.712  44.284  12.836
52429W        W23958  31.550   9.819  13.107
52430W        W23959  35.560  26.490   0.108
52431W        W23960  44.028  18.671   0.448
52432W        W23961  41.846   3.218   0.171
52433W        W23962  30.587  40.137   4.184
52434W        W23963  21.057  14.925   5.079
52435W        W23964  31.437  18.181   4.129
52436W        W23965  38.536  38.822  14.854
52437W        W23966   5.839   0.661  13.315
52438W        W23967  22.557  10.790  13.943
52439W        W23968   3.746  40.720  12.457
52440W        W23969  42.944  16.779  14.814
52441W        W23970   3.346  24.550  12.087
52442W        W23971  27.056  32.075  12.165
52443W        W23972  35.768   2.517  11.126
52444W        W23973  27.681   0.452  12.976
52445W        W23974  23.439  42.892   1.047
52446W        W23975   9.939  20.729  14.424
52447W        W23976  39.990  20.540   1.301
52448W        W23977  19.897  29.974  14.777
52449W        W23978   2.009  13.337  10.819
52450W        W23979  43.290   9.740   0.840
52451W        W23980  13.580   8.331   2.210
52452W        W23981  32.220  40.535  11.091
52453W        W23982  26.597  30.559  13.445
52454W        W23983  40.944  33.371   4.210
52455W        W23984  12.640  10.851   2.635
52456W        W23985  35.368  34.419  14.710
52457W        W23986   5.181  44.265  11.629
52458W        W23987   4.957  30.047   0.328
52459W        W23988  41.915  17.008   4.044
52460W        W23989  13.160  41.611  12.499
52461W        W23990  26.176  37.374   5.044
52462W        W23991  16.082  32.941   3.134
52463W        W23992  33.314  24.108  14.451
52464W        W23993  40.800   7.894   3.694
52465W        W23994  20.788  25.343   2.868
52466W        W23995  23.762  32.122  14.449
52467W        W23996  34.603   8.378   1.116
52468W        W23997  18.115  19.736  14.621
52469W        W23998  11.455  13.631  12.982
52470W        W23999  30.724   4.978  11.671
52471W        W24000  16.467  37.077   4.287
52472W        W24001  15.034   5.846  11.904
52473W        W24002  31.010   8.418   3.425
52474W        W24003  26.587  21.752   1.282
52475W        W24004  38.792  19.752  14.244
52476W        W24005  13.177  11.568  11.599
52477W        W24006  17.615  36.895   0.797
52478W        W24007  18.843  24.225  14.960
52479W        W24008  12.427  14.150  11.591
52480W        W24009  22.983  41.305   2.397
52481W        W24010   1.413  37.419   2.020
52482W        W24011  21.100  14.313  11.123
52483W        W24012  31.380  42.919  11.922
52484W        W24013   5.291  15.556   0.918
52485W        W24014  27.190  11.560  14.719
52486W        W24015  41.569  30.035   0.321
52487W        W24016  20.865  42.337  14.874
52488W        W24017  40.758  28.011   0.025
52489W        W24018   7.521  13.367   2.812
52490W        W24019   9.932  11.271  13.854
52491W        W24020   7.714  19.778   1.462
52492W        W24021  25.066  18.683  13.958
52493W        W24022  24.728  23.277   4.055
52494W        W24023   2.914  29.715  10.792
52495W        W24024   1.156   6.256   3.136
52496W        W24025   2.813  37.102  14.845
52497W        W24026   1.411  30.033  14.020
52498W        W24027  26.554   5.507  13.014
52499W        W24028  33.482  23.809  12.640
52500W        W24029   5.818  17.748   2.824
52501W        W24030   5.870  35.879   3.767
52502W        W24031  14.237  25.568   3.271
52503W        W24032   3.161  10.770  11.370
52504W        W24033   5.477  27.382  10.918
52505W        W24034   3.390  30.857   0.911
52506W        W24035  38.752  11.969   2.274
52507W        W24036  41.804  16.568  10.705
52508W        W24037   2.772  18.181  13.360
52509W        W24038  32.444   8.373  14.306
52510W        W24039  32.142  27.675  13.344
52511W        W24040  21.732   6.918   2.234
52512W        W24041   7.733  33.156  10.820
52513W        W24042  21.372   4.317   4.981
52514W        W24043  11.884  34.597   3.171
52515W        W24044   2.253  16.220  13.027
52516W        W24045  43.657  40.414  13.389
52517W        W24046  19.665  32.061  14.167
52518W        W24047   1.767  38.302   2.862
52519W        W24048  12.825  14.531   4.201
52520W        W24049   5.684   1.682   2.739
52521W        W24050  12.769  23.818  13.856
52522W        W24051  23.204  10.612   3.791
52523W        W24052  11.878  43.745   4.217
52524W        W24053  36.981  15.806   1.073
52525W        W24054  26.605  30.102   4.880
52526W        W24055  29.647   3.219   4.564
52527W        W24056   4.853  31.588   3.178
52528W        W24057  40.025  35.471   0.035
52529W        W24058  28.597  16.651  12.376
52530W        W24059   5.801  26.779  13.838
52531W        W24060  13.220  34.858   3.818
52532W        W24061  24.160  10.878  14.520
52533W        W24062   3.344  24.885   0.323
52534W        W24063   1.513  22.727  14.354
52535W        W24064  16.643  14.051   2.909
52536W        W24065  26.462  42.845   1.413
52537W        W24066  19.228   7.200  11.166
52538W        W24067  33.427  26.673   0.211
52539W        W24068   9.258  33.906  14.862
52540W        W24069   3.958  22.163  10.659
52541W        W24070   4.877  11.484   1.061
52542W        W24071  11.516   5.274  11.507
52543W        W24072  23.395  27.085   3.618
52544W        W24073   3.952  35.984  13.235
52545W        W24074  29.630   7.826   4.093
52546W        W24075  23.698  35.559   1.863
52547W        W24076  28.500   1.376   4.375
52548W        W24077  18.503  24.690   3.314
52549W        W24078  17.872   2.519  11.565
52550W        W24079  13.555  30.064  14.093
52551W        W24080  30.915  37.020  14.298
52552W        W24081  33.305  36.944  14.023
52553W        W24082   6.916  23.936  10.779
52554W        W24083  19.800  36.321  14.417
52555W        W24084  32.212  39.526   4.177
52556W        W24085  19.202  25.792  14.974
52557W        W24086   1.777   8.458  13.845
52558W        W24087  21.538  31.896  10.961
52559W        W24088  32.603   8.653  12.612
52560W        W24089  40.553  10.112   5.309
52561W        W24090   4.378  24.546   3.381
52562W        W24091  17.631  29.577   1.108
52563W        W24092  25.459   0.856  11.054
52564W        W24093  11.829  34.910   0.066
52565W        W24094  19.312  33.409  13.580
52566W        W24095   2.509   2.865  12.251
52567W        W24096  29.671  22.948   0.818
52568W        W24097  39.954   3.488   2.462
52569W        W24098  20.991  40.457  13.144
52570W        W24099   9.671   2.721  14.375
52571W        W24100   5.730   8.578  14.374
52572W        W24101  27.567   1.713   4.232
52573W        W24102  11.974  27.224  14.859
52574W        W24103  10.348  24.280  13.249
52575W        W24104  38.672  17.034  10.227
52576W        W24105   9.695  21.167   4.048
52577W        W24106  15.814  11.722  10.874
52578W        W24107  19.029   5.162   3.180
52579W        W24108  38.557  37.509   4.586
52580W        W24109   1.826  21.559   1.350
52581W        W24110  35.430   4.628  12.162
52582W        W24111  31.820  13.154  13.662
52583W        W24112  16.164  22.039   1.901
52584W        W24113  20.566  14.343   0.318
52585W        W24114  34.143  26.591   4.228
52586W        W24115   1.793  31.667   0.900
52587W        W24116  14.585  38.533   2.315
52588W        W24117  12.894  26.999  14.518
52589W        W24118  22.414  13.579   4.089
52590W        W24119  16.733  34.335  13.812
52591W        W24120  35.931  26.370  14.314
52592W        W24121  31.057  16.893   9.815
52593W        W24122  36.061  10.084  11.099
52594W        W24123  19.501   5.369   4.067
52595W        W24124  17.663  32.520   0.198
52596W        W24125  35.934  43.461   3.854
52597W        W24126  10.777  38.848   4.178
52598W        W24127  34.492  40.832   2.918
52599W        W24128  36.984  29.334   3.037
52600W        W24129  37.696  21.029  14.514
52601W        W24130  12.952  23.451   2.866
52602W        W24131  13.224  19.798  12.973
52603W        W24132  10.312  18.248   0.823
52604W        W24133   8.925  10.945   3.979
52605W        W24134  40.076   5.121   0.571
52606W        W24135  16.911  11.026  10.675
52607W        W24136  29.225  31.690  10.737
52608W        W24137   0.753   8.924   3.627
52609W        W24138  17.781  43.906   0.670
52610W        W24139  28.311  32.285  11.369
52611W        W24140  23.060  22.330  14.576
52612W        W24141   7.937   1.038   3.545
52613W        W24142  30.466  14.854  11.151
52614W        W24143  20.754   1.256   2.685
52615W        W24144  35.568  13.736  12.415
52616W        W24145  34.110  15.870   4.590
52617W        W24146   7.670  28.265  10.676
52618W        W24147  34.389  36.521   2.160
52619W        W24148  14.214  35.512   0.302
52620W        W24149  40.395  10.143   0.395
52621W        W24150   4.163  38.555   3.717
52622W        W24151  16.721  29.759  11.178
52623W        W24152   5.997   3.789  11.267
52624W        W24153  36.454   2.269   1.926
52625W        W24154   3.668  43.293  12.967
52626W        W24155  22.295  40.678  13.486
52627W        W24156  42.498  24.213   1.875
52628W        W24157  16.797  37.592  14.576
52629W        W24158  29.473  20.291   1.549
52630W        W24159   9.925  13.118  14.081
52631W        W24160  15.659  35.920   2.865
52632W        W24161  13.121  18.591   4.615
52633W        W24162   8.827  38.512  13.385
52634W        W24163  29.540  30.487   1.871
52635W        W24164  43.779  36.564  12.408
52636W        W24165  42.279  13.625   1.222
52637W        W24166  10.949  17.062   3.211
52638W        W24167   5.216  10.362   0.254
52639W        W24168  25.965   2.265  11.988
52640W        W24169   8.849  11.110  14.877
52641W        W24170  33.418   5.767   2.828
52642W        W24171  33.261  28.714   0.355
52643W        W24172  33.186  11.293  12.119
52644W        W24173  18.145  23.808  14.403
52645W        W24174  12.760   3.013   1.222
52646W        W24175  44.223  21.325  12.626
52647W        W24176   8.707  37.222   0.739
52648W        W24177   0.190  27.474  11.989
52649W        W24178   6.774  20.838  12.894
52650W        W24179  40.781  44.730   3.311
52651W        W24180  33.104   8.394  11.522
52652W        W24181   3.278  14.310   4.733
52653W        W24182  23.787  30.961  12.586
52654W        W24183  10.177  21.586  12.457
52655W        W24184   2.260  17.013   0.644
52656W        W24185  21.069  10.889  11.604
52657W        W24186   4.334  18.033  11.426
52658W        W24187  32.790  34.617   2.432
52659W        W24188  32.052  20.101  13.406
52660W        W24189   7.711  30.167  12.467
52661W        W24190   5.551  37.375   3.412
52662W        W24191  20.290   3.467  11.820
52663W        W24192  39.581   7.181   0.756
52664W        W24193  34.690  11.231   0.428
52665W        W24194  30.223  21.788  10.609
52666W        W24195  21.599  24.432  11.197
52667W        W24196  13.087  43.750  10.988
52668W        W24197  24.622  27.967   1.967
52669W        W24198  12.714  11.872  10.693
52670W        W24199  27.029  41.969   2.217
52671W        W24200  11.834  28.894  11.587
52672W        W24201  13.201  44.758  10.977
52673W        W24202  19.043  23.749   2.764
52674W        W24203   7.812  17.215  11.915
52675W        W24204   8.283  38.354   2.370
52676W        W24205  40.780  35.085  13.241
52677W        W24206  30.716  10.867   3.709
52678W        W24207  26.668  15.670  10.983
52679W        W24208   8.675  12.139   4.777
52680W        W24209  25.658  21.798  11.596
52681W        W24210  24.258  16.601   2.764
52682W        W24211   6.852  14.746  14.945
52683W        W24212  32.790   2.206   2.656
52684W        W24213  31.281  14.559   0.954
52685W        W24214  31.104  28.100   4.994
52686W        W24215  17.625  30.452  12.026
52687W        W24216  10.670   6.666   0.829
52688W        W24217  15.516  36.471   1.373
52689W        W24218  38.382  33.553   3.074
52690W        W24219  35.453  15.588  10.399
52691W        W24220  33.074  25.596   3.657
52692W        W24221  17.465   7.648  13.830
52693W        W24222  18.580  21.146   4.542
52694W        W24223  43.865  36.037   4.728
52695W        W24224  39.915  27.730   1.501
52696W        W24225  33.147  39.663  11.103
52697W        W24226  32.635  27.696  14.796
52698W        W24227  40.060  32.155  11.959
52699W        W24228  34.549  17.259   3.869
52700W        W24229  35.078  44.927  12.023
52701W        W24230  26.449  21.170  13.498
52702W        W24231  42.404  42.922  11.611
52703W        W24232   1.214  11.202   0.725
52704W        W24233  41.455  28.622   0.362
52705W        W24234   4.742  19.973   0.294
52706W        W24235  18.473  34.386   4.502
52707W        W24236  41.249  24.115  12.048
52708W        W24237  37.026  19.002   0.212
52709W        W24238  12.831  40.281  12.088
52710W        W24239  21.573  37.109  14.910
52711W        W24240   9.429  33.559  11.135
52712W        W24241  24.814  10.294  12.657
52713W        W24242   4.836   2.309   4.909
52714W        W24243   7.667  21.996  13.361
52715W        W24244  38.350   0.230   1.656
52716W        W24245  38.760  25.137   4.662
52717W        W24246  12.254  12.579   1.356
52718W        W24247  42.872   3.189   5.138
52719W        W24248   3.922  18.649   1.676
52720W        W24249  19.526  39.713  14.704
52721W        W24250  32.024  20.045   3.112
52722W        W24251  16.703   2.421   1.957
52723W        W24252   3.077  16.900   1.932
52724W        W24253  14.182  39.542   1.978
52725W        W24254  31.148  33.346   1.681
52726W        W24255  15.377  15.107  14.545
52727W        W24256  43.437  28.764  12.459
52728W        W24257   0.407  27.046   3.732
52729W        W24258  22.010  40.412  12.770
52730W        W24259  26.547   0.818  12.821
52731W        W24260  24.446   7.304   5.224
52732W        W24261  17.703  33.703   0.387
52733W        W24262  33.428  32.761   3.817
52734W        W24263  28.927  35.871  11.546
52735W        W24264  33.176  21.026   1.924
52736W        W24265  29.958  42.844   2.027
52737W        W24266  33.146   6.162  13.863
52738W        W24267   8.638   6.237   1.600
52739W        W24268  17.671   4.650   3.341
52740W        W24269  36.782  27.177  13.083
52741W        W24270  22.217   9.597  10.733
52742W        W24271  22.771  37.553   2.672
52743W        W24272   8.522   6.480   1.126
52744W        W24273  25.817  43.775  14.833
52745W        W24274  14.790  14.649   3.349
52746W        W24275  15.357  20.195  13.154
52747W        W24276   5.814  21.805   0.800
52748W        W24277  43.466  15.693   2.680
52749W        W24278   8.754  43.829  11.904
52750W        W24279  28.119  27.914   4.550
52751W        W24280  31.411  14.060   0.500
52752W        W24281   4.706  11.149   3.607
52753W        W24282   0.905   1.746  14.999
52754W        W24283   3.171  11.507   0.387
52755W        W24284  11.272  22.902  13.263
52756W        W24285  20.787  44.976  11.642
52757W        W24286  41.438  13.089  13.433
52758W        W24287  35.086   4.464  13.385
52759W        W24288   9.157   2.329   0.753
52760W        W24289   7.352  25.213   0.040
52761W        W24290  16.509  16.192   2.440
52762W        W24291   6.818   3.491   2.342
52763W        W24292  12.044  14.197   4.833
52764W        W24293  40.741  15.182   2.715
52765W        W24294  40.334  19.251  12.452
52766W        W24295  10.071  12.835  10.745
52767W        W24296  19.639  26.039  14.826
52768W        W24297   7.317   6.878  14.675
52769W        W24298  35.928  18.656  10.645
52770W        W24299  40.048  20.062  14.547
52771W        W24300  33.191  19.122  11.603
52772W        W24301  12.575   3.254  14.779
52773W        W24302  27.720  21.147   0.960
52774W        W24303   3.107  29.051  11.524
52775W        W24304  26.497  21.428   1.735
52776W        W24305  38.570   5.168   0.281
52777W        W24306  42.765   7.972  11.087
52778W        W24307   1.219  25.072  13.289
52779W        W24308  35.155   5.030  11.633
52780W        W24309  42.806  35.785  12.800
52781W        W24310  39.657   4.788   0.846
52782W        W24311  13.936   9.330  13.924
52783W        W24312   2.192   0.098   4.437
52784W        W24313  35.598   2.404   1.254
52785W        W24314  19.715  14.683   2.232
52786W        W24315   4.599  16.827   2.963
52787W        W24316   1.287  43.965  14.837
52788W        W24317  20.702   7.932  11.948
52789W        W24318  29.410  17.319  13.948
52790W        W24319  28.191  22.159   2.279
52791W        W24320  35.766  23.710  13.911
52792W        W24321  39.906   6.907  12.417
52793W        W24322  30.617  29.553   4.748
52794W        W24323  41.459  35.840  12.361
52795W        W24324   1.719  25.955  13.199
52796W        W24325  40.997  42.549  14.866
52797W        W24326  12.385  39.048  13.575
52798W        W24327  20.967  21.546   1.345
52799W        W24328  25.436  40.861  13.719
52800W        W24329   0.007  23.829   0.955
52801W        W24330  30.088  12.093  14.233
52802W        W24331  34.371  10.650  11.135
52803W        W24332  24.130   1.982  11.552
52804W        W24333   0.428   7.756   3.230
52805W        W24334   0.877  23.842  13.138
52806W        W24335  34.555  28.362  12.456
52807W        W24336   8.475  16.169   2.191
52808W        W24337  10.692  44.263  11.239
52809W        W24338  18.579   2.349  14.518
52810W        W24339  13.363  40.736   3.683
52811W        W24340   4.736  31.187  14.811
52812W        W24341  22.052  31.610   3.269
52813W        W24342   8.233  21.133  10.366
52814W        W24343  29.516  32.973   3.175
52815W        W24344  27.354   9.223  13.321
52816W        W24345  13.612  17.765   4.900
52817W        W24346  18.661  23.241  13.961
52818W        W24347  41.426  42.299   2.735
52819W        W24348  39.344   5.277  10.870
52820W        W24349  29.861  40.799  14.158
52821W        W24350   8.559  42.983   0.836
52822W        W24351  18.150   3.296   3.674
52823W        W24352  22.566  32.867   3.215
52824W        W24353  21.213  23.067   0.022
52825W        W24354  23.221  36.725  13.929
52826W        W24355  12.680  32.520   1.904
52827W        W24356  41.465  10.836  10.808
52828W        W24357  28.404  11.160   1.740
52829W        W24358   5.989  15.760  13.288
52830W        W24359   5.382  24.677   1.935
52831W        W24360   5.392   8.568   4.631
52832W        W24361  44.985   7.917  10.465
52833W        W24362  24.053  42.932  14.780
52834W        W24363  21.053   4.498  14.862
52835W        W24364  13.511  12.352   1.045
52836W        W24365   5.895  30.466   0.400
52837W        W24366  33.603  10.291   1.849
52838W        W24367  30.025  19.995  13.869
52839W        W24368  22.536  44.704   1.596
52840W        W24369  24.598  35.089   1.336
52841W        W24370  16.060  39.960   2.648
52842W        W24371  32.779  11.083  14.258
52843W        W24372  37.408   4.070  12.382
52844W        W24373  33.892  21.064   3.518
52845W        W24374   8.339   4.866  14.891
52846W        W24375  31.682   5.274   4.938
52847W        W24376   3.384   4.868  13.041
52848W        W24377   8.814  26.269   0.037
52849W        W24378  18.155  35.177  14.556
52850W        W24379  12.632  14.739   3.732
52851W        W24380  17.117  18.562   2.373
52852W        W24381  21.404  14.737  13.435
52853W        W24382   7.675  22.090   0.942
52854W        W24383  15.632   3.767  12.861
52855W        W24384  23.167  20.062   4.361
52856W        W24385  26.737  12.325   1.674
52857W        W24386  18.557   4.216  13.355
52858W        W24387  20.113  17.631   0.307
52859W        W24388  13.681  17.690  13.751
52860W        W24389  43.319  30.694  12.967
52861W        W24390  33.050  14.741  13.005
52862W        W24391  30.571   9.048   0.034
52863W        W24392   3.851  18.254  10.659
52864W        W24393  12.339  17.810  13.973
52865W        W24394  35.793  13.999  11.993
52866W        W24395  31.113  21.044  14.916
52867W        W24396   6.224  29.531   4.165
52868W        W24397  42.078  15.843  14.370
52869W        W24398  43.112  25.094   4.303
52870W        W24399   9.816  20.317   3.973
52871W        W24400  17.674  14.591   2.504
52872W        W24401  33.474  12.355   1.319
52873W        W24402  19.519  32.805   4.214
52874W        W24403  43.175   8.890  13.142
52875W        W24404  20.629   8.547  14.777
52876W        W24405  15.066  10.067  11.243
52877W        W24406   6.987  42.290  14.046
52878W        W24407  12.366   7.605   4.831
52879W        W24408   5.333  25.177   1.801
52880W        W24409   1.229  15.587   2.259
52881W        W24410  41.245  33.135   2.569
52882W        W24411  22.098   0.170  11.732
52883W        W24412  36.634  44.937  14.078
52884W        W24413  22.612  44.967  13.629
52885W        W24414   2.458  11.019   2.247
52886W        W24415   3.383  13.398  14.951
52887W        W24416  22.776  44.413  12.942
52888W        W24417  26.856  38.840  14.273
52889W        W24418  21.325  12.802   1.712
52890W        W24419  24.762  18.800   2.964
52891W        W24420  15.639  37.422   0.329
52892W        W24421  25.776  23.024  10.397
52893W        W24422   2.735  36.912   2.170
52894W        W24423  35.933  28.191   3.481
52895W        W24424  15.738  12.792  12.416
52896W        W24425   6.358  20.518   9.490
52897W        W24426  20.680   1.633  12.954
52898W        W24427  41.577  19.604   3.209
52899W        W24428  14.089   0.872  11.578
52900W        W24429  34.889   9.219   2.282
52901W        W24430  19.290  26.791   0.335
52902W        W24431  16.965  13.157   3.321
52903W        W24432  31.608   1.918   4.164
52904W        W24433  44.372  24.228   0.335
52905W        W24434  32.889  28.890  10.653
52906W        W24435  24.381  16.976  12.844
52907W        W24436  25.002   1.778  13.002
52908W        W24437   4.367  28.122  12.088
52909W        W24438  34.542   7.474   3.332
52910W        W24439   1.855   8.280   1.335
52911W        W24440   5.658  10.677   2.882
52912W        W24441  34.871  35.476   2.337
52913W        W24442  26.168  19.357   0.750
52914W        W24443  11.648  10.965  12.321
52915W        W24444  19.055  17.334   3.909
52916W        W24445  38.479  17.255   2.777
52917W        W24446  42.590   4.817   0.095
52918W        W24447  12.837   3.689  14.533
52919W        W24448  12.588  19.116   1.681
52920W        W24449   3.946  33.846   1.275
52921W        W24450  13.110  38.583  13.395
52922W        W24451  39.696  13.627   1.322
52923W        W24452  42.524  31.585   3.623
52924W        W24453  20.550  19.171   4.797
52925W        W24454  21.977  37.068  12.457
52926W        W24455  41.389  39.550   3.754
52927W        W24456  30.369  32.672  12.601
52928W        W24457  24.066  37.255   0.783
52929W        W24458  36.936   2.066   4.048
52930W        W24459  42.587  34.906   0.817
52931W        W24460  27.974  37.973  11.108
52932W        W24461  17.026  18.630   3.294
52933W        W24462  44.101   6.031  11.459
52934W        W24463  44.086   9.302  14.896
52935W        W24464  20.089  37.811  13.109
52936W        W24465  32.084  12.632   3.274
52937W        W24466  33.725  29.187   3.202
52938W        W24467   8.717  22.069  13.176
52939W        W24468  24.861   2.263  12.523
52940W        W24469   8.210  32.567   3.669
52941W        W24470  19.291   7.602  14.771
52942W        W24471  37.956  25.009   4.163
52943W        W24472  22.723   5.318  14.696
52944W        W24473  28.957  24.258   4.594
52945W        W24474  29.522  21.592  13.564
52946W        W24475   7.018   3.749  12.919
52947W        W24476  19.313  12.329  12.909
52948W        W24477  26.146  12.331   2.792
52949W        W24478  19.593  40.553  11.613
52950W        W24479   3.458  44.091   4.645
52951W        W24480   1.507  10.656   3.249
52952W        W24481  37.757   4.238  11.987
52953W        W24482  25.704   9.633   0.817
52954W        W24483  13.279  39.321   3.331
52955W        W24484  40.245  44.033  14.579
52956W        W24485  12.431  34.058  13.451
52957W        W24486   4.349  27.713   0.698
52958W        W24487  29.562  20.723   4.093
52959W        W24488  17.240   0.306  14.860
52960W        W24489  36.018  12.522  12.944
52961W        W24490  29.485  35.530  13.872
52962W        W24491   5.482  42.373  13.983
52963W        W24492  26.035  32.592   1.404
52964W        W24493  17.544  18.239   2.264
52965W        W24494   4.735  31.422  14.327
52966W        W24495  11.587  42.449  14.960
52967W        W24496  41.812  12.492   3.055
52968W        W24497  40.581  22.562  14.303
52969W        W24498  12.206  31.525   4.381
52970W        W24499  27.593   7.871  10.973
52971W        W24500  12.769  38.512  12.967
52972W        W24501  31.024  43.208  14.877
52973W        W24502   4.653   9.149  12.608
52974W        W24503   9.328  25.397   2.646
52975W        W24504  15.411  43.891   4.946
52976W        W24505  38.387  26.186   3.718
52977W        W24506  44.762   1.322  11.400
52978W        W24507   4.218   2.264   2.447
52979W        W24508  10.228  23.039   3.836
52980W        W24509   8.168  29.483  12.545
52981W        W24510  31.488   1.902   4.673
52982W        W24511  41.620  12.101   3.341
52983W        W24512  21.270  40.524  13.961
52984W        W24513  37.828  26.568  10.213
52985W        W24514  38.917  12.924  12.176
52986W        W24515  11.652  28.421   0.715
52987W        W24516  30.183   8.416   4.772
52988W        W24517  35.060  30.476   2.380
52989W        W24518  39.448   1.515   2.923
52990W        W24519  34.650   3.894   3.316
52991W        W24520   8.813   3.523   4.924
52992W        W24521   5.197   1.366   0.054
52993W        W24522  15.794   2.724   4.633
52994W        W24523  18.103  15.716  14.314
52995W        W24524  29.980  19.316  12.486
52996W        W24525  22.995   4.434  11.559
52997W        W24526   9.762   8.016   4.219
52998W        W24527  42.944  24.163   2.629
52999W        W24528   5.308  31.233  14.037
53000W        W24529  27.268   2.420  14.854
53001W        W24530   3.312   8.334  14.797
53002W        W24531  27.709  44.023  14.196
53003W        W24532  28.439  28.414  13.808
53004W        W24533  20.653  29.937   1.172
53005W        W24534  35.978   7.261  13.490
53006W        W24535  23.926  36.488   0.030
53007W        W24536  29.081  17.763   0.464
53008W        W24537  22.277  22.989   0.884
53009W        W24538  17.759  17.367   2.289
53010W        W24539  41.279  14.133   3.692
53011W        W24540  40.351  16.121  14.846
53012W        W24541  13.654  32.546  12.931
53013W        W24542  35.129  33.150  12.378
53014W        W24543  12.197  43.844  13.883
53015W        W24544  35.979  34.394  12.826
53016W        W24545   9.610   3.590   0.854
53017W        W24546  35.882   5.020   4.685
53018W        W24547  28.594  28.067   1.707
53019W        W24548  29.209  22.239   2.276
53020W        W24549  22.790  17.788   4.217
53021W        W24550  25.986   9.462  10.701
53022W        W24551  35.606   6.727   0.025
53023W        W24552   4.539  26.270  13.139
53024W        W24553   7.918  29.904  13.690
53025W        W24554  21.048  29.470   4.004
53026W        W24555  43.324  20.822  12.949
53027W        W24556  16.626  32.026  11.173
53028W        W24557  41.776  17.478  11.149
53029W        W24558   3.875  16.734  13.708
53030W        W24559  15.866  38.492   0.537
53031W        W24560  32.095   8.859   2.632
53032W        W24561  26.605  32.864  14.372
53033W        W24562  37.016  25.858  12.000
53034W        W24563  18.977  34.844   2.331
53035W        W24564  41.574   2.989   2.899
53036W        W24565  11.656  12.851   2.689
53037W        W24566  25.547  33.369   1.429
53038W        W24567  39.432  41.511   3.654
53039W        W24568  29.163  44.911  11.166
53040W        W24569  21.151   2.201  14.726
53041W        W24570  12.353  10.131   0.160
53042W        W24571  43.793  21.107  13.346
53043W        W24572  13.766  24.940  11.639
53044W        W24573  27.806  19.565   5.018
53045W        W24574  30.857  31.232  14.952
53046W        W24575  32.252   6.495  11.600
53047W        W24576  38.430  43.430  12.418
53048W        W24577  33.985  26.805  14.451
53049W        W24578   6.443   8.202   4.116
53050W        W24579   0.453  22.481  11.601
53051W        W24580  27.930  25.584   4.087
53052W        W24581  42.989  30.045   0.216
53053W        W24582  38.948  44.413  10.674
53054W        W24583   1.672  39.572  14.840
53055W        W24584  15.026  25.684  11.083
53056W        W24585  41.418  42.314   0.027
53057W        W24586  29.921   5.358   2.881
53058W        W24587   4.964  27.129   1.029
53059W        W24588   2.707  26.512   0.722
53060W        W24589  15.620  27.479  12.052
53061W        W24590  11.258  32.229  14.383
53062W        W24591  31.371   9.131   1.991
53063W        W24592  10.622  32.604  11.055
53064W        W24593  44.064   3.777   4.738
53065W        W24594  42.272   2.824   1.584
53066W        W24595  31.422  34.651   4.012
53067W        W24596  22.189   9.938  11.126
53068W        W24597  23.449  34.330  12.937
53069W        W24598   3.362   9.214   0.352
53070W        W24599  34.474  30.698   0.744
53071W        W24600   1.474  41.934  12.000
53072W        W24601  37.890   0.501  14.974
53073W        W24602  43.273  11.837   0.872
53074W        W24603  10.587  41.089  14.236
53075W        W24604  39.273  21.418   2.371
53076W        W24605   5.609  24.681  12.461
53077W        W24606  26.624  38.241  12.478
53078W        W24607  13.905  36.953  12.962
53079W        W24608  14.379  19.052   2.659
53080W        W24609   6.280  27.999  10.108
53081W        W24610  12.268  21.969   2.207
53082W        W24611  32.348  16.264  11.963
53083W        W24612  39.995  14.257  11.436
53084W        W24613  30.213  26.664   4.409
53085W        W24614  15.574  34.174   3.857
53086W        W24615  40.925  42.842   2.147
53087W        W24616  35.296  10.083   4.868
53088W        W24617   7.437  32.115  13.896
53089W        W24618  17.943  30.475  14.910
53090W        W24619   0.511  19.446   3.385
53091W        W24620  26.846  29.431  10.474
53092W        W24621  24.807  30.874  12.367
53093W        W24622  38.939  17.113   2.423
53094W        W24623   0.234  25.450  11.444
53095W        W24624  14.389  21.669  13.959
53096W        W24625  30.558   8.853   2.631
53097W        W24626  16.054   6.776   0.801
53098W        W24627   5.913  40.260   4.279
53099W        W24628  26.187   6.933  14.413
53100W        W24629  29.019   8.334   4.642
53101W        W24630  11.375  41.201  13.615
53102W        W24631   5.107  37.608   3.551
53103W        W24632  14.415  36.882   4.107
53104W        W24633  29.689  26.382  14.749
53105W        W24634  15.669  39.806  12.517
53106W        W24635  22.924   0.328   4.123
53107W        W24636  35.055   2.356  11.621
53108W        W24637   3.011   3.352  14.438
53109W        W24638  34.270   6.672   3.147
53110W        W24639   1.210  25.032   3.978
53111W        W24640  44.047  12.755   2.217
53112W        W24641  34.927  25.660  12.971
53113W        W24642  29.678  33.298   3.642
53114W        W24643  14.258  14.901  14.997
53115W        W24644  38.610  42.971  14.094
53116W        W24645  18.279  36.917  10.781
53117W        W24646   3.400  29.473  10.792
53118W        W24647   2.682   3.917   1.866
53119W        W24648   2.742  28.864  11.061
53120W        W24649   9.359  15.598   2.347
53121W        W24650  22.502   3.798   0.821
53122W        W24651  20.686  43.414  13.493
53123W        W24652  39.390  17.361  12.389
53124W        W24653  19.215  34.943  10.615
53125W        W24654  13.810  28.463  14.975
53126W        W24655  31.013  22.159  13.867
53127W        W24656  30.283   0.355  11.634
53128W        W24657  28.717  39.313   0.834
53129W        W24658  25.989  20.217  13.376
53130W        W24659  29.721   8.295   3.850
53131W        W24660   3.293  41.792  11.635
53132W        W24661  43.809  37.005   3.351
53133W        W24662   3.307  20.086   1.443
53134W        W24663  30.204  30.436   3.743
53135W        W24664  15.569  24.681  13.904
53136W        W24665  43.062  35.361  12.538
53137W        W24666  42.846  40.971   1.373
53138W        W24667  17.881  44.908   1.880
53139W        W24668  14.186  25.910  12.801
53140W        W24669  13.737  20.267   1.758
53141W        W24670  23.790  34.500  10.762
53142W        W24671   4.191  34.845  14.512
53143W        W24672   1.042  19.104   4.443
53144W        W24673  22.562  31.489  11.139
53145W        W24674  15.029  16.176  11.981
53146W        W24675  32.443  31.031  14.415
53147W        W24676  30.615  23.705   0.889
53148W        W24677   4.587  26.033   4.007
53149W        W24678  18.960   2.103  14.803
53150W        W24679  38.111   0.992   3.240
53151W        W24680   1.491   6.571  10.989
53152W        W24681  13.704  33.231   2.474
53153W        W24682  15.840  26.066  13.955
53154W        W24683   6.231  17.273  12.564
53155W        W24684  37.982  39.814   0.893
53156W        W24685  16.502  42.594   1.332
53157W        W24686  26.895  33.106  10.611
53158W        W24687  21.722  10.222   3.672
53159W        W24688  42.660  28.975  14.412
53160W        W24689   0.011  17.063  13.328
53161W        W24690  31.821   2.388  11.464
53162W        W24691  18.622  20.899   1.829
53163W        W24692  13.784  15.532  10.502
53164W        W24693  34.460  25.139   1.890
53165W        W24694   9.835  22.664  11.085
53166W        W24695   2.042  25.354   2.791
53167W        W24696  24.152   7.080   0.422
53168W        W24697  40.060  18.041  12.432
53169W        W24698   3.406   0.449  12.236
53170W        W24699  21.679  13.299  14.481
53171W        W24700  40.450  14.574   3.303
53172W        W24701  20.533  33.421   0.335
53173W        W24702  26.039  35.582  13.872
53174W        W24703  10.371  14.780   1.319
53175W        W24704  39.431  13.874  10.436
53176W        W24705  27.060  28.292  12.627
53177W        W24706   2.169  29.074  12.393
53178W        W24707  10.436   1.493  14.206
53179W        W24708  19.395  17.277  14.301
53180W        W24709  11.381  43.813   0.256
53181W        W24710  18.814   3.848   0.126
53182W        W24711  28.946  37.624   3.588
53183W        W24712  11.973  30.852   3.231
53184W        W24713  13.621  15.193  13.980
53185W        W24714  17.081  10.932   0.496
53186W        W24715  21.612  14.921  13.887
53187W        W24716  28.826   5.682   0.817
53188W        W24717  16.735  43.306   0.277
53189W        W24718  34.939  28.148   1.811
53190W        W24719  43.460  15.950  14.317
53191W        W24720   3.476   7.059   3.766
53192W        W24721   4.072  14.376  10.373
53193W        W24722   4.585  44.677   1.265
53194W        W24723  22.516   5.624  11.577
53195W        W24724  21.237   1.634   4.970
53196W        W24725  39.338  28.681   2.227
53197W        W24726  26.119  39.562  11.208
53198W        W24727  10.240  20.047   4.069
53199W        W24728   3.413  44.225   3.624
53200W        W24729   5.263  32.385  13.561
53201W        W24730  42.630  19.743  13.359
53202W        W24731  25.273  31.422  12.973
53203W        W24732   5.263  25.139   2.688
53204W        W24733  30.983  14.232  13.305
53205W        W24734  34.940  21.057  10.366
53206W        W24735  35.355  16.215  14.341
53207W        W24736  34.314  38.065  14.951
53208W        W24737  15.271  30.831  14.434
53209W        W24738  11.388   0.745   0.906
53210W        W24739  18.079  12.123  11.180
53211W        W24740  18.032  16.112   4.629
53212W        W24741   0.162  34.512  14.181
53213W        W24742  43.461  16.193   3.408
53214W        W24743   7.132   4.933   4.309
53215W        W24744  13.371  13.349  14.879
53216W        W24745  36.425  37.193   1.895
53217W        W24746  15.087  35.869  11.631
53218W        W24747  43.434  36.860   2.568
53219W        W24748  42.409  28.973   4.563
53220W        W24749  12.334  21.748  13.229
53221W        W24750  16.211  38.703  13.991
53222W        W24751  22.557  21.693  11.002
53223W        W24752  36.562  13.803  10.530
53224W        W24753  12.004   1.672  14.022
53225W        W24754  33.134   1.396   4.636
53226W        W24755   4.319  10.976   2.300
53227W        W24756  33.886   5.728  11.481
53228W        W24757   2.290  33.338  13.966
53229W        W24758  44.577   1.844   2.762
53230W        W24759   3.940  38.252  10.691
53231W        W24760  12.712  43.962  14.772
53232W        W24761  33.054  39.117   3.196
53233W        W24762   9.194   3.834  13.606
53234W        W24763   1.226  10.913  11.181
53235W        W24764   8.230   2.283  14.409
53236W        W24765   3.890  33.670   1.969
53237W        W24766  28.868   8.119   4.151
53238W        W24767  11.748  15.188  12.892
53239W        W24768  12.067   4.466   0.980
53240W        W24769   7.875  33.649  10.820
53241W        W24770  31.068  41.177   5.023
53242W        W24771  11.123  31.212   3.188
53243W        W24772  31.361   4.041   0.795
53244W        W24773  32.163   6.815  11.214
53245W        W24774  13.752   9.171   2.607
53246W        W24775  30.148  38.924   4.129
53247W        W24776   0.326  38.887   4.349
53248W        W24777  13.118  40.644  14.637
53249W        W24778  18.413  18.249  13.298
53250W        W24779  28.840  29.551  12.525
53251W        W24780  16.558  13.534   4.775
53252W        W24781  21.228  15.010  11.695
53253W        W24782  17.169   5.061  12.656
53254W        W24783   5.121  10.141  10.766
53255W        W24784   3.676  33.371   2.350
53256W        W24785   7.173  15.177  14.873
53257W        W24786  36.828  25.199  14.822
53258W        W24787  17.739  20.548   3.964
53259W        W24788  32.862  37.308  12.929
53260W        W24789  27.676  44.011  12.909
53261W        W24790  26.069  15.672   2.544
53262W        W24791  30.882   1.247   4.278
53263W        W24792   3.221  16.765   0.915
53264W        W24793  14.318  22.840  14.987
53265W        W24794  11.931   9.878   0.374
53266W        W24795  41.143  37.835  11.530
53267W        W24796   8.150  29.937   3.838
53268W        W24797  35.361  18.113  10.999
53269W        W24798  17.748  21.065  14.851
53270W        W24799  30.533  21.472   2.386
53271W        W24800  43.091  21.741  10.983
53272W        W24801  12.348  41.482  11.975
53273W        W24802  12.154  34.872  13.913
53274W        W24803   9.161  22.560  11.686
53275W        W24804  30.846  30.172  14.917
53276W        W24805  12.399  32.729   2.340
53277W        W24806  16.303  19.283   5.380
53278W        W24807   3.774   8.356   3.665
53279W        W24808  43.492  26.251   3.338
53280W        W24809  20.557  15.103   0.747
53281W        W24810  15.057  18.700  14.831
53282W        W24811  39.910  41.115   4.493
53283W        W24812  14.791  39.068  11.143
53284W        W24813   2.429  23.296   2.243
53285W        W24814  41.962   7.776  12.865
53286W        W24815  29.890  19.755   0.868
53287W        W24816   6.185  27.506   3.929
53288W        W24817   0.380  17.204   0.687
53289W        W24818  27.489  28.647  13.506
53290W        W24819  34.426  42.671  12.077
53291W        W24820   2.878  33.854  12.958
53292W        W24821  12.182  40.847  12.799
53293W        W24822  32.592  32.142   3.767
53294W        W24823  16.346  36.213   4.597
53295W        W24824  24.498  13.780  11.503
53296W        W24825  43.951   2.311  11.519
53297W        W24826  43.452  36.841   2.051
53298W        W24827  28.168  31.545   3.752
53299W        W24828  20.696   3.444  12.124
53300W        W24829  37.474  18.637  11.210
53301W        W24830  28.870  28.568   0.785
53302W        W24831   7.295  20.243   3.621
53303W        W24832   7.673  24.404   0.472
53304W        W24833  34.039  30.144  12.194
53305W        W24834   0.827  30.896  11.331
53306W        W24835  11.122  24.733   2.125
53307W        W24836   9.117   5.334  14.873
53308W        W24837   4.794  42.793   1.168
53309W        W24838  33.271  15.281  14.515
53310W        W24839  39.126   8.759  13.328
53311W        W24840   8.805  17.797   1.710
53312W        W24841  14.739  16.957   1.336
53313W        W24842   3.999   4.865   2.601
53314W        W24843  15.786   5.299  11.012
53315W        W24844  26.055  33.902   2.711
53316W        W24845  23.568  34.822  12.222
53317W        W24846  37.403  29.212   4.689
53318W        W24847  11.172   5.259   1.226
53319W        W24848  16.414  38.455  13.575
53320W        W24849   7.242  22.078   0.011
53321W        W24850   9.851   4.132  12.681
53322W        W24851  29.659  27.128   2.292
53323W        W24852  42.353  19.713   2.250
53324W        W24853  22.584  37.565  12.168
53325W        W24854  29.611  19.749   4.492
53326W        W24855  31.857  40.453   4.342
53327W        W24856  31.913  36.650  11.910
53328W        W24857  17.220   8.224  14.381
53329W        W24858  34.863   1.619  10.777
53330W        W24859   2.805  44.262  14.938
53331W        W24860   0.505  19.025  10.720
53332W        W24861  25.200  22.612   4.504
53333W        W24862  20.812   2.920  13.462
53334W        W24863  23.032  11.148   1.462
53335W        W24864  17.080  36.296  14.339
53336W        W24865  11.650   2.278  13.513
53337W        W24866   9.619  13.226  11.992
53338W        W24867  12.145   9.795  13.953
53339W        W24868  44.277   3.181   3.916
53340W        W24869  40.064   1.345  12.854
53341W        W24870   3.334   0.892  14.706
53342W        W24871   7.715  34.108   3.884
53343W        W24872  24.248  27.261  11.242
53344W        W24873  37.122   6.141  14.436
53345W        W24874  22.672  14.314   2.255
53346W        W24875  29.193  12.693   3.748
53347W        W24876  15.129  11.635   1.215
53348W        W24877  32.462  18.174   2.852
53349W        W24878  14.184  16.357  14.761
53350W        W24879  26.441  31.858   4.102
53351W        W24880  30.674   6.216   2.361
53352W        W24881  12.695  10.504  14.888
53353W        W24882  41.232  33.295  11.153
53354W        W24883  34.462  26.450  11.467
53355W        W24884   7.582   5.258  12.056
53356W        W24885  14.607  27.464   2.901
53357W        W24886   3.252   8.787   0.076
53358W        W24887  40.297   3.923  14.217
53359W        W24888  17.214  29.410  13.078
53360W        W24889  40.170  30.609   3.450
53361W        W24890  30.994  26.314  12.843
53362W        W24891   5.336  28.360  12.212
53363W        W24892  34.497  35.487  12.675
53364W        W24893  35.437  12.112   3.808
53365W        W24894  21.734  37.350  14.210
53366W        W24895  11.758  37.452  14.214
53367W        W24896   7.777   7.901   0.386
53368W        W24897  34.607  32.187  12.106
53369W        W24898  23.236  18.544  12.661
53370W        W24899  21.771  24.607   1.197
53371W        W24900   0.690  17.691  14.889
53372W        W24901  42.782  37.431   3.587
53373W        W24902  29.557   5.706  13.151
53374W        W24903   2.966  36.891  12.119
53375W        W24904   0.786  11.989   0.459
53376W        W24905  39.086  29.114   3.732
53377W        W24906  19.031  11.689  11.628
53378W        W24907  13.255  16.502   4.484
53379W        W24908   4.236   5.865   4.739
53380W        W24909  23.625  26.745   4.359
53381W        W24910  22.464  20.124  12.167
53382W        W24911  16.737   5.949  13.323
53383W        W24912  39.840  12.723  11.700
53384W        W24913  40.864  22.025   2.242
53385W        W24914  29.663  14.598  11.533
53386W        W24915  24.680  40.447   0.299
53387W        W24916  37.979  11.111  14.811
53388W        W24917  31.249  21.377   0.994
53389W        W24918  42.990  12.276   4.704
53390W        W24919  26.491  17.816  13.580
53391W        W24920  41.026   6.915  13.480
53392W        W24921  20.025  23.919   0.321
53393W        W24922  31.927   4.353  13.285
53394W        W24923  30.118  10.338   1.754
53395W        W24924  36.348  19.679  14.570
53396W        W24925  44.316   9.461  10.720
53397W        W24926  19.912  30.525   3.207
53398W        W24927  14.332  24.970  14.967
53399W        W24928   5.969  29.953   0.372
53400W        W24929   4.475  17.308   0.720
53401W        W24930   1.787  11.668  10.943
53402W        W24931  26.744  41.207   2.406
53403W        W24932  18.573  37.825  11.591
53404W        W24933  35.984   3.491  13.514
53405W        W24934  26.707   3.569   4.501
53406W        W24935  11.694  15.648   0.504
53407W        W24936   1.949   2.900  14.812
53408W        W24937   4.810  24.116  13.219
53409W        W24938  44.250   0.712   2.725
53410W        W24939  16.420  38.346   4.582
53411W        W24940  12.262  15.812   4.586
53412W        W24941   7.882   5.170   1.329
53413W        W24942   1.223   3.740  12.799
53414W        W24943  40.877  37.393  11.483
53415W        W24944   6.454  15.257  14.381
53416W        W24945  26.430  33.406  14.939
53417W        W24946   4.788  13.406  12.846
53418W        W24947  20.076  38.798  12.967
53419W        W24948   1.830  12.743   1.483
53420W        W24949  11.795  27.654   0.386
53421W        W24950   7.952   5.478  13.433
53422W        W24951  23.869  27.671   0.858
53423W        W24952  14.343  31.432   2.218
53424W        W24953  33.594  11.801   5.155
53425W        W24954  20.695  24.668  11.451
53426W        W24955   0.379  19.021   0.481
53427W        W24956  14.393  18.365  14.883
53428W        W24957  39.707   1.846  13.346
53429W        W24958  31.043   8.176  11.439
53430W        W24959   7.165  11.180   3.708
53431W        W24960  36.983  23.792   2.244
53432W        W24961   5.057  18.459   1.210
53433W        W24962  20.649  16.366   1.444
53434W        W24963  15.246  40.419   4.142
53435W        W24964   1.101  40.263   1.275
53436W        W24965   9.502   6.451  12.465
53437W        W24966  21.170   2.922   3.233
53438W        W24967  30.380  25.637  13.391
53439W        W24968  42.470  26.211   3.198
53440W        W24969   4.014  42.033  12.002
53441W        W24970   4.782  31.619  13.385
53442W        W24971  21.971   2.512   1.220
53443W        W24972  20.342   1.935  14.328
53444W        W24973  19.749  19.050   0.359
53445W        W24974  27.701  28.163   4.770
53446W        W24975   1.359  40.585   3.316
53447W        W24976  12.311  17.952   1.455
53448W        W24977  20.029  27.978  14.459
53449W        W24978   6.940  10.890   0.735
53450W        W24979  39.555  35.091   2.846
53451W        W24980   9.178   9.077   1.220
53452W        W24981   3.330   0.215   1.326
53453W        W24982  26.180  30.645  11.699
53454W        W24983  30.885  30.507  11.479
53455W        W24984  25.052  15.462  11.198
53456W        W24985  29.951  16.679   3.838
53457W        W24986   6.988  33.746  12.664
53458W        W24987   4.799  12.333   0.034
53459W        W24988  44.776   9.796  12.942
53460W        W24989  35.519  43.769  11.088
53461W        W24990  21.141  23.002   1.383
53462W        W24991  19.493  11.877  11.493
53463W        W24992  18.179   7.816  13.484
53464W        W24993  40.733  31.906   1.891
53465W        W24994  40.053   4.862   2.172
53466W        W24995  27.584  16.593   2.646
53467W        W24996  23.549  42.169  10.689
53468W        W24997   7.895   8.398   4.089
53469W        W24998  18.355   4.749  14.343
53470W        W24999  36.082  44.311  13.870
53471W        W25000  16.181  25.045   4.662
53472W        W25001   3.744  19.188   4.419
53473W        W25002  36.038  22.780  12.199
53474W        W25003  32.481  20.127  13.905
53475W        W25004  40.035   6.175   3.113
53476W        W25005   8.691  38.610  13.926
53477W        W25006   8.322  30.958   2.780
53478W        W25007  38.288  24.670  11.636
53479W        W25008  26.035   1.118  14.914
53480W        W25009  16.814  12.603   0.841
53481W        W25010   5.256  23.640  13.889
53482W        W25011   2.691  30.443  11.658
53483W        W25012  42.071  34.708   2.148
53484W        W25013  41.551  36.570   3.230
53485W        W25014  36.448   1.454   1.324
53486W        W25015  38.858  35.489   0.987
53487W        W25016  32.862  39.967  11.482
53488W        W25017  12.576  23.309  14.751
53489W        W25018   2.858  39.858   2.239
53490W        W25019  36.940  32.004  10.650
53491W        W25020  40.476  15.595   4.505
53492W        W25021  15.995  18.812  13.936
53493W        W25022  25.241   7.737   3.674
53494W        W25023  10.940  21.671  11.867
53495W        W25024  15.153  32.987   0.211
53496W        W25025   7.507  16.222  12.636
53497W        W25026  25.110   6.715   3.733
53498W        W25027   2.328  22.175  12.357
53499W        W25028  17.643  43.347   0.436
53500W        W25029  40.362  19.660  11.098
53501W        W25030   8.593   2.801   4.309
53502W        W25031   8.810   2.669  12.926
53503W        W25032   5.979  14.217   3.255
53504W        W25033  11.628   6.865   0.229
53505W        W25034  23.661  28.126  11.238
53506W        W25035  27.173  17.492  12.014
53507W        W25036  18.808  38.862  13.952
53508W        W25037  20.453  18.136  12.677
53509W        W25038  16.584  13.365   4.276
53510W        W25039  22.418  43.296   4.604
53511W        W25040   2.980  32.187   4.193
53512W        W25041  17.172  24.278  14.950
53513W        W25042  33.618  11.388  14.740
53514W        W25043  32.992   3.201   4.156
53515W        W25044  33.632  24.325   5.287
53516W        W25045   7.891  23.384  14.537
53517W        W25046   3.466  42.933  14.576
53518W        W25047  43.692  18.405   0.047
53519W        W25048   9.587  37.373  13.713
53520W        W25049  44.008   0.262  14.840
53521W        W25050  40.399  34.964  11.997
53522W        W25051  43.397  18.660   1.377
53523W        W25052  28.192  31.169   4.209
53524W        W25053  39.558  16.709   4.370
53525W        W25054  27.988  44.106   0.744
53526W        W25055  21.473  25.985  13.836
53527W        W25056   1.298   5.686  14.044
53528W        W25057  31.406   0.549   2.280
53529W        W25058  43.449  36.783  13.419
53530W        W25059  33.619  25.678  12.633
53531W        W25060  31.481   4.879  12.107
53532W        W25061  41.241  26.542   2.420
53533W        W25062   9.355  17.242  12.040
53534W        W25063  36.286  19.202  12.513
53535W        W25064  42.879   6.922  11.077
53536W        W25065  34.819   5.195  14.735
53537W        W25066  24.737  28.347  11.535
53538W        W25067  37.093  39.598   3.714
53539W        W25068  21.087  21.327   3.084
53540W        W25069  14.763   7.344   0.503
53541W        W25070  44.243   5.678   1.945
53542W        W25071   2.288  34.901   5.473
53543W        W25072  21.647   0.476  12.531
53544W        W25073  16.014   4.634  10.410
53545W        W25074  15.336  29.870  12.638
53546W        W25075  16.401   3.853   3.681
53547W        W25076  28.990  11.924   1.568
53548W        W25077  22.752  15.694  14.956
53549W        W25078  15.707   0.557  13.821
53550W        W25079  36.831   9.202  14.270
53551W        W25080   7.535  44.329   3.737
53552W        W25081  13.784  29.056   1.373
53553W        W25082   7.368   6.808   0.840
53554W        W25083  24.675  33.131   2.120
53555W        W25084  35.047  11.834   2.157
53556W        W25085  35.869  13.403   2.250
53557W        W25086  19.117  20.552   3.313
53558W        W25087  30.890   5.477   0.034
53559W        W25088  28.449  22.695   1.617
53560W        W25089  24.517  38.864  13.848
53561W        W25090  15.581  38.803  13.418
53562W        W25091  13.078  44.487   0.857
53563W        W25092   7.540  11.602  12.061
53564W        W25093  24.227   3.323   4.115
53565W        W25094  19.122  40.257  13.660
53566W        W25095  39.807  16.409   1.410
53567W        W25096   2.389  42.533  14.704
53568W        W25097   1.547  10.122  14.375
53569W        W25098  34.353  21.140   2.672
53570W        W25099  15.308  13.840   0.594
53571W        W25100   4.906   7.446   2.633
53572W        W25101  11.910   5.759  10.275
53573W        W25102  42.034   4.768  10.827
53574W        W25103  35.116  39.905   3.632
53575W        W25104   7.604  14.775   0.502
53576W        W25105  26.161  39.530   3.722
53577W        W25106  10.239  27.097   4.199
53578W        W25107  19.739  41.287   0.809
53579W        W25108  23.776  39.818  12.465
53580W        W25109  19.841  41.019  11.588
53581W        W25110  29.557   2.999   0.808
53582W        W25111  19.615  30.490  10.271
53583W        W25112  17.685  11.280   3.708
53584W        W25113  44.889  16.023  12.423
53585W        W25114  22.703   7.436  14.006
53586W        W25115  37.990  44.103  10.707
53587W        W25116  14.000   7.593  11.445
53588W        W25117  17.580  41.309  14.407
53589W        W25118  12.082  39.285   4.644
53590W        W25119  27.263  44.739   2.654
53591W        W25120  29.207  36.873   0.768
53592W        W25121  35.061  16.258  11.225
53593W        W25122  38.315  30.563  14.077
53594W        W25123   1.065  43.239   3.758
53595W        W25124   6.772  43.885  14.753
53596W        W25125  25.018  44.483   2.060
53597W        W25126  29.633  19.400   1.133
53598W        W25127  36.452  24.227  12.789
53599W        W25128   7.828  36.452  10.417
53600W        W25129  22.523  14.133  14.792
53601W        W25130  14.627   7.152   2.775
53602W        W25131   2.435  28.064  11.551
53603W        W25132  14.339  11.579  12.915
53604W        W25133  34.369   4.279  14.704
53605W        W25134  14.349  14.254  11.541
53606W        W25135   2.430  26.659  14.024
53607W        W25136  44.688  41.365  12.047
53608W        W25137  34.419  41.352  10.853
53609W        W25138  18.535  26.154   4.657
53610W        W25139  10.229   5.745   3.987
53611W        W25140  38.958  31.517  10.751
53612W        W25141  16.831   2.380  11.176
53613W        W25142  30.290   2.136   4.067
53614W        W25143  44.492   2.099   4.886
53615W        W25144  39.000   5.784  14.291
53616W        W25145  30.016  20.432   1.433
53617W        W25146  44.791  30.636   1.831
53618W        W25147  19.241   2.012   2.181
53619W        W25148  29.938  34.379  12.586
53620W        W25149  19.016  22.456  12.969
53621W        W25150  12.717  23.734   2.353
53622W        W25151   7.294   4.929  12.878
53623W        W25152  40.492  13.949   0.195
53624W        W25153   9.146  26.144   1.413
53625W        W25154  28.988  16.657   0.278
53626W        W25155   1.399   1.460   3.762
53627W        W25156  36.077  28.263  13.483
53628W        W25157   7.402   8.797  14.042
53629W        W25158  10.594  26.215   0.178
53630W        W25159  17.904  42.750  11.890
53631W        W25160  30.263  44.200   1.324
53632W        W25161  21.078  26.358  11.694
53633W        W25162  15.263  17.652   2.157
53634W        W25163   8.875  44.253   1.561
53635W        W25164  25.585  38.668   0.684
53636W        W25165  33.006   7.919   2.748
53637W        W25166  10.353  44.170   2.055
53638W        W25167  15.194  32.628   3.156
53639W        W25168  41.761   7.888   3.374
53640W        W25169   2.440   3.471   1.795
53641W        W25170  12.989   1.210   4.538
53642W        W25171   6.331   6.882   4.942
53643W        W25172  37.046   8.676  13.995
53644W        W25173   2.193  20.156   3.249
53645W        W25174  19.133  23.450   1.916
53646W        W25175   5.858  25.204  13.819
53647W        W25176   9.710  37.071   4.394
53648W        W25177  27.987  27.807   3.052
53649W        W25178  13.672  19.769   1.835
53650W        W25179  28.663   8.926  13.454
53651W        W25180  24.019  31.391  12.446
53652W        W25181  31.502  19.477  13.526
53653W        W25182   6.812  24.767  13.479
53654W        W25183  32.997  16.858   2.883
53655W        W25184  32.547  19.791   1.123
53656W        W25185  11.310   7.752   3.256
53657W        W25186  10.361  14.686  11.976
53658W        W25187  31.924  26.974  12.152
53659W        W25188   8.343  44.700   2.154
53660W        W25189   4.507  10.638  14.094
53661W        W25190  24.995  35.961   1.855
53662W        W25191   8.170  14.620   2.199
53663W        W25192  40.402  31.820   0.762
53664W        W25193  14.442  25.635   4.131
53665W        W25194  17.706  42.501   2.906
53666W        W25195  32.419   5.891   1.353
53667W        W25196  23.238  30.152   1.267
53668W        W25197   7.912  42.009  12.695
53669W        W25198  15.727  42.590   0.856
53670W        W25199  25.511  19.978   0.833
53671W        W25200  27.855  10.439   3.221
53672W        W25201   8.669  16.188  14.331
53673W        W25202   8.900   4.385   4.233
53674W        W25203  43.456  43.430   0.897
53675W        W25204  11.511  32.176  14.854
53676W        W25205  39.704   5.203  14.352
53677W        W25206  24.496  30.617   1.231
53678W        W25207  13.361  29.358   1.294
53679W        W25208  34.937  20.693  10.735
53680W        W25209  14.659   2.256  13.394
53681W        W25210  19.707   7.241   3.782
53682W        W25211  26.343  21.970  13.011
53683W        W25212  16.655  38.535   2.407
53684W        W25213  26.781  18.703  14.919
53685W        W25214  28.703  43.094  13.664
53686W        W25215   0.814  30.163  10.655
53687W        W25216   5.778  12.868   0.660
53688W        W25217   2.266  18.742  12.479
53689W        W25218  17.681   2.699  12.384
53690W        W25219  24.126  39.292   2.910
53691W        W25220  34.554  37.437  12.010
53692W        W25221  16.247  41.895   0.295
53693W        W25222  23.270  41.300  13.907
53694W        W25223  26.710  12.642   0.510
53695W        W25224   9.419  26.442   2.700
53696W        W25225  11.837  11.250  10.623
53697W        W25226  16.341  18.356  13.040
53698W        W25227  35.338   2.798  10.922
53699W        W25228  14.066  18.748   0.057
53700W        W25229   7.875  23.608   1.896
53701W        W25230  29.701  30.045  10.767
53702W        W25231   8.754  28.532   0.426
53703W        W25232  42.026  32.458   1.113
53704W        W25233  27.214  32.701   0.912
53705W        W25234  34.148  19.609  11.149
53706W        W25235  28.380   7.492   0.774
53707W        W25236  28.492   0.548   2.259
53708W        W25237  13.017  34.481  11.125
53709W        W25238  35.000   7.816   2.845
53710W        W25239  37.916   8.607   2.279
53711W        W25240  33.583   7.895  13.654
53712W        W25241  28.167  40.506   1.262
53713W        W25242  19.590  23.619  13.542
53714W        W25243  19.514   1.876  13.577
53715W        W25244  27.677   1.030   2.131
53716W        W25245   4.981  35.388   4.680
53717W        W25246  15.720  22.307   1.850
53718W        W25247  17.388  41.807  14.424
53719W        W25248  35.630  16.658   4.163
53720W        W25249  30.207  32.890  11.254
53721W        W25250  21.262  25.416   2.705
53722W        W25251  13.515  19.897   0.749
53723W        W25252  27.894   8.517   1.807
53724W        W25253  35.423  44.743   1.508
53725W        W25254  42.015  15.630  13.443
53726W        W25255  22.733  25.434  11.110
53727W        W25256  16.603  44.821   3.130
53728W        W25257  14.832  14.894  14.354
53729W        W25258  11.240  42.558  13.958
53730W        W25259   9.401  22.581   1.228
53731W        W25260   3.367  40.505   3.335
53732W        W25261  36.349  12.311   2.731
53733W        W25262  22.026   4.392   1.361
53734W        W25263  29.183   6.144  14.907
53735W        W25264  25.014  29.025   1.147
53736W        W25265  26.677  12.935   4.608
53737W        W25266  31.090  38.549   0.171
53738W        W25267   5.274   4.566   3.800
53739W        W25268  19.238  27.946   4.629
53740W        W25269  34.402   6.220  12.948
53741W        W25270   4.805  36.543   0.415
53742W        W25271  13.387   2.325   0.430
53743W        W25272  23.581  13.157   0.697
53744W        W25273  33.796  26.383   4.569
53745W        W25274  34.517  10.358   3.781
53746W        W25275  43.745  43.925  14.695
53747W        W25276  20.616  13.255  11.446
53748W        W25277  33.953  29.700  13.371
53749W        W25278   5.286  11.361  11.179
53750W        W25279   3.875  15.681   2.733
53751W        W25280   5.825  37.013   4.262
53752W        W25281  13.332   1.277   2.748
53753W        W25282  33.981  18.960   2.931
53754W        W25283  40.844  20.218  12.032
53755W        W25284  38.977  25.316  13.454
53756W        W25285  13.929  41.914   5.020
53757W        W25286  34.407   0.664   1.538
53758W        W25287   1.845  29.992   4.855
53759W        W25288  29.820  43.793  13.444
53760W        W25289  26.432  26.710  13.931
53761W        W25290  30.093  33.488  12.453
53762W        W25291  11.605   6.004   1.779
53763W        W25292  17.173  10.210   4.202
53764W        W25293  38.811  25.223   2.856
53765W        W25294   4.667  17.691   3.213
53766W        W25295  26.790  25.188   1.340
53767W        W25296  18.818  17.979  13.454
53768W        W25297  32.634   1.032   0.404
53769W        W25298  30.719  27.661  10.462
53770W        W25299  18.027   8.855  10.429
53771W        W25300  38.883   6.828   3.203
53772W        W25301  44.385  13.141   2.162
53773W        W25302  24.604  33.390  11.181
53774W        W25303  17.601  11.145  12.447
53775W        W25304  44.392  16.403  10.794
53776W        W25305  40.014  41.456   1.318
53777W        W25306  25.285  27.068   3.372
53778W        W25307  22.751  41.859  11.731
53779W        W25308  14.595  32.069   2.299
53780W        W25309   5.191   4.311  11.464
53781W        W25310  11.128  25.201   4.320
53782W        W25311   4.340  42.508   1.900
53783W        W25312  12.707   1.268  14.431
53784W        W25313   0.905  44.362   3.332
53785W        W25314  20.129   9.850   2.348
53786W        W25315  21.020  11.088  11.144
53787W        W25316   5.945  23.994   2.220
53788W        W25317  33.643  35.936  14.066
53789W        W25318  39.752   9.239  13.903
53790W        W25319  34.562  29.161   0.911
53791W        W25320  34.860  34.897   4.604
53792W        W25321  14.728  36.556   2.305
53793W        W25322  24.204  35.144  11.174
53794W        W25323  31.092  13.723   2.642
53795W        W25324  14.383   4.971   4.651
53796W        W25325  11.284  41.911   0.442
53797W        W25326  22.095  11.362   1.430
53798W        W25327   2.064  28.583   3.089
53799W        W25328  19.216  15.642   4.901
53800W        W25329   4.806  18.601   1.654
53801W        W25330  19.668  33.091   1.847
53802W        W25331   6.077  22.626   4.623
53803W        W25332  14.148  22.321  14.248
53804W        W25333  42.869   5.967   2.167
53805W        W25334  38.620  40.337  10.086
53806W        W25335  25.412  20.046   4.204
53807W        W25336  28.374  13.765  12.417
53808W        W25337  18.058  16.077   4.115
53809W        W25338   7.780  21.068  11.666
53810W        W25339  33.576  18.740  11.370
53811W        W25340  43.503  16.585  14.655
53812W        W25341   4.772  17.518  11.060
53813W        W25342  36.157   5.197  10.836
53814W        W25343  38.763  37.153  12.589
53815W        W25344  13.668   8.738   0.339
53816W        W25345   3.987  33.972   0.363
53817W        W25346   0.433  27.190  11.228
53818W        W25347  33.544  40.777  10.740
53819W        W25348  20.639  28.424   1.859
53820W        W25349  27.674  21.609  14.795
53821W        W25350  23.510  12.272   1.252
53822W        W25351  16.789  17.436  11.056
53823W        W25352  38.308  30.148  12.979
53824W        W25353  16.438  19.018  14.446
53825W        W25354   1.026  35.416   1.891
53826W        W25355   0.423  38.272  14.662
53827W        W25356  36.875  31.957   0.470
53828W        W25357   4.827  34.026   2.284
53829W        W25358  33.394  42.230   3.330
53830W        W25359   8.220  38.621   2.911
53831W        W25360   5.891  18.075   1.002
53832W        W25361   7.441   7.058  11.288
53833W        W25362  32.863  11.174  13.349
53834W        W25363  29.109  39.801   4.597
53835W        W25364   4.676   3.257   2.621
53836W        W25365  33.386  17.723   4.559
53837W        W25366   9.732  40.475   5.043
53838W        W25367  33.930   4.563  10.056
53839W        W25368  25.639  16.047  14.239
53840W        W25369  34.652   8.191   4.099
53841W        W25370  28.044  24.245   4.459
53842W        W25371  30.257   9.352  13.763
53843W        W25372  31.079  39.958  11.182
53844W        W25373   9.176  25.000  13.393
53845W        W25374  14.344  41.932   4.601
53846W        W25375  24.608  11.490  13.726
53847W        W25376  38.454  14.597   2.982
53848W        W25377  20.386  26.977   4.738
53849W        W25378  20.751   6.795   1.016
53850W        W25379  29.559  14.819   1.227
53851W        W25380  42.398  31.694   2.352
53852W        W25381  35.913  44.972   2.741
53853W        W25382  10.685  41.053  11.162
53854W        W25383   7.248  26.445  12.914
53855W        W25384  40.305  23.115  10.630
53856W        W25385  30.983  10.473  14.901
53857W        W25386  17.604  24.719   0.496
53858W        W25387   7.878  19.160   0.249
53859W        W25388  27.920  23.858  11.084
53860W        W25389  44.301  37.165   2.742
53861W        W25390  35.735   9.931   4.536
53862W        W25391  17.844  20.246  11.405
53863W        W25392  40.911  35.587  12.928
53864W        W25393  40.463   5.684  14.815
53865W        W25394  28.913   0.362  13.827
53866W        W25395  11.906  33.110  10.923
53867W        W25396  22.051   1.349  13.375
53868W        W25397   7.221  20.693  13.144
53869W        W25398  24.441   4.912   3.154
53870W        W25399  33.782  26.698  10.204
53871W        W25400  32.344  41.910  14.018
53872W        W25401  17.253  34.623  11.087
53873W        W25402   6.596  44.796   4.532
53874W        W25403  32.604  22.664  13.055
53875W        W25404  27.938  23.601  13.429
53876W        W25405   4.931  29.615  10.426
53877W        W25406  36.578  40.576  11.133
53878W        W25407  21.990   6.573  11.031
53879W        W25408   6.948  33.616  14.939
53880W        W25409  15.811  44.052   0.714
53881W        W25410  29.222  35.692   3.165
53882W        W25411  17.665  44.033  10.691
53883W        W25412   8.658   6.183  11.950
53884W        W25413   7.622  28.563   0.016
53885W        W25414   4.866   3.182  10.965
53886W        W25415  17.103  16.201  12.908
53887W        W25416  20.342  39.476   3.352
53888W        W25417  36.887  44.806  11.470
53889W        W25418  43.748  19.155  13.040
53890W        W25419  21.243   4.263  12.005
53891W        W25420   2.250  43.040  13.345
53892W        W25421  25.477  25.140   4.307
53893W        W25422   3.187  27.018  14.107
53894W        W25423  40.434  30.620  13.554
53895W        W25424   4.374  15.097  11.131
53896W        W25425  20.332  34.454  11.562
53897W        W25426  43.400  33.498  12.808
53898W        W25427   1.849  13.273   0.716
53899W        W25428  32.922  26.673   3.723
53900W        W25429  36.539  25.471  13.166
53901W        W25430  13.243  34.330   3.850
53902W        W25431  36.904  20.781  12.928
53903W        W25432  10.317   3.341  12.463
53904W        W25433  13.798  20.687  11.700
53905W        W25434  12.261   3.908  11.865
53906W        W25435  29.862   0.905  12.235
53907W        W25436  11.841  10.869  14.390
53908W        W25437  22.061  10.277   0.500
53909W        W25438   9.985   6.188   0.306
53910W        W25439  18.200  37.183   3.228
53911W        W25440  22.237  23.462  10.767
53912W        W25441   6.375   3.913   4.327
53913W        W25442  12.097  16.399  10.942
53914W        W25443  30.455  21.164   4.072
53915W        W25444  30.065  40.343  11.397
53916W        W25445  21.620   7.946   2.176
53917W        W25446  30.158  30.167   2.623
53918W        W25447  29.920  35.072   1.276
53919W        W25448  39.813  39.954  14.769
53920W        W25449   1.266  34.747   4.533
53921W        W25450  40.501  12.571  13.599
53922W        W25451  26.336  23.566  11.987
53923W        W25452  32.433  13.320  11.349
53924W        W25453  38.874   4.820   1.819
53925W        W25454  10.888  13.410   3.731
53926W        W25455   9.315  13.550   2.948
53927W        W25456  18.145  20.920  13.009
53928W        W25457  22.551  14.342  11.916
53929W        W25458  29.030   3.817   0.520
53930W        W25459  28.630  33.294   3.821
53931W        W25460  38.574   1.986  14.385
53932W        W25461  30.978  43.377  13.106
53933W        W25462  16.031  23.016  13.402
53934W        W25463  16.112  17.895  10.686
53935W        W25464  20.737  36.436   4.332
53936W        W25465  44.922  30.158  14.074
53937W        W25466  33.918  14.241   2.901
53938W        W25467  24.473   8.077   3.188
53939W        W25468   9.700  35.774  12.195
53940W        W25469   7.810  35.010   4.573
53941W        W25470   5.382  38.048  10.463
53942W        W25471  12.347  37.671   4.602
53943W        W25472  15.238  35.906   2.561
53944W        W25473  37.130  28.325  14.315
53945W        W25474  27.250  27.047   0.378
53946W        W25475  38.528  25.961   4.681
53947W        W25476  18.543  32.123   2.388
53948W        W25477  13.660  37.834   4.157
53949W        W25478  27.451  16.896   0.476
53950W        W25479  21.577  22.657   0.774
53951W        W25480   3.053  33.163  11.527
53952W        W25481  39.449  33.868  14.144
53953W        W25482  34.417  40.396  12.058
53954W        W25483  23.311  28.862   2.690
53955W        W25484  28.798  25.057  12.984
53956W        W25485  10.789  30.453   4.500
53957W        W25486   4.564  14.300  10.517
53958W        W25487  26.596   2.565  14.044
53959W        W25488  17.154  26.968   1.196
53960W        W25489  15.146  38.432  12.614
53961W        W25490  34.339  40.375   3.805
53962W        W25491  16.200   0.373   4.608
53963W        W25492  14.781  32.173   3.608
53964W        W25493  28.151  10.746   1.906
53965W        W25494  43.458  31.540   4.613
53966W        W25495   5.332   0.117   4.130
53967W        W25496  13.326   4.339  12.915
53968W        W25497  12.857  41.921  14.951
53969W        W25498  13.923  27.602   4.384
53970W        W25499  30.048   5.656   3.287
53971W        W25500  43.675  13.869  11.523
53972W        W25501   6.891  42.323   4.136
53973W        W25502  17.856  30.174   4.167
53974W        W25503  12.400  39.449  13.909
53975W        W25504  31.109  43.741   1.177
53976W        W25505   2.122  29.274   3.850
53977W        W25506   1.448  17.610   1.144
53978W        W25507  12.002  34.608  12.632
53979W        W25508  29.194  33.480  10.216
53980W        W25509  15.581  13.059  12.006
53981W        W25510  40.842  10.494  14.082
53982W        W25511  26.605  10.757   3.378
53983W        W25512  10.293   7.741  13.791
53984W        W25513  10.330   8.945  10.200
53985W        W25514  21.773  24.885  13.508
53986W        W25515   0.577   8.576   4.158
53987W        W25516  32.165  14.078  13.655
53988W        W25517  12.222   4.466   4.752
53989W        W25518  43.789  37.108  12.904
53990W        W25519  41.377  19.470   0.283
53991W        W25520  32.881   2.829  14.262
53992W        W25521  33.033   5.477   1.689
53993W        W25522  20.803  14.737   2.187
53994W        W25523  15.457  24.548  12.470
53995W        W25524   3.828  19.133  14.879
53996W        W25525  43.764  38.942   2.629
53997W        W25526   4.667  41.686  13.234
53998W        W25527   6.879  21.269   2.945
53999W        W25528   1.301   9.958  11.017
54000W        W25529  10.891  32.002  10.265
54001W        W25530  39.282  39.425   0.575
54002W        W25531  37.832  21.762  10.427
54003W        W25532  43.293  19.130   1.717
54004W        W25533   0.315  30.517   4.025
54005W        W25534  26.094  43.297   0.182
54006W        W25535   7.566   4.592  10.614
54007W        W25536   0.460  32.567   3.701
54008W        W25537  37.243  25.922   4.402
54009W        W25538  18.745  34.901   1.410
54010W        W25539  18.794  23.267  10.089
54011W        W25540  20.254  24.004   1.207
54012W        W25541  23.709  10.728   2.759
54013W        W25542  23.985  41.741  10.359
54014W        W25543  43.791  16.767   1.973
54015W        W25544  15.107  14.565  11.641
54016W        W25545  25.038   6.430  14.697
54017W        W25546  29.071   2.223  13.688
54018W        W25547   9.657  24.002   2.619
54019W        W25548   7.702  28.675  11.562
54020W        W25549  28.696  32.805   0.193
54021W        W25550  18.677  35.280  14.529
54022W        W25551   2.867  34.943   2.255
54023W        W25552   9.791  23.497   2.440
54024W        W25553  32.128  34.144   1.346
54025W        W25554  10.628  16.129   1.358
54026W        W25555  41.451  23.638   2.020
54027W        W25556  27.964   3.216  11.125
54028W        W25557  33.340  34.037   0.827
54029W        W25558  29.688  24.628   1.316
54030W        W25559  16.738  34.464   3.340
54031W        W25560   3.646   0.068   2.699
54032W        W25561  15.278  13.654   4.095
54033W        W25562   7.934  31.565  14.260
54034W        W25563  15.793  37.253   2.750
54035W        W25564  20.367   4.981   0.369
54036W        W25565  28.401  38.091   2.488
54037W        W25566  28.082  43.403   1.768
54038W        W25567  32.940  12.736  13.966
54039W        W25568   3.257   2.930   0.774
54040W        W25569   0.238   5.712  14.001
54041W        W25570  25.411  19.208  11.924
54042W        W25571   8.779  31.643  11.590
54043W        W25572  27.104   0.527  13.564
54044W        W25573  29.925  28.570  12.573
54045W        W25574  20.334  24.176  12.452
54046W        W25575  42.618  43.487  14.749
54047W        W25576  19.162  27.923  10.456
54048W        W25577  33.538   7.324  14.370
54049W        W25578   6.297   5.028   4.653
54050W        W25579  32.502  28.118   0.075
54051W        W25580  31.489  44.683  14.488
54052W        W25581  29.303  22.759   2.167
54053W        W25582  34.413  37.167   0.205
54054W        W25583  22.423  26.639  10.656
54055W        W25584  14.559  23.273  14.848
54056W        W25585  43.332  26.723  10.834
54057W        W25586  15.622  15.526   5.087
54058W        W25587   3.280  28.257   0.209
54059W        W25588   7.759  14.371   0.940
54060W        W25589  44.836  41.077  10.737
54061W        W25590  26.516  33.825  12.864
54062W        W25591   4.859   3.029  13.938
54063W        W25592  34.993  21.556  13.072
54064W        W25593  27.391  34.798  13.767
54065W        W25594  27.298  38.170  14.845
54066W        W25595  36.966  14.766   3.819
54067W        W25596  10.562  39.836  12.572
54068W        W25597   7.883  31.714  11.597
54069W        W25598  40.948   3.404  13.850
54070W        W25599   1.144  30.988  13.155
54071W        W25600  20.726   4.467  13.916
54072W        W25601  32.501  26.969  13.348
54073W        W25602  23.393   0.744  14.379
54074W        W25603  44.477  13.061  10.649
54075W        W25604  31.862  36.451   1.352
54076W        W25605  28.136  35.550   0.347
54077W        W25606  40.174  10.561  12.569
54078W        W25607  33.027   8.834   1.741
54079W        W25608  21.671   5.701   1.791
54080W        W25609   3.935  26.678  12.548
54081W        W25610   1.976  44.544   2.383
54082W        W25611  13.087  12.600  13.076
54083W        W25612  41.433  30.966   4.080
54084W        W25613  32.450  30.414   2.179
54085W        W25614  42.723   8.917  12.921
54086W        W25615  30.147  28.577   1.225
54087W        W25616  19.997  20.018  10.644
54088W        W25617  24.594  39.512  14.418
54089W        W25618   1.172  12.847  11.125
54090W        W25619  10.110   4.351  10.392
54091W        W25620  17.181  10.772  13.566
54092W        W25621  32.249  10.929  14.496
54093W        W25622  17.836   3.174   4.696
54094W        W25623  21.778  37.766   1.921
54095W        W25624  10.894  41.498  14.246
54096W        W25625  38.889  20.590  14.621
54097W        W25626  19.564   2.231  14.521
54098W        W25627  35.131  19.531   1.754
54099W        W25628  17.420  28.608  14.833
54100W        W25629   6.885   4.930  10.201
54101W        W25630  33.792  35.395  12.094
54102W        W25631  21.496  27.670   2.851
54103W        W25632   7.599  41.967   0.922
54104W        W25633  12.380  33.896   3.178
54105W        W25634  31.428  28.000  12.891
54106W        W25635   4.856  34.620  11.134
54107W        W25636  41.007   4.837  13.458
54108W        W25637  14.750  38.931   0.927
54109W        W25638   2.462   7.150  11.637
54110W        W25639  13.696  33.506  10.585
54111W        W25640   5.814  23.092   2.680
54112W        W25641  38.907  31.687   1.379
54113W        W25642  40.855   7.595   3.184
54114W        W25643  44.006  29.488   0.042
54115W        W25644  27.708  34.576  14.934
54116W        W25645   1.672  40.345   4.702
54117W        W25646   0.806  38.335  14.004
54118W        W25647  13.649  31.591   2.193
54119W        W25648  35.341  31.393  11.218
54120W        W25649  36.525   3.780   1.527
54121W        W25650   4.775  25.675  13.404
54122W        W25651  37.564  17.819   0.783
54123W        W25652  21.221  29.218   4.914
54124W        W25653   3.745  43.566  11.839
54125W        W25654  40.505   4.434  12.450
54126W        W25655   6.297  38.723   2.715
54127W        W25656  13.794  42.696   1.906
54128W        W25657  24.994  42.215  14.455
54129W        W25658  25.556  14.966   0.811
54130W        W25659  18.131  11.777  14.728
54131W        W25660  38.078  27.598   1.218
54132W        W25661  37.553  42.567  10.520
54133W        W25662   3.536   4.188  13.823
54134W        W25663   0.036  19.504   3.214
54135W        W25664  27.041  11.185   4.416
54136W        W25665  13.774  27.702  11.424
54137W        W25666  23.191   9.879   1.616
54138W        W25667  26.406   7.665  13.699
54139W        W25668  36.845   3.924   3.729
54140W        W25669  10.744  15.534  10.137
54141W        W25670  21.422  43.403   0.244
54142W        W25671  37.403  33.795  14.762
54143W        W25672  21.339  25.364   1.460
54144W        W25673   1.258  10.771  13.097
54145W        W25674   4.635  27.897   1.791
54146W        W25675  25.414  24.283  10.938
54147W        W25676  30.992  34.620  14.461
54148W        W25677  36.982  32.173  11.857
54149W        W25678  39.807   6.377  13.087
54150W        W25679  43.051  12.147  13.071
54151W        W25680  30.608   3.770   4.566
54152W        W25681  38.098  12.716   0.320
54153W        W25682   5.857  20.109   2.596
54154W        W25683  32.848  36.493   0.282
54155W        W25684  27.291  12.844  11.894
54156W        W25685  22.018   8.366  13.828
54157W        W25686   2.922   1.788   4.775
54158W        W25687   3.922  33.515  10.822
54159W        W25688  34.126  27.507  11.361
54160W        W25689  27.448  42.276   2.352
54161W        W25690  13.091   5.914   4.120
54162W        W25691  18.771  14.611  11.559
54163W        W25692   5.998  34.972  11.626
54164W        W25693  32.086  20.593  14.286
54165W        W25694  26.353   4.661   0.404
54166W        W25695  33.427   3.886  10.393
54167W        W25696  32.508  26.639  12.080
54168W        W25697  44.604  34.515   3.755
54169W        W25698   4.739  12.180  12.039
54170W        W25699  31.821  11.400  11.675
54171W        W25700  11.304  37.067   0.737
54172W        W25701  40.787  17.840   4.621
54173W        W25702  27.569  40.439   4.769
54174W        W25703  22.479  18.708   2.888
54175W        W25704  25.264  12.690   2.674
54176W        W25705  40.251  21.229  14.324
54177W        W25706  33.398  11.615  14.338
54178W        W25707  35.445  27.146  11.664
54179W        W25708  44.823  13.089  12.128
54180W        W25709  17.030   1.883   1.998
54181W        W25710  16.338  26.077  11.190
54182W        W25711  44.864  17.000  14.289
54183W        W25712  26.555  37.029   4.634
54184W        W25713  43.244   2.289  12.562
54185W        W25714   3.042  24.139  12.089
54186W        W25715  34.620   1.775   0.826
54187W        W25716  37.474  22.856  14.813
54188W        W25717  17.447  11.334  11.981
54189W        W25718  38.467  14.039   0.682
54190W        W25719  36.999  22.783  13.963
54191W        W25720  24.318  23.731   2.752
54192W        W25721  40.399  10.417   2.288
54193W        W25722  36.388  37.519   2.755
54194W        W25723  34.496  37.549   2.265
54195W        W25724  43.595  25.213   3.383
54196W        W25725  36.664   2.456  13.946
54197W        W25726  43.445  42.468   1.475
54198W        W25727  18.581  44.492   3.734
54199W        W25728  41.063  10.834   4.710
54200W        W25729  42.157  28.977  11.141
54201W        W25730  14.906  22.861   3.692
54202W        W25731  14.522  18.849  14.840
54203W        W25732  43.074  22.927   3.944
54204W        W25733  43.445   5.590  13.610
54205W        W25734  30.125  10.508  10.933
54206W        W25735   0.292  12.121   1.172
54207W        W25736  25.281  31.801  10.705
54208W        W25737  36.128  19.158  10.665
54209W        W25738   4.919  19.798   4.606
54210W        W25739  31.135  13.114   0.111
54211W        W25740  13.207  42.259   2.483
54212W        W25741  27.074  29.578   1.437
54213W        W25742  15.587   1.275   0.344
54214W        W25743  23.797  43.109   1.372
54215W        W25744  41.848  25.088  11.550
54216W        W25745  32.458  28.656   3.396
54217W        W25746  12.019  39.774  12.393
54218W        W25747  26.050  35.424   4.275
54219W        W25748  21.049  22.133   0.392
54220W        W25749  11.844  27.610  11.941
54221W        W25750  38.472   1.390   1.646
54222W        W25751   9.638  40.423  13.588
54223W        W25752  37.527  13.571  10.653
54224W        W25753  22.055  27.906  13.055
54225W        W25754   4.471   4.891   1.255
54226W        W25755   1.265  20.313  11.707
54227W        W25756  21.860  19.719   1.784
54228W        W25757  35.865  10.130   1.451
54229W        W25758  13.832  20.747   0.843
54230W        W25759   4.766  13.819   0.956
54231W        W25760   8.332  30.118  10.593
54232W        W25761  27.945  18.736   2.303
54233W        W25762  34.427   0.625  14.671
54234W        W25763  25.108  31.842  11.616
54235W        W25764   3.415  26.195  12.508
54236W        W25765  18.907   8.956   0.315
54237W        W25766  20.119  23.695   4.527
54238W        W25767  10.111  34.968   4.215
54239W        W25768   1.609   1.223  14.317
54240W        W25769  23.096   3.965  11.340
54241W        W25770  22.500  38.265   0.673
54242W        W25771  40.563   0.351   0.011
54243W        W25772  19.327   2.468  14.918
54244W        W25773  33.230  41.061  12.808
54245W        W25774  10.989  24.978   3.842
54246W        W25775  11.352  16.705   3.236
54247W        W25776  18.159  30.719   3.401
54248W        W25777  41.731  42.507  11.572
54249W        W25778  44.408  43.977   4.276
54250W        W25779  41.154  23.169   4.124
54251W        W25780   2.376  21.221   1.163
54252W        W25781   0.653  20.004  14.926
54253W        W25782  22.440  29.773  14.357
54254W        W25783  43.345  13.775  13.103
54255W        W25784   5.283  11.817   4.325
54256W        W25785  13.993  16.879  14.268
54257W        W25786  16.143   7.561   1.864
54258W        W25787  16.999   0.485  14.414
54259W        W25788   7.217  27.567  14.962
54260W        W25789  15.357   2.836  13.791
54261W        W25790  27.543   9.868   2.165
54262W        W25791  38.508  30.612   4.656
54263W        W25792   7.136  22.255  14.374
54264W        W25793   7.194  42.834   1.367
54265W        W25794  26.990  34.313   4.235
54266W        W25795   5.575  27.711   1.933
54267W        W25796   3.542  43.958  10.981
54268W        W25797  33.902  33.524   2.458
54269W        W25798  25.988   0.727  13.978
54270W        W25799  40.608  42.053   1.222
54271W        W25800  24.526  25.632  11.336
54272W        W25801  33.670  13.212  13.717
54273W        W25802  17.028  37.184   2.315
54274W        W25803  31.973  32.023  13.012
54275W        W25804  42.202  19.403  11.592
54276W        W25805  38.085   6.582  13.344
54277W        W25806  19.873  22.634  14.925
54278W        W25807  37.980   5.294   1.372
54279W        W25808  23.080  20.382   2.429
54280W        W25809  18.017  22.986   0.316
54281W        W25810  12.300  28.357  13.844
54282W        W25811   5.278   4.161  14.386
54283W        W25812   1.829  32.905   0.381
54284W        W25813  11.682  27.657  14.513
54285W        W25814  21.923  42.988   9.964
54286W        W25815  31.191  37.086   2.563
54287W        W25816  34.172  26.087  12.073
54288W        W25817  37.441  18.221   4.581
54289W        W25818  39.989   2.757   2.776
54290W        W25819  30.146  37.339   3.641
54291W        W25820  24.221  20.738  13.380
54292W        W25821   3.748  30.934   4.042
54293W        W25822  40.590  12.216   3.240
54294W        W25823  11.346  21.343   0.260
54295W        W25824  44.855   0.387   1.199
54296W        W25825  30.949  12.328   4.156
54297W        W25826  38.925   6.230  13.981
54298W        W25827  16.014   3.635  12.030
54299W        W25828  37.424  25.552  13.177
54300W        W25829  43.448  17.538  12.892
54301W        W25830  23.004  24.044   4.248
54302W        W25831   0.139  37.614  11.487
54303W        W25832  10.848  43.763  14.413
54304W        W25833  39.529   4.932   1.315
54305W        W25834  41.576  12.294  11.474
54306W        W25835  34.533   7.328  13.412
54307W        W25836  31.894  17.024  14.353
54308W        W25837  42.413  17.718   2.679
54309W        W25838  15.112  15.148   3.453
54310W        W25839  28.696  28.847  12.835
54311W        W25840  37.990   7.159   4.384
54312W        W25841  15.154  22.106   3.177
54313W        W25842  17.639   3.812  11.062
54314W        W25843   0.693  33.986  12.937
54315W        W25844   5.852  17.169   3.470
54316W        W25845  28.300  38.994   0.734
54317W        W25846  16.261  25.805   0.624
54318W        W25847  12.254  26.049   2.051
54319W        W25848  24.133  42.310   1.448
54320W        W25849  39.049  27.927  14.526
54321W        W25850   7.535   7.501   3.852
54322W        W25851   4.425  31.481  13.830
54323W        W25852  22.483   7.991   2.521
54324W        W25853   7.249   2.981   0.464
54325W        W25854  27.568  40.334  13.994
54326W        W25855  28.025  13.220   4.158
54327W        W25856   0.492  17.255  13.332
54328W        W25857  33.176  44.309  14.006
54329W        W25858  36.812  25.746   3.554
54330W        W25859  14.696  30.476   4.370
54331W        W25860  30.359  38.898   2.761
54332W        W25861  42.942  33.388  12.090
54333W        W25862  26.528  19.994   2.236
54334W        W25863  18.648  22.344   3.288
54335W        W25864  35.922  12.662  12.453
54336W        W25865  10.808  20.553  10.574
54337W        W25866   2.382  37.396  10.586
54338W        W25867   5.778  24.687  13.724
54339W        W25868  11.157  13.930  12.001
54340W        W25869   4.958  12.179  10.697
54341W        W25870  19.517  34.916   3.666
54342W        W25871  14.167  21.459  14.972
54343W        W25872  26.485  12.590   0.998
54344W        W25873  12.579  35.180  13.913
54345W        W25874  18.774  34.908   0.729
54346W        W25875   1.760  26.730  10.940
54347W        W25876   6.235  38.961  11.306
54348W        W25877  21.155  23.533   0.836
54349W        W25878  28.021   3.474   3.110
54350W        W25879  12.112  32.388   2.609
54351W        W25880  24.460  36.493  12.235
54352W        W25881   0.589  27.928  13.569
54353W        W25882  20.048  23.389  13.776
54354W        W25883  13.187  14.043   0.396
54355W        W25884  18.071  27.518  11.647
54356W        W25885  11.531  17.374   4.018
54357W        W25886  29.650  43.849  12.519
54358W        W25887  32.607  43.477   2.918
54359W        W25888  43.319  35.472  12.019
54360W        W25889  27.694  20.710  12.407
54361W        W25890  10.661  33.211   2.081
54362W        W25891  41.444   8.890   2.300
54363W        W25892  23.208  19.944  14.811
54364W        W25893  42.461  40.007  14.356
54365W        W25894   2.675  14.596  14.933
54366W        W25895   7.779  35.841   2.591
54367W        W25896  13.028   9.802  14.441
54368W        W25897   5.232  35.103   0.930
54369W        W25898  13.227  17.305  13.983
54370W        W25899  41.037  16.998  12.884
54371W        W25900  25.304   2.811  14.589
54372W        W25901  36.605   6.795  14.692
54373W        W25902   1.328  28.702   3.522
54374W        W25903  37.418  27.736   1.680
54375W        W25904  23.876  15.299   4.390
54376W        W25905  36.059   2.305  11.499
54377W        W25906  20.119  12.281   2.919
54378W        W25907  13.669  25.009  13.154
54379W        W25908   4.324   6.928   3.205
54380W        W25909  12.107  40.350  13.502
54381W        W25910  20.186   4.441   4.979
54382W        W25911  38.302   0.989   1.385
54383W        W25912  36.483  20.859   0.200
54384W        W25913  37.675  23.980   4.210
54385W        W25914  21.493  35.923   4.390
54386W        W25915   4.386   5.720   2.370
54387W        W25916   6.642  36.211  13.159
54388W        W25917  10.241  25.103   2.492
54389W        W25918  26.722  15.707  13.931
54390W        W25919  32.006  23.531   4.632
54391W        W25920  16.185  32.175   0.697
54392W        W25921  41.898  19.183   0.918
54393W        W25922  43.451   7.658  10.673
54394W        W25923   5.199  34.541  11.503
54395W        W25924  34.836   6.154   1.369
54396W        W25925  34.807  17.591   2.771
54397W        W25926  41.741   0.791  12.693
54398W        W25927   8.245   9.701  14.328
54399W        W25928   0.146  16.590  11.570
54400W        W25929  30.694  15.538  14.810
54401W        W25930  40.486  42.011  14.403
54402W        W25931  16.022  27.448   2.244
54403W        W25932  29.552  30.002  14.364
54404W        W25933  42.956  10.812  10.701
54405W        W25934   9.742  13.242  11.151
54406W        W25935  22.982   4.692   3.334
54407W        W25936  23.458  23.224   4.369
54408W        W25937  23.430  13.738   3.238
54409W        W25938   6.661   2.025   1.303
54410W        W25939  31.652  37.464  13.717
54411W        W25940  39.959  31.886  13.368
54412W        W25941  38.409  20.717   4.270
54413W        W25942  22.183  29.682  11.071
54414W        W25943  33.578  10.202   0.441
54415W        W25944  25.858  31.620   1.639
54416W        W25945  22.503  29.487  12.493
54417W        W25946  15.091  22.357  13.784
54418W        W25947  11.205  33.519  12.843
54419W        W25948   8.839   8.617  11.146
54420W        W25949  32.174  14.304   1.782
54421W        W25950  24.008   2.372   4.132
54422W        W25951  19.037  25.705  11.150
54423W        W25952  31.066  27.218   2.194
54424W        W25953  30.914  29.538   2.923
54425W        W25954  29.190  27.176   4.695
54426W        W25955  14.845  33.149   2.004
54427W        W25956  16.612  11.340  12.565
54428W        W25957  15.901  23.150  10.968
54429W        W25958  12.869   6.783  14.085
54430W        W25959  18.949  14.196   2.182
54431W        W25960  44.011  39.479   2.874
54432W        W25961  27.675  34.619  11.176
54433W        W25962  31.515  33.323   3.269
54434W        W25963  12.579  37.950  14.000
54435W        W25964  24.503  28.316   3.261
54436W        W25965  23.959  21.077  11.998
54437W        W25966  26.551  42.351   4.070
54438W        W25967  10.827   6.565  13.832
54439W        W25968  43.008   2.164   1.471
54440W        W25969  15.499  40.612   3.148
54441W        W25970   7.427  27.959   5.216
54442W        W25971  37.908  30.717   4.156
54443W        W25972  24.711  29.473  14.815
54444W        W25973  35.596  18.584  12.545
54445W        W25974  10.582  31.836   0.970
54446W        W25975  38.029  15.753   0.915
54447W        W25976  38.960   0.676  13.029
54448W        W25977  42.182  32.153  11.025
54449W        W25978  13.328  37.989   1.388
54450W        W25979  24.700  24.989   3.601
54451W        W25980  15.857  37.971   4.049
54452W        W25981  38.420  20.606   0.452
54453W        W25982  38.524  17.522   3.563
54454W        W25983  43.605  42.265  12.437
54455W        W25984   2.997  29.601  14.037
54456W        W25985  34.488   9.426   3.199
54457W        W25986   6.791  30.044   1.978
54458W        W25987  26.930  25.664   1.525
54459W        W25988  21.576   4.752   3.834
54460W        W25989  22.167  16.178   0.742
54461W        W25990   8.291  36.522   3.150
54462W        W25991   4.923   7.242  14.836
54463W        W25992  29.027  10.235   4.685
54464W        W25993  39.505  15.448  14.505
54465W        W25994  29.396   8.821  12.596
54466W        W25995   8.064  21.938  11.188
54467W        W25996  28.160  20.942   1.815
54468W        W25997  44.397  38.544   1.590
54469W        W25998  18.482  42.521  11.053
54470W        W25999  10.173  38.903   0.029
54471W        W26000  22.572  37.518  14.041
54472W        W26001  12.208  14.237   1.230
54473W        W26002  23.514   9.376  14.923
54474W        W26003  33.956   4.819   1.393
54475W        W26004  17.441  20.112  13.005
54476W        W26005  15.575  43.017  10.168
54477W        W26006  35.262  36.068  10.087
54478W        W26007  14.770  33.440  12.524
54479W        W26008  40.418   6.696  14.674
54480W        W26009  17.731  38.772   0.156
54481W        W26010  30.568   0.777   0.663
54482W        W26011  41.750  36.225   2.362
54483W        W26012  36.207  19.670   4.608
54484W        W26013  33.516  42.752   5.000
54485W        W26014  34.838  30.437  13.933
54486W        W26015   1.836   4.928  13.891
54487W        W26016   8.177  23.947  11.197
54488W        W26017  15.064  30.361   1.766
54489W        W26018  29.920  38.869  11.146
54490W        W26019   2.688  15.760  12.500
54491W        W26020   9.404  43.679  13.943
54492W        W26021  35.516  18.544   4.255
54493W        W26022   3.220  43.395   4.697
54494W        W26023  39.013  43.652  14.271
54495W        W26024  30.554  25.542   3.577
54496W        W26025  35.086  29.329   4.188
54497W        W26026  28.179  34.828   0.787
54498W        W26027   4.714  14.831  12.038
54499W        W26028  22.676  14.819   2.227
54500W        W26029  37.076  29.884   0.381
54501W        W26030  27.007  27.449   4.607
54502W        W26031  11.313  20.623   4.666
54503W        W26032  32.189  41.307   4.597
54504W        W26033  13.578  32.629  11.988
54505W        W26034   8.310  13.120   0.682
54506W        W26035  26.828  33.430   0.329
54507W        W26036  32.994  18.588   1.225
54508W        W26037  29.083  36.288  14.159
54509W        W26038  19.579  25.175   1.965
54510W        W26039  41.070  27.020   2.528
54511W        W26040   6.578  30.286  10.705
54512W        W26041  10.257  37.543   4.296
54513W        W26042  22.975  17.793   0.864
54514W        W26043  16.321  39.910  10.648
54515W        W26044   3.018  14.720  13.756
54516W        W26045  29.546  34.474   2.867
54517W        W26046  41.499  18.064   1.297
54518W        W26047  37.059  40.400  11.223
54519W        W26048  40.596  37.969  10.591
54520W        W26049  13.670  26.514  13.394
54521W        W26050  20.243   0.232  12.128
54522W        W26051  11.667  29.247  13.302
54523W        W26052   4.868  30.160  13.495
54524W        W26053  39.957  43.005   0.058
54525W        W26054  19.342  41.500  12.994
54526W        W26055   2.241  40.877  12.382
54527W        W26056  34.966   4.384  14.446
54528W        W26057  29.253   9.368   3.719
54529W        W26058   4.904  28.832  11.088
54530W        W26059  44.390   0.655  14.806
54531W        W26060  17.648  35.183   2.187
54532W        W26061  22.892  35.762   0.469
54533W        W26062  41.110  40.394   4.644
54534W        W26063  41.708  21.401  13.826
54535W        W26064  36.917  12.472  12.487
54536W        W26065  26.651  24.723  11.128
54537W        W26066  36.465  34.007   3.661
54538W        W26067  27.860  21.526   9.821
54539W        W26068   1.191  25.511   2.247
54540W        W26069  44.586  35.010   0.908
54541W        W26070  40.530  15.848  12.543
54542W        W26071  37.004  30.479   4.438
54543W        W26072   6.239   9.340   1.182
54544W        W26073  35.662   7.718   1.744
54545W        W26074  37.924  29.531   0.897
54546W        W26075  43.865   3.570   1.789
54547W        W26076  24.794  26.440  11.672
54548W        W26077  11.132  13.844   3.239
54549W        W26078  43.883  28.446  11.390
54550W        W26079  14.084  11.249   1.529
54551W        W26080  11.108  31.405  13.425
54552W        W26081   2.956   6.650  10.686
54553W        W26082  43.654  16.914  14.258
54554W        W26083  32.607  36.845  10.664
54555W        W26084  18.097   5.250  14.422
54556W        W26085  24.775  27.636   2.804
54557W        W26086   1.037  34.417  13.820
54558W        W26087  27.903  31.983   3.785
54559W        W26088  12.358  22.031  11.619
54560W        W26089  16.823  25.598   3.881
54561W        W26090  38.531  42.017  12.443
54562W        W26091  29.138  18.139   2.324
54563W        W26092   2.595  21.022   9.885
54564W        W26093  31.369   2.437   0.863
54565W        W26094  22.183  17.213  11.061
54566W        W26095  42.972  23.622  14.704
54567W        W26096  30.401  16.871   2.293
54568W        W26097  38.428  43.474  12.944
54569W        W26098   7.749  15.237  11.226
54570W        W26099  30.699  16.565  12.989
54571W        W26100  33.062  35.007   4.386
54572W        W26101   5.842  24.528  11.967
54573W        W26102  31.709  41.837   0.867
54574W        W26103  43.271  25.058  11.588
54575W        W26104  39.997  30.106   1.708
54576W        W26105  26.468  35.035  13.483
54577W        W26106  18.578  16.076  10.984
54578W        W26107  16.583   0.461  12.075
54579W        W26108  37.359  39.824  13.833
54580W        W26109  27.039   0.843   0.196
54581W        W26110  21.366  32.165   2.289
54582W        W26111   2.207  35.237   1.287
54583W        W26112  13.576  10.909   3.261
54584W        W26113  34.572  24.718   1.053
54585W        W26114  23.777  18.558  14.437
54586W        W26115  17.233   1.953   1.510
54587W        W26116  42.482  17.677  13.799
54588W        W26117   5.396   2.178  11.961
54589W        W26118   9.460   4.784   3.232
54590W        W26119  40.910  21.292   3.148
54591W        W26120  24.960  43.915  12.976
54592W        W26121  31.937  25.943  11.283
54593W        W26122   8.395  20.690  10.619
54594W        W26123  28.277  18.707  12.856
54595W        W26124   3.105  17.672  12.380
54596W        W26125  11.904  10.092  11.548
54597W        W26126  15.374  27.998   4.705
54598W        W26127  16.685  15.251   4.528
54599W        W26128  33.650  34.999   3.714
54600W        W26129  43.401  11.901   1.925
54601W        W26130  28.902  27.760   1.995
54602W        W26131   7.010  30.987  13.273
54603W        W26132   3.447  31.690   2.646
54604W        W26133   8.153  31.164   3.242
54605W        W26134   2.327  28.224  14.796
54606W        W26135   7.360  20.801  12.648
54607W        W26136   6.891   7.427   1.316
54608W        W26137   1.187  36.233   5.505
54609W        W26138  38.954  10.322   3.702
54610W        W26139  26.842  18.704  11.201
54611W        W26140   9.634  42.888  11.491
54612W        W26141  30.005  20.260   2.738
54613W        W26142  17.351  30.021   1.414
54614W        W26143   1.829  21.253   2.763
54615W        W26144  43.842  43.163   4.542
54616W        W26145  32.584   7.760   0.739
54617W        W26146   6.815  38.515  11.657
54618W        W26147  11.688  26.617   2.202
54619W        W26148   5.472  41.837  12.951
54620W        W26149  43.970   1.273  10.693
54621W        W26150  35.983   5.049   3.359
54622W        W26151  31.943   7.132   4.554
54623W        W26152  44.844   8.384   3.864
54624W        W26153  22.526  20.579   0.886
54625W        W26154  15.289  23.672  14.078
54626W        W26155  28.602  13.763  10.316
54627W        W26156  24.248  43.434  11.168
54628W        W26157  39.061  27.102   0.031
54629W        W26158  27.617   8.445   0.381
54630W        W26159  29.422   8.619  10.216
54631W        W26160  13.763  40.378   0.929
54632W        W26161  22.221  40.477  13.978
54633W        W26162  23.180  34.454   1.709
54634W        W26163  22.260  11.259  14.856
54635W        W26164  12.734  21.369   4.363
54636W        W26165  44.946  44.924   3.904
54637W        W26166  11.369  23.027   4.589
54638W        W26167  24.300  16.334   4.036
54639W        W26168  12.077  38.979   3.884
54640W        W26169  21.692  11.270  10.640
54641W        W26170   0.942  36.081  14.678
54642W        W26171   0.780  35.767  13.791
54643W        W26172  11.909  44.325   3.654
54644W        W26173   9.064  26.537  14.024
54645W        W26174   3.280  43.997  13.057
54646W        W26175  26.507  12.643   4.983
54647W        W26176  32.801   7.551   2.397
54648W        W26177  24.300  41.284   4.939
54649W        W26178  35.920  32.858  13.069
54650W        W26179  32.813  19.940   2.761
54651W        W26180  35.083   9.280  10.947
54652W        W26181  31.737  10.319   3.428
54653W        W26182  31.352  38.744   4.599
54654W        W26183  14.075  12.349  11.535
54655W        W26184   5.362  41.932   1.199
54656W        W26185   8.758  25.535  11.573
54657W        W26186  15.878  30.682  14.770
54658W        W26187  31.757  42.145   1.652
54659W        W26188  20.299  34.083   1.515
54660W        W26189   8.228  30.027   1.419
54661W        W26190  25.408  42.784  13.540
54662W        W26191  36.364  29.546  12.827
54663W        W26192  40.380  44.906  11.592
54664W        W26193  24.515  43.557  13.995
54665W        W26194   0.413   9.129   0.473
54666W        W26195  23.863  21.908  13.975
54667W        W26196  14.578  13.723  11.787
54668W        W26197   6.062  15.126   3.713
54669W        W26198  34.436  44.002   4.658
54670W        W26199   6.220   3.215  11.761
54671W        W26200  38.186  23.908  10.414
54672W        W26201  14.192  41.500   3.239
54673W        W26202  33.672  16.563   1.745
54674W        W26203  12.001  16.508   2.200
54675W        W26204  18.628   5.898   0.717
54676W        W26205  16.814  18.024   0.714
54677W        W26206  44.433  37.070   1.363
54678W        W26207  13.103  15.246  13.854
54679W        W26208  32.589  39.813   2.915
54680W        W26209  25.021   0.731  13.592
54681W        W26210  33.163  12.623   3.493
54682W        W26211  34.861  12.662   3.666
54683W        W26212  36.140   9.194  12.543
54684W        W26213  35.498   1.186  11.470
54685W        W26214  37.420   0.525  10.354
54686W        W26215   3.864  12.868  12.955
54687W        W26216  21.447  24.439   1.558
54688W        W26217  27.654  24.367   0.910
54689W        W26218  23.726  18.821   3.983
54690W        W26219  28.177  24.231   2.167
54691W        W26220  11.366  10.339  10.364
54692W        W26221  13.570  33.990   2.743
54693W        W26222   0.374  18.363   1.336
54694W        W26223  43.572  39.445   1.299
54695W        W26224  27.140  18.584  12.589
54696W        W26225  34.014   0.664   4.146
54697W        W26226  33.030  25.637  12.472
54698W        W26227  26.086  25.400  14.737
54699W        W26228  19.920  34.405   4.522
54700W        W26229   7.875  23.255  11.908
54701W        W26230   2.965  13.152   4.577
54702W        W26231  36.612  10.828   1.372
54703W        W26232  42.681  28.925  11.057
54704W        W26233  26.976  31.352  11.001
54705W        W26234  40.802  16.788   4.643
54706W        W26235  16.496  27.532  11.691
54707W        W26236  35.462  38.309   4.636
54708W        W26237  20.640   7.253   0.780
54709W        W26238  25.701   0.838  10.614
54710W        W26239  43.818  27.533  11.882
54711W        W26240  31.072  37.567   2.759
54712W        W26241   1.502  26.870  13.048
54713W        W26242   7.429  28.790   2.173
54714W        W26243  36.897  19.678   2.461
54715W        W26244   0.863   3.907  14.286
54716W        W26245  40.254  34.776   4.494
54717W        W26246  13.393  13.018   3.206
54718W        W26247   2.524   6.790  13.025
54719W        W26248  39.307  27.625   0.761
54720W        W26249   1.514  19.333   0.394
54721W        W26250  36.902   1.412   0.478
54722W        W26251  28.481   8.695  12.360
54723W        W26252  39.086  37.414   4.550
54724W        W26253  40.083  21.094  11.410
54725W        W26254  15.454  31.742   1.497
54726W        W26255  37.054   7.746   3.641
54727W        W26256  39.918  35.977   0.298
54728W        W26257  41.214   3.249   4.158
54729W        W26258  26.031   2.803   4.623
54730W        W26259  19.923  25.844   4.519
54731W        W26260  31.038   7.417  11.029
54732W        W26261  16.064  32.192   4.789
54733W        W26262  36.931  23.536  11.525
54734W        W26263  19.114  12.055   1.227
54735W        W26264  35.441   7.362   0.907
54736W        W26265  42.306  34.108  12.968
54737W        W26266   3.968  28.662  10.720
54738W        W26267   9.559  35.395  14.984
54739W        W26268  27.281  16.169  10.681
54740W        W26269  25.913  11.670  10.324
54741W        W26270  20.820  38.099   1.427
54742W        W26271  25.749   5.991   3.061
54743W        W26272  18.871  27.084   0.376
54744W        W26273  23.173   6.680  10.778
54745W        W26274   0.880  25.737   0.466
54746W        W26275  42.526  29.639  13.600
54747W        W26276   6.851  26.858   4.883
54748W        W26277   2.002   4.532  10.637
54749W        W26278  11.249  26.163   1.938
54750W        W26279  29.801  31.329  13.983
54751W        W26280  34.074   4.006  14.369
54752W        W26281  22.439  13.316  14.141
54753W        W26282  16.885  30.141   1.615
54754W        W26283   0.210  15.537   2.718
54755W        W26284  38.856  29.015   4.178
54756W        W26285  36.771  24.971  13.887
54757W        W26286  14.579  19.265  11.985
54758W        W26287  36.068  34.399   4.421
54759W        W26288  40.484  43.903  11.680
54760W        W26289  27.754  17.823  12.465
54761W        W26290  19.716  33.857  14.460
54762W        W26291  16.592   3.310   1.359
54763W        W26292  42.298  21.770  10.652
54764W        W26293   9.639  34.809  11.946
54765W        W26294  30.529  39.020  11.970
54766W        W26295  42.743  33.096  14.269
54767W        W26296  32.569   7.888  10.739
54768W        W26297  36.038  13.788   3.174
54769W        W26298  17.663  39.532  11.027
54770W        W26299  25.262  44.308   1.209
54771W        W26300  20.460  15.188  13.465
54772W        W26301  22.071  39.264   1.195
54773W        W26302  39.509  29.655   0.770
54774W        W26303  22.575  28.056   3.541
54775W        W26304  44.314  14.725   2.189
54776W        W26305  15.859  10.747  14.490
54777W        W26306  37.307  13.822  12.434
54778W        W26307  40.341  44.912   4.361
54779W        W26308  25.703  35.027   4.344
54780W        W26309   6.207  42.924  14.123
54781W        W26310   0.138  14.712  13.089
54782W        W26311  19.705   1.357  11.123
54783W        W26312   4.770  41.956  10.747
54784W        W26313  10.113  10.742  13.553
54785W        W26314  18.207   7.816  12.523
54786W        W26315  37.966  35.600  13.752
54787W        W26316  42.327   0.275  12.005
54788W        W26317   1.352   4.655   3.899
54789W        W26318  41.117  12.203   3.243
54790W        W26319  27.339  42.935   4.025
54791W        W26320   6.922   2.833   1.723
54792W        W26321   0.589   0.916   1.218
54793W        W26322  44.004   8.437  11.159
54794W        W26323  44.236  32.964  10.570
54795W        W26324  36.927   4.358  11.536
54796W        W26325  41.293  39.511   4.278
54797W        W26326  37.863   1.287  10.786
54798W        W26327  39.480  21.712  13.789
54799W        W26328  11.178  33.156   2.085
54800W        W26329  41.472  42.953  12.432
54801W        W26330   6.881  34.083   3.795
54802W        W26331   8.583  37.923   2.622
54803W        W26332  44.900  22.517  14.072
54804W        W26333  44.233  35.350   1.030
54805W        W26334   0.804   4.187  13.073
54806W        W26335  16.766  28.508  11.622
54807W        W26336  21.740  22.664  14.676
54808W        W26337   1.070  19.199  12.224
54809W        W26338  11.328  20.183   4.057
54810W        W26339  22.121  11.558  13.166
54811W        W26340  21.154  29.085   1.395
54812W        W26341  29.224  35.366  14.288
54813W        W26342  43.308  25.712  11.842
54814W        W26343  32.440  24.212   0.481
54815W        W26344   3.411   2.688   5.053
54816W        W26345   0.652  43.096   5.248
54817W        W26346  41.820   5.824  13.844
54818W        W26347   7.738   0.260  11.439
54819W        W26348  37.445  44.206   2.722
54820W        W26349   8.827  34.896  11.780
54821W        W26350  10.476  24.503   0.005
54822W        W26351  17.290  33.916  13.300
54823W        W26352   4.422  20.722  11.570
54824W        W26353   3.207   7.156  13.511
54825W        W26354   1.547  43.455   3.617
54826W        W26355  10.806   5.781   2.340
54827W        W26356  11.829  42.770   3.284
54828W        W26357  40.631  11.692  14.956
54829W        W26358  44.651  23.529  13.945
54830W        W26359  15.876  34.491  14.725
54831W        W26360  21.336  40.398  14.949
54832W        W26361   6.409  31.737  12.484
54833W        W26362  42.879   6.971   2.490
54834W        W26363  23.246  20.544  11.911
54835W        W26364   1.863  32.127  14.229
54836W        W26365  24.480  12.056   2.829
54837W        W26366  15.989   6.295  11.054
54838W        W26367  35.341  18.256   3.665
54839W        W26368   5.620   2.433  10.775
54840W        W26369  40.215  24.779   1.957
54841W        W26370  25.559  19.968  14.825
54842W        W26371  19.059  30.276  12.880
54843W        W26372   9.551  26.390  14.011
54844W        W26373  35.667   1.158   1.806
54845W        W26374  26.556  18.093  14.827
54846W        W26375  34.941  34.315   2.506
54847W        W26376  36.136  31.941   1.772
54848W        W26377  26.733   3.824   1.932
54849W        W26378  26.076  22.065  14.481
54850W        W26379  36.652  12.141   4.517
54851W        W26380  28.520  12.571  13.002
54852W        W26381  16.316  25.591   3.803
54853W        W26382  25.169   3.937   0.662
54854W        W26383  29.885  23.642   2.400
54855W        W26384  30.147   7.820   1.413
54856W        W26385   9.446   6.745   2.230
54857W        W26386  17.098  13.562  13.543
54858W        W26387  27.699  25.026  12.384
54859W        W26388  10.899  14.725   1.234
54860W        W26389  20.385  19.995  12.354
54861W        W26390  12.210  36.447   1.625
54862W        W26391  23.357  13.218  13.736
54863W        W26392  43.806  16.422  11.410
54864W        W26393  17.884  36.624  11.905
54865W        W26394  16.230  41.961   1.321
54866W        W26395   9.276   6.197  13.293
54867W        W26396   3.942  17.512   0.823
54868W        W26397   9.761  22.817  12.045
54869W        W26398  25.732  27.758  11.126
54870W        W26399  42.172   8.781  11.249
54871W        W26400  20.656   1.041   0.910
54872W        W26401  41.762  19.807   2.501
54873W        W26402  25.129  27.204  12.064
54874W        W26403  16.585  33.546   3.750
54875W        W26404  24.125  23.072  11.505
54876W        W26405  17.500  37.616   3.785
54877W        W26406  43.768  28.562  13.259
54878W        W26407  34.756   0.273   1.697
54879W        W26408  27.513  42.353   4.358
54880W        W26409  22.894  31.017   3.037
54881W        W26410  38.376  18.058  12.585
54882W        W26411  28.037   5.174   5.213
54883W        W26412  30.025   3.750  13.342
54884W        W26413  11.578  10.833  10.382
54885W        W26414  32.028  27.840   3.842
54886W        W26415  32.863  16.705  11.138
54887W        W26416  33.885  17.368  12.994
54888W        W26417  13.884  23.991  13.056
54889W        W26418  41.268  18.496  14.470
54890W        W26419   4.546   4.066  14.036
54891W        W26420   8.886  17.777  11.041
54892W        W26421   1.776  31.154  14.788
54893W        W26422  36.362   3.954  12.543
54894W        W26423  12.270  25.563  13.771
54895W        W26424   8.583  11.680  13.840
54896W        W26425  43.439  30.485   0.016
54897W        W26426   2.888  43.843   0.244
54898W        W26427  43.245  28.010   0.208
54899W        W26428  34.908  17.745  14.532
54900W        W26429  21.869  26.897   3.148
54901W        W26430  37.559   9.887   3.681
54902W        W26431   9.441  38.857   0.581
54903W        W26432  34.537  21.786   4.818
54904W        W26433  18.278  41.496  12.915
54905W        W26434  20.612   8.589  11.004
54906W        W26435  11.286  10.173   1.389
54907W        W26436   5.260  10.193   3.578
54908W        W26437  22.526  41.366   4.155
54909W        W26438  14.604  36.572   1.463
54910W        W26439  36.583  36.570  13.465
54911W        W26440   2.861   5.244   0.812
54912W        W26441  37.654  25.620   4.214
54913W        W26442  22.000  42.601  10.685
54914W        W26443  25.481  17.950   2.199
54915W        W26444  31.256  16.217   1.787
54916W        W26445  29.666  25.429  14.828
54917W        W26446  24.745   8.601   0.811
54918W        W26447  30.021  14.745  12.575
54919W        W26448  38.897   9.988   4.927
54920W        W26449  40.405   1.815   2.853
54921W        W26450  16.493  34.880  14.629
54922W        W26451  17.701  26.532  12.351
54923W        W26452  19.175  42.266   2.624
54924W        W26453   7.178  11.338  12.295
54925W        W26454   2.890  26.408  13.975
54926W        W26455  29.990  18.742   2.213
54927W        W26456   6.385  11.418   2.242
54928W        W26457  24.538  20.232   1.206
54929W        W26458  16.132   5.763  13.584
54930W        W26459  33.151  27.447   0.812
54931W        W26460  34.437  26.514   2.183
54932W        W26461  16.790   3.203  11.828
54933W        W26462  39.973  10.874   4.745
54934W        W26463  20.536   2.373   2.004
54935W        W26464   6.139   5.870  11.016
54936W        W26465  36.785  23.043  14.460
54937W        W26466  36.133  32.532   1.262
54938W        W26467  24.205  15.134   0.913
54939W        W26468  27.102  12.842  10.610
54940W        W26469  14.957  31.008   3.105
54941W        W26470  17.135  24.538  14.265
54942W        W26471   5.538  32.680   0.262
54943W        W26472  27.391   6.314  12.563
54944W        W26473  11.339  19.834   3.678
54945W        W26474  21.479  21.635   4.155
54946W        W26475  17.994  38.122  11.197
54947W        W26476  30.966  41.268  12.794
54948W        W26477  43.927  32.587   2.627
54949W        W26478  20.021  21.987   0.297
54950W        W26479  18.768  42.737   2.356
54951W        W26480  24.124   7.866   4.377
54952W        W26481  41.876   3.144  14.663
54953W        W26482  43.213  26.601  13.744
54954W        W26483  29.906  10.104  11.167
54955W        W26484   2.292  24.207   0.776
54956W        W26485  24.045   6.735   2.641
54957W        W26486  43.551  34.119   0.759
54958W        W26487  16.369  24.089   2.356
54959W        W26488  13.647  11.625   0.476
54960W        W26489  37.217  11.969   2.746
54961W        W26490  27.939  32.102   1.298
54962W        W26491  18.859  39.119  10.755
54963W        W26492  34.924  17.205  11.642
54964W        W26493   5.421  36.331   0.691
54965W        W26494  20.383  31.785  13.439
54966W        W26495  30.200  13.282  13.980
54967W        W26496   8.808  37.558  12.041
54968W        W26497   1.827  36.175  11.152
54969W        W26498  16.255  43.786  13.841
54970W        W26499  34.346  23.484   0.052
54971W        W26500  23.611  35.402   2.874
54972W        W26501   9.892   2.308  10.720
54973W        W26502  20.331   3.977   2.898
54974W        W26503  22.563  36.487  10.828
54975W        W26504  11.564   5.518   1.972
54976W        W26505  10.621  19.528  14.482
54977W        W26506  30.628   0.200   2.790
54978W        W26507  10.949   0.506   3.414
54979W        W26508  20.809   1.178  13.993
54980W        W26509  34.611  10.012   4.192
54981W        W26510  28.545   8.865  14.437
54982W        W26511  16.607   2.688  14.736
54983W        W26512   6.476  22.971   4.589
54984W        W26513  38.028  12.880  14.300
54985W        W26514   3.149  39.807   4.370
54986W        W26515   2.844  39.702   3.653
54987W        W26516  34.415   1.584  11.651
54988W        W26517  41.111   7.145   3.194
54989W        W26518  33.830  30.700   1.910
54990W        W26519  43.761   5.367   0.368
54991W        W26520  29.746  22.678   3.848
54992W        W26521  29.631  44.938   2.909
54993W        W26522  36.427   1.078  13.537
54994W        W26523   5.990  17.887  14.794
54995W        W26524   7.749  16.629  13.003
54996W        W26525  22.101   9.129   0.853
54997W        W26526  34.866  22.024  14.066
54998W        W26527  43.348   5.433   4.712
54999W        W26528  31.916  11.301   0.414
55000W        W26529  21.354  43.790  13.455
55001W        W26530   8.700  16.541   0.352
55002W        W26531  38.400  20.555  13.337
55003W        W26532  27.952  17.566  10.746
55004W        W26533  36.253  33.875  12.002
55005W        W26534   6.793  36.972   0.497
55006W        W26535  32.414  43.303   3.945
55007W        W26536  17.725  14.227  11.559
55008W        W26537  32.223  35.688   0.388
55009W        W26538  13.868  21.137  11.936
55010W        W26539  24.605  23.956   3.307
55011W        W26540  10.375   2.051   3.824
55012W        W26541  25.410  39.439  13.802
55013W        W26542  44.807  41.925   3.157
55014W        W26543  43.342  31.589  13.466
55015W        W26544  27.591  30.733  10.113
55016W        W26545   6.497   8.260  12.166
55017W        W26546   1.442  17.798   2.589
55018W        W26547   7.144  30.521   1.247
55019W        W26548  43.259  37.927  12.143
55020W        W26549  10.793  21.514   1.407
55021W        W26550  29.486  35.680   5.347
55022W        W26551  14.666  32.579   0.694
55023W        W26552  42.108  14.379  12.880
55024W        W26553   8.928  20.138   0.010
55025W        W26554  21.124  33.834  14.125
55026W        W26555  28.891  23.918  12.496
55027W        W26556  32.527  30.911   3.406
55028W        W26557  26.748   6.081  11.088
55029W        W26558   2.005  18.824  12.049
55030W        W26559  30.728  22.512  11.654
55031W        W26560  13.238  35.934  14.349
55032W        W26561  34.546  34.383   0.132
55033W        W26562  30.026  16.225   3.602
55034W        W26563   9.061  37.994  11.897
55035W        W26564   3.905  22.437  14.370
55036W        W26565  26.664  38.381   4.867
55037W        W26566  26.206  36.472  13.820
55038W        W26567   2.751  38.831   2.376
55039W        W26568  29.374  27.819  10.079
55040W        W26569  25.148  39.212   0.003
55041W        W26570  25.069  37.071   2.914
55042W        W26571   8.748  19.234   2.541
55043W        W26572  28.622  20.790  12.189
55044W        W26573  24.987  31.450   2.742
55045W        W26574  43.300  12.175   4.293
55046W        W26575  33.365  33.008  13.366
55047W        W26576   9.468  10.439  14.004
55048W        W26577  35.171   6.857  11.941
55049W        W26578  24.497  42.137  10.730
55050W        W26579  26.073  31.567  12.531
55051W        W26580   2.401  31.300  10.608
55052W        W26581  23.572   5.709   4.584
55053W        W26582  36.793  23.978  14.442
55054W        W26583  13.140   7.409  12.990
55055W        W26584  19.685  16.362   1.282
55056W        W26585   6.250  40.964   0.557
55057W        W26586  38.531   6.323  10.723
55058W        W26587  30.698  29.811  12.664
55059W        W26588  16.303  20.162   2.245
55060W        W26589  23.630  11.632   0.069
55061W        W26590   4.790  36.398   3.220
55062W        W26591  33.265   5.621   2.363
55063W        W26592   0.084  16.241  11.169
55064W        W26593   9.155  13.586   0.765
55065W        W26594  28.936  10.853   2.312
55066W        W26595  30.020   9.957  11.653
55067W        W26596  16.212   2.853   2.069
55068W        W26597  38.729  11.763  14.427
55069W        W26598  34.430  29.951   1.300
55070W        W26599  32.191  28.942   4.763
55071W        W26600  21.967   4.131  14.442
55072W        W26601   0.209  40.932  11.345
55073W        W26602  33.315  22.442  11.368
55074W        W26603  24.105  43.351  10.644
55075W        W26604  19.087  34.643  12.958
55076W        W26605  22.753  32.054  10.365
55077W        W26606  15.796  16.154  12.521
55078W        W26607  44.700  27.407  14.836
55079W        W26608  42.902  21.402  12.005
55080W        W26609  28.071  15.227   2.268
55081W        W26610  22.217  41.551   0.992
55082W        W26611  44.040  33.087   2.410
55083W        W26612   6.761  36.566   1.234
55084W        W26613  42.780  39.598   0.844
55085W        W26614  34.046  16.598   3.390
55086W        W26615  16.739  30.173  13.049
55087W        W26616  35.910  10.391  14.061
55088W        W26617   9.241   7.123  14.287
55089W        W26618   1.055  14.168  11.659
55090W        W26619  35.952  43.490  11.070
55091W        W26620  42.545  44.961   4.651
55092W        W26621  26.189  41.511  14.114
55093W        W26622   6.932  14.189   0.007
55094W        W26623  21.058   8.835  11.118
55095W        W26624  25.366   3.729   2.218
55096W        W26625  26.442   1.426  14.324
55097W        W26626  26.154   6.915  10.979
55098W        W26627   3.492  25.988   2.338
55099W        W26628   3.286  12.705  14.823
55100W        W26629  15.780   7.679  14.277
55101W        W26630   2.450  30.483   3.759
55102W        W26631  44.327  22.720  11.707
55103W        W26632  39.029  35.031   3.788
55104W        W26633  42.449   6.445   2.941
55105W        W26634   1.940  23.660  10.694
55106W        W26635   3.231  38.517   1.749
55107W        W26636  28.610  33.122   1.176
55108W        W26637  33.294  15.744   3.605
55109W        W26638  43.720  31.681   2.777
55110W        W26639  16.584  23.052   4.183
55111W        W26640  37.971  37.800  14.416
55112W        W26641   3.346  42.049   0.821
55113W        W26642  27.166  20.840  10.651
55114W        W26643  33.656  26.626   4.109
55115W        W26644  13.156   1.724   1.023
55116W        W26645  18.020  20.948  14.049
55117W        W26646  42.233  36.076  10.523
55118W        W26647  18.595  14.530   2.770
55119W        W26648  19.817  44.462   4.915
55120W        W26649  21.242   2.943  14.407
55121W        W26650   4.877  44.607   4.771
55122W        W26651  41.691   9.996   1.759
55123W        W26652  12.652   2.588   0.935
55124W        W26653   1.744  40.579  13.926
55125W        W26654  37.988   3.352   3.049
55126W        W26655  31.115  41.542   1.300
55127W        W26656  43.434  17.203  11.428
55128W        W26657   3.419  12.857   1.667
55129W        W26658  33.407  33.094   4.622
55130W        W26659  29.606  19.496  10.728
55131W        W26660  11.463  24.732  13.025
55132W        W26661  37.867  15.587   3.799
55133W        W26662  17.825  41.659   4.205
55134W        W26663  24.193  21.684   3.241
55135W        W26664  41.891  21.808   1.803
55136W        W26665  14.354  41.714  11.185
55137W        W26666  27.235   5.945  11.985
55138W        W26667  10.824  33.334  12.536
55139W        W26668  29.427  36.180  11.576
55140W        W26669  39.469   1.974  12.875
55141W        W26670  28.145   4.353  13.245
55142W        W26671   3.509  41.520  14.001
55143W        W26672  10.278   5.843   0.527
55144W        W26673  32.301  25.832   4.052
55145W        W26674  35.585  39.996   0.791
55146W        W26675  23.693  34.619   0.302
55147W        W26676  23.058  39.547  14.390
55148W        W26677   7.420  35.374   1.469
55149W        W26678  31.072  32.953   2.389
55150W        W26679  18.154  37.966  13.021
55151W        W26680   3.673  25.591  14.063
55152W        W26681  16.668  36.880  11.600
55153W        W26682  39.518  11.140  11.479
55154W        W26683  31.356  15.173   3.109
55155W        W26684  40.871  33.057   1.309
55156W        W26685  39.092   5.711   2.876
55157W        W26686   3.251   4.924   0.752
55158W        W26687   9.852  32.595   3.646
55159W        W26688  10.638  20.208  13.562
55160W        W26689  28.069  41.551   2.695
55161W        W26690  29.733  29.499   1.610
55162W        W26691  15.576  29.455   1.414
55163W        W26692  38.138  24.592   1.305
55164W        W26693  26.570  28.663  14.931
55165W        W26694  17.745  21.623  11.979
55166W        W26695   6.627  41.038   0.940
55167W        W26696  42.466  17.886  13.346
55168W        W26697   9.956   4.200  13.452
55169W        W26698  36.103  16.259   4.917
55170W        W26699  36.493  20.389   4.276
55171W        W26700  40.375  23.718   2.367
55172W        W26701  22.141  17.808   1.877
55173W        W26702   5.983  39.482   4.693
55174W        W26703   5.118   3.906  11.150
55175W        W26704  35.306  28.792   4.190
55176W        W26705   5.333  21.974  11.698
55177W        W26706   7.724  13.211   4.479
55178W        W26707   9.313   5.866   3.617
55179W        W26708  11.582  14.523  11.471
55180W        W26709   2.884  30.437   0.220
55181W        W26710  12.824  15.338   0.416
55182W        W26711  12.223   8.563   2.840
55183W        W26712  40.294  14.869  13.803
55184W        W26713  15.302  13.828   2.667
55185W        W26714  42.893  33.561   1.999
55186W        W26715  23.485  27.288   0.899
55187W        W26716   6.917  21.140   0.102
55188W        W26717  18.628   2.933   0.476
55189W        W26718  19.794   9.274  14.925
55190W        W26719  25.995  15.489  12.914
55191W        W26720  15.162  35.888   3.055
55192W        W26721  25.240  16.801   1.910
55193W        W26722  16.592  17.649   3.112
55194W        W26723  39.329  32.430  10.831
55195W        W26724  18.879  30.726   4.104
55196W        W26725   3.935   4.295   2.683
55197W        W26726  42.720   5.387   1.347
55198W        W26727   4.316   3.339  11.004
55199W        W26728  35.554   6.333  11.245
55200W        W26729  36.825  35.326  12.743
55201W        W26730   8.539  30.641  14.502
55202W        W26731   4.687  20.128  14.348
55203W        W26732  37.354  44.411  13.325
55204W        W26733  25.536  39.806   3.096
55205W        W26734  20.215  11.813  11.933
55206W        W26735  42.902   1.448   4.720
55207W        W26736  42.528  30.224   0.381
55208W        W26737  16.052  12.835   0.247
55209W        W26738  34.566  35.140  11.799
55210W        W26739  38.009  18.062   3.370
55211W        W26740   1.677   6.740  14.850
55212W        W26741  31.342   0.443   1.743
55213W        W26742  27.979  37.110   3.135
55214W        W26743   0.226  42.234   4.060
55215W        W26744  19.391  23.610   2.349
55216W        W26745  22.992  20.118  12.020
55217W        W26746  23.383   5.689   3.595
55218W        W26747  14.719  16.884  12.248
55219W        W26748   4.815  12.987  13.744
55220W        W26749   0.955  20.679  13.466
55221W        W26750   1.208  36.377   0.398
55222W        W26751  21.149  44.823   3.690
55223W        W26752  30.677  39.884  13.929
55224W        W26753  43.619  29.435   0.388
55225W        W26754   4.590  24.881   2.918
55226W        W26755  16.061  10.327  11.013
55227W        W26756  40.015  11.065  14.361
55228W        W26757   8.611  18.687   4.150
55229W        W26758  36.195  17.495   0.923
55230W        W26759  29.393  34.687   5.055
55231W        W26760  34.334  26.966   1.943
55232W        W26761  28.074  17.778   4.410
55233W        W26762  37.479  44.371   0.195
55234W        W26763  24.961  40.492   1.865
55235W        W26764   7.899   9.625   3.710
55236W        W26765  16.731  15.984   1.033
55237W        W26766  25.635  44.341  12.605
55238W        W26767  29.023  32.207  12.906
55239W        W26768  18.083  35.975   2.701
55240W        W26769   1.862  38.845   3.746
55241W        W26770  27.344  15.451  10.142
55242W        W26771  17.473   6.157   0.823
55243W        W26772   7.330   2.962   4.648
55244W        W26773  33.158   9.696  13.330
55245W        W26774  44.669  31.148   3.663
55246W        W26775   5.228  14.540   0.717
55247W        W26776  31.492  37.948   5.045
55248W        W26777  44.477  10.266  13.849
55249W        W26778   9.770  35.124   3.819
55250W        W26779   9.620  39.106  10.261
55251W        W26780  16.834  13.784   0.409
55252W        W26781  22.881  12.712   0.182
55253W        W26782  40.876  15.507  12.817
55254W        W26783  37.120   4.484  12.557
55255W        W26784  22.559  23.867  13.368
55256W        W26785  37.281  31.160  13.988
55257W        W26786  28.656  32.706  14.377
55258W        W26787  16.657   2.779   3.279
55259W        W26788  39.387  22.508  10.593
55260W        W26789  27.957  17.174  11.141
55261W        W26790   8.629  37.925   0.231
55262W        W26791  20.137  42.546   4.481
55263W        W26792  12.703  34.284   3.721
55264W        W26793  33.649  34.095   2.220
55265W        W26794  16.537  30.668  14.861
55266W        W26795   7.389   7.521  13.412
55267W        W26796  18.537  15.653  14.589
55268W        W26797  20.124  21.779   1.562
55269W        W26798  33.397  42.562  11.041
55270W        W26799  41.016  22.674   4.498
55271W        W26800   8.631  24.805   0.390
55272W        W26801  29.583   9.582   4.111
55273W        W26802  16.621  16.645   2.192
55274W        W26803   0.821   3.265  10.499
55275W        W26804  21.384  10.265   0.965
55276W        W26805  40.130  36.945  12.819
55277W        W26806  22.568  32.823  11.591
55278W        W26807  30.802  21.588   1.922
55279W        W26808  11.468   5.948   3.239
55280W        W26809  41.227  25.289   1.405
55281W        W26810   4.657   8.696   0.040
55282W        W26811   0.737   3.659  12.981
55283W        W26812  39.668   2.532   3.683
55284W        W26813  35.372   1.009   4.233
55285W        W26814  31.589  34.073   1.207
55286W        W26815   5.169  26.682   4.558
55287W        W26816  29.688  18.552  10.797
55288W        W26817  25.713  21.656  10.660
55289W        W26818   8.922  24.538   0.018
55290W        W26819  42.673  27.862  13.911
55291W        W26820   8.980   1.421  10.278
55292W        W26821   1.063  15.986   9.925
55293W        W26822  28.458  15.768  14.586
55294W        W26823  33.974  28.480   4.401
55295W        W26824  25.952  37.518   4.099
55296W        W26825   2.456  12.712  12.014
55297W        W26826  22.680  19.292  13.257
55298W        W26827  40.347  13.590  12.808
55299W        W26828  44.214   3.152   2.141
55300W        W26829  18.086   2.291  13.305
55301W        W26830  36.046  44.471   2.797
55302W        W26831  19.254  24.994  14.033
55303W        W26832   4.266  22.436  13.973
55304W        W26833  43.889  40.895  12.115
55305W        W26834   2.142  18.633  14.801
55306W        W26835  27.379  43.781   4.260
55307W        W26836   0.010  44.531  11.100
55308W        W26837   0.952  24.921  14.024
55309W        W26838  37.886  39.442   1.245
55310W        W26839  31.625  32.009  13.401
55311W        W26840  39.270   7.395  14.453
55312W        W26841   6.681  18.104   3.421
55313W        W26842  22.185   8.347  11.388
55314W        W26843  15.515  22.701  12.071
55315W        W26844   7.449  24.765   2.225
55316W        W26845  36.486  36.363  11.378
55317W        W26846  32.766  14.806   0.950
55318W        W26847   8.961  11.596  10.309
55319W        W26848  38.459  16.755   4.061
55320W        W26849  21.182  39.577  13.961
55321W        W26850  26.479   7.925   2.415
55322W        W26851  38.819  27.176   1.462
55323W        W26852   7.873   9.872  12.499
55324W        W26853  25.621  24.476   3.709
55325W        W26854   1.786   3.958   3.230
55326W        W26855  13.341  18.969   4.296
55327W        W26856  42.018   9.970  10.686
55328W        W26857  12.779  28.421  13.084
55329W        W26858  44.337   2.337   4.444
55330W        W26859  17.791  34.236   2.707
55331W        W26860  27.753  34.540  11.671
55332W        W26861  35.305  33.474  10.941
55333W        W26862  40.276  43.464   4.078
55334W        W26863  13.756  25.699  13.972
55335W        W26864  19.075  29.225  13.734
55336W        W26865  27.619  32.635  13.104
55337W        W26866   8.412  21.447   0.488
55338W        W26867  19.262   6.282   1.272
55339W        W26868  23.451   0.753   1.112
55340W        W26869  28.607  22.045  12.797
55341W        W26870   6.407  15.853   4.594
55342W        W26871  19.451  16.603  11.086
55343W        W26872   2.485  31.134  13.044
55344W        W26873  20.679  24.639   3.537
55345W        W26874  33.925  31.179  11.061
55346W        W26875  27.253  25.132  10.550
55347W        W26876  37.380  36.179  10.873
55348W        W26877  27.233  22.500  14.847
55349W        W26878  27.960  23.742   3.785
55350W        W26879  21.285   9.864   1.791
55351W        W26880  15.648  21.209  11.980
55352W        W26881  27.741  39.429   2.732
55353W        W26882   3.435   8.216  13.758
55354W        W26883  20.641  12.762  10.602
55355W        W26884  38.796  31.022   0.803
55356W        W26885   0.766   9.684  13.080
55357W        W26886  12.992  38.227  13.845
55358W        W26887  24.017  35.065  12.977
55359W        W26888  24.490  15.158  12.314
55360W        W26889  15.069   4.744  10.469
55361W        W26890   8.823  21.059   0.297
55362W        W26891  25.273  22.172   2.333
55363W        W26892  38.550  30.932   1.972
55364W        W26893   9.868  14.851   2.411
55365W        W26894  13.698  37.324   0.459
55366W        W26895  20.672  11.598  11.998
55367W        W26896   0.899  37.369  13.896
55368W        W26897  17.826  41.977  10.754
55369W        W26898  14.912  30.478  13.739
55370W        W26899   5.334  25.975   2.275
55371W        W26900   9.824  43.731  10.888
55372W        W26901  30.602  10.207   2.656
55373W        W26902  35.172  27.370  13.076
55374W        W26903  39.890   2.078   3.665
55375W        W26904   2.756  15.531  11.606
55376W        W26905  22.059   4.153  13.551
55377W        W26906  40.575  22.688   0.286
55378W        W26907  27.602  32.346  14.901
55379W        W26908  26.127  23.827  14.929
55380W        W26909  31.116  35.471   3.676
55381W        W26910  39.993  31.629  10.716
55382W        W26911  21.729  18.056   0.446
55383W        W26912  33.133  39.769   2.161
55384W        W26913  22.816  41.354  13.003
55385W        W26914  13.137   3.351  13.386
55386W        W26915  33.974  25.131   2.127
55387W        W26916  19.287  37.740   2.664
55388W        W26917   2.645  17.473   4.056
55389W        W26918  29.338  23.485   3.757
55390W        W26919  34.888   4.810  10.116
55391W        W26920  24.522  21.577   0.911
55392W        W26921  28.303  27.962  12.507
55393W        W26922  10.349   4.131   1.796
55394W        W26923  14.604  20.326  10.705
55395W        W26924   9.137  13.815  11.643
55396W        W26925  43.362  11.550  14.533
55397W        W26926  34.602  37.611   1.381
55398W        W26927   1.850  26.697   1.581
55399W        W26928  28.204  25.258  11.528
55400W        W26929   2.123   5.186  13.542
55401W        W26930  30.859  35.970  13.935
55402W        W26931  16.693   6.516  13.382
55403W        W26932   0.286  43.741   4.114
55404W        W26933  33.730  39.083  11.949
55405W        W26934  29.494  14.698   2.122
55406W        W26935  44.898  35.890  14.401
55407W        W26936  39.427  31.714  14.326
55408W        W26937  17.018  26.413  14.552
55409W        W26938   9.907  11.949   2.739
55410W        W26939  22.319  40.859   1.355
55411W        W26940  32.998  14.719  10.600
55412W        W26941  21.059  25.368  13.372
55413W        W26942  18.664  32.943   4.585
55414W        W26943  34.829  23.890   3.222
55415W        W26944  36.786  44.778   1.326
55416W        W26945  41.609   7.442  11.190
55417W        W26946  18.801  13.926  14.994
55418W        W26947  38.359  43.327  11.023
55419W        W26948  16.755  18.801   3.696
55420W        W26949  37.946  17.324   0.252
55421W        W26950  16.729  10.267   3.382
55422W        W26951  16.122  15.839   0.435
55423W        W26952  24.833  28.030  13.322
55424W        W26953   9.123  32.636  11.528
55425W        W26954  24.609  14.318   4.627
55426W        W26955  41.407   5.893  12.537
55427W        W26956  42.388  22.215  13.350
55428W        W26957   4.278  19.101   3.798
55429W        W26958   3.879  40.049  11.048
55430W        W26959  39.961  26.508  11.497
55431W        W26960  38.396  39.266  13.945
55432W        W26961  44.102  44.458  10.118
55433W        W26962  22.151  32.729  11.017
55434W        W26963   2.048  18.760  13.374
55435W        W26964   5.648  14.597   3.227
55436W        W26965  39.363  29.154  12.598
55437W        W26966  36.203  37.577  14.353
55438W        W26967   2.296  33.560  14.442
55439W        W26968  23.082  22.970  10.513
55440W        W26969  37.851  38.093  13.942
55441W        W26970  43.149  11.775   4.789
55442W        W26971  31.361  19.019  11.073
55443W        W26972  40.749  37.385  12.009
55444W        W26973  10.425  14.289  11.549
55445W        W26974  27.248  35.247  14.373
55446W        W26975  33.130  23.759  11.902
55447W        W26976  35.792   2.818   2.860
55448W        W26977   9.000  31.435   5.165
55449W        W26978  14.631  19.188   2.196
55450W        W26979  38.377  30.897   4.238
55451W        W26980  22.239  40.176  13.546
55452W        W26981  33.960  37.519   2.935
55453W        W26982  40.817  29.452  12.192
55454W        W26983  33.879  25.458  13.597
55455W        W26984  25.933  15.678  14.509
55456W        W26985  33.576  31.023   4.886
55457W        W26986  35.508   4.813   1.281
55458W        W26987   8.861  43.330   3.651
55459W        W26988  25.285  12.946   3.631
55460W        W26989  15.100  26.981   2.390
55461W        W26990   3.660  34.856  10.991
55462W        W26991  33.594  32.018   1.493
55463W        W26992   0.787  41.487  12.741
55464W        W26993  27.702   9.311  12.454
55465W        W26994  44.351  29.877  10.796
55466W        W26995   8.501  37.498   5.104
55467W        W26996  23.090  19.053  13.754
55468W        W26997   9.401  25.508   4.565
55469W        W26998  31.322   7.693  11.763
55470W        W26999  10.324   0.666  14.344
55471W        W27000  12.765  33.344  14.862
55472W        W27001  13.115   5.644   4.616
55473W        W27002  39.389   8.498   3.626
55474W        W27003  15.092   7.307   1.198
55475W        W27004  31.937  41.005   0.344
55476W        W27005   5.959  35.539  10.958
55477W        W27006   2.215  38.515  13.849
55478W        W27007  31.986  44.280   0.277
55479W        W27008  32.595  23.756  12.630
55480W        W27009   6.163   2.382  11.337
55481W        W27010  23.515  14.671  14.812
55482W        W27011  37.845  24.458   4.213
55483W        W27012  32.903   0.901  11.058
55484W        W27013  22.569  40.041  11.240
55485W        W27014  38.952  17.019   2.912
55486W        W27015  16.774  27.020  14.814
55487W        W27016  26.582  24.676   4.324
55488W        W27017  25.651  36.170  12.787
55489W        W27018  27.041  17.045   0.227
55490W        W27019  36.412  24.957  10.663
55491W        W27020  44.825  24.582  10.707
55492W        W27021  36.862  44.552   0.525
55493W        W27022   8.078   5.466   2.533
55494W        W27023   6.325   2.994   0.472
55495W        W27024  25.525  30.605  13.618
55496W        W27025  28.178  32.873   0.932
55497W        W27026  37.470  26.888   4.188
55498W        W27027  31.422   9.353   2.770
55499W        W27028  19.281   0.766  13.418
55500W        W27029   3.493  15.046  11.039
55501W        W27030  34.126  23.963   3.651
55502W        W27031   9.745  19.244   1.517
55503W        W27032  37.290  39.788  12.382
55504W        W27033  33.532  15.059  14.097
55505W        W27034  41.795  36.831  12.942
55506W        W27035  34.292  34.042  13.948
55507W        W27036  10.314   9.935  10.531
55508W        W27037  39.338  33.617  13.227
55509W        W27038  27.972   9.612  11.420
55510W        W27039   3.458  17.133   1.684
55511W        W27040  28.278   4.233   2.686
55512W        W27041   0.382   2.350  11.761
55513W        W27042   8.302  43.829  11.607
55514W        W27043  29.426  32.649  14.825
55515W        W27044  14.350   8.124   4.372
55516W        W27045  33.282   1.006  13.535
55517W        W27046  17.342  40.225   2.212
55518W        W27047  37.572  16.129  11.156
55519W        W27048   1.372  16.040  14.407
55520W        W27049  29.122  17.990   2.816
55521W        W27050   4.344  18.545  11.418
55522W        W27051  24.632  32.345  13.050
55523W        W27052  10.101  41.348  13.551
55524W        W27053  37.481   6.865   5.004
55525W        W27054   4.232   5.883   0.297
55526W        W27055  11.300   0.683   2.178
55527W        W27056   7.912  17.146   0.261
55528W        W27057  43.191   9.285  12.376
55529W        W27058  12.762   7.254  11.916
55530W        W27059  25.874  41.963  12.952
55531W        W27060   0.775  36.385   1.978
55532W        W27061  35.034   0.939   3.802
55533W        W27062   0.792  26.617  11.945
55534W        W27063  28.467  32.040  13.610
55535W        W27064  43.068  11.264  12.787
55536W        W27065  33.354  23.233  10.585
55537W        W27066  27.038  21.690  12.055
55538W        W27067  43.448  25.681  12.354
55539W        W27068  21.763  23.205  11.953
55540W        W27069  29.558  34.111  11.700
55541W        W27070  25.090  25.543  12.907
55542W        W27071  31.077   4.408  10.453
55543W        W27072  23.906  37.905  14.281
55544W        W27073   8.927  39.794  11.564
55545W        W27074  35.509   2.319  10.720
55546W        W27075  24.808  10.362  11.519
55547W        W27076  15.024  43.497   0.314
55548W        W27077  40.267  43.343   2.289
55549W        W27078  29.349   6.381   0.336
55550W        W27079  13.540  39.511   0.758
55551W        W27080  33.384   5.211   4.532
55552W        W27081  25.080  11.852   2.446
55553W        W27082  22.295   8.299   2.886
55554W        W27083  32.523   1.491   2.432
55555W        W27084  33.709  18.470  12.303
55556W        W27085  29.970   2.786  11.096
55557W        W27086   3.026  35.698  11.081
55558W        W27087  23.424  43.622   2.837
55559W        W27088   5.981  38.438   1.882
55560W        W27089  34.018  35.298  12.543
55561W        W27090  42.937  25.064   2.471
55562W        W27091  12.423  37.114  14.752
55563W        W27092  15.099  23.778   0.438
55564W        W27093  24.570  34.611   2.765
55565W        W27094   4.345  24.529  11.209
55566W        W27095  18.186   9.149   4.341
55567W        W27096  34.087   2.388   1.747
55568W        W27097  16.266  27.055  13.441
55569W        W27098  18.670   4.331   3.685
55570W        W27099  11.836   7.242   2.643
55571W        W27100  12.120  35.390   4.314
55572W        W27101  36.036  29.271   4.154
55573W        W27102   0.772  44.407   0.295
55574W        W27103   6.169  31.119  11.579
55575W        W27104  38.189   6.139  14.463
55576W        W27105  43.352   3.355   1.858
55577W        W27106  43.527  43.971  14.219
55578W        W27107  31.878  14.172   3.438
55579W        W27108  20.215  10.178   0.282
55580W        W27109  43.378  25.577  10.705
55581W        W27110  21.380  16.354  14.266
55582W        W27111  27.190  24.474   3.070
55583W        W27112   0.984   9.224   0.821
55584W        W27113  21.658  28.643  11.494
55585W        W27114  42.892  16.163   2.202
55586W        W27115   6.794  29.052  10.806
55587W        W27116  29.584  31.887   1.012
55588W        W27117  28.393  13.279   0.955
55589W        W27118  32.152   0.788   0.391
55590W        W27119  12.719  26.000   2.852
55591W        W27120  43.002   1.888   5.195
55592W        W27121  30.601   9.277  11.839
55593W        W27122  37.445  11.279  14.731
55594W        W27123  34.981  35.926   3.126
55595W        W27124  15.847  43.243  14.499
55596W        W27125   6.069  20.141   4.136
55597W        W27126  32.620  30.126  13.407
55598W        W27127  26.543  22.727  14.118
55599W        W27128  26.229  38.371  14.952
55600W        W27129  10.870  35.450   4.455
55601W        W27130  40.099   1.865   3.258
55602W        W27131  21.260  30.235   1.965
55603W        W27132   6.735  11.635  13.574
55604W        W27133   3.310   3.132  11.874
55605W        W27134  17.861  38.501   2.997
55606W        W27135   8.415  41.864   2.753
55607W        W27136  40.572  27.371  14.788
55608W        W27137  29.428  41.281  11.213
55609W        W27138  37.007  44.453  14.975
55610W        W27139  29.691   6.787  14.501
55611W        W27140  39.392  16.978   0.920
55612W        W27141  35.275   4.091  11.134
55613W        W27142   8.834  17.854  14.793
55614W        W27143  42.721  22.041   0.314
55615W        W27144  11.317  16.915   4.141
55616W        W27145  28.402  36.902   0.390
55617W        W27146  16.093  29.985  12.627
55618W        W27147  21.516   1.812  13.392
55619W        W27148  36.860  19.112   0.703
55620W        W27149   6.365  16.544   4.961
55621W        W27150  19.049  32.163   2.576
55622W        W27151   8.158  44.931  10.565
55623W        W27152  24.081  35.003   1.273
55624W        W27153  44.330  18.027   0.032
55625W        W27154   1.603  29.861   1.835
55626W        W27155  26.273  27.836   3.663
55627W        W27156  33.876  31.589  12.053
55628W        W27157  27.664   9.237  11.571
55629W        W27158  18.174  32.613   2.686
55630W        W27159  28.421  36.947  13.804
55631W        W27160  21.631  37.151  10.680
55632W        W27161  22.611  12.761  12.876
55633W        W27162  31.631  33.499  12.961
55634W        W27163  11.665   1.043   1.254
55635W        W27164  15.263  19.946   2.338
55636W        W27165  29.623  26.454   1.385
55637W        W27166  21.236  43.199   2.004
55638W        W27167  35.480  35.449   2.164
55639W        W27168  43.364  18.820   2.585
55640W        W27169  41.823   8.229   4.568
55641W        W27170  25.674   1.349   3.748
55642W        W27171  31.409  40.232   0.864
55643W        W27172   4.901  27.171   1.993
55644W        W27173  15.540  26.529  11.735
55645W        W27174  30.170   0.365  14.534
55646W        W27175  43.976  34.073   2.613
55647W        W27176  32.851  35.359  11.283
55648W        W27177  20.708  26.751  13.618
55649W        W27178   0.287  19.267  11.118
55650W        W27179   5.636  13.220  11.492
55651W        W27180   3.280  27.131   0.150
55652W        W27181  43.402  27.075  12.481
55653W        W27182  12.385  25.450   2.289
55654W        W27183  27.147   9.245  11.596
55655W        W27184  31.447  33.604  10.691
55656W        W27185  23.503   9.321  12.113
55657W        W27186  44.915  17.082  12.416
55658W        W27187  18.849  33.009  13.598
55659W        W27188  15.233  12.204   4.774
55660W        W27189  23.536   4.117   1.832
55661W        W27190   5.245   8.374   3.187
55662W        W27191  11.604  32.410  11.961
55663W        W27192   2.303  42.485   3.846
55664W        W27193  12.208  32.389   4.320
55665W        W27194  24.338  35.466  13.008
55666W        W27195  10.739  11.793   0.846
55667W        W27196  11.845  21.085  11.344
55668W        W27197   5.897  21.121   3.425
55669W        W27198  35.499  14.264  12.323
55670W        W27199  20.726  17.673  11.437
55671W        W27200  34.079  30.587  14.546
55672W        W27201  35.545  38.846  12.074
55673W        W27202  31.719  17.089  10.935
55674W        W27203  36.444  42.548   3.053
55675W        W27204  37.448  20.265   2.358
55676W        W27205  36.396  16.273   3.698
55677W        W27206  24.561  15.846   0.793
55678W        W27207  36.461  21.666  12.030
55679W        W27208   5.802  14.615  14.834
55680W        W27209  35.488  12.322   2.904
55681W        W27210  19.992   5.285  13.612
55682W        W27211  31.605  19.588   2.162
55683W        W27212  28.141  21.813  12.836
55684W        W27213  23.180   0.362   3.124
55685W        W27214  24.623  38.555   1.735
55686W        W27215  43.888  32.370   1.741
55687W        W27216   8.279  15.168   1.183
55688W        W27217  14.253  15.171   1.353
55689W        W27218  34.396  38.020   4.600
55690W        W27219  17.570   7.526   2.721
55691W        W27220  25.876  33.245  11.949
55692W        W27221   9.406  29.577   3.985
55693W        W27222   6.102  23.529  14.607
55694W        W27223  32.657  44.319  13.124
55695W        W27224   6.949  28.691   4.219
55696W        W27225  10.716  36.893  10.734
55697W        W27226  13.444   7.622   4.219
55698W        W27227  42.958   0.300   1.940
55699W        W27228  37.026  33.095  13.929
55700W        W27229  23.839  35.404  14.719
55701W        W27230  33.040  36.069  13.384
55702W        W27231  18.739  43.515  14.854
55703W        W27232  38.754  13.708  12.569
55704W        W27233  13.071  28.769  13.314
55705W        W27234  24.320   4.191   3.695
55706W        W27235  18.250  36.036  13.514
55707W        W27236  19.817   0.367   0.407
55708W        W27237  35.981   8.746  13.943
55709W        W27238   6.655  10.707   2.970
55710W        W27239   5.064  28.990   4.321
55711W        W27240   9.854   4.654  11.958
55712W        W27241   3.942  37.044  12.145
55713W        W27242   4.285  13.293  11.659
55714W        W27243  14.973  11.319   9.845
55715W        W27244   3.161  20.197  12.941
55716W        W27245  29.745  32.048  11.566
55717W        W27246  39.611  13.348   2.497
55718W        W27247  32.041  16.142   2.232
55719W        W27248   1.940  11.816  10.478
55720W        W27249  15.195  34.900  10.725
55721W        W27250  26.772   2.895  12.147
55722W        W27251  16.003   1.668  12.837
55723W        W27252   2.976  13.262   1.736
55724W        W27253   5.236   1.678   1.444
55725W        W27254  41.771  22.791  13.993
55726W        W27255  18.432   9.128   9.916
55727W        W27256  37.977   7.070   4.897
55728W        W27257   0.367  21.238   3.362
55729W        W27258  38.301  24.940  10.566
55730W        W27259   4.769  19.069   0.064
55731W        W27260  10.328  39.868   4.965
55732W        W27261  28.198  44.152  12.050
55733W        W27262   9.756  29.926   3.388
55734W        W27263   9.135  19.032  14.412
55735W        W27264   8.409  28.449  14.748
55736W        W27265  15.486  21.212  14.274
55737W        W27266  43.728  37.904   2.399
55738W        W27267  41.892   9.313   4.088
55739W        W27268   2.696  24.130  13.520
55740W        W27269  22.952  37.954   3.848
55741W        W27270  19.734   1.370   2.911
55742W        W27271  39.064  17.927  12.028
55743W        W27272  16.810   6.414  12.533
55744W        W27273  11.290  42.066  13.448
55745W        W27274  28.463  25.983  10.615
55746W        W27275  40.373  37.474   4.118
55747W        W27276  22.641  44.162   3.561
55748W        W27277   4.063  24.209  13.988
55749W        W27278  19.662  39.527  13.991
55750W        W27279  29.042   4.332   3.574
55751W        W27280   7.084  12.495  12.009
55752W        W27281  10.824  22.501  12.360
55753W        W27282  41.912  21.179  10.113
55754W        W27283   5.683  20.590  12.352
55755W        W27284   3.980  19.080  12.983
55756W        W27285   0.953   5.806  13.391
55757W        W27286  29.757  12.836   3.298
55758W        W27287  33.857  26.851  10.700
55759W        W27288  32.468  38.787   0.339
55760W        W27289  30.190   9.560   1.245
55761W        W27290  17.221  30.108  12.481
55762W        W27291   8.702   4.183  10.528
55763W        W27292  23.051  40.434  10.394
55764W        W27293  19.891  41.890   3.598
55765W        W27294  38.939  31.357  11.231
55766W        W27295  22.497  16.547   0.553
55767W        W27296  26.939  22.778  12.175
55768W        W27297  30.640  39.610   4.247
55769W        W27298   6.316  24.744  10.976
55770W        W27299  42.428  36.311   0.984
55771W        W27300   8.803   8.229   3.200
55772W        W27301  15.357   5.819   0.982
55773W        W27302  34.913  40.522   5.285
55774W        W27303  31.754  17.090  12.056
55775W        W27304  41.561  29.158   3.689
55776W        W27305  44.695  29.164  11.028
55777W        W27306  21.111  43.709   2.866
55778W        W27307  21.095   0.919  12.994
55779W        W27308  43.908  26.008  14.862
55780W        W27309  28.189  11.642   1.310
55781W        W27310  20.217  32.899  13.189
55782W        W27311  12.943   3.740   2.783
55783W        W27312  22.552  34.200   1.930
55784W        W27313  10.156  24.252  12.792
55785W        W27314  17.909  33.904   3.319
55786W        W27315  28.773  35.575  10.340
55787W        W27316  40.588  10.320  10.779
55788W        W27317  14.196  44.414   1.005
55789W        W27318  34.563   9.772  12.033
55790W        W27319  23.594  26.460  13.460
55791W        W27320  26.066  27.226  13.419
55792W        W27321   2.868   6.376  13.280
55793W        W27322  44.853  24.556   0.310
55794W        W27323  30.632  41.275  13.450
55795W        W27324   5.338  34.356  11.058
55796W        W27325  31.562  19.173  12.447
55797W        W27326  31.553  20.352   1.651
55798W        W27327  10.940  18.213  14.801
55799W        W27328   2.893  43.586   2.659
55800W        W27329  13.511   4.063   0.803
55801W        W27330  32.100  28.233   2.390
55802W        W27331  23.284  15.303   1.896
55803W        W27332  24.004   0.902  10.656
55804W        W27333  18.598   2.415   0.025
55805W        W27334   7.786   4.914   3.730
55806W        W27335  34.143  40.847   4.559
55807W        W27336   4.757  33.641   3.780
55808W        W27337  28.201  17.332   4.176
55809W        W27338  17.345  24.701  11.817
55810W        W27339  33.925  26.111   1.369
55811W        W27340  39.504   6.177  14.845
55812W        W27341   6.560  34.008   1.948
55813W        W27342  28.536  24.049   0.908
55814W        W27343  26.529   6.839  12.742
55815W        W27344   4.665  26.990  11.449
55816W        W27345   6.657  12.134  13.498
55817W        W27346   9.688  32.058   1.726
55818W        W27347   2.391  18.406  11.210
55819W        W27348  33.799   6.050   1.345
55820W        W27349  37.400  44.490   4.739
55821W        W27350  29.442  26.021  13.008
55822W        W27351  16.665   7.383  14.824
55823W        W27352   9.641   0.916   0.554
55824W        W27353  41.448   2.315  11.743
55825W        W27354  42.459  32.399  14.921
55826W        W27355  21.238  32.881  11.212
55827W        W27356  30.140  29.321  11.116
55828W        W27357   8.617  36.107   2.889
55829W        W27358  30.072  36.559   1.969
55830W        W27359   2.774  12.596  14.881
55831W        W27360  31.266  29.014   3.318
55832W        W27361  39.725  14.308  10.530
55833W        W27362  20.769  31.440   1.508
55834W        W27363   8.922  44.883  13.034
55835W        W27364  40.379   6.755   2.173
55836W        W27365  24.592   2.319  13.865
55837W        W27366  30.777  34.715  12.455
55838W        W27367   7.317  23.244   1.255
55839W        W27368  33.627  41.591   4.941
55840W        W27369  10.404  27.753   1.182
55841W        W27370   9.099  34.405   5.055
55842W        W27371  39.432  12.303   3.990
55843W        W27372  31.975  44.517   4.784
55844W        W27373   4.252   5.102   4.262
55845W        W27374   3.262  16.405  12.922
55846W        W27375  21.174  24.864   4.240
55847W        W27376  22.108   0.634  11.994
55848W        W27377  12.167   9.601   2.787
55849W        W27378  19.747   6.890   0.105
55850W        W27379  17.011  28.712  13.504
55851W        W27380  23.461   4.468   3.229
55852W        W27381  15.241   9.264   3.073
55853W        W27382  28.120  21.736   4.739
55854W        W27383  28.614  34.772  11.639
55855W        W27384  11.408  42.386   3.020
55856W        W27385   0.527  42.179   1.753
55857W        W27386  10.790  16.390  12.009
55858W        W27387  18.679   8.813  12.606
55859W        W27388  44.546  19.131   2.257
55860W        W27389  21.751  11.617   3.581
55861W        W27390  12.331  31.580  12.556
55862W        W27391  32.030  12.765  10.295
55863W        W27392  38.507  40.141   2.767
55864W        W27393  40.440  15.506   3.048
55865W        W27394  44.811   6.020   2.137
55866W        W27395   7.595  13.353   2.304
55867W        W27396   0.435  35.939   1.504
55868W        W27397   8.833  31.089  14.530
55869W        W27398  11.218  13.331   4.111
55870W        W27399  13.136   7.426  11.123
55871W        W27400   5.911  24.141   4.167
55872W        W27401  22.521   5.688   2.446
55873W        W27402  43.736  26.817   0.073
55874W        W27403  33.666  18.644  14.333
55875W        W27404  28.951   7.001  14.451
55876W        W27405  39.904   0.026  12.023
55877W        W27406  21.617  35.381   4.882
55878W        W27407  35.907  15.068   1.413
55879W        W27408  12.627  33.830  14.882
55880W        W27409   4.933   9.020   2.249
55881W        W27410  43.743  15.405  11.474
55882W        W27411  38.121  22.771   3.254
55883W        W27412  24.964  37.464  11.453
55884W        W27413   4.330   1.532   0.546
55885W        W27414   2.970  30.958  12.948
55886W        W27415  40.979  24.740  12.836
55887W        W27416  13.673  22.115  14.067
55888W        W27417  22.831  37.309  12.706
55889W        W27418   5.154  31.220   0.490
55890W        W27419  31.396  13.790   9.915
55891W        W27420  27.131  38.998  12.977
55892W        W27421   2.910  11.713  10.651
55893W        W27422  12.439  27.448   1.762
55894W        W27423  36.475   1.627  14.578
55895W        W27424   2.430  11.808   2.828
55896W        W27425  24.568  39.651  12.197
55897W        W27426   4.551  24.393  10.201
55898W        W27427   7.411  16.543  14.753
55899W        W27428   2.278  27.100   4.130
55900W        W27429  33.139  15.637   3.127
55901W        W27430   9.715  43.888   4.672
55902W        W27431  23.462  18.602  12.195
55903W        W27432  13.215  30.182   3.229
55904W        W27433   7.278   7.190  10.815
55905W        W27434  42.769   6.173  12.547
55906W        W27435  30.626  22.470  13.000
55907W        W27436  11.871  29.391  12.019
55908W        W27437  26.550  23.060   2.927
55909W        W27438   9.655  18.003  12.629
55910W        W27439  10.472  40.741   3.666
55911W        W27440  27.042  13.690  12.391
55912W        W27441  39.830  34.664   2.722
55913W        W27442   5.706  27.973  12.400
55914W        W27443   1.151  32.031   4.073
55915W        W27444  30.612  40.485  12.978
55916W        W27445  41.522  18.017  10.763
55917W        W27446   8.402  36.848  13.676
55918W        W27447  10.243  31.546   1.399
55919W        W27448   9.407  24.663  13.063
55920W        W27449  14.155  44.313  14.986
55921W        W27450  16.129  33.508   1.411
55922W        W27451  10.134  24.057  10.996
55923W        W27452  10.227  44.469  11.121
55924W        W27453   6.339   3.544  12.124
55925W        W27454  29.133  33.110   2.829
55926W        W27455  41.755  33.037  12.590
55927W        W27456  15.609  23.494   0.503
55928W        W27457   6.147  18.882   1.351
55929W        W27458  24.629  24.023  13.322
55930W        W27459  36.888  21.760   3.156
55931W        W27460  22.535  42.466   9.652
55932W        W27461  19.330   7.901  11.598
55933W        W27462  31.601  12.598   3.582
55934W        W27463  38.765   6.707  13.883
55935W        W27464  38.519  31.598  11.073
55936W        W27465  38.513  35.494   3.168
55937W        W27466  23.151  11.743  10.737
55938W        W27467  14.516  42.948  14.742
55939W        W27468  30.416  34.803   0.357
55940W        W27469   0.910   4.894  12.114
55941W        W27470  12.847  29.984  11.890
55942W        W27471  18.202  11.013   3.162
55943W        W27472  23.590  18.056   0.168
55944W        W27473  18.569  23.493  10.805
55945W        W27474  36.530  40.727   4.555
55946W        W27475  36.054  32.103  13.350
55947W        W27476   9.639  28.688   0.975
55948W        W27477  23.700  26.851   3.262
55949W        W27478  19.774  40.376  10.782
55950W        W27479  21.707  40.971   2.681
55951W        W27480  13.203  30.364   2.252
55952W        W27481   4.931  28.699   1.110
55953W        W27482  38.842  34.483   1.752
55954W        W27483   2.449  22.643  14.571
55955W        W27484  40.704  15.986  12.068
55956W        W27485   8.758  17.523  11.518
55957W        W27486  28.914  33.804  14.358
55958W        W27487  11.678  27.531  10.603
55959W        W27488  41.518  33.956  14.802
55960W        W27489  29.495  31.536  14.364
55961W        W27490   5.616   2.857   3.263
55962W        W27491  12.044  18.642   4.288
55963W        W27492  20.031  32.323  14.826
55964W        W27493   9.327   1.967  13.974
55965W        W27494  38.317  13.716  12.873
55966W        W27495  38.852  20.555  11.048
55967W        W27496   6.086  14.947  11.594
55968W        W27497   4.781   1.417   3.199
55969W        W27498  23.944  30.869   3.176
55970W        W27499  36.304  31.428   1.850
55971W        W27500  22.236   7.618  13.839
55972W        W27501  25.650  39.174  14.840
55973W        W27502   7.626   6.775  10.603
55974W        W27503  38.134  16.586  12.411
55975W        W27504  21.714  27.518  13.756
55976W        W27505   3.500  15.904   2.975
55977W        W27506  22.611  40.688   3.082
55978W        W27507   0.227  12.118  13.422
55979W        W27508   3.401   9.904   3.814
55980W        W27509   7.935  35.358   2.790
55981W        W27510  24.084  13.054   4.662
55982W        W27511   4.462  33.981   0.551
55983W        W27512  37.957  13.687   0.906
55984W        W27513  31.403  44.269   1.356
55985W        W27514  40.236  10.586   2.924
55986W        W27515  36.238  28.758  12.506
55987W        W27516  27.751  37.882  12.913
55988W        W27517  17.215  23.278   3.057
55989W        W27518   1.650  30.586   3.503
55990W        W27519  18.667  44.280  11.415
55991W        W27520  19.086  15.513   1.973
55992W        W27521  33.965   7.462   0.091
55993W        W27522   1.191   3.858  12.279
55994W        W27523   9.948  41.440   3.278
55995W        W27524  33.040   8.624   4.624
55996W        W27525  28.587  40.107   3.368
55997W        W27526   7.702  13.506   1.288
55998W        W27527   6.107  16.648  11.034
55999W        W27528  36.431  11.304  12.147
56000W        W27529  17.439   9.164   0.925
56001W        W27530   6.456  36.937  12.459
56002W        W27531  28.680  42.468  10.705
56003W        W27532  17.216   8.122  13.870
56004W        W27533  11.639  26.308  12.319
56005W        W27534  20.686  20.034  11.939
56006W        W27535  10.246  21.179  13.953
56007W        W27536  38.553  19.863  10.611
56008W        W27537  39.885  22.191   1.411
56009W        W27538  20.578  36.578   1.948
56010W        W27539   0.399  25.468   3.690
56011W        W27540  16.335  30.916   4.574
56012W        W27541  25.591  30.213  11.957
56013W        W27542   9.927  12.157  12.060
56014W        W27543  11.182  14.850  11.557
56015W        W27544   9.682  28.612   2.184
56016W        W27545  43.986  22.783  12.079
56017W        W27546  42.360  27.479   4.137
56018W        W27547   8.959  26.751   1.374
56019W        W27548  39.840  41.815   3.771
56020W        W27549  42.766  43.284   2.271
56021W        W27550  15.748   1.567  14.931
56022W        W27551  16.717   8.690  12.322
56023W        W27552  12.348  14.627  12.472
56024W        W27553   2.983  44.284  12.631
56025W        W27554  30.037   6.447   2.839
56026W        W27555  26.656   8.392  12.931
56027W        W27556  17.169   4.807  13.130
56028W        W27557  13.849   4.836   4.615
56029W        W27558  44.595  17.682  14.263
56030W        W27559  25.989  11.785  12.412
56031W        W27560  43.255   3.449  10.729
56032W        W27561  30.133   9.404  11.627
56033W        W27562  31.409  34.011   2.281
56034W        W27563  22.216  43.420   3.330
56035W        W27564  11.168  15.548  12.890
56036W        W27565  36.955  44.879   3.675
56037W        W27566  44.496  43.739   1.892
56038W        W27567   6.402  18.129   4.927
56039W        W27568   8.998  12.141  12.094
56040W        W27569  14.214   1.907   3.798
56041W        W27570   1.449  23.434   2.633
56042W        W27571  24.256  29.841  10.744
56043W        W27572  30.568   3.961  11.550
56044W        W27573  31.039  40.450   1.171
56045W        W27574   6.192  34.468  12.500
56046W        W27575  34.982  15.069   0.330
56047W        W27576  36.161  20.510   0.529
56048W        W27577  18.382  36.868  13.540
56049W        W27578  35.811  12.071   4.549
56050W        W27579  28.476   9.431  14.459
56051W        W27580  33.778  19.728   0.501
56052W        W27581   4.504  23.644  11.910
56053W        W27582  13.331  31.047   0.242
56054W        W27583  19.507  36.510   2.906
56055W        W27584  41.381  21.067  11.896
56056W        W27585  27.350   7.467   4.195
56057W        W27586  42.148  36.187  14.854
56058W        W27587  25.895   4.283  10.678
56059W        W27588  39.565   5.841  13.469
56060W        W27589   1.972  21.521  12.380
56061W        W27590  33.809  42.102   4.219
56062W        W27591  17.657  44.782  13.946
56063W        W27592  11.234  12.056  11.477
56064W        W27593  25.053   8.835  14.921
56065W        W27594  27.376  16.954  14.549
56066W        W27595  26.159  21.760  14.905
56067W        W27596  34.131  13.997   1.750
56068W        W27597  13.150  26.639   0.796
56069W        W27598   4.894  35.834   0.267
56070W        W27599   5.526  30.647  11.121
56071W        W27600   5.440  16.986  11.165
56072W        W27601  18.051  16.111  12.980
56073W        W27602  28.998  23.440   2.821
56074W        W27603  43.740  20.700  14.044
56075W        W27604   3.281   8.072  12.070
56076W        W27605   3.753  23.251   4.193
56077W        W27606   1.506  19.773   2.869
56078W        W27607  13.654   3.253  13.336
56079W        W27608  14.405  35.906   3.214
56080W        W27609  32.280  11.303  12.472
56081W        W27610  25.226  36.611  14.933
56082W        W27611  26.462   0.852   0.941
56083W        W27612  44.961  33.812   3.264
56084W        W27613   4.478  18.988  12.899
56085W        W27614  27.393  37.263   3.389
56086W        W27615  38.504  24.639   3.565
56087W        W27616  28.217  14.267   0.864
56088W        W27617   7.899  21.541   1.813
56089W        W27618   2.987  24.207   1.368
56090W        W27619  31.834  28.554   2.675
56091W        W27620  14.141  28.691  14.650
56092W        W27621   0.603  23.431   2.189
56093W        W27622  34.585  33.077   3.796
56094W        W27623  28.838  39.533  14.562
56095W        W27624   5.231  35.259   3.770
56096W        W27625  22.940   5.935  11.572
56097W        W27626  36.627  44.848   4.105
56098W        W27627  40.886  15.299   4.639
56099W        W27628   9.111   6.992   1.807
56100W        W27629  38.893  11.161  12.410
56101W        W27630  32.736  34.655   3.715
56102W        W27631  28.043  29.616   0.437
56103W        W27632   9.719  42.345  10.344
56104W        W27633  42.362   2.435  10.913
56105W        W27634  27.604  20.974  11.980
56106W        W27635   2.055   2.079  10.145
56107W        W27636  21.784   3.993   4.903
56108W        W27637  22.575   2.313   2.948
56109W        W27638  16.259  34.771   4.057
56110W        W27639  22.744  39.380   0.768
56111W        W27640  19.512  41.902  11.737
56112W        W27641   9.180  39.888   1.481
56113W        W27642  13.738  41.889   1.266
56114W        W27643  38.881   6.830  13.002
56115W        W27644   7.216  14.531  12.925
56116W        W27645   9.723  38.456  14.365
56117W        W27646  22.671  25.194   1.933
56118W        W27647  38.278  21.736  10.667
56119W        W27648   8.417  13.795  12.874
56120W        W27649   7.251  28.897  14.854
56121W        W27650  43.557  13.585  11.971
56122W        W27651  11.564  33.008   2.414
56123W        W27652   1.975  18.774  11.202
56124W        W27653  17.112  10.454   2.540
56125W        W27654  16.499  12.828   0.490
56126W        W27655  26.556  21.454  14.734
56127W        W27656  37.547  44.982   4.470
56128W        W27657  32.574  43.075  13.331
56129W        W27658  21.185  36.930  10.792
56130W        W27659  16.101  31.724   1.490
56131W        W27660  43.102  13.722  14.291
56132W        W27661  42.934  24.285  13.950
56133W        W27662  38.048  22.202  10.653
56134W        W27663  36.649  25.586   1.913
56135W        W27664  26.385  36.111   1.216
56136W        W27665  34.543  39.331  13.930
56137W        W27666  44.447   0.938  10.286
56138W        W27667  16.711  17.702  14.186
56139W        W27668   8.211   6.072   1.358
56140W        W27669  31.325   9.666  12.121
56141W        W27670  13.255   8.643   3.694
56142W        W27671  31.272  32.198  12.579
56143W        W27672  11.374  16.223   3.455
56144W        W27673  13.149  30.637   4.428
56145W        W27674   9.745  25.968  14.948
56146W        W27675   0.467  12.673   3.608
56147W        W27676  23.764   7.592  14.356
56148W        W27677  33.977  20.852  10.760
56149W        W27678  16.313  26.540   2.687
56150W        W27679  41.753  16.660   3.244
56151W        W27680   2.087  38.108   0.677
56152W        W27681  23.581  15.693   4.204
56153W        W27682   8.038  34.767   3.214
56154W        W27683   5.911   2.900   2.230
56155W        W27684  33.461  22.440  11.870
56156W        W27685  33.014  14.756   2.778
56157W        W27686  36.876  42.406  14.380
56158W        W27687  15.874  36.041  14.970
56159W        W27688   8.459   7.704  14.464
56160W        W27689  30.105   0.511  12.498
56161W        W27690  41.363   9.921   2.713
56162W        W27691  30.828  44.553  11.753
56163W        W27692   2.074   8.795   4.592
56164W        W27693  37.217   1.802   0.309
56165W        W27694  39.758  29.506  12.646
56166W        W27695  22.038  11.722  10.702
56167W        W27696  21.042  30.367   2.886
56168W        W27697  27.741  28.303  10.961
56169W        W27698  37.084  41.021  14.928
56170W        W27699  11.589  31.721  10.581
56171W        W27700   3.837  21.608   3.381
56172W        W27701  16.530   8.729  14.065
56173W        W27702  18.579  30.581  12.984
56174W        W27703  14.561  41.543   1.898
56175W        W27704   4.375  34.560   1.795
56176W        W27705   8.134  30.137   2.454
56177W        W27706  11.592  38.428   2.249
56178W        W27707  27.028  19.130  14.735
56179W        W27708  42.875   0.422  10.760
56180W        W27709  43.030  14.760   4.595
56181W        W27710  29.708  27.988  12.461
56182W        W27711   7.790   7.471  12.570
56183W        W27712  14.392  28.788  13.764
56184W        W27713  36.856  12.855  14.783
56185W        W27714  10.295  43.776  14.812
56186W        W27715   6.780   5.669   0.794
56187W        W27716  41.846  34.360  14.827
56188W        W27717  36.348   7.266  10.541
56189W        W27718   8.577  18.596   1.191
56190W        W27719  41.275  13.829  11.129
56191W        W27720   5.491  35.364   4.538
56192W        W27721  23.951  43.874  12.869
56193W        W27722  19.786   9.208   3.512
56194W        W27723   5.907   1.798  11.547
56195W        W27724  33.807  34.149  13.857
56196W        W27725  40.850  34.991  11.695
56197W        W27726  17.289  16.067  13.378
56198W        W27727  12.442  44.295   5.821
56199W        W27728  37.751   8.564  11.765
56200W        W27729  12.248  16.074  12.391
56201W        W27730   3.675   5.737   0.419
56202W        W27731  30.166  40.635   2.256
56203W        W27732  29.789  24.789   4.453
56204W        W27733  30.971  26.738   3.323
56205W        W27734  37.665   4.855   4.929
56206W        W27735  30.129  24.027  11.414
56207W        W27736   1.084  15.184  13.489
56208W        W27737  26.416  27.751   2.284
56209W        W27738  36.746  22.695   4.386
56210W        W27739  25.263   4.965   1.193
56211W        W27740  18.357  28.081  14.117
56212W        W27741  38.293  18.328  13.016
56213W        W27742   7.671  40.041  12.404
56214W        W27743  14.600   8.540  11.140
56215W        W27744  38.995  41.393   3.145
56216W        W27745  39.756  38.324  14.415
56217W        W27746   8.783   2.419  10.801
56218W        W27747  20.723  10.298   0.253
56219W        W27748   2.216   7.564  11.366
56220W        W27749  26.971  16.720   4.539
56221W        W27750  33.534  17.022   4.128
56222W        W27751  33.880  32.215   3.109
56223W        W27752  18.227   0.874   3.918
56224W        W27753  30.149  29.689   1.845
56225W        W27754  23.816   3.947   1.423
56226W        W27755   2.632  27.037  11.059
56227W        W27756  20.038  25.580  12.496
56228W        W27757  15.668  18.116  11.920
56229W        W27758  42.683  21.555  13.959
56230W        W27759  16.249  32.385  11.794
56231W        W27760  39.521  13.872  13.259
56232W        W27761   1.309  30.674   4.473
56233W        W27762   6.229  31.147   4.184
56234W        W27763  21.151   0.507   1.374
56235W        W27764  17.091  41.099   4.248
56236W        W27765  21.322  32.383  12.123
56237W        W27766   7.374  36.964  14.808
56238W        W27767  38.755   9.218   3.834
56239W        W27768  26.699  26.153   4.586
56240W        W27769  10.434  23.705   3.009
56241W        W27770  10.832  41.817   1.203
56242W        W27771  29.874  21.106  12.863
56243W        W27772  23.070   1.032  10.556
56244W        W27773  19.533  36.534  13.547
56245W        W27774  13.101  11.693  14.340
56246W        W27775  40.921   8.849  10.729
56247W        W27776  35.373  33.522   4.579
56248W        W27777  11.366  14.768   3.856
56249W        W27778  21.123   0.380  11.605
56250W        W27779   3.490  42.825  13.067
56251W        W27780   3.135  44.216  13.551
56252W        W27781  35.353  21.887   1.940
56253W        W27782  35.109  31.027   1.876
56254W        W27783  27.218  37.552   4.917
56255W        W27784  34.029  30.368   1.021
56256W        W27785  29.589   9.117  10.523
56257W        W27786  28.596  13.853   1.819
56258W        W27787  12.993  31.162   3.261
56259W        W27788  36.483  21.745  10.954
56260W        W27789   9.283  38.587  10.770
56261W        W27790  33.437  26.622  13.088
56262W        W27791  28.021  14.289  14.264
56263W        W27792  39.328  28.004   4.067
56264W        W27793  19.663  30.609   0.496
56265W        W27794  20.240  21.925  13.489
56266W        W27795   4.654  32.433   1.982
56267W        W27796   2.855  30.474  13.045
56268W        W27797  22.912  28.660   1.877
56269W        W27798  41.752   1.484   4.159
56270W        W27799  39.466  44.046   0.778
56271W        W27800  25.720  41.263  14.945
56272W        W27801  41.794  39.395  14.328
56273W        W27802  44.740  35.001   0.409
56274W        W27803   5.785  29.505   3.870
56275W        W27804   6.479  29.152   2.689
56276W        W27805  10.783  22.873  13.077
56277W        W27806  27.521  23.281  12.840
56278W        W27807  30.899  21.491   4.567
56279W        W27808   2.212  40.842  11.871
56280W        W27809  22.214   5.308  14.040
56281W        W27810  36.016  37.503  10.795
56282W        W27811   3.244  15.781   1.993
56283W        W27812  19.061  23.609   3.667
56284W        W27813  41.852  22.922   3.342
56285W        W27814   0.753  29.638   0.928
56286W        W27815  25.684  22.789  11.566
56287W        W27816  11.204  35.916  14.045
56288W        W27817  38.749  20.155  12.980
56289W        W27818  41.013   2.462   0.524
56290W        W27819   8.926  42.659   2.727
56291W        W27820  19.028  31.660   4.747
56292W        W27821  29.992  42.557  13.789
56293W        W27822   6.433  34.404   4.645
56294W        W27823  37.785  40.319   0.725
56295W        W27824   8.156   7.944   4.023
56296W        W27825  25.823  17.015   2.412
56297W        W27826  26.677  36.326  12.929
56298W        W27827  20.073   4.860   3.310
56299W        W27828  25.405   4.818   3.959
56300W        W27829  36.906  34.893   3.164
56301W        W27830  16.272   0.302  10.713
56302W        W27831  19.553   7.780   2.723
56303W        W27832  27.150  24.466   4.071
56304W        W27833   4.934  40.573   0.473
56305W        W27834  38.331  19.989  13.975
56306W        W27835  16.622  33.070  14.488
56307W        W27836  20.073  17.049   1.579
56308W        W27837  36.539  28.661  12.974
56309W        W27838   0.010   4.156   2.468
56310W        W27839  40.067   6.060  12.185
56311W        W27840  44.688  32.569  11.695
56312W        W27841  44.992  21.293  13.844
56313W        W27842   5.744   4.435  14.388
56314W        W27843  33.788  29.487   4.616
56315W        W27844   2.576  37.422  14.503
56316W        W27845   7.113  37.920  14.452
56317W        W27846  36.533   7.629  13.880
56318W        W27847  36.017  26.552   2.245
56319W        W27848  20.607  37.458   4.369
56320W        W27849  14.585  15.078  10.574
56321W        W27850  15.265  30.650   2.189
56322W        W27851  18.828  10.316   3.614
56323W        W27852  17.709  22.664   1.222
56324W        W27853  40.058   3.297  12.132
56325W        W27854   3.975   4.743   1.185
56326W        W27855  44.259  36.525  13.627
56327W        W27856  20.107  23.897  12.861
56328W        W27857  35.422   7.205   3.329
56329W        W27858  36.466  11.862   0.476
56330W        W27859  19.117  14.341  11.110
56331W        W27860  23.692  28.322  13.944
56332W        W27861  16.824  17.053   3.157
56333W        W27862  38.485  26.427   1.895
56334W        W27863  30.546  11.387  10.844
56335W        W27864  16.455  14.938   1.863
56336W        W27865  12.355  13.654   0.710
56337W        W27866  23.077  27.786   1.784
56338W        W27867   5.794  21.570  10.818
56339W        W27868  10.808  27.548  10.921
56340W        W27869  21.042  20.012   5.082
56341W        W27870  29.905  21.641   0.981
56342W        W27871  18.450  33.649   0.215
56343W        W27872  17.142  10.410   3.055
56344W        W27873  39.480   8.056  11.620
56345W        W27874  37.375  37.584  12.391
56346W        W27875  38.092   0.235   0.506
56347W        W27876  28.110  14.182  11.155
56348W        W27877  38.881   7.761   0.806
56349W        W27878  18.323  40.857  13.519
56350W        W27879  33.494  30.410  10.271
56351W        W27880  13.244  29.345  14.833
56352W        W27881   5.829  14.789  11.060
56353W        W27882  35.016  42.499  11.197
56354W        W27883  43.461   4.714  13.204
56355W        W27884  26.079  13.284   0.786
56356W        W27885  30.586  37.927   3.410
56357W        W27886  25.037  17.485   1.433
56358W        W27887  10.313  41.243   2.368
56359W        W27888   8.066  22.230   4.533
56360W        W27889   6.469   5.983   3.695
56361W        W27890  18.506  39.889  11.940
56362W        W27891   6.930  36.017  12.191
56363W        W27892   6.395  18.186  13.373
56364W        W27893  26.535  10.430   4.252
56365W        W27894  24.652  21.735  14.335
56366W        W27895  11.014  37.848  14.623
56367W        W27896  34.537  11.503  12.815
56368W        W27897  15.806  31.861  13.870
56369W        W27898  42.902  31.975  13.910
56370W        W27899  38.571  12.367  13.557
56371W        W27900  30.101  32.333   1.916
56372W        W27901  39.888  39.817   1.958
56373W        W27902  33.262   7.757  14.546
56374W        W27903  25.012  15.918   0.491
56375W        W27904  34.559  37.952  14.525
56376W        W27905  24.506  21.866   3.632
56377W        W27906  27.901   3.318   1.221
56378W        W27907  10.530  32.552  14.584
56379W        W27908  12.094  29.425   4.079
56380W        W27909   4.636  40.422   0.930
56381W        W27910  26.108  32.923  14.023
56382W        W27911  12.395  12.697   2.172
56383W        W27912   2.354  14.618  10.883
56384W        W27913   3.037  14.260  13.043
56385W        W27914  36.833  16.657  13.399
56386W        W27915  33.855  20.689  11.618
56387W        W27916  31.408  19.827  13.893
56388W        W27917   6.454  21.347   0.353
56389W        W27918  44.087   5.308  13.125
56390W        W27919   7.787  18.786  12.075
56391W        W27920  30.413  16.376   5.457
56392W        W27921  17.904  30.966  10.342
56393W        W27922  38.650  18.769   4.172
56394W        W27923   5.433  29.111   0.261
56395W        W27924  42.928  15.385   1.943
56396W        W27925  13.545  39.302   2.539
56397W        W27926   0.471  41.438  10.718
56398W        W27927  27.198   5.424  11.908
56399W        W27928  35.918  13.289   1.753
56400W        W27929  43.969   3.396  11.923
56401W        W27930  40.061  15.428  10.590
56402W        W27931   1.475  39.511  13.450
56403W        W27932  19.240  16.107   4.670
56404W        W27933  29.661  20.285   3.735
56405W        W27934   8.259   1.742   9.992
56406W        W27935   6.694  20.604   4.089
56407W        W27936  33.876  21.193   0.937
56408W        W27937  36.941  43.553   2.283
56409W        W27938  18.187  42.107  11.107
56410W        W27939  12.436   2.772   2.702
56411W        W27940  34.047   6.289   0.921
56412W        W27941   3.582  38.940  10.137
56413W        W27942  24.638  22.187  10.958
56414W        W27943   8.377  44.972  12.506
56415W        W27944  39.352  21.977  11.078
56416W        W27945  42.015  35.461   0.330
56417W        W27946  33.508  39.995   2.449
56418W        W27947  21.017  12.633   4.339
56419W        W27948   0.162  31.827   2.306
56420W        W27949  42.038  27.068   3.478
56421W        W27950  24.951  20.539  13.918
56422W        W27951   4.324  37.342   0.443
56423W        W27952  11.779  31.467   0.928
56424W        W27953  30.124  42.376  11.379
56425W        W27954  11.148  30.689  14.705
56426W        W27955  34.675  31.787   4.632
56427W        W27956  22.070  44.010  11.563
56428W        W27957  10.871  11.769  14.675
56429W        W27958  13.296  25.223   1.904
56430W        W27959  23.704  37.222   3.588
56431W        W27960  35.902  42.957   3.680
56432W        W27961  11.161  32.065   1.368
56433W        W27962  44.983  41.995  14.288
56434W        W27963   3.915  16.726   4.661
56435W        W27964  21.032  21.686  11.474
56436W        W27965  24.290  23.242   1.319
56437W        W27966  35.112  10.700  13.749
56438W        W27967  30.417  22.905  13.825
56439W        W27968  16.166  33.874  10.483
56440W        W27969  28.035  24.599  11.167
56441W        W27970  42.999  41.860   4.710
56442W        W27971  33.529   0.728   2.212
56443W        W27972  30.590  36.954   4.426
56444W        W27973  31.172   6.810  12.168
56445W        W27974   8.197  13.378   1.706
56446W        W27975   0.409   0.295  14.298
56447W        W27976  16.121  12.964  12.051
56448W        W27977  19.548  35.390   3.382
56449W        W27978  10.893  35.400   2.234
56450W        W27979  13.861  21.547   3.188
56451W        W27980  35.187   1.853  12.054
56452W        W27981  34.666  35.013  14.717
56453W        W27982  19.763  24.207  11.567
56454W        W27983  41.934  21.043  11.145
56455W        W27984  40.000   7.760   4.116
56456W        W27985  44.831  18.885  14.763
56457W        W27986  21.104   6.763  12.450
56458W        W27987  21.137  38.874   2.778
56459W        W27988  28.623   3.500   0.406
56460W        W27989  36.467   9.378   0.543
56461W        W27990  38.958  43.176   3.278
56462W        W27991  30.452  42.828  13.841
56463W        W27992   3.249  25.867   0.198
56464W        W27993   4.957  11.078   2.344
56465W        W27994  43.126   7.513  14.262
56466W        W27995  39.412   1.347   3.395
56467W        W27996   7.676   8.106  14.900
56468W        W27997   1.489  29.374   2.011
56469W        W27998  38.491  29.051  11.575
56470W        W27999  34.876   6.436  14.343
56471W        W28000  17.197  24.766  12.827
56472W        W28001  20.904  21.210  10.565
56473W        W28002  14.583   6.834   2.346
56474W        W28003   0.432   0.555  13.513
56475W        W28004  43.024  44.052  11.655
56476W        W28005  41.060  44.288   3.350
56477W        W28006  11.348  15.350  14.504
56478W        W28007  17.631  15.346   1.331
56479W        W28008   0.402  16.323   3.165
56480W        W28009  24.452  14.645  11.627
56481W        W28010  21.647   2.752   4.620
56482W        W28011  33.111   6.189   4.156
56483W        W28012   4.664   1.927   3.224
56484W        W28013  42.857  16.102  11.456
56485W        W28014  33.467  39.481   1.182
56486W        W28015  22.723  29.982  12.477
56487W        W28016  29.136  33.911   2.139
56488W        W28017   0.291  18.082   0.607
56489W        W28018   9.818  16.048  12.042
56490W        W28019  16.154  23.975   1.346
56491W        W28020  34.339  11.108   1.364
56492W        W28021  20.575  14.804  13.973
56493W        W28022  23.215  44.237   0.844
56494W        W28023   0.320   1.213   2.363
56495W        W28024  34.877  13.697   3.677
56496W        W28025  41.323  15.276  12.540
56497W        W28026  23.153   0.276   0.869
56498W        W28027  12.119  19.614   5.045
56499W        W28028  44.266  10.819   2.355
56500W        W28029  13.484  20.111  13.570
56501W        W28030  34.861  31.375  13.938
56502W        W28031  25.882   1.589  13.946
56503W        W28032  31.930   9.804   4.928
56504W        W28033   5.706  23.156  14.350
56505W        W28034  40.840  29.692   1.333
56506W        W28035  24.965  29.556  14.372
56507W        W28036  17.783  40.384  13.967
56508W        W28037  14.695  26.151   4.849
56509W        W28038  33.346  22.207  14.033
56510W        W28039  38.571  44.747   3.668
56511W        W28040   2.337  21.713  14.598
56512W        W28041  10.614  31.873  10.713
56513W        W28042  31.532  10.764  10.432
56514W        W28043  29.544  21.129   5.051
56515W        W28044  33.870  37.569   3.443
56516W        W28045  19.613  36.040  14.847
56517W        W28046  34.315  38.438   1.669
56518W        W28047  33.208   6.262  11.611
56519W        W28048  11.397   5.137  10.787
56520W        W28049  13.816  25.206   0.501
56521W        W28050   9.302  39.470  11.408
56522W        W28051  35.027  25.486  14.007
56523W        W28052  43.462   6.683  12.788
56524W        W28053  28.647  15.094   1.235
56525W        W28054  35.594  12.655   3.256
56526W        W28055   8.208  40.418   3.804
56527W        W28056  13.934   5.993   3.231
56528W        W28057  25.039  30.539   0.606
56529W        W28058  19.545   2.133   1.769
56530W        W28059  39.624  29.578  11.298
56531W        W28060  18.540  30.340   3.294
56532W        W28061   2.806  17.809  14.401
56533W        W28062  10.531  37.994  14.501
56534W        W28063  17.132  23.223  11.400
56535W        W28064   4.348  27.767  10.346
56536W        W28065  19.301  44.197   0.703
56537W        W28066  21.559  43.796   1.202
56538W        W28067  42.599  39.907   2.750
56539W        W28068   9.395  25.004  12.306
56540W        W28069  44.448   1.841   0.426
56541W        W28070  35.166  11.605  10.314
56542W        W28071   0.030  38.965   0.692
56543W        W28072   3.889  23.978  13.536
56544W        W28073  40.379   1.049   0.479
56545W        W28074  14.883  25.635  12.071
56546W        W28075  29.972  23.142  12.964
56547W        W28076   2.978  37.003  14.350
56548W        W28077  34.833  32.713  10.838
56549W        W28078  36.611   0.258  10.416
56550W        W28079  18.801  20.968  10.773
56551W        W28080   1.561   1.165   1.734
56552W        W28081  17.793  22.458  13.599
56553W        W28082  14.347   9.125  12.405
56554W        W28083   4.217  24.099   3.679
56555W        W28084  34.276  39.431  13.032
56556W        W28085  10.677  30.943   3.932
56557W        W28086  31.591  38.198   0.488
56558W        W28087  23.112  16.277   0.358
56559W        W28088  20.944   2.947   5.172
56560W        W28089   3.213  18.658  13.162
56561W        W28090  25.816  15.677   3.440
56562W        W28091  44.224   4.848  14.394
56563W        W28092  38.416  22.020   1.159
56564W        W28093   2.405  22.685  11.559
56565W        W28094  40.000  30.209   2.559
56566W        W28095  34.555  26.566   1.186
56567W        W28096  20.721  17.554   3.188
56568W        W28097  18.794  35.210  13.738
56569W        W28098  29.553  31.858   4.059
56570W        W28099   6.759  12.764   0.893
56571W        W28100   9.609  42.521   4.574
56572W        W28101   2.954  18.602   0.417
56573W        W28102  24.613  14.999  14.173
56574W        W28103  44.947  33.683  11.649
56575W        W28104  25.651  38.037  13.054
56576W        W28105  20.260  16.801  12.318
56577W        W28106  29.466  35.121   3.704
56578W        W28107  41.047  41.885   3.676
56579W        W28108  17.216   7.609   3.999
56580W        W28109  41.268  38.367  11.563
56581W        W28110   7.391   4.794  11.955
56582W        W28111   8.610  24.347   4.962
56583W        W28112   0.716   8.713   4.974
56584W        W28113  25.968  12.169  14.381
56585W        W28114  14.687  42.831   4.380
56586W        W28115  14.294  31.861  11.980
56587W        W28116  20.648  28.846  11.560
56588W        W28117  18.337  21.887   3.370
56589W        W28118  22.462  40.567   0.957
56590W        W28119  35.758  12.802   1.968
56591W        W28120  34.009  42.222  12.856
56592W        W28121  15.691  18.753   3.600
56593W        W28122  14.123  39.071   3.695
56594W        W28123  18.228  12.196   3.233
56595W        W28124  34.197   7.239  12.740
56596W        W28125  29.138  43.461  13.282
56597W        W28126  38.309  22.622  11.414
56598W        W28127  28.025  39.995   2.717
56599W        W28128  38.488  10.123   3.657
56600W        W28129  12.456  29.761   4.521
56601W        W28130  13.726   3.709   4.536
56602W        W28131  24.635  32.129   3.710
56603W        W28132  37.996   3.460   4.073
56604W        W28133  43.912   0.283  13.537
56605W        W28134  19.609  24.819  10.774
56606W        W28135  19.169   9.245   1.814
56607W        W28136   3.672  11.113  12.923
56608W        W28137  40.044   0.816  14.034
56609W        W28138   0.553   7.287  11.986
56610W        W28139  29.492  21.782  12.232
56611W        W28140  39.580  19.642  12.953
56612W        W28141  33.161  33.249   0.719
56613W        W28142  23.713  25.453   3.156
56614W        W28143  25.131   1.330  12.790
56615W        W28144  10.821   9.407  12.511
56616W        W28145  29.565   1.152  11.081
56617W        W28146  43.169   2.769   4.990
56618W        W28147   1.280   4.329  14.649
56619W        W28148  44.440   7.219   2.641
56620W        W28149  19.101  42.847  14.304
56621W        W28150  21.178  20.466  12.802
56622W        W28151  30.970  31.629   2.638
56623W        W28152  42.049  17.611  14.882
56624W        W28153  40.497  28.234  11.500
56625W        W28154  41.031  27.666  12.932
56626W        W28155  17.114  29.726  11.626
56627W        W28156  25.519  28.099   0.306
56628W        W28157  32.461  17.754  10.381
56629W        W28158  35.017  15.603  11.772
56630W        W28159  14.539  21.955  14.380
56631W        W28160  20.486  27.951  11.683
56632W        W28161   3.827  32.530  12.205
56633W        W28162  29.150  12.124  13.826
56634W        W28163   5.149  37.804  12.889
56635W        W28164  31.406  43.799  14.882
56636W        W28165   3.528  38.824  12.626
56637W        W28166  33.760  38.279  11.147
56638W        W28167  42.570  35.418   0.378
56639W        W28168  13.247  43.304   0.316
56640W        W28169  24.281  10.568   4.041
56641W        W28170  22.998   7.356  11.088
56642W        W28171  33.111  42.749   0.683
56643W        W28172  42.232  24.966  14.033
56644W        W28173   9.294   5.781  14.645
56645W        W28174  28.448  27.597   3.292
56646W        W28175  41.416   8.398  11.099
56647W        W28176  22.578  14.586   1.301
56648W        W28177  25.831  26.045   1.951
56649W        W28178   0.019  11.056  11.611
56650W        W28179   7.687  43.045   0.535
56651W        W28180  24.132   8.851   4.444
56652W        W28181  29.108  29.142  14.955
56653W        W28182  42.969  13.895   1.390
56654W        W28183  37.913   3.387   3.563
56655W        W28184  30.753  16.756  12.363
56656W        W28185  34.138  44.670   0.379
56657W        W28186  14.307  31.947   3.689
56658W        W28187  10.158  39.580  12.312
56659W        W28188  41.967  14.393   1.431
56660W        W28189  40.096   5.340  14.675
56661W        W28190  22.922  40.561  12.058
56662W        W28191  37.324  39.703   4.294
56663W        W28192  22.256   7.885   0.819
56664W        W28193  44.481   8.454  12.029
56665W        W28194  12.255  34.611   3.836
56666W        W28195  31.923  14.838   3.613
56667W        W28196  16.143  34.983   2.218
56668W        W28197  37.284  40.808  13.286
56669W        W28198   0.550  21.983  11.512
56670W        W28199   9.430  36.062  11.189
56671W        W28200  33.130  39.491   0.726
56672W        W28201  11.326  34.882   2.721
56673W        W28202  17.347   0.910  14.449
56674W        W28203  20.143  22.060   4.233
56675W        W28204  38.089  15.985  14.869
56676W        W28205  29.176   5.411  13.337
56677W        W28206   3.372  33.605   1.958
56678W        W28207   9.449  42.962  14.868
56679W        W28208  10.795   6.677   2.348
56680W        W28209  26.289  12.619  14.373
56681W        W28210  17.208  41.207   2.407
56682W        W28211  22.681  39.398   2.457
56683W        W28212   1.744  32.631   1.794
56684W        W28213   8.680  42.351   2.050
56685W        W28214  11.079   7.363   1.267
56686W        W28215   5.555  32.603  14.360
56687W        W28216  42.825  22.656   1.195
56688W        W28217  18.046  29.081   1.834
56689W        W28218  25.700  31.161   0.779
56690W        W28219   8.228  41.737   1.918
56691W        W28220  33.374  14.635  12.469
56692W        W28221  22.930  36.867  14.772
56693W        W28222  19.094  32.619  11.237
56694W        W28223  11.321   1.279   3.556
56695W        W28224   4.724  34.383   3.265
56696W        W28225  12.786  25.982  13.508
56697W        W28226  11.370  42.637   4.490
56698W        W28227  18.523  13.134   0.485
56699W        W28228   2.783   1.977  10.607
56700W        W28229  42.538  11.272  13.077
56701W        W28230  11.024  24.596   0.341
56702W        W28231  38.439  31.097   4.886
56703W        W28232  17.587  18.088  12.905
56704W        W28233  13.749  21.236   2.744
56705W        W28234  32.846   9.029  11.361
56706W        W28235  34.626   7.234   4.208
56707W        W28236  42.061  18.107  12.155
56708W        W28237   2.487  37.398  12.895
56709W        W28238  41.818  12.882   2.237
56710W        W28239   8.363  16.340   0.741
56711W        W28240  35.314  12.072   2.510
56712W        W28241  38.790   5.228   3.946
56713W        W28242  40.939  15.833   3.320
56714W        W28243  13.109   9.221   2.533
56715W        W28244  17.831   8.223   2.387
56716W        W28245   6.072  43.636  11.665
56717W        W28246  21.973  12.758  13.750
56718W        W28247   0.462  36.009  14.952
56719W        W28248  40.330  35.646  11.163
56720W        W28249   9.264   4.665  13.363
56721W        W28250  43.542  19.861  13.792
56722W        W28251  12.227  23.157   1.169
56723W        W28252   0.881  12.114  11.762
56724W        W28253   3.285  28.766  12.517
56725W        W28254  39.768  29.715  14.953
56726W        W28255  42.963   0.904  13.998
56727W        W28256   9.799  18.115   0.794
56728W        W28257  29.398  34.758  12.925
56729W        W28258   5.987   3.819  13.717
56730W        W28259  25.608   4.197   0.819
56731W        W28260  26.632   5.000  12.905
56732W        W28261  30.528   3.599   0.917
56733W        W28262  36.545  16.648  12.972
56734W        W28263  20.280   5.342  12.644
56735W        W28264   3.501  30.658   2.784
56736W        W28265  43.567  37.068   0.210
56737W        W28266  31.969  40.299   1.559
56738W        W28267  25.451  26.174  11.204
56739W        W28268  42.027   6.223   2.758
56740W        W28269  20.366  23.496   4.123
56741W        W28270   2.376  37.865   2.396
56742W        W28271   0.872  39.183  12.663
56743W        W28272   1.714  44.871   0.965
56744W        W28273  28.602   6.457  11.425
56745W        W28274  29.492   4.348   0.889
56746W        W28275  39.852   5.701   3.217
56747W        W28276   9.643  44.774  13.505
56748W        W28277  43.771   8.496   3.136
56749W        W28278  32.631   6.125  13.974
56750W        W28279   9.135  23.106  14.434
56751W        W28280  44.452   1.319  13.008
56752W        W28281   9.907  18.271   3.698
56753W        W28282  15.342   5.352   1.294
56754W        W28283   2.023  12.847  12.236
56755W        W28284  17.798   9.425  14.045
56756W        W28285  21.833   7.253   2.714
56757W        W28286  17.066  32.390  10.695
56758W        W28287  24.676  38.601  11.595
56759W        W28288  17.633  23.819  12.845
56760W        W28289  12.871  39.574   1.756
56761W        W28290  11.825   9.776  13.524
56762W        W28291   2.191  13.773  11.121
56763W        W28292  24.586  18.106   3.708
56764W        W28293  37.807  36.896  11.953
56765W        W28294  40.329  14.309   0.747
56766W        W28295   1.058  30.454  13.958
56767W        W28296   6.017  26.900  13.387
56768W        W28297   0.772   6.518   4.975
56769W        W28298  24.174  19.590  14.864
56770W        W28299  24.511   4.085  14.300
56771W        W28300  13.062  24.275   1.021
56772W        W28301  32.513  35.570  12.669
56773W        W28302   3.962  37.394  10.493
56774W        W28303  30.917  14.730   3.708
56775W        W28304  30.508  23.433   3.665
56776W        W28305   0.457  17.255  14.704
56777W        W28306  37.982  12.742   2.307
56778W        W28307  37.947  40.829   1.655
56779W        W28308  19.333  14.777   0.376
56780W        W28309   8.747  20.258   2.497
56781W        W28310  14.818  25.053  10.294
56782W        W28311  11.022  22.749  14.470
56783W        W28312  16.755  44.643   0.352
56784W        W28313  44.527  43.361  14.826
56785W        W28314  28.016  41.630   3.725
56786W        W28315  30.874  16.765   5.126
56787W        W28316  29.846  20.190   1.885
56788W        W28317  31.449  28.225   1.743
56789W        W28318  13.819   3.410   3.727
56790W        W28319  24.209  37.148   3.402
56791W        W28320  43.461   6.221   4.001
56792W        W28321  29.918  27.247   3.260
56793W        W28322  42.968  17.577  13.950
56794W        W28323  19.255  37.074  10.534
56795W        W28324  27.928  14.804  12.387
56796W        W28325   8.595   6.862  10.862
56797W        W28326  40.440   7.028  11.558
56798W        W28327  22.622  38.076  12.940
56799W        W28328  42.353   8.162  12.892
56800W        W28329  22.546  31.574   4.611
56801W        W28330  23.767   8.721  14.500
56802W        W28331  11.571  13.337  11.150
56803W        W28332  42.026  30.679   2.743
56804W        W28333  17.844  23.062  14.380
56805W        W28334   6.318   6.236  10.711
56806W        W28335  12.892   6.365  14.415
56807W        W28336   9.663  26.188  14.483
56808W        W28337  42.958  13.899  13.409
56809W        W28338  22.642  28.539  11.895
56810W        W28339   2.173  11.164   0.924
56811W        W28340  17.547  36.068  14.412
56812W        W28341  23.349  38.862  12.008
56813W        W28342  32.480  38.722  14.289
56814W        W28343  37.827   1.968  14.847
56815W        W28344  36.031   9.077   0.511
56816W        W28345  25.031  44.612  10.880
56817W        W28346  25.139   8.665   2.655
56818W        W28347  22.032  35.695   2.185
56819W        W28348  10.995  18.437   3.670
56820W        W28349  42.903  38.083  11.566
56821W        W28350   5.271  11.939  14.351
56822W        W28351  17.059  18.134  11.278
56823W        W28352  37.439   5.180   1.153
56824W        W28353  41.010   8.333  13.473
56825W        W28354  23.525   5.365   0.397
56826W        W28355  29.458  19.381  14.976
56827W        W28356  22.072   5.361   1.419
56828W        W28357  24.050  20.204  12.087
56829W        W28358  41.109  33.678  13.004
56830W        W28359  11.197  34.539  12.870
56831W        W28360  12.644  32.145   3.293
56832W        W28361  11.306  21.805  10.618
56833W        W28362  39.256  15.621   1.991
56834W        W28363  19.959  32.310   2.962
56835W        W28364  22.684   5.196   2.622
56836W        W28365  15.301   3.827  10.912
56837W        W28366  38.492   1.798  13.914
56838W        W28367  19.993   6.076   2.261
56839W        W28368   4.919   0.490  12.888
56840W        W28369  16.567   2.507   3.720
56841W        W28370  29.392  24.033  12.516
56842W        W28371  10.413  34.612  13.535
56843W        W28372  34.080  23.615  11.178
56844W        W28373  20.514  39.406   0.844
56845W        W28374  13.480  24.401  13.918
56846W        W28375  13.902  27.992  14.706
56847W        W28376   6.484  23.951  13.708
56848W        W28377  24.567  16.246  11.626
56849W        W28378  10.286  39.140   2.650
56850W        W28379  20.821  37.393  14.389
56851W        W28380   2.964  22.167   0.371
56852W        W28381  32.863  15.084  11.395
56853W        W28382   6.341  31.709   1.903
56854W        W28383  38.754  20.175  12.307
56855W        W28384  23.111   8.819   2.266
56856W        W28385   5.498  17.091  12.503
56857W        W28386   5.623  14.190   4.556
56858W        W28387   3.957  30.036  11.310
56859W        W28388   8.154  28.922  11.625
56860W        W28389  12.407  40.093   1.973
56861W        W28390  28.659  16.267   0.346
56862W        W28391  34.552  41.905   4.697
56863W        W28392   0.343  12.830   2.741
56864W        W28393  19.402   3.571   3.313
56865W        W28394  14.940  39.103   4.325
56866W        W28395  13.184  44.245   2.777
56867W        W28396  16.783  36.837   3.126
56868W        W28397   5.829  13.367  12.475
56869W        W28398   9.840  37.930  11.482
56870W        W28399  18.870   1.928   0.688
56871W        W28400  11.855  33.543   3.638
56872W        W28401  20.701  32.041   0.259
56873W        W28402   1.171  14.059  14.763
56874W        W28403  11.203  41.201   1.930
56875W        W28404   0.290   4.383   0.485
56876W        W28405  23.145   7.154   3.897
56877W        W28406  21.731  12.353   0.388
56878W        W28407  29.561  19.001  10.606
56879W        W28408  41.011  36.984  11.803
56880W        W28409  28.033  30.383  14.838
56881W        W28410  29.496  29.243  12.941
56882W        W28411   0.356   6.463  13.257
56883W        W28412  23.010  30.646  14.480
56884W        W28413   1.544  36.944   4.479
56885W        W28414   1.296   0.185   4.075
56886W        W28415  14.990  39.945   1.027
56887W        W28416  28.236   2.941   1.414
56888W        W28417   0.953  39.399   1.463
56889W        W28418  29.672   6.147  13.456
56890W        W28419   5.589   4.677  11.631
56891W        W28420  16.164  26.513   2.167
56892W        W28421   1.883  18.607   3.049
56893W        W28422  40.485  16.327   0.483
56894W        W28423   2.582   4.547  12.419
56895W        W28424  42.785   1.975  12.059
56896W        W28425  13.789  25.641  12.609
56897W        W28426   8.599  43.929   0.295
56898W        W28427   2.133  27.142   1.382
56899W        W28428  30.299  21.501   1.932
56900W        W28429  33.181   6.817  11.144
56901W        W28430  41.264  29.466  13.971
56902W        W28431  38.457  41.748  13.728
56903W        W28432  12.329  43.513   4.203
56904W        W28433   0.547   2.424  14.947
56905W        W28434  29.045   3.492  12.010
56906W        W28435  16.740  21.113  10.724
56907W        W28436  39.886  19.610   1.257
56908W        W28437   5.450   7.312  13.452
56909W        W28438  10.184  19.767  14.262
56910W        W28439  41.774  25.508   0.653
56911W        W28440  30.486   3.458   3.783
56912W        W28441  34.015   1.995   3.867
56913W        W28442   2.817  31.119   1.549
56914W        W28443  11.224   7.286  12.875
56915W        W28444   1.118   3.992   1.853
56916W        W28445   1.890  23.246   1.434
56917W        W28446  16.585  36.489   1.035
56918W        W28447  12.087  14.831  12.045
56919W        W28448  14.245  36.552  12.072
56920W        W28449   7.179  19.390  10.991
56921W        W28450  33.634   9.371  14.769
56922W        W28451   4.453  36.748  13.430
56923W        W28452  41.210  41.358  14.147
56924W        W28453  18.720  42.766   0.406
56925W        W28454   2.403  22.251   1.449
56926W        W28455   3.918  25.760  12.097
56927W        W28456  14.420  37.457  11.380
56928W        W28457  31.807  39.255  11.129
56929W        W28458  29.161  37.376   1.519
56930W        W28459  17.754  33.419   3.224
56931W        W28460  32.561  20.170   4.379
56932W        W28461  36.353  32.605   2.944
56933W        W28462   1.773  23.461   1.896
56934W        W28463   3.545   8.991  13.819
56935W        W28464   5.200  13.215  14.045
56936W        W28465   9.672  29.021   3.359
56937W        W28466  10.087  23.682  14.448
56938W        W28467  36.413  42.782   4.821
56939W        W28468  43.841  28.530  14.233
56940W        W28469  39.033  39.506   4.596
56941W        W28470   5.971   7.653  12.385
56942W        W28471   4.830  12.840   2.692
56943W        W28472  14.331  13.802  13.123
56944W        W28473  21.394  42.954   2.433
56945W        W28474   9.859   8.608  11.089
56946W        W28475  32.879  20.035  14.444
56947W        W28476  13.568  43.167   1.882
56948W        W28477  36.398  41.340   9.950
56949W        W28478  31.353  17.672   3.576
56950W        W28479  13.129  17.369  10.960
56951W        W28480   0.500  17.254   4.155
56952W        W28481  32.471  44.845   1.880
56953W        W28482  34.490   1.126   2.912
56954W        W28483  30.625   9.144  14.531
56955W        W28484  37.880  10.427   1.718
56956W        W28485  17.581   4.236  11.958
56957W        W28486  27.507  35.806   1.844
56958W        W28487  20.581  32.259  13.436
56959W        W28488  25.505  33.123   4.102
56960W        W28489  18.576   4.935   3.113
56961W        W28490  20.998  14.354  12.454
56962W        W28491  34.110  14.575   0.287
56963W        W28492   5.403  20.496  13.427
56964W        W28493  24.708   4.736   4.530
56965W        W28494  15.432  30.543   0.906
56966W        W28495  37.504  14.658  14.325
56967W        W28496   5.259  16.172   2.819
56968W        W28497  30.878  36.708   0.967
56969W        W28498  27.836  14.046  10.731
56970W        W28499  21.963  13.222  10.685
56971W        W28500  41.251  43.566  12.048
56972W        W28501  40.789   1.039   0.123
56973W        W28502  29.091  26.295   1.947
56974W        W28503  40.768  10.800   4.272
56975W        W28504  23.143  30.727   2.148
56976W        W28505  29.550  36.107   3.556
56977W        W28506  42.836   5.089   2.732
56978W        W28507  32.167   0.470   9.873
56979W        W28508  31.175  10.801   2.687
56980W        W28509   1.763   6.132  11.017
56981W        W28510  34.119  12.886   1.057
56982W        W28511  24.277  30.051  12.603
56983W        W28512  16.188  31.353  14.317
56984W        W28513  26.293  11.648   4.875
56985W        W28514  10.145  14.301  14.591
56986W        W28515   6.835  26.340   2.712
56987W        W28516  30.536  11.360   4.829
56988W        W28517  39.913   3.888   3.532
56989W        W28518  29.891   7.695   0.988
56990W        W28519  31.125  33.376  13.808
56991W        W28520  24.439  41.127  11.415
56992W        W28521   0.506   4.101  11.446
56993W        W28522  33.899  43.766  11.414
56994W        W28523   0.553   1.454  14.472
56995W        W28524  14.533   3.550   0.749
56996W        W28525  22.037  14.318  11.144
56997W        W28526  18.066  33.794  10.603
56998W        W28527   7.410  25.144  12.495
56999W        W28528   2.476   8.782   3.827
57000W        W28529   6.186  41.080  10.563
57001W        W28530  32.195  34.150  13.000
57002W        W28531   3.466  16.171  11.542
57003W        W28532  18.611  22.562  13.286
57004W        W28533  18.007  16.428  11.995
57005W        W28534   8.175  13.759   1.349
57006W        W28535   5.443  30.088  12.685
57007W        W28536   8.831  40.125   1.839
57008W        W28537  43.555  31.079  11.212
57009W        W28538  24.666  22.813   0.100
57010W        W28539  22.602  20.354   1.750
57011W        W28540   3.950   9.282  14.052
57012W        W28541   7.545   3.365   1.281
57013W        W28542  35.211  27.931   4.131
57014W        W28543   2.477  25.085  14.414
57015W        W28544   1.029  21.480  13.981
57016W        W28545  38.525  14.636   0.741
57017W        W28546  23.474   5.420   2.175
57018W        W28547  14.956  26.968  12.154
57019W        W28548   2.919   7.635  13.035
57020W        W28549   5.813   7.364   0.098
57021W        W28550  41.759  15.826   0.239
57022W        W28551  31.936  35.710   1.917
57023W        W28552  12.757  34.847  14.806
57024W        W28553   0.532   9.296  14.058
57025W        W28554   2.791  35.177  11.090
57026W        W28555  21.404  10.779   0.824
57027W        W28556   5.358   0.475  13.783
57028W        W28557  40.206  23.592   4.023
57029W        W28558  40.497  37.906   2.674
57030W        W28559   6.374  19.322  12.204
57031W        W28560  28.601  42.566  14.742
57032W        W28561  37.945  18.503  12.042
57033W        W28562  20.782  10.357  12.621
57034W        W28563  16.453  26.119  12.856
57035W        W28564  20.151  30.830  11.474
57036W        W28565  38.007   2.876   4.876
57037W        W28566  41.308  33.219  12.403
57038W        W28567  37.426   9.885  14.008
57039W        W28568  22.350  42.637   2.190
57040W        W28569  43.377  13.898   2.562
57041W        W28570  37.063  30.364   3.216
57042W        W28571  29.008  17.997  12.867
57043W        W28572   9.322  28.569   0.172
57044W        W28573   7.662  33.382   2.663
57045W        W28574  23.106  25.982  13.117
57046W        W28575   2.028  22.167   0.496
57047W        W28576  17.757  13.629  13.677
57048W        W28577  34.005   9.605   3.844
57049W        W28578  42.552  11.672  12.482
57050W        W28579  25.578  32.046   1.724
57051W        W28580  43.495  34.422  11.254
57052W        W28581  24.534  28.931   0.986
57053W        W28582  35.273  39.056  14.798
57054W        W28583  40.583  40.023  11.272
57055W        W28584  33.874  37.144  12.820
57056W        W28585  14.291  34.916   3.274
57057W        W28586  12.202  21.028   0.429
57058W        W28587  18.999   0.637   0.328
57059W        W28588  16.258  23.052   1.658
57060W        W28589  33.584  44.223  14.807
57061W        W28590   9.527  16.296  12.405
57062W        W28591  13.780   3.645  14.503
57063W        W28592  39.106  30.440   4.619
57064W        W28593   8.254  37.303   1.516
57065W        W28594  17.148  12.173   0.885
57066W        W28595  23.578   1.300  11.690
57067W        W28596  23.497  27.665   0.514
57068W        W28597  36.031  17.055   0.727
57069W        W28598  41.945  22.983   2.319
57070W        W28599  16.172  19.030   3.339
57071W        W28600  13.150  15.308  10.479
57072W        W28601  38.837  31.120   4.233
57073W        W28602  22.277   6.635   0.308
57074W        W28603  40.204  17.183  13.935
57075W        W28604   3.849  36.574   3.622
57076W        W28605  39.530  32.150  12.080
57077W        W28606  40.272  15.352   2.584
57078W        W28607  20.682  16.108   0.308
57079W        W28608   6.763  35.615   2.756
57080W        W28609   5.730  31.395   3.183
57081W        W28610   4.993  40.556  13.056
57082W        W28611  14.561  21.659   2.640
57083W        W28612  26.848  15.408   9.999
57084W        W28613   1.814  16.242   3.708
57085W        W28614  27.054  17.546   0.323
57086W        W28615   2.154   1.903  14.294
57087W        W28616  32.965  21.890  14.236
57088W        W28617  20.375   5.307   0.792
57089W        W28618  11.914  30.644   3.767
57090W        W28619  30.589  13.816   2.414
57091W        W28620  38.833  43.033   0.335
57092W        W28621  13.156  26.164   1.567
57093W        W28622  33.123  37.865  14.553
57094W        W28623  43.110  24.662   2.714
57095W        W28624  17.847  20.261   1.383
57096W        W28625  17.064  24.546   1.758
57097W        W28626   2.206  20.545   0.532
57098W        W28627  24.150  39.073  12.498
57099W        W28628   3.199  42.844   2.178
57100W        W28629  29.299   4.374   2.702
57101W        W28630  13.713  25.706   2.539
57102W        W28631  33.377  34.564  10.657
57103W        W28632   4.707  42.302  12.514
57104W        W28633  33.599  23.135  10.126
57105W        W28634  29.192  16.172   4.736
57106W        W28635  42.831  40.081  13.064
57107W        W28636  18.292   4.122   3.367
57108W        W28637   5.007  42.068  12.987
57109W        W28638  19.506  23.533   1.023
57110W        W28639   9.709  29.602   0.752
57111W        W28640  41.475  38.545   4.704
57112W        W28641  43.771  44.352  12.862
57113W        W28642  44.308  40.861   2.762
57114W        W28643   9.289  32.981  11.872
57115W        W28644  30.204  35.894  12.841
57116W        W28645  14.037  19.409   1.802
57117W        W28646  32.601  15.023  13.917
57118W        W28647   6.086  15.636  10.258
57119W        W28648  32.022  43.245  13.940
57120W        W28649  40.288  12.485  11.181
57121W        W28650  16.527   4.805  10.598
57122W        W28651  19.799  23.211   0.736
57123W        W28652  37.403  14.519  10.962
57124W        W28653  40.025  15.783  12.697
57125W        W28654  42.438   0.956   2.928
57126W        W28655  43.111  28.807  14.792
57127W        W28656  16.929   3.832   1.594
57128W        W28657  18.627  17.510   3.193
57129W        W28658  43.141   3.913  13.860
57130W        W28659  34.330   9.638  11.102
57131W        W28660  19.793   2.317   0.024
57132W        W28661  26.458   1.993   2.363
57133W        W28662  16.711   5.002  11.068
57134W        W28663  42.926  12.214   0.766
57135W        W28664  10.110   4.009   3.879
57136W        W28665  20.718  19.815   3.659
57137W        W28666  28.454  13.602   2.248
57138W        W28667  42.193  20.184   3.095
57139W        W28668  25.573  23.329  14.484
57140W        W28669  34.986   5.863  13.464
57141W        W28670   8.695   1.286   4.039
57142W        W28671  29.105  43.286   2.383
57143W        W28672  11.469  40.339  11.963
57144W        W28673   6.308  17.972   0.234
57145W        W28674   2.302  15.183   0.913
57146W        W28675  30.601  15.871   3.684
57147W        W28676  31.358   6.063   3.854
57148W        W28677   2.051  37.390  14.447
57149W        W28678  24.478  40.775   0.713
57150W        W28679  42.953  26.679  11.446
57151W        W28680   4.953   7.316   1.749
57152W        W28681  31.232  29.124   2.229
57153W        W28682  40.971  27.575   3.889
57154W        W28683   2.901   1.234   2.238
57155W        W28684  24.576   2.921   1.715
57156W        W28685  17.098  19.141  14.325
57157W        W28686  40.418  10.688  14.459
57158W        W28687  35.076  35.812   4.643
57159W        W28688  18.034  36.508  12.802
57160W        W28689  42.727  19.556   1.613
57161W        W28690   4.876  41.480  11.030
57162W        W28691  32.415  15.371  13.543
57163W        W28692  39.754  40.746  14.361
57164W        W28693  32.683  15.528  10.753
57165W        W28694  41.643  20.189   1.198
57166W        W28695   7.203  39.035  12.870
57167W        W28696  43.979  15.534  12.333
57168W        W28697  10.830  39.088   1.762
57169W        W28698   2.218  44.427  11.459
57170W        W28699  18.980   3.223  14.911
57171W        W28700  18.075  30.758   4.560
57172W        W28701  36.106   1.351  14.831
57173W        W28702  40.896  17.300   4.678
57174W        W28703  25.869  25.233   1.523
57175W        W28704   6.638  26.638  11.111
57176W        W28705  35.910   6.711   0.470
57177W        W28706  26.554  15.184   3.116
57178W        W28707  21.575  20.731   4.024
57179W        W28708  29.105  43.923  11.901
57180W        W28709  43.563   2.100   2.689
57181W        W28710  23.739  30.564  12.912
57182W        W28711  14.097  11.817   4.236
57183W        W28712  10.755  34.131   4.105
57184W        W28713  20.663  13.147   2.227
57185W        W28714  10.684   0.292   4.204
57186W        W28715  11.696  13.838   2.733
57187W        W28716  30.762  19.822  12.369
57188W        W28717  14.282  19.661   2.212
57189W        W28718  27.380   4.628   1.294
57190W        W28719  31.873  13.338  13.167
57191W        W28720  17.119   1.813  11.695
57192W        W28721  33.512  27.407  13.343
57193W        W28722   7.913  34.292   2.909
57194W        W28723  10.139  41.376  10.725
57195W        W28724  36.944   7.624  13.050
57196W        W28725  31.836  13.249  10.202
57197W        W28726  10.708  40.005  11.146
57198W        W28727  20.703  15.840   1.284
57199W        W28728  11.597  30.020   3.689
57200W        W28729   9.411  41.622  14.794
57201W        W28730  37.003  12.105   0.831
57202W        W28731  29.645  41.013   4.659
57203W        W28732  20.073  42.783  10.644
57204W        W28733  20.724   8.896  12.278
57205W        W28734  39.530  42.482  14.901
57206W        W28735  21.038   5.884   3.357
57207W        W28736  39.601  20.087   1.276
57208W        W28737  37.046   1.948  12.002
57209W        W28738  17.854  13.899   0.241
57210W        W28739  39.858  18.804  11.670
57211W        W28740  18.033  19.528  13.127
57212W        W28741  31.192  27.064  13.481
57213W        W28742  37.929  37.131   0.201
57214W        W28743  12.825  14.689  13.342
57215W        W28744  18.283  32.983  14.852
57216W        W28745  40.261  13.506   0.238
57217W        W28746  21.108  24.591  14.863
57218W        W28747  14.310  19.580  11.138
57219W        W28748   2.861  34.493  11.833
57220W        W28749  30.406  32.993   1.328
57221W        W28750  25.155   8.129  10.792
57222W        W28751  12.380  17.466   1.232
57223W        W28752  10.385  30.903   0.728
57224W        W28753  39.059  35.396  11.672
57225W        W28754  24.263  44.907  10.579
57226W        W28755  16.362  18.953   9.741
57227W        W28756  42.543   6.544  13.771
57228W        W28757  26.094   7.236  11.964
57229W        W28758   6.709   5.430  11.803
57230W        W28759  16.911  35.978  13.969
57231W        W28760   9.679  34.380   0.312
57232W        W28761  40.838   8.433   4.480
57233W        W28762  29.398  27.959  12.010
57234W        W28763  22.181  11.192  12.459
57235W        W28764   2.028  21.553   1.822
57236W        W28765  30.058  25.991   2.591
57237W        W28766  26.571  24.670   1.354
57238W        W28767  18.768  44.223   4.135
57239W        W28768  41.236  21.698   2.293
57240W        W28769   3.301  31.875  10.514
57241W        W28770  11.207  20.145   2.670
57242W        W28771   3.029  28.704   0.286
57243W        W28772  31.476  35.662  11.637
57244W        W28773   9.207  26.951   2.624
57245W        W28774  34.612  14.693   0.467
57246W        W28775  17.092  27.359   3.546
57247W        W28776  10.833  32.803   2.380
57248W        W28777  10.953  44.957   0.041
57249W        W28778  26.204  29.508  10.841
57250W        W28779  29.590  31.022  10.920
57251W        W28780  29.200   9.797  14.818
57252W        W28781  30.118   5.181   4.396
57253W        W28782  18.417  31.234   2.872
57254W        W28783  44.259   5.776   4.836
57255W        W28784   0.249  41.393   4.677
57256W        W28785  44.472  29.536   4.951
57257W        W28786  13.354  33.408   1.208
57258W        W28787  31.431  32.163   2.680
57259W        W28788  32.897  14.499  12.574
57260W        W28789  30.218  39.877  10.690
57261W        W28790  13.281  34.414  11.978
57262W        W28791  23.921  17.213  12.899
57263W        W28792   0.966   8.548   1.773
57264W        W28793  36.404  12.319   4.096
57265W        W28794  19.068  15.586  13.876
57266W        W28795  40.289  13.717  10.840
57267W        W28796   3.397   5.218   4.014
57268W        W28797   4.201  42.789  10.514
57269W        W28798  28.280  12.995  13.234
57270W        W28799   5.509  35.595   0.996
57271W        W28800  24.137  34.542   1.007
57272W        W28801  24.641  16.585  13.011
57273W        W28802  10.210  13.054  13.015
57274W        W28803  37.020  15.224   0.477
57275W        W28804  16.567  21.605   3.517
57276W        W28805  21.135   8.370   1.205
57277W        W28806  24.037  24.525  12.240
57278W        W28807  31.475  20.064  11.478
57279W        W28808  26.958  17.029   2.640
57280W        W28809  44.602  42.517   0.848
57281W        W28810   3.162  15.822   9.861
57282W        W28811  13.799  34.428   0.840
57283W        W28812   0.971  42.787  11.692
57284W        W28813  12.890   4.813   1.924
57285W        W28814  26.131  34.903   3.573
57286W        W28815  33.264  12.962  11.191
57287W        W28816  22.496   7.346   3.814
57288W        W28817  40.901  36.302  11.152
57289W        W28818  24.733  12.147   1.831
57290W        W28819  32.596   1.063  12.433
57291W        W28820  24.134  44.739   0.783
57292W        W28821   2.720  20.626  14.715
57293W        W28822  28.036  24.666   0.551
57294W        W28823  28.859  39.874   2.126
57295W        W28824   2.607  18.797  14.641
57296W        W28825  44.632  36.006   1.431
57297W        W28826  16.031  36.036   4.242
57298W        W28827   1.281  28.690  14.540
57299W        W28828   0.997  16.045   0.781
57300W        W28829  20.795  29.971  13.379
57301W        W28830  21.155  31.150   0.565
57302W        W28831  36.979  33.396  12.421
57303W        W28832  10.096   7.269  10.539
57304W        W28833  27.566   1.385   0.717
57305W        W28834  19.159  30.346   1.130
57306W        W28835  20.382  13.061  14.029
57307W        W28836   6.718  40.007   2.613
57308W        W28837   8.680   0.780  13.059
57309W        W28838   6.170   4.658  12.339
57310W        W28839  44.241  42.139   0.855
57311W        W28840  32.351  30.729  14.827
57312W        W28841  34.910  39.186  11.047
57313W        W28842  42.005  23.393   3.151
57314W        W28843   4.705  43.036   3.639
57315W        W28844   6.465   7.143   1.295
57316W        W28845  27.792  28.209  13.426
57317W        W28846   9.092  37.034   2.285
57318W        W28847  28.413  42.766   2.766
57319W        W28848  30.528  44.623  12.193
57320W        W28849  23.709  14.215   3.186
57321W        W28850  13.284  22.986   2.184
57322W        W28851  29.086   8.184   0.976
57323W        W28852  13.178  19.875  10.316
57324W        W28853  38.845   3.366   4.077
57325W        W28854  38.038  13.608   4.612
57326W        W28855  21.048   7.216   0.220
57327W        W28856  28.716  12.314   2.834
57328W        W28857  32.111  17.265  11.736
57329W        W28858  39.495  44.488   2.827
57330W        W28859  22.250  32.040   5.148
57331W        W28860  14.050  39.405   0.708
57332W        W28861   3.459  11.372   3.266
57333W        W28862  35.592  30.060   0.294
57334W        W28863  36.573  42.484  11.386
57335W        W28864   1.167  12.167  13.165
57336W        W28865  14.181  42.315   0.884
57337W        W28866  35.746   4.696  12.594
57338W        W28867  35.840  17.187  11.127
57339W        W28868  12.944  11.475  12.075
57340W        W28869  36.360  32.020  12.473
57341W        W28870  17.693  22.118  13.976
57342W        W28871  24.979  39.472   1.809
57343W        W28872  31.587  27.654  11.489
57344W        W28873  33.641   6.637   0.939
57345W        W28874  39.156  22.915  10.933
57346W        W28875  20.221  22.809   1.908
57347W        W28876  20.626  12.581  14.022
57348W        W28877  19.052  41.712  13.865
57349W        W28878  30.468  17.002  14.758
57350W        W28879  35.390  24.073  14.723
57351W        W28880  35.448   0.656  12.153
57352W        W28881  33.586  42.853   4.149
57353W        W28882   4.154  42.011  11.080
57354W        W28883  23.659   5.587  13.498
57355W        W28884  39.966  32.274  11.310
57356W        W28885  35.082  21.094  11.750
57357W        W28886  29.454  32.981   1.834
57358W        W28887   5.039  40.866   2.640
57359W        W28888   2.900   5.376   3.591
57360W        W28889  29.341   8.721  10.706
57361W        W28890  11.554  26.716   4.275
57362W        W28891  32.125  35.570  10.263
57363W        W28892  35.986  19.204   4.607
57364W        W28893  40.785  37.075  10.522
57365W        W28894  17.285  38.488   0.216
57366W        W28895   7.737  24.713   0.873
57367W        W28896  17.322  26.200  11.616
57368W        W28897  16.159  18.554  14.384
57369W        W28898  16.610  39.412   4.629
57370W        W28899  28.113  42.574   4.999
57371W        W28900  40.284  11.269   4.552
57372W        W28901  23.066  37.582  12.346
57373W        W28902   3.810  23.684   2.334
57374W        W28903   6.170  25.542  12.480
57375W        W28904  43.297   2.297   1.871
57376W        W28905   3.505  16.982  12.981
57377W        W28906  12.268  22.792  13.359
57378W        W28907  37.016  29.681  14.882
57379W        W28908  22.609  18.576   4.939
57380W        W28909   8.178  42.445   4.609
57381W        W28910  38.056   3.544  12.411
57382W        W28911  33.579  18.087  10.124
57383W        W28912   0.785   8.238   0.503
57384W        W28913  20.643   7.211   4.645
57385W        W28914  14.257  11.645  14.294
57386W        W28915  10.727  17.365  12.072
57387W        W28916  38.093  42.887   4.223
57388W        W28917  31.852  34.147   4.932
57389W        W28918  33.849  27.144  11.141
57390W        W28919   9.874  23.586  13.554
57391W        W28920  25.695   9.979  13.263
57392W        W28921  38.754  38.238  14.246
57393W        W28922  42.922   4.765  11.352
57394W        W28923  17.651  43.788  12.504
57395W        W28924  10.693   3.225   3.114
57396W        W28925  37.385  37.650  10.619
57397W        W28926  39.149   5.769  10.282
57398W        W28927  10.250  17.744   0.834
57399W        W28928   9.497  26.336   3.221
57400W        W28929   7.764  18.860  11.585
57401W        W28930   0.786  21.142   3.697
57402W        W28931  30.617  41.036   4.341
57403W        W28932  27.054   6.196   0.920
57404W        W28933  26.031  40.035  12.986
57405W        W28934  42.876  39.043   1.841
57406W        W28935   5.366  31.209   1.859
57407W        W28936  26.003  23.520   3.615
57408W        W28937  40.102  42.830   3.843
57409W        W28938   8.207  30.164   1.946
57410W        W28939   2.007   1.731  13.431
57411W        W28940  20.450  32.039  12.220
57412W        W28941   8.182  15.135   2.117
57413W        W28942  20.649  13.843   3.077
57414W        W28943   0.539   6.184  14.123
57415W        W28944  25.920  41.140   2.723
57416W        W28945   4.548  28.889   4.663
57417W        W28946  24.644  14.706  14.974
57418W        W28947  39.811  29.587   3.738
57419W        W28948   1.494   9.022   2.954
57420W        W28949  24.886  40.864   3.584
57421W        W28950  25.371  37.499   1.414
57422W        W28951   0.616  18.053  14.057
57423W        W28952  31.559  41.684   4.343
57424W        W28953  21.182  38.095   4.556
57425W        W28954  37.588  21.133  11.984
57426W        W28955  27.515  17.767   0.338
57427W        W28956  44.829  19.675   3.660
57428W        W28957  15.200   3.141   1.216
57429W        W28958   6.209  24.427  11.594
57430W        W28959  37.257  16.562   2.916
57431W        W28960  22.978   9.326   1.033
57432W        W28961  41.872   5.311  11.668
57433W        W28962   0.893   2.421  13.450
57434W        W28963  20.763   6.876  14.889
57435W        W28964  32.928   8.455  14.077
57436W        W28965  38.355  31.609   0.521
57437W        W28966  17.747  38.269  11.623
57438W        W28967  14.299   0.550   4.279
57439W        W28968  16.582  19.273   3.609
57440W        W28969  18.069   1.196   1.619
57441W        W28970   3.026  42.389   2.360
57442W        W28971  36.060   3.170  10.524
57443W        W28972   5.091  37.302  12.875
57444W        W28973  24.750  36.120  13.489
57445W        W28974  40.893  33.851   1.875
57446W        W28975  22.653  19.254   3.220
57447W        W28976   7.094  18.618  13.302
57448W        W28977  29.335   9.730  12.552
57449W        W28978  24.110  41.171   0.774
57450W        W28979  13.682  42.410   4.198
57451W        W28980  13.535  10.667  14.581
57452W        W28981  38.835  15.635   3.709
57453W        W28982  29.087  21.056  14.961
57454W        W28983  37.459  31.688  12.550
57455W        W28984   4.685  33.517   0.745
57456W        W28985  33.191  10.695  14.492
57457W        W28986   9.645  38.431   0.326
57458W        W28987  14.779  33.863  11.014
57459W        W28988  39.482  26.540  13.809
57460W        W28989   6.428   4.966  11.070
57461W        W28990   1.384  33.835   4.065
57462W        W28991  17.674  30.678  12.884
57463W        W28992   7.948  22.800  13.756
57464W        W28993  37.080  10.126   0.329
57465W        W28994   5.123  26.172   4.661
57466W        W28995  44.955  44.729  11.960
57467W        W28996  27.753   4.464   9.869
57468W        W28997  34.381  19.166  12.108
57469W        W28998  25.564  11.641  14.231
57470W        W28999   3.305  25.774  13.439
57471W        W29000  14.400  32.509   0.077
57472W        W29001  27.574  26.747  11.112
57473W        W29002  44.474  33.136   0.174
57474W        W29003   9.308  16.745  10.419
57475W        W29004  26.404  18.540  13.080
57476W        W29005   2.777  32.613   3.845
57477W        W29006  23.672  38.998   1.874
57478W        W29007  10.110   7.432  14.315
57479W        W29008  18.832  31.592   4.113
57480W        W29009  18.482  22.264   1.975
57481W        W29010   4.452  24.213   4.193
57482W        W29011  28.872  27.868   2.523
57483W        W29012   5.050  24.039   3.294
57484W        W29013  23.773  37.583   0.530
57485W        W29014  41.436   3.530  14.116
57486W        W29015  31.590  44.929  12.120
57487W        W29016  43.911   2.088  11.993
57488W        W29017   9.718  12.262   2.354
57489W        W29018   7.106   9.953  13.569
57490W        W29019  14.375   7.671  13.877
57491W        W29020  23.732   6.884  14.905
57492W        W29021  20.815  11.543  11.093
57493W        W29022  37.318   6.181  11.620
57494W        W29023  34.774   7.291  11.604
57495W        W29024  16.147  15.574  12.564
57496W        W29025  31.067  12.809  13.485
57497W        W29026  38.060  27.453   4.087
57498W        W29027   7.989  42.772  14.103
57499W        W29028  25.011  29.939   4.109
57500W        W29029   2.734  41.937  12.492
57501W        W29030  40.870  34.650   4.536
57502W        W29031  18.992  37.610  14.488
57503W        W29032  10.574  38.386   3.195
57504W        W29033  25.063  33.174   1.223
57505W        W29034  27.875  35.995   0.291
57506W        W29035  13.250  22.529   2.472
57507W        W29036  37.582  41.086  12.985
57508W        W29037  24.571  29.641  13.280
57509W        W29038  43.941  44.049   3.316
57510W        W29039  39.951  34.687  11.269
57511W        W29040  36.479  32.280  13.641
57512W        W29041  26.734  12.176   0.737
57513W        W29042   0.701  16.538  13.923
57514W        W29043  40.266   6.834  12.789
57515W        W29044  12.038  29.100  14.952
57516W        W29045  44.491   6.879  11.818
57517W        W29046  16.449   4.511  13.491
57518W        W29047  26.764   3.221   0.272
57519W        W29048  39.377  13.077   0.530
57520W        W29049  12.229  19.010  10.398
57521W        W29050  22.451  13.214   0.052
57522W        W29051   1.263  25.946   4.481
57523W        W29052  28.481  26.653   4.208
57524W        W29053   7.664   7.267  12.092
57525W        W29054  13.806   0.310  13.299
57526W        W29055  26.961  41.303   0.247
57527W        W29056  10.678  21.906   4.651
57528W        W29057  22.122  27.904  10.619
57529W        W29058  21.596  33.133  12.844
57530W        W29059   7.088  15.173  11.632
57531W        W29060   8.415  41.609   0.916
57532W        W29061  16.562  41.474   0.364
57533W        W29062  27.172  36.441   3.167
57534W        W29063  31.694   1.140   1.247
57535W        W29064  15.337  19.398  13.638
57536W        W29065  38.849   5.274  11.106
57537W        W29066  22.204   6.906   0.986
57538W        W29067  31.191   4.655  10.897
57539W        W29068   3.888  32.868   2.403
57540W        W29069  11.788  24.687   0.950
57541W        W29070  10.971   8.727   3.748
57542W        W29071  43.428  32.479  12.910
57543W        W29072  26.127  25.102   5.078
57544W        W29073  14.184  31.648  10.685
57545W        W29074  42.143  25.060   5.196
57546W        W29075  22.706  23.330  10.566
57547W        W29076  33.932  38.233  13.514
57548W        W29077   2.371  14.195   0.813
57549W        W29078  23.980  38.654  10.988
57550W        W29079   4.702  30.615   4.111
57551W        W29080  26.389  14.229   1.739
57552W        W29081  17.785  42.946   2.633
57553W        W29082  12.681  10.658   4.177
57554W        W29083   7.572  18.774  13.359
57555W        W29084  28.658  19.676   3.081
57556W        W29085  30.235  22.573   0.494
57557W        W29086  25.154  35.501  12.633
57558W        W29087   2.443  28.029  10.023
57559W        W29088  33.336  25.514   2.307
57560W        W29089  44.984  20.996  12.460
57561W        W29090  39.120  16.134  11.196
57562W        W29091  19.228   0.503   1.210
57563W        W29092  41.488   3.729  11.116
57564W        W29093   1.870  39.110   2.565
57565W        W29094  35.059  15.503  12.666
57566W        W29095  43.742  20.566   2.418
57567W        W29096  28.465  19.251  11.441
57568W        W29097  12.345  22.098  12.153
57569W        W29098  43.800  36.408  13.379
57570W        W29099  10.514  43.653   4.119
57571W        W29100  41.617   7.755  14.359
57572W        W29101  19.809  10.101   4.556
57573W        W29102  31.972   3.396  14.309
57574W        W29103  24.675  13.796   0.040
57575W        W29104   7.836   6.307   3.120
57576W        W29105  39.323  40.607  13.437
57577W        W29106  44.537  44.389  13.347
57578W        W29107  22.411  17.064  13.873
57579W        W29108   9.398   2.227  11.492
57580W        W29109  23.130  34.167  14.905
57581W        W29110  40.565   9.634  12.913
57582W        W29111  18.504  29.624  12.857
57583W        W29112  37.814   3.075  12.406
57584W        W29113  36.708  19.490  12.618
57585W        W29114  22.743   2.183  11.191
57586W        W29115  16.681  20.316  12.368
57587W        W29116  37.446  16.069   1.170
57588W        W29117  33.968  23.293  11.583
57589W        W29118  29.954   4.812   3.614
57590W        W29119  21.304   8.800   0.954
57591W        W29120  28.317  24.174  11.047
57592W        W29121  22.548  33.656   3.758
57593W        W29122  21.138  22.569  11.031
57594W        W29123  10.568   7.440   1.213
57595W        W29124   5.827  13.125  12.951
57596W        W29125  11.759  23.437   1.798
57597W        W29126  35.137  12.000  12.498
57598W        W29127  10.993  14.219  14.815
57599W        W29128  19.211  20.050   5.574
57600W        W29129  27.041  33.004  11.904
57601W        W29130  18.339   5.820   4.086
57602W        W29131  37.819  34.947  13.981
57603W        W29132  30.634  10.396  11.036
57604W        W29133  11.874  26.488   4.607
57605W        W29134  19.990  30.574  12.900
57606W        W29135  15.294  14.308  13.908
57607W        W29136  26.107  17.340  12.499
57608W        W29137   6.008   5.912   1.292
57609W        W29138  33.578  32.189  12.097
57610W        W29139  10.625  20.230  10.929
57611W        W29140  44.249  43.564  13.891
57612W        W29141  41.083  14.620  13.322
57613W        W29142  13.230  41.631   5.213
57614W        W29143  40.504  39.456   0.007
57615W        W29144   0.001  39.781   1.710
57616W        W29145  40.185  11.964  11.138
57617W        W29146  43.746  44.819  14.799
57618W        W29147  16.252  10.416   1.685
57619W        W29148  41.497  24.909   0.446
57620W        W29149   7.362   2.363  13.136
57621W        W29150  36.424  19.784   2.247
57622W        W29151   1.967  36.465  10.218
57623W        W29152  31.265  28.981  12.521
57624W        W29153   9.983  42.551  12.400
57625W        W29154   8.996   1.988   2.351
57626W        W29155  11.888  39.899  13.329
57627W        W29156  11.247  17.589   3.598
57628W        W29157  12.498  27.656  14.891
57629W        W29158  27.428  32.483  14.445
57630W        W29159   0.439  25.887   4.477
57631W        W29160  18.789  36.851  13.194
57632W        W29161  37.981   6.212   9.946
57633W        W29162   7.800  18.982   4.063
57634W        W29163  23.928   5.044  11.770
57635W        W29164  37.545  16.476   1.936
57636W        W29165  41.888  26.925  12.899
57637W        W29166  43.882  16.922  11.361
57638W        W29167  22.972  10.372   4.186
57639W        W29168  30.972  11.647  13.017
57640W        W29169  32.867   1.098  14.914
57641W        W29170  29.506  20.808  12.030
57642W        W29171  14.177  18.942  13.768
57643W        W29172  22.702  43.177   3.302
57644W        W29173  20.429  32.732  13.614
57645W        W29174  30.109  40.599  13.759
57646W        W29175  20.949   5.239  10.084
57647W        W29176  33.216  33.603  11.407
57648W        W29177   2.183  37.830  11.750
57649W        W29178  21.035   0.670  14.504
57650W        W29179   9.188  36.530   3.290
57651W        W29180   4.366   3.743   4.343
57652W        W29181  26.739  12.935  11.594
57653W        W29182   0.223  11.728   3.712
57654W        W29183   3.748  23.618  14.968
57655W        W29184  19.574  17.420   3.872
57656W        W29185   4.364  36.828   1.977
57657W        W29186  39.209   1.736  13.335
57658W        W29187  32.686  33.097  12.508
57659W        W29188  20.948   5.960   2.374
57660W        W29189  17.520   8.603  12.623
57661W        W29190  17.401   1.167  13.081
57662W        W29191  24.693  30.018  10.502
57663W        W29192  43.969  34.384  14.492
57664W        W29193  28.137  17.079   3.300
57665W        W29194  24.461  38.313  13.815
57666W        W29195  24.015  39.609   1.179
57667W        W29196  15.683   5.240   2.263
57668W        W29197  24.748  43.463   0.296
57669W        W29198  24.271  43.268   4.652
57670W        W29199  26.943  39.905   4.150
57671W        W29200  24.789  21.480   2.741
57672W        W29201  31.911  34.573  12.065
57673W        W29202   3.818  30.756  13.837
57674W        W29203  44.854  22.675  10.860
57675W        W29204  14.140   1.012   4.054
57676W        W29205  44.437   1.749  13.945
57677W        W29206  30.517  42.411  11.059
57678W        W29207   5.919   3.288  13.936
57679W        W29208   1.448   9.606   3.234
57680W        W29209   4.726  26.726  12.981
57681W        W29210  37.168  13.871  11.535
57682W        W29211  39.271  36.619   1.722
57683W        W29212   6.359  21.222   3.658
57684W        W29213  27.424  17.066  12.144
57685W        W29214  39.796   9.741  10.789
57686W        W29215   7.329  19.599  11.436
57687W        W29216   0.849  31.269  13.507
57688W        W29217  29.825  32.964  14.649
57689W        W29218  38.547  15.170   2.946
57690W        W29219  33.592  30.515   4.139
57691W        W29220   2.112   5.768   0.477
57692W        W29221   6.900  34.885   4.123
57693W        W29222  37.639  29.358  13.063
57694W        W29223  40.365   0.967   3.235
57695W        W29224   7.072  36.026  11.687
57696W        W29225  27.083   9.386  14.269
57697W        W29226  36.307  37.802  14.821
57698W        W29227  20.331  28.251   3.590
57699W        W29228  15.973  21.603   1.248
57700W        W29229  14.729  11.348   4.530
57701W        W29230  37.072  19.816  13.945
57702W        W29231  14.642  22.010   4.530
57703W        W29232   9.172  32.900   1.300
57704W        W29233  38.316  17.507   4.445
57705W        W29234  31.007  26.036   2.782
57706W        W29235   0.576  24.183   1.690
57707W        W29236  38.440  23.591  11.229
57708W        W29237  42.947  28.421   0.951
57709W        W29238  33.622   2.438   0.192
57710W        W29239  42.809  31.632  13.232
57711W        W29240  19.294   7.111   0.000
57712W        W29241  24.644  35.210  11.449
57713W        W29242  29.205  43.632  12.316
57714W        W29243  18.028  23.509   0.376
57715W        W29244  12.277  25.023  10.622
57716W        W29245   2.831  39.988  11.936
57717W        W29246  33.947   3.406  12.401
57718W        W29247  42.500  37.525  12.864
57719W        W29248   4.393  24.792  14.293
57720W        W29249   3.510  28.553   2.292
57721W        W29250  41.041  41.066   2.427
57722W        W29251  24.184  28.787  14.268
57723W        W29252  39.392  12.542  11.523
57724W        W29253  20.269   2.125  12.478
57725W        W29254  13.166  37.047   3.633
57726W        W29255  39.592  43.990   3.319
57727W        W29256  39.846  27.766   3.651
57728W        W29257   6.372   0.845   3.643
57729W        W29258   9.133  17.163  11.567
57730W        W29259  44.959  38.318  12.029
57731W        W29260  36.561  44.477  10.300
57732W        W29261  23.722  38.821  13.456
57733W        W29262   4.340  14.456   3.325
57734W        W29263  18.697   1.148  10.247
57735W        W29264  37.343  39.975   1.721
57736W        W29265  40.694  13.661  10.526
57737W        W29266  43.513  19.558  11.029
57738W        W29267   5.315  32.685   0.758
57739W        W29268   5.706  41.953   3.961
57740W        W29269  16.068  26.962   1.250
57741W        W29270  20.417  21.069  10.685
57742W        W29271  23.926   2.750   1.084
57743W        W29272   9.838   1.416  14.813
57744W        W29273  21.909  25.704   3.720
57745W        W29274  41.480  39.985  11.838
57746W        W29275   6.568   5.255   2.827
57747W        W29276  32.472  39.368  12.934
57748W        W29277  11.110  40.776  11.091
57749W        W29278  41.236  43.319  10.645
57750W        W29279  20.737  36.613  11.960
57751W        W29280  29.541  43.064   2.244
57752W        W29281  41.538  13.032   2.653
57753W        W29282   0.895  44.503  12.010
57754W        W29283  43.812  17.683   3.923
57755W        W29284   8.792  32.771  10.809
57756W        W29285  31.753   3.301   4.442
57757W        W29286  32.529  39.866   4.387
57758W        W29287  34.824  23.429  10.752
57759W        W29288   0.734   2.481   3.611
57760W        W29289  44.237  19.678  10.254
57761W        W29290  17.721  29.356  12.462
57762W        W29291  43.265   3.712   1.112
57763W        W29292  36.369  37.966  13.255
57764W        W29293  17.012  35.866   4.289
57765W        W29294   3.097  36.477  14.248
57766W        W29295   8.812  35.943  13.618
57767W        W29296  21.915  41.880   0.619
57768W        W29297  32.173  10.899  12.846
57769W        W29298   2.339   0.905   2.328
57770W        W29299   4.487   9.801  14.275
57771W        W29300  33.604  10.151  11.159
57772W        W29301   5.306   6.401   0.911
57773W        W29302  25.668  25.724  13.885
57774W        W29303  14.504  36.134   4.360
57775W        W29304   0.429  21.220  14.458
57776W        W29305   3.192   5.164  14.010
57777W        W29306  11.184   3.309   2.865
57778W        W29307  43.009  13.250   0.713
57779W        W29308   6.632  12.060   3.965
57780W        W29309  15.216  17.863  13.980
57781W        W29310  36.062  15.254   3.745
57782W        W29311  35.609  32.093   2.796
57783W        W29312  17.790  16.637   4.076
57784W        W29313  23.785  30.268  14.554
57785W        W29314  21.282  10.632  11.179
57786W        W29315  12.853  36.957   3.221
57787W        W29316  34.106  18.362   0.339
57788W        W29317  32.455  43.111  12.016
57789W        W29318   7.785   2.285  10.931
57790W        W29319  27.740  22.378   3.826
57791W        W29320  32.467   7.324   0.334
57792W        W29321  42.035   9.302  14.729
57793W        W29322   5.854  17.394  14.743
57794W        W29323  24.116  21.519   3.809
57795W        W29324  17.370  10.656   0.829
57796W        W29325  26.072  23.979  11.158
57797W        W29326  12.816  22.738   2.258
57798W        W29327   5.755   5.896   0.318
57799W        W29328  24.275  44.987  12.164
57800W        W29329  34.420  42.154  13.635
57801W        W29330   2.459  41.824  12.083
57802W        W29331   0.795  42.402   2.313
57803W        W29332  34.947  26.690  12.195
57804W        W29333   3.920  34.092   3.484
57805W        W29334  44.768  14.781  11.367
57806W        W29335  14.214  11.168  13.984
57807W        W29336  33.693  15.547   4.558
57808W        W29337  29.266  25.550  10.696
57809W        W29338   3.010  40.514  11.728
57810W        W29339  30.952  44.331   4.106
57811W        W29340  33.101  30.467  11.973
57812W        W29341  17.369  14.800  12.976
57813W        W29342   1.866  14.374  12.858
57814W        W29343   2.853  21.163   4.928
57815W        W29344  26.441  35.001   0.889
57816W        W29345  20.120   1.884   3.196
57817W        W29346   7.423  40.876   3.261
57818W        W29347  19.039  22.872   0.350
57819W        W29348  29.983   5.669   4.146
57820W        W29349  34.888  41.188  11.111
57821W        W29350   3.285  21.430   0.192
57822W        W29351  16.719   3.768   4.629
57823W        W29352   3.036  30.609  10.811
57824W        W29353  14.535  15.725   4.237
57825W        W29354  13.277  21.484  14.578
57826W        W29355  36.708  21.283   3.219
57827W        W29356   4.508  26.416   0.361
57828W        W29357  43.468  44.691   4.525
57829W        W29358   2.072  12.450   2.256
57830W        W29359  22.725  36.932   0.490
57831W        W29360  11.145  40.454   3.127
57832W        W29361   6.175  30.919  13.106
57833W        W29362  43.487  42.405  11.439
57834W        W29363  27.944  32.653   0.156
57835W        W29364  22.242   5.310  13.010
57836W        W29365   7.952  37.818   1.063
57837W        W29366  22.138  18.721   3.699
57838W        W29367   0.344  17.022  13.742
57839W        W29368  37.083   2.996   1.869
57840W        W29369   1.311  29.715  11.539
57841W        W29370  10.709  24.937   2.679
57842W        W29371   2.904   1.987  13.425
57843W        W29372  26.468  32.563   0.394
57844W        W29373   8.898   3.905   0.003
57845W        W29374  20.597  38.517   1.188
57846W        W29375  28.212  41.085   2.006
57847W        W29376  37.346  19.544  12.011
57848W        W29377   5.639  14.642  12.293
57849W        W29378  14.361  17.061  10.677
57850W        W29379  18.445  22.028  14.375
57851W        W29380  38.188  35.053   2.445
57852W        W29381  27.456  16.278  11.155
57853W        W29382  42.799  30.665   3.392
57854W        W29383  32.890  27.184   2.148
57855W        W29384  34.828   7.771  13.310
57856W        W29385  22.757  12.976  12.423
57857W        W29386  32.118  28.268  12.408
57858W        W29387  33.592  32.262  10.777
57859W        W29388   1.760  38.472  13.016
57860W        W29389  25.094   9.745   0.068
57861W        W29390   9.316  11.230  10.599
57862W        W29391   1.962   5.900   2.248
57863W        W29392  31.683   3.149  11.273
57864W        W29393  42.402  31.154   4.975
57865W        W29394  31.578   7.416  11.041
57866W        W29395  39.657  22.051  11.490
57867W        W29396  37.095  26.618  12.458
57868W        W29397  39.878  20.574  14.426
57869W        W29398  42.356  39.938  12.381
57870W        W29399  33.336  19.474  13.723
57871W        W29400  38.822  43.664   3.196
57872W        W29401  18.125  13.327   3.912
57873W        W29402  11.734   5.377  14.551
57874W        W29403  12.320  34.526  10.631
57875W        W29404  42.324  25.027  12.545
57876W        W29405  30.262  22.609   3.840
57877W        W29406  23.295  22.185   0.031
57878W        W29407  41.115  31.570  11.480
57879W        W29408  33.557  37.362  11.151
57880W        W29409  31.614  19.836   1.686
57881W        W29410  36.896  39.604   4.596
57882W        W29411  26.254  39.054  13.349
57883W        W29412  43.349  11.274   0.936
57884W        W29413  43.715  31.052  14.253
57885W        W29414   8.798  31.776   0.248
57886W        W29415  32.457  13.859   1.873
57887W        W29416  12.885   3.990   0.373
57888W        W29417   2.297  30.363   1.455
57889W        W29418  19.515  19.316  13.776
57890W        W29419  21.325  18.219  14.491
57891W        W29420  25.094  29.212   4.562
57892W        W29421  42.597  28.738   1.170
57893W        W29422  30.071  30.997  11.125
57894W        W29423  11.220  30.802   2.036
57895W        W29424   7.361  14.655   1.813
57896W        W29425  33.027  42.965   1.692
57897W        W29426  13.590  31.546   1.656
57898W        W29427  19.714  26.417   2.839
57899W        W29428  24.615  38.027   0.034
57900W        W29429  27.954   2.476   3.483
57901W        W29430  17.696  26.087  13.498
57902W        W29431  13.346  10.707  10.877
57903W        W29432   5.153   3.765  13.381
57904W        W29433   0.085  15.649  14.749
57905W        W29434  19.005   2.063  11.109
57906W        W29435  43.916  20.098  10.882
57907W        W29436   0.793  21.564  10.281
57908W        W29437  12.597  31.964   1.846
57909W        W29438   1.714  21.965   3.849
57910W        W29439  31.053  15.657   1.597
57911W        W29440   3.753   5.063   0.807
57912W        W29441  36.333  20.621   1.808
57913W        W29442  18.072  23.303  11.675
57914W        W29443  21.540  27.052  10.710
57915W        W29444  39.350  14.348   0.586
57916W        W29445   1.563  35.759   4.585
57917W        W29446   3.464   4.728  12.561
57918W        W29447  28.005  26.640   0.486
57919W        W29448  24.124  44.695   4.195
57920W        W29449  16.791   4.733   4.608
57921W        W29450   1.226  22.130  10.628
57922W        W29451  38.479  38.436  12.774
57923W        W29452   0.834  28.816   4.910
57924W        W29453  26.112  29.176  14.547
57925W        W29454  13.110   4.178   4.589
57926W        W29455  27.951  16.557   3.540
57927W        W29456  18.746  22.499   2.776
57928W        W29457  37.373  41.577   0.421
57929W        W29458  32.175  35.094   4.033
57930W        W29459   4.748  40.482  14.426
57931W        W29460  16.227  23.181   2.160
57932W        W29461  32.052  28.993   2.788
57933W        W29462  13.384  12.680  14.355
57934W        W29463  15.969  11.705   4.317
57935W        W29464   1.101  43.241   1.425
57936W        W29465  34.492   7.643   0.046
57937W        W29466  10.351  12.229  11.472
57938W        W29467  35.575  37.905   2.839
57939W        W29468  30.632  27.609  13.849
57940W        W29469  43.245  33.705  12.375
57941W        W29470  20.504  38.985   1.430
57942W        W29471  12.231  36.669   4.697
57943W        W29472  36.774  29.942  12.387
57944W        W29473  21.216  26.916   0.386
57945W        W29474  28.418   6.376   4.315
57946W        W29475   6.248  10.298  12.922
57947W        W29476  11.730  19.479   1.858
57948W        W29477  40.127  40.283   3.784
57949W        W29478  25.013  42.773   2.871
57950W        W29479  35.789  37.063  13.036
57951W        W29480   4.554  42.347   1.442
57952W        W29481  30.938   1.747  14.075
57953W        W29482  21.705  28.131  11.473
57954W        W29483   1.486   3.845   2.820
57955W        W29484  34.651   8.479   3.239
57956W        W29485  22.174  44.909   2.069
57957W        W29486   5.960  20.762  11.340
57958W        W29487   3.348   8.285  14.262
57959W        W29488  39.905  19.186   2.623
57960W        W29489   0.967  21.695  10.743
57961W        W29490  24.074  23.917  10.985
57962W        W29491   8.186   9.376  12.899
57963W        W29492  41.546  40.516   2.308
57964W        W29493  34.099  35.323  11.665
57965W        W29494  16.162   5.918  11.371
57966W        W29495   8.857  10.350   5.396
57967W        W29496  41.010  26.702   1.694
57968W        W29497   1.460  20.795  11.946
57969W        W29498  27.440  42.041   0.319
57970W        W29499  15.418  22.528  11.270
57971W        W29500  42.550  22.765  11.896
57972W        W29501  16.765   1.292   4.355
57973W        W29502   8.638  29.521  13.898
57974W        W29503  22.967  37.283   2.266
57975W        W29504  35.459  14.716  11.969
57976W        W29505  40.687  19.998   0.910
57977W        W29506  26.959  13.089   4.220
57978W        W29507   8.149   0.740  13.117
57979W        W29508  38.927  12.622  11.748
57980W        W29509  14.534   2.767   4.881
57981W        W29510  39.496  12.588  12.836
57982W        W29511  25.416  23.064   4.729
57983W        W29512  42.559  30.082  13.867
57984W        W29513  14.236  36.924  14.788
57985W        W29514  10.318   5.344   2.687
57986W        W29515  28.114  42.781   0.365
57987W        W29516  32.301  15.136   0.341
57988W        W29517  16.055  44.768  11.619
57989W        W29518  26.248  13.617   1.376
57990W        W29519  12.367  41.507   3.147
57991W        W29520  40.508  14.764   1.482
57992W        W29521  16.202  37.309  13.963
57993W        W29522  25.575  19.260   4.650
57994W        W29523   7.839  21.500  11.949
57995W        W29524  37.955   9.761   4.014
57996W        W29525   8.074  34.070  14.149
57997W        W29526  19.167  12.090   3.180
57998W        W29527  33.801  32.726  13.502
57999W        W29528  33.291  41.574  10.215
58000W        W29529   2.363   1.990  12.515
58001W        W29530   2.718  16.308  14.225
58002W        W29531   3.977  41.587  10.256
58003W        W29532  15.587   1.036  13.988
58004W        W29533  20.182  11.370   2.970
58005W        W29534  21.496  42.379  13.464
58006W        W29535  26.383   3.852   3.828
58007W        W29536  43.288   7.848   1.830
58008W        W29537  22.688  24.662   1.321
58009W        W29538  14.655  33.643  10.536
58010W        W29539  33.488   9.308   4.705
58011W        W29540  24.568   2.348  10.751
58012W        W29541  17.300  40.044  11.546
58013W        W29542   0.477   8.762  10.714
58014W        W29543   4.188  10.871  10.406
58015W        W29544  12.145  31.894   0.236
58016W        W29545  40.582   3.335   0.927
58017W        W29546  31.598  17.796  10.353
58018W        W29547  42.479  30.360   4.256
58019W        W29548  25.869  43.008  10.742
58020W        W29549  44.000  39.977  13.322
58021W        W29550  19.636   2.962   0.696
58022W        W29551  23.588   6.432   3.310
58023W        W29552  12.427  16.671   4.751
58024W        W29553  27.633  15.078  11.617
58025W        W29554  31.195  41.380  11.059
58026W        W29555  31.451   5.660   1.363
58027W        W29556   3.069   7.379  14.317
58028W        W29557   9.225  35.094  12.098
58029W        W29558  11.635  11.147   4.454
58030W        W29559   7.121  41.620  14.399
58031W        W29560  38.970  10.698  13.606
58032W        W29561  39.321   0.288   4.757
58033W        W29562  13.668  43.584   1.140
58034W        W29563  13.712   7.663  11.890
58035W        W29564  29.066  25.141  14.038
58036W        W29565  25.777  27.397   0.995
58037W        W29566  25.447  13.085  12.035
58038W        W29567  41.574  18.566   1.415
58039W        W29568  12.286  34.361   3.400
58040W        W29569  32.613  39.554   0.797
58041W        W29570  13.769  15.833  12.941
58042W        W29571   2.739  26.053  12.328
58043W        W29572   5.710  36.053   4.655
58044W        W29573  10.424   6.686  12.763
58045W        W29574   0.541  21.318  12.593
58046W        W29575   9.126  44.835  13.786
58047W        W29576  34.924  34.356   1.930
58048W        W29577  41.656  15.248   3.752
58049W        W29578  25.673   2.305   2.382
58050W        W29579  21.271  11.290  12.397
58051W        W29580  22.519  15.589  11.171
58052W        W29581  36.270  40.845  13.411
58053W        W29582  34.200  32.877   4.071
58054W        W29583  25.095  12.524  11.385
58055W        W29584   0.036  16.665   0.064
58056W        W29585  25.209  43.689  11.645
58057W        W29586  17.307  21.531  12.750
58058W        W29587   2.670  16.702  12.598
58059W        W29588  18.179  44.508   4.570
58060W        W29589  40.623  44.283  13.838
58061W        W29590  21.246  24.592   2.410
58062W        W29591   0.866  44.245  10.720
58063W        W29592  24.497  23.239   2.683
58064W        W29593  11.166  29.493   0.348
58065W        W29594   9.742  42.699   0.224
58066W        W29595  28.360   5.441   3.509
58067W        W29596  23.544  28.108   0.227
58068W        W29597   5.027  34.642   3.607
58069W        W29598  18.537  41.878   2.918
58070W        W29599  44.465  43.232   3.191
58071W        W29600  19.589  39.395  13.459
58072W        W29601   1.016  20.126  13.954
58073W        W29602  19.472  12.559  13.354
58074W        W29603  19.673  20.476   4.316
58075W        W29604  22.794  31.734  14.508
58076W        W29605  17.733  30.423  13.319
58077W        W29606  22.524   8.335  13.744
58078W        W29607  21.238  20.599   1.871
58079W        W29608   3.736  34.496  13.783
58080W        W29609  23.213  44.359  14.528
58081W        W29610  15.146  18.211  11.148
58082W        W29611  37.408   3.602  13.451
58083W        W29612   9.407  26.636  14.486
58084W        W29613  15.654  34.622  11.474
58085W        W29614  20.062   5.112   1.265
58086W        W29615  36.197  15.783   4.570
58087W        W29616   3.294  13.235   1.329
58088W        W29617  30.892   8.050  14.397
58089W        W29618   2.444  11.186  13.342
58090W        W29619  27.139  26.618   2.623
58091W        W29620  33.046  21.474   0.651
58092W        W29621   8.529   4.000  14.288
58093W        W29622  15.087  20.023  11.092
58094W        W29623   8.775   2.397   4.593
58095W        W29624  24.764  10.610   4.261
58096W        W29625   7.666  40.544  11.527
58097W        W29626  14.918  32.501   0.221
58098W        W29627  21.072  20.746  11.466
58099W        W29628  24.247  27.116  13.483
58100W        W29629  33.316  13.434   4.529
58101W        W29630  39.820   9.474   1.154
58102W        W29631  33.333   0.302   3.288
58103W        W29632  23.523  40.284   1.635
58104W        W29633  19.467  43.253   4.932
58105W        W29634  12.206  21.010  12.326
58106W        W29635   8.849  19.853   0.972
58107W        W29636  25.548  10.186   2.630
58108W        W29637  29.524  19.360   3.085
58109W        W29638  18.713  42.553  10.578
58110W        W29639   6.315  21.285   2.654
58111W        W29640  26.645   0.273  13.525
58112W        W29641   3.263  21.708   1.434
58113W        W29642  17.725   7.607  13.394
58114W        W29643  15.342  26.152  13.866
58115W        W29644  23.172  25.913  10.650
58116W        W29645  27.231  32.650   0.084
58117W        W29646  15.674   3.646  14.951
58118W        W29647  44.339  35.795   4.639
58119W        W29648   5.220  23.154  12.080
58120W        W29649  27.418  30.434  10.614
58121W        W29650  37.953  23.744   1.817
58122W        W29651  31.200  11.829   0.482
58123W        W29652  10.033   4.751   4.933
58124W        W29653   4.818  15.130  10.433
58125W        W29654  20.296   9.274   0.185
58126W        W29655  20.772  16.150  10.596
58127W        W29656   7.550  25.949   0.524
58128W        W29657   3.852  33.200   3.337
58129W        W29658  19.059  44.768   2.811
58130W        W29659  31.162  15.145  13.894
58131W        W29660  28.720  20.121  11.956
58132W        W29661  28.435   9.911   2.258
58133W        W29662  42.085  32.521   3.223
58134W        W29663  43.518  10.064  10.750
58135W        W29664  40.634  41.665   4.925
58136W        W29665   7.851  20.609  12.530
58137W        W29666  28.758  41.801  14.911
58138W        W29667  36.626  14.239   0.817
58139W        W29668  20.055  13.952   1.931
58140W        W29669   8.972   0.966  13.932
58141W        W29670  30.516   5.243   4.708
58142W        W29671  37.906  27.030   4.879
58143W        W29672   6.691   5.741   4.630
58144W        W29673  16.051  27.795   0.806
58145W        W29674  25.762  30.485  11.466
58146W        W29675  43.873  34.770   2.028
58147W        W29676  10.167   7.753   1.009
58148W        W29677   0.119  34.648  12.040
58149W        W29678  28.280  39.086  12.476
58150W        W29679   0.226   6.839   0.238
58151W        W29680  26.087  38.327  12.426
58152W        W29681  24.099  21.589  11.901
58153W        W29682  13.510  34.394   3.073
58154W        W29683  35.686  34.079  14.933
58155W        W29684  41.884  25.985  10.699
58156W        W29685  15.811  27.119   9.865
58157W        W29686  25.454  21.317  14.365
58158W        W29687  29.540  43.584   2.357
58159W        W29688  21.052   2.826  11.183
58160W        W29689   0.200   6.386  14.572
58161W        W29690  12.731  37.627  14.386
58162W        W29691  43.474  24.570   0.764
58163W        W29692  20.728  34.073  14.391
58164W        W29693  38.078  32.761  13.402
58165W        W29694  27.554  18.842   3.332
58166W        W29695  23.921  43.068  10.208
58167W        W29696  12.768  15.818  11.418
58168W        W29697  21.855  34.568   4.046
58169W        W29698  20.629  16.599   0.492
58170W        W29699   2.539   9.983  12.544
58171W        W29700  31.415  10.567   0.718
58172W        W29701  31.920   8.283  13.487
58173W        W29702  24.112  21.003  12.470
58174W        W29703   3.281  32.196  14.461
58175W        W29704   8.300   0.657  10.246
58176W        W29705   5.064  29.936  13.090
58177W        W29706   5.808  44.714   1.762
58178W        W29707   7.056  25.452   2.739
58179W        W29708  34.950  40.311  12.424
58180W        W29709  43.124  34.641   4.203
58181W        W29710  13.108  28.540  13.771
58182W        W29711  21.267   8.500   1.830
58183W        W29712   5.906  41.819   1.804
58184W        W29713  25.656  38.745  10.765
58185W        W29714  35.449   1.492  14.469
58186W        W29715   4.428  26.139  10.784
58187W        W29716  10.580  44.214  14.458
58188W        W29717   6.300  14.150  12.377
58189W        W29718  42.279  10.701  11.570
58190W        W29719   5.285  33.749  11.887
58191W        W29720  21.753  37.536   0.185
58192W        W29721  33.566  41.982  13.030
58193W        W29722  42.139  32.962   2.617
58194W        W29723  42.167  11.445  10.387
58195W        W29724  40.592   3.484   3.369
58196W        W29725  44.037  23.086   0.949
58197W        W29726  25.019  28.970   0.639
58198W        W29727  10.876  13.606   0.431
58199W        W29728  23.010  22.284  13.596
58200W        W29729  33.189  13.590   1.837
58201W        W29730  26.446  31.520   2.854
58202W        W29731   5.880  28.380  14.562
58203W        W29732   7.224  31.952  14.882
58204W        W29733  28.387  40.360  14.416
58205W        W29734  19.476  14.752   3.718
58206W        W29735  32.866  44.388   2.548
58207W        W29736  32.511  31.078   4.426
58208W        W29737  40.017  34.931  14.946
58209W        W29738  30.972  36.360  10.670
58210W        W29739  14.291   6.165  11.604
58211W        W29740  37.798  37.768   4.216
58212W        W29741   7.840  13.790   4.605
58213W        W29742  20.933  32.491  11.160
58214W        W29743  12.131   6.242   2.291
58215W        W29744  22.172  40.408   3.234
58216W        W29745  25.968  17.778   2.209
58217W        W29746  40.059  12.625  10.710
58218W        W29747  15.262  43.544   1.221
58219W        W29748   2.931   9.661   3.688
58220W        W29749  20.470  15.568  14.834
58221W        W29750   9.940  36.153  11.349
58222W        W29751  16.020   1.922   2.188
58223W        W29752  35.742  15.179  13.410
58224W        W29753  32.335  19.517  11.495
58225W        W29754  44.398   7.655  14.377
58226W        W29755  43.934   7.867   3.857
58227W        W29756   5.628  18.598  13.603
58228W        W29757   7.321  15.870   4.686
58229W        W29758  28.160  26.235   3.353
58230W        W29759   0.275   0.082  12.147
58231W        W29760  41.102  22.164   1.225
58232W        W29761  26.100  35.965  14.613
58233W        W29762  34.840  36.331  14.829
58234W        W29763  28.448  37.295   2.869
58235W        W29764   0.730   5.314  12.384
58236W        W29765  33.131   8.273   1.888
58237W        W29766   8.183  39.961   3.056
58238W        W29767   0.469  39.815   1.960
58239W        W29768  20.770  38.579   0.705
58240W        W29769   1.957  43.327  14.938
58241W        W29770  37.886  10.328  12.668
58242W        W29771  21.010  26.752  11.380
58243W        W29772  18.981  12.421  12.094
58244W        W29773  10.419  33.120  13.453
58245W        W29774  36.070  33.403   0.282
58246W        W29775  29.335   5.980   2.309
58247W        W29776  39.114   5.373  12.643
58248W        W29777  43.152   9.187   0.199
58249W        W29778  22.441  31.467   2.909
58250W        W29779  39.292  35.606  12.060
58251W        W29780   8.045  16.760  12.127
58252W        W29781  36.355  38.853  10.796
58253W        W29782  41.934  26.966  12.124
58254W        W29783  25.977  42.999  11.659
58255W        W29784  26.170  21.228   3.741
58256W        W29785  22.687  43.029   2.278
58257W        W29786  33.263   1.226  10.234
58258W        W29787  29.461  20.094   0.473
58259W        W29788  10.545  39.099   3.780
58260W        W29789  40.858  40.716   4.311
58261W        W29790  20.600  44.077  10.836
58262W        W29791  41.426  26.075  10.934
58263W        W29792  39.534  29.242   3.177
58264W        W29793  31.533  43.435  13.985
58265W        W29794  25.365  41.421  13.989
58266W        W29795  14.210  20.551  11.423
58267W        W29796  43.050   9.144  13.991
58268W        W29797  30.499  43.969   4.709
58269W        W29798   2.363  32.038   2.862
58270W        W29799   4.854  27.203  14.562
58271W        W29800  14.647  29.683   2.395
58272W        W29801  44.749  22.513   3.220
58273W        W29802  12.918  11.359   4.552
58274W        W29803  16.165  11.636   2.180
58275W        W29804  12.836  33.353  12.115
58276W        W29805  42.963  18.044   3.713
58277W        W29806  22.725  19.378   1.451
58278W        W29807  43.083  38.388  11.165
58279W        W29808  39.957  37.140   2.739
58280W        W29809  36.313  16.766   3.364
58281W        W29810  11.761  19.057  10.726
58282W        W29811  23.495  30.501  11.548
58283W        W29812  20.450  32.629  11.127
58284W        W29813  15.855  39.040  13.786
58285W        W29814  38.601  43.019  14.869
58286W        W29815  35.188  44.937   2.436
58287W        W29816  25.726  19.746  13.395
58288W        W29817  22.721  20.169  13.408
58289W        W29818   7.230  43.651  11.473
58290W        W29819  15.738  29.128   1.803
58291W        W29820  26.178  21.624   0.951
58292W        W29821  14.600  10.193  13.863
58293W        W29822  25.683  40.536   4.600
58294W        W29823  34.338  38.009   4.069
58295W        W29824  30.985  35.832  10.727
58296W        W29825  30.180   6.908  13.076
58297W        W29826   7.759  44.384   1.880
58298W        W29827   8.756  26.551  11.397
58299W        W29828  24.143  22.480   3.729
58300W        W29829  32.299   3.625  10.974
58301W        W29830  40.272  24.126  12.939
58302W        W29831  36.419  30.217  12.102
58303W        W29832  43.305   0.833  10.985
58304W        W29833   1.015  36.883  11.160
58305W        W29834   5.701  41.003   1.394
58306W        W29835  41.445  10.551   3.340
58307W        W29836  19.050  28.908  14.414
58308W        W29837  16.735  15.084   0.122
58309W        W29838  21.666  19.287   3.165
58310W        W29839  12.262   4.435   3.595
58311W        W29840   0.145  25.758   4.059
58312W        W29841  10.092  26.598   2.516
58313W        W29842  42.839   3.425   0.976
58314W        W29843  33.025   4.725   1.360
58315W        W29844  30.127  12.103   0.952
58316W        W29845   8.314  17.479  13.073
58317W        W29846  21.659   1.864  11.631
58318W        W29847  18.486   9.496   1.610
58319W        W29848  31.747  27.670   2.867
58320W        W29849  42.426   5.684  11.080
58321W        W29850  21.103  42.058   5.263
58322W        W29851   2.905  24.535  12.894
58323W        W29852  22.148  30.210  11.130
58324W        W29853  23.131  10.226  12.916
58325W        W29854  21.727   3.670  11.956
58326W        W29855  23.759  37.320  14.510
58327W        W29856  16.074  43.735   2.308
58328W        W29857  22.397  20.711   3.790
58329W        W29858   0.516  40.554   0.856
58330W        W29859  27.475   1.735  11.098
58331W        W29860  10.092  32.557  12.172
58332W        W29861  40.419  15.083   4.653
58333W        W29862  20.438  27.547   0.447
58334W        W29863  29.933  41.620  13.893
58335W        W29864   2.223  37.922   3.863
58336W        W29865   8.197  32.550   2.643
58337W        W29866  17.064   0.322   0.808
58338W        W29867  40.778   5.485   4.529
58339W        W29868  13.695   8.703   2.810
58340W        W29869  24.255  39.594  14.831
58341W        W29870   4.393  39.987  10.667
58342W        W29871   7.894   2.751  12.103
58343W        W29872  11.283   9.456  10.747
58344W        W29873  24.515  43.797   3.897
58345W        W29874  26.489   6.321  12.654
58346W        W29875  23.069  12.099  12.955
58347W        W29876  23.045  27.913  13.555
58348W        W29877   3.096   0.262  10.239
58349W        W29878  36.528  37.325   1.418
58350W        W29879  14.696   4.460  13.833
58351W        W29880  20.643  44.699  13.006
58352W        W29881  11.448  10.705   4.666
58353W        W29882  16.542  38.470   3.273
58354W        W29883  13.207  26.387  10.616
58355W        W29884  17.400  29.570   1.992
58356W        W29885  21.633  41.780  11.660
58357W        W29886   6.388   7.270   3.682
58358W        W29887   5.869  34.716   5.235
58359W        W29888  13.868  14.778  13.779
58360W        W29889  36.532  20.319   0.211
58361W        W29890  37.587   5.709   2.699
58362W        W29891  21.248  36.846  13.078
58363W        W29892  10.852  33.764  13.963
58364W        W29893   9.883   7.274   0.952
58365W        W29894  35.383  22.895   5.142
58366W        W29895  12.883  12.410   4.568
58367W        W29896  34.889  26.476  11.193
58368W        W29897  27.552  41.108  14.415
58369W        W29898  38.346  22.059  12.860
58370W        W29899  13.857   2.160   0.350
58371W        W29900   6.266   4.938  13.104
58372W        W29901  25.451   9.863   0.440
58373W        W29902  22.162  36.043   0.402
58374W        W29903  35.090  26.879  10.496
58375W        W29904   7.272  23.518   1.708
58376W        W29905  42.832   8.257   4.880
58377W        W29906  11.410  11.391  12.076
58378W        W29907  36.263  24.001  11.915
58379W        W29908  44.310  27.612  11.523
58380W        W29909   2.033  18.127   3.763
58381W        W29910  44.255  39.863  13.928
58382W        W29911   9.680  16.036   4.254
58383W        W29912  32.794   2.070  11.138
58384W        W29913  10.217  20.192   2.679
58385W        W29914  42.341  35.429   3.247
58386W        W29915   6.522  26.990   1.761
58387W        W29916  10.059  16.320   2.222
58388W        W29917  19.181   1.445  13.536
58389W        W29918  20.676   5.744   0.728
58390W        W29919  38.847  44.312   3.775
58391W        W29920  20.932  38.781   2.308
58392W        W29921  33.202  33.496   1.753
58393W        W29922  32.787   9.798   1.831
58394W        W29923   8.960  25.014   1.783
58395W        W29924  36.617   2.697   0.506
58396W        W29925   0.394   2.342  12.712
58397W        W29926  12.776  22.705   3.227
58398W        W29927  39.923  30.425  13.565
58399W        W29928  16.462  12.044  11.940
58400W        W29929   0.456  11.099  10.712
58401W        W29930  20.782  14.740  11.616
58402W        W29931  17.695  33.916  14.020
58403W        W29932   5.343  44.747   2.749
58404W        W29933  32.896  19.121  11.160
58405W        W29934  43.485  18.215  10.463
58406W        W29935  21.037  15.699  10.585
58407W        W29936  13.598  13.262  13.173
58408W        W29937  16.645  19.053   3.149
58409W        W29938  37.989   8.261  14.596
58410W        W29939  43.463  12.248  11.181
58411W        W29940  42.507  33.875   1.771
58412W        W29941  13.286   1.269  12.235
58413W        W29942  38.955  36.351  14.758
58414W        W29943  10.606   4.376   4.582
58415W        W29944   3.333   8.032   2.823
58416W        W29945  35.009  39.252  13.307
58417W        W29946   5.365  34.574  11.973
58418W        W29947  20.920  10.644   0.944
58419W        W29948  43.446   6.176  13.541
58420W        W29949  40.599   0.486  12.463
58421W        W29950   5.761  22.616   4.184
58422W        W29951  22.729   9.103   4.741
58423W        W29952   4.169  13.515   4.123
58424W        W29953  12.190  38.851  10.970
58425W        W29954  13.113  16.102  13.995
58426W        W29955   2.667  12.697   4.612
58427W        W29956  39.926  32.448   4.665
58428W        W29957   2.554  14.579   0.469
58429W        W29958  19.340   3.332  10.499
58430W        W29959   3.285  21.872  11.582
58431W        W29960  39.721  38.042   2.060
58432W        W29961  10.925  31.740   2.353
58433W        W29962  35.198  32.979  11.073
58434W        W29963  25.545  42.687  11.576
58435W        W29964  27.525  25.009  14.461
58436W        W29965  17.527  23.662  13.767
58437W        W29966   4.903  31.422   1.732
58438W        W29967  25.194  41.943   1.012
58439W        W29968   3.583  21.089   0.471
58440W        W29969  30.146   5.374   0.551
58441W        W29970  19.833  21.199  12.492
58442W        W29971  33.011  18.612  13.776
58443W        W29972  15.122  29.749   1.194
58444W        W29973  31.274   9.266   4.609
58445W        W29974   7.238  11.004  10.817
58446W        W29975  12.127  31.867  11.601
58447W        W29976  42.595   5.193   2.298
58448W        W29977  35.393  41.466  13.392
58449W        W29978  42.085  22.014  12.011
58450W        W29979  32.371  14.353  11.053
58451W        W29980  12.809   2.720   4.595
58452W        W29981  16.342   1.928   1.328
58453W        W29982  40.952   2.339   3.352
58454W        W29983  11.853  29.881   3.255
58455W        W29984  44.332  12.863   0.725
58456W        W29985  37.368   5.814  12.099
58457W        W29986  25.220   5.308   4.123
58458W        W29987  28.513  40.992  14.055
58459W        W29988  42.891  25.848  14.028
58460W        W29989   5.931   8.880  13.906
58461W        W29990  21.224  30.096   0.399
58462W        W29991  16.775   3.316   5.010
58463W        W29992  23.231  22.879   3.451
58464W        W29993  26.037  29.705   3.761
58465W        W29994   3.346  40.927  11.597
58466W        W29995  41.015  32.411  10.264
58467W        W29996  30.570  21.024   3.096
58468W        W29997  10.911  25.553   1.320
58469W        W29998  38.017  37.425   4.563
58470W        W29999  26.248  29.294   0.438
58471W        W30000  27.934  33.135  11.592
58472W        W30001  37.488  17.284  11.973
58473W        W30002   4.199  33.648   0.853
58474W        W30003  27.522  21.584   1.227
58475W        W30004  35.537  39.570  12.615
58476W        W30005  44.238  17.967   4.145
58477W        W30006   6.062   0.601   5.152
58478W        W30007   3.905  33.047   5.014
58479W        W30008  29.987   1.799   0.830
58480W        W30009   7.566  44.912   4.136
58481W        W30010  28.999  38.643   0.889
58482W        W30011  12.851  15.038   3.270
58483W        W30012  25.466  37.306   3.836
58484W        W30013  34.304   5.301   3.443
58485W        W30014  10.397  42.894   4.165
58486W        W30015  23.809  19.324   1.403
58487W        W30016   4.560  24.181   2.405
58488W        W30017  17.735   1.802   1.402
58489W        W30018  11.703  27.896   1.696
58490W        W30019  18.300  38.329   4.548
58491W        W30020  34.596  23.054   4.753
58492W        W30021  44.368  27.869   1.889
58493W        W30022   7.253  42.123  14.469
58494W        W30023  20.184  21.768   0.754
58495W        W30024  25.531  33.923   2.703
58496W        W30025  31.663  33.613   5.086
58497W        W30026  32.161  35.970  11.953
58498W        W30027  22.803   7.433   4.269
58499W        W30028   7.306  30.397  12.674
58500W        W30029   7.861  18.056   4.072
58501W        W30030  28.814  33.536   3.412
58502W        W30031  32.019  23.693   2.862
58503W        W30032   3.800  22.728   4.174
58504W        W30033  12.379  44.438   3.803
58505W        W30034  14.184  15.571  11.756
58506W        W30035  28.256   2.359   2.539
58507W        W30036   4.908   5.012  13.087
58508W        W30037  33.574   8.002   4.121
58509W        W30038  11.787  37.253   0.689
58510W        W30039  23.772   0.364   1.264
58511W        W30040  22.125  37.296   3.396
58512W        W30041  23.583  35.208  11.871
58513W        W30042  25.113  27.073  11.203
58514W        W30043  24.578   2.710  11.189
58515W        W30044  39.924  33.007   1.428
58516W        W30045  38.360  21.452   3.784
58517W        W30046  27.106  22.358  12.937
58518W        W30047  23.186  27.559  10.635
58519W        W30048  13.170  33.682  14.903
58520W        W30049  30.309  39.914   0.979
58521W        W30050   7.834  23.939   1.460
58522W        W30051  18.297  31.102  10.657
58523W        W30052  16.198  22.656   0.681
58524W        W30053  39.219  35.985  10.323
58525W        W30054  12.162  16.657  12.081
58526W        W30055   6.922  17.723   1.347
58527W        W30056  11.813  28.146  13.331
58528W        W30057   2.520  27.480   2.766
58529W        W30058   9.824   7.033   4.225
58530W        W30059  17.562  32.260  14.646
58531W        W30060   9.236   4.951   1.161
58532W        W30061   9.705  23.177   2.874
58533W        W30062  15.331  31.843  12.569
58534W        W30063  16.719  44.097   1.815
58535W        W30064  27.393   3.765  14.552
58536W        W30065  11.835  24.786   0.076
58537W        W30066  18.749  20.517  14.348
58538W        W30067  41.304  39.001  14.812
58539W        W30068  21.515   0.904   0.727
58540W        W30069  26.701  44.736  14.423
58541W        W30070  32.935   5.222   0.359
58542W        W30071   4.293  13.942   3.214
58543W        W30072  24.037  22.171   2.729
58544W        W30073  40.343  44.879   2.945
58545W        W30074  34.953   6.322  12.062
58546W        W30075   1.957   9.392  11.180
58547W        W30076  27.067  31.733  14.937
58548W        W30077  21.729  43.230   3.362
58549W        W30078  11.899  43.413  14.783
58550W        W30079  40.815  35.129   3.194
58551W        W30080  37.593  36.176   5.029
58552W        W30081  27.796  21.961  13.523
58553W        W30082   3.381  28.416   1.442
58554W        W30083  31.640  43.317  11.674
58555W        W30084  36.529  15.263  13.046
58556W        W30085  18.071  44.825   1.404
58557W        W30086   5.337  31.719   3.081
58558W        W30087  29.411  18.109  14.404
58559W        W30088  27.074  18.093   0.413
58560W        W30089  43.875  29.881   0.371
58561W        W30090  14.865  44.709   0.319
58562W        W30091  20.197   3.927   4.409
58563W        W30092  41.387  19.726   1.190
58564W        W30093  28.483  14.079   1.354
58565W        W30094   6.661  28.466  10.940
58566W        W30095  12.008  41.755  10.812
58567W        W30096  32.693  16.052   3.650
58568W        W30097   8.407  44.790  13.004
58569W        W30098  17.243  43.873  13.469
58570W        W30099  27.969  19.077  14.897
58571W        W30100  19.651   7.199   4.714
58572W        W30101  42.615  43.108  14.411
58573W        W30102   1.221  40.097   4.272
58574W        W30103  35.388  13.350  11.016
58575W        W30104   7.678  11.309  12.494
58576W        W30105  14.742   1.468  14.975
58577W        W30106   0.931  31.117   9.947
58578W        W30107  13.865   5.952   0.868
58579W        W30108  42.326   1.168  14.051
58580W        W30109  37.973  41.384  14.432
58581W        W30110  44.286  16.504  12.014
58582W        W30111   6.122  44.641  14.938
58583W        W30112  37.058   8.181   0.572
58584W        W30113  33.970   8.814   4.138
58585W        W30114  35.647  26.975   2.265
58586W        W30115  24.296  25.714   2.661
58587W        W30116  38.795  14.746   1.210
58588W        W30117  11.768  28.945   3.389
58589W        W30118  33.590  18.797  11.886
58590W        W30119  20.945  44.442   4.016
58591W        W30120   8.615  39.074  13.031
58592W        W30121  24.258   9.870   2.560
58593W        W30122  13.741  20.214  14.015
58594W        W30123   8.270   3.147  13.433
58595W        W30124   4.408  30.100  13.716
58596W        W30125  41.437  20.614  14.439
58597W        W30126  41.273   7.296   1.880
58598W        W30127   6.369   2.537  13.554
58599W        W30128  22.131   7.662  11.012
58600W        W30129  36.450  16.769   4.355
58601W        W30130  31.085  15.609  12.915
58602W        W30131  26.196   6.127  13.082
58603W        W30132  24.983  31.188   4.496
58604W        W30133  22.601  37.633   2.178
58605W        W30134  41.455  15.207  11.225
58606W        W30135  13.182  17.086  11.841
58607W        W30136   9.160  23.358  12.790
58608W        W30137  10.668  22.107   0.531
58609W        W30138  11.789   0.574   0.302
58610W        W30139   3.477  21.022   3.625
58611W        W30140   7.310  31.621   0.365
58612W        W30141   4.571  15.305   5.053
58613W        W30142  26.281  27.632  10.671
58614W        W30143  40.927  40.027   4.990
58615W        W30144  11.247  21.165   1.169
58616W        W30145  42.041   7.087  12.035
58617W        W30146  42.813   8.780  10.308
58618W        W30147  16.832  44.685  10.963
58619W        W30148  27.195  13.474   4.454
58620W        W30149  38.262  20.084   0.724
58621W        W30150  24.100   7.358   4.474
58622W        W30151  32.985   9.660  13.836
58623W        W30152  21.985  19.751  14.295
58624W        W30153  23.324  44.417   1.315
58625W        W30154  22.067  13.587  11.902
58626W        W30155  25.622  14.011   1.022
58627W        W30156  24.173   8.348   4.540
58628W        W30157   6.425  34.068  13.825
58629W        W30158  39.904  35.064  14.122
58630W        W30159   4.795  32.920  11.437
58631W        W30160  11.821  15.079  11.455
58632W        W30161  21.625  33.909   2.121
58633W        W30162   9.287   3.991   0.926
58634W        W30163   4.711   0.346   5.159
58635W        W30164   7.711  33.174   3.724
58636W        W30165  28.059  13.449  14.850
58637W        W30166   6.443  20.563  12.598
58638W        W30167  12.666   7.329  11.409
58639W        W30168  13.428  29.551   1.793
58640W        W30169   0.931  16.198   2.597
58641W        W30170  39.549  11.747   0.500
58642W        W30171  35.820  28.517  13.986
58643W        W30172  40.866   5.705   3.210
58644W        W30173   8.396  23.611   3.605
58645W        W30174  24.174  31.560   4.349
58646W        W30175  24.500  15.133   3.810
58647W        W30176  44.306   9.808  14.784
58648W        W30177   9.517   2.252   3.637
58649W        W30178  15.366  39.970  13.922
58650W        W30179   5.925  41.267   4.910
58651W        W30180   1.249   9.920   2.740
58652W        W30181  29.187  27.699   3.789
58653W        W30182  42.050  25.425   1.721
58654W        W30183  15.418   8.757   2.216
58655W        W30184  18.162  12.806   3.720
58656W        W30185   9.175  38.582   1.180
58657W        W30186   7.272  32.849   4.675
58658W        W30187  33.127  41.244  13.884
58659W        W30188   8.234  43.624  10.606
58660W        W30189  10.237  24.555   4.413
58661W        W30190  35.772   6.841   3.407
58662W        W30191   3.685  34.147  12.293
58663W        W30192  34.953   3.196   3.881
58664W        W30193   1.376  19.010   4.812
58665W        W30194  25.482  12.776   1.693
58666W        W30195  18.221   5.537  13.631
58667W        W30196   4.704  42.493  12.990
58668W        W30197  13.249   2.370   1.560
58669W        W30198  38.785   1.958  13.522
58670W        W30199  24.511  28.424  12.089
58671W        W30200  31.355  16.192  11.223
58672W        W30201  25.185  10.894   3.180
58673W        W30202   5.870   7.890   4.123
58674W        W30203   5.875  16.582  14.223
58675W        W30204  43.256  22.424   4.129
58676W        W30205  44.460  33.556  11.820
58677W        W30206  42.246  31.518  12.286
58678W        W30207  36.438  20.222   0.882
58679W        W30208  29.227  42.477  12.965
58680W        W30209  36.063   9.919  14.247
58681W        W30210  44.641  41.025  12.847
58682W        W30211  41.752  30.329  13.678
58683W        W30212   6.084  40.623  12.228
58684W        W30213  35.070  11.851  10.746
58685W        W30214   9.937  41.878  10.615
58686W        W30215  11.710  29.159   1.354
58687W        W30216  14.134  28.966   4.592
58688W        W30217   6.619  13.876  14.427
58689W        W30218  13.329  34.086  13.294
58690W        W30219  16.364  20.821  14.110
58691W        W30220  41.235   5.236   0.443
58692W        W30221  44.366  35.979  14.462
58693W        W30222  22.161   8.916   1.505
58694W        W30223   8.217   2.302  11.828
58695W        W30224   5.840   0.238   3.013
58696W        W30225  13.855  13.198  11.676
58697W        W30226  22.693  31.899  11.922
58698W        W30227   5.431   7.657   4.276
58699W        W30228  31.438   4.023  10.538
58700W        W30229   1.735  31.270  13.859
58701W        W30230  39.372  16.971  10.659
58702W        W30231  29.614  21.796   3.193
58703W        W30232  35.138   2.982  12.391
58704W        W30233   2.562  29.662  11.940
58705W        W30234  44.096  43.853  12.948
58706W        W30235  12.301  30.785  10.988
58707W        W30236  23.813   1.538   4.623
58708W        W30237  23.640   7.557   2.605
58709W        W30238  36.094  27.522   4.546
58710W        W30239  11.726   2.653  12.594
58711W        W30240  28.890  39.005  13.725
58712W        W30241   4.159  12.802   1.369
58713W        W30242   7.857  17.205  14.766
58714W        W30243  33.614  24.555   3.163
58715W        W30244  41.070  10.857   2.661
58716W        W30245  42.351  43.270   0.688
58717W        W30246   2.440  10.782   0.660
58718W        W30247  26.343   5.717   4.164
58719W        W30248   2.325   8.381  13.588
58720W        W30249   8.843  28.299   4.073
58721W        W30250  34.956  42.972   0.343
58722W        W30251  37.828  11.407   0.431
58723W        W30252  19.078  39.931  14.594
58724W        W30253  22.714  40.609  10.761
58725W        W30254  12.306  24.130   4.053
58726W        W30255   4.850  32.517   0.506
58727W        W30256  14.134  41.274   1.735
58728W        W30257  28.576  36.851  14.887
58729W        W30258  44.686  24.663   1.719
58730W        W30259  21.836  41.059   5.486
58731W        W30260  26.545  13.100  14.310
58732W        W30261  10.977  40.736   1.980
58733W        W30262  17.555  26.995  11.091
58734W        W30263  16.965  20.221   3.587
58735W        W30264  34.089   7.954   0.892
58736W        W30265   5.789  23.886   0.945
58737W        W30266  21.345  11.887  10.039
58738W        W30267   3.020   6.096  12.841
58739W        W30268  42.415  32.425   1.816
58740W        W30269  24.593  20.274  11.810
58741W        W30270  28.528   0.916  11.905
58742W        W30271   0.676  30.059  11.153
58743W        W30272  17.389   4.239   1.368
58744W        W30273  35.508  23.521   3.588
58745W        W30274   6.150  36.231   2.971
58746W        W30275   8.895  30.620  12.999
58747W        W30276   1.838  39.539   1.282
58748W        W30277  19.500  24.691   3.243
58749W        W30278  33.681  40.548   0.350
58750W        W30279  34.080  40.255   2.330
58751W        W30280   7.207   4.494   3.575
58752W        W30281  35.832  11.226  13.008
58753W        W30282   2.426  14.677   2.305
58754W        W30283  27.074  11.670   4.215
58755W        W30284   4.303  14.731  13.777
58756W        W30285  29.285  44.465  10.898
58757W        W30286  12.544  25.370  11.049
58758W        W30287  10.579   9.287   1.223
58759W        W30288   1.270  37.389  13.386
58760W        W30289  11.803   3.891  13.460
58761W        W30290  17.087  40.333  10.971
58762W        W30291   1.650  24.053   2.716
58763W        W30292  30.383   3.114   3.384
58764W        W30293  29.472  32.760  12.354
58765W        W30294   8.085  15.333   3.602
58766W        W30295  38.116   9.376   2.786
58767W        W30296  37.382  36.282  11.382
58768W        W30297  29.149   5.575  12.435
58769W        W30298  20.656  25.456  12.617
58770W        W30299  14.032  35.669  12.123
58771W        W30300  20.076  34.771  11.918
58772W        W30301  35.019  24.006   0.050
58773W        W30302  42.911  32.561   2.423
58774W        W30303  25.437   0.463  14.500
58775W        W30304  40.428  32.632   3.843
58776W        W30305  14.271   6.676   1.700
58777W        W30306  23.163   4.898   1.770
58778W        W30307  35.352  34.462  13.339
58779W        W30308  32.901  17.644  13.075
58780W        W30309  20.976   6.808   2.292
58781W        W30310  25.570   1.179   2.814
58782W        W30311  21.641  13.773   0.033
58783W        W30312  23.667   0.423  11.618
58784W        W30313  34.415   0.957  12.763
58785W        W30314  33.915  19.569   0.024
58786W        W30315  33.378  31.447   2.579
58787W        W30316  19.147   7.922  12.579
58788W        W30317  31.477  23.950  12.075
58789W        W30318  44.500  39.430  10.356
58790W        W30319  36.535  18.686  12.017
58791W        W30320  26.244  32.931  14.898
58792W        W30321  17.747  17.094   1.845
58793W        W30322   1.425   9.436  13.845
58794W        W30323  24.771   5.796   2.403
58795W        W30324  18.811  27.385  10.625
58796W        W30325  26.529  33.974  13.360
58797W        W30326   6.009  17.231   2.976
58798W        W30327  12.726  26.695   0.471
58799W        W30328   8.856  43.399   0.962
58800W        W30329   2.352   3.339   0.077
58801W        W30330  18.033  44.899   4.935
58802W        W30331  18.108  26.751  12.588
58803W        W30332  22.617   2.857   0.898
58804W        W30333  22.814  44.069   2.336
58805W        W30334  11.285  18.043  10.465
58806W        W30335  15.030  18.328  12.614
58807W        W30336  31.981  31.946   1.174
58808W        W30337  43.777   0.133  14.386
58809W        W30338   7.842  23.019   4.874
58810W        W30339  44.270  44.630  11.573
58811W        W30340   5.843  31.939   0.930
58812W        W30341  29.629  23.976   1.650
58813W        W30342  42.784  29.744   3.722
58814W        W30343  16.633  22.806   0.253
58815W        W30344  43.127  27.632  10.746
58816W        W30345  34.004  28.372  12.504
58817W        W30346  18.442  32.967   1.140
58818W        W30347   0.670  12.770  11.070
58819W        W30348  34.843  43.045   2.795
58820W        W30349  20.565  27.595  10.890
58821W        W30350  13.075  26.594   3.825
58822W        W30351  24.984  14.140   4.945
58823W        W30352  12.777  24.082   1.428
58824W        W30353  34.236  20.088  12.384
58825W        W30354   3.251  27.635  11.019
58826W        W30355  26.611  44.404  10.550
58827W        W30356   2.921   4.976   3.254
58828W        W30357  14.836  24.882  10.776
58829W        W30358  16.962  31.703   4.685
58830W        W30359  24.677  30.924   1.618
58831W        W30360  11.151  30.897  13.273
58832W        W30361   8.802  17.043   0.420
58833W        W30362   5.450  27.551  13.356
58834W        W30363  42.995  18.129  12.283
58835W        W30364  38.406  34.828  14.264
58836W        W30365  29.527  13.411   2.413
58837W        W30366  26.598  35.840  12.370
58838W        W30367  31.060   1.006  10.613
58839W        W30368  29.993   2.704  11.844
58840W        W30369  14.593  21.808  11.198
58841W        W30370  23.920  27.410   0.322
58842W        W30371  22.395  25.190  13.879
58843W        W30372  23.578  22.851  12.477
58844W        W30373   2.011  29.121  12.872
58845W        W30374  36.849  18.554  13.840
58846W        W30375  14.643  34.859  12.413
58847W        W30376  23.709  11.801   3.824
58848W        W30377  20.241  43.511   4.541
58849W        W30378   1.397  36.100  14.961
58850W        W30379  43.279  14.360   2.781
58851W        W30380  33.708  21.267   1.418
58852W        W30381   3.407  27.463   4.088
58853W        W30382  20.796   0.067   0.876
58854W        W30383  10.977  42.181   3.262
58855W        W30384  40.516   4.183  12.004
58856W        W30385   7.950  18.104   3.563
58857W        W30386  24.662  26.512   3.626
58858W        W30387  17.759  18.071   1.828
58859W        W30388  11.666   4.189   0.354
58860W        W30389  13.207   7.790   1.589
58861W        W30390  38.148  35.736  11.092
58862W        W30391  17.184  31.150  13.497
58863W        W30392   7.421   7.709  10.832
58864W        W30393  38.309  43.267  14.479
58865W        W30394  17.080  35.948   2.996
58866W        W30395   5.837   6.702  14.061
58867W        W30396  34.614   2.304   4.123
58868W        W30397  33.653  17.804   3.675
58869W        W30398  25.543   0.001   0.372
58870W        W30399   7.839   6.337   3.663
58871W        W30400   2.796  13.313  11.483
58872W        W30401  32.045  24.990  11.857
58873W        W30402  30.462  40.058  14.379
58874W        W30403  38.179   8.846   4.236
58875W        W30404   2.830  32.625  12.381
58876W        W30405  28.059  29.044   1.387
58877W        W30406  11.237  26.272   4.408
58878W        W30407  34.339  32.453   2.979
58879W        W30408   9.402  43.927  14.842
58880W        W30409  31.817   2.999   3.222
58881W        W30410  27.046  34.969  12.104
58882W        W30411  40.487  44.076   1.218
58883W        W30412   2.638  23.740   2.018
58884W        W30413  13.690  39.827   2.693
58885W        W30414   2.833   7.095   4.155
58886W        W30415   0.303  25.099  13.749
58887W        W30416  34.841  12.607   1.639
58888W        W30417  24.554   9.119  12.095
58889W        W30418  17.818  32.445   2.315
58890W        W30419  35.132  27.458   1.011
58891W        W30420  27.378  36.629   3.638
58892W        W30421  26.215  39.979   2.440
58893W        W30422  31.828   5.281  11.468
58894W        W30423  15.410   2.225  10.692
58895W        W30424   9.043  30.632  14.395
58896W        W30425  18.138   5.768   0.773
58897W        W30426  11.805  11.747  10.819
58898W        W30427  20.848   2.383   1.464
58899W        W30428  34.277   4.820   0.419
58900W        W30429  13.940  26.639  12.955
58901W        W30430  39.443  40.890   4.636
58902W        W30431  22.954  36.979   3.812
58903W        W30432  20.258  32.003  12.935
58904W        W30433   5.382  44.901   4.599
58905W        W30434  20.277  21.170   4.175
58906W        W30435  24.582  20.804  10.731
58907W        W30436  13.111  26.300  12.415
58908W        W30437  13.000  12.083  12.992
58909W        W30438  22.536  26.416   4.162
58910W        W30439  36.003  42.345   4.266
58911W        W30440   7.616  10.693   2.769
58912W        W30441  42.307   8.286  12.384
58913W        W30442  12.087   9.913  13.092
58914W        W30443  15.487  39.438  13.901
58915W        W30444  15.806   0.165   1.786
58916W        W30445  18.551  26.983   2.280
58917W        W30446  29.932  11.392   0.221
58918W        W30447   9.950  35.177  11.063
58919W        W30448  43.762  34.331   5.438
58920W        W30449  18.969  40.012   3.163
58921W        W30450  27.850  44.533  11.970
58922W        W30451   9.568  27.494  14.961
58923W        W30452   0.478  24.041  12.885
58924W        W30453   4.659   0.764   2.439
58925W        W30454  41.751  30.789  13.436
58926W        W30455  23.758  25.709  13.001
58927W        W30456  24.215  31.942   2.726
58928W        W30457  21.408  40.988  10.361
58929W        W30458   2.794  17.640  13.897
58930W        W30459  31.211  31.694  12.476
58931W        W30460  14.422  30.574  14.942
58932W        W30461  35.522  37.097   1.662
58933W        W30462  10.624  32.242  11.564
58934W        W30463  29.167  11.753   0.036
58935W        W30464  41.962  21.536   4.813
58936W        W30465  12.661  41.501   3.730
58937W        W30466  21.713  20.188   0.866
58938W        W30467  17.218  43.318   4.672
58939W        W30468  40.026  16.287   3.306
58940W        W30469   9.733   3.685   2.179
58941W        W30470  36.336   7.812  12.108
58942W        W30471  12.925  16.836   2.306
58943W        W30472  24.055  25.094   4.600
58944W        W30473   0.047  38.583  11.532
58945W        W30474  40.448  38.626   1.842
58946W        W30475   1.977  37.442   3.825
58947W        W30476  18.872  36.771   4.616
58948W        W30477  41.067   0.250  11.825
58949W        W30478  27.047   6.473  14.435
58950W        W30479  31.405   3.641  11.532
58951W        W30480  20.528  22.564  14.235
58952W        W30481   9.371  43.384  12.382
58953W        W30482   6.464  35.895  10.797
58954W        W30483  38.103  40.469  14.312
58955W        W30484  42.226  26.263  12.993
58956W        W30485  15.818  13.802  12.708
58957W        W30486  29.430  40.773  11.184
58958W        W30487  26.978  39.815   1.344
58959W        W30488   5.642  36.202   2.818
58960W        W30489  30.385   7.308  14.180
58961W        W30490  10.350  34.891   4.687
58962W        W30491   2.027  44.010   4.290
58963W        W30492  27.997   9.222   1.439
58964W        W30493   1.865  16.813  11.076
58965W        W30494  20.488   4.005  12.666
58966W        W30495  39.915   5.272   4.802
58967W        W30496  44.778  25.642   1.215
58968W        W30497  25.266   3.397   4.129
58969W        W30498  19.616  20.534   3.249
58970W        W30499  37.201  15.114   2.527
58971W        W30500  27.244  36.873  11.063
58972W        W30501   7.835  35.321  13.971
58973W        W30502  31.506  21.412   1.427
58974W        W30503   4.803  15.555   2.798
58975W        W30504  27.175   9.668  13.065
58976W        W30505  37.026  34.890  10.978
58977W        W30506  18.696  39.769   0.337
58978W        W30507  28.441  42.095  14.556
58979W        W30508   7.765  14.900   2.362
58980W        W30509   4.176  36.094  14.751
58981W        W30510  42.067   2.669   4.931
58982W        W30511  33.122  40.385   2.361
58983W        W30512   2.644   3.271   2.263
58984W        W30513  11.918   3.356  14.073
58985W        W30514  29.241  21.530  12.586
58986W        W30515  14.078  40.746   0.253
58987W        W30516   8.476  15.418   4.556
58988W        W30517  17.023  21.349   3.659
58989W        W30518  17.981   9.762   1.652
58990W        W30519  40.370  41.259   2.674
58991W        W30520  37.980   6.726   4.098
58992W        W30521  29.135  25.321   1.620
58993W        W30522   9.766  30.616  13.037
58994W        W30523  13.146  35.678   2.736
58995W        W30524  17.670  19.757  13.838
58996W        W30525  42.396  31.193  12.982
58997W        W30526  35.556  20.336  12.564
58998W        W30527  26.137  15.118   3.899
58999W        W30528  34.628  43.784  11.226
59000W        W30529  17.560  24.538   1.509
59001W        W30530  23.907  11.911   5.074
59002W        W30531   1.849  31.780  13.800
59003W        W30532  32.150  24.283   0.031
59004W        W30533  15.087  10.810  11.589
59005W        W30534  42.309  15.286   3.105
59006W        W30535  33.207   6.340   0.939
59007W        W30536  34.954  22.157  12.368
59008W        W30537   1.804  40.781  12.629
59009W        W30538   0.384  10.159   2.171
59010W        W30539   5.431  40.523   4.313
59011W        W30540  27.668  30.682   4.872
59012W        W30541  22.587  39.943  12.043
59013W        W30542   9.624  29.035  10.988
59014W        W30543  32.572  18.185  13.132
59015W        W30544  21.484  39.144  12.021
59016W        W30545  22.225  21.245  14.678
59017W        W30546  36.495   9.878  13.946
59018W        W30547  29.373  29.963  14.929
59019W        W30548   5.426  40.348   0.015
59020W        W30549   0.392   0.769   4.650
59021W        W30550  17.148  39.123  13.951
59022W        W30551   4.829  43.286   2.567
59023W        W30552  23.826  44.919   3.797
59024W        W30553  35.888  29.721  14.634
59025W        W30554  34.095  23.069   4.558
59026W        W30555  42.929  33.513   1.500
59027W        W30556  39.412  16.257   4.616
59028W        W30557  38.170  41.864   0.364
59029W        W30558  32.873  34.047   0.209
59030W        W30559   9.179   7.273   1.264
59031W        W30560  44.861  43.523  11.032
59032W        W30561  34.934  20.991  12.231
59033W        W30562  35.809  18.710   3.125
59034W        W30563  44.461  29.092  11.489
59035W        W30564   4.077   4.390  14.916
59036W        W30565  13.898  20.232   0.856
59037W        W30566  31.707  42.729   9.907
59038W        W30567  38.153   6.910  14.973
59039W        W30568  39.909  23.036   3.634
59040W        W30569  39.261  25.413   1.735
59041W        W30570  22.753   1.974   0.424
59042W        W30571   5.433  11.343   2.429
59043W        W30572  41.969  26.459   1.693
59044W        W30573  35.307  15.902  13.911
59045W        W30574   2.464  29.981  14.818
59046W        W30575  31.190  25.568  13.947
59047W        W30576  24.574  35.614  13.486
59048W        W30577   1.874  16.858  14.756
59049W        W30578   4.235  24.941  13.498
59050W        W30579  25.629  36.473   3.265
59051W        W30580  19.841  36.503   0.437
59052W        W30581  41.114  11.586  12.047
59053W        W30582  11.108  30.939   4.496
59054W        W30583  40.095  34.863   3.669
59055W        W30584  21.250  17.851   0.388
59056W        W30585  22.219  38.368   3.144
59057W        W30586  29.030  21.075   1.312
59058W        W30587   7.739  11.443  11.248
59059W        W30588   4.208  39.401  12.434
59060W        W30589  28.712  31.586   3.746
59061W        W30590  15.783  22.075   2.326
59062W        W30591  16.077  33.170  14.710
59063W        W30592  18.820  16.914  12.689
59064W        W30593  12.589   3.745  14.999
59065W        W30594   8.918  39.409  14.549
59066W        W30595  17.757  37.642  11.236
59067W        W30596  40.471  13.796   0.674
59068W        W30597  13.618  38.307   2.514
59069W        W30598  39.915  11.302   2.362
59070W        W30599  32.231  25.011   3.626
59071W        W30600  36.182   7.784   3.394
59072W        W30601  17.805  20.718  11.174
59073W        W30602  22.920   5.974   2.644
59074W        W30603   5.220  24.249  10.688
59075W        W30604  37.728  40.487  12.109
59076W        W30605  17.970  31.937   1.366
59077W        W30606  25.684   4.366  12.045
59078W        W30607  33.899   8.850   1.160
59079W        W30608  10.942  15.291  10.602
59080W        W30609   2.398  40.087   0.453
59081W        W30610  23.470  43.096  12.083
59082W        W30611  33.102  40.290  14.059
59083W        W30612  42.042   8.236   3.684
59084W        W30613  39.412  16.806   2.744
59085W        W30614  26.189  25.059  12.251
59086W        W30615  43.920  38.236  14.313
59087W        W30616  42.736  22.568   4.097
59088W        W30617  30.705  22.439   3.644
59089W        W30618   5.810  44.954  12.444
59090W        W30619  28.115  15.385  14.482
59091W        W30620  24.901   3.235   1.380
59092W        W30621   6.725  27.953  10.829
59093W        W30622   9.008   7.689   3.878
59094W        W30623  43.476  13.908  14.614
59095W        W30624  44.593  44.406   5.062
59096W        W30625  43.871   6.600  12.027
59097W        W30626   7.680   8.747  10.836
59098W        W30627   4.326  40.668  12.069
59099W        W30628  27.192  27.536   2.786
59100W        W30629  34.560   6.818   2.751
59101W        W30630   3.279  35.324   2.228
59102W        W30631   7.740  34.469   1.727
59103W        W30632  13.624   5.784  12.045
59104W        W30633  40.990   4.470   4.678
59105W        W30634  44.295  40.869  12.427
59106W        W30635  18.212  29.176  12.577
59107W        W30636  32.555  11.943  14.572
59108W        W30637  38.712  41.409   1.638
59109W        W30638  25.047  23.694   0.899
59110W        W30639   2.491  11.353  14.828
59111W        W30640  31.044  25.553  12.467
59112W        W30641  14.349  38.648   1.465
59113W        W30642  41.111  15.113  12.058
59114W        W30643   4.712  35.614  12.920
59115W        W30644  39.013  42.766  11.103
59116W        W30645  20.513  34.695  13.811
59117W        W30646  25.764  11.749  12.872
59118W        W30647  22.854  16.060  10.698
59119W        W30648  35.092  11.885   0.868
59120W        W30649  28.642  35.616   0.476
59121W        W30650  39.514  30.032   2.602
59122W        W30651  37.262  35.882  13.564
59123W        W30652   9.833  21.834  11.713
59124W        W30653  24.702  22.298  10.460
59125W        W30654  37.965  42.576   1.192
59126W        W30655  42.014  27.991  12.085
59127W        W30656  29.076  11.435  10.672
59128W        W30657  20.538   2.654  11.130
59129W        W30658  13.903   1.657   0.462
59130W        W30659  11.008  23.238   3.250
59131W        W30660  36.613  43.403   0.093
59132W        W30661  33.045  37.881  11.642
59133W        W30662  32.430   2.776  10.868
59134W        W30663  11.015  19.544   3.264
59135W        W30664  16.052   7.484  12.791
59136W        W30665  31.975  23.664   1.376
59137W        W30666   9.975  28.957  13.788
59138W        W30667  35.376  44.717   3.738
59139W        W30668  21.987  40.095  10.256
59140W        W30669  36.349   1.568  14.021
59141W        W30670   8.375  11.089   0.100
59142W        W30671   3.510  34.417   2.684
59143W        W30672  23.470  12.393  13.034
59144W        W30673  23.413  28.924  14.443
59145W        W30674  27.277  29.692   0.972
59146W        W30675  35.399  13.392   4.163
59147W        W30676   8.347  31.378   1.376
59148W        W30677  36.291  42.245   0.940
59149W        W30678   3.049  25.664   4.894
59150W        W30679  12.661  36.457   3.088
59151W        W30680  27.332  10.272   1.932
59152W        W30681   9.327  24.507  13.995
59153W        W30682  39.382  31.153  14.336
59154W        W30683   8.285  21.639  11.641
59155W        W30684  36.829   0.999   2.745
59156W        W30685  38.932  18.316   3.307
59157W        W30686  42.282  29.640   3.762
59158W        W30687  33.967  37.317  14.968
59159W        W30688  25.407  35.643  12.114
59160W        W30689  25.593  11.255  13.892
59161W        W30690  36.041  26.223   3.372
59162W        W30691   1.683  20.631  12.928
59163W        W30692  34.166  26.533  12.844
59164W        W30693   4.362  11.835   4.141
59165W        W30694  23.017  29.441  12.448
59166W        W30695  22.549  25.113  13.046
59167W        W30696  10.564  12.447   3.675
59168W        W30697  38.943  22.181   2.687
59169W        W30698  40.545  11.947   1.661
59170W        W30699  33.265   3.818   0.409
59171W        W30700  31.646  28.061  12.409
59172W        W30701  26.422  38.721  12.496
59173W        W30702   4.009  12.058   0.103
59174W        W30703  37.537  30.033  14.608
59175W        W30704  23.452  30.915   1.752
59176W        W30705  10.556  19.725  11.621
59177W        W30706  40.355   5.736   3.119
59178W        W30707  41.276  28.509  14.884
59179W        W30708  40.519  35.917  13.083
59180W        W30709  38.516  19.057   3.697
59181W        W30710   1.698   5.570  10.920
59182W        W30711  15.191  13.379  11.003
59183W        W30712  18.127  43.778  10.687
59184W        W30713  29.581  12.288  10.508
59185W        W30714  21.550   2.078  12.901
59186W        W30715  16.051  11.283  10.661
59187W        W30716  12.495  21.650  11.913
59188W        W30717   0.917  25.382  14.970
59189W        W30718  28.035   2.165  14.467
59190W        W30719   7.153  10.271   4.396
59191W        W30720   0.444   2.668  12.303
59192W        W30721  18.977  24.490   0.822
59193W        W30722  24.903  38.821   0.215
59194W        W30723   8.246  24.959   2.346
59195W        W30724  19.772  37.132   3.253
59196W        W30725  31.994  38.309   1.021
59197W        W30726   5.255  40.550  14.550
59198W        W30727   9.300   9.341   4.082
59199W        W30728  10.994  32.375  14.830
59200W        W30729  14.589  39.433  10.385
59201W        W30730  36.928  11.594   0.907
59202W        W30731   6.437  12.710  14.888
59203W        W30732  32.433  34.657   4.144
59204W        W30733   6.374   3.183   2.287
59205W        W30734  12.204  28.629  12.410
59206W        W30735  28.102   6.754   0.404
59207W        W30736  16.577   5.916  12.334
59208W        W30737   5.218  13.950  14.383
59209W        W30738  29.654  28.214  11.628
59210W        W30739   8.378  28.187   3.138
59211W        W30740  21.964   2.286  14.244
59212W        W30741  39.468  20.322  12.162
59213W        W30742   6.439  11.131   4.428
59214W        W30743  21.685  38.783   4.257
59215W        W30744  12.836  10.181  11.572
59216W        W30745  35.331  37.504  14.931
59217W        W30746  38.081  37.371  12.013
59218W        W30747  24.751  39.456  11.500
59219W        W30748  35.036  17.336  14.223
59220W        W30749  21.398  25.715   1.843
59221W        W30750  41.319  12.666   2.944
59222W        W30751  25.667  10.385   3.985
59223W        W30752  19.910   2.089   0.851
59224W        W30753  44.297  38.322   4.773
59225W        W30754  37.109  36.121   1.252
59226W        W30755  43.042  43.433  10.938
59227W        W30756  28.053  31.127  11.998
59228W        W30757  10.253  27.870  11.925
59229W        W30758  32.644  32.663   2.858
59230W        W30759  37.869   3.174   0.572
59231W        W30760  37.083  14.343  12.622
59232W        W30761  23.607  32.263  10.960
59233W        W30762  25.157   2.457   3.073
59234W        W30763   7.436  43.428  14.577
59235W        W30764  18.028  42.940  13.098
59236W        W30765  32.561  14.180   2.694
59237W        W30766  10.963  23.914   1.851
59238W        W30767  32.053   9.344   3.377
59239W        W30768  34.209  35.812  14.636
59240W        W30769  22.514   7.393  11.275
59241W        W30770  29.880  37.934   1.250
59242W        W30771  17.550  31.356  14.889
59243W        W30772  44.913  42.132  10.792
59244W        W30773  26.484  23.772   4.374
59245W        W30774   2.950   1.904   3.312
59246W        W30775   2.399  11.624  10.630
59247W        W30776   7.132  21.527  10.696
59248W        W30777   1.093  37.815   4.124
59249W        W30778  28.158  28.210  10.678
59250W        W30779  28.759  19.247  13.353
59251W        W30780  17.025  26.617  11.538
59252W        W30781   8.186  14.197   0.272
59253W        W30782   8.712  43.854   1.201
59254W        W30783   7.130  37.399   4.903
59255W        W30784  39.739  35.370   1.488
59256W        W30785   6.568  10.665  11.251
59257W        W30786  29.588   5.336   4.135
59258W        W30787  38.392   8.942   0.707
59259W        W30788  18.558  43.902   1.363
59260W        W30789   3.385  35.474  11.844
59261W        W30790  41.913  20.819   0.877
59262W        W30791  23.068   3.308  10.702
59263W        W30792  28.963  28.956   1.932
59264W        W30793  20.590  28.974  13.486
59265W        W30794  14.163  37.874  11.187
59266W        W30795  28.726  38.360  14.821
59267W        W30796   3.463  35.917   3.247
59268W        W30797  35.951  25.747  12.067
59269W        W30798  43.444  11.220   2.741
59270W        W30799  42.559   8.617   0.435
59271W        W30800  11.586  19.119  12.053
59272W        W30801  26.715  34.176  12.553
59273W        W30802  35.072   5.798  11.995
59274W        W30803  43.718  25.494   4.358
59275W        W30804  35.008  36.457   0.293
59276W        W30805  33.098  42.495   3.658
59277W        W30806   9.651  10.189  11.957
59278W        W30807   4.541  17.606   0.231
59279W        W30808  39.434   6.160  11.389
59280W        W30809  24.016   4.530  12.477
59281W        W30810  23.666   4.455   4.613
59282W        W30811  27.624  10.450   3.684
59283W        W30812  32.361  38.949   4.323
59284W        W30813   1.056   2.913   3.599
59285W        W30814  12.051  11.139  12.805
59286W        W30815  32.939  26.479   0.436
59287W        W30816  11.740  14.691  10.687
59288W        W30817   7.834  38.740   4.314
59289W        W30818  26.159   6.791  13.881
59290W        W30819  21.217   6.823   2.852
59291W        W30820  28.341   5.234  13.026
59292W        W30821  15.174  23.880   2.717
59293W        W30822   8.324  34.021   4.629
59294W        W30823  44.097  42.006   1.925
59295W        W30824  44.498  26.844   5.111
59296W        W30825  17.583  43.065  13.300
59297W        W30826  28.519  25.186  13.431
59298W        W30827   7.765  36.021  14.505
59299W        W30828  41.009  11.834  10.776
59300W        W30829  41.362  38.800   2.596
59301W        W30830  17.144  22.741   1.409
59302W        W30831  30.444  29.807  12.022
59303W        W30832   1.739  44.327   1.566
59304W        W30833  32.878   8.857   0.819
59305W        W30834  38.477  17.270  12.097
59306W        W30835  44.435  41.492  11.602
59307W        W30836  44.200  16.169  11.624
59308W        W30837  33.061  44.485  12.824
59309W        W30838  25.037  22.423   0.776
59310W        W30839  29.388   1.565   1.668
59311W        W30840  42.969  32.628  10.547
59312W        W30841  16.444  40.068  14.376
59313W        W30842   4.414  32.496  11.063
59314W        W30843   2.488  40.096   3.588
59315W        W30844   6.916  37.919  11.885
59316W        W30845  23.191  10.458   4.651
59317W        W30846  14.146  23.739   0.469
59318W        W30847  34.367  20.630   0.018
59319W        W30848   4.953  12.940  11.062
59320W        W30849   5.541  40.643  11.149
59321W        W30850   1.879  26.009  14.582
59322W        W30851  25.728   2.325   1.395
59323W        W30852  23.978  24.573   3.411
59324W        W30853  34.059   2.997   3.629
59325W        W30854  39.042  10.526   5.022
59326W        W30855   5.566  17.122   2.740
59327W        W30856  17.764   3.909   1.267
59328W        W30857   8.955  38.877   2.828
59329W        W30858  35.173  11.790   5.405
59330W        W30859  22.719  13.425   1.904
59331W        W30860  26.380  41.884  12.951
59332W        W30861  34.434  34.542  14.624
59333W        W30862  20.102  41.975  13.324
59334W        W30863  11.855   2.186   1.845
59335W        W30864   6.444  33.496  14.815
59336W        W30865  35.425   6.026  13.126
59337W        W30866  43.446  16.756  11.065
59338W        W30867  15.652  25.954   1.373
59339W        W30868  40.632  22.724   1.659
59340W        W30869   2.475  37.247   0.260
59341W        W30870  13.804   0.180  10.475
59342W        W30871  17.824  31.425  12.005
59343W        W30872  17.762  14.223  12.067
59344W        W30873  28.398  24.390  13.802
59345W        W30874   4.586  32.905  14.871
59346W        W30875  15.918  37.538  14.349
59347W        W30876  42.297  25.585  13.434
59348W        W30877  27.904  38.844  13.897
59349W        W30878   5.994  34.134   4.626
59350W        W30879  27.261  25.260   1.638
59351W        W30880   9.769   5.351   4.639
59352W        W30881  34.542  31.774  10.814
59353W        W30882  35.009  13.176   4.519
59354W        W30883  21.060  11.861  11.442
59355W        W30884   3.383   5.535   3.605
59356W        W30885  15.673  27.593   4.224
59357W        W30886  43.021  41.765  14.372
59358W        W30887  11.796  34.865   3.624
59359W        W30888  37.098  25.631  14.945
59360W        W30889  32.109  21.432  10.684
59361W        W30890  12.183  39.097  11.874
59362W        W30891  12.027  40.765  13.814
59363W        W30892  29.121  27.724   4.690
59364W        W30893   6.203  10.796   1.373
59365W        W30894  42.435  30.908   1.972
59366W        W30895  43.721  33.365   4.468
59367W        W30896  25.556  37.194  12.917
59368W        W30897   0.335  18.116  12.342
59369W        W30898  43.337  21.889   4.178
59370W        W30899  24.328  36.656   4.804
59371W        W30900  34.158  22.152   4.725
59372W        W30901  36.922   3.476   1.683
59373W        W30902  31.518  21.173  11.533
59374W        W30903  35.968  19.201  12.937
59375W        W30904  34.441   3.261  12.766
59376W        W30905  36.942  39.444   1.753
59377W        W30906  27.609   5.589   1.163
59378W        W30907  44.345  33.508  13.927
59379W        W30908  41.842  38.903  11.239
59380W        W30909  23.260  14.825  14.353
59381W        W30910   3.882   8.502   2.248
59382W        W30911  10.852  30.779   1.483
59383W        W30912  37.359   7.776   2.131
59384W        W30913   9.632   5.355  12.893
59385W        W30914  38.566   4.245   4.884
59386W        W30915  43.882  32.900  14.945
59387W        W30916  14.009   0.737   1.807
59388W        W30917   7.076  19.126  14.080
59389W        W30918  22.112  16.056  13.379
59390W        W30919  34.448  28.436  11.945
59391W        W30920  12.665  36.396   3.595
59392W        W30921  43.936  40.360  14.441
59393W        W30922  21.118  37.831  14.431
59394W        W30923  17.458  10.339  11.081
59395W        W30924  43.122  20.080   0.437
59396W        W30925  25.701  20.556  14.426
59397W        W30926   9.747   7.634   1.670
59398W        W30927  20.236   9.898   3.685
59399W        W30928  22.420   7.517   0.463
59400W        W30929  30.163  44.438   1.826
59401W        W30930  26.490  34.511   3.549
59402W        W30931  24.507   6.326  11.065
59403W        W30932  39.059  30.021   3.519
59404W        W30933  13.151  18.096   0.526
59405W        W30934  43.847  38.026  12.973
59406W        W30935  38.762   2.914  12.564
59407W        W30936  30.536  29.507   0.295
59408W        W30937   1.796   2.734  13.459
59409W        W30938   3.477   9.146  13.332
59410W        W30939  25.421  18.298  13.847
59411W        W30940  18.748   2.284   3.295
59412W        W30941  37.097  13.394   4.242
59413W        W30942   2.391   6.688  11.382
59414W        W30943  12.383  35.639   4.703
59415W        W30944  31.651  26.254   1.835
59416W        W30945   9.456  15.149   3.185
59417W        W30946  17.932  20.620   2.941
59418W        W30947  42.575  33.678  12.878
59419W        W30948   6.251  44.880  13.036
59420W        W30949  20.098  18.706   3.315
59421W        W30950  17.947  13.787   3.672
59422W        W30951  14.606  16.884   2.360
59423W        W30952   6.286  34.486  13.523
59424W        W30953   3.796  31.090   0.618
59425W        W30954  30.860  33.010  12.968
59426W        W30955  11.463  15.333   0.904
59427W        W30956   5.743  29.566   4.388
59428W        W30957  42.381  17.883   0.215
59429W        W30958  20.075  26.541  12.184
59430W        W30959  41.475   7.274   2.843
59431W        W30960  19.291  36.563   4.994
59432W        W30961  30.704  15.951   5.402
59433W        W30962  35.071  10.793   3.842
59434W        W30963  16.728  14.515   1.999
59435W        W30964  37.320  32.467   0.344
59436W        W30965  20.062  44.717  11.271
59437W        W30966  34.030  41.673  12.828
59438W        W30967  27.961  32.959  13.843
59439W        W30968  34.638  29.189   4.481
59440W        W30969  17.590   6.354   5.023
59441W        W30970  31.926  30.433  14.903
59442W        W30971  26.981   4.399  10.559
59443W        W30972  40.512  26.629  12.415
59444W        W30973  13.105  44.418  14.491
59445W        W30974  12.527  26.149   3.292
59446W        W30975  17.604  32.397   3.864
59447W        W30976   8.057  43.053   0.910
59448W        W30977  15.213  28.905   4.698
59449W        W30978  36.912   8.187  12.226
59450W        W30979  25.230   3.795  12.734
59451W        W30980  23.083  12.160  11.039
59452W        W30981  38.573   0.357  12.846
59453W        W30982   8.909  36.028  11.164
59454W        W30983  43.323   0.857  14.991
59455W        W30984  12.822   2.248  14.020
59456W        W30985   0.963  35.626  14.370
59457W        W30986  30.554   1.505  13.806
59458W        W30987  35.881  39.444   0.255
59459W        W30988  35.342  29.664  10.669
59460W        W30989  16.533  10.690   3.158
59461W        W30990  29.577  42.772  13.480
59462W        W30991   8.896  18.718   1.653
59463W        W30992  42.504  40.629   2.304
59464W        W30993  31.459  13.159   2.345
59465W        W30994   2.030   2.883  13.899
59466W        W30995   6.578   5.754   2.798
59467W        W30996  14.132  30.602   4.104
59468W        W30997   3.924   0.324  11.904
59469W        W30998  16.108  17.885  12.072
59470W        W30999  30.624   0.774   3.239
59471W        W31000   4.256  14.808  13.288
59472W        W31001   2.304  41.262  14.294
59473W        W31002  36.146   2.033  14.498
59474W        W31003  23.278  42.845   4.523
59475W        W31004  18.353  28.068  10.217
59476W        W31005  21.602  14.250  13.422
59477W        W31006  37.204  12.077   3.724
59478W        W31007  35.814  38.775   1.998
59479W        W31008  34.446  15.294   4.502
59480W        W31009   7.335  21.659  13.552
59481W        W31010  25.418  17.510   0.771
59482W        W31011  13.597  40.504   1.958
59483W        W31012  10.464  28.526  11.179
59484W        W31013   6.700  29.825  12.353
59485W        W31014  44.214   7.259   1.092
59486W        W31015   2.288  26.399  12.112
59487W        W31016  25.658  17.097   1.939
59488W        W31017   8.391   8.652   4.585
59489W        W31018  23.166  37.121   1.819
59490W        W31019  30.109   9.560  13.001
59491W        W31020  29.121  26.648  11.328
59492W        W31021  36.618  36.119   0.530
59493W        W31022   6.865  16.628  10.575
59494W        W31023  27.146  24.662  13.106
59495W        W31024  30.873  18.288  13.449
59496W        W31025   2.975  10.154   2.347
59497W        W31026  41.068  19.197   5.051
59498W        W31027  23.767  19.703  14.315
59499W        W31028  32.164  10.619  13.374
59500W        W31029  41.217  36.164   3.338
59501W        W31030  17.193  17.228   1.171
59502W        W31031  37.792  26.011   1.912
59503W        W31032  18.205  14.053   1.321
59504W        W31033  12.365  11.108   3.598
59505W        W31034  27.731  43.104   0.162
59506W        W31035  34.646   3.326  11.491
59507W        W31036  32.048  17.579   5.108
59508W        W31037  39.535   4.197   3.320
59509W        W31038  23.465   1.910  12.907
59510W        W31039  18.175  10.235   5.223
59511W        W31040  13.139  25.165  13.076
59512W        W31041   0.509   1.330  12.109
59513W        W31042  41.638  11.205   4.056
59514W        W31043  10.084  18.190   0.358
59515W        W31044  27.498  15.775  13.353
59516W        W31045  13.524  43.724   1.651
59517W        W31046  32.230  17.746   3.756
59518W        W31047  24.979   7.980  13.052
59519W        W31048  32.347  39.305  14.923
59520W        W31049   7.555   4.272   0.742
59521W        W31050  17.715  35.121  10.750
59522W        W31051   7.916  15.349  13.500
59523W        W31052  20.841   1.843  14.466
59524W        W31053  43.379  23.171   2.293
59525W        W31054  36.432  35.405   2.336
59526W        W31055  32.278   6.277   4.018
59527W        W31056  27.511  12.813  11.046
59528W        W31057  24.935  39.211   3.300
59529W        W31058  21.771  25.100   1.390
59530W        W31059   4.946  27.065   0.520
59531W        W31060  20.913  10.281   4.521
59532W        W31061  41.666  21.785  12.978
59533W        W31062   9.653   1.526  13.570
59534W        W31063  38.904  30.947  14.451
59535W        W31064  40.764  15.813  14.763
59536W        W31065   0.828  18.718   4.744
59537W        W31066  44.956  21.717  10.382
59538W        W31067   3.385  20.344  13.382
59539W        W31068  38.309  41.102   2.748
59540W        W31069  37.134  35.867   4.026
59541W        W31070  39.783  29.189  11.923
59542W        W31071  15.019   0.783   1.902
59543W        W31072  14.810  40.062  11.581
59544W        W31073  10.648   3.825   2.266
59545W        W31074  13.112  13.138  13.047
59546W        W31075  40.501  24.801   2.410
59547W        W31076  11.060  32.908  13.993
59548W        W31077  17.206  43.081   0.365
59549W        W31078  15.369  36.525   4.991
59550W        W31079   5.720   2.518  13.231
59551W        W31080  19.501   1.902  14.103
59552W        W31081   6.945  20.535  12.504
59553W        W31082  21.486  41.903  13.762
59554W        W31083   4.904  33.984   0.797
59555W        W31084   0.218  42.825  14.441
59556W        W31085   1.404  35.826   0.966
59557W        W31086  10.707  38.824   2.734
59558W        W31087  15.241   6.423  12.662
59559W        W31088  27.542  21.088   0.493
59560W        W31089  24.440  13.832  13.033
59561W        W31090  23.033  29.346   0.900
59562W        W31091  26.611   9.446   3.704
59563W        W31092  15.574   9.850   2.788
59564W        W31093  39.788  37.840   0.553
59565W        W31094  39.775  10.029  14.311
59566W        W31095   0.510  25.034  14.235
59567W        W31096   7.902  38.442  13.359
59568W        W31097  17.102  30.550  11.241
59569W        W31098   0.822  28.096   3.158
59570W        W31099   4.672  13.717   4.398
59571W        W31100   2.464  34.386  12.437
59572W        W31101  13.682  34.997   4.049
59573W        W31102  36.660  43.034   2.102
59574W        W31103   9.814  31.817   3.209
59575W        W31104  19.589  10.688   1.618
59576W        W31105  33.286   1.745  12.790
59577W        W31106  41.603  37.849  14.395
59578W        W31107  10.239   0.214  11.521
59579W        W31108  24.830  44.739   3.645
59580W        W31109  10.062  14.997  11.148
59581W        W31110  27.546  19.594  12.945
59582W        W31111  26.458  16.759   3.639
59583W        W31112  34.360  21.191  13.634
59584W        W31113  42.964  40.125   3.912
59585W        W31114  18.091  37.358   4.176
59586W        W31115  36.990  35.602   3.585
59587W        W31116   0.542  24.231  10.274
59588W        W31117   2.722  12.322  13.863
59589W        W31118   1.744   9.845   2.802
59590W        W31119   3.469  41.652  14.928
59591W        W31120  15.488   4.319  11.111
59592W        W31121  29.002   1.873   2.943
59593W        W31122   3.331  41.230   0.451
59594W        W31123  44.756   3.003  12.658
59595W        W31124  28.466  12.631  14.072
59596W        W31125  20.279  25.243   1.296
59597W        W31126  34.876  29.447  13.802
59598W        W31127  29.224   6.617  14.673
59599W        W31128  44.259   2.967  11.966
59600W        W31129  34.069  29.899   0.808
59601W        W31130  18.305  16.537  12.892
59602W        W31131  26.626  28.033   2.853
59603W        W31132  25.456  26.044  12.006
59604W        W31133  18.273   3.752   0.244
59605W        W31134  40.080   5.108  13.493
59606W        W31135  12.689  23.826  14.813
59607W        W31136  32.356  34.135   4.818
59608W        W31137   5.785  36.149  12.563
59609W        W31138   4.889  18.534  11.140
59610W        W31139  11.197  38.902  13.102
59611W        W31140   7.134  26.467  14.801
59612W        W31141   0.360  35.955   3.718
59613W        W31142  38.934  30.086   4.026
59614W        W31143  37.171  32.628  13.420
59615W        W31144  31.253  18.840   3.124
59616W        W31145  22.492  41.892   1.270
59617W        W31146  29.895   7.477   3.782
59618W        W31147   2.823  12.432   3.185
59619W        W31148  37.480  30.634  12.677
59620W        W31149   0.098  13.779   1.321
59621W        W31150  23.573  41.629  10.675
59622W        W31151  10.631   7.683   1.909
59623W        W31152  14.170  21.677   0.850
59624W        W31153  18.803  37.899  12.075
59625W        W31154  24.473  39.061  10.199
59626W        W31155  29.042  43.118  12.406
59627W        W31156  18.348  40.837   0.263
59628W        W31157  12.388   2.344   0.551
59629W        W31158  21.199  41.017  11.702
59630W        W31159  41.967  32.564  11.925
59631W        W31160   2.743  11.234   0.498
59632W        W31161  28.904  44.926  12.895
59633W        W31162  21.657  22.814   0.168
59634W        W31163   9.815  21.515   4.410
59635W        W31164  30.373   4.631   3.325
59636W        W31165  12.627  38.811   0.393
59637W        W31166   7.493  18.194  11.079
59638W        W31167  18.639  36.571  10.677
59639W        W31168  44.071  14.835   2.653
59640W        W31169  39.895  41.890  12.120
59641W        W31170  30.191  39.877  11.555
59642W        W31171  26.438  37.478   4.394
59643W        W31172  29.225   3.505  13.405
59644W        W31173  12.309  43.922  10.640
59645W        W31174  32.055  22.681   1.251
59646W        W31175   5.847   7.198   1.749
59647W        W31176  30.776  32.710   4.102
59648W        W31177  28.015  23.944   1.761
59649W        W31178  24.598  26.146  14.991
59650W        W31179  21.117  20.721  10.524
59651W        W31180  29.144   3.833  10.918
59652W        W31181  40.783  39.498   1.357
59653W        W31182  39.639  13.798   4.661
59654W        W31183  12.693   3.277   2.715
59655W        W31184  15.408  37.485  10.583
59656W        W31185   2.797  34.215  14.762
59657W        W31186  24.470  32.423   2.682
59658W        W31187  24.008   5.752  10.679
59659W        W31188  26.492  20.484  14.011
59660W        W31189  11.359  35.043  14.825
59661W        W31190  28.541  39.757   0.620
59662W        W31191  43.221  33.004  11.484
59663W        W31192  37.290  34.286  13.029
59664W        W31193  41.336  24.217  11.199
59665W        W31194  19.826  29.664  12.351
59666W        W31195  19.178   4.667   1.800
59667W        W31196  38.127  15.786  14.396
59668W        W31197  37.913  21.351  10.729
59669W        W31198  18.563  38.093   4.070
59670W        W31199  42.286  10.275   4.246
59671W        W31200   4.685   9.244   1.859
59672W        W31201  43.989  15.139  11.101
59673W        W31202  42.516  27.155   2.181
59674W        W31203  34.640   3.489   2.692
59675W        W31204   1.891  31.703  12.957
59676W        W31205  28.561  42.790   1.157
59677W        W31206  26.168  33.659  12.074
59678W        W31207  16.722  34.200   0.320
59679W        W31208  25.926  10.863  14.793
59680W        W31209  36.165  27.239  13.420
59681W        W31210  39.867  34.155   0.348
59682W        W31211  27.565  28.193   1.759
59683W        W31212  44.385  24.707   0.509
59684W        W31213  19.339   6.508   1.722
59685W        W31214  30.643   6.143  12.496
59686W        W31215  20.661   2.754   2.311
59687W        W31216  12.248  20.914   3.212
59688W        W31217  20.766  19.030   2.186
59689W        W31218  28.902   2.302   0.909
59690W        W31219  13.413  14.629  10.543
59691W        W31220  23.626  11.892  13.032
59692W        W31221  10.877  24.266   4.024
59693W        W31222  31.672  29.724   4.891
59694W        W31223  16.080  20.366   3.557
59695W        W31224  13.172  37.733   1.853
59696W        W31225  44.585  26.595   2.206
59697W        W31226   0.341  22.243  13.564
59698W        W31227  37.856  27.957   4.823
59699W        W31228  29.483  26.604   0.912
59700W        W31229  30.113  20.774  10.774
59701W        W31230  22.631  13.729   4.564
59702W        W31231  29.376  44.933   0.797
59703W        W31232  17.464  44.258   3.301
59704W        W31233  30.201   4.589   1.873
59705W        W31234  17.154  30.065   0.883
59706W        W31235   7.575  16.700   1.922
59707W        W31236  33.582   3.870   2.472
59708W        W31237  19.591  42.498   4.303
59709W        W31238  20.134  36.086   0.537
59710W        W31239  43.431  10.047  14.786
59711W        W31240   2.906  25.949  13.718
59712W        W31241  26.600  36.678  14.769
59713W        W31242  23.803  34.877  14.863
59714W        W31243   2.920  14.070   2.188
59715W        W31244  20.564  27.247  14.532
59716W        W31245   9.411   1.460  11.963
59717W        W31246  15.794  25.539  13.351
59718W        W31247   1.823  23.928  14.679
59719W        W31248  41.433   7.064   4.925
59720W        W31249   8.769   3.824  13.328
59721W        W31250   6.264  42.765  12.125
59722W        W31251  33.119  40.929   2.316
59723W        W31252  21.603   0.700   1.186
59724W        W31253  19.058   8.745   3.575
59725W        W31254  32.654  12.168   4.509
59726W        W31255  12.517   2.706   3.584
59727W        W31256  30.493   2.055  12.850
59728W        W31257  15.855   7.166   4.132
59729W        W31258  29.003  20.213   0.235
59730W        W31259  43.320  40.006  14.651
59731W        W31260  10.647  31.264  13.647
59732W        W31261  24.916  24.122  14.318
59733W        W31262  40.561  30.808   4.941
59734W        W31263   5.767  39.104  11.421
59735W        W31264  15.508   7.667  11.523
59736W        W31265  35.991  37.818  11.500
59737W        W31266  31.586  43.571  10.762
59738W        W31267  16.002  28.499   4.515
59739W        W31268   9.178  12.852  14.102
59740W        W31269  41.879  30.393   3.176
59741W        W31270   2.271   3.821  14.858
59742W        W31271   9.660  41.253  13.805
59743W        W31272  36.359  34.010   3.146
59744W        W31273   2.194  30.368  11.521
59745W        W31274  39.479  15.584   4.169
59746W        W31275  19.674   4.629   2.019
59747W        W31276  34.624  24.677   0.507
59748W        W31277   3.470   7.154  14.538
59749W        W31278  36.808  13.611   2.592
59750W        W31279  42.919  11.959   1.229
59751W        W31280  40.428  39.953   3.177
59752W        W31281  17.630  38.101  14.240
59753W        W31282  39.567  27.925   0.434
59754W        W31283  11.628   6.704   3.858
59755W        W31284  42.709  23.182   3.054
59756W        W31285  28.557  33.836  12.505
59757W        W31286  38.862  29.072   2.329
59758W        W31287  40.364  10.445  11.217
59759W        W31288   6.638  27.767   3.810
59760W        W31289  33.659  40.053   4.735
59761W        W31290   1.357   4.094   1.196
59762W        W31291   4.810  33.143  13.365
59763W        W31292  40.834  21.576   3.767
59764W        W31293  11.596  43.488   4.580
59765W        W31294  11.335  10.309  14.813
59766W        W31295   1.780  14.330  13.895
59767W        W31296  40.121  13.856   3.205
59768W        W31297   1.975  37.132  12.898
59769W        W31298  26.503  13.090  11.146
59770W        W31299   9.577  28.043  11.145
59771W        W31300  22.737   4.281  11.140
59772W        W31301  43.682   8.891  13.004
59773W        W31302  20.681   1.197  11.154
59774W        W31303  41.507  44.856   3.887
59775W        W31304  29.913   2.442  14.378
59776W        W31305  12.720   6.829  10.703
59777W        W31306   7.332  36.285   0.530
59778W        W31307  38.620  36.204  13.852
59779W        W31308  37.746  36.616   0.135
59780W        W31309  32.909   1.061   0.842
59781W        W31310   5.279  25.152   4.555
59782W        W31311   9.760   7.264  10.948
59783W        W31312  43.872  41.878  13.566
59784W        W31313   5.632  18.229  14.631
59785W        W31314   5.829   9.745   2.662
59786W        W31315   4.753  36.043   1.875
59787W        W31316  28.657   2.393   2.859
59788W        W31317  43.654  10.906   0.123
59789W        W31318  21.675  19.626   3.569
59790W        W31319  26.526  30.390   3.174
59791W        W31320  15.937  19.124   9.501
59792W        W31321  14.660  19.716   1.295
59793W        W31322  43.883  43.316  10.577
59794W        W31323  33.099  18.138  10.342
59795W        W31324  19.044  36.794  10.916
59796W        W31325  21.579  24.219  13.003
59797W        W31326  25.724  37.992   4.165
59798W        W31327  26.850  23.201   0.280
59799W        W31328  21.267   0.682  10.475
59800W        W31329  29.601   1.391   5.065
59801W        W31330  40.572   0.495   3.116
59802W        W31331  26.060  27.969  14.620
59803W        W31332  14.692  21.934   3.326
59804W        W31333  21.243  25.685   4.979
59805W        W31334  40.957  39.149  12.443
59806W        W31335  10.746  40.808   0.241
59807W        W31336   9.328  15.790   0.412
59808W        W31337  39.252  32.313  11.665
59809W        W31338  23.209   0.992  11.073
59810W        W31339   7.307   7.299  12.506
59811W        W31340  23.760   4.612  12.028
59812W        W31341   7.968  16.484  12.571
59813W        W31342  15.107  42.103  12.050
59814W        W31343  36.340  40.406  10.714
59815W        W31344   3.938  38.860   1.155
59816W        W31345  43.800  31.561   4.205
59817W        W31346   5.466  24.945   3.421
59818W        W31347  41.219  43.826   4.643
59819W        W31348   9.818   7.885  14.333
59820W        W31349  28.956  13.353   0.262
59821W        W31350  30.895  11.604  11.558
59822W        W31351  13.574  32.032   1.945
59823W        W31352  19.236   4.130  13.922
59824W        W31353  41.824  42.143  14.655
59825W        W31354  21.511  15.752  11.481
59826W        W31355  36.946  10.726   3.349
59827W        W31356  42.449  20.795  13.400
59828W        W31357   1.626   2.171  11.473
59829W        W31358   7.644  12.235   1.464
59830W        W31359  17.686   8.238  14.621
59831W        W31360  13.775  43.886   4.599
59832W        W31361   6.935   2.319   4.117
59833W        W31362  32.446  27.669   0.335
59834W        W31363  17.069  29.092   3.280
59835W        W31364  32.041  24.195  14.408
59836W        W31365  40.369  41.080  11.515
59837W        W31366  15.594  12.186  10.672
59838W        W31367  42.995  38.986  11.739
59839W        W31368  32.155  38.454   2.656
59840W        W31369   3.832  20.245   3.452
59841W        W31370  32.420   2.869  11.902
59842W        W31371   7.990  44.319  12.027
59843W        W31372   9.256  33.117  11.354
59844W        W31373  34.020  24.903  10.669
59845W        W31374  26.504  15.305   2.251
59846W        W31375  12.864  41.180  14.501
59847W        W31376  17.876  42.981  11.446
59848W        W31377  28.648  18.343  11.633
59849W        W31378  24.751   3.412   0.816
59850W        W31379  36.115  15.163   0.780
59851W        W31380  24.803   2.821  14.363
59852W        W31381  24.647   0.338  13.574
59853W        W31382  14.798  34.311  13.272
59854W        W31383  27.635  39.002  11.583
59855W        W31384   5.277  35.342  11.179
59856W        W31385  14.523   5.467  10.821
59857W        W31386  41.818  28.965   3.234
59858W        W31387  29.084  27.131  13.362
59859W        W31388  34.311   9.331  12.109
59860W        W31389   0.069  23.250   2.738
59861W        W31390  12.353  25.108   4.315
59862W        W31391   4.182  14.125  10.836
59863W        W31392  20.175  12.241   3.437
59864W        W31393  34.961  13.690  12.246
59865W        W31394  23.089  33.586   1.650
59866W        W31395  35.580   2.669  12.490
59867W        W31396  16.906  43.912  12.087
59868W        W31397   7.680  15.039  14.786
59869W        W31398   9.771  15.527   5.102
59870W        W31399  21.585  26.651  13.802
59871W        W31400  42.732   6.751   0.351
59872W        W31401  19.705  20.027   0.316
59873W        W31402  28.511  31.595  11.536
59874W        W31403  41.365  38.043  11.970
59875W        W31404  41.842  37.234  11.416
59876W        W31405  25.875  36.659   2.835
59877W        W31406  10.294  26.047  11.989
59878W        W31407  16.636  30.945   4.147
59879W        W31408  12.348   1.869  12.903
59880W        W31409   0.448  36.360   1.211
59881W        W31410  17.488  15.013   2.281
59882W        W31411  35.527   1.656  12.423
59883W        W31412  35.929   8.860   5.084
59884W        W31413  33.017  25.043  14.297
59885W        W31414   1.177  11.163  14.686
59886W        W31415  27.267  15.174   2.691
59887W        W31416  14.361  12.561  11.910
59888W        W31417  26.544  21.581   3.750
59889W        W31418  28.118  37.937  10.102
59890W        W31419  21.946   8.233   1.060
59891W        W31420  39.691  25.798  14.928
59892W        W31421  29.253  43.342   1.492
59893W        W31422  32.453  41.334   5.041
59894W        W31423   3.868  24.221  12.918
59895W        W31424  11.796  14.347  13.103
59896W        W31425  24.179   0.338   2.821
59897W        W31426  40.344  27.422   0.794
59898W        W31427  39.387  10.392   2.764
59899W        W31428  34.456  22.029  12.521
59900W        W31429  33.523  19.216   2.844
59901W        W31430  41.700  34.507   0.806
59902W        W31431  20.969  17.546  12.604
59903W        W31432  33.492  17.483  14.509
59904W        W31433  38.146  44.011   2.185
59905W        W31434  34.543  37.449   0.634
59906W        W31435  38.361  20.310  14.844
59907W        W31436  31.199  22.069   1.343
59908W        W31437  32.059  44.767   3.744
59909W        W31438  40.082   7.348  12.154
59910W        W31439  18.260  34.981  11.610
59911W        W31440   1.994  13.537  12.668
59912W        W31441  40.469  20.505   1.728
59913W        W31442  39.535  24.544   3.802
59914W        W31443  15.307   9.111  12.830
59915W        W31444  44.713  13.549   4.306
59916W        W31445  18.681   7.096  14.341
59917W        W31446   5.396  28.567  14.397
59918W        W31447  36.972  25.994   3.101
59919W        W31448   4.074   4.279  11.357
59920W        W31449  22.941  26.678  10.675
59921W        W31450  33.668  12.292   1.835
59922W        W31451  29.162  15.428   0.719
59923W        W31452  20.042  40.312  13.179
59924W        W31453  38.960   2.333  14.487
59925W        W31454   2.485  10.622   3.178
59926W        W31455  27.120   1.500   0.935
59927W        W31456  22.365  15.096   4.800
59928W        W31457   6.805  35.082   3.650
59929W        W31458   4.153  41.298  14.399
59930W        W31459   1.444  32.626  12.886
59931W        W31460  16.188  43.947   4.342
59932W        W31461  22.159  27.927   0.405
59933W        W31462  31.880   3.398  13.384
59934W        W31463  16.407  29.457  13.399
59935W        W31464  23.221  40.562   0.349
59936W        W31465   7.945  13.786  12.636
59937W        W31466  35.718  21.122   4.927
59938W        W31467   7.646  28.019  12.956
59939W        W31468  35.174  19.559  12.002
59940W        W31469  35.049   8.100   2.361
59941W        W31470  32.978  22.193  11.046
59942W        W31471  24.376  39.262  11.886
59943W        W31472  34.375  18.038  10.590
59944W        W31473  39.560  43.577  13.121
59945W        W31474  32.408  39.445   4.675
59946W        W31475  40.015   3.199  13.627
59947W        W31476  33.986  16.765   2.710
59948W        W31477   9.599  21.265  14.523
59949W        W31478  10.614   1.057  12.511
59950W        W31479  41.103  42.482   0.867
59951W        W31480  41.903   3.717   3.180
59952W        W31481  28.643  32.197  14.542
59953W        W31482  40.705  28.725  10.329
59954W        W31483   9.927  42.796  11.049
59955W        W31484   3.979  35.877   4.132
59956W        W31485  10.248  28.179   2.870
59957W        W31486  12.240  17.523  14.819
59958W        W31487  27.208  17.773  14.898
59959W        W31488  34.346  18.330  12.291
59960W        W31489   9.682  16.311   3.800
59961W        W31490  17.069  30.946  13.968
59962W        W31491  22.128  13.929  14.228
59963W        W31492  24.997  19.500  11.604
59964W        W31493  39.683  25.678  12.118
59965W        W31494   5.409  25.475  11.595
59966W        W31495  20.687  37.122   1.707
59967W        W31496   1.495  18.161  12.934
59968W        W31497  36.953  20.523   4.478
59969W        W31498  23.065  40.888  13.006
59970W        W31499  24.289  34.961   0.364
59971W        W31500   2.874  31.968   1.879
59972W        W31501  14.279  39.092   1.755
59973W        W31502  35.548  37.426   3.134
59974W        W31503  20.664  16.290  11.542
59975W        W31504   2.291   1.399  12.546
59976W        W31505  11.083   0.851   2.628
59977W        W31506  11.700  10.195  12.017
59978W        W31507  36.457  16.109  14.492
59979W        W31508   6.812   1.866  13.477
59980W        W31509  43.775  29.326  13.737
59981W        W31510   3.244  37.462  11.107
59982W        W31511  30.460   4.391   2.312
59983W        W31512  12.596  19.304   2.191
59984W        W31513   0.001  13.360   3.344
59985W        W31514  32.115  32.008   3.011
59986W        W31515   7.757  35.520   0.317
59987W        W31516  22.942  40.317   3.682
59988W        W31517  12.412   5.712  11.190
59989W        W31518   6.160  11.717   2.689
59990W        W31519  44.413  10.393   0.780
59991W        W31520   1.982  20.189  14.732
59992W        W31521   0.322  43.250   3.179
59993W        W31522  35.367  27.924   3.320
59994W        W31523   5.727   3.183   1.749
59995W        W31524  44.369  41.997  13.424
59996W        W31525  30.296   4.999  12.955
59997W        W31526  16.420   9.860   2.485
59998W        W31527  25.855  16.773   1.377
59999W        W31528  22.182  43.943  10.643
60000W        W31529   5.690  37.419  10.647
60001W        W31530   7.801  26.565  10.836
60002W        W31531  38.996   2.627  12.955
60003W        W31532  36.577  13.846   1.756
60004W        W31533   3.774  11.775  11.193
60005W        W31534  39.939  26.921   3.391
60006W        W31535   3.290  14.485   4.235
60007W        W31536  25.136   5.511   0.584
60008W        W31537  34.449  12.365   3.792
60009W        W31538  34.016  11.653  13.116
60010W        W31539   4.768  42.297   0.941
60011W        W31540  29.510   1.984   0.732
60012W        W31541   5.179  38.875   1.840
60013W        W31542  22.005  30.484  12.627
60014W        W31543  18.106  37.026   2.750
60015W        W31544  24.045  40.966   4.104
60016W        W31545  31.056  33.103  11.968
60017W        W31546  11.732  21.861   1.276
60018W        W31547  14.781   3.939   1.338
60019W        W31548  12.826  25.310   2.074
60020W        W31549  17.456  14.642  12.099
60021W        W31550  29.881  32.618   1.003
60022W        W31551   2.869  11.177  10.622
60023W        W31552  34.430   4.319  11.622
60024W        W31553   9.590  39.413   2.147
60025W        W31554   9.183  22.432   0.377
60026W        W31555  21.105   4.679   4.144
60027W        W31556  23.240   3.676  14.546
60028W        W31557   6.167  24.698  14.521
60029W        W31558  43.595  38.348  13.799
60030W        W31559  24.385  36.512  11.706
60031W        W31560  35.072  34.322  14.243
60032W        W31561  12.113  25.399   2.732
60033W        W31562  27.717  25.813  14.928
60034W        W31563  31.024  28.863   0.316
60035W        W31564   1.360   0.363   1.606
60036W        W31565  16.313  19.436   4.540
60037W        W31566  13.363  18.174  14.792
60038W        W31567  18.282  24.224   2.212
60039W        W31568  14.393  23.963   0.051
60040W        W31569  24.838  15.058   2.899
60041W        W31570  12.818  13.712   2.114
60042W        W31571  38.487  40.122   0.289
60043W        W31572   1.025   0.670   3.214
60044W        W31573   6.179  12.796   3.232
60045W        W31574  32.178  42.373  14.231
60046W        W31575  24.602   6.106   1.955
60047W        W31576  10.178   5.308   4.283
60048W        W31577  40.520  15.855  13.434
60049W        W31578   0.506  19.777   2.970
60050W        W31579  34.119  11.138  11.995
60051W        W31580  34.934  35.005   0.240
60052W        W31581  30.007   4.509  13.767
60053W        W31582  27.003  41.689   1.229
60054W        W31583  35.396   3.355  12.639
60055W        W31584  32.606  37.536   4.687
60056W        W31585  16.793   4.736   3.687
60057W        W31586  14.362   5.264   4.120
60058W        W31587  40.699  34.085  14.407
60059W        W31588  23.534  37.606  13.318
60060W        W31589  35.255   0.452  10.965
60061W        W31590  32.296  39.365  11.120
60062W        W31591  16.381  25.400   0.927
60063W        W31592  17.680   5.970   4.087
60064W        W31593  30.953   9.255   1.682
60065W        W31594  34.353  11.241  11.558
60066W        W31595  33.781  37.631   3.950
60067W        W31596  12.884  37.940   0.928
60068W        W31597  35.370  42.266   5.054
60069W        W31598   9.267  28.295  11.931
60070W        W31599  19.692  21.213  14.823
60071W        W31600  32.901   9.213  11.902
60072W        W31601   6.597   2.233  10.950
60073W        W31602  23.987  22.613  10.912
60074W        W31603  44.727  24.989   1.302
60075W        W31604   7.757  19.297  12.183
60076W        W31605   8.807  39.826   2.286
60077W        W31606  28.091  28.400  11.386
60078W        W31607  21.514  22.351   0.341
60079W        W31608  14.619  26.247  11.531
60080W        W31609  35.340  22.699   2.659
60081W        W31610   8.852  18.315   0.844
60082W        W31611   8.175  43.914   3.646
60083W        W31612  44.756  14.404  12.898
60084W        W31613   6.945  20.296  11.064
60085W        W31614  15.588  13.117  10.655
60086W        W31615  32.016  12.719  13.488
60087W        W31616  10.444   3.787   3.199
60088W        W31617  35.454   0.243   2.821
60089W        W31618   1.293  41.434   2.356
60090W        W31619   9.076   8.989   5.048
60091W        W31620   7.829  41.115   0.268
60092W        W31621  16.628  14.883   2.362
60093W        W31622  15.809  18.571  11.711
60094W        W31623  31.477  21.498  13.384
60095W        W31624  25.716  13.237   3.298
60096W        W31625  34.721  11.659   1.178
60097W        W31626  35.647   9.769  13.930
60098W        W31627  19.133   3.687  14.723
60099W        W31628  26.962  31.560  13.802
60100W        W31629  38.969  29.218  11.530
60101W        W31630   4.287   4.971  12.470
60102W        W31631  14.925  25.809  11.587
60103W        W31632  29.457  38.433  14.292
60104W        W31633  42.483  29.271   1.349
60105W        W31634   9.204  28.907   2.169
60106W        W31635  10.266   1.906   1.419
60107W        W31636  20.151  13.124  11.619
60108W        W31637   0.857   9.608  14.842
60109W        W31638  38.010  33.750  13.516
60110W        W31639  34.622  10.454  14.404
60111W        W31640   9.601  38.934  14.176
60112W        W31641  21.896  12.468  14.433
60113W        W31642   3.839  43.773   0.731
60114W        W31643  10.219  24.152  14.243
60115W        W31644  38.429   6.317  14.037
60116W        W31645  22.664  21.123   4.055
60117W        W31646  40.717  27.128   3.474
60118W        W31647  21.229  36.638   4.541
60119W        W31648  34.730  42.936  12.417
60120W        W31649   9.109  30.618  12.362
60121W        W31650  17.261  30.892  13.064
60122W        W31651   4.016  18.072  12.085
60123W        W31652  18.763  35.637  12.423
60124W        W31653  39.104  36.091  14.163
60125W        W31654  38.962  29.888  13.290
60126W        W31655   1.459  42.059  11.144
60127W        W31656  11.276   0.073  12.000
60128W        W31657   4.902  43.945   2.254
60129W        W31658  44.450  28.417  12.980
60130W        W31659  21.107  23.116   3.700
60131W        W31660  27.969  17.597  11.572
60132W        W31661  39.509  43.098   0.840
60133W        W31662  31.547  42.976  13.354
60134W        W31663   3.760  44.958   3.194
60135W        W31664  35.384  37.076  11.704
60136W        W31665  44.691  43.504  14.240
60137W        W31666  17.246  21.584  14.272
60138W        W31667   9.079  42.091  13.429
60139W        W31668   3.128  32.738   1.787
60140W        W31669  26.979  38.553   2.167
60141W        W31670  32.672  21.258  12.056
60142W        W31671  34.889   4.903  14.310
60143W        W31672  23.665   9.281   1.366
60144W        W31673  19.309  42.773  13.834
60145W        W31674  20.922   7.826   3.270
60146W        W31675   2.565  31.506   1.780
60147W        W31676  33.969  40.661  12.028
60148W        W31677  43.942  40.049  14.871
60149W        W31678  42.755  36.448   3.613
60150W        W31679  11.883  25.173   4.113
60151W        W31680  23.288   1.157   3.115
60152W        W31681  23.771  44.357  13.015
60153W        W31682  32.098  13.677  10.357
60154W        W31683  12.699  21.054  10.126
60155W        W31684  39.487   1.728   3.738
60156W        W31685  28.855   0.997  12.303
60157W        W31686  20.476  44.234   3.816
60158W        W31687  22.654  11.045  10.757
60159W        W31688  36.165   6.256  14.329
60160W        W31689  17.071  38.404  12.229
60161W        W31690  22.119  12.376  13.410
60162W        W31691  27.791  12.434  12.502
60163W        W31692  19.081  29.401   1.246
60164W        W31693  32.827  15.225   3.235
60165W        W31694  10.934  14.192  12.403
60166W        W31695  10.153  25.576   2.787
60167W        W31696   0.853  38.959  11.876
60168W        W31697  11.408   3.397   1.442
60169W        W31698  29.853  35.844   3.894
60170W        W31699  42.270  16.367  11.797
60171W        W31700  33.481  29.411   4.180
60172W        W31701  15.627  29.907  11.267
60173W        W31702   7.828  13.129  11.881
60174W        W31703  17.466  11.246   0.003
60175W        W31704   0.169  10.651  10.678
60176W        W31705  27.442  21.250   9.987
60177W        W31706  44.460   1.653   2.282
60178W        W31707  21.223  16.581  12.557
60179W        W31708  26.766   5.631  14.355
60180W        W31709  38.624  17.596  11.753
60181W        W31710  17.089  16.565  11.918
60182W        W31711  27.907  37.494  10.899
60183W        W31712  27.117  15.028  11.985
60184W        W31713  31.871   6.549   4.660
60185W        W31714  10.515  34.896  11.747
60186W        W31715   3.653  12.515  12.489
60187W        W31716  21.652   2.877  12.537
60188W        W31717  22.583  41.930  12.966
60189W        W31718   9.624  19.245  12.347
60190W        W31719  24.782  25.632   0.705
60191W        W31720  43.640  33.409   9.684
60192W        W31721  12.634  42.953   1.693
60193W        W31722  25.617  20.752  12.601
60194W        W31723  40.950  27.469   0.156
60195W        W31724  24.627  13.316  12.315
60196W        W31725   4.855   9.390  11.883
60197W        W31726  10.820   6.424  11.454
60198W        W31727  11.213  26.298  12.022
60199W        W31728  44.702  44.864  14.529
60200W        W31729  42.750   1.010   3.736
60201W        W31730  41.325  15.568  11.593
60202W        W31731   1.399  16.713   1.069
60203W        W31732  21.712  38.575   5.259
60204W        W31733  28.653  22.726   0.224
60205W        W31734  30.704  22.893   1.308
60206W        W31735  29.211  17.634  10.689
60207W        W31736  26.265  31.078  12.771
60208W        W31737   4.890  41.734   2.800
60209W        W31738  17.130  12.176  11.441
60210W        W31739  43.971  13.883  14.467
60211W        W31740  11.317  29.357  14.515
60212W        W31741  36.887   6.744  12.098
60213W        W31742   7.061  10.635   2.661
60214W        W31743  18.995   3.207   1.276
60215W        W31744   8.726  28.516  12.609
60216W        W31745  10.151   2.176   0.976
60217W        W31746  11.179   1.209  11.611
60218W        W31747  16.963  33.575  13.558
60219W        W31748   3.045  21.760   0.952
60220W        W31749  40.975  38.464   0.709
60221W        W31750   2.819   3.209  14.916
60222W        W31751   9.756  32.920  12.073
60223W        W31752   6.189  33.405   4.146
60224W        W31753   4.745  17.151  10.702
60225W        W31754  41.097  36.492  11.591
60226W        W31755  20.028  26.545  14.775
60227W        W31756   8.915  34.804  13.059
60228W        W31757  26.740   7.530   0.845
60229W        W31758  13.835  21.088  10.352
60230W        W31759   2.701  39.678   4.557
60231W        W31760  17.323  39.844  13.465
60232W        W31761  15.373  27.749   3.261
60233W        W31762  19.088  27.487  12.997
60234W        W31763  39.383  40.301   1.484
60235W        W31764  42.901  15.710  10.673
60236W        W31765  22.641  17.160  13.040
60237W        W31766  36.917   9.391  11.093
60238W        W31767  31.674  38.651   3.426
60239W        W31768   3.352  34.063  13.044
60240W        W31769  16.547  25.733   2.387
60241W        W31770   5.746   4.225  11.473
60242W        W31771  15.004  22.637   4.353
60243W        W31772  30.491  41.950   0.579
60244W        W31773   3.677  34.457  10.602
60245W        W31774  38.310  27.612   3.643
60246W        W31775  42.349  24.904  14.976
60247W        W31776   2.036  14.022  11.535
60248W        W31777  34.240  32.350  11.701
60249W        W31778   1.277  10.099   5.080
60250W        W31779  23.229  21.281  12.261
60251W        W31780  26.224  13.521  14.470
60252W        W31781  34.008  40.835   2.715
60253W        W31782  11.163  12.844   0.393
60254W        W31783  11.527  30.706  13.951
60255W        W31784  40.031  19.385   0.752
60256W        W31785   1.815   7.272   2.354
60257W        W31786  44.111  32.224  11.570
60258W        W31787   6.896  24.157  11.270
60259W        W31788  11.677  29.194   1.873
60260W        W31789   3.819   5.442  14.467
60261W        W31790  33.640   4.740  10.496
60262W        W31791  20.506  19.833  12.847
60263W        W31792  16.847   0.176   4.927
60264W        W31793  28.036  23.893  14.515
60265W        W31794  31.037  44.871   2.866
60266W        W31795  36.019  15.391  10.844
60267W        W31796  44.467  26.635  12.940
60268W        W31797   6.326  27.563   2.431
60269W        W31798  20.154  29.504  14.702
60270W        W31799  26.752  18.051  13.989
60271W        W31800   6.090   1.370  12.000
60272W        W31801  43.771  27.875  13.885
60273W        W31802   6.638  19.389  13.975
60274W        W31803   4.652  40.597  10.762
60275W        W31804   3.544  36.356  14.480
60276W        W31805   6.970   4.757  14.676
60277W        W31806  27.010  13.811   3.705
60278W        W31807  25.710  10.893   0.250
60279W        W31808  37.850  27.027  14.455
60280W        W31809  18.346   6.717   3.719
60281W        W31810  42.532   0.933   2.412
60282W        W31811  14.745  33.661   3.658
60283W        W31812   7.092   6.491   0.507
60284W        W31813  10.253  42.911  13.342
60285W        W31814  31.446  12.346   1.776
60286W        W31815  41.296  18.208  14.015
60287W        W31816  41.579   2.945  10.546
60288W        W31817  26.364  19.630  11.422
60289W        W31818   8.266  36.906   1.893
60290W        W31819  32.703  13.284  12.518
60291W        W31820  27.700  36.336  13.823
60292W        W31821  32.100  40.273  12.904
60293W        W31822   0.265  27.409  14.867
60294W        W31823   6.028  36.362   2.481
60295W        W31824  39.005  15.481  13.519
60296W        W31825   2.858  22.440   1.316
60297W        W31826  30.590  17.116   4.482
60298W        W31827  30.000  39.857  14.528
60299W        W31828  21.466   4.245  14.393
60300W        W31829  21.023  38.970   3.288
60301W        W31830  13.217  24.898  10.652
60302W        W31831  21.343   4.291  12.523
60303W        W31832  31.144  13.531   3.655
60304W        W31833  36.903  25.101  11.518
60305W        W31834  17.567  42.995   3.652
60306W        W31835   8.707  29.259   4.423
60307W        W31836  41.012  42.844  10.612
60308W        W31837  18.324   3.238   4.567
60309W        W31838   9.780   2.228  13.068
60310W        W31839  25.914  15.141  10.759
60311W        W31840  19.276  18.281  13.326
60312W        W31841   9.726   0.734  12.144
60313W        W31842   9.641   0.736   3.621
60314W        W31843  39.394  26.679  11.523
60315W        W31844   1.752  18.074   0.506
60316W        W31845  32.949  29.684  14.458
60317W        W31846  17.254  17.284   2.186
60318W        W31847   3.231  18.650  12.572
60319W        W31848  37.913  32.675  10.627
60320W        W31849  35.618  40.890  10.770
60321W        W31850  36.602  31.956   3.611
60322W        W31851  16.276  24.443   1.150
60323W        W31852   2.928  36.576  14.757
60324W        W31853  23.529  37.362   0.939
60325W        W31854   7.386  35.362   4.678
60326W        W31855   6.790  29.698  12.831
60327W        W31856  19.096  16.844  10.826
60328W        W31857  11.861  27.386  11.487
60329W        W31858   2.396  37.823   4.938
60330W        W31859  29.426  41.740  11.807
60331W        W31860  16.616  40.191  11.171
60332W        W31861  35.122  27.254  10.876
60333W        W31862   5.668   8.773  14.868
60334W        W31863  41.894  29.270  14.816
60335W        W31864  21.602  24.234  10.733
60336W        W31865   2.465  26.663  12.542
60337W        W31866  31.399  42.708   4.551
60338W        W31867  36.118  42.701  13.385
60339W        W31868   2.110  10.219   3.903
60340W        W31869  24.601  12.092  13.489
60341W        W31870  20.635   5.934   1.410
60342W        W31871  35.862  29.449  12.052
60343W        W31872  28.821  13.766   5.384
60344W        W31873  29.488  32.855  13.339
60345W        W31874   3.947   0.048  14.457
60346W        W31875  25.614  31.211  12.070
60347W        W31876  28.212   6.815   4.496
60348W        W31877   8.690   8.313   2.419
60349W        W31878   7.681  24.881  12.836
60350W        W31879  42.553  44.750  11.945
60351W        W31880  44.798  10.870   2.213
60352W        W31881  33.312  37.877   3.280
60353W        W31882   6.779  43.399   0.828
60354W        W31883  37.922  20.571   4.140
60355W        W31884  27.479  26.025  13.337
60356W        W31885  16.955  30.252  10.357
60357W        W31886  37.480  37.142  10.720
60358W        W31887  36.571   9.464   2.758
60359W        W31888  25.738  13.634   1.338
60360W        W31889  26.700  40.426  12.346
60361W        W31890   7.866   5.595   1.661
60362W        W31891   6.231  12.731   2.429
60363W        W31892   9.908  22.920   4.217
60364W        W31893  20.085  15.855  12.372
60365W        W31894  35.798  13.295  10.717
60366W        W31895  19.323  19.317  12.464
60367W        W31896  15.852   6.414   2.647
60368W        W31897  42.419   7.649  13.045
60369W        W31898  27.478  13.008   4.195
60370W        W31899  14.587  13.269   2.461
60371W        W31900  31.442  34.010   0.714
60372W        W31901   4.277   3.756   4.870
60373W        W31902  18.764   6.907  10.706
60374W        W31903  34.951  23.489   0.225
60375W        W31904  23.741   8.731  13.056
60376W        W31905  20.108  22.065  12.419
60377W        W31906   4.163  40.942  13.376
60378W        W31907  17.127  11.670  14.979
60379W        W31908  12.892  43.975   0.770
60380W        W31909   9.773   9.296   3.871
60381W        W31910  23.263  39.851  12.445
60382W        W31911  32.812   9.490   0.021
60383W        W31912  44.799  18.676   2.379
60384W        W31913  32.213   8.156   0.940
60385W        W31914  36.335  32.519  14.491
60386W        W31915  38.826   6.291   1.669
60387W        W31916  34.946  27.529   1.507
60388W        W31917  23.659  24.668  10.912
60389W        W31918  33.389  35.686  12.291
60390W        W31919  39.421  38.912   0.656
60391W        W31920  23.653  20.810  13.518
60392W        W31921  42.729  41.424   1.639
60393W        W31922   4.684  39.463   3.546
60394W        W31923  10.168  24.192   1.334
60395W        W31924  31.433  26.132   4.333
60396W        W31925  39.320  34.461   3.620
60397W        W31926  26.602  43.503   3.384
60398W        W31927  33.002  14.522  14.769
60399W        W31928  32.316  43.517  13.414
60400W        W31929  14.788  36.511   4.026
60401W        W31930  43.227  19.225   3.218
60402W        W31931   9.952  29.310   1.328
60403W        W31932  32.974   4.028  10.619
60404W        W31933   4.158  31.420   1.208
60405W        W31934   4.589  30.420   0.326
60406W        W31935  42.055  11.464  10.889
60407W        W31936  19.221   1.396  11.846
60408W        W31937  17.238  43.416   3.653
60409W        W31938  23.540  23.220  14.463
60410W        W31939  16.233  26.581   0.308
60411W        W31940  16.257  26.910  14.901
60412W        W31941  34.211  19.812   4.592
60413W        W31942  32.914  39.395   2.472
60414W        W31943  24.247  40.760  14.546
60415W        W31944  36.899   4.012  12.539
60416W        W31945   2.252  18.153   0.306
60417W        W31946  20.986  44.336  12.339
60418W        W31947  44.219  24.275   2.244
60419W        W31948   9.370  10.176   2.327
60420W        W31949   8.440  27.055   3.981
60421W        W31950  23.509  28.200  12.088
60422W        W31951  38.454  23.866  14.937
60423W        W31952  42.428  22.522  11.132
60424W        W31953  18.513  33.528   2.838
60425W        W31954   8.385  10.420   2.984
60426W        W31955  23.626  24.249  11.678
60427W        W31956  31.453  37.889   4.052
60428W        W31957  43.074  31.549  12.797
60429W        W31958  12.217  22.118  10.713
60430W        W31959   1.846  38.108  11.496
60431W        W31960  18.146  17.582  12.878
60432W        W31961  15.512  28.925   1.385
60433W        W31962  39.851   6.360   0.355
60434W        W31963  28.519  22.049  11.107
60435W        W31964  17.639  12.254   0.698
60436W        W31965  10.300  27.394  12.146
60437W        W31966  17.225  40.834  12.110
60438W        W31967   1.552  27.700   4.278
60439W        W31968  26.010  23.235  12.717
60440W        W31969  25.264  39.976  13.789
60441W        W31970  15.443  17.700   1.136
60442W        W31971  39.010   1.660  13.879
60443W        W31972  18.618  36.032  14.997
60444W        W31973  38.691  37.840  10.080
60445W        W31974  23.098   4.017  11.900
60446W        W31975  23.589  22.770  11.561
60447W        W31976  34.667  27.367  13.230
60448W        W31977  16.047  10.701   1.223
60449W        W31978  22.802   6.668  12.964
60450W        W31979  11.321  36.122   3.883
60451W        W31980   9.384  26.331  12.321
60452W        W31981  44.842  28.515  13.300
60453W        W31982  19.773   5.795  11.089
60454W        W31983  34.031  13.705   2.251
60455W        W31984  29.607  27.943   1.382
60456W        W31985  13.690   8.239   4.999
60457W        W31986   6.954  23.793  11.641
60458W        W31987  28.499  35.243  11.784
60459W        W31988  33.116  20.097  14.891
60460W        W31989  42.311   5.298   3.765
60461W        W31990  21.218   3.855   2.791
60462W        W31991   5.383  12.933  14.421
60463W        W31992  43.083  41.090   1.824
60464W        W31993  26.020  22.095   0.335
60465W        W31994  30.080  22.408   4.343
60466W        W31995  23.236  13.276   1.033
60467W        W31996  21.189  28.070   4.750
60468W        W31997   5.810  39.028   0.434
60469W        W31998   2.229  31.403  13.894
60470W        W31999  35.406  40.366   2.774
60471W        W32000  26.086  21.823   2.495
60472W        W32001  29.231  32.497   5.545
60473W        W32002   6.946   4.123  11.110
60474W        W32003   9.959  11.674   1.495
60475W        W32004  27.597  16.757  14.986
60476W        W32005   4.806  27.288   2.485
60477W        W32006  27.761   6.662   2.712
60478W        W32007  28.071  41.289  14.035
60479W        W32008  19.686  34.314   2.788
60480W        W32009  29.159  15.359  12.346
60481W        W32010  41.440  15.232   4.242
60482W        W32011  37.935  14.339  12.382
60483W        W32012  10.274  23.878   1.775
60484W        W32013  20.546   6.231  10.753
60485W        W32014   6.722   3.367   1.032
60486W        W32015   0.288  32.001  12.046
60487W        W32016  23.587  35.906   4.058
60488W        W32017  25.912  38.815  12.438
60489W        W32018   2.859   0.708  14.290
60490W        W32019  39.845  44.784   4.501
60491W        W32020  18.118  31.254  13.382
60492W        W32021  13.771   0.477  14.985
60493W        W32022  14.086   8.272   0.839
60494W        W32023  14.203  24.765   1.910
60495W        W32024   6.860  23.040   2.344
60496W        W32025  15.167  14.271   3.339
60497W        W32026  42.655  14.145   1.918
60498W        W32027   7.123   1.160   2.474
60499W        W32028  22.835  27.610  12.397
60500W        W32029  13.817  11.341  14.288
60501W        W32030  44.386  34.210   2.901
60502W        W32031   7.931  44.797  12.793
60503W        W32032  25.679  22.043   1.338
60504W        W32033  13.094   8.064  12.408
60505W        W32034  23.461  30.045   3.771
60506W        W32035  25.547   3.704   2.718
60507W        W32036  31.067  40.299   4.085
60508W        W32037  31.485  19.515  11.063
60509W        W32038   0.681  43.476   4.301
60510W        W32039   3.434   6.900   1.919
60511W        W32040  11.375  29.509   5.041
60512W        W32041   5.285  38.280  13.019
60513W        W32042  23.319  10.828   4.279
60514W        W32043  18.864  21.275  11.714
60515W        W32044   5.766   8.124   4.555
60516W        W32045  43.430   4.906   4.818
60517W        W32046   1.298  42.794  13.317
60518W        W32047  41.963  34.600  14.374
60519W        W32048  36.954  23.610   3.974
60520W        W32049  39.422  17.756   2.923
60521W        W32050  19.075  41.350  11.193
60522W        W32051  17.589  38.469  10.456
60523W        W32052  44.139  23.977   0.721
60524W        W32053   9.435  10.081  11.047
60525W        W32054  40.265  38.357  10.727
60526W        W32055  41.584  20.588  11.900
60527W        W32056  11.211   3.223   0.570
60528W        W32057   9.605  13.826   3.755
60529W        W32058  30.999   1.248  14.023
60530W        W32059  39.526  40.883  14.867
60531W        W32060   7.269  40.989  14.752
60532W        W32061  29.425  23.832   2.946
60533W        W32062   2.310  38.382   1.699
60534W        W32063  40.773   6.460   3.670
60535W        W32064  10.832  36.130   1.696
60536W        W32065   2.755  35.131  12.620
60537W        W32066  42.932  11.792   4.305
60538W        W32067  21.145  39.157  11.653
60539W        W32068  35.471  23.528  13.506
60540W        W32069   4.794  25.936   2.905
60541W        W32070   3.421  33.263   4.810
60542W        W32071  28.987  15.240  10.922
60543W        W32072  27.052  42.748  13.611
60544W        W32073  14.236   6.757   0.688
60545W        W32074   1.904  11.182  11.649
60546W        W32075  12.168  23.668   2.399
60547W        W32076  30.028  36.158   0.472
60548W        W32077   3.847  11.700  11.709
60549W        W32078  15.170  39.067  11.976
60550W        W32079  33.476  15.534  12.957
60551W        W32080  23.974  41.485  12.064
60552W        W32081  40.885  12.679   2.208
60553W        W32082  25.543   0.915   0.007
60554W        W32083  22.171   2.018   1.234
60555W        W32084   2.596  13.340   1.384
60556W        W32085  41.510  37.064  13.920
60557W        W32086  41.912  17.697   4.697
60558W        W32087  12.283  22.455   3.254
60559W        W32088  27.501   4.246   2.245
60560W        W32089  10.488  18.850   3.695
60561W        W32090  42.514  43.427   2.706
60562W        W32091  44.269  35.998  12.921
60563W        W32092  22.071  40.967  11.427
60564W        W32093  44.148  33.889  11.548
60565W        W32094   5.863  28.703   0.944
60566W        W32095  17.524  39.872   3.118
60567W        W32096  23.687  36.351   0.776
60568W        W32097  39.429  35.098  10.453
60569W        W32098  22.965  28.304  14.522
60570W        W32099  34.227  40.382   2.821
60571W        W32100   5.123  13.513   4.212
60572W        W32101  19.685  19.560   1.095
60573W        W32102   3.442  29.858  14.913
60574W        W32103  35.112  23.706   4.198
60575W        W32104   0.504   5.943  10.703
60576W        W32105  19.467  13.161  11.214
60577W        W32106  32.576   3.711  11.395
60578W        W32107  18.887  39.469   5.067
60579W        W32108   0.887  43.826  12.543
60580W        W32109  28.476  30.508  13.478
60581W        W32110  30.308  24.665   4.500
60582W        W32111   3.070   9.355  11.950
60583W        W32112  42.013  11.901  10.620
60584W        W32113   0.296   3.864  14.845
60585W        W32114  11.245  31.247  12.921
60586W        W32115  13.180  44.497   3.245
60587W        W32116  25.117   2.359  11.670
60588W        W32117  34.605  33.156  12.028
60589W        W32118   6.695  43.964   4.734
60590W        W32119  42.243  37.787  12.044
60591W        W32120  12.014  37.947  11.067
60592W        W32121  39.475  40.165   1.003
60593W        W32122  20.765  12.832   0.426
60594W        W32123  21.577  14.165   1.276
60595W        W32124  29.820  37.895   0.220
60596W        W32125  42.942  20.458  14.789
60597W        W32126  13.786  41.343   0.964
60598W        W32127  14.279  26.065   3.433
60599W        W32128  28.478  21.695   2.455
60600W        W32129  40.389  20.223   4.615
60601W        W32130  31.708   0.756  13.118
60602W        W32131   7.776  23.431   1.412
60603W        W32132  30.994  27.179  12.600
60604W        W32133  41.046   0.412  11.320
60605W        W32134  13.587   7.313  11.324
60606W        W32135  23.098   4.916   0.855
60607W        W32136  33.689   7.306  12.569
60608W        W32137  40.833  41.465  13.809
60609W        W32138  34.069  32.039   1.785
60610W        W32139  12.797  20.063   4.762
60611W        W32140   2.936  30.727   3.683
60612W        W32141  11.169  14.360  14.006
60613W        W32142  11.102  18.147   0.319
60614W        W32143  38.006  24.712  12.925
60615W        W32144  42.331  21.269  10.691
60616W        W32145  10.936  19.104  14.948
60617W        W32146  23.045  37.492   3.129
60618W        W32147  43.909  34.804  13.894
60619W        W32148  17.236   6.722  10.505
60620W        W32149  13.625  30.137  13.570
60621W        W32150  39.921  16.418   4.646
60622W        W32151  18.445  44.034   4.525
60623W        W32152  30.162  28.258   3.341
60624W        W32153  23.268   5.702  12.018
60625W        W32154  22.027  23.402  11.570
60626W        W32155  13.518   1.804  13.574
60627W        W32156   5.177  26.665   0.813
60628W        W32157  21.821   6.970   1.304
60629W        W32158  34.531  10.501   4.327
60630W        W32159  12.795  40.418   2.899
60631W        W32160  20.505  29.975   3.641
60632W        W32161   8.780  24.412  10.752
60633W        W32162   4.757  14.201  14.924
60634W        W32163  10.177  18.005  12.769
60635W        W32164  15.680  13.902   4.916
60636W        W32165  43.973  30.444   3.635
60637W        W32166  26.972  35.188   2.448
60638W        W32167  34.928  38.650   4.145
60639W        W32168   0.795  34.016   2.601
60640W        W32169   2.628  14.406  14.429
60641W        W32170  41.534  43.578   3.291
60642W        W32171  14.432   3.612  13.475
60643W        W32172  12.573  18.145  13.594
60644W        W32173  18.869  36.646   3.138
60645W        W32174  16.097  17.631  13.503
60646W        W32175   8.917  43.442  10.639
60647W        W32176  43.171  10.027   0.237
60648W        W32177  43.673  14.638  11.114
60649W        W32178  34.525   7.767   2.655
60650W        W32179  22.718  25.605   2.311
60651W        W32180  41.984  17.804  10.801
60652W        W32181   8.859  27.696  10.186
60653W        W32182  10.573   1.818  12.840
60654W        W32183  31.211  26.194  13.311
60655W        W32184  18.786  42.376  13.012
60656W        W32185  18.216   1.268   3.099
60657W        W32186  26.749  24.506  11.608
60658W        W32187  32.552   6.909   1.219
60659W        W32188  34.853  38.809   0.690
60660W        W32189  35.321  35.480   3.654
60661W        W32190  44.269   1.538  13.504
60662W        W32191  26.541   2.516  14.565
60663W        W32192  14.549  21.970  13.457
60664W        W32193  37.808  23.063  11.131
60665W        W32194   5.128   2.077   3.366
60666W        W32195  38.811   3.565  10.900
60667W        W32196  44.281   8.326  10.726
60668W        W32197  17.822  27.359   9.791
60669W        W32198  13.262  32.084  14.387
60670W        W32199  15.892  42.963   3.585
60671W        W32200  44.545  30.118   4.353
60672W        W32201  18.041   4.976  10.698
60673W        W32202  16.596   3.386   3.726
60674W        W32203  16.773  11.132   1.665
60675W        W32204   4.789   6.138   3.629
60676W        W32205   5.728  32.866   2.028
60677W        W32206   6.319   6.423  11.635
60678W        W32207  14.565  37.264   1.967
60679W        W32208  44.062  12.740  10.637
60680W        W32209   3.408  39.582   1.835
60681W        W32210  32.950  30.880   4.647
60682W        W32211  21.486  24.811   1.911
60683W        W32212  11.905  44.996  14.431
60684W        W32213   4.726   1.177  11.203
60685W        W32214  33.452  27.819  13.653
60686W        W32215  30.564  24.063   0.517
60687W        W32216  35.109  40.140   0.395
60688W        W32217  31.904  31.948  11.074
60689W        W32218  41.559  36.016  11.010
60690W        W32219  32.176  36.343  12.632
60691W        W32220  19.709  14.195   1.209
60692W        W32221  24.175  23.144  13.603
60693W        W32222   2.340  34.582   2.799
60694W        W32223  14.375  35.881   2.386
60695W        W32224   1.004  17.613   0.378
60696W        W32225  28.451  20.015   4.185
60697W        W32226   3.128  41.889  13.888
60698W        W32227  29.521  44.561  14.972
60699W        W32228  27.209   2.846   3.711
60700W        W32229  22.051  35.773  11.992
60701W        W32230  44.734  19.586  12.996
60702W        W32231  19.421  20.034  11.508
60703W        W32232  42.714  16.081  13.778
60704W        W32233   1.940  26.159   2.218
60705W        W32234  12.161  12.738   2.653
60706W        W32235  24.670  25.041  11.490
60707W        W32236   0.012   9.404  12.021
60708W        W32237  30.694  37.787  13.937
60709W        W32238  31.839  13.207   4.649
60710W        W32239  25.723  40.252   1.423
60711W        W32240  38.190  35.374   0.315
60712W        W32241   6.564  30.062  13.112
60713W        W32242  13.365  20.034   4.867
60714W        W32243  23.145  40.221   5.565
60715W        W32244  26.673  30.550   3.667
60716W        W32245  32.888  38.571  11.106
60717W        W32246  14.718   9.427  14.520
60718W        W32247  32.887  44.356  11.116
60719W        W32248  43.857  12.202   3.805
60720W        W32249  35.003  38.198   0.391
60721W        W32250  36.413  34.857   3.338
60722W        W32251  34.006  16.229   3.729
60723W        W32252  24.951  37.348  11.977
60724W        W32253  26.109  19.238   2.113
60725W        W32254  35.975  26.155  11.232
60726W        W32255  38.138  15.467   0.031
60727W        W32256  37.000   5.340  10.706
60728W        W32257   3.250   9.737   1.166
60729W        W32258   0.156  33.978   0.553
60730W        W32259  30.457  34.084  11.595
60731W        W32260  11.370  26.605  12.861
60732W        W32261  38.774  29.455  10.581
60733W        W32262   3.012  27.999   2.823
60734W        W32263   5.372  28.364  10.782
60735W        W32264  14.724   6.804  13.878
60736W        W32265   6.949   0.754   2.760
60737W        W32266   4.233  27.617   1.641
60738W        W32267   6.768  14.019  11.667
60739W        W32268  23.091  36.043   2.962
60740W        W32269   9.157  33.947   3.236
60741W        W32270   1.732   8.185   4.230
60742W        W32271  39.443  10.488   3.741
60743W        W32272  36.854   0.683   1.242
60744W        W32273  41.047  18.932   4.481
60745W        W32274   6.408  22.161   1.358
60746W        W32275  11.342  11.677  14.474
60747W        W32276   5.228  31.047  14.970
60748W        W32277  31.156   5.980   2.252
60749W        W32278   0.452  14.352   4.977
60750W        W32279   0.537  26.409   4.547
60751W        W32280  27.751  19.780   3.292
60752W        W32281   4.842  10.217   3.883
60753W        W32282  16.570  32.186   1.236
60754W        W32283  24.458  38.922   5.044
60755W        W32284  34.340   1.218  11.998
60756W        W32285  33.523  28.585  12.265
60757W        W32286   7.928  13.664   3.603
60758W        W32287  34.095   7.687   3.118
60759W        W32288  20.698  14.767   4.066
60760W        W32289  31.831  30.835   0.711
60761W        W32290  17.646  43.103   1.618
60762W        W32291  35.752   1.943  12.877
60763W        W32292   4.365  26.478   2.367
60764W        W32293  22.189  20.252  11.712
60765W        W32294   0.842   7.657  11.061
60766W        W32295  21.739  10.881  13.587
60767W        W32296  20.997  12.255  12.511
60768W        W32297   3.646  19.475   0.855
60769W        W32298  42.925  24.904  10.995
60770W        W32299  39.063  33.400  11.527
60771W        W32300  19.673  13.751   2.882
60772W        W32301   9.325  40.610   0.892
60773W        W32302  18.173  41.110  12.543
60774W        W32303  23.070  18.586   1.357
60775W        W32304  32.028  40.020   3.584
60776W        W32305  17.277  39.005   0.363
60777W        W32306  10.056  12.976  12.495
60778W        W32307  23.255  22.096   2.293
60779W        W32308  10.722  36.043   5.233
60780W        W32309   3.076  28.238   4.568
60781W        W32310  28.885  40.611  13.243
60782W        W32311  41.307  14.728  11.433
60783W        W32312  28.580  37.494  10.660
60784W        W32313  42.322  37.440   0.447
60785W        W32314   2.751  12.950  13.409
60786W        W32315  32.431  24.433  12.803
60787W        W32316  38.414  29.346  14.999
60788W        W32317  28.907  23.425  10.718
60789W        W32318   4.250   6.778  10.745
60790W        W32319  31.591   8.713   3.751
60791W        W32320  31.557  43.261   0.685
60792W        W32321   7.705  43.533  10.646
60793W        W32322   8.285   0.406  13.594
60794W        W32323  36.342   3.103   2.299
60795W        W32324  14.169   4.733  14.052
60796W        W32325  40.959  12.719   3.304
60797W        W32326  33.902   6.779   2.264
60798W        W32327  10.047  14.347   2.679
60799W        W32328   6.256   7.840   1.041
60800W        W32329  22.678   0.412   0.680
60801W        W32330   0.983   0.497  13.474
60802W        W32331  16.926  35.757  12.912
60803W        W32332   4.702  36.057  11.611
60804W        W32333  11.906  12.164  13.868
60805W        W32334  19.258  34.850   1.329
60806W        W32335  35.002  36.822   3.809
60807W        W32336   9.402   5.391  11.627
60808W        W32337  36.860  31.149  12.135
60809W        W32338  43.221  27.123  11.553
60810W        W32339  30.805  37.025   2.986
60811W        W32340  30.993   5.414   1.479
60812W        W32341  43.970  20.664  13.572
60813W        W32342  37.055   9.372   1.539
60814W        W32343   7.909  18.550   3.796
60815W        W32344  22.200   1.535  12.456
60816W        W32345  38.757  27.683  13.883
60817W        W32346  15.082  12.296  11.572
60818W        W32347   3.719  18.988   0.744
60819W        W32348  37.945  36.687  14.335
60820W        W32349  44.858  21.785   0.680
60821W        W32350   0.863  43.015  13.461
60822W        W32351  33.966  38.405  11.596
60823W        W32352  19.872   7.852  14.167
60824W        W32353   5.550  18.348   1.278
60825W        W32354  35.325   6.200  14.820
60826W        W32355  16.366  12.234  12.873
60827W        W32356  18.513   9.552  13.307
60828W        W32357  15.039  16.694  11.559
60829W        W32358  31.807   4.126  12.268
60830W        W32359  42.531  43.405  10.998
60831W        W32360  12.647  20.260  12.461
60832W        W32361  24.253  15.064  13.530
60833W        W32362  17.662  22.689   4.601
60834W        W32363  39.152  34.892  11.714
60835W        W32364  30.423  12.160   4.124
60836W        W32365  19.306  43.737   2.410
60837W        W32366   0.905  36.675   2.393
60838W        W32367  39.641  22.520   1.748
60839W        W32368   8.837  33.868   2.693
60840W        W32369   5.904  20.648  13.366
60841W        W32370  13.685  18.869  14.066
60842W        W32371   7.883  38.933   4.811
60843W        W32372  11.962  37.178   5.030
60844W        W32373  38.624   0.143  11.491
60845W        W32374  12.959   1.774   3.593
60846W        W32375  21.789  16.398   0.993
60847W        W32376   8.682  31.819  12.059
60848W        W32377  21.699  27.972  13.514
60849W        W32378  37.000  24.505  13.940
60850W        W32379  11.728   8.052   3.173
60851W        W32380  22.635  41.849   4.334
60852W        W32381  28.598  33.381  13.925
60853W        W32382   5.173  33.021   4.760
60854W        W32383  30.068   4.941  12.183
60855W        W32384  11.138  13.143   1.842
60856W        W32385   6.677  17.035   4.300
60857W        W32386  18.779   5.843   3.820
60858W        W32387  24.759   8.306  10.513
60859W        W32388  26.593  43.680  13.505
60860W        W32389  21.985  11.189  11.978
60861W        W32390   3.386  18.187   1.958
60862W        W32391   8.808  33.193  11.101
60863W        W32392  16.110   1.232  14.742
60864W        W32393  36.956  31.959   1.380
60865W        W32394  32.376  36.561   0.497
60866W        W32395  10.179  35.842  10.030
60867W        W32396  29.024  28.838  14.497
60868W        W32397  14.780  24.251   3.365
60869W        W32398  24.039  19.065  13.453
60870W        W32399  32.529   0.884   3.604
60871W        W32400  34.418  36.769   1.705
60872W        W32401  20.259   0.335  12.845
60873W        W32402   6.553   4.340  10.824
60874W        W32403  11.693   9.279  11.124
60875W        W32404  36.131  16.114  13.682
60876W        W32405  17.299  12.798  11.218
60877W        W32406   7.557  39.810  14.065
60878W        W32407  12.404  22.505  14.381
60879W        W32408   0.020  33.101  11.628
60880W        W32409   9.681  30.941  13.954
60881W        W32410  32.584  16.043  12.817
60882W        W32411   5.322  32.515   4.634
60883W        W32412  26.009   6.282  13.975
60884W        W32413  34.082  33.370   4.212
60885W        W32414  21.137   6.497  12.010
60886W        W32415  26.600   0.502  11.350
60887W        W32416  39.222   7.330   4.174
60888W        W32417  41.402  29.456   4.124
60889W        W32418  16.568   9.503  13.367
60890W        W32419  22.915  30.551   1.314
60891W        W32420  42.198  41.907   4.461
60892W        W32421  36.477   5.225   4.666
60893W        W32422   1.868  33.457  12.819
60894W        W32423  38.326  15.250  12.353
60895W        W32424  40.864  17.905   1.231
60896W        W32425  20.829  32.906   0.129
60897W        W32426  38.007  29.801  14.488
60898W        W32427   2.003  12.630  13.156
60899W        W32428   2.300   2.224  10.694
60900W        W32429   2.891  28.693  14.450
60901W        W32430  13.294  30.229   0.263
60902W        W32431  23.416  42.543  12.042
60903W        W32432  29.070   5.614  11.105
60904W        W32433  41.761  25.535  12.099
60905W        W32434  16.650  41.290   1.784
60906W        W32435   1.139  23.761  12.564
60907W        W32436  40.490  28.185   2.732
60908W        W32437  39.155  11.748   3.349
60909W        W32438  29.054  34.615  13.541
60910W        W32439  41.521  43.851   2.360
60911W        W32440  18.040  17.649  11.578
60912W        W32441  38.344  43.712  10.684
60913W        W32442   9.923  42.581   2.717
60914W        W32443   8.728  16.999   3.965
60915W        W32444   6.056   9.675   2.163
60916W        W32445  19.965  18.598   2.393
60917W        W32446  40.443  12.165  14.802
60918W        W32447  41.520   6.419   0.755
60919W        W32448  17.016   2.319   2.843
60920W        W32449  14.739   2.052   4.477
60921W        W32450   4.480   2.941   0.330
60922W        W32451   0.713   1.929   1.890
60923W        W32452  13.699  34.147  12.093
60924W        W32453   2.835  21.416   1.281
60925W        W32454   9.260   5.378   1.797
60926W        W32455  22.192  33.284   0.059
60927W        W32456   1.802  39.057  11.852
60928W        W32457  21.733  32.621   0.070
60929W        W32458  34.617   6.697  14.740
60930W        W32459  24.684  20.439  14.786
60931W        W32460  20.831  14.297   2.861
60932W        W32461  22.339  34.715   3.787
60933W        W32462  14.904  24.516   0.741
60934W        W32463   2.258   4.575   5.028
60935W        W32464  37.081  21.542  11.000
60936W        W32465   0.737  14.039  12.890
60937W        W32466  41.382   7.416   0.948
60938W        W32467  10.292  35.989   3.879
60939W        W32468   8.097  18.150   3.088
60940W        W32469  21.882  44.825  11.370
60941W        W32470   8.245  29.443   2.733
60942W        W32471  30.019   9.292   4.136
60943W        W32472  29.474  20.980   0.362
60944W        W32473   3.852  28.589  13.405
60945W        W32474  43.912   3.005  13.973
60946W        W32475  16.230   2.964   4.427
60947W        W32476   4.506  24.076   1.222
60948W        W32477  31.369  44.448   3.171
60949W        W32478   5.663   4.826  10.743
60950W        W32479  43.726  13.498  10.624
60951W        W32480  24.875  29.097  11.641
60952W        W32481  39.480  26.047   4.310
60953W        W32482   2.678  37.825  10.501
60954W        W32483  18.161  29.129  11.283
60955W        W32484  21.979  23.703   3.681
60956W        W32485  38.901   8.333   4.177
60957W        W32486  17.831  28.211  13.991
60958W        W32487  21.132  10.681   1.419
60959W        W32488  33.595  41.062  14.010
60960W        W32489  27.669  31.847   0.015
60961W        W32490   6.547  35.729  12.028
60962W        W32491  24.062  40.490   0.917
60963W        W32492   0.583  20.235   4.380
60964W        W32493  37.412  41.202   2.874
60965W        W32494   4.061  10.282  12.351
60966W        W32495  38.002  42.071   1.216
60967W        W32496  38.762  36.126  12.545
60968W        W32497   5.347  17.831  13.811
60969W        W32498  36.410  14.696   0.655
60970W        W32499  28.635   2.262  13.423
60971W        W32500  41.920  13.004   3.606
60972W        W32501  19.201  30.114   1.882
60973W        W32502  38.672  44.862  14.987
60974W        W32503  36.342   5.294  13.075
60975W        W32504   9.841   2.365   4.475
60976W        W32505  12.309  28.952   4.091
60977W        W32506  34.906  14.409  14.934
60978W        W32507   9.926  32.912  12.561
60979W        W32508   4.709  38.883   4.190
60980W        W32509  38.479  13.080   4.234
60981W        W32510  43.811  15.156  12.672
60982W        W32511  11.390  35.570   4.511
60983W        W32512  35.953  10.320  14.581
60984W        W32513  15.844  31.428  10.908
60985W        W32514  41.526   5.060   0.857
60986W        W32515  27.984  44.334  10.281
60987W        W32516  30.466   4.059   3.568
60988W        W32517  30.713  44.522   3.599
60989W        W32518   9.786  18.120  13.529
60990W        W32519  20.618  25.582   3.319
60991W        W32520  30.229   2.139  10.590
60992W        W32521  30.520   1.584  11.418
60993W        W32522  17.107  32.351   4.056
60994W        W32523  26.058   5.402   0.917
60995W        W32524  33.613   7.726   0.870
60996W        W32525  37.801  23.055  14.227
60997W        W32526   4.435  21.280  13.453
60998W        W32527   7.688  41.257  13.113
60999W        W32528  24.044   6.094   0.225
61000W        W32529  39.995  34.792  12.596
61001W        W32530   5.546  25.072   4.094
61002W        W32531  15.792  29.138   3.456
61003W        W32532  43.092  30.181  13.877
61004W        W32533   7.844  34.900  14.924
61005W        W32534  17.787  28.970   0.850
61006W        W32535  15.305  35.805  13.549
61007W        W32536   2.134  11.141   1.862
61008W        W32537  30.135   7.153   4.140
61009W        W32538   9.905   8.317   0.548
61010W        W32539  12.338  31.905   2.508
61011W        W32540  28.369  35.891  12.959
61012W        W32541   1.340   1.458  12.962
61013W        W32542  13.247  14.068  11.956
61014W        W32543  23.714  22.129  13.062
61015W        W32544  14.913   6.257  14.976
61016W        W32545   2.655   1.240   3.675
61017W        W32546  17.568  26.110   0.839
61018W        W32547  42.509  13.126   1.901
61019W        W32548   2.325  34.476  14.178
61020W        W32549  29.001   7.629  12.180
61021W        W32550  21.127  17.846  11.153
61022W        W32551   7.263  43.212  10.670
61023W        W32552  24.582  23.269   1.825
61024W        W32553  32.395   9.288  11.891
61025W        W32554   4.816   4.206   2.733
61026W        W32555  24.166  10.601   1.347
61027W        W32556  25.148   7.625   2.764
61028W        W32557  24.955  34.490  12.970
61029W        W32558  35.535  10.673  12.394
61030W        W32559  29.197   2.792  13.073
61031W        W32560  21.907   8.853   0.396
61032W        W32561  16.772  27.404  12.118
61033W        W32562   2.508   9.275  11.980
61034W        W32563  12.134  42.743   0.872
61035W        W32564   7.732   9.125   4.536
61036W        W32565   6.679  19.106   1.818
61037W        W32566  21.666  24.098   0.413
61038W        W32567  32.182   6.790  12.026
61039W        W32568  17.536  30.839  14.171
61040W        W32569  16.605   7.868   1.879
61041W        W32570  38.382  41.750  14.233
61042W        W32571  28.019   4.278   2.183
61043W        W32572   0.820  39.572  14.617
61044W        W32573  12.761  13.195  14.353
61045W        W32574   1.251  18.633  12.823
61046W        W32575   8.250  42.793   3.130
61047W        W32576  31.097  15.742   3.559
61048W        W32577  22.565  22.657   2.201
61049W        W32578  36.097  18.394  11.915
61050W        W32579  28.190  25.763   0.383
61051W        W32580  17.349  31.024   1.960
61052W        W32581   2.166  25.920   1.704
61053W        W32582  29.483  13.624   1.953
61054W        W32583   4.389  17.597   2.365
61055W        W32584  44.559  19.065  13.485
61056W        W32585  14.512  37.482  11.914
61057W        W32586  25.738   3.728  14.916
61058W        W32587  33.274  24.730   2.204
61059W        W32588   8.852   8.984  13.578
61060W        W32589  42.865  24.604  11.414
61061W        W32590  26.291  12.887  13.472
61062W        W32591  41.221   6.389   1.961
61063W        W32592  38.527   9.930  10.389
61064W        W32593   7.779  44.842   1.630
61065W        W32594  22.508  14.854   0.875
61066W        W32595  21.726  31.091  14.313
61067W        W32596   1.140  11.404   3.672
61068W        W32597  35.561  27.135  11.164
61069W        W32598  11.736  36.188   3.208
61070W        W32599  30.870   6.021  13.432
61071W        W32600  25.693  39.688  14.797
61072W        W32601  19.967  10.247  11.217
61073W        W32602  41.117  12.405  10.648
61074W        W32603  37.310  43.861  12.573
61075W        W32604  13.800  25.894   1.301
61076W        W32605  42.440  34.341  12.363
61077W        W32606  33.755  43.427  10.766
61078W        W32607  23.653  23.207   1.827
61079W        W32608   3.216  35.924   3.725
61080W        W32609  40.366  17.103  14.956
61081W        W32610  11.423  12.430   1.050
61082W        W32611  18.421  22.845   4.100
61083W        W32612   9.751  38.126   1.659
61084W        W32613  42.776  30.098  14.346
61085W        W32614  24.878  21.998  13.924
61086W        W32615  36.592   5.331   1.809
61087W        W32616   8.726  26.471  10.875
61088W        W32617  13.755  12.113  12.402
61089W        W32618  12.060  36.611  13.058
61090W        W32619  32.914   6.904   3.595
61091W        W32620  22.631   7.725   4.684
61092W        W32621  15.022  21.763   4.777
61093W        W32622  10.631  38.331   2.669
61094W        W32623  37.899  23.220   3.131
61095W        W32624  19.055  43.393   0.755
61096W        W32625   3.337  32.139  13.311
61097W        W32626  37.404   6.129   1.432
61098W        W32627  20.095  39.287   1.280
61099W        W32628  42.235  22.278  11.571
61100W        W32629  28.801  27.247  12.058
61101W        W32630  26.628  38.962  10.791
61102W        W32631  38.996  40.691  14.732
61103W        W32632  42.080  33.340  10.986
61104W        W32633  15.735   0.005  14.269
61105W        W32634  33.897  27.140  13.090
61106W        W32635  42.368  41.417   4.320
61107W        W32636   2.751  12.908   2.858
61108W        W32637   5.792   6.899  13.111
61109W        W32638  21.548  35.566  10.708
61110W        W32639   0.955   2.372   1.630
61111W        W32640   5.168  19.443   5.460
61112W        W32641  37.214  19.586  12.586
61113W        W32642   0.292  44.705  13.414
61114W        W32643  25.583  42.439   3.344
61115W        W32644  16.284  15.277  14.926
61116W        W32645   6.342  35.476  14.020
61117W        W32646  17.233   4.206   2.366
61118W        W32647  14.700   7.418  14.535
61119W        W32648  41.314  10.633  13.194
61120W        W32649  39.852  23.499   0.906
61121W        W32650  22.499  24.230  12.040
61122W        W32651   7.212  14.226   4.530
61123W        W32652  33.535  43.386   0.978
61124W        W32653  17.169  22.311  11.705
61125W        W32654  26.457  42.790   5.096
61126W        W32655  30.644  28.406  13.936
61127W        W32656   0.851  30.598  12.383
61128W        W32657   5.733  13.270   0.316
61129W        W32658  43.383  11.011   2.258
61130W        W32659  44.864  43.394   1.709
61131W        W32660  18.706  23.196   4.814
61132W        W32661  23.999  18.178  11.431
61133W        W32662   0.012   9.893  14.423
61134W        W32663  32.993  16.312   2.342
61135W        W32664  34.002  24.410   3.441
61136W        W32665  44.906  16.609   1.049
61137W        W32666  40.600  22.174  12.444
61138W        W32667  40.985  38.682  11.195
61139W        W32668  21.596  34.478  11.233
61140W        W32669  15.662  11.589   2.835
61141W        W32670  27.549  18.613  14.361
61142W        W32671   0.309  44.326  12.014
61143W        W32672  27.442  18.197  12.534
61144W        W32673  15.340  19.205  12.616
61145W        W32674  37.105   2.366   4.818
61146W        W32675  10.310  31.218  14.385
61147W        W32676   4.204  10.117   2.696
61148W        W32677  11.078   5.901   4.526
61149W        W32678  11.373  22.482  13.632
61150W        W32679  35.872  25.083  11.470
61151W        W32680  20.476  41.449   0.498
61152W        W32681  35.988  11.334  11.894
61153W        W32682  29.030   8.972  14.244
61154W        W32683  15.143  13.176   3.786
61155W        W32684  21.395  23.359   2.203
61156W        W32685  44.795  16.388  13.905
61157W        W32686  29.880   3.745  14.602
61158W        W32687   4.058  43.883   0.288
61159W        W32688  27.741  40.969   0.702
61160W        W32689  27.542  39.809  11.153
61161W        W32690  29.123  19.567   4.425
61162W        W32691  41.083  33.412   0.982
61163W        W32692  21.740  18.470   1.315
61164W        W32693   1.213  30.596  10.561
61165W        W32694  24.533  38.842   3.253
61166W        W32695  10.611  13.889   3.807
61167W        W32696  36.568  27.698  14.453
61168W        W32697  39.451   2.712   2.345
61169W        W32698  43.033   0.937  14.538
61170W        W32699  16.066  23.974   2.769
61171W        W32700  11.102  16.316  14.148
61172W        W32701  26.371  37.411  11.641
61173W        W32702  10.435  20.735  14.177
61174W        W32703  28.800  26.465  10.669
61175W        W32704  37.337  43.442  14.088
61176W        W32705  34.576   9.647  11.545
61177W        W32706  25.160  20.669   0.252
61178W        W32707  24.021  26.451  12.918
61179W        W32708   4.762   0.025  14.919
61180W        W32709  30.171  41.801  14.971
61181W        W32710  17.777  12.669   3.384
61182W        W32711  10.639  34.772  14.548
61183W        W32712  33.325  44.501   0.167
61184W        W32713   1.889  33.300   3.744
61185W        W32714  42.733  22.493   2.255
61186W        W32715  23.144  11.226  12.511
61187W        W32716  12.740  39.909  14.603
61188W        W32717  22.396  24.341   1.625
61189W        W32718   7.982  31.428  12.897
61190W        W32719  43.440   6.666   2.232
61191W        W32720  19.290   2.538   2.169
61192W        W32721  28.982   4.048  14.261
61193W        W32722  43.426   2.306   4.113
61194W        W32723  28.927   8.669  13.812
61195W        W32724   6.018  10.664   1.836
61196W        W32725  44.259  34.015  14.265
61197W        W32726  42.760  17.806  12.949
61198W        W32727  28.433   1.963  10.903
61199W        W32728  24.178  28.540  10.901
61200W        W32729  32.700  33.136  10.673
61201W        W32730  40.974  42.945   4.604
61202W        W32731  15.678   3.946   5.004
61203W        W32732  30.077  22.598   1.851
61204W        W32733  26.469   0.521  13.946
61205W        W32734  36.955  13.121  13.299
61206W        W32735  40.961  15.051   1.705
61207W        W32736  44.795   4.985  13.547
61208W        W32737  15.091  25.145  12.061
61209W        W32738  11.270  31.755   3.174
61210W        W32739  38.822   0.798   2.573
61211W        W32740  12.740  17.856   2.264
61212W        W32741  19.169  42.375   4.013
61213W        W32742  23.468  14.939  12.679
61214W        W32743  40.917  29.709  14.356
61215W        W32744  44.761  30.547   4.569
61216W        W32745  10.443  22.453  14.252
61217W        W32746  29.745  10.927  11.749
61218W        W32747  34.928  42.231   4.535
61219W        W32748  42.935  30.540   4.423
61220W        W32749   9.597   8.013  14.783
61221W        W32750   3.385   2.835  12.853
61222W        W32751   4.787   2.413  12.835
61223W        W32752  10.875  22.756   1.859
61224W        W32753   4.290  33.591   1.650
61225W        W32754   6.440  34.611   2.469
61226W        W32755  10.998  19.087  11.207
61227W        W32756   3.399  11.312  14.327
61228W        W32757  10.308  32.096  12.035
61229W        W32758   9.098  34.436   2.141
61230W        W32759  11.202  16.299   0.533
61231W        W32760  11.826  29.672   2.246
61232W        W32761  14.710  19.287  10.656
61233W        W32762  40.334  27.652  11.064
61234W        W32763   9.598  43.500   3.188
61235W        W32764  19.265  30.671  14.026
61236W        W32765  11.140  38.309  11.545
61237W        W32766  30.195   3.391  11.147
61238W        W32767  18.200  25.655   3.128
61239W        W32768  23.567  21.772  14.809
61240W        W32769  15.928  25.937   4.719
61241W        W32770  32.800  31.959  14.461
61242W        W32771  36.148   8.153  10.607
61243W        W32772   9.603  30.912   4.336
61244W        W32773  19.984  15.860   1.935
61245W        W32774   0.771   8.749  13.028
61246W        W32775   6.598  32.625   0.032
61247W        W32776  42.660   1.778   2.412
61248W        W32777  19.493  43.836   3.712
61249W        W32778  14.443  43.446   2.647
61250W        W32779  11.289  12.423  11.923
61251W        W32780   9.818  23.417   3.340
61252W        W32781   1.914  25.209   4.168
61253W        W32782  15.176  12.095  12.890
61254W        W32783  26.023   4.062   4.134
61255W        W32784  31.779  23.049  12.091
61256W        W32785   2.336  18.247   2.833
61257W        W32786  40.131  39.485  11.442
61258W        W32787  35.060  36.475  13.476
61259W        W32788  40.935  15.657   2.791
61260W        W32789   1.279  43.386  13.434
61261W        W32790  17.003  27.059  13.977
61262W        W32791  12.670  19.443  12.838
61263W        W32792  29.285  16.873  13.068
61264W        W32793  15.236  43.801  10.523
61265W        W32794   5.761  28.092   0.840
61266W        W32795  44.490  30.959  10.640
61267W        W32796  21.712  33.749   1.587
61268W        W32797  10.346  14.595   2.334
61269W        W32798  21.962  10.771  14.789
61270W        W32799  40.589  37.486  13.931
61271W        W32800  35.567  36.580   4.574
61272W        W32801  19.127  21.895   4.597
61273W        W32802  23.969  31.673  13.283
61274W        W32803  38.618  12.762  12.879
61275W        W32804  43.920  33.980  13.476
61276W        W32805  29.139  27.941   0.487
61277W        W32806  26.301  25.308   3.146
61278W        W32807  14.878  37.504  14.539
61279W        W32808  15.412   5.201  12.947
61280W        W32809  36.894  42.956  12.048
61281W        W32810  20.053  26.033   2.726
61282W        W32811  39.907  10.306  12.936
61283W        W32812  22.661  18.071  14.043
61284W        W32813  33.414  38.660   2.756
61285W        W32814  20.170  44.993   2.187
61286W        W32815  12.385  31.453   0.340
61287W        W32816   1.738  38.804   2.955
61288W        W32817   4.441  14.724  11.497
61289W        W32818  14.696  43.260   4.676
61290W        W32819  14.335  32.667   3.049
61291W        W32820  33.455  11.045   3.108
61292W        W32821  21.456  25.083  13.918
61293W        W32822  16.056  44.128   3.228
61294W        W32823   2.603  28.281  11.982
61295W        W32824  23.436   4.943   4.648
61296W        W32825  16.131  27.646   0.307
61297W        W32826  16.408  40.829   3.375
61298W        W32827  22.159   8.399   0.613
61299W        W32828  23.805   5.676   0.817
61300W        W32829   8.722  19.606   5.561
61301W        W32830  16.808  11.865   0.369
61302W        W32831  25.055  41.452  12.178
61303W        W32832  21.535  36.104  10.661
61304W        W32833   9.677  24.862  13.455
61305W        W32834  31.416  36.110   4.604
61306W        W32835   2.832   7.712   1.693
61307W        W32836  12.619  14.068   3.117
61308W        W32837   7.616  16.593   3.315
61309W        W32838  19.242   9.330   0.468
61310W        W32839  35.408  13.655   2.301
61311W        W32840  39.385  37.635  10.688
61312W        W32841  29.650  31.371  14.828
61313W        W32842  15.053  40.507   0.374
61314W        W32843  14.550  39.325   2.277
61315W        W32844  23.414  44.986  11.579
61316W        W32845   7.339   5.358   4.526
61317W        W32846   8.132  21.090   1.750
61318W        W32847  40.434  43.580   1.278
61319W        W32848   2.910  23.693   0.376
61320W        W32849   4.253   0.712  12.257
61321W        W32850  36.880   6.398   2.852
61322W        W32851  40.393  19.292   2.419
61323W        W32852  14.605  12.664  12.593
61324W        W32853  36.588  25.678  14.812
61325W        W32854  30.492  36.134  11.568
61326W        W32855  23.229   4.360   2.778
61327W        W32856  22.797  13.125  11.091
61328W        W32857  25.515  25.257  13.009
61329W        W32858  29.138  40.303  11.918
61330W        W32859   3.103   0.511   0.246
61331W        W32860   2.742  17.223  11.438
61332W        W32861  10.826  11.435   2.832
61333W        W32862  22.098  35.858   0.960
61334W        W32863   2.342  31.607   3.178
61335W        W32864  39.477  27.735  13.346
61336W        W32865  18.622  27.513   2.808
61337W        W32866  13.624  30.546   3.113
61338W        W32867  24.027  21.068  14.260
61339W        W32868  10.230  42.265   3.749
61340W        W32869  19.510  26.101   0.824
61341W        W32870  15.382  28.280   3.276
61342W        W32871   4.270  44.949  13.838
61343W        W32872  12.900  31.138  14.447
61344W        W32873   0.502  30.110   1.607
61345W        W32874  35.026  16.090  13.522
61346W        W32875  24.302   8.698  13.918
61347W        W32876  36.749  12.421   1.297
61348W        W32877  26.283  43.283  13.183
61349W        W32878  11.199  41.045  13.133
61350W        W32879  37.862  11.804   4.043
61351W        W32880  32.409  29.811  13.798
61352W        W32881  20.136  42.230  13.764
61353W        W32882  41.248   9.619   0.076
61354W        W32883  11.168  38.677   2.950
61355W        W32884  25.620  28.163   3.143
61356W        W32885  34.549  11.737   2.097
61357W        W32886  44.205  34.473   4.158
61358W        W32887  33.406  43.831  13.963
61359W        W32888  29.608   5.791  14.923
61360W        W32889   7.071  15.115   1.677
61361W        W32890  41.277  11.186   0.456
61362W        W32891   8.193   4.667  11.463
61363W        W32892   5.226   4.310   3.332
61364W        W32893  18.005  13.591  13.036
61365W        W32894  25.126  29.546  11.746
61366W        W32895  15.362  10.428   1.674
61367W        W32896  13.853   5.787  13.860
61368W        W32897  10.897  29.213   2.273
61369W        W32898  37.124   8.594   3.496
61370W        W32899  23.240   1.923  11.092
61371W        W32900  36.927   0.466  11.091
61372W        W32901  40.864  44.779   1.516
61373W        W32902  42.941  25.991   2.302
61374W        W32903   4.334   5.771   3.332
61375W        W32904  37.297  15.269  13.476
61376W        W32905  16.579  21.188   1.915
61377W        W32906   9.799  12.996  14.676
61378W        W32907  24.113   1.269   0.272
61379W        W32908   7.087  41.503   4.368
61380W        W32909  13.433  16.333   4.043
61381W        W32910  36.902  37.814   3.233
61382W        W32911  37.817  28.408   2.291
61383W        W32912   0.965  16.626  10.406
61384W        W32913  16.689   1.931   2.901
61385W        W32914  40.692  23.612   3.644
61386W        W32915  13.040  43.125  12.464
61387W        W32916  18.205   1.814   3.806
61388W        W32917  22.647   5.102   0.209
61389W        W32918  28.640  15.779   2.749
61390W        W32919  29.432  23.339  12.009
61391W        W32920  44.314  31.011  12.913
61392W        W32921  38.867  20.100   1.808
61393W        W32922   9.924  21.717   0.393
61394W        W32923  29.904  24.526  12.014
61395W        W32924  29.566   6.382  11.972
61396W        W32925   8.341  36.404   1.600
61397W        W32926  15.725  40.255  14.496
61398W        W32927   5.489  42.822   4.517
61399W        W32928  17.599  23.567   2.104
61400W        W32929   3.014   9.371  14.529
61401W        W32930  18.723  20.250  13.005
61402W        W32931  28.578   4.721   1.813
61403W        W32932   0.353  20.109   2.558
61404W        W32933  24.686  37.595   4.481
61405W        W32934  38.381  38.308  11.806
61406W        W32935  39.133   0.333   4.209
61407W        W32936  25.934  38.416  12.892
61408W        W32937   2.117  23.070   0.300
61409W        W32938  15.590   6.420   0.126
61410W        W32939  29.287   3.405  12.463
61411W        W32940  43.634  37.271  13.382
61412W        W32941  41.461  14.795  12.962
61413W        W32942  40.606  20.281   1.311
61414W        W32943  10.965  36.873   3.899
61415W        W32944  37.546  41.647  11.445
61416W        W32945  17.079  19.348  10.670
61417W        W32946  11.207  18.706  11.515
61418W        W32947  21.052  24.120   1.721
61419W        W32948   9.687  24.495   2.079
61420W        W32949   4.180   7.430   3.135
61421W        W32950  26.614  28.033  13.410
61422W        W32951   0.001  33.509   1.482
61423W        W32952  38.651   3.079  11.131
61424W        W32953  20.177  35.903  10.353
61425W        W32954  43.851  31.842  12.037
61426W        W32955   8.217  14.048   2.838
61427W        W32956  44.950   7.444  11.381
61428W        W32957  35.986  19.577   0.413
61429W        W32958  30.557  31.440   4.341
61430W        W32959  13.534  40.284   0.451
61431W        W32960  33.208  21.495  12.949
61432W        W32961  37.338   2.838  11.496
61433W        W32962  14.678  19.489  14.353
61434W        W32963  26.245  11.353  12.295
61435W        W32964  42.210  12.897   4.499
61436W        W32965  28.730  12.604   2.220
61437W        W32966  29.415  41.895  13.755
61438W        W32967   5.862   0.883  12.839
61439W        W32968   1.798   9.641   1.734
61440W        W32969  23.260  44.422  12.641
61441W        W32970  34.591   7.397   0.904
61442W        W32971  11.405  23.471   1.074
61443W        W32972  32.277  25.904   2.646
61444W        W32973  38.886  30.192   1.780
61445W        W32974  44.349  20.493   3.631
61446W        W32975  38.765  17.202  13.831
61447W        W32976  40.118  32.161  12.936
61448W        W32977  31.987  24.699  14.508
61449W        W32978   1.708  22.403   0.857
61450W        W32979  18.246  30.367   2.474
61451W        W32980  30.558   2.331   2.321
61452W        W32981  38.938  41.810   1.297
61453W        W32982  32.841  34.882   1.218
61454W        W32983   1.039  25.886   3.752
61455W        W32984   7.340  43.194   2.834
61456W        W32985  26.275  20.785  11.977
61457W        W32986  41.420  10.191   1.338
61458W        W32987   3.493  10.093  14.871
61459W        W32988  27.744  22.699   4.254
61460W        W32989   7.209  29.332   0.624
61461W        W32990  28.183   2.091  12.651
61462W        W32991   3.433   1.396   1.880
61463W        W32992  39.529  23.633  12.915
61464W        W32993  29.851  29.088   1.921
61465W        W32994  10.679  16.561  14.319
61466W        W32995  24.452  42.466   4.399
61467W        W32996  44.275  36.351   3.176
61468W        W32997  13.192  21.484  10.767
61469W        W32998  17.628  29.138   4.125
61470W        W32999  13.425  13.278   4.558
61471W        W33000  36.852  40.948   4.206
61472W        W33001   1.794  35.996   1.923
61473W        W33002  22.101  22.516   1.881
61474W        W33003  44.218   9.819  11.177
61475W        W33004  20.089  27.911  10.443
61476W        W33005  35.773  43.449  10.588
61477W        W33006   2.768   9.451  13.536
61478W        W33007   1.735  10.256   3.555
61479W        W33008  19.233   4.129  14.994
61480W        W33009  14.733  25.124   5.353
61481W        W33010  34.476  33.943  14.862
61482W        W33011  33.586  28.141  12.003
61483W        W33012  19.492  38.069   4.251
61484W        W33013  29.618  28.455  13.394
61485W        W33014  19.393  36.833   4.571
61486W        W33015  43.514  34.043  12.662
61487W        W33016   3.727  10.849   2.866
61488W        W33017  37.299  26.127  11.156
61489W        W33018  16.669   2.156  13.530
61490W        W33019  13.049  13.823   2.928
61491W        W33020  41.599  18.670  14.971
61492W        W33021   1.358  43.928  13.313
61493W        W33022  37.077  11.756  13.888
61494W        W33023  34.005  16.180  12.643
61495W        W33024  31.523  28.858  12.938
61496W        W33025  11.807  19.083  13.802
61497W        W33026  15.564  27.167   1.150
61498W        W33027  31.999  15.395   2.779
61499W        W33028  12.251   1.942   2.568
61500W        W33029   0.834  28.027  12.454
61501W        W33030  21.948  23.660   0.293
61502W        W33031   3.942  39.366   4.312
61503W        W33032  13.929   1.426   4.614
61504W        W33033  18.942  28.222  13.301
61505W        W33034  29.271  13.366  10.945
61506W        W33035  34.778   6.544   3.247
61507W        W33036  30.472  13.053   4.135
61508W        W33037  43.881  41.088   2.946
61509W        W33038  14.184   1.309  12.847
61510W        W33039  40.532  23.476   1.509
61511W        W33040  35.910  32.416   0.350
61512W        W33041  13.187  14.889  11.536
61513W        W33042  39.023  38.328  12.101
61514W        W33043   2.726   9.032   0.945
61515W        W33044  44.198  26.522  11.063
61516W        W33045  30.552   1.727   4.257
61517W        W33046  32.559  13.763   2.387
61518W        W33047  20.644  33.867  14.891
61519W        W33048  43.956  20.112  10.372
61520W        W33049  36.848  16.560   3.643
61521W        W33050   4.209   5.664  11.101
61522W        W33051  15.673   0.275  13.328
61523W        W33052  39.366   0.789   1.708
61524W        W33053  30.041  37.459  11.521
61525W        W33054  19.077   4.212   0.482
61526W        W33055  19.926  20.090  11.489
61527W        W33056  44.796  15.191   3.804
61528W        W33057   6.003  34.669  14.475
61529W        W33058  41.826  36.447  10.821
61530W        W33059  30.878  18.806  13.377
61531W        W33060  20.043  44.342  13.394
61532W        W33061  28.982   2.883   0.218
61533W        W33062  23.973  13.921   4.303
61534W        W33063  28.423  14.490  14.946
61535W        W33064   9.685  27.092  13.159
61536W        W33065  18.458  25.767  13.918
61537W        W33066  28.907  17.082  12.363
61538W        W33067  17.228  11.658  11.527
61539W        W33068  13.801   5.895  11.153
61540W        W33069  33.097  11.587   3.754
61541W        W33070  36.584  12.170  12.711
61542W        W33071   8.741  13.604  10.386
61543W        W33072  22.016  30.600   3.140
61544W        W33073  22.462   0.359  13.011
61545W        W33074  17.672  23.182   3.876
61546W        W33075  34.909  13.410  10.850
61547W        W33076  14.646  10.295  10.581
61548W        W33077  38.795  33.159   2.410
61549W        W33078  44.193  25.126   1.271
61550W        W33079  16.841  14.570  13.492
61551W        W33080  10.151  17.157   2.249
61552W        W33081  17.301  38.854   1.957
61553W        W33082  27.876  36.039  12.322
61554W        W33083  18.091   1.382   1.015
61555W        W33084   6.283  11.179  13.991
61556W        W33085  19.644  22.436   3.681
61557W        W33086  41.280  27.997  14.969
61558W        W33087  39.330   7.599   4.614
61559W        W33088  27.461   5.281   3.384
61560W        W33089  30.422  42.922   0.925
61561W        W33090  41.780  16.486   1.857
61562W        W33091  14.831   5.850  11.022
61563W        W33092  37.946  20.769   3.216
61564W        W33093   3.864  15.816  14.958
61565W        W33094  17.540   9.877  14.027
61566W        W33095  18.609   2.450  12.673
61567W        W33096   2.430  28.835  10.665
61568W        W33097  28.227  26.635   3.056
61569W        W33098  24.224   4.946  13.915
61570W        W33099  13.692  25.495   3.967
61571W        W33100  11.267  36.938   1.244
61572W        W33101  19.028  13.567  11.634
61573W        W33102  29.697  42.675  12.989
61574W        W33103   8.687  28.794  13.458
61575W        W33104  37.485  21.728   4.178
61576W        W33105   0.563  24.077   4.838
61577W        W33106  39.359  15.240  13.142
61578W        W33107  17.132   0.314   4.159
61579W        W33108  24.491  31.570   0.469
61580W        W33109  43.892  22.984   2.220
61581W        W33110  30.456  35.646   3.256
61582W        W33111  27.010   1.380   3.237
61583W        W33112   5.216  41.351   2.831
61584W        W33113   2.362  39.748  10.662
61585W        W33114  14.063   0.389   3.322
61586W        W33115  36.917  44.853   1.814
61587W        W33116  13.198  42.734  11.170
61588W        W33117  37.484  41.013  12.238
61589W        W33118  39.508   4.383  12.535
61590W        W33119  11.320  22.079   0.913
61591W        W33120  32.727  43.500  13.037
61592W        W33121  12.130  39.039  14.816
61593W        W33122  36.897  10.260  12.915
61594W        W33123  17.092  22.676   5.331
61595W        W33124  27.410  11.309   2.626
61596W        W33125  15.607   1.239  12.925
61597W        W33126   1.416  26.603  12.589
61598W        W33127  13.344  17.583   1.325
61599W        W33128  16.058   6.945  12.809
61600W        W33129  28.836  22.594   0.722
61601W        W33130  31.778  20.531  13.548
61602W        W33131  12.083  28.078   3.809
61603W        W33132  37.999  44.990   4.783
61604W        W33133  40.439  12.192  10.758
61605W        W33134   6.482   3.786   1.954
61606W        W33135  21.268   3.395  12.054
61607W        W33136  35.204  43.818  12.052
61608W        W33137   1.997  11.202   2.977
61609W        W33138  32.153  29.052   4.262
61610W        W33139  11.010   5.386  11.463
61611W        W33140  31.944  39.329   2.334
61612W        W33141  23.650  40.946  13.874
61613W        W33142  29.863  39.746   3.778
61614W        W33143  40.303  26.351  14.922
61615W        W33144  28.313   7.892  11.518
61616W        W33145   6.390  36.531   4.637
61617W        W33146  27.411   7.892   0.464
61618W        W33147  28.884  18.262   0.318
61619W        W33148  44.815  44.738  10.673
61620W        W33149  26.199  16.747   2.637
61621W        W33150  31.389  32.810   3.258
61622W        W33151  28.310  18.198   1.215
61623W        W33152  26.395  21.934  13.894
61624W        W33153   3.762  12.176   3.531
61625W        W33154   9.470  23.153  14.022
61626W        W33155   6.603  33.936  11.950
61627W        W33156   5.198  33.603  14.181
61628W        W33157  10.634  40.572   2.348
61629W        W33158  21.390  37.205  11.552
61630W        W33159   2.274  43.857   3.371
61631W        W33160   3.237  39.389  13.383
61632W        W33161  30.111  13.174   2.170
61633W        W33162  42.005  29.504   3.337
61634W        W33163  32.892  11.575  14.444
61635W        W33164  29.011  35.765   4.198
61636W        W33165  18.584  30.964  13.355
61637W        W33166  15.561  27.693  14.536
61638W        W33167  18.229  22.590   2.799
61639W        W33168  37.629   5.686   1.149
61640W        W33169   4.835   0.612   4.709
61641W        W33170  33.592  13.366   5.170
61642W        W33171  38.770   9.353   3.333
61643W        W33172   8.824   8.644   3.746
61644W        W33173  23.895   1.771  13.820
61645W        W33174  35.597  23.091   3.839
61646W        W33175  22.548   7.880  10.107
61647W        W33176  28.789  11.701  14.682
61648W        W33177  18.502  22.316  12.418
61649W        W33178  33.229  31.971   4.552
61650W        W33179  29.969  31.903   3.760
61651W        W33180  18.548  39.001  14.526
61652W        W33181  10.752  18.499  11.405
61653W        W33182  29.643  42.171  12.994
61654W        W33183  38.796  33.013   1.262
61655W        W33184  15.373  15.538  13.245
61656W        W33185   1.319  15.958  11.997
61657W        W33186  30.056   2.326  12.170
61658W        W33187   4.810  15.539  13.798
61659W        W33188  22.957  38.966   2.244
61660W        W33189  41.281  39.279  14.366
61661W        W33190  26.479   4.342  11.499
61662W        W33191  38.073  36.796   2.497
61663W        W33192  36.480  36.620   2.927
61664W        W33193   5.635  29.773   2.608
61665W        W33194   2.692  36.115  14.763
61666W        W33195  12.305  36.136  13.001
61667W        W33196  42.495   1.843  14.833
61668W        W33197  41.340  43.989   1.665
61669W        W33198  24.238  35.618  13.893
61670W        W33199  24.773  39.008   1.934
61671W        W33200  42.467  42.092  14.416
61672W        W33201  24.141  39.320  10.516
61673W        W33202  31.450  15.319  13.476
61674W        W33203  25.955  27.669   3.275
61675W        W33204  36.072   6.936   2.792
61676W        W33205   1.128  35.479   4.055
61677W        W33206  14.678   3.265   0.335
61678W        W33207   0.233  13.316  12.350
61679W        W33208  44.865   9.905   4.580
61680W        W33209  11.776  17.295  11.126
61681W        W33210  18.719  13.242  10.756
61682W        W33211  10.849  16.706   4.130
61683W        W33212  43.079  12.398  11.827
61684W        W33213  37.832   7.883   2.761
61685W        W33214  14.303   0.527  14.946
61686W        W33215  17.265  16.251  14.759
61687W        W33216  44.402  39.872  11.185
61688W        W33217  19.206   9.351  12.419
61689W        W33218  33.060   0.957   4.348
61690W        W33219   5.770  10.137   1.203
61691W        W33220  32.666  39.013   2.211
61692W        W33221  27.392  17.513   3.792
61693W        W33222  41.248  41.937   2.354
61694W        W33223   1.839  33.612   4.148
61695W        W33224  32.136  44.703   1.220
61696W        W33225  37.962  28.131  13.316
61697W        W33226  43.963   9.336  12.075
61698W        W33227  22.217   9.358   0.338
61699W        W33228  34.318  36.343  14.790
61700W        W33229   8.559  13.321   2.396
61701W        W33230  26.502  21.258   1.228
61702W        W33231  40.688  21.767   2.948
61703W        W33232   4.349  36.324   0.275
61704W        W33233  41.500  32.366   0.339
61705W        W33234  38.396   6.325  11.218
61706W        W33235  10.895  40.999   3.831
61707W        W33236  21.390   2.861  14.889
61708W        W33237  33.132  16.111   4.881
61709W        W33238  12.810  23.599   1.657
61710W        W33239  42.569   8.445  11.983
61711W        W33240  25.248  40.295  11.587
61712W        W33241  14.144  37.147  12.162
61713W        W33242   4.682   0.518  10.260
61714W        W33243  26.431  42.775   4.578
61715W        W33244   6.035  18.131  14.313
61716W        W33245   9.474  13.206  14.329
61717W        W33246  15.539   1.760   1.865
61718W        W33247  44.271  30.015   4.786
61719W        W33248  41.002  35.332   2.366
61720W        W33249   5.344  36.254  13.323
61721W        W33250  41.880  22.809  11.104
61722W        W33251  36.117   2.989  14.874
61723W        W33252  24.075  26.683   1.892
61724W        W33253  16.665  15.036   0.643
61725W        W33254  12.639  36.856   2.775
61726W        W33255  26.269  40.815  11.042
61727W        W33256  25.326  20.618  12.150
61728W        W33257  18.622  18.188   0.441
61729W        W33258  19.400  20.291  12.385
61730W        W33259  19.633  38.512  10.757
61731W        W33260  23.067  28.695  10.550
61732W        W33261  17.783   6.221   1.766
61733W        W33262  13.245  13.770  12.366
61734W        W33263  41.457  35.259   3.290
61735W        W33264   8.454  20.047   2.106
61736W        W33265  15.887  43.530   2.748
61737W        W33266  40.210  38.786  12.094
61738W        W33267  20.368  28.694   4.614
61739W        W33268   9.279  18.552  13.004
61740W        W33269  17.217   3.973   4.644
61741W        W33270  38.421   9.742   4.230
61742W        W33271  27.429  39.502  10.758
61743W        W33272  44.921  29.168  14.374
61744W        W33273   9.531  29.548  12.960
61745W        W33274   6.779  12.871   4.565
61746W        W33275  13.074  25.232   5.074
61747W        W33276   0.482   3.700   3.736
61748W        W33277  16.334  35.033   0.760
61749W        W33278   9.019  41.374   5.118
61750W        W33279  36.438  26.192   2.177
61751W        W33280   3.242   3.378   1.345
61752W        W33281  19.344  40.981  11.433
61753W        W33282  32.592  35.061  12.565
61754W        W33283  33.367  20.183   1.048
61755W        W33284  44.100  23.349   1.408
61756W        W33285  41.908  13.901   1.475
61757W        W33286  16.124   0.195   2.194
61758W        W33287  19.561  40.307  13.392
61759W        W33288   3.240   6.296  11.602
61760W        W33289  32.360  26.890   5.502
61761W        W33290  17.630  34.449  14.256
61762W        W33291  17.366   6.224  10.861
61763W        W33292  16.847  30.586  13.371
61764W        W33293  16.594  37.970   0.513
61765W        W33294  25.000  39.699   3.145
61766W        W33295   3.738   8.152  13.010
61767W        W33296  24.693  35.374   2.331
61768W        W33297  19.720  38.114   2.925
61769W        W33298  40.884   3.764  12.893
61770W        W33299   6.014   1.634   0.453
61771W        W33300  29.996  37.874  11.808
61772W        W33301  42.896  14.708  13.754
61773W        W33302  14.535  40.596   0.498
61774W        W33303  38.144  25.665   3.320
61775W        W33304   2.567  21.092   0.298
61776W        W33305   4.983  19.544  12.462
61777W        W33306  28.459  11.447  14.389
61778W        W33307  15.380  35.981  12.409
61779W        W33308  10.856  36.366  10.734
61780W        W33309  16.817   7.267   4.105
61781W        W33310  38.925  30.589   2.150
61782W        W33311   9.733  34.947  10.621
61783W        W33312  32.026  27.727   2.372
61784W        W33313  32.489   0.549  14.101
61785W        W33314  21.978  20.488  12.596
61786W        W33315  25.693  26.656   2.470
61787W        W33316  13.764  43.348   0.286
61788W        W33317  24.917  21.251  13.402
61789W        W33318  18.220  29.358  13.487
61790W        W33319  13.336  27.882   3.712
61791W        W33320  17.253  44.478   1.186
61792W        W33321  16.495  11.309   1.254
61793W        W33322   3.216  32.732  12.752
61794W        W33323  17.569  13.032   0.384
61795W        W33324  11.989  17.818  10.475
61796W        W33325  16.988  12.316   2.917
61797W        W33326  30.390   7.869  10.719
61798W        W33327   5.844  40.554   2.958
61799W        W33328   6.844  31.009   2.862
61800W        W33329  16.387  19.246  10.181
61801W        W33330   2.461   2.358  14.980
61802W        W33331  36.004  28.427  12.114
61803W        W33332   5.144   8.512  13.936
61804W        W33333  23.561  27.782  13.948
61805W        W33334  23.845  18.783  11.203
61806W        W33335  19.072  14.989   1.870
61807W        W33336   2.976   7.630  10.774
61808W        W33337  25.474  29.879   2.195
61809W        W33338  28.360  36.798  12.465
61810W        W33339  13.397   1.934   5.109
61811W        W33340  31.227  41.895  11.036
61812W        W33341  34.591  18.687   3.757
61813W        W33342  14.070  24.918   1.420
61814W        W33343   3.926   8.420  12.148
61815W        W33344  12.807   8.775  12.463
61816W        W33345  39.327  44.832  13.371
61817W        W33346  32.692  28.029   4.605
61818W        W33347  16.220  10.973  12.610
61819W        W33348  22.696  11.251   4.553
61820W        W33349  39.779  19.578   0.335
61821W        W33350   6.455   4.261  12.520
61822W        W33351  17.737  35.100   0.377
61823W        W33352  24.019  13.974   4.825
61824W        W33353  37.456  10.373   4.973
61825W        W33354  14.007   6.762   4.382
61826W        W33355  22.517  42.716  11.383
61827W        W33356  44.410  24.698   5.145
61828W        W33357  30.817  25.474  11.986
61829W        W33358  34.367  17.586  12.903
61830W        W33359  12.092   2.182   4.932
61831W        W33360  17.198   4.204   1.844
61832W        W33361   0.314  41.893   0.887
61833W        W33362  39.092  11.051   1.327
61834W        W33363  36.017  27.007  11.409
61835W        W33364  29.279  34.491  11.117
61836W        W33365  41.777   8.898   2.711
61837W        W33366  26.752  22.038   3.607
61838W        W33367   8.210   6.372  14.779
61839W        W33368  32.538  20.657  12.163
61840W        W33369   5.817  26.267  13.934
61841W        W33370  31.569  26.646   0.066
61842W        W33371  13.945  36.224  14.844
61843W        W33372  31.643  35.947  12.928
61844W        W33373  41.403   2.394  12.250
61845W        W33374  13.011  25.053   2.466
61846W        W33375  36.503  17.239   4.147
61847W        W33376  35.632   9.201  12.626
61848W        W33377  24.056  18.183   4.536
61849W        W33378  35.587  43.137   4.070
61850W        W33379  29.598   6.483  11.455
61851W        W33380   5.147  35.529   4.189
61852W        W33381  20.668   0.996   4.163
61853W        W33382  38.373  27.033   4.029
61854W        W33383   2.766  19.856  13.785
61855W        W33384  42.142   7.718  14.364
61856W        W33385  16.848   1.715  13.342
61857W        W33386   0.503  37.154   4.448
61858W        W33387  33.496  32.592   2.425
61859W        W33388  34.939  18.373   0.876
61860W        W33389  24.969  40.396   2.808
61861W        W33390  26.374  28.382   0.313
61862W        W33391   2.375  19.173  13.408
61863W        W33392  18.731  14.152   0.487
61864W        W33393  34.996  21.610   4.622
61865W        W33394  18.218  38.958  14.970
61866W        W33395  28.644  41.308  14.506
61867W        W33396  29.042   0.915  14.745
61868W        W33397  37.582  18.266  10.479
61869W        W33398  41.858   6.387   4.900
61870W        W33399   3.437   9.268  14.239
61871W        W33400   7.276   8.355   4.994
61872W        W33401   9.880   5.287  14.386
61873W        W33402  11.814  30.587   4.611
61874W        W33403  24.196  40.513  13.405
61875W        W33404   3.404  12.930  12.751
61876W        W33405   7.981  12.576   2.755
61877W        W33406  20.107  21.644   3.941
61878W        W33407  31.516  23.972   2.241
61879W        W33408  43.352  28.784   1.899
61880W        W33409  44.265  19.700  12.132
61881W        W33410   7.697  13.181  10.903
61882W        W33411  37.102   2.366  11.525
61883W        W33412  28.521  40.870  13.538
61884W        W33413  14.615  40.911  11.224
61885W        W33414  16.200  36.391  13.975
61886W        W33415   8.481  31.439  13.374
61887W        W33416  39.820  11.365  13.970
61888W        W33417  14.239  21.308   0.475
61889W        W33418  21.420  42.521   1.548
61890W        W33419  27.161   4.234   3.612
61891W        W33420   9.020   6.934   3.910
61892W        W33421  35.011  14.179  14.052
61893W        W33422  23.208  11.962  13.890
61894W        W33423  29.815  15.850  11.910
61895W        W33424  11.820  42.326   4.625
61896W        W33425  18.600  14.450  12.213
61897W        W33426  14.142  39.927  14.555
61898W        W33427  11.193  10.216  12.034
61899W        W33428  10.286  11.010   3.667
61900W        W33429  37.468  41.534   3.743
61901W        W33430  42.062  17.947  13.658
61902W        W33431   3.015   2.307  11.923
61903W        W33432   6.755  34.905  10.525
61904W        W33433  42.913  27.539  11.600
61905W        W33434  36.197  17.891   2.819
61906W        W33435  38.098   2.355   0.022
61907W        W33436  20.315  25.143   4.119
61908W        W33437  34.093  31.491  12.521
61909W        W33438   0.934   2.391  11.022
61910W        W33439  31.319  11.099   3.077
61911W        W33440  19.468  28.237  13.175
61912W        W33441  11.584  22.084  11.067
61913W        W33442  14.578  36.263   1.877
61914W        W33443   7.699  30.226  11.568
61915W        W33444   0.492  12.714  12.775
61916W        W33445  31.223  17.663  14.433
61917W        W33446  25.469  39.539   0.248
61918W        W33447  29.520  12.647  11.691
61919W        W33448  14.017  22.803  12.179
61920W        W33449  40.806  42.947   5.081
61921W        W33450  29.199  38.276  11.964
61922W        W33451  15.182  26.554  12.573
61923W        W33452  41.943   7.222   4.685
61924W        W33453  35.052  26.168  13.878
61925W        W33454  18.789   6.030   4.320
61926W        W33455  13.135  21.598   2.224
61927W        W33456  29.858  39.385  14.349
61928W        W33457  37.527  32.174  12.378
61929W        W33458  42.377   5.372   2.764
61930W        W33459  15.865  24.959   3.285
61931W        W33460  11.910  14.180  11.641
61932W        W33461  17.299  37.998  13.418
61933W        W33462  42.539   1.400  11.107
61934W        W33463   5.701  11.300  12.352
61935W        W33464  24.231  17.701  12.124
61936W        W33465  18.613  31.155  12.880
61937W        W33466  12.502  31.435   2.641
61938W        W33467  44.827  22.960  12.560
61939W        W33468   2.299  11.650  10.111
61940W        W33469  21.112  43.233  13.933
61941W        W33470  14.858  27.700  14.542
61942W        W33471  34.666   3.808   1.474
61943W        W33472  12.106  27.125   3.327
61944W        W33473  13.976  22.277   0.589
61945W        W33474  23.792   2.670  10.729
61946W        W33475  27.972   7.770   2.391
61947W        W33476  40.118  40.291  14.385
61948W        W33477  11.361  11.056  10.804
61949W        W33478   8.565  35.649  14.846
61950W        W33479  15.243   8.204   4.252
61951W        W33480  23.286  28.291   1.786
61952W        W33481  26.982   0.688   2.617
61953W        W33482  24.043  10.251  13.388
61954W        W33483  30.180  16.208  12.410
61955W        W33484  10.555   5.686   4.384
61956W        W33485  15.722  11.745  11.363
61957W        W33486  22.992  38.419  12.008
61958W        W33487   3.939  19.661   1.647
61959W        W33488  17.251  33.412   0.356
61960W        W33489  22.859  38.706   1.432
61961W        W33490   7.241   4.745   1.933
61962W        W33491  12.747  16.384   1.229
61963W        W33492  10.165   4.694   2.634
61964W        W33493  33.498  12.876   1.433
61965W        W33494  25.943  21.161  12.580
61966W        W33495  17.253  26.397  11.142
61967W        W33496  24.747  34.468  10.758
61968W        W33497  34.846   5.164   1.213
61969W        W33498  33.897  28.491  13.770
61970W        W33499   5.260  15.279  13.861
61971W        W33500   0.486  15.905  11.124
61972W        W33501   0.078  37.031   2.764
61973W        W33502  43.383   9.355  12.958
61974W        W33503  18.172   2.862  11.091
61975W        W33504  13.134  26.892   3.129
61976W        W33505  37.591  14.341   2.408
61977W        W33506  17.713   6.585  14.876
61978W        W33507  10.210  17.603   3.386
61979W        W33508   2.984  24.010   2.313
61980W        W33509  41.066  30.669   1.359
61981W        W33510  12.211  12.079   1.209
61982W        W33511   8.357  12.438   1.821
61983W        W33512  28.420   0.360  14.096
61984W        W33513  33.071   7.213  11.456
61985W        W33514  29.971  34.152   2.405
61986W        W33515  33.572   5.434   4.083
61987W        W33516  18.887  14.844  12.007
61988W        W33517  38.350  16.780  11.977
61989W        W33518  19.248  36.016  14.460
61990W        W33519  42.871  27.191   4.589
61991W        W33520  37.396  11.164  14.231
61992W        W33521   4.868   5.221   2.675
61993W        W33522  32.181  43.179   1.336
61994W        W33523  17.993  29.517  14.842
61995W        W33524  26.950   4.265   3.132
61996W        W33525  21.688  16.517  11.116
61997W        W33526  11.969  11.663   1.469
61998W        W33527   3.840   2.494  11.354
61999W        W33528  10.795   0.887  14.257
62000W        W33529  17.732  39.890   2.123
62001W        W33530  17.371   2.829  13.203
62002W        W33531   9.774  34.535  11.538
62003W        W33532  33.688  33.012  10.118
62004W        W33533  44.234  30.899   3.566
62005W        W33534   5.872  38.942  10.943
62006W        W33535   8.093  25.025  13.106
62007W        W33536  21.089  34.324   1.464
62008W        W33537   8.801  21.132  14.765
62009W        W33538  43.351   6.811  11.268
62010W        W33539  17.044  22.700  10.332
62011W        W33540   7.141   3.421   2.798
62012W        W33541   8.833   6.920   2.813
62013W        W33542   2.215  39.875  12.633
62014W        W33543   3.273  24.807  11.135
62015W        W33544  11.325   2.417  14.440
62016W        W33545  39.982  28.951   3.294
62017W        W33546   1.258  26.456  13.389
62018W        W33547  20.004  18.589  14.336
62019W        W33548  21.629  23.252   3.607
62020W        W33549  21.748   9.494   1.041
62021W        W33550  31.996   1.462  12.856
62022W        W33551  32.985  31.148   4.200
62023W        W33552  23.614  26.402  12.052
62024W        W33553  40.730   1.453   0.430
62025W        W33554   9.217  40.313   0.470
62026W        W33555  27.891   8.302   3.005
62027W        W33556  20.584   1.026   3.129
62028W        W33557  15.610  33.459  14.862
62029W        W33558  34.549  19.469   3.183
62030W        W33559  32.405  34.955  14.390
62031W        W33560  19.827  13.135  13.005
62032W        W33561  16.893  23.302  13.126
62033W        W33562  21.683  40.352  11.594
62034W        W33563  38.967  19.758   4.124
62035W        W33564  22.670   2.719   3.276
62036W        W33565  23.617  35.621  14.288
62037W        W33566  18.339  27.605  13.373
62038W        W33567  11.228  23.957  10.530
62039W        W33568  32.616  24.111  13.560
62040W        W33569  29.895  25.666   1.661
62041W        W33570   8.640  29.765   0.753
62042W        W33571   8.924  20.202   1.980
62043W        W33572   6.420   8.319   1.205
62044W        W33573   5.916  44.349  11.618
62045W        W33574  30.352  27.463  13.225
62046W        W33575   2.120  17.747   0.020
62047W        W33576  32.857  13.547  13.459
62048W        W33577  20.189  17.668   2.460
62049W        W33578  38.749   9.201  10.807
62050W        W33579  15.355   2.772  13.285
62051W        W33580  21.776  29.703   2.245
62052W        W33581  41.270  13.459  11.499
62053W        W33582  32.138  19.657   4.589
62054W        W33583   3.686  26.446   1.992
62055W        W33584  25.369  33.855   4.747
62056W        W33585  11.596  22.123  14.427
62057W        W33586  18.259  41.350   3.219
62058W        W33587  39.748   3.490  11.177
62059W        W33588  32.917  18.348   4.132
62060W        W33589  31.073   6.513   1.459
62061W        W33590   8.721  23.399  14.348
62062W        W33591  34.822   2.427   2.678
62063W        W33592  22.487  27.059   3.734
62064W        W33593  25.248  38.236  10.678
62065W        W33594   0.304  30.350  10.644
62066W        W33595  21.146  38.863  14.398
62067W        W33596  35.950  19.590  11.536
62068W        W33597  13.062   4.352   1.748
62069W        W33598  43.062   6.132  14.387
62070W        W33599   3.443  16.346   3.230
62071W        W33600  18.743  24.726   2.854
62072W        W33601  25.727  20.627  13.531
62073W        W33602  38.155   1.823   0.815
62074W        W33603  29.906  36.052  10.735
62075W        W33604  27.073  17.217  13.796
62076W        W33605  36.152  20.272  11.481
62077W        W33606  25.120  22.015   0.446
62078W        W33607  22.192  30.432   4.356
62079W        W33608   3.858   6.201   3.813
62080W        W33609  23.765  26.039   1.680
62081W        W33610  27.120  41.420   2.715
62082W        W33611   5.685  12.430  13.452
62083W        W33612  16.942  11.707   4.724
62084W        W33613  17.586  21.153   2.806
62085W        W33614  27.893  24.054  14.992
62086W        W33615  25.167  30.071   1.178
62087W        W33616  15.094  13.253  12.034
62088W        W33617  10.918  14.404  11.519
62089W        W33618  28.162  10.641  12.487
62090W        W33619  17.798  12.182  14.774
62091W        W33620  36.887   0.759  13.434
62092W        W33621  18.804  30.814  13.818
62093W        W33622  33.365  39.889  11.537
62094W        W33623   7.462   2.924  11.878
62095W        W33624  30.817  25.827   3.246
62096W        W33625  34.366  24.232   1.740
62097W        W33626  16.227  31.717  11.098
62098W        W33627   6.309   8.566   4.991
62099W        W33628  10.136  42.695  11.501
62100W        W33629  25.847  10.689   2.624
62101W        W33630  20.342  14.695  13.520
62102W        W33631   9.184   8.065   4.831
62103W        W33632  23.106   3.255   1.386
62104W        W33633  24.612   7.177  14.755
62105W        W33634  26.450  38.876   0.800
62106W        W33635   7.596  32.816  14.839
62107W        W33636   3.980  10.253  13.370
62108W        W33637   8.455  10.240   0.990
62109W        W33638  16.745  13.279  13.814
62110W        W33639  12.743  39.424  13.498
62111W        W33640  38.460  33.178   3.608
62112W        W33641  29.648  31.871  14.900
62113W        W33642  14.282  33.112  14.763
62114W        W33643  18.588  19.728  13.917
62115W        W33644  10.572  30.400  12.068
62116W        W33645  27.180  42.453  14.037
62117W        W33646  36.120   9.223  10.853
62118W        W33647  24.812  22.521   1.432
62119W        W33648  18.306  13.522   4.890
62120W        W33649  41.092  25.230  12.923
62121W        W33650  15.409  12.353  12.508
62122W        W33651   6.766   9.132  10.621
62123W        W33652  40.907  13.767  13.328
62124W        W33653  41.292  42.483   3.555
62125W        W33654  32.009  40.727  11.571
62126W        W33655  31.135  40.039   3.647
62127W        W33656  37.015  29.254   4.321
62128W        W33657   2.427  17.548  10.726
62129W        W33658   3.074  20.979  10.625
62130W        W33659   1.406  28.234  11.518
62131W        W33660  16.849  32.888  10.791
62132W        W33661  10.966  26.468   2.753
62133W        W33662  39.782  38.029   1.023
62134W        W33663  18.206  20.275   4.168
62135W        W33664  32.128  41.571  11.275
62136W        W33665   6.239  41.906  13.433
62137W        W33666  42.731   6.661   3.340
62138W        W33667  16.351   4.229   2.101
62139W        W33668  14.981  42.702  14.827
62140W        W33669  39.920  10.130  12.429
62141W        W33670  16.987  34.660   1.800
62142W        W33671  31.587  37.711   0.284
62143W        W33672  36.973  32.223   0.919
62144W        W33673  15.057   2.279   3.756
62145W        W33674  37.350   7.156  14.318
62146W        W33675   2.656  35.455   3.913
62147W        W33676  31.007   9.765   1.860
62148W        W33677  34.121  37.620  11.088
62149W        W33678  15.669  42.296  12.084
62150W        W33679  24.019   6.512  12.643
62151W        W33680  15.605  23.291   1.249
62152W        W33681  43.275  43.834   2.664
62153W        W33682  40.782   4.021  14.496
62154W        W33683  35.527  23.482  14.353
62155W        W33684  33.226  10.753   2.691
62156W        W33685  37.418   8.209   2.868
62157W        W33686  25.264   5.489   1.069
62158W        W33687   3.964   3.759  10.307
62159W        W33688  29.825   1.922  14.350
62160W        W33689   2.908  10.221  11.559
62161W        W33690  31.216   4.460   2.670
62162W        W33691   1.163  13.125   4.210
62163W        W33692  27.189   7.330   3.325
62164W        W33693  27.237  19.707   4.171
62165W        W33694   7.968  20.692  10.312
62166W        W33695  17.465  20.123   3.638
62167W        W33696  39.389  23.511  14.840
62168W        W33697  31.256  32.792   9.906
62169W        W33698   0.302  38.959   0.235
62170W        W33699  24.372  24.936   4.979
62171W        W33700  24.088   8.231   1.171
62172W        W33701  23.187  33.435  12.897
62173W        W33702  11.384  39.833  13.421
62174W        W33703  38.388  36.493  11.475
62175W        W33704  37.478   3.489  10.650
62176W        W33705  33.417  10.346  13.913
62177W        W33706  20.516   1.959   4.099
62178W        W33707   6.915  18.279   3.004
62179W        W33708  42.950   9.592   4.671
62180W        W33709  12.824  33.405   3.608
62181W        W33710   6.123  38.511  14.541
62182W        W33711   4.707  42.773   0.665
62183W        W33712  20.195  37.774  11.968
62184W        W33713  32.353  30.431   2.703
62185W        W33714  40.902  40.021   2.383
62186W        W33715  24.655  23.187  10.617
62187W        W33716  17.165  35.349  13.103
62188W        W33717   0.629  27.519  11.736
62189W        W33718  22.257   9.220  12.330
62190W        W33719  36.725  38.876  10.450
62191W        W33720   1.152  30.775  14.358
62192W        W33721  26.075  39.976   3.971
62193W        W33722  18.161  32.575   4.203
62194W        W33723   0.289  12.244   1.718
62195W        W33724  32.355  26.305   3.840
62196W        W33725   9.699  10.675   1.452
62197W        W33726  33.838  29.889  10.574
62198W        W33727   5.939  40.410   4.762
62199W        W33728   5.888  32.376  11.163
62200W        W33729  12.146  13.302   3.171
62201W        W33730   0.113  18.839   1.251
62202W        W33731  42.916  32.458   1.924
62203W        W33732  20.093   7.217   0.865
62204W        W33733   5.474  16.028  10.815
62205W        W33734  44.548  39.520  10.859
62206W        W33735  21.567  10.646  12.681
62207W        W33736   6.417  42.364   3.675
62208W        W33737  30.568  12.630   4.400
62209W        W33738  43.729  38.073   0.048
62210W        W33739  28.558   3.354  12.073
62211W        W33740  34.186  25.279  11.588
62212W        W33741  19.872   6.588   0.496
62213W        W33742  36.291  43.596   1.464
62214W        W33743  22.599  11.441   3.190
62215W        W33744   7.842   5.440   3.785
62216W        W33745  16.314  10.713  11.827
62217W        W33746   3.274  25.335  11.176
62218W        W33747  20.397  23.644   2.311
62219W        W33748  24.123  23.170  12.546
62220W        W33749  41.779  13.212  11.558
62221W        W33750  39.505  43.559   2.755
62222W        W33751  41.103  39.612  12.612
62223W        W33752  41.980   7.279   2.771
62224W        W33753  13.600  29.780   0.991
62225W        W33754  20.675  42.202  14.412
62226W        W33755  31.645  31.201  14.008
62227W        W33756  38.499  44.764   4.591
62228W        W33757  29.116   3.284  12.937
62229W        W33758   3.680   1.859   4.094
62230W        W33759   7.180  19.773   1.376
62231W        W33760   0.657   4.157  10.963
62232W        W33761   1.172   7.409   4.589
62233W        W33762  17.246  36.122  14.850
62234W        W33763  19.648  39.396   0.527
62235W        W33764  23.302  34.678  14.871
62236W        W33765   6.947   9.163   4.014
62237W        W33766   2.906  21.629  12.646
62238W        W33767   7.768  11.252  11.710
62239W        W33768  43.313  19.988  12.048
62240W        W33769  33.852  33.261  14.986
62241W        W33770   1.133   5.074   3.614
62242W        W33771  22.177  33.324   3.648
62243W        W33772  39.863  18.271   3.614
62244W        W33773   4.308   0.369  12.647
62245W        W33774  14.367   0.055   1.416
62246W        W33775  39.861  16.863   1.172
62247W        W33776  31.690  11.493  14.878
62248W        W33777   8.467  20.683  12.571
62249W        W33778  17.891  36.720   4.841
62250W        W33779   9.629   5.401   0.780
62251W        W33780  12.090  22.510   4.740
62252W        W33781   0.653  34.577  14.861
62253W        W33782  37.235   0.803   5.172
62254W        W33783   0.750  37.972  14.370
62255W        W33784   5.699   7.124  11.549
62256W        W33785   4.965  18.874  13.013
62257W        W33786  19.590  17.414   2.889
62258W        W33787  43.582  26.990  11.192
62259W        W33788  25.625  39.754  12.902
62260W        W33789  40.340  17.366   1.725
62261W        W33790  41.890   7.806   2.884
62262W        W33791  42.503   1.734   3.834
62263W        W33792   3.308   9.071   2.772
62264W        W33793  22.854  10.758   1.758
62265W        W33794  20.910  41.974  13.963
62266W        W33795   0.660  29.655  13.858
62267W        W33796   2.771  25.117  14.875
62268W        W33797   0.846  13.756   2.995
62269W        W33798   5.745  40.929   0.436
62270W        W33799  27.215  23.128  11.263
62271W        W33800   8.394  29.567   4.128
62272W        W33801   2.034  17.092   1.475
62273W        W33802  17.305   4.492  14.027
62274W        W33803  29.387  14.204   2.823
62275W        W33804  36.849  17.911   3.261
62276W        W33805  11.301   1.739  11.576
62277W        W33806   7.380  25.046  13.948
62278W        W33807  22.941   5.012  13.775
62279W        W33808  28.047  39.441   4.609
62280W        W33809  35.319  30.913   2.354
62281W        W33810  25.526   8.578  12.164
62282W        W33811  28.571  23.546   2.186
62283W        W33812   7.235  15.842   1.322
62284W        W33813   3.868  27.092  13.377
62285W        W33814  40.420   7.491   0.990
62286W        W33815  21.775  37.601  14.659
62287W        W33816  15.272  13.767  13.538
62288W        W33817  14.903   3.934  11.606
62289W        W33818   2.244  20.992   3.551
62290W        W33819  30.679  18.545   0.877
62291W        W33820  21.494  37.376   3.799
62292W        W33821  13.342  17.163  12.868
62293W        W33822   4.190   4.805   1.688
62294W        W33823  34.699  23.032   2.099
62295W        W33824  20.798  13.637   1.775
62296W        W33825  25.688  12.192  12.576
62297W        W33826   4.257  44.420   2.755
62298W        W33827   3.215   4.709   1.886
62299W        W33828  32.063  37.426   0.938
62300W        W33829  25.079  25.169   0.918
62301W        W33830   6.335  44.074  11.543
62302W        W33831  23.659  11.365   4.149
62303W        W33832   9.159  33.568  11.561
62304W        W33833  23.604  35.549   2.386
62305W        W33834  15.757  42.040   0.101
62306W        W33835  13.776  29.683  13.866
62307W        W33836  21.005  35.553   1.657
62308W        W33837  30.389   3.138   4.166
62309W        W33838  38.130  10.761  12.818
62310W        W33839  43.507  19.301   0.521
62311W        W33840  28.437  28.153  14.429
62312W        W33841   4.697  12.389   0.540
62313W        W33842  15.273  41.529  13.011
62314W        W33843  13.403   5.037  13.023
62315W        W33844  13.680   6.495  12.576
62316W        W33845  18.108  13.903   2.089
62317W        W33846  21.872   4.396  13.139
62318W        W33847  41.273   1.731  11.187
62319W        W33848  37.963  25.217  11.479
62320W        W33849   0.752  26.705  14.320
62321W        W33850  41.732  33.443  11.413
62322W        W33851  30.235  23.078   4.647
62323W        W33852  28.643  26.538   1.855
62324W        W33853   3.291  29.540   4.570
62325W        W33854  11.136  36.386  12.878
62326W        W33855  39.537  33.477  12.215
62327W        W33856  10.514  19.797  13.852
62328W        W33857  40.249  42.482   1.280
62329W        W33858  12.332  22.967   2.182
62330W        W33859  26.953   0.018   1.701
62331W        W33860  14.762  10.189   1.652
62332W        W33861  22.056  20.012   3.643
62333W        W33862  36.086   2.442   1.435
62334W        W33863  43.060   5.983  12.150
62335W        W33864  12.768  10.739  11.157
62336W        W33865  30.493  32.435  10.722
62337W        W33866   8.243  41.925   4.447
62338W        W33867  23.692  17.742  11.911
62339W        W33868  29.114  33.018   0.442
62340W        W33869  38.494  19.171  14.485
62341W        W33870  38.959  35.047  12.151
62342W        W33871  30.127   4.117   2.576
62343W        W33872  44.208  36.633  12.088
62344W        W33873  43.914   7.800   1.428
62345W        W33874   3.744  15.481   3.216
62346W        W33875  18.235  26.313   1.441
62347W        W33876  32.970  43.974  12.879
62348W        W33877  35.869  18.162   0.016
62349W        W33878   6.726  38.937   0.658
62350W        W33879  37.026  14.417   2.299
62351W        W33880  39.369  10.327  13.460
62352W        W33881   5.736  31.047  12.370
62353W        W33882  28.872   6.733  13.182
62354W        W33883  42.433   0.133  10.683
62355W        W33884  31.967  41.308   2.851
62356W        W33885  32.208  33.843  11.278
62357W        W33886  35.617  35.566  14.454
62358W        W33887  41.286  31.050  10.711
62359W        W33888   1.995   1.517   3.178
62360W        W33889  42.872  17.583   3.959
62361W        W33890  13.701  38.065  14.837
62362W        W33891  35.573  11.626  13.827
62363W        W33892  25.252   5.997   0.892
62364W        W33893  44.719  40.060  11.649
62365W        W33894  44.615   9.343  13.886
62366W        W33895  33.350  10.140   1.416
62367W        W33896  18.714  37.115  12.750
62368W        W33897  43.655  15.266   1.331
62369W        W33898   9.719  27.261   0.439
62370W        W33899  34.930  43.498   3.028
62371W        W33900  17.590   0.299   0.802
62372W        W33901  37.386  24.039  10.789
62373W        W33902  32.502  43.704   0.816
62374W        W33903  24.124  30.972  12.179
62375W        W33904  31.463  37.294  12.758
62376W        W33905   7.920   3.368   4.052
62377W        W33906  34.675  33.353  12.518
62378W        W33907  32.549  44.291  14.889
62379W        W33908  26.247  26.982   3.234
62380W        W33909  14.179  14.605  11.217
62381W        W33910   5.358  32.006   2.632
62382W        W33911  25.338  15.604  11.637
62383W        W33912  23.004  15.733  11.051
62384W        W33913  35.934   9.188   1.410
62385W        W33914  10.647  27.386   0.938
62386W        W33915  13.721  35.043  14.498
62387W        W33916  10.598  42.517  11.398
62388W        W33917  27.129  17.579   2.788
62389W        W33918  37.853  42.434   4.360
62390W        W33919   1.290  40.871  13.896
62391W        W33920  22.077  36.787   3.310
62392W        W33921  25.448  37.466   3.344
62393W        W33922  40.604  20.973  11.212
62394W        W33923  20.624  26.685   2.879
62395W        W33924  38.087  37.358  10.102
62396W        W33925  12.449  27.105  10.696
62397W        W33926  17.300  44.577   3.667
62398W        W33927  15.021   6.201  10.289
62399W        W33928  13.899  44.985  11.624
62400W        W33929  33.782   2.957   1.392
62401W        W33930   1.302   0.597  12.930
62402W        W33931  17.795  20.612   3.458
62403W        W33932   8.605  13.689  14.419
62404W        W33933  12.850   0.791   3.850
62405W        W33934  30.820  43.362  11.126
62406W        W33935  18.132   8.857  13.474
62407W        W33936  14.202   8.133  14.817
62408W        W33937  25.549  32.818   3.646
62409W        W33938   7.211  23.225   2.667
62410W        W33939   2.034  36.111   3.274
62411W        W33940  26.186  29.569   3.276
62412W        W33941  28.223  42.585  14.357
62413W        W33942  17.272  17.623  11.190
62414W        W33943   3.215  23.024  13.366
62415W        W33944   3.222   8.126  13.299
62416W        W33945  42.946  28.267  12.130
62417W        W33946  29.327   3.453   0.882
62418W        W33947   6.204  39.806   1.829
62419W        W33948   8.831   0.191  12.065
62420W        W33949  24.067  22.514  14.501
62421W        W33950  25.440  31.084  14.839
62422W        W33951  18.089  19.203   4.556
62423W        W33952  11.826  30.156  14.477
62424W        W33953  31.845  32.589  13.896
62425W        W33954  44.990  10.371   0.042
62426W        W33955  14.167  22.170   1.064
62427W        W33956  10.314   2.503   1.372
62428W        W33957  36.500   8.622  13.957
62429W        W33958  27.130   3.237  12.011
62430W        W33959  26.424   8.743   2.829
62431W        W33960   1.391  31.155  11.360
62432W        W33961  23.739  19.963  13.869
62433W        W33962  30.938  28.675   3.534
62434W        W33963  25.639  11.766  13.744
62435W        W33964  40.292  11.674   1.264
62436W        W33965   7.418  41.516   3.976
62437W        W33966  27.214   2.705  11.949
62438W        W33967  18.547  31.559  12.546
62439W        W33968  29.346  15.565  10.536
62440W        W33969  18.161  24.448   4.211
62441W        W33970   5.424  18.769  12.808
62442W        W33971   8.619  16.571   1.871
62443W        W33972  22.339   8.374  12.801
62444W        W33973   0.399  23.460   0.777
62445W        W33974   0.487  38.022  11.466
62446W        W33975  34.199  25.409   4.520
62447W        W33976  14.889  36.072  10.344
62448W        W33977  22.745  20.080   0.738
62449W        W33978  21.599  37.444   1.212
62450W        W33979  17.162  33.528  11.752
62451W        W33980  32.456   7.633   1.678
62452W        W33981  17.643  36.931   1.777
62453W        W33982  25.306  16.125  12.918
62454W        W33983  15.169   6.974   2.608
62455W        W33984  44.223   3.899  11.907
62456W        W33985  22.076   8.244  12.374
62457W        W33986  42.236  44.554  11.538
62458W        W33987  25.504  11.402   1.911
62459W        W33988  24.566  12.891  13.916
62460W        W33989  32.402  36.016   3.726
62461W        W33990   0.396  12.569  11.470
62462W        W33991   7.393  16.152   3.123
62463W        W33992   1.587  31.916   1.324
62464W        W33993   4.359  21.118  14.419
62465W        W33994  35.107  23.075   2.914
62466W        W33995  24.458   2.446   1.871
62467W        W33996  12.806  28.226  11.195
62468W        W33997  16.677   4.674  12.979
62469W        W33998  35.992  15.730  12.594
62470W        W33999  28.184  28.772   5.030
62471W        W34000  23.647  33.387  10.790
62472W        W34001  22.813  15.767   3.686
62473W        W34002  35.436  40.628   3.230
62474W        W34003  10.285   1.443  13.033
62475W        W34004  11.779  26.722   3.362
62476W        W34005  30.580  25.027  11.575
62477W        W34006  37.970   1.395   1.513
62478W        W34007  30.132   1.850   4.644
62479W        W34008  38.550  20.674   3.351
62480W        W34009  22.301  12.342   1.018
62481W        W34010  33.340   2.131  13.904
62482W        W34011  35.386  26.718  11.944
62483W        W34012  25.159  40.318   4.237
62484W        W34013  35.993  24.715   1.792
62485W        W34014  27.606  15.035   0.425
62486W        W34015  43.337  29.669  11.521
62487W        W34016  43.869  12.923   4.371
62488W        W34017  31.005   5.379  11.937
62489W        W34018   2.803   5.433   1.301
62490W        W34019   6.086  26.015   2.253
62491W        W34020  11.300   9.743   1.727
62492W        W34021   2.128  44.588   1.365
62493W        W34022  16.501  28.623   2.765
62494W        W34023  38.933   9.768  13.245
62495W        W34024  35.600  12.086   3.335
62496W        W34025  10.399   5.399  10.423
62497W        W34026  26.010  22.542  10.995
62498W        W34027  28.273  18.613  14.852
62499W        W34028   3.301  13.104  10.768
62500W        W34029  40.438  19.832   2.901
62501W        W34030   5.192   9.803   0.410
62502W        W34031   2.921  15.823  14.194
62503W        W34032  14.615  15.059  13.933
62504W        W34033   6.181  28.250  13.397
62505W        W34034  29.448  37.493   3.561
62506W        W34035   1.697  39.793  12.678
62507W        W34036  25.297  11.898  12.008
62508W        W34037   6.252  16.182  10.152
62509W        W34038  25.497  31.478  11.615
62510W        W34039  24.508  41.251  12.933
62511W        W34040  25.434  34.022  11.434
62512W        W34041   7.702  11.912   5.067
62513W        W34042  23.211  10.133   3.424
62514W        W34043   6.684  32.713  12.563
62515W        W34044  30.948   8.698  12.885
62516W        W34045  37.594   2.435  11.709
62517W        W34046  33.941  21.563   3.628
62518W        W34047  13.211  31.902   2.402
62519W        W34048  41.171  37.986   2.142
62520W        W34049  41.735  30.144  14.539
62521W        W34050  36.318  44.241  13.385
62522W        W34051  10.212  18.782   2.418
62523W        W34052  43.514   2.293   1.395
62524W        W34053  39.809  32.122  10.823
62525W        W34054  19.156  20.312  14.602
62526W        W34055   1.494  17.203   4.809
62527W        W34056  40.380  43.093   1.189
62528W        W34057  24.637  28.076   0.237
62529W        W34058  33.873  30.397   0.003
62530W        W34059   9.418   7.316   0.283
62531W        W34060  33.577  30.592   0.895
62532W        W34061  43.523  14.374  11.542
62533W        W34062   0.881  11.915   4.333
62534W        W34063  37.584  31.519  14.565
62535W        W34064  29.379  33.992  11.235
62536W        W34065   3.397  23.202  14.479
62537W        W34066  20.924  44.465   1.631
62538W        W34067  44.605  31.371  11.724
62539W        W34068  14.190  15.829   0.650
62540W        W34069  21.776  35.630  14.245
62541W        W34070  14.734  41.864   4.264
62542W        W34071  29.446  19.315  13.855
62543W        W34072  38.494   0.446  11.060
62544W        W34073  31.205  40.460  12.093
62545W        W34074  18.552  28.961   1.807
62546W        W34075  42.018   8.653  11.893
62547W        W34076  17.315  22.720   3.670
62548W        W34077  22.661  38.895   0.988
62549W        W34078  36.238  10.389  13.373
62550W        W34079  23.085  33.334   0.297
62551W        W34080   8.478   4.854   3.288
62552W        W34081   2.010  16.163   2.179
62553W        W34082   7.488  27.532   0.829
62554W        W34083  41.067  20.112   2.209
62555W        W34084  34.520  37.623  13.308
62556W        W34085   7.046  12.346  10.689
62557W        W34086  32.587  42.394   2.446
62558W        W34087   7.801   9.269  10.657
62559W        W34088   2.389  22.766   2.262
62560W        W34089  33.497  31.291   0.183
62561W        W34090  39.443  24.102  12.694
62562W        W34091  10.937  28.537   3.135
62563W        W34092   9.207  31.722  13.993
62564W        W34093  38.839   1.469  10.737
62565W        W34094  30.422   5.202  11.287
62566W        W34095  40.472  21.963  11.172
62567W        W34096  14.739   6.843   0.412
62568W        W34097   2.268  25.674  14.984
62569W        W34098  36.718   1.905   0.345
62570W        W34099  33.501  39.769  10.571
62571W        W34100  22.650  11.138   2.746
62572W        W34101  13.631  39.350  10.680
62573W        W34102  35.974  29.177   3.152
62574W        W34103  25.292  35.212   3.585
62575W        W34104   2.155  37.063   1.984
62576W        W34105  35.640   2.394   3.122
62577W        W34106  27.456  25.423   3.990
62578W        W34107  40.843  18.449   4.497
62579W        W34108  28.347  22.487   0.579
62580W        W34109  38.899   8.186   3.677
62581W        W34110  12.228   2.236  14.801
62582W        W34111   7.198  20.214   4.873
62583W        W34112   2.299  39.520  12.992
62584W        W34113  25.772  33.565   3.966
62585W        W34114  13.327  19.176   4.767
62586W        W34115  35.089  43.300   4.523
62587W        W34116   9.979  34.384  13.423
62588W        W34117  12.637  40.988   3.745
62589W        W34118   8.191   8.204   3.568
62590W        W34119  16.896  12.160  12.903
62591W        W34120  44.014  15.263  14.590
62592W        W34121  14.735   1.046  14.228
62593W        W34122   4.734  25.051  14.953
62594W        W34123  17.051  13.597   3.597
62595W        W34124  43.331  21.431   3.959
62596W        W34125  19.796  38.473  13.562
62597W        W34126  14.586   3.361  11.600
62598W        W34127   1.084  37.189  10.389
62599W        W34128  16.281  20.139  12.099
62600W        W34129  34.237  16.365   2.941
62601W        W34130  18.903  23.454   2.368
62602W        W34131  33.827  30.390  11.598
62603W        W34132  21.648  12.211   4.518
62604W        W34133  13.438  18.439  12.065
62605W        W34134   9.281   6.645  11.997
62606W        W34135   9.456  24.263   0.791
62607W        W34136   9.477  32.303   2.155
62608W        W34137  16.556   1.863   1.798
62609W        W34138  39.808  42.946   3.431
62610W        W34139  18.164   7.677   4.353
62611W        W34140  14.403  38.736   2.804
62612W        W34141   8.308  40.325   0.355
62613W        W34142  40.761  15.132   0.059
62614W        W34143  43.051  22.790   0.744
62615W        W34144  27.504  40.053   0.844
62616W        W34145  17.752  14.847   2.941
62617W        W34146  22.721  30.411   3.700
62618W        W34147  28.180  13.258   2.836
62619W        W34148  31.509   1.050  12.280
62620W        W34149   6.344  18.094  12.873
62621W        W34150  32.987  20.960  11.727
62622W        W34151   8.442  43.419  11.927
62623W        W34152  42.131  28.212  11.564
62624W        W34153  11.202   4.324   4.612
62625W        W34154  35.453   6.325   2.975
62626W        W34155  15.163  17.265  12.937
62627W        W34156   7.253   1.092  11.607
62628W        W34157  36.465  44.846  12.225
62629W        W34158  36.899  42.475   0.329
62630W        W34159  24.866  26.086  11.076
62631W        W34160  29.133  21.187   4.689
62632W        W34161  16.341   2.214  13.933
62633W        W34162   4.202  23.110  14.047
62634W        W34163  12.913   7.224   0.720
62635W        W34164  43.279  15.478  13.074
62636W        W34165  38.101  10.321  13.114
62637W        W34166  32.227  34.689   3.653
62638W        W34167   4.818  37.326  11.195
62639W        W34168  29.584  38.615  11.952
62640W        W34169  31.148  10.367  14.047
62641W        W34170  28.882  26.731   3.832
62642W        W34171  35.137  42.908  11.509
62643W        W34172  28.710  24.967  12.478
62644W        W34173  44.324   6.917   2.232
62645W        W34174  37.348  34.801  13.037
62646W        W34175  24.036   3.841   3.460
62647W        W34176  15.434  11.682   4.881
62648W        W34177  19.611  33.044  13.838
62649W        W34178   6.900  19.623   5.452
62650W        W34179  10.366   9.342   0.742
62651W        W34180   8.300  29.251  10.735
62652W        W34181  25.873  44.239  11.029
62653W        W34182  16.073  39.514  10.956
62654W        W34183  18.799  20.543  13.459
62655W        W34184  16.659  38.916  11.974
62656W        W34185  44.785  42.676  13.861
62657W        W34186  37.473  24.420   2.779
62658W        W34187  25.863   1.793   3.539
62659W        W34188  16.773   6.935  12.069
62660W        W34189   2.235  25.668  12.406
62661W        W34190  36.152  41.968   1.369
62662W        W34191   0.508   2.733  10.994
62663W        W34192  26.213  42.838  11.138
62664W        W34193  19.239  44.751   2.321
62665W        W34194  16.567   8.176  12.423
62666W        W34195   7.656   6.875  12.409
62667W        W34196  28.967   5.319  13.789
62668W        W34197  24.904  39.285  11.942
62669W        W34198   4.265  10.340   3.592
62670W        W34199  18.378  16.212   2.809
62671W        W34200  11.427  25.060  11.170
62672W        W34201   7.758   4.046   3.247
62673W        W34202  13.344  35.188  11.439
62674W        W34203  27.482  27.038   2.555
62675W        W34204   5.988  20.696   4.703
62676W        W34205  26.638  29.439   9.909
62677W        W34206  23.509  44.969  13.927
62678W        W34207  28.698   7.276  11.945
62679W        W34208   2.068  34.995   4.578
62680W        W34209   9.328  40.280   1.873
62681W        W34210  26.083  35.632  12.820
62682W        W34211  22.785   4.828  11.912
62683W        W34212   6.124  26.775  11.244
62684W        W34213  37.386  29.005  11.524
62685W        W34214  28.545  40.578   0.425
62686W        W34215  19.108  42.749  12.499
62687W        W34216  18.775  30.444  12.507
62688W        W34217  10.260  40.843  13.563
62689W        W34218  42.376  26.704   1.918
62690W        W34219  15.658  37.432  14.803
62691W        W34220   2.073   3.206   2.631
62692W        W34221   2.822   2.649   0.937
62693W        W34222  21.228  27.622  14.052
62694W        W34223  13.892  36.390   0.853
62695W        W34224   5.133  16.535   3.600
62696W        W34225   4.483   0.370  13.129
62697W        W34226  26.611  12.201  11.017
62698W        W34227  20.739  42.808  11.422
62699W        W34228   7.357  40.355   0.876
62700W        W34229   2.711  12.349   0.544
62701W        W34230   4.704  30.962  10.548
62702W        W34231  29.480   0.243   4.284
62703W        W34232   6.708  43.002  13.950
62704W        W34233  25.349  15.612   3.918
62705W        W34234   3.201  24.012  13.551
62706W        W34235  44.946   2.755  13.844
62707W        W34236  34.761  34.623   2.889
62708W        W34237  35.417  39.543   3.915
62709W        W34238  38.801  29.851  11.003
62710W        W34239  37.865   2.791  13.286
62711W        W34240  12.981  15.262   1.861
62712W        W34241   4.799  13.999  14.003
62713W        W34242  28.459  14.385   2.697
62714W        W34243  31.233  36.830   0.268
62715W        W34244  43.056  12.238   2.845
62716W        W34245  16.300  43.899   0.974
62717W        W34246  10.755  12.905   3.730
62718W        W34247  40.717  18.684   4.010
62719W        W34248   8.275  43.541   0.748
62720W        W34249  39.698  34.891  14.560
62721W        W34250  19.720   2.042  13.120
62722W        W34251  41.855   4.897  14.311
62723W        W34252  20.733  20.402   4.600
62724W        W34253  14.856  38.542   1.382
62725W        W34254  42.919   2.639   2.415
62726W        W34255  42.909  27.025   3.150
62727W        W34256   8.425  12.374  10.787
62728W        W34257  28.801  13.589  10.776
62729W        W34258   2.923   1.417   3.157
62730W        W34259   5.219  25.070  13.080
62731W        W34260  19.049   6.385   2.609
62732W        W34261  15.773  22.454   1.357
62733W        W34262  31.967  36.077   3.250
62734W        W34263  17.578   7.527   4.589
62735W        W34264   9.965  28.378   1.765
62736W        W34265  18.250  39.534   3.361
62737W        W34266  19.284   7.716   0.793
62738W        W34267  34.868  42.682   3.160
62739W        W34268  32.393  10.134   1.066
62740W        W34269  15.123  22.753  13.457
62741W        W34270  28.397  33.557  14.415
62742W        W34271  38.995  28.605  14.867
62743W        W34272  10.585  20.958  13.520
62744W        W34273  31.489  34.160   3.685
62745W        W34274  43.356  41.951   1.348
62746W        W34275  30.012  13.176   4.947
62747W        W34276  12.903  17.354  12.664
62748W        W34277   3.763  22.437   2.979
62749W        W34278  15.175  15.652  14.767
62750W        W34279   8.152  17.693   5.436
62751W        W34280  16.583  44.149   3.045
62752W        W34281   1.990   1.240   0.764
62753W        W34282   2.776  40.357  10.739
62754W        W34283  39.281  31.340   3.999
62755W        W34284  35.816  27.454   2.383
62756W        W34285  41.820  15.188  12.346
62757W        W34286   8.723  28.630  11.221
62758W        W34287  15.197  34.986  12.530
62759W        W34288  31.066   1.716  14.928
62760W        W34289  10.637  36.817   4.274
62761W        W34290  10.824  18.709  11.881
62762W        W34291  13.095  13.018   0.191
62763W        W34292  16.822  16.621  12.817
62764W        W34293  30.352  25.629  14.289
62765W        W34294  32.625  18.143   0.548
62766W        W34295  27.231  38.001   4.251
62767W        W34296  16.124  40.023  11.110
62768W        W34297  30.832   6.991   1.025
62769W        W34298  29.289   4.993   1.645
62770W        W34299  17.140  43.391  10.696
62771W        W34300  13.146   1.273   0.760
62772W        W34301  10.655  13.652   3.353
62773W        W34302  34.414   1.291  14.137
62774W        W34303  39.953  42.922  10.097
62775W        W34304  11.653  11.350  11.128
62776W        W34305  30.317  26.872  12.608
62777W        W34306  15.187  28.197   0.404
62778W        W34307  15.773  35.405  11.918
62779W        W34308   3.375  32.704  11.941
62780W        W34309   4.985  17.495   3.936
62781W        W34310  18.097  32.898  11.079
62782W        W34311  21.800  34.827   3.178
62783W        W34312  23.027  24.615  14.259
62784W        W34313   5.026   2.941  11.403
62785W        W34314  30.937  16.782  14.713
62786W        W34315  37.332  33.354  10.947
62787W        W34316  24.747  31.841   3.236
62788W        W34317  24.058  21.006  13.769
62789W        W34318  36.483  11.797   3.723
62790W        W34319  43.777  16.588  12.950
62791W        W34320  39.496   9.005   3.757
62792W        W34321  25.866  37.078   0.365
62793W        W34322   1.485  40.900   0.326
62794W        W34323  21.590  44.532   3.709
62795W        W34324  25.009  35.588   3.334
62796W        W34325  34.619  34.474  14.086
62797W        W34326  24.634  44.451   3.269
62798W        W34327  13.264  39.856   2.380
62799W        W34328  41.362  14.659   2.958
62800W        W34329  11.651  30.862   5.462
62801W        W34330   6.330  19.274  14.817
62802W        W34331   7.402   9.645   1.721
62803W        W34332  25.373  41.918  13.085
62804W        W34333  24.550  12.152  10.725
62805W        W34334  17.779  39.740   1.639
62806W        W34335  11.775  25.937  13.266
62807W        W34336  17.537  15.524   2.366
62808W        W34337  38.104  41.635   4.973
62809W        W34338  24.253   6.347  13.434
62810W        W34339  13.544  17.638  14.251
62811W        W34340  33.996  28.339   3.880
62812W        W34341  13.322  10.243   4.491
62813W        W34342   2.244  14.291   1.358
62814W        W34343  37.389  17.501  13.477
62815W        W34344  30.136  37.512  14.974
62816W        W34345  14.889  27.003  12.651
62817W        W34346  30.408   0.479   2.006
62818W        W34347   0.790   1.904   1.005
62819W        W34348  29.691   8.955   2.013
62820W        W34349  14.704  29.983  12.013
62821W        W34350  29.071  43.124  11.549
62822W        W34351  18.221   1.290   3.608
62823W        W34352  26.725  37.881   3.105
62824W        W34353  20.679   4.688   1.612
62825W        W34354  33.183  32.148   2.342
62826W        W34355   2.390  27.732  14.973
62827W        W34356  11.822  10.335  10.669
62828W        W34357  34.388  12.358  13.845
62829W        W34358  13.380   3.958   1.633
62830W        W34359   1.250  36.384  12.018
62831W        W34360  43.044  22.532  13.679
62832W        W34361  27.472  41.938   1.244
62833W        W34362  35.405  21.516   3.280
62834W        W34363  39.139  31.022  10.688
62835W        W34364  21.005  35.841   4.244
62836W        W34365  21.132   1.531  10.765
62837W        W34366   8.945  34.137   3.992
62838W        W34367  42.745  44.220  13.027
62839W        W34368  18.198  24.308   3.114
62840W        W34369   2.324  25.556   0.482
62841W        W34370  11.236  24.514  12.492
62842W        W34371  29.313   6.762  12.282
62843W        W34372  34.215  35.836   1.696
62844W        W34373   6.009  31.154   1.350
62845W        W34374  39.771  34.933   2.104
62846W        W34375   9.652  25.471  14.008
62847W        W34376  19.565  13.711   2.380
62848W        W34377  27.957  40.023  12.202
62849W        W34378   7.442  26.060  14.724
62850W        W34379  39.437  15.701  13.355
62851W        W34380  34.138  33.307  12.518
62852W        W34381  16.042   0.985   1.893
62853W        W34382  42.397  40.709   1.403
62854W        W34383  26.327   0.843   4.993
62855W        W34384  38.744  31.535  12.269
62856W        W34385  17.948  27.220  12.049
62857W        W34386  14.119   2.848  10.769
62858W        W34387   5.253  42.515   0.906
62859W        W34388  35.612  27.547  14.680
62860W        W34389  32.656  39.297  11.948
62861W        W34390  10.313  11.583  13.149
62862W        W34391   4.066   5.372   0.480
62863W        W34392  13.700   2.059  13.171
62864W        W34393  27.639  27.006  11.538
62865W        W34394  44.960  39.033  14.833
62866W        W34395  34.059  35.631   2.864
62867W        W34396  10.877  35.987   4.197
62868W        W34397   2.346  32.453  12.562
62869W        W34398  23.644  21.250   4.926
62870W        W34399  22.247   2.052  12.455
62871W        W34400  16.372  44.157   2.219
62872W        W34401   8.427  40.011   3.536
62873W        W34402  26.572  44.993  13.956
62874W        W34403  23.986  20.216   4.697
62875W        W34404   2.372  35.780  12.917
62876W        W34405   9.271  12.058  10.404
62877W        W34406  24.668   2.441   3.259
62878W        W34407  23.902  19.048  10.712
62879W        W34408  30.840   2.152  12.460
62880W        W34409  34.570  43.799  10.717
62881W        W34410   7.754  29.012  10.258
62882W        W34411   1.935  32.820   2.320
62883W        W34412  40.949  24.216   1.334
62884W        W34413  43.869   9.905   4.376
62885W        W34414  29.663  36.482  12.096
62886W        W34415  40.818  33.322   1.877
62887W        W34416  16.735  29.069   0.795
62888W        W34417  13.859  22.053   0.127
62889W        W34418  25.565  35.827  10.419
62890W        W34419  11.075  30.062   3.676
62891W        W34420  18.267  37.998   2.856
62892W        W34421  21.573  44.943  10.953
62893W        W34422  34.620  25.091   3.835
62894W        W34423  25.781  20.297  12.394
62895W        W34424  31.599  15.269   3.566
62896W        W34425   9.919  23.684   2.910
62897W        W34426  15.869   5.459   4.417
62898W        W34427  37.803  22.126  11.114
62899W        W34428  31.153  18.119   1.436
62900W        W34429  10.437  39.878   0.998
62901W        W34430   5.935  11.679   3.296
62902W        W34431  37.106   2.208   2.215
62903W        W34432  14.564  15.899  11.966
62904W        W34433  20.355  29.625   3.219
62905W        W34434  22.210  42.948   3.131
62906W        W34435  37.301  30.821   3.704
62907W        W34436  19.503  31.506  12.569
62908W        W34437   5.114  10.974  12.450
62909W        W34438  33.352   9.806  14.812
62910W        W34439  20.900  25.555  11.971
62911W        W34440  44.399  30.342  13.546
62912W        W34441  30.057  40.364   1.822
62913W        W34442  42.424  44.292  14.350
62914W        W34443  22.493  27.941  14.415
62915W        W34444  25.245  31.704   3.103
62916W        W34445  30.306  13.750   0.356
62917W        W34446  18.874  28.106  13.926
62918W        W34447  31.500  32.282  12.101
62919W        W34448   9.103  36.110  14.010
62920W        W34449   5.429   9.227   1.052
62921W        W34450  42.247  17.755   3.170
62922W        W34451   9.302  28.218  13.896
62923W        W34452  35.360  13.731  11.938
62924W        W34453   5.850   1.149  13.487
62925W        W34454   5.534  32.234  13.966
62926W        W34455  26.230  15.142   2.689
62927W        W34456  18.938  23.185   3.382
62928W        W34457  35.886  19.309  13.488
62929W        W34458  33.084  40.476  12.125
62930W        W34459   2.969  30.913  11.613
62931W        W34460   7.086  11.542  14.489
62932W        W34461   0.710  12.402  13.336
62933W        W34462  15.951   6.247  10.161
62934W        W34463  37.860  12.095   1.826
62935W        W34464  44.438  16.762   0.742
62936W        W34465  25.469  35.723  12.995
62937W        W34466  27.554   1.520   2.023
62938W        W34467   7.445  39.372   1.758
62939W        W34468  37.428   3.776  13.927
62940W        W34469  27.240  24.487  11.714
62941W        W34470  22.762  38.446   2.799
62942W        W34471  15.617  41.452   5.196
62943W        W34472  18.992   1.324  14.526
62944W        W34473  18.898  37.305  14.088
62945W        W34474  28.214  28.552  13.354
62946W        W34475  30.142  36.639   0.285
62947W        W34476  16.448   4.400   4.467
62948W        W34477  10.239  30.284   1.862
62949W        W34478  12.152  32.135  14.766
62950W        W34479  10.728  33.059  11.923
62951W        W34480  14.145   6.962   2.603
62952W        W34481  24.088  40.507  13.946
62953W        W34482   8.084  13.649  14.469
62954W        W34483  40.563   8.499  10.867
62955W        W34484  14.615  31.989  13.540
62956W        W34485  39.580  36.369   2.308
62957W        W34486  39.088  11.884   2.692
62958W        W34487  26.719  23.228  11.069
62959W        W34488   6.955   2.000  10.641
62960W        W34489   1.034  32.283  11.310
62961W        W34490  41.430  11.911  13.799
62962W        W34491  35.953   9.625   2.810
62963W        W34492  16.274   2.105  12.578
62964W        W34493  44.457  29.044  14.032
62965W        W34494  25.415  40.823   0.830
62966W        W34495  12.735  31.877   3.748
62967W        W34496  34.834  19.124  14.813
62968W        W34497  10.607  35.655   1.199
62969W        W34498  34.820  14.205  13.084
62970W        W34499   6.492  16.501  13.453
62971W        W34500  22.082  11.713  11.638
62972W        W34501  10.390  35.836  12.000
62973W        W34502  29.884  13.831  13.550
62974W        W34503  31.879  33.379  10.490
62975W        W34504  39.805  39.628   3.318
62976W        W34505  13.459  14.656  13.301
62977W        W34506  20.117  34.027  14.843
62978W        W34507  29.873  23.725   0.315
62979W        W34508  36.209  18.556  14.956
62980W        W34509  10.763  39.879   3.267
62981W        W34510  28.224  19.631   1.409
62982W        W34511  11.098   9.346  13.846
62983W        W34512  34.080   7.953  11.494
62984W        W34513  12.193  14.369  14.251
62985W        W34514   6.029  14.536   2.001
62986W        W34515  21.455  29.655   4.728
62987W        W34516  29.508  31.399   1.239
62988W        W34517  33.903   0.496  11.403
62989W        W34518  41.508  34.853   4.242
62990W        W34519   2.876   9.186   4.145
62991W        W34520  12.860   0.623   3.380
62992W        W34521  10.855  15.092  12.806
62993W        W34522  40.867  27.986   5.160
62994W        W34523  20.296  12.720   1.744
62995W        W34524  26.957  10.748   0.910
62996W        W34525  32.934  38.040   4.099
62997W        W34526  30.336  28.484  14.383
62998W        W34527  42.855  30.826  13.132
62999W        W34528  13.573  18.196   1.256
63000W        W34529  36.578   2.315  11.489
63001W        W34530  43.490  16.599  13.843
63002W        W34531  23.107   9.523  11.197
63003W        W34532  11.480  13.624  14.288
63004W        W34533  37.508  39.883   1.190
63005W        W34534  24.089  34.819   2.753
63006W        W34535  42.678  42.553   3.183
63007W        W34536  13.232  34.953   3.288
63008W        W34537  12.777  14.544   0.938
63009W        W34538   0.343  22.748   0.416
63010W        W34539  33.385  40.548  13.069
63011W        W34540  23.512  41.031   0.237
63012W        W34541  30.190  37.862  14.595
63013W        W34542  42.104  25.900  14.819
63014W        W34543  42.262  13.183  14.410
63015W        W34544  27.521  26.997  12.415
63016W        W34545  27.746   1.754   1.065
63017W        W34546  34.603  43.453  12.492
63018W        W34547  17.712   2.734   1.440
63019W        W34548  34.982  34.814  14.324
63020W        W34549  28.685  37.458  12.971
63021W        W34550  44.446   0.409  10.940
63022W        W34551  35.906  44.789  11.575
63023W        W34552  10.269  34.425  14.035
63024W        W34553  12.237   4.992  13.511
63025W        W34554   9.667  12.092   1.422
63026W        W34555  15.187  21.839   0.993
63027W        W34556   6.501   1.487   0.406
63028W        W34557  34.385  27.106   0.353
63029W        W34558  25.503  34.598  11.986
63030W        W34559  28.418  31.116   3.674
63031W        W34560  22.624  38.043   2.479
63032W        W34561  35.115  20.184   0.391
63033W        W34562  26.298  16.592  13.550
63034W        W34563  25.646  20.559   2.254
63035W        W34564   4.880   4.947   2.169
63036W        W34565  32.168  34.121  12.043
63037W        W34566  17.083  31.536   3.545
63038W        W34567  36.957   3.562  14.938
63039W        W34568  37.309  14.762   0.338
63040W        W34569   8.857  41.120   0.695
63041W        W34570  42.928  10.207   2.317
63042W        W34571  39.521  28.381   1.789
63043W        W34572  14.582  44.759   4.141
63044W        W34573   6.728   9.460   1.300
63045W        W34574  29.962  35.434  11.486
63046W        W34575  26.031   4.827   2.837
63047W        W34576  36.794  17.028  13.741
63048W        W34577   3.765  22.473  13.471
63049W        W34578  19.122  12.450   2.747
63050W        W34579  33.628  30.120   3.787
63051W        W34580  31.399  10.051   3.108
63052W        W34581   2.927  12.026   2.844
63053W        W34582   8.224  18.710  11.770
63054W        W34583  24.337   5.158   1.115
63055W        W34584  14.359  22.651  13.904
63056W        W34585  22.043  38.234   5.029
63057W        W34586  21.602  19.922   0.418
63058W        W34587  10.949  30.461  11.627
63059W        W34588  29.193  24.748   1.409
63060W        W34589  19.037  14.523  13.814
63061W        W34590   9.516  13.103  13.785
63062W        W34591  29.533  14.137   4.095
63063W        W34592  34.996  34.155   0.547
63064W        W34593  20.856  18.184   0.471
63065W        W34594  15.524  38.875  11.635
63066W        W34595  36.896  17.369   1.396
63067W        W34596  28.960   0.710  13.329
63068W        W34597  21.757  33.554   0.017
63069W        W34598   7.602  35.858   4.569
63070W        W34599  38.425  31.504  13.162
63071W        W34600  40.820  44.524   1.990
63072W        W34601  11.430  10.281  11.579
63073W        W34602  35.955  10.680   3.892
63074W        W34603   9.857  37.578   3.114
63075W        W34604  38.978  31.993  14.397
63076W        W34605  23.138  14.244   1.977
63077W        W34606  40.107  41.862   0.522
63078W        W34607  42.272  36.320   3.421
63079W        W34608   6.182  28.156  12.524
63080W        W34609   6.195  37.994   1.668
63081W        W34610  19.962   8.204   2.097
63082W        W34611   5.209  23.857   0.390
63083W        W34612   8.410  24.731  11.915
63084W        W34613  28.675  16.848  10.595
63085W        W34614  36.431  30.398  12.577
63086W        W34615   5.227  41.943  10.498
63087W        W34616   1.985  36.146   1.440
63088W        W34617  23.206  29.063   3.639
63089W        W34618   3.538  24.341   3.117
63090W        W34619   7.227  42.176  11.579
63091W        W34620   2.919  11.208   2.425
63092W        W34621  20.079  36.137   2.814
63093W        W34622  22.233  12.206  10.748
63094W        W34623  40.021  42.354   0.821
63095W        W34624   5.176  38.282  12.054
63096W        W34625   4.765  29.093  12.023
63097W        W34626  33.855  29.356  10.627
63098W        W34627  21.516  12.606  13.521
63099W        W34628  14.879  39.491  11.895
63100W        W34629  40.974  14.408   2.663
63101W        W34630  11.056  39.795   0.429
63102W        W34631  21.667  34.020  13.343
63103W        W34632  36.771  38.599   4.452
63104W        W34633   5.245   7.625  12.000
63105W        W34634  15.255  16.494   1.666
63106W        W34635   0.691  40.752  12.605
63107W        W34636  37.063  23.510  14.405
63108W        W34637  29.646   5.478   0.361
63109W        W34638   4.722   2.043   0.702
63110W        W34639  30.614  17.800  12.150
63111W        W34640  23.605  12.075  11.074
63112W        W34641  34.041  33.814   1.126
63113W        W34642   9.792  40.972  12.880
63114W        W34643  27.629  33.497  14.950
63115W        W34644  38.802  34.668   3.022
63116W        W34645  25.511  15.294  14.179
63117W        W34646   8.881   8.443  14.447
63118W        W34647  30.046  32.664   1.483
63119W        W34648  35.742  26.612   3.142
63120W        W34649  23.104  26.242  13.577
63121W        W34650  11.952  29.656   4.536
63122W        W34651  40.415  33.152   1.601
63123W        W34652  15.186  36.132  11.185
63124W        W34653  18.566  17.532  10.678
63125W        W34654  36.388  19.168  13.457
63126W        W34655   3.758  42.317  12.355
63127W        W34656   3.761  26.999   0.636
63128W        W34657   6.206  40.580   2.142
63129W        W34658  44.732   9.833  11.085
63130W        W34659  22.551  14.061   4.992
63131W        W34660   4.906  23.628  12.427
63132W        W34661  24.986  40.227  14.475
63133W        W34662  15.753  32.654   3.731
63134W        W34663   3.339  31.153  14.497
63135W        W34664  13.733  28.000  13.403
63136W        W34665  17.586  15.088   1.800
63137W        W34666  21.661  13.564   4.170
63138W        W34667  41.735   2.703   0.752
63139W        W34668  43.715  34.701  13.062
63140W        W34669   2.250  12.064  13.839
63141W        W34670   0.702  10.892   1.711
63142W        W34671  18.808   1.489   0.419
63143W        W34672  39.402  38.593   0.234
63144W        W34673  34.028  39.369  12.302
63145W        W34674  33.090  28.377  14.157
63146W        W34675  20.968   3.776  12.648
63147W        W34676  35.548  10.270   3.398
63148W        W34677  36.128  23.735  11.198
63149W        W34678  36.457   2.493   1.000
63150W        W34679  25.047   9.348   2.177
63151W        W34680  23.914  14.878   2.798
63152W        W34681   4.825  37.360  13.872
63153W        W34682   0.713  26.707  11.060
63154W        W34683  44.901  17.891   0.296
63155W        W34684  28.707  34.419   0.049
63156W        W34685   5.249  12.287  12.914
63157W        W34686  18.747  10.583  11.685
63158W        W34687  17.793  38.029  12.075
63159W        W34688  17.104  37.985   0.370
63160W        W34689  38.099  29.194   1.751
63161W        W34690  44.856  36.660  11.533
63162W        W34691  37.516  14.589  11.474
63163W        W34692   9.316  28.036  12.968
63164W        W34693  29.924  41.682  12.000
63165W        W34694  40.158  21.197   2.730
63166W        W34695  37.109  38.617   3.614
63167W        W34696  42.139  19.862   3.831
63168W        W34697   5.254  18.125  14.312
63169W        W34698  42.017   0.970  14.486
63170W        W34699   2.263   2.819  14.355
63171W        W34700  16.561   4.179  13.066
63172W        W34701   2.380  29.139  11.944
63173W        W34702  28.465   9.102   4.664
63174W        W34703  35.328   5.307   1.279
63175W        W34704  27.654  43.222   0.944
63176W        W34705  39.791  13.342  14.018
63177W        W34706  40.307  23.100  12.141
63178W        W34707   3.412  37.212  12.067
63179W        W34708  38.885  19.222   4.041
63180W        W34709   6.352   4.917  10.304
63181W        W34710  37.441  40.968   1.892
63182W        W34711  31.618  12.239  11.555
63183W        W34712   0.852  31.932   4.939
63184W        W34713   9.822   9.773  10.588
63185W        W34714   1.993  18.113   1.541
63186W        W34715   5.234  26.065   1.093
63187W        W34716  14.125   6.544   2.297
63188W        W34717  24.187   0.039  12.663
63189W        W34718  26.097  20.710  12.431
63190W        W34719   1.169   4.622  12.969
63191W        W34720  21.452  38.625   2.424
63192W        W34721   8.255  12.507   0.720
63193W        W34722  28.836  37.838   2.356
63194W        W34723   7.682   2.383   3.615
63195W        W34724  38.872  39.064   5.164
63196W        W34725  18.713  15.136   0.274
63197W        W34726  38.953  38.200  13.444
63198W        W34727   0.571  18.723  11.166
63199W        W34728  39.716  30.486  11.751
63200W        W34729  23.764  18.260  11.914
63201W        W34730  39.264  40.235  10.784
63202W        W34731  32.712  17.353   1.737
63203W        W34732  40.556  20.788   4.036
63204W        W34733  22.012  12.726   4.039
63205W        W34734  40.516  21.017   1.795
63206W        W34735  21.084  31.690   3.311
63207W        W34736  14.643  41.897  11.681
63208W        W34737   1.793   0.752  13.507
63209W        W34738   9.306   3.503  14.402
63210W        W34739  13.379  42.417   0.419
63211W        W34740  21.579   4.698  12.774
63212W        W34741  42.732  27.429   1.095
63213W        W34742  40.299  15.593  14.752
63214W        W34743  13.324  35.403  14.329
63215W        W34744  16.983  35.085   2.841
63216W        W34745  27.561  26.732  11.971
63217W        W34746   9.220  36.504  12.465
63218W        W34747  12.411  28.036   0.929
63219W        W34748   4.366  36.049  12.913
63220W        W34749  13.187  29.174  10.552
63221W        W34750  10.066  37.265   4.694
63222W        W34751  27.667  18.656  12.516
63223W        W34752  37.526  44.501  14.681
63224W        W34753  39.272  11.854   2.214
63225W        W34754   4.190  25.482   1.349
63226W        W34755  23.198   1.781   1.910
63227W        W34756  19.639  44.171  10.585
63228W        W34757   4.731  20.670  12.338
63229W        W34758  39.312  44.876   3.137
63230W        W34759  36.743   4.612   5.061
63231W        W34760  11.227  13.688  12.490
63232W        W34761  23.354  43.336   4.677
63233W        W34762  31.293  39.479  12.094
63234W        W34763  17.628  12.362  12.068
63235W        W34764  35.834  42.050  10.592
63236W        W34765  21.703  30.069  12.569
63237W        W34766  26.262  37.785   1.672
63238W        W34767  25.564  42.765  14.904
63239W        W34768  14.366  29.105  12.622
63240W        W34769  28.257  42.849   4.569
63241W        W34770  12.861   8.041  12.884
63242W        W34771  44.197  18.574   3.603
63243W        W34772   1.877  31.020   3.293
63244W        W34773  29.391   0.727  10.848
63245W        W34774  16.023  19.558   0.247
63246W        W34775  44.029   6.926  11.655
63247W        W34776   8.967  10.843  10.679
63248W        W34777  31.201   8.671  11.512
63249W        W34778  32.359   4.656  11.834
63250W        W34779   8.479   1.791  14.449
63251W        W34780  26.390  21.059  10.577
63252W        W34781   5.227   3.274  13.201
63253W        W34782   1.879  31.381  11.748
63254W        W34783  39.078  30.040  11.800
63255W        W34784  14.754  40.983  10.739
63256W        W34785  18.838   0.094   0.381
63257W        W34786   9.228  34.823   4.679
63258W        W34787   9.143   1.877  10.583
63259W        W34788  34.380   3.727  14.065
63260W        W34789   8.417  26.757  13.364
63261W        W34790  37.768  29.107  11.178
63262W        W34791  11.187  40.464   1.329
63263W        W34792  28.756  25.769  13.473
63264W        W34793  39.586  27.443  12.053
63265W        W34794  22.989   4.271  10.699
63266W        W34795  29.108   8.857   0.234
63267W        W34796  18.035  11.359   2.224
63268W        W34797  10.752  19.233  13.554
63269W        W34798  13.120  26.556  14.254
63270W        W34799  33.500   4.677   1.627
63271W        W34800   1.037  27.627   4.104
63272W        W34801  14.049  30.769   1.711
63273W        W34802  39.821  10.048  13.392
63274W        W34803  33.404  36.649   2.159
63275W        W34804  16.406   5.953  11.819
63276W        W34805  19.088  27.736   4.182
63277W        W34806  30.379  16.194  11.538
63278W        W34807  11.806  12.390   2.846
63279W        W34808  33.832   6.692   3.409
63280W        W34809  18.279   5.441  11.542
63281W        W34810  10.565  25.139  13.123
63282W        W34811  11.084  23.006  14.913
63283W        W34812  22.281  11.233  11.565
63284W        W34813  32.029  40.983   2.356
63285W        W34814  33.985  24.066  14.189
63286W        W34815   0.856   6.916   1.134
63287W        W34816  25.246  12.279   1.754
63288W        W34817  17.286  39.571   1.415
63289W        W34818  19.541  11.498   4.156
63290W        W34819  15.429  39.012  12.988
63291W        W34820   1.444  39.847  11.116
63292W        W34821  43.311  23.438  14.095
63293W        W34822  18.995   2.931   1.980
63294W        W34823  44.742  37.354  12.259
63295W        W34824  43.668   0.441   4.114
63296W        W34825  39.034  18.420   4.276
63297W        W34826   2.764  44.405   1.906
63298W        W34827   1.777  22.199   0.048
63299W        W34828  13.840  37.898   2.323
63300W        W34829  36.922  38.133   1.046
63301W        W34830  43.576  17.901  12.505
63302W        W34831  26.728  36.895   0.702
63303W        W34832  34.739   4.969   0.212
63304W        W34833  43.496  21.091  11.060
63305W        W34834  22.768  14.298  10.561
63306W        W34835  41.215  26.993  13.536
63307W        W34836  41.724  35.861   4.967
63308W        W34837  26.932  21.579   0.065
63309W        W34838  30.500  15.240  12.786
63310W        W34839  21.227   8.449  14.400
63311W        W34840  10.667  24.737   3.153
63312W        W34841  23.141  19.870  12.675
63313W        W34842  22.292  15.267   2.775
63314W        W34843  35.441  31.977  11.975
63315W        W34844  35.262   3.297   5.130
63316W        W34845  25.081   8.199  13.503
63317W        W34846   3.011  39.233  11.522
63318W        W34847  42.056  17.724  11.558
63319W        W34848  12.694  43.510   2.877
63320W        W34849   6.801   6.634  14.581
63321W        W34850  44.376  33.716  13.457
63322W        W34851  17.058  32.004   5.100
63323W        W34852  11.840  28.716   2.043
63324W        W34853  34.291  34.416  11.191
63325W        W34854  30.435   3.808   2.253
63326W        W34855  24.634  23.992   4.696
63327W        W34856  28.661  28.480  11.503
63328W        W34857  30.968  34.371  11.664
63329W        W34858   1.255  23.311   0.722
63330W        W34859  13.216  36.990  10.664
63331W        W34860  11.048  39.261  11.365
63332W        W34861   4.117   7.150   4.995
63333W        W34862  39.746  28.297  11.096
63334W        W34863   1.666   1.401  10.708
63335W        W34864   9.236   5.655  12.014
63336W        W34865  40.304  24.121   0.454
63337W        W34866  27.001  34.462  13.857
63338W        W34867  12.837  29.313   2.611
63339W        W34868  17.548  16.879   2.284
63340W        W34869   3.407  11.825   0.795
63341W        W34870  36.397  11.691   3.220
63342W        W34871  41.452  41.423  13.592
63343W        W34872  35.323  32.528   2.810
63344W        W34873  16.072   4.414  13.904
63345W        W34874   6.473  27.992   1.547
63346W        W34875  42.738  40.851  13.501
63347W        W34876  10.582  43.384   0.356
63348W        W34877  28.471  20.263  10.463
63349W        W34878  25.175  39.462   4.081
63350W        W34879   5.196  12.343   0.357
63351W        W34880  42.233  41.483   3.024
63352W        W34881  30.493  24.440  14.899
63353W        W34882   2.315   7.293   2.415
63354W        W34883  44.022   4.305  11.525
63355W        W34884  31.196   6.368   3.267
63356W        W34885   0.184  11.585  11.564
63357W        W34886   7.781  26.299   3.304
63358W        W34887   2.706  31.644  13.889
63359W        W34888  21.069  22.613   3.335
63360W        W34889   0.416  37.259   0.823
63361W        W34890   9.078  33.535   3.555
63362W        W34891  30.384  13.364   2.596
63363W        W34892  23.726   7.433   3.115
63364W        W34893  13.641  14.649   1.961
63365W        W34894  41.460  37.815   0.328
63366W        W34895  44.300  21.023   4.481
63367W        W34896  43.985   3.110  14.477
63368W        W34897  27.187   9.776   1.800
63369W        W34898   9.189  32.381   1.331
63370W        W34899  20.700  31.083   0.278
63371W        W34900   6.476  29.235  13.585
63372W        W34901  31.977   0.348  13.325
63373W        W34902  24.578  16.361   3.189
63374W        W34903  21.241   3.677   4.262
63375W        W34904   3.363  44.514  12.966
63376W        W34905  36.872  32.548  10.624
63377W        W34906  38.932  16.467  12.029
63378W        W34907  13.645  39.333  12.384
63379W        W34908  20.312   3.285   1.302
63380W        W34909  43.065  20.413  11.843
63381W        W34910  21.733  39.362  11.086
63382W        W34911  33.090  35.495   2.904
63383W        W34912  37.130  30.132   1.770
63384W        W34913   7.769  17.191   4.560
63385W        W34914  22.669  14.115   9.665
63386W        W34915   5.989   8.503  11.573
63387W        W34916  29.279  16.257   3.150
63388W        W34917  29.331  29.998  13.478
63389W        W34918  13.708  11.987  13.528
63390W        W34919  14.296  31.001  11.513
63391W        W34920  44.630  17.012   4.990
63392W        W34921  27.622  39.151  13.568
63393W        W34922  18.136   8.676  11.497
63394W        W34923  27.070  28.359  10.522
63395W        W34924  11.630   7.766   0.789
63396W        W34925   6.625   6.944   3.374
63397W        W34926  28.651  16.577  14.885
63398W        W34927   4.642   0.351   1.712
63399W        W34928  41.079   3.002   2.729
63400W        W34929  33.060  33.195   3.314
63401W        W34930  35.002   3.506   4.273
63402W        W34931   9.914   0.774  13.519
63403W        W34932  15.545  23.433  10.716
63404W        W34933   5.829   1.287   1.875
63405W        W34934   6.778  33.648   4.742
63406W        W34935  19.982  42.435  11.050
63407W        W34936  16.638  11.174   3.625
63408W        W34937   9.146  21.010  14.363
63409W        W34938   4.251  43.349  11.965
63410W        W34939  31.881  29.460   1.411
63411W        W34940  39.861  17.148   0.364
63412W        W34941  23.592   0.340   0.177
63413W        W34942  40.739  12.601  14.054
63414W        W34943  25.667  15.730   2.945
63415W        W34944  38.396  22.850  14.817
63416W        W34945  12.180  17.648   0.756
63417W        W34946  26.342   8.446   2.398
63418W        W34947  16.105   3.978   2.678
63419W        W34948   0.263  34.121   3.527
63420W        W34949  18.682  27.609   4.771
63421W        W34950  43.586   2.952   3.193
63422W        W34951   2.566  23.070  11.882
63423W        W34952  37.886  30.425  12.420
63424W        W34953  34.525  14.380   1.817
63425W        W34954   2.908  43.764  14.739
63426W        W34955   9.614  37.946   0.512
63427W        W34956  19.752  30.170  12.492
63428W        W34957  10.395   4.639   1.773
63429W        W34958  17.157  35.413  10.260
63430W        W34959  35.594  13.850  12.924
63431W        W34960  27.937   5.895   2.240
63432W        W34961   8.726  27.803   3.330
63433W        W34962  11.577  40.136   1.724
63434W        W34963   5.830  44.907   2.617
63435W        W34964  41.808  12.157  12.395
63436W        W34965  18.317  15.596   1.203
63437W        W34966  17.555  20.434  12.611
63438W        W34967   6.729  25.940   0.367
63439W        W34968   3.930  40.307   1.429
63440W        W34969  23.666  41.276  10.296
63441W        W34970   6.323  41.492   1.765
63442W        W34971  12.907   5.611  11.355
63443W        W34972  13.172  39.099   0.472
63444W        W34973  37.897  17.688   1.667
63445W        W34974  33.366   3.665   1.736
63446W        W34975  42.942  40.976   3.717
63447W        W34976  43.890  21.515  13.034
63448W        W34977  44.289  20.952   0.894
63449W        W34978   1.203   3.335   4.644
63450W        W34979   1.838  37.426  11.669
63451W        W34980  18.669  14.150  11.261
63452W        W34981  15.553  33.838  12.771
63453W        W34982  18.623   1.394   0.894
63454W        W34983  43.768   7.018   2.434
63455W        W34984   2.498  34.064  13.362
63456W        W34985  42.839  24.889  11.860
63457W        W34986  11.289  24.537  14.537
63458W        W34987  23.693  15.515  10.723
63459W        W34988   3.637  11.724  10.651
63460W        W34989  25.778  25.419   3.190
63461W        W34990  23.492   7.099  10.832
63462W        W34991   1.185   1.698   3.281
63463W        W34992  36.939   1.330  11.575
63464W        W34993  11.867  25.431  13.276
63465W        W34994   7.756  20.173   1.793
63466W        W34995  43.080  33.972   2.710
63467W        W34996   9.417  14.762  12.969
63468W        W34997  12.946  10.138   0.822
63469W        W34998  43.911  29.901  11.142
63470W        W34999  11.577   7.148  14.019
63471W        W35000   2.296   0.344  13.242
63472W        W35001  13.098  19.606  11.629
63473W        W35002  40.457  42.250  12.842
63474W        W35003  43.948  10.247  12.943
63475W        W35004   6.626  18.510  10.318
63476W        W35005  29.919  28.627   1.678
63477W        W35006  26.676  29.411   3.252
63478W        W35007  11.850  19.576  12.901
63479W        W35008  22.047  27.917   1.314
63480W        W35009  27.033  19.422  11.542
63481W        W35010   4.993   1.770   0.331
63482W        W35011  15.640  11.573  12.317
63483W        W35012  26.764  35.400  14.340
63484W        W35013  35.524  25.356   2.757
63485W        W35014  30.974  32.942  12.468
63486W        W35015  33.628   1.963  14.905
63487W        W35016   8.846  28.318   4.609
63488W        W35017  32.391  39.532   2.520
63489W        W35018  41.008   3.332  12.001
63490W        W35019   9.125  18.047  12.680
63491W        W35020  21.758  29.942  13.472
63492W        W35021  34.856   5.362   4.639
63493W        W35022  12.640  42.793  14.344
63494W        W35023  19.045  41.139  14.747
63495W        W35024  26.378  44.301  11.892
63496W        W35025  11.902  14.452  13.604
63497W        W35026  11.275  35.883   2.538
63498W        W35027   3.016   1.145   0.958
63499W        W35028  35.537  13.654   3.171
63500W        W35029  26.709  38.421  10.746
63501W        W35030   9.015  21.543   3.593
63502W        W35031   1.356  14.737  13.350
63503W        W35032   1.522  18.085   3.832
63504W        W35033  31.444   0.674   1.235
63505W        W35034  34.517  37.805  10.763
63506W        W35035  41.563   1.838  11.590
63507W        W35036  21.574  36.970   0.429
63508W        W35037   6.339  20.041   0.341
63509W        W35038  20.230  24.803   3.744
63510W        W35039  11.199  26.028   2.924
63511W        W35040  18.734   9.884  14.198
63512W        W35041  38.903  24.748  13.445
63513W        W35042  24.556  15.838   3.241
63514W        W35043  33.639  39.534   0.184
63515W        W35044  19.315  22.690   4.073
63516W        W35045  10.327  42.012   2.722
63517W        W35046  15.774  21.232   1.573
63518W        W35047  34.590  32.016   2.789
63519W        W35048  38.049  24.433  11.126
63520W        W35049  26.180   9.932  10.644
63521W        W35050  34.201  43.916   0.956
63522W        W35051  43.387  32.197  13.871
63523W        W35052  15.692  38.537   1.755
63524W        W35053  39.940  34.425  13.427
63525W        W35054   4.791  32.410  11.394
63526W        W35055  33.654   2.081   4.276
63527W        W35056  43.268  20.182   4.626
63528W        W35057  34.487  18.296   0.671
63529W        W35058  29.995  44.780   0.060
63530W        W35059  19.034  25.160   2.815
63531W        W35060  11.836  30.728  10.760
63532W        W35061  10.712   4.115  12.581
63533W        W35062  27.416  23.044   3.320
63534W        W35063  29.259  18.503   4.693
63535W        W35064  24.604  22.766   1.841
63536W        W35065  23.479  17.115   4.526
63537W        W35066  26.554  34.023  11.211
63538W        W35067   9.210  40.833   0.434
63539W        W35068  17.564  38.256   3.331
63540W        W35069   0.727  38.684   4.094
63541W        W35070   7.199   6.950   4.651
63542W        W35071  30.760  22.533   0.468
63543W        W35072   6.745   9.861   0.936
63544W        W35073   7.882  24.071  14.479
63545W        W35074   7.722  11.373  13.831
63546W        W35075  34.894  30.187   1.272
63547W        W35076   9.465  26.969   1.608
63548W        W35077  34.922  21.534   0.346
63549W        W35078  25.920   4.852  12.046
63550W        W35079  12.841  24.091  12.932
63551W        W35080  19.628  39.377   4.327
63552W        W35081  10.835  34.361  11.692
63553W        W35082  25.753   8.482   4.198
63554W        W35083  31.617  29.849  12.904
63555W        W35084  40.868   9.974   1.865
63556W        W35085  31.929  19.017  13.148
63557W        W35086  44.768  15.489   2.981
63558W        W35087  19.246  24.254  11.543
63559W        W35088   4.871  25.407   2.910
63560W        W35089  23.602  30.026   2.271
63561W        W35090  13.261  11.423   1.857
63562W        W35091  13.840  27.499  11.894
63563W        W35092  29.586  21.737   1.464
63564W        W35093  44.000  37.968   3.398
63565W        W35094   4.824   3.875   1.467
63566W        W35095   4.565  43.846   0.358
63567W        W35096  44.627  44.493  10.012
63568W        W35097  35.834  38.991   4.725
63569W        W35098   5.853  10.686   3.392
63570W        W35099   5.026  30.361   2.810
63571W        W35100  31.358  18.594   3.759
63572W        W35101   6.338  41.267  11.361
63573W        W35102   9.657   4.298   4.440
63574W        W35103  10.098  15.716   0.962
63575W        W35104  12.894  24.342   3.192
63576W        W35105  28.502   3.988   0.429
63577W        W35106  14.747   2.859  11.587
63578W        W35107  12.830  42.938  12.014
63579W        W35108  14.705  26.484  12.386
63580W        W35109  43.032  39.264  14.541
63581W        W35110  33.981  37.512   2.412
63582W        W35111   7.932   8.530  12.618
63583W        W35112  24.281  40.357   4.600
63584W        W35113  31.174  39.277   0.895
63585W        W35114  25.124  14.386   4.461
63586W        W35115  30.578  16.313  12.004
63587W        W35116  20.392  33.916  11.412
63588W        W35117  40.411  35.530  14.390
63589W        W35118  12.099  16.385  11.445
63590W        W35119  33.995  33.734  14.830
63591W        W35120  36.340  28.462  13.916
63592W        W35121   8.585  30.446   3.579
63593W        W35122  25.644  24.329   1.773
63594W        W35123  11.801  18.559  13.867
63595W        W35124   6.365  41.802  11.280
63596W        W35125  38.316  41.213   1.374
63597W        W35126  14.360   8.622   1.127
63598W        W35127  42.520  10.271   1.685
63599W        W35128  38.986  33.195  13.926
63600W        W35129  24.301  19.785  14.396
63601W        W35130  11.773  20.012   3.147
63602W        W35131  33.187  44.256  11.502
63603W        W35132  25.222   0.083  14.232
63604W        W35133  12.869  15.557   3.310
63605W        W35134  17.656  21.246  14.278
63606W        W35135  37.066  28.380   4.095
63607W        W35136   0.134  30.211   1.216
63608W        W35137  36.332  33.344  12.036
63609W        W35138  12.358   9.870   4.630
63610W        W35139  31.653  16.919  11.431
63611W        W35140  12.356  15.275  12.087
63612W        W35141  44.993  11.727   0.693
63613W        W35142  32.574  35.656   0.798
63614W        W35143  32.639  32.465   0.734
63615W        W35144  25.662  14.363  11.896
63616W        W35145   6.704  44.761  13.252
63617W        W35146  35.334  30.563   1.877
63618W        W35147   2.930  26.817  12.824
63619W        W35148  42.467  30.373   2.727
63620W        W35149   4.966  37.819  12.087
63621W        W35150  27.686   1.278  11.555
63622W        W35151  40.375  12.145  12.933
63623W        W35152  21.680  17.312   2.148
63624W        W35153  11.793  41.836   1.358
63625W        W35154  25.827  39.693  11.627
63626W        W35155  24.504  19.760   1.882
63627W        W35156  43.255   1.348  13.925
63628W        W35157  12.407  25.615  11.484
63629W        W35158  16.441  22.850  14.219
63630W        W35159  26.526  13.593  11.005
63631W        W35160  38.025  43.434   0.953
63632W        W35161   5.563   0.507  14.730
63633W        W35162  22.406  34.516  12.976
63634W        W35163  28.506  20.554   3.030
63635W        W35164  43.699  30.063  11.614
63636W        W35165   7.349  10.572   0.746
63637W        W35166  26.481  25.021   2.173
63638W        W35167  36.543  20.810   3.326
63639W        W35168  35.688  30.476   2.230
63640W        W35169   9.745   6.788  12.161
63641W        W35170  32.552   0.233   0.840
63642W        W35171   6.697  14.726  10.763
63643W        W35172  11.244   1.436   3.073
63644W        W35173  29.103  24.058   0.188
63645W        W35174  12.968  38.576   1.944
63646W        W35175  34.625  17.894   1.594
63647W        W35176  24.372   4.997   9.753
63648W        W35177  27.690   8.960   0.495
63649W        W35178  43.318  12.791   0.872
63650W        W35179  30.131  42.915  12.937
63651W        W35180   9.800  43.059   1.163
63652W        W35181  22.196  42.863  14.851
63653W        W35182  30.720  26.778  10.771
63654W        W35183  22.180  21.172   3.917
63655W        W35184  27.794  19.682   2.364
63656W        W35185  35.354  35.385  13.418
63657W        W35186   5.424   6.489  13.424
63658W        W35187   3.054  34.274  14.194
63659W        W35188  30.689  30.879  14.120
63660W        W35189  22.031  29.113   2.144
63661W        W35190   9.188  44.706   0.278
63662W        W35191  21.675  32.582  14.000
63663W        W35192  11.658   2.469   4.097
63664W        W35193  41.880  11.210  12.310
63665W        W35194  14.593  33.442  13.014
63666W        W35195  43.709  32.999   3.392
63667W        W35196   8.942  12.987  12.497
63668W        W35197  18.747  38.490   1.815
63669W        W35198  42.550  33.273   4.696
63670W        W35199   2.179  39.578  14.768
63671W        W35200  13.622  15.140  13.465
63672W        W35201  31.530  29.765   4.378
63673W        W35202  33.572   2.655   1.020
63674W        W35203   1.086   8.339  12.148
63675W        W35204  16.987   7.633  10.807
63676W        W35205  25.438  37.139  13.415
63677W        W35206  21.620  18.775   3.133
63678W        W35207  11.806  20.120  14.601
63679W        W35208  31.193  40.898  12.443
63680W        W35209   7.153  44.378   2.702
63681W        W35210  23.691  12.199  13.477
63682W        W35211  21.633  10.734  14.382
63683W        W35212  40.740  39.343  13.930
63684W        W35213  36.570  43.386  12.216
63685W        W35214  41.045  20.972   2.743
63686W        W35215  44.177   6.250   3.263
63687W        W35216  16.978   3.184   3.267
63688W        W35217  27.424  41.483   0.964
63689W        W35218  33.502   8.485   5.049
63690W        W35219  39.509  13.331  11.096
63691W        W35220   4.448   2.847   2.357
63692W        W35221  10.932  44.852  14.368
63693W        W35222  15.698  10.871   3.687
63694W        W35223  17.117   0.432   1.764
63695W        W35224  17.090   7.901   1.408
63696W        W35225  24.516  43.116  10.408
63697W        W35226  32.550  12.755   4.936
63698W        W35227  19.581  33.946  11.865
63699W        W35228  19.722  15.677   4.087
63700W        W35229  34.690  34.495   4.316
63701W        W35230  27.050   0.012   0.147
63702W        W35231  25.144  22.901   1.702
63703W        W35232  40.838  26.712  12.840
63704W        W35233   5.892  41.124   3.874
63705W        W35234  31.455   6.830  13.904
63706W        W35235  25.103   7.219  10.643
63707W        W35236  12.882  15.746  13.680
63708W        W35237   6.665  21.799   1.620
63709W        W35238  25.041   3.234   3.667
63710W        W35239  28.047  12.463  10.354
63711W        W35240  21.721  21.766  14.438
63712W        W35241  21.227  23.065  13.655
63713W        W35242   5.223  26.205   2.787
63714W        W35243  32.025  21.534   3.211
63715W        W35244  16.034  41.625   1.874
63716W        W35245  43.866  28.611  14.744
63717W        W35246  35.135  39.657  12.963
63718W        W35247  24.505  10.800  11.442
63719W        W35248  21.073  18.147  14.001
63720W        W35249  43.671  29.761   4.495
63721W        W35250  18.665   5.775  11.667
63722W        W35251   5.797  32.173  14.590
63723W        W35252   7.316  41.585  12.921
63724W        W35253  16.040  22.451  14.375
63725W        W35254   7.196   7.093  12.043
63726W        W35255  20.682   3.361  10.562
63727W        W35256   9.860  40.225  13.988
63728W        W35257   1.697   7.762   0.797
63729W        W35258  29.171  35.954   2.737
63730W        W35259  30.890  29.454   1.200
63731W        W35260  32.442  34.384   0.961
63732W        W35261   8.357  38.088   1.239
63733W        W35262  28.964  34.421   2.189
63734W        W35263  14.578  14.715   1.836
63735W        W35264  34.686  12.235   3.359
63736W        W35265  43.545  11.067  14.635
63737W        W35266   8.675   1.001  10.808
63738W        W35267  16.548  13.413  14.283
63739W        W35268   6.055  29.030  11.849
63740W        W35269   6.264  25.632   1.678
63741W        W35270  37.530  22.226  11.597
63742W        W35271  21.625  42.294  11.627
63743W        W35272   2.386  24.066   1.710
63744W        W35273  15.095  39.691  13.573
63745W        W35274  25.203  27.724  11.999
63746W        W35275  21.065  36.152   4.653
63747W        W35276   7.098  30.087  13.128
63748W        W35277  28.474  19.357   0.768
63749W        W35278  17.137   8.537  11.953
63750W        W35279  41.383   9.639  14.512
63751W        W35280  21.214   8.754  12.068
63752W        W35281  30.353  29.027  13.203
63753W        W35282  10.840   2.360  13.899
63754W        W35283   7.780  11.712  13.429
63755W        W35284  44.213  32.430   1.321
63756W        W35285  43.345   7.371   4.637
63757W        W35286  28.873   3.179  11.643
63758W        W35287  27.625  28.660   5.033
63759W        W35288  26.227   4.399  14.562
63760W        W35289  25.984  28.242   3.800
63761W        W35290   5.458  26.084  14.823
63762W        W35291  17.579  29.938  13.273
63763W        W35292  38.537  15.320   4.973
63764W        W35293   1.717  17.183   3.789
63765W        W35294  44.923  12.288  11.088
63766W        W35295  21.233  14.530   4.112
63767W        W35296  21.075   9.711  10.251
63768W        W35297  42.544  20.105   4.051
63769W        W35298  10.057  38.395  12.942
63770W        W35299  15.680   0.463  14.983
63771W        W35300   8.856  21.551   0.185
63772W        W35301  11.654  33.880   0.344
63773W        W35302  39.039  10.612  10.341
63774W        W35303  21.017   7.199  10.427
63775W        W35304  24.063  32.621   3.188
63776W        W35305  18.475  41.889   1.407
63777W        W35306  27.952  15.807   4.295
63778W        W35307  13.646  38.440  10.770
63779W        W35308  41.111  36.156  12.091
63780W        W35309  20.063  37.997  12.408
63781W        W35310  38.204  13.578   0.462
63782W        W35311   0.019  30.027   4.548
63783W        W35312  43.274  27.066  13.014
63784W        W35313  21.922  23.888  11.484
63785W        W35314   4.076  32.210  10.729
63786W        W35315  37.125   2.965   4.088
63787W        W35316   2.152  34.100   3.701
63788W        W35317  22.114   3.582   4.938
63789W        W35318   6.626  42.870  14.467
63790W        W35319   0.791   0.020  12.083
63791W        W35320  42.321  26.064  12.530
63792W        W35321   0.488  37.887  14.989
63793W        W35322  32.202   1.330   0.343
63794W        W35323  33.060  24.000  14.903
63795W        W35324  14.800  16.837   3.688
63796W        W35325  19.727  34.983   3.065
63797W        W35326  24.101  21.974   4.137
63798W        W35327   5.506  20.233  12.799
63799W        W35328   6.388  25.269  13.874
63800W        W35329   4.005  41.949  12.960
63801W        W35330  28.597  35.443   3.357
63802W        W35331  26.455  37.920  14.594
63803W        W35332  10.213  20.614   0.926
63804W        W35333  35.616  43.585  13.547
63805W        W35334  21.126  42.496   0.307
63806W        W35335  27.962  40.065   4.028
63807W        W35336  44.853   6.775   1.426
63808W        W35337  13.739  15.073   0.873
63809W        W35338   6.210   5.522  14.609
63810W        W35339   8.874  35.901  14.425
63811W        W35340   5.238  44.703  11.131
63812W        W35341   5.976  25.925   4.587
63813W        W35342  13.315   1.258  11.717
63814W        W35343  30.080  16.605  10.607
63815W        W35344  27.694  27.414   2.843
63816W        W35345  16.886  22.638   4.334
63817W        W35346   2.524  29.891  12.398
63818W        W35347  43.844  17.986  13.859
63819W        W35348   4.232  31.319  12.494
63820W        W35349   2.637  38.841  14.419
63821W        W35350  22.318   1.517  14.482
63822W        W35351  15.882  15.365  11.132
63823W        W35352  33.064  10.225   0.465
63824W        W35353   7.247  13.788   1.304
63825W        W35354  36.265  18.760  14.166
63826W        W35355  38.585  26.576  13.445
63827W        W35356  15.111  14.290  14.756
63828W        W35357  39.636  41.446  13.312
63829W        W35358   6.380   8.210   0.684
63830W        W35359   2.226  39.081   4.264
63831W        W35360  37.406  32.374  10.613
63832W        W35361  34.881  28.598  11.537
63833W        W35362  10.351   6.249   0.849
63834W        W35363  30.021  24.145   3.636
63835W        W35364   3.655  34.527   0.325
63836W        W35365  12.370   4.829  11.699
63837W        W35366  20.540   6.388   0.059
63838W        W35367   0.918  35.590   0.403
63839W        W35368  38.548  17.841  14.801
63840W        W35369  25.189   7.312  14.532
63841W        W35370  41.909  10.813   1.692
63842W        W35371  13.158  41.089   1.381
63843W        W35372  22.632  11.799   4.524
63844W        W35373   6.874   7.640  12.526
63845W        W35374  32.609  17.130   4.396
63846W        W35375  11.866  36.913   4.373
63847W        W35376  38.366   2.434  11.932
63848W        W35377  28.209  38.068  14.939
63849W        W35378  29.267  33.251  13.090
63850W        W35379  30.525  40.945   3.311
63851W        W35380   9.199  39.129  13.403
63852W        W35381  12.646  32.075   4.245
63853W        W35382  35.744  27.975  10.552
63854W        W35383  12.346  38.348  11.067
63855W        W35384  35.470   7.896   2.600
63856W        W35385  33.731  41.351  14.428
63857W        W35386  19.327  42.345   1.136
63858W        W35387  28.572  34.584   2.930
63859W        W35388  35.272  31.173  12.224
63860W        W35389  42.921  31.034  13.927
63861W        W35390  38.425  18.544   3.730
63862W        W35391  28.069  23.633   2.168
63863W        W35392   5.921  10.408   0.761
63864W        W35393   4.985  34.664   1.106
63865W        W35394  37.062   6.104   0.364
63866W        W35395  27.436  34.391   3.997
63867W        W35396   8.623  11.732  10.965
63868W        W35397  14.793  20.927   3.185
63869W        W35398  44.096  39.424   1.379
63870W        W35399  38.947  14.181  13.281
63871W        W35400   3.904  15.080  13.866
63872W        W35401  12.667  21.655   1.896
63873W        W35402  35.388  35.461  10.670
63874W        W35403  28.430  25.104  14.855
63875W        W35404  21.583  18.545  12.157
63876W        W35405   6.690  24.428   0.913
63877W        W35406  31.454  26.720  12.096
63878W        W35407  38.540  23.472  10.736
63879W        W35408  22.948   8.240   1.352
63880W        W35409  22.342   6.789  14.802
63881W        W35410  33.077  40.181   1.844
63882W        W35411  43.226  17.632  11.211
63883W        W35412  14.103  19.003   0.872
63884W        W35413  43.411   8.771  14.012
63885W        W35414  21.426  33.115   2.350
63886W        W35415  19.981   9.347  11.031
63887W        W35416  24.558   8.212  11.962
63888W        W35417   4.210  15.187   3.714
63889W        W35418  33.006  38.355   2.103
63890W        W35419  35.977  28.670   3.258
63891W        W35420  28.184  44.402   2.365
63892W        W35421  42.476   9.310   1.100
63893W        W35422  34.264  16.998   1.296
63894W        W35423  22.091  26.020  11.221
63895W        W35424  29.135   9.275   0.519
63896W        W35425   4.370  33.152  14.064
63897W        W35426  24.911   1.755  10.982
63898W        W35427  18.817  19.674   0.540
63899W        W35428  39.787  38.423   2.430
63900W        W35429  15.844  35.363  12.782
63901W        W35430   4.702  31.237   0.779
63902W        W35431  24.175  36.564   3.794
63903W        W35432  18.632  30.620  10.413
63904W        W35433  20.139  22.312   1.658
63905W        W35434  35.994  36.557   3.072
63906W        W35435  25.054  35.958  11.886
63907W        W35436  33.171   6.868   0.829
63908W        W35437  37.600  42.907   4.269
63909W        W35438  14.977   8.477  11.478
63910W        W35439  44.284  36.867   3.179
63911W        W35440   1.444   2.882   4.696
63912W        W35441  36.795  19.519   3.502
63913W        W35442  38.255  36.559   0.294
63914W        W35443  42.577  15.132  13.736
63915W        W35444   1.244   1.978  13.042
63916W        W35445   7.065   0.856   4.765
63917W        W35446  12.239  26.902   1.245
63918W        W35447  42.960  17.334  12.928
63919W        W35448  23.022  39.926   2.327
63920W        W35449  22.957  35.931   2.380
63921W        W35450  18.088  16.625   2.737
63922W        W35451   1.483  16.793   3.578
63923W        W35452   9.906  15.372   3.086
63924W        W35453  28.232   1.834   0.320
63925W        W35454  29.307  42.289   0.726
63926W        W35455  44.796  22.229   1.008
63927W        W35456  38.029  38.882   0.466
63928W        W35457  14.674  21.092   0.686
63929W        W35458  44.391  36.081  13.927
63930W        W35459  33.191  16.343   2.843
63931W        W35460  24.489  23.768   1.811
63932W        W35461   8.511  33.182  12.093
63933W        W35462  32.793  13.368  11.710
63934W        W35463  28.688   8.414   2.364
63935W        W35464  17.139  38.582  13.926
63936W        W35465  22.553   5.428  12.444
63937W        W35466   1.226  38.426   4.617
63938W        W35467  11.179  41.070  10.601
63939W        W35468  27.690  42.879  11.446
63940W        W35469  30.448  15.593   1.819
63941W        W35470  31.924  16.687  10.646
63942W        W35471  38.857  34.620   3.546
63943W        W35472  17.461  29.516  14.935
63944W        W35473  34.007  36.297  12.412
63945W        W35474  25.551  17.257  11.301
63946W        W35475  41.516  11.741   1.907
63947W        W35476  27.351  36.127  12.899
63948W        W35477  26.231  14.782  13.447
63949W        W35478   6.669   1.302   3.634
63950W        W35479  34.157  24.771  11.571
63951W        W35480  16.619  17.006   4.013
63952W        W35481  24.325  32.698  10.677
63953W        W35482  25.085  26.860  11.672
63954W        W35483  29.964   5.329   2.360
63955W        W35484   9.145  43.025   2.416
63956W        W35485  30.862  38.562   2.261
63957W        W35486  42.819  10.523   4.108
63958W        W35487   2.942  43.783   0.770
63959W        W35488  17.736  12.148  12.536
63960W        W35489  39.705  23.683   4.087
63961W        W35490   1.371  31.608  14.019
63962W        W35491  20.266  23.446  14.507
63963W        W35492   1.218  13.754   0.476
63964W        W35493  21.547  25.707  12.509
63965W        W35494  21.521  32.326   3.873
63966W        W35495  33.628  31.757  10.760
63967W        W35496   9.046   9.090  11.085
63968W        W35497   0.318   9.973  13.307
63969W        W35498  22.221   9.106  10.506
63970W        W35499  21.039  18.575   2.367
63971W        W35500  12.127  12.354   4.186
63972W        W35501  33.525  15.821  11.392
63973W        W35502  24.272  34.891   3.679
63974W        W35503  14.540  44.286  10.135
63975W        W35504   2.507  17.259  14.789
63976W        W35505  30.004  14.801   0.885
63977W        W35506  32.277  13.098   3.873
63978W        W35507   4.234  43.393   0.457
63979W        W35508  23.047  17.336   1.739
63980W        W35509  12.324  19.383  14.075
63981W        W35510  17.317  18.191  14.699
63982W        W35511  43.275  27.539   0.428
63983W        W35512  15.685  35.377   0.160
63984W        W35513  28.945  22.602  14.814
63985W        W35514  35.900  24.473   0.819
63986W        W35515   9.770   9.546  12.594
63987W        W35516  38.328  23.084  11.151
63988W        W35517  24.204  15.700   2.117
63989W        W35518  23.696  10.641   3.609
63990W        W35519  23.750   5.880  11.124
63991W        W35520  30.913  20.735   3.346
63992W        W35521   0.309  13.159   2.339
63993W        W35522  38.626   6.463  11.657
63994W        W35523  36.577  22.014   3.689
63995W        W35524  26.353  11.696   2.267
63996W        W35525  41.447  30.347  14.932
63997W        W35526  37.859  38.866  12.430
63998W        W35527  34.294  23.747   3.213
63999W        W35528  26.154  41.771  13.412
64000W        W35529   2.470   2.974   4.899
64001W        W35530   2.290  23.787  14.857
64002W        W35531  11.294  11.595   3.773
64003W        W35532  28.128  26.515   4.966
64004W        W35533   1.075  36.414  10.518
64005W        W35534  23.464   9.285   3.275
64006W        W35535  27.102   3.231   4.591
64007W        W35536  15.182  36.991  10.560
64008W        W35537  36.881   4.892   1.880
64009W        W35538   8.774  20.704   1.154
64010W        W35539   1.403  25.263  11.088
64011W        W35540  13.085  30.649   0.524
64012W        W35541  32.591  38.504   2.912
64013W        W35542  44.431  29.608   1.539
64014W        W35543   9.573  40.462  11.497
64015W        W35544  44.262  11.270  11.818
64016W        W35545  30.259   1.123   3.138
64017W        W35546  32.920  24.636  12.972
64018W        W35547   9.189  29.133   4.121
64019W        W35548  20.154  10.290  10.730
64020W        W35549  31.189  29.305  12.092
64021W        W35550  29.061  35.594   4.677
64022W        W35551  22.537  43.241  11.441
64023W        W35552  10.870  36.581   3.486
64024W        W35553   2.938  34.450   1.240
64025W        W35554  17.359  19.277  11.505
64026W        W35555   9.870  18.182  10.239
64027W        W35556  19.619   9.889   4.095
64028W        W35557  34.330   4.559  13.450
64029W        W35558  16.732   8.309  14.274
64030W        W35559   8.763  35.623   1.249
64031W        W35560   3.734  43.433  14.338
64032W        W35561  22.853  28.437   3.797
64033W        W35562  44.852  15.468  12.407
64034W        W35563  23.701  40.880  11.245
64035W        W35564  28.853  16.029  14.012
64036W        W35565   0.248  23.734   3.422
64037W        W35566   4.612   7.714  13.508
64038W        W35567  35.884   2.749   3.732
64039W        W35568  35.362  42.278   2.347
64040W        W35569  22.120  38.744   1.875
64041W        W35570  40.981   3.206   2.240
64042W        W35571  26.850  37.325   3.146
64043W        W35572  42.534  35.734   1.724
64044W        W35573  27.936   2.410  11.721
64045W        W35574  30.993  25.033  12.445
64046W        W35575   6.421  20.936   0.822
64047W        W35576  33.704   1.412   4.924
64048W        W35577  35.814  15.023   4.199
64049W        W35578  11.349   8.318   0.832
64050W        W35579  30.382  30.955  13.321
64051W        W35580  39.550  34.038   3.764
64052W        W35581  36.107  43.758  13.480
64053W        W35582  12.539   7.315   4.082
64054W        W35583  39.546  41.001  13.910
64055W        W35584  10.919  40.096   4.705
64056W        W35585  11.555   2.840  13.030
64057W        W35586  24.665  11.901   1.202
64058W        W35587  22.965  17.593  13.066
64059W        W35588   4.286  10.741  12.401
64060W        W35589  16.052   3.505  13.003
64061W        W35590  26.167  30.045  14.028
64062W        W35591  11.630   6.214  11.566
64063W        W35592  23.267  40.807   2.449
64064W        W35593  21.486   6.284   2.750
64065W        W35594  43.867  17.333  13.455
64066W        W35595  37.321  22.016  14.374
64067W        W35596  20.749  13.547   4.187
64068W        W35597  19.457  42.936  12.825
64069W        W35598   9.164  12.121   4.558
64070W        W35599   4.381   3.703  14.450
64071W        W35600  18.731  37.565   3.195
64072W        W35601  36.209   6.302  12.588
64073W        W35602  34.053  36.609   1.281
64074W        W35603  34.151  20.622  11.206
64075W        W35604  42.605  29.622  10.713
64076W        W35605  15.657  11.906  12.708
64077W        W35606  24.284  40.674   0.062
64078W        W35607   7.786  28.471   0.510
64079W        W35608  29.455  28.028  14.242
64080W        W35609  32.758  14.345   0.664
64081W        W35610   1.700  17.817  14.727
64082W        W35611  36.290  13.177   2.482
64083W        W35612  28.915  21.626   0.775
64084W        W35613   6.964  22.147   0.481
64085W        W35614  38.699  40.439  12.008
64086W        W35615  13.744  32.925   0.792
64087W        W35616  11.223  34.585  11.959
64088W        W35617   7.375   3.694  13.315
64089W        W35618  10.297  39.907   3.960
64090W        W35619  25.589  19.531  10.600
64091W        W35620  34.045  24.693  10.187
64092W        W35621  32.309  37.359  11.714
64093W        W35622  24.976  36.038   1.298
64094W        W35623  25.232   0.072   3.600
64095W        W35624   0.817  20.094  12.241
64096W        W35625  34.710  16.446  10.895
64097W        W35626  39.513  36.486   3.805
64098W        W35627  31.208  34.537  13.530
64099W        W35628  44.373  40.937  13.316
64100W        W35629  20.449  17.253   4.111
64101W        W35630  37.913  17.891   1.162
64102W        W35631   4.309  43.747  14.028
64103W        W35632  24.659  18.766  14.782
64104W        W35633  28.706   2.920   3.633
64105W        W35634  20.651   9.142   4.943
64106W        W35635  30.672   9.401  14.066
64107W        W35636  29.445  10.343  11.169
64108W        W35637  21.487   6.890  12.106
64109W        W35638  24.921  24.437  12.427
64110W        W35639  21.434   8.794   4.629
64111W        W35640  25.784  22.534  10.171
64112W        W35641   5.313  37.301  14.772
64113W        W35642  24.736  29.525  12.087
64114W        W35643   8.206  29.701  12.055
64115W        W35644  17.356   6.189   1.360
64116W        W35645  45.000  37.760   2.358
64117W        W35646  41.824  29.674   4.356
64118W        W35647  40.119  27.962  14.092
64119W        W35648  40.479  41.419  11.882
64120W        W35649   1.933  26.219   4.058
64121W        W35650  23.572  43.740   0.207
64122W        W35651  20.187  34.104   4.152
64123W        W35652  26.979  13.249   1.242
64124W        W35653  33.130  37.838   1.381
64125W        W35654  41.258  23.696  11.183
64126W        W35655  25.663  40.540   3.276
64127W        W35656  23.993  40.573   2.877
64128W        W35657  35.977   5.295   0.451
64129W        W35658  25.113  11.559  11.655
64130W        W35659   9.494  32.538  14.473
64131W        W35660  32.482  41.565  10.338
64132W        W35661  35.949  44.514   1.229
64133W        W35662  32.930  25.490   1.681
64134W        W35663   7.372  33.905  11.222
64135W        W35664   8.760  44.989   2.311
64136W        W35665  30.656  31.469   3.824
64137W        W35666  18.150   3.460   5.008
64138W        W35667  43.215  38.382   4.107
64139W        W35668  21.339   4.700  12.224
64140W        W35669   3.484  33.029   0.712
64141W        W35670   3.692   4.753   1.657
64142W        W35671  21.090  33.192  11.737
64143W        W35672  12.801   9.431   2.162
64144W        W35673  26.616   6.709  12.240
64145W        W35674   7.429   4.224  11.017
64146W        W35675   8.175  14.755   1.479
64147W        W35676  21.642  20.426   0.377
64148W        W35677  26.464  16.296  14.508
64149W        W35678   1.490  28.595   2.206
64150W        W35679  18.230  38.482   1.706
64151W        W35680   1.810  17.588   4.603
64152W        W35681  16.546  44.213  11.167
64153W        W35682  29.288  26.545  14.436
64154W        W35683  33.095  29.840   3.100
64155W        W35684  40.935   1.880   1.212
64156W        W35685  39.946  31.005  11.910
64157W        W35686   7.692  12.118   2.852
64158W        W35687  30.233   8.440   3.910
64159W        W35688   6.116  27.757  12.139
64160W        W35689  12.569   5.775  10.686
64161W        W35690  23.972  30.166   3.821
64162W        W35691   1.694  24.553   3.252
64163W        W35692  23.217  30.573  12.860
64164W        W35693  11.823  44.034  12.524
64165W        W35694  38.885  27.227   0.502
64166W        W35695  33.501   6.273   3.388
64167W        W35696  42.182   3.866   2.126
64168W        W35697  39.347  19.498   2.191
64169W        W35698   0.975  33.972  14.097
64170W        W35699  32.154   2.881  13.047
64171W        W35700  23.238   0.981   4.288
64172W        W35701   8.876  13.735  14.847
64173W        W35702   4.265  24.778   1.054
64174W        W35703  29.146  31.021   1.224
64175W        W35704   0.259  17.206  12.852
64176W        W35705  24.079   2.559   3.200
64177W        W35706  37.494   5.199   2.615
64178W        W35707  44.893  43.093   2.908
64179W        W35708   2.160  20.628  14.984
64180W        W35709  42.980   7.737  11.541
64181W        W35710  26.969  20.575  11.050
64182W        W35711  36.289   1.166  14.371
64183W        W35712  33.035  18.772   3.130
64184W        W35713  15.498   2.444   2.860
64185W        W35714  20.212  22.937  14.602
64186W        W35715  34.181  15.421  10.990
64187W        W35716  17.580  18.337   3.717
64188W        W35717  16.934  10.762   3.456
64189W        W35718  23.973  27.433  14.787
64190W        W35719  24.076  33.892  11.542
64191W        W35720  10.431  13.340  10.558
64192W        W35721  10.763  24.887   1.763
64193W        W35722  38.787  40.925  13.484
64194W        W35723  21.414   2.566  10.876
64195W        W35724  12.863  21.234   2.529
64196W        W35725  28.378  10.285   1.772
64197W        W35726  17.055  31.998  13.049
64198W        W35727  30.907  44.515  13.866
64199W        W35728  21.761  39.775   3.976
64200W        W35729   0.313  19.298   2.822
64201W        W35730  28.072   4.697   3.707
64202W        W35731   3.439  23.987  14.790
64203W        W35732  35.849  29.553   3.745
64204W        W35733  16.074  35.926  14.228
64205W        W35734   6.665  26.394   0.009
64206W        W35735  39.855   3.734  12.394
64207W        W35736  13.939  13.227   4.523
64208W        W35737   8.790  32.035  14.149
64209W        W35738  11.192  31.164  11.061
64210W        W35739  18.701  25.080   5.228
64211W        W35740  13.572  11.401   1.305
64212W        W35741   4.670  13.901  11.978
64213W        W35742   4.115  20.639   0.360
64214W        W35743  28.705  14.100  10.699
64215W        W35744  19.324   2.502   4.113
64216W        W35745  26.144   0.973  12.544
64217W        W35746  14.134  16.778  11.071
64218W        W35747  40.948  10.234   0.519
64219W        W35748  41.546  16.845  11.623
64220W        W35749  36.957  15.302   4.530
64221W        W35750   6.791  34.553  13.857
64222W        W35751  15.710  32.163  10.353
64223W        W35752  37.946  13.507   1.849
64224W        W35753  44.397  13.757   4.650
64225W        W35754  30.003  42.720   3.346
64226W        W35755  31.904  35.936  11.514
64227W        W35756  38.257  41.235   1.886
64228W        W35757  12.129  35.890  10.534
64229W        W35758  17.536  37.469  10.243
64230W        W35759  27.521  30.049  11.551
64231W        W35760   5.442  15.372  12.100
64232W        W35761  41.559  37.115   1.875
64233W        W35762  18.144  22.544   4.567
64234W        W35763  44.733  12.251  14.318
64235W        W35764  29.553  30.659  11.746
64236W        W35765  26.278  18.130   2.005
64237W        W35766  18.511   7.681  11.182
64238W        W35767  42.103  31.026   0.237
64239W        W35768  25.021  15.648   2.404
64240W        W35769  41.876  20.108  11.981
64241W        W35770  13.646   6.397   4.487
64242W        W35771  27.843  21.110   0.086
64243W        W35772   3.424  25.189   4.233
64244W        W35773  26.035  31.144  11.805
64245W        W35774  35.345  14.191  10.647
64246W        W35775   1.423  10.820  14.993
64247W        W35776  23.178  34.879  11.904
64248W        W35777  26.983  40.151   3.722
64249W        W35778  26.994  42.176   1.420
64250W        W35779  29.183  19.317   1.386
64251W        W35780   6.199  42.026  14.416
64252W        W35781  19.965  21.837  13.913
64253W        W35782  39.926   8.743  13.969
64254W        W35783  37.654  13.611   0.490
64255W        W35784  27.927  28.465   0.668
64256W        W35785  13.862  37.818  10.777
64257W        W35786   2.321   8.312   2.174
64258W        W35787  12.288  21.941  12.645
64259W        W35788   3.008  42.028   2.779
64260W        W35789  29.685  25.415   4.587
64261W        W35790  18.750  44.524  12.977
64262W        W35791   6.661  20.988   1.942
64263W        W35792  38.812  16.075  11.697
64264W        W35793  39.001   4.137  12.407
64265W        W35794   3.092  31.529   1.742
64266W        W35795  34.558   8.703  11.027
64267W        W35796   6.689   3.138  10.945
64268W        W35797  40.828  19.518   2.797
64269W        W35798  26.805   4.423   0.197
64270W        W35799  42.611  39.693  11.103
64271W        W35800  35.853  23.771  12.076
64272W        W35801   3.024  21.625  13.410
64273W        W35802  38.824  20.242   3.393
64274W        W35803  43.687  40.553   0.751
64275W        W35804  18.038   2.795   2.887
64276W        W35805  35.203   6.010  14.317
64277W        W35806   6.155  44.287   2.689
64278W        W35807  40.461  24.803  13.558
64279W        W35808  21.866  10.504   0.940
64280W        W35809   0.707  43.327  12.571
64281W        W35810   0.936  15.997   2.118
64282W        W35811  14.868  10.358  11.601
64283W        W35812  21.010  37.864  12.053
64284W        W35813  26.136  27.128  10.694
64285W        W35814  22.293  40.908   3.417
64286W        W35815  23.596  24.742  11.918
64287W        W35816  27.778  31.043   1.329
64288W        W35817  40.968  42.858  11.566
64289W        W35818  26.386  31.122   4.785
64290W        W35819  21.114   8.015   1.888
64291W        W35820  27.043  15.113  13.910
64292W        W35821  34.508  20.004   4.206
64293W        W35822   7.918  23.795   2.837
64294W        W35823  21.061  33.354  13.960
64295W        W35824  25.178  16.312  10.943
64296W        W35825  24.405  32.797   1.822
64297W        W35826  28.545  41.500  14.002
64298W        W35827  15.168  28.433   4.898
64299W        W35828  28.065  25.269   1.009
64300W        W35829  43.222  13.603  11.534
64301W        W35830  34.423   0.330  12.287
64302W        W35831  36.111  25.444   2.768
64303W        W35832  38.077   6.300   0.658
64304W        W35833  26.862   5.955  11.604
64305W        W35834  44.885  40.904   2.323
64306W        W35835  42.843  43.463   4.680
64307W        W35836  16.073  24.029  11.979
64308W        W35837  11.361  34.165  11.687
64309W        W35838  38.561  20.957   3.829
64310W        W35839  25.508  36.953   2.113
64311W        W35840  39.698  44.319  12.610
64312W        W35841  36.379  37.070   4.136
64313W        W35842  36.666  30.723   4.094
64314W        W35843  14.264   9.098   1.365
64315W        W35844  29.168  36.215   3.207
64316W        W35845  24.268  22.452   4.245
64317W        W35846  39.025  27.683   0.268
64318W        W35847  13.102  20.242  12.200
64319W        W35848   4.984  42.415  13.835
64320W        W35849  41.754  12.227  13.269
64321W        W35850  23.293  20.856  14.851
64322W        W35851  37.061  32.161   3.794
64323W        W35852  28.771   1.615  14.396
64324W        W35853  32.321  13.232   4.844
64325W        W35854  21.234  33.245  14.923
64326W        W35855  39.648  24.892  14.729
64327W        W35856   1.126  36.502  13.009
64328W        W35857  33.444  16.732   2.628
64329W        W35858   1.009  34.961   1.623
64330W        W35859   6.348   5.633  13.857
64331W        W35860   1.846  19.704  13.842
64332W        W35861   4.937   9.092   1.381
64333W        W35862  37.012  15.672   4.158
64334W        W35863  40.465  34.341   4.677
64335W        W35864  30.195  38.438  13.359
64336W        W35865  11.195   8.116  14.417
64337W        W35866   9.043  32.021   0.984
64338W        W35867  39.839   1.843   2.815
64339W        W35868  20.647  13.312  13.591
64340W        W35869  36.584  11.692   1.476
64341W        W35870   6.012  22.588   0.491
64342W        W35871  10.315  13.415  14.975
64343W        W35872  11.343  27.970   1.280
64344W        W35873  29.934  21.144   1.861
64345W        W35874  39.787  43.432  11.335
64346W        W35875   9.813   5.728   2.333
64347W        W35876  32.718  43.286  14.271
64348W        W35877   9.712   9.375   4.398
64349W        W35878  36.481  10.602   3.158
64350W        W35879  18.870   8.705  14.329
64351W        W35880  37.284  15.388  12.407
64352W        W35881  10.655  29.307   2.731
64353W        W35882  33.830  17.298  10.266
64354W        W35883  10.892  12.579   4.113
64355W        W35884  13.627  43.903  13.524
64356W        W35885   2.808  14.271  13.920
64357W        W35886  14.571   4.944  13.714
64358W        W35887  14.810  23.497   2.814
64359W        W35888  25.101   9.324  14.762
64360W        W35889  40.000  18.760   2.345
64361W        W35890  10.252  34.894  13.055
64362W        W35891  41.863  35.970   0.423
64363W        W35892  38.935  44.970  10.526
64364W        W35893   4.029  24.167   2.374
64365W        W35894  35.929  20.109   4.397
64366W        W35895  42.366  17.200  13.954
64367W        W35896  44.303  23.231  11.686
64368W        W35897   9.895   4.972   0.972
64369W        W35898  30.145   3.038  11.502
64370W        W35899   9.609  14.250  11.982
64371W        W35900  27.116   1.405  10.916
64372W        W35901  13.221  38.088  13.401
64373W        W35902  37.733  41.956   2.394
64374W        W35903  35.942  19.691  14.901
64375W        W35904  12.200   4.657   0.510
64376W        W35905  35.975  35.859   3.739
64377W        W35906  32.624  38.658  13.781
64378W        W35907  18.535  34.526   3.079
64379W        W35908   1.969  42.974  10.747
64380W        W35909  31.497  18.118   4.632
64381W        W35910   6.260  30.615   3.340
64382W        W35911  33.439  40.350  14.514
64383W        W35912  22.563  11.171   1.005
64384W        W35913  24.219  15.822   1.255
64385W        W35914   7.995   2.393   4.045
64386W        W35915  43.490  21.600   0.509
64387W        W35916  34.975   0.268   4.570
64388W        W35917  42.791  20.021  11.045
64389W        W35918  18.153  39.961  11.204
64390W        W35919  44.393  42.259   3.240
64391W        W35920  31.635  37.478  12.297
64392W        W35921   5.301  29.444  14.413
64393W        W35922  40.802  25.581   4.475
64394W        W35923  23.116  21.186   3.652
64395W        W35924  21.578   6.937  13.456
64396W        W35925  16.933   2.254   0.535
64397W        W35926   2.993  42.405  13.516
64398W        W35927   8.864  23.584   0.906
64399W        W35928  30.104   1.747  13.917
64400W        W35929  40.971  28.898   0.435
64401W        W35930  19.570  41.520  13.878
64402W        W35931   5.154   8.666   4.187
64403W        W35932  18.148   8.370  10.665
64404W        W35933   8.227  23.180   1.375
64405W        W35934  25.762  11.630  11.982
64406W        W35935  31.370  18.829   2.619
64407W        W35936   1.901   1.422   3.696
64408W        W35937   1.467  24.661   1.230
64409W        W35938   6.225   7.251  12.090
64410W        W35939  32.659  25.926   1.698
64411W        W35940  32.854  38.101   3.135
64412W        W35941  30.122  33.930  12.153
64413W        W35942  20.802  39.238   3.742
64414W        W35943   8.038  12.446   2.244
64415W        W35944  21.629  25.557   3.268
64416W        W35945  31.342  21.668   2.784
64417W        W35946  12.947  24.037  11.149
64418W        W35947   8.185   6.924   1.870
64419W        W35948   3.814  27.244   2.879
64420W        W35949  37.332  23.293   1.397
64421W        W35950  13.414  10.267  13.353
64422W        W35951  38.892  12.756   2.442
64423W        W35952  40.858  44.837  12.948
64424W        W35953  20.781   3.359   1.117
64425W        W35954  29.192  15.596  13.990
64426W        W35955  35.481  14.804   1.164
64427W        W35956  13.735   1.992  14.047
64428W        W35957   7.229  39.851  12.637
64429W        W35958  20.154  38.798   4.012
64430W        W35959  10.889   4.414  11.431
64431W        W35960  39.395  36.522  12.874
64432W        W35961   8.418  35.589   4.895
64433W        W35962  25.089  12.053  11.551
64434W        W35963  14.727   3.679   3.709
64435W        W35964  18.539  21.616   2.981
64436W        W35965  32.149  38.942  11.891
64437W        W35966  30.875  35.410   0.425
64438W        W35967  13.947  37.248   2.309
64439W        W35968  26.715   0.301   2.346
64440W        W35969   2.424  40.728  10.649
64441W        W35970  36.296  29.574   2.294
64442W        W35971  15.487  21.497   2.946
64443W        W35972  31.336   1.617  11.158
64444W        W35973  13.845   5.550   2.305
64445W        W35974  23.544  11.208   2.769
64446W        W35975  30.636  32.175   1.864
64447W        W35976   8.913  14.159  13.557
64448W        W35977  34.974  13.358   2.388
64449W        W35978   7.950   9.273   0.894
64450W        W35979  14.718  27.779   2.485
64451W        W35980  16.869  19.396  10.212
64452W        W35981  36.507  32.879  11.162
64453W        W35982  21.457  23.626  12.992
64454W        W35983  22.695  29.994   3.139
64455W        W35984  12.049  24.892   2.809
64456W        W35985   0.350  13.330   4.663
64457W        W35986  35.836  33.384  11.989
64458W        W35987  12.785  16.718   4.368
64459W        W35988   2.898  12.021  12.030
64460W        W35989  11.807  23.045   0.342
64461W        W35990   4.492  35.902   4.089
64462W        W35991  27.992  26.005   3.784
64463W        W35992  24.880  16.594   1.137
64464W        W35993  31.133   8.417   1.012
64465W        W35994  24.952  11.705  11.197
64466W        W35995  28.645   6.279   1.465
64467W        W35996  32.955  39.613   1.184
64468W        W35997   0.059  36.009   1.145
64469W        W35998  19.441  34.397   0.436
64470W        W35999  16.658  28.022   4.602
64471W        W36000   4.257  36.742   4.826
64472W        W36001  18.065  28.751   0.449
64473W        W36002  17.558  42.540   4.374
64474W        W36003  39.601  16.604  12.382
64475W        W36004  17.080   6.484  12.095
64476W        W36005  37.375  11.065  10.630
64477W        W36006  13.091   4.503  11.059
64478W        W36007   2.027  16.719   1.880
64479W        W36008   1.493   5.237   3.205
64480W        W36009  23.839  17.264   4.142
64481W        W36010  29.174   8.619   1.689
64482W        W36011  42.456  33.573   2.257
64483W        W36012  33.204  26.916   4.077
64484W        W36013  44.042  41.777   4.478
64485W        W36014  24.457  40.327   1.914
64486W        W36015  21.697  27.191  11.577
64487W        W36016  33.385  23.540   4.638
64488W        W36017  38.548  23.319  14.958
64489W        W36018  19.435  41.804  13.426
64490W        W36019   4.290  44.969   1.541
64491W        W36020  32.366  32.988   1.671
64492W        W36021  27.987   1.760  14.848
64493W        W36022  31.624  16.961   0.850
64494W        W36023  32.626  11.186  14.746
64495W        W36024  27.872  24.516   1.825
64496W        W36025  24.914  26.118   0.870
64497W        W36026  40.621  38.483   2.714
64498W        W36027  27.996   8.700   2.689
64499W        W36028  11.429   5.685  13.206
64500W        W36029  25.504  44.226   2.027
64501W        W36030  23.335  37.089  10.726
64502W        W36031   0.511  25.698  13.144
64503W        W36032  15.267  23.020  11.099
64504W        W36033  14.071   0.746  12.470
64505W        W36034  21.964  28.386   3.904
64506W        W36035   6.676  42.397   0.836
64507W        W36036  35.041   8.394   1.938
64508W        W36037  37.368   8.200   1.820
64509W        W36038  13.752  35.490  11.694
64510W        W36039  27.486   9.214  10.686
64511W        W36040   6.097  24.269   0.781
64512W        W36041  40.925   5.527  14.611
64513W        W36042  39.032   2.963   2.110
64514W        W36043   7.245  16.456  11.887
64515W        W36044   9.859  44.010  11.383
64516W        W36045  17.333  17.041  11.965
64517W        W36046  24.421  24.452  12.573
64518W        W36047  28.642  36.475  12.139
64519W        W36048  22.491  16.544  12.086
64520W        W36049  19.176  38.434   4.476
64521W        W36050   4.753  31.481   0.276
64522W        W36051  18.879  20.771  13.915
64523W        W36052  23.155  27.545   3.723
64524W        W36053  41.531  44.110   3.173
64525W        W36054  15.292  25.096   0.275
64526W        W36055   3.552  22.889   1.678
64527W        W36056   2.327   5.636   4.149
64528W        W36057  20.344  40.829  14.282
64529W        W36058   2.112  33.514  14.951
64530W        W36059  31.928  34.973   4.944
64531W        W36060  13.580  39.833  12.221
64532W        W36061  23.924  14.594  13.928
64533W        W36062   8.624  19.690  12.578
64534W        W36063  25.241  10.060  11.560
64535W        W36064   6.437  18.158   3.955
64536W        W36065   5.821  32.526   4.427
64537W        W36066  13.331  23.698  13.473
64538W        W36067  18.548  43.161   3.340
64539W        W36068   0.985  41.172   3.600
64540W        W36069  12.540   6.087   3.999
64541W        W36070  12.207  34.596   1.922
64542W        W36071  34.878  32.156   1.420
64543W        W36072  31.160   5.867  11.395
64544W        W36073  43.790   7.665  14.992
64545W        W36074  14.910  43.318  13.431
64546W        W36075  11.204   3.978  12.478
64547W        W36076  30.473  22.979  12.955
64548W        W36077  31.544  10.291  10.647
64549W        W36078  23.090  16.360   0.880
64550W        W36079  16.188  18.866  10.434
64551W        W36080  16.024  12.691   1.322
64552W        W36081   5.715   8.812   2.653
64553W        W36082  39.446   6.221   2.376
64554W        W36083  34.454  40.635   2.414
64555W        W36084  44.749  16.489   4.173
64556W        W36085  41.462  34.015   4.652
64557W        W36086  12.822  24.481   4.553
64558W        W36087  31.823  26.414  13.869
64559W        W36088  19.591  30.910  12.025
64560W        W36089   1.698  38.643  12.175
64561W        W36090  24.262   8.734  12.947
64562W        W36091  11.246  23.465  14.739
64563W        W36092  17.267  17.222   0.673
64564W        W36093  33.581  23.316   0.291
64565W        W36094   0.988  10.611   2.613
64566W        W36095  16.171  15.203   2.243
64567W        W36096  40.475  30.898  11.892
64568W        W36097  10.663   1.239  14.618
64569W        W36098  29.071   2.975  10.851
64570W        W36099  27.462  43.931   2.415
64571W        W36100  28.000  18.755   0.282
64572W        W36101   5.016  44.487  14.093
64573W        W36102   0.454   9.367   0.022
64574W        W36103  17.359   9.961   5.047
64575W        W36104  38.379   7.943   1.761
64576W        W36105  13.598   7.973   4.572
64577W        W36106  14.820  43.885  14.499
64578W        W36107   1.253  13.131   2.250
64579W        W36108  39.403  43.476   4.596
64580W        W36109   8.328  24.204  12.626
64581W        W36110  26.172   6.631   4.697
64582W        W36111  42.663   2.735  13.463
64583W        W36112  27.406  44.705   4.307
64584W        W36113  27.982  43.608   0.857
64585W        W36114   4.237  16.021   3.696
64586W        W36115  22.454  23.518   0.362
64587W        W36116  14.720  27.564   2.000
64588W        W36117   1.137  35.591   3.231
64589W        W36118   9.736  29.399  13.813
64590W        W36119  40.157  19.860   0.883
64591W        W36120  37.245  35.116   3.476
64592W        W36121  39.961  40.981   0.783
64593W        W36122  19.729  33.629  14.936
64594W        W36123  27.473  25.233  11.062
64595W        W36124  10.134  40.506  10.617
64596W        W36125  40.828  17.986  11.690
64597W        W36126  21.857  35.802  11.065
64598W        W36127  35.770  43.185   2.744
64599W        W36128  26.172  24.610   3.965
64600W        W36129   5.805   9.760   1.705
64601W        W36130  20.966  16.557   1.958
64602W        W36131  16.744  16.224  11.696
64603W        W36132  23.525  21.194   2.713
64604W        W36133  23.452  13.183   3.879
64605W        W36134  14.881  34.822   1.767
64606W        W36135  37.379  33.635   0.717
64607W        W36136  31.047  13.734   3.163
64608W        W36137  29.430  20.822  11.135
64609W        W36138  32.968  32.152   4.152
64610W        W36139  39.596  15.326   2.270
64611W        W36140  40.977   0.239  13.255
64612W        W36141   3.368  34.853   2.454
64613W        W36142  14.779   2.804   2.523
64614W        W36143   5.646   8.872   4.248
64615W        W36144  21.361   5.283   1.787
64616W        W36145  15.610  11.272  13.519
64617W        W36146  31.045  32.325  10.564
64618W        W36147  24.604  35.240  12.608
64619W        W36148   6.775  23.549  13.859
64620W        W36149   7.113  10.281   0.375
64621W        W36150  16.391  38.539  14.788
64622W        W36151  21.748  14.428  12.945
64623W        W36152  32.914  23.515  10.612
64624W        W36153  20.528  39.405  12.797
64625W        W36154  34.442  39.634  14.356
64626W        W36155  22.647  12.575  11.599
64627W        W36156  21.777  41.950   2.809
64628W        W36157  32.890  41.129  11.414
64629W        W36158  28.960   7.704   1.384
64630W        W36159  11.284  16.792  11.890
64631W        W36160  35.912  42.982  11.117
64632W        W36161  29.634  39.520  10.861
64633W        W36162  27.022  41.722  13.684
64634W        W36163   8.768   7.961  12.285
64635W        W36164  34.860  17.875   4.892
64636W        W36165   1.703   9.073   0.104
64637W        W36166   1.173  36.839   1.098
64638W        W36167  15.374  27.033  12.521
64639W        W36168   9.323  23.372  11.363
64640W        W36169  31.348  19.650   4.106
64641W        W36170  37.712  33.449  13.193
64642W        W36171  41.184  38.247   0.267
64643W        W36172  16.306  32.600   1.468
64644W        W36173  24.713  29.090  14.461
64645W        W36174  33.384  14.756  14.487
64646W        W36175  32.393   5.746   4.655
64647W        W36176  44.903  15.057  14.478
64648W        W36177   5.395  40.491   2.683
64649W        W36178  40.568  42.453  13.955
64650W        W36179  25.939   4.292  11.564
64651W        W36180  10.202  25.051  14.311
64652W        W36181  39.285   9.878  14.424
64653W        W36182   9.181  33.906  11.975
64654W        W36183  14.842  32.526  12.370
64655W        W36184   5.036   1.761  13.583
64656W        W36185   4.693  16.726   4.330
64657W        W36186  36.818  39.584   2.312
64658W        W36187  20.761  40.879  11.956
64659W        W36188  20.204   8.412   3.385
64660W        W36189  36.581  40.603  12.535
64661W        W36190  38.882  42.831   2.671
64662W        W36191  12.722  12.869  13.323
64663W        W36192  35.710  43.071  14.718
64664W        W36193   2.590  35.088   4.548
64665W        W36194   3.339  41.540  12.527
64666W        W36195  19.899  19.576   3.817
64667W        W36196  42.374  30.891  11.489
64668W        W36197   8.180  42.359  13.006
64669W        W36198  18.583  28.692   0.699
64670W        W36199  42.779  19.127  13.080
64671W        W36200  14.214  26.588  11.624
64672W        W36201  36.512  14.077   0.304
64673W        W36202  36.963  17.250   2.882
64674W        W36203  30.938   8.855   1.299
64675W        W36204  33.000  32.959   0.320
64676W        W36205  27.080   3.836  12.475
64677W        W36206  28.158   9.729  10.554
64678W        W36207  33.083  25.468   2.774
64679W        W36208   3.409   0.059  12.601
64680W        W36209  37.804  35.013   4.885
64681W        W36210  31.066  12.661  13.988
64682W        W36211  21.938  34.014  10.659
64683W        W36212   4.279  15.346  12.594
64684W        W36213  20.506  44.414   4.326
64685W        W36214  25.898  34.280  11.591
64686W        W36215  14.861  31.373  11.844
64687W        W36216  38.969  37.995   3.143
64688W        W36217  38.529  40.964  11.662
64689W        W36218  22.005  39.448  13.211
64690W        W36219  20.100  23.628   0.793
64691W        W36220  27.028  15.223  10.477
64692W        W36221   8.817  12.356  12.557
64693W        W36222  20.528  24.542  10.443
64694W        W36223   2.295   9.262   4.265
64695W        W36224  38.660  23.635   1.337
64696W        W36225  19.083  27.530   3.729
64697W        W36226   4.806  15.016  13.915
64698W        W36227  26.619  32.111   9.955
64699W        W36228  15.551  25.910  12.516
64700W        W36229  23.010  40.332  12.959
64701W        W36230  15.072  13.486   2.333
64702W        W36231  36.803   3.840   2.833
64703W        W36232  36.018  41.019   4.603
64704W        W36233  38.705  35.112   4.777
64705W        W36234   5.296  43.837   4.628
64706W        W36235  10.110  17.021   1.375
64707W        W36236  12.616   2.344   4.937
64708W        W36237   2.458  44.883   2.709
64709W        W36238  20.653  36.769  14.858
64710W        W36239  44.854  43.089  12.962
64711W        W36240   5.055  22.374  12.460
64712W        W36241   8.602   2.182   1.834
64713W        W36242  10.843  38.494  11.050
64714W        W36243  41.989   5.402   4.147
64715W        W36244   9.129  43.723  14.395
64716W        W36245  17.046  14.571  11.144
64717W        W36246  11.333  21.045  11.310
64718W        W36247  30.257   9.410   3.525
64719W        W36248  37.443  13.468   2.009
64720W        W36249  12.841  27.183  11.633
64721W        W36250  12.018  12.903  14.420
64722W        W36251  41.057  14.189   4.187
64723W        W36252  10.743   4.381   1.489
64724W        W36253  35.000   0.338   0.249
64725W        W36254  14.616  15.313  12.591
64726W        W36255  25.371  38.997   1.112
64727W        W36256   4.506  11.655   3.667
64728W        W36257  25.613  35.642   4.450
64729W        W36258  32.823  10.261   1.377
64730W        W36259   7.432   9.546   2.250
64731W        W36260  36.726   9.141  11.883
64732W        W36261  19.100  44.251  12.208
64733W        W36262  40.055  22.850   5.042
64734W        W36263  41.426  33.048  11.571
64735W        W36264  31.179   1.131   1.167
64736W        W36265  24.881  30.580   2.916
64737W        W36266  38.517  23.150  12.680
64738W        W36267   1.707  34.145   1.826
64739W        W36268  43.471   0.396   3.164
64740W        W36269  10.594  37.107  14.273
64741W        W36270  29.914  26.348   2.254
64742W        W36271  37.057  13.713  13.742
64743W        W36272  12.130   2.558   0.939
64744W        W36273  35.956  10.734   4.986
64745W        W36274  15.182  25.379  11.458
64746W        W36275  15.783  22.796  14.881
64747W        W36276  39.563  34.902   3.734
64748W        W36277  31.922  30.357   0.921
64749W        W36278  37.013   0.587   4.130
64750W        W36279  42.336  20.323  12.121
64751W        W36280   3.801  24.593   1.260
64752W        W36281  12.668  17.046  13.977
64753W        W36282  11.758  18.247  12.556
64754W        W36283  42.120  20.569  11.071
64755W        W36284  12.702  32.478  12.309
64756W        W36285  33.032  18.406   5.038
64757W        W36286   1.375  36.888   2.269
64758W        W36287  13.868  15.976  14.602
64759W        W36288   1.400  26.259   3.590
64760W        W36289  22.255  31.984  12.730
64761W        W36290  14.763  12.551  13.979
64762W        W36291  43.357  18.052  14.706
64763W        W36292   8.877  43.236   1.972
64764W        W36293  11.080  11.364  13.023
64765W        W36294  39.202  31.814  11.595
64766W        W36295  29.668  15.316   1.358
64767W        W36296  38.895  22.613  11.742
64768W        W36297  16.438   8.888  14.547
64769W        W36298  11.803   7.400  12.214
64770W        W36299   5.480  32.863  12.045
64771W        W36300  40.299  30.398  11.140
64772W        W36301  24.278  11.927   0.838
64773W        W36302   8.705  10.154  12.027
64774W        W36303  16.279   8.390  14.513
64775W        W36304   0.588   1.366  10.820
64776W        W36305  42.243  15.139   2.606
64777W        W36306   3.313   7.398   1.225
64778W        W36307  42.378  23.098   1.318
64779W        W36308   1.333  33.385   2.413
64780W        W36309  12.962  28.107  10.669
64781W        W36310  10.921   5.044  12.535
64782W        W36311   8.613  34.884   1.829
64783W        W36312  31.521  37.279   2.162
64784W        W36313   0.850   9.084  14.818
64785W        W36314  38.402  38.549  14.420
64786W        W36315  34.861  14.681  14.277
64787W        W36316  17.654  40.590   0.374
64788W        W36317  12.782   2.949   2.306
64789W        W36318  27.249  12.213  11.578
64790W        W36319  14.286  40.966  13.904
64791W        W36320   9.938  36.521  13.991
64792W        W36321   6.347  42.186  14.889
64793W        W36322  41.485  28.010  14.376
64794W        W36323  16.380  16.648   0.813
64795W        W36324  41.112  42.213   1.339
64796W        W36325  40.769  25.633  13.565
64797W        W36326   2.443  41.948  12.979
64798W        W36327  13.890   7.743   0.354
64799W        W36328  32.874  26.441  11.707
64800W        W36329  31.605  20.809   0.593
64801W        W36330  10.826  22.969   2.376
64802W        W36331   8.852   6.937   4.960
64803W        W36332  38.839  26.658  12.875
64804W        W36333  29.938  36.395   2.834
64805W        W36334   5.943  16.234  10.751
64806W        W36335  16.754  35.178  14.294
64807W        W36336   8.337  34.463  13.923
64808W        W36337  33.184  32.692   0.747
64809W        W36338  21.689  16.733  11.586
64810W        W36339  42.274  33.911  10.720
64811W        W36340  29.123  36.416   0.512
64812W        W36341  23.127  38.831   3.539
64813W        W36342  18.498  24.622   1.008
64814W        W36343  15.866  20.581  13.922
64815W        W36344  25.539  20.005  10.869
64816W        W36345  36.745  38.066   0.584
64817W        W36346  23.067  29.899   4.082
64818W        W36347  31.899   9.944   4.314
64819W        W36348  30.213  42.402  14.249
64820W        W36349  18.598   0.874   0.054
64821W        W36350  11.935  29.684  13.251
64822W        W36351  32.350  39.992   0.693
64823W        W36352  35.778   8.795  11.282
64824W        W36353  25.695  44.985   1.781
64825W        W36354  39.780  38.930  12.988
64826W        W36355  26.756  25.750  13.896
64827W        W36356  38.579  40.964  14.863
64828W        W36357   6.621  37.056  13.635
64829W        W36358   1.222  37.652   2.898
64830W        W36359  15.229  14.682   3.637
64831W        W36360  27.477  36.117   2.878
64832W        W36361  15.868  23.908  10.814
64833W        W36362  24.234  10.351  14.749
64834W        W36363  19.315  24.597   2.132
64835W        W36364  10.237  19.702   2.914
64836W        W36365  14.039  11.458   0.136
64837W        W36366  27.868  40.516  13.534
64838W        W36367  32.495   3.875   1.480
64839W        W36368  41.479  38.619  13.943
64840W        W36369   8.729  33.656  10.183
64841W        W36370  35.567  40.441   0.439
64842W        W36371  20.577  14.742   2.687
64843W        W36372  17.002  28.202   1.231
64844W        W36373  37.492   8.626   2.606
64845W        W36374   1.967  34.507  11.745
64846W        W36375  23.734  28.698  12.584
64847W        W36376   5.362  40.969  10.593
64848W        W36377  30.958   5.902  10.524
64849W        W36378  33.041  41.090   3.246
64850W        W36379  15.634  15.119   2.575
64851W        W36380  27.088  14.328  14.489
64852W        W36381   2.418  36.822   0.609
64853W        W36382  17.535  34.046   3.646
64854W        W36383  40.410  39.057   3.581
64855W        W36384  43.167   6.326   1.259
64856W        W36385  33.549   0.038   4.630
64857W        W36386  25.191  21.484  11.539
64858W        W36387  35.471   9.428   1.260
64859W        W36388  16.287  24.040   3.267
64860W        W36389  30.565  44.269  14.506
64861W        W36390  20.763  18.968  13.138
64862W        W36391  18.629  24.480  12.131
64863W        W36392  16.008  15.816   2.812
64864W        W36393  23.330  24.425  10.601
64865W        W36394  28.203  16.633  12.014
64866W        W36395  40.058  23.257  13.920
64867W        W36396  16.715  19.015  13.959
64868W        W36397   5.260  23.720   4.596
64869W        W36398   1.213  14.708   0.693
64870W        W36399  37.149  35.302  12.348
64871W        W36400   4.699  35.883   2.387
64872W        W36401  44.443  33.902   3.324
64873W        W36402   6.311  38.065  14.719
64874W        W36403   5.863   1.858  14.635
64875W        W36404  20.107  20.525  10.614
64876W        W36405  12.312   0.194   4.136
64877W        W36406  29.577  40.737   4.222
64878W        W36407  22.161   7.195   2.307
64879W        W36408  36.169  13.761   4.434
64880W        W36409  30.728  20.586  13.823
64881W        W36410  40.878  23.724   4.586
64882W        W36411  25.514   0.695   2.661
64883W        W36412   2.479  43.356   3.919
64884W        W36413  27.382  40.605  14.443
64885W        W36414  17.143   1.456  14.520
64886W        W36415  22.947   0.744   1.238
64887W        W36416  27.437  36.486  13.407
64888W        W36417   7.641  13.878   2.225
64889W        W36418  32.104  23.687  14.294
64890W        W36419  28.447  28.014  11.506
64891W        W36420  12.092  41.475  14.994
64892W        W36421  36.357  35.513  11.941
64893W        W36422   9.893  32.616   0.857
64894W        W36423  21.026  19.983  14.171
64895W        W36424  39.512   2.606  13.745
64896W        W36425   9.778   6.473  13.937
64897W        W36426  28.111  36.317   4.185
64898W        W36427   5.134  35.636  13.912
64899W        W36428  36.082  24.606   2.311
64900W        W36429  34.382  15.925   0.642
64901W        W36430  28.927  39.298  11.903
64902W        W36431  21.234   1.827  12.565
64903W        W36432   3.998  20.861  11.024
64904W        W36433  39.059  34.789   1.397
64905W        W36434  13.182  24.070  11.627
64906W        W36435  18.513   6.858  13.905
64907W        W36436  33.378  34.545  11.666
64908W        W36437   7.301  21.819  12.587
64909W        W36438  28.369  23.156  13.893
64910W        W36439  18.957   6.574  11.901
64911W        W36440  25.588  22.998   2.444
64912W        W36441  43.369  40.161  12.981
64913W        W36442  19.157  18.263   3.273
64914W        W36443  30.615  18.788   1.698
64915W        W36444   1.886   8.897  11.756
64916W        W36445  28.922  20.695   3.373
64917W        W36446  37.529  11.318  11.492
64918W        W36447  24.726  16.792  11.684
64919W        W36448  44.986  36.964  13.455
64920W        W36449  27.433  34.186  11.062
64921W        W36450  35.231  43.873   2.872
64922W        W36451  23.123  42.481   1.757
64923W        W36452  12.248  38.993   0.692
64924W        W36453   9.460  12.712  11.579
64925W        W36454   8.477  31.619  12.876
64926W        W36455   7.219  17.065  14.625
64927W        W36456  27.286  13.228  12.997
64928W        W36457   1.504   4.556  11.544
64929W        W36458  37.404  17.489   1.768
64930W        W36459   4.181  31.709   3.216
64931W        W36460  11.199  22.199   1.404
64932W        W36461  43.253   5.356   4.205
64933W        W36462  39.837  25.557   2.366
64934W        W36463  37.325   6.438   1.922
64935W        W36464  26.207  44.933   1.838
64936W        W36465  37.875  37.435  10.596
64937W        W36466   7.797  22.613   0.789
64938W        W36467  33.991  33.888  10.586
64939W        W36468   0.080  24.353   0.796
64940W        W36469  33.450  18.908   1.341
64941W        W36470  42.644  23.481   5.007
64942W        W36471  22.171   0.881   1.815
64943W        W36472  15.878  43.017   0.493
64944W        W36473  26.952  16.302  11.081
64945W        W36474  13.330  17.005  13.579
64946W        W36475  43.033   0.467  14.754
64947W        W36476   2.856  11.448   2.909
64948W        W36477  25.949   1.974   0.637
64949W        W36478  41.974  20.278   2.644
64950W        W36479   0.938  27.157  14.504
64951W        W36480  10.587   0.312   2.012
64952W        W36481   4.332   4.180  11.796
64953W        W36482   9.345  35.301   0.802
64954W        W36483  31.338  44.924   1.689
64955W        W36484  40.753   5.410   0.597
64956W        W36485  24.919  19.373  12.498
64957W        W36486  21.646  23.733  11.879
64958W        W36487  22.449   6.564  11.233
64959W        W36488   8.352  13.381   3.625
64960W        W36489  30.636   9.213  10.466
64961W        W36490  32.425   4.442   2.373
64962W        W36491  33.855  20.574  14.962
64963W        W36492   7.394  10.788  11.665
64964W        W36493  18.595  29.380   2.641
64965W        W36494  35.896   5.583  10.599
64966W        W36495   0.422   4.907  12.510
64967W        W36496  12.825  26.586  12.042
64968W        W36497  14.637  14.652   4.798
64969W        W36498  10.850  10.340   0.067
64970W        W36499  40.852  13.709  12.825
64971W        W36500  27.510  38.851  14.910
64972W        W36501  31.511  44.970   3.066
64973W        W36502  17.078  42.791  14.941
64974W        W36503  35.576  15.373   2.693
64975W        W36504  23.995  30.016   1.764
64976W        W36505  28.200  26.032  14.924
64977W        W36506   1.147  30.245   4.183
64978W        W36507  23.407   0.240  13.020
64979W        W36508   3.445  24.752  12.578
64980W        W36509  10.883  36.799  13.061
64981W        W36510  37.386  14.263  12.198
64982W        W36511  29.046  34.037  13.409
64983W        W36512   3.880  44.350  10.231
64984W        W36513   5.318  36.801  13.304
64985W        W36514  34.015  30.433   3.273
64986W        W36515  32.860  26.756   2.447
64987W        W36516  14.217  43.758  14.772
64988W        W36517  32.555  31.916  12.123
64989W        W36518   7.875   2.736   1.865
64990W        W36519   9.161  18.596  11.956
64991W        W36520   7.144  17.643   0.848
64992W        W36521  30.565  15.799  10.625
64993W        W36522  24.768  43.341  11.239
64994W        W36523  31.643  24.454  10.670
64995W        W36524  30.403  33.425   2.774
64996W        W36525  40.314   9.135   4.791
64997W        W36526  31.163  30.029  12.632
64998W        W36527  42.451   2.389   3.244
64999W        W36528  40.179  12.293  13.931
65000W        W36529  14.801  33.504  11.436
65001W        W36530  27.989  13.621   3.819
65002W        W36531  29.931  26.736  12.923
65003W        W36532   5.708   9.649   0.337
65004W        W36533  26.011  39.814   4.461
65005W        W36534  12.760   6.732  13.590
65006W        W36535   6.338  30.757  10.747
65007W        W36536  33.563  19.409   1.437
65008W        W36537   2.522  13.088   3.877
65009W        W36538  32.495   9.318  14.367
65010W        W36539  43.841  26.504  14.691
65011W        W36540  28.570  35.803   4.628
65012W        W36541  17.658   2.150  12.479
65013W        W36542  27.678  39.569   0.860
65014W        W36543  27.049  42.230  13.589
65015W        W36544  29.466  30.906  14.939
65016W        W36545  33.035  34.580   2.877
65017W        W36546  20.793  43.829   1.962
65018W        W36547  26.605  10.329  11.495
65019W        W36548  35.002  40.236   1.853
65020W        W36549  39.446  23.999   0.258
65021W        W36550  21.777   4.152   2.638
65022W        W36551  44.007  16.383  13.506
65023W        W36552  10.615   2.206   2.218
65024W        W36553   4.600  26.629   1.930
65025W        W36554  44.963  37.115   4.487
65026W        W36555  27.051  43.020  14.045
65027W        W36556  39.831  26.000  13.402
65028W        W36557  38.362   7.407   1.468
65029W        W36558   5.597  27.010  11.973
65030W        W36559  27.817   4.290  12.040
65031W        W36560   6.452  23.272   2.105
65032W        W36561  23.376  22.595  12.916
65033W        W36562  26.958   7.574  11.061
65034W        W36563  38.296  41.779  12.030
65035W        W36564  44.175  31.110   1.506
65036W        W36565  15.222   4.452   2.819
65037W        W36566  25.228  27.820   5.196
65038W        W36567  12.166  35.699  11.570
65039W        W36568  11.597  35.816   0.262
65040W        W36569  20.046  37.080   1.372
65041W        W36570  28.443  38.599  12.569
65042W        W36571   6.176  21.978  11.569
65043W        W36572  34.376  32.480   1.929
65044W        W36573  23.229  17.174   2.212
65045W        W36574  12.810  13.286   1.776
65046W        W36575  21.138  39.943   3.239
65047W        W36576   3.575  33.648   5.130
65048W        W36577  44.228  13.646   3.416
65049W        W36578  32.675  16.002   5.139
65050W        W36579   9.333  43.283  11.379
65051W        W36580  41.166  11.000  11.219
65052W        W36581   2.142  18.769   2.252
65053W        W36582   5.149  26.256  14.290
65054W        W36583  10.813  20.183   4.041
65055W        W36584   2.083  18.491  10.782
65056W        W36585  40.254  42.983  14.638
65057W        W36586  17.704   1.158  12.609
65058W        W36587  17.137  18.729  13.997
65059W        W36588  31.636  24.744   4.106
65060W        W36589   8.535  36.914   3.389
65061W        W36590  37.595  37.878   3.739
65062W        W36591  22.830  29.050   2.702
65063W        W36592   4.956  11.585  12.468
65064W        W36593  27.157  36.489  13.843
65065W        W36594   8.803  34.630  14.675
65066W        W36595  33.494  18.559  10.355
65067W        W36596  14.151  40.389  14.859
65068W        W36597  17.314  40.836   3.310
65069W        W36598  37.329  26.630   4.627
65070W        W36599  41.738  38.467   3.689
65071W        W36600  11.061  38.354   3.361
65072W        W36601  22.503  12.210   2.655
65073W        W36602  41.352  12.263   3.779
65074W        W36603  41.083  22.708   0.343
65075W        W36604  12.830  24.592   2.657
65076W        W36605  15.856  18.502  12.209
65077W        W36606  26.067  34.623   1.928
65078W        W36607   2.472  35.096   3.615
65079W        W36608  24.193  15.430  14.919
65080W        W36609  22.601  32.554  14.700
65081W        W36610  28.953   7.613   4.860
65082W        W36611  35.335  10.255   1.558
65083W        W36612  38.435  32.872   4.578
65084W        W36613  29.029  24.605  13.911
65085W        W36614   6.473   4.152  13.908
65086W        W36615  19.164  33.795   4.223
65087W        W36616  20.003  20.628   1.506
65088W        W36617  28.545   1.386   2.635
65089W        W36618   8.141  10.832   3.159
65090W        W36619  39.021   9.914   2.140
65091W        W36620  24.540  29.954   0.013
65092W        W36621  41.577  15.160  13.946
65093W        W36622  24.204  42.925  11.747
65094W        W36623   4.719  34.630  13.268
65095W        W36624  16.268  41.198  13.038
65096W        W36625  10.631  15.840   1.803
65097W        W36626   4.108  35.991   0.646
65098W        W36627   5.736  23.963   0.369
65099W        W36628   2.782  24.563  13.816
65100W        W36629  21.158  40.124  10.977
65101W        W36630   8.326  13.830  10.984
65102W        W36631  41.142  12.323  14.212
65103W        W36632  40.526  25.627   1.243
65104W        W36633   8.838  37.853   1.277
65105W        W36634  19.566  18.200   1.221
65106W        W36635  31.857  44.933   0.812
65107W        W36636  11.332  13.348   0.290
65108W        W36637  27.649  30.469   1.293
65109W        W36638   7.689  40.348   4.519
65110W        W36639  31.084  18.491  13.021
65111W        W36640  35.164  36.449  12.011
65112W        W36641  27.873  41.460   0.705
65113W        W36642  12.919  39.946  11.463
65114W        W36643  32.996  23.957   2.747
65115W        W36644  14.009  11.268  10.713
65116W        W36645   3.328   1.504   3.876
65117W        W36646  33.345  24.307   4.102
65118W        W36647  17.274  19.009   1.420
65119W        W36648  12.655   1.953   0.333
65120W        W36649  40.273  40.184  14.893
65121W        W36650  21.528   7.152   1.671
65122W        W36651  24.015  26.938  13.925
65123W        W36652  27.092   3.847   0.808
65124W        W36653  26.684   9.234   4.171
65125W        W36654   2.356   3.190   3.061
65126W        W36655  17.979   8.651  14.480
65127W        W36656   1.616  40.916  13.465
65128W        W36657  12.087  44.731   4.103
65129W        W36658  17.675  13.739  11.379
65130W        W36659  15.054  14.621  12.159
65131W        W36660  29.449  24.780  11.033
65132W        W36661  36.131   0.650  14.428
65133W        W36662   1.709  43.503  14.496
65134W        W36663  30.695   0.566   2.436
65135W        W36664  21.576  11.831  11.524
65136W        W36665  41.444   7.843  12.812
65137W        W36666  17.173   2.702   3.203
65138W        W36667  18.954  32.221   2.089
65139W        W36668  17.150  28.276   2.126
65140W        W36669  18.112   7.777  14.597
65141W        W36670  29.878  24.164  12.388
65142W        W36671  41.998  26.006  12.087
65143W        W36672  24.773  28.670   2.830
65144W        W36673  40.983  16.096  12.485
65145W        W36674  34.634  32.050  13.511
65146W        W36675  19.595   9.559   3.129
65147W        W36676  16.769  18.143   3.236
65148W        W36677  13.578   0.150   0.326
65149W        W36678  10.338  37.422  11.706
65150W        W36679  14.230  13.393  13.404
65151W        W36680  37.577  40.268   2.159
65152W        W36681  12.419  11.407  13.034
65153W        W36682  16.716  25.230   1.675
65154W        W36683  24.624  24.143   0.343
65155W        W36684   3.719  17.358  14.455
65156W        W36685  44.514  41.435  13.454
65157W        W36686  31.048  16.089   1.308
65158W        W36687  36.594  32.372  11.037
65159W        W36688  38.877  21.072  11.925
65160W        W36689   2.273  41.211  13.329
65161W        W36690  12.054  38.465   3.169
65162W        W36691  39.037   4.015   2.295
65163W        W36692   9.162  29.192  14.309
65164W        W36693  41.416  42.936   4.370
65165W        W36694  30.196   9.865  14.899
65166W        W36695  26.602   4.013   0.983
65167W        W36696   0.298  22.449   0.884
65168W        W36697  10.068   0.712   0.842
65169W        W36698  15.179  34.028   0.797
65170W        W36699  40.934  13.627  13.910
65171W        W36700  34.672  29.100  14.211
65172W        W36701  28.547  21.547  11.232
65173W        W36702   2.439  26.106   2.330
65174W        W36703   4.938   2.892  14.431
65175W        W36704  30.863  41.512  14.198
65176W        W36705  21.372  31.570   0.343
65177W        W36706  44.186  41.402  13.896
65178W        W36707   2.779   1.229  12.605
65179W        W36708  17.280  29.604  12.517
65180W        W36709   6.948  12.688  14.765
65181W        W36710   5.710  30.838  12.845
65182W        W36711   7.289  43.895  13.098
65183W        W36712   2.715  33.616  13.913
65184W        W36713  38.939   9.830  13.832
65185W        W36714   8.111  14.786  14.651
65186W        W36715  42.240  22.802  11.496
65187W        W36716  26.049   0.746   1.345
65188W        W36717  11.395  26.857  10.137
65189W        W36718  34.568  25.129  10.918
65190W        W36719  20.440  42.354   1.840
65191W        W36720  27.618   8.361  13.735
65192W        W36721  30.061   8.843   2.848
65193W        W36722  10.196  29.629  13.781
65194W        W36723   0.793   7.576   1.895
65195W        W36724   6.624   9.172   1.805
65196W        W36725  25.381  40.819   1.858
65197W        W36726  13.749   1.023   3.713
65198W        W36727  35.613   5.189  12.431
65199W        W36728   5.146   0.788  12.043
65200W        W36729  12.876  22.710  10.633
65201W        W36730  40.344  29.377  12.963
65202W        W36731  20.686  37.151   3.169
65203W        W36732  42.303   7.908   3.270
65204W        W36733  27.877  41.475   4.190
65205W        W36734  35.469  43.723   3.860
65206W        W36735  30.105   6.103  14.801
65207W        W36736  16.248   8.102  14.958
65208W        W36737   7.803  37.926  11.379
65209W        W36738  39.073  23.110  11.648
65210W        W36739  27.980  35.473  13.935
65211W        W36740  21.878  21.604   4.970
65212W        W36741  25.846   2.694   3.616
65213W        W36742   8.606  34.747   1.238
65214W        W36743  36.320  39.502  11.568
65215W        W36744  12.883  25.676  14.451
65216W        W36745  43.346  10.631  13.827
65217W        W36746  36.309   5.383   0.044
65218W        W36747  14.564   2.281   3.938
65219W        W36748  18.628  40.282   1.845
65220W        W36749   0.553  37.618  11.165
65221W        W36750  25.621   5.565   4.389
65222W        W36751  31.942   9.136  11.697
65223W        W36752  12.738   2.731  14.245
65224W        W36753  19.539   6.950   3.402
65225W        W36754  14.755   4.465  11.453
65226W        W36755   4.441  28.705   0.920
65227W        W36756  18.735  10.858   4.367
65228W        W36757  42.109   0.496  11.448
65229W        W36758  33.952  15.043   4.514
65230W        W36759  15.824   9.087  13.194
65231W        W36760  17.901  15.147   3.834
65232W        W36761  35.628  10.539   1.177
65233W        W36762  24.786   3.031   4.927
65234W        W36763  23.688  43.773   2.104
65235W        W36764  27.422  16.534   3.612
65236W        W36765   7.666  40.756   1.179
65237W        W36766  10.141   8.190  14.039
65238W        W36767   2.421  13.582   0.393
65239W        W36768  38.531  40.082  11.186
65240W        W36769  39.996  37.440  13.084
65241W        W36770  34.879  35.159  12.559
65242W        W36771  39.727  10.225   3.091
65243W        W36772  15.871  33.478   0.404
65244W        W36773  12.685  35.920   3.831
65245W        W36774  16.862  31.416  12.307
65246W        W36775  10.704  37.913  13.777
65247W        W36776   9.735   4.209  10.739
65248W        W36777  39.079  12.704   4.731
65249W        W36778  15.295  38.023   2.230
65250W        W36779  19.808  18.107  14.437
65251W        W36780  33.467  28.847   1.255
65252W        W36781   4.663  17.085  11.644
65253W        W36782  24.945   0.314   4.144
65254W        W36783   0.856  15.848   4.749
65255W        W36784   0.227  20.487  11.608
65256W        W36785  21.894  43.012   2.319
65257W        W36786  12.356   4.727   1.305
65258W        W36787  23.105  20.431   4.771
65259W        W36788   1.807  26.534  11.970
65260W        W36789  36.259  36.856  12.007
65261W        W36790  21.268  26.622   2.350
65262W        W36791  42.816  16.666   2.975
65263W        W36792  19.551  16.782   0.381
65264W        W36793   7.230   0.984   4.185
65265W        W36794   9.681  39.325   4.625
65266W        W36795  10.263  21.554   4.714
65267W        W36796  31.521  21.947   3.241
65268W        W36797  18.100  18.343   1.221
65269W        W36798  11.776  17.408   4.908
65270W        W36799   5.802  28.604  11.057
65271W        W36800  14.155  23.571  13.917
65272W        W36801  20.054  12.202  14.569
65273W        W36802  15.643  21.992   1.196
65274W        W36803  21.648   3.245   2.697
65275W        W36804   3.377   3.306  13.127
65276W        W36805  23.339  24.466   4.170
65277W        W36806  40.423  20.810   1.313
65278W        W36807  23.913  13.179   1.448
65279W        W36808   6.454  42.161  13.049
65280W        W36809   3.688  26.548  14.828
65281W        W36810  10.411  29.972  14.213
65282W        W36811   6.115  43.237  11.998
65283W        W36812   6.881   8.106  14.349
65284W        W36813  37.823  16.571  11.142
65285W        W36814  43.990  35.597  11.507
65286W        W36815  43.419   8.352   0.466
65287W        W36816  19.605  32.663  14.774
65288W        W36817   8.259  17.212   0.957
65289W        W36818   9.357  32.864   0.799
65290W        W36819  12.111  29.204   0.866
65291W        W36820  14.496  10.449   4.926
65292W        W36821  38.945  17.528   2.797
65293W        W36822  32.141  23.211  11.022
65294W        W36823  24.551  35.114   2.771
65295W        W36824  21.295  37.423   0.414
65296W        W36825  35.919  21.170  13.854
65297W        W36826   0.196  30.956  12.058
65298W        W36827  38.456  21.703   1.779
65299W        W36828   7.430  39.762  11.653
65300W        W36829  41.904  32.992  13.080
65301W        W36830  17.979   4.256   2.920
65302W        W36831  40.985  41.576   4.073
65303W        W36832  22.609  43.070  13.770
65304W        W36833  31.905   0.796   3.777
65305W        W36834  12.374   8.716   1.502
65306W        W36835  43.787  16.691   2.986
65307W        W36836  19.012  21.686  14.827
65308W        W36837  35.535  27.219   4.097
65309W        W36838  27.182  29.357   3.155
65310W        W36839  15.141  28.765  10.856
65311W        W36840   3.361  31.251  11.582
65312W        W36841  17.434  34.952  14.974
65313W        W36842  16.998  27.615   4.465
65314W        W36843  41.487  34.944  13.921
65315W        W36844  42.345   3.440   4.013
65316W        W36845  43.269  30.171  13.058
65317W        W36846  10.823   9.364  11.608
65318W        W36847  13.765  38.775   2.394
65319W        W36848  42.721  36.029   1.317
65320W        W36849  16.759  35.485  13.864
65321W        W36850  27.335   2.288  12.809
65322W        W36851  40.222  28.572   2.518
65323W        W36852  40.922  36.536   1.026
65324W        W36853  17.770   4.778   3.883
65325W        W36854  20.003  34.800   1.770
65326W        W36855  24.413  42.649  12.114
65327W        W36856  44.119   3.441   2.564
65328W        W36857  22.187  36.642   2.637
65329W        W36858  19.575  16.518   3.464
65330W        W36859   9.378  11.750  14.443
65331W        W36860   3.917  14.566  14.924
65332W        W36861  21.021  29.624  13.829
65333W        W36862  44.900  15.643  11.915
65334W        W36863  30.193   4.270  13.335
65335W        W36864   1.960  22.048  11.557
65336W        W36865  18.794  32.998  14.755
65337W        W36866  23.229   2.562   2.178
65338W        W36867  38.109   1.075   3.746
65339W        W36868   9.167   1.086   4.062
65340W        W36869  24.126  37.481  11.746
65341W        W36870  32.988  39.513  14.245
65342W        W36871   2.026   4.849  11.027
65343W        W36872  24.257   5.542  14.479
65344W        W36873  12.217  15.572  12.499
65345W        W36874  27.582  34.710   2.646
65346W        W36875  34.998  13.430  14.956
65347W        W36876  32.892  23.719   1.319
65348W        W36877  27.411  20.303  12.490
65349W        W36878  38.994   2.020  11.675
65350W        W36879  18.826  31.250   9.900
65351W        W36880  42.764  35.419   0.884
65352W        W36881   7.407   2.723  12.357
65353W        W36882  11.587  28.116   3.056
65354W        W36883   2.317  21.518   0.458
65355W        W36884  37.041  32.178   4.663
65356W        W36885   3.339  20.148  11.207
65357W        W36886  38.298  23.096  14.353
65358W        W36887  40.798  41.751   3.228
65359W        W36888  10.397   4.950  13.221
65360W        W36889  43.875  14.426   1.347
65361W        W36890  35.224   4.949   2.797
65362W        W36891  16.171  39.346   3.304
65363W        W36892  44.655   0.878  14.400
65364W        W36893  44.730  32.864  12.109
65365W        W36894  14.733  14.784  12.837
65366W        W36895  16.608  23.704  12.859
65367W        W36896   4.845  39.481   0.320
65368W        W36897  39.052  19.091   2.280
65369W        W36898  33.379   6.785   2.205
65370W        W36899   5.522   7.249   1.346
65371W        W36900  42.968   1.788   0.090
65372W        W36901   9.601  34.380   4.899
65373W        W36902  41.939  27.743  11.637
65374W        W36903   3.279  12.596  10.451
65375W        W36904  24.475  30.522   4.488
65376W        W36905   3.407  33.059   1.228
65377W        W36906  16.171  14.209  10.500
65378W        W36907  43.796  15.510  13.209
65379W        W36908  24.645  16.249   2.132
65380W        W36909   5.236  29.975   2.353
65381W        W36910  34.666   4.691  14.780
65382W        W36911  44.555  10.479  13.374
65383W        W36912   5.654  17.554   1.839
65384W        W36913  17.198  31.910  10.447
65385W        W36914  43.918  38.588   3.760
65386W        W36915  43.632  27.989   3.661
65387W        W36916  40.064  42.762  12.129
65388W        W36917  39.134   3.607  13.953
65389W        W36918   3.209  19.283  11.217
65390W        W36919  36.479  42.327  13.472
65391W        W36920  38.037  17.363  12.846
65392W        W36921  43.789  16.201   1.218
65393W        W36922  10.823  12.056   1.286
65394W        W36923   9.134  21.290   0.860
65395W        W36924   0.469  41.101   0.423
65396W        W36925   5.495  23.040   0.695
65397W        W36926  41.957  26.622   3.747
65398W        W36927  11.030  34.986  13.092
65399W        W36928  16.372  34.696   3.001
65400W        W36929   0.910   2.798   1.298
65401W        W36930  15.082  15.033   1.210
65402W        W36931  17.240  32.492   3.138
65403W        W36932   8.672  23.366   2.321
65404W        W36933  13.093  17.408   1.738
65405W        W36934  22.994  29.335   4.144
65406W        W36935   4.949  44.226  14.555
65407W        W36936  14.904  31.643  13.809
65408W        W36937  18.802  32.021  10.618
65409W        W36938  24.736   5.748  12.306
65410W        W36939  41.745  24.151  12.033
65411W        W36940  39.986  27.463  11.400
65412W        W36941   5.803  33.850   2.145
65413W        W36942  17.031  15.023   1.946
65414W        W36943  12.935   1.735  14.806
65415W        W36944  32.276  28.282   3.802
65416W        W36945  21.148  13.696   3.463
65417W        W36946  36.901  15.902   2.330
65418W        W36947  29.565  25.936   2.729
65419W        W36948   5.217   3.100   4.207
65420W        W36949  29.373  10.123  11.645
65421W        W36950  27.447  20.179   3.186
65422W        W36951  28.862  13.506   0.767
65423W        W36952  36.270  22.494   2.791
65424W        W36953  36.011  21.489   2.609
65425W        W36954   2.694   8.420  10.779
65426W        W36955  11.308   2.546  11.987
65427W        W36956  40.366  28.374  12.747
65428W        W36957  23.293  11.753  12.174
65429W        W36958   7.079  21.678   1.317
65430W        W36959   4.654  28.523  13.265
65431W        W36960   6.730  15.983   1.112
65432W        W36961  26.587  39.039  12.109
65433W        W36962   9.663  35.335  11.883
65434W        W36963   5.911   5.618   0.903
65435W        W36964  41.775  21.942  10.863
65436W        W36965  35.757  16.326  10.636
65437W        W36966  41.059  12.926   4.402
65438W        W36967  37.022  39.354  14.440
65439W        W36968  32.732   4.461  10.705
65440W        W36969   2.399  42.850   2.684
65441W        W36970   5.246   3.605   1.300
65442W        W36971  29.292  35.540  10.286
65443W        W36972  19.549  14.817   2.734
65444W        W36973  15.944  19.000   5.638
65445W        W36974  27.583   8.003   2.639
65446W        W36975   2.266  41.355   4.558
65447W        W36976  33.804  10.248   0.914
65448W        W36977  41.750  20.130  13.467
65449W        W36978  22.544   3.270   2.147
65450W        W36979  29.603  36.766   1.924
65451W        W36980   7.438   0.205  10.735
65452W        W36981  26.131  25.631   3.788
65453W        W36982  32.123   8.820  11.153
65454W        W36983  32.690   7.226   0.806
65455W        W36984  18.326  27.131  14.216
65456W        W36985   7.384  36.338   1.954
65457W        W36986  15.328  38.833   4.137
65458W        W36987  16.176  44.129  14.847
65459W        W36988  36.992  41.125  13.939
65460W        W36989  18.266   4.275   0.232
65461W        W36990  37.996  25.630  13.484
65462W        W36991   6.374  18.004  12.023
65463W        W36992  14.159   5.066   3.319
65464W        W36993  35.608   1.458   3.705
65465W        W36994  34.377  16.646   4.244
65466W        W36995  28.571  17.163   0.909
65467W        W36996  25.424  16.847   4.552
65468W        W36997  23.233  36.573   0.897
65469W        W36998  13.300  23.535  11.662
65470W        W36999   4.936  21.493  14.380
65471W        W37000  16.646  13.658  11.589
65472W        W37001  11.834  37.970   2.409
65473W        W37002  15.357  34.040   4.349
65474W        W37003   4.459  28.265  11.179
65475W        W37004  27.913  36.844   0.512
65476W        W37005  18.760  44.365  13.877
65477W        W37006  30.028  44.914  10.756
65478W        W37007  33.096   4.852   0.040
65479W        W37008  40.109  36.172  13.286
65480W        W37009  37.082   9.643  13.509
65481W        W37010  31.283   3.892   3.384
65482W        W37011  15.072  20.492  10.841
65483W        W37012  11.439  27.750  14.968
65484W        W37013  33.630  24.625   4.358
65485W        W37014   9.814   8.404  14.469
65486W        W37015   3.256  43.523   5.189
65487W        W37016  35.765  18.140  12.827
65488W        W37017  38.305  27.926  14.976
65489W        W37018  42.569  32.139  13.361
65490W        W37019  29.594  22.656   4.349
65491W        W37020  41.763  15.155  14.857
65492W        W37021  25.282  16.304   0.116
65493W        W37022  25.294  37.091  12.471
65494W        W37023  26.006   7.128   2.811
65495W        W37024  29.175  17.065   2.084
65496W        W37025  23.539  17.121  12.571
65497W        W37026  39.015  31.645   2.437
65498W        W37027  19.831   1.863   4.586
65499W        W37028  41.367  43.480   0.335
65500W        W37029  43.277  18.995   0.892
65501W        W37030   4.734  14.921  14.446
65502W        W37031  31.404  44.666  11.725
65503W        W37032  32.318  15.639   5.034
65504W        W37033  12.938  31.334  12.971
65505W        W37034  25.203  29.682  12.220
65506W        W37035  26.743  19.029  13.082
65507W        W37036  12.055  15.725  12.031
65508W        W37037  25.971  24.775   0.373
65509W        W37038   2.435   0.317   0.766
65510W        W37039  44.362  38.490   0.179
65511W        W37040  19.167  40.215  11.609
65512W        W37041  19.546  39.324  12.531
65513W        W37042  18.765   7.320  13.875
65514W        W37043  16.042  37.866   3.433
65515W        W37044   9.878   5.779  11.213
65516W        W37045  44.400   5.308  13.521
65517W        W37046  20.699  29.077  14.870
65518W        W37047   5.810  34.704  13.533
65519W        W37048  37.867  26.766  12.857
65520W        W37049  27.551  18.159   0.677
65521W        W37050  38.883  21.599  14.017
65522W        W37051  43.490  20.261   3.194
65523W        W37052  21.672  11.408   4.344
65524W        W37053  21.780   8.307   3.044
65525W        W37054  34.641  19.764   1.815
65526W        W37055  40.313  24.939   4.170
65527W        W37056   0.812  19.610  14.647
65528W        W37057  30.705  32.160  11.120
65529W        W37058   9.584  35.933   1.258
65530W        W37059  13.915  10.010   3.145
65531W        W37060  27.315  24.731   0.750
65532W        W37061   5.201   5.205  14.574
65533W        W37062  35.807  22.730   2.446
65534W        W37063  10.400  16.199   0.880
65535W        W37064  42.718  13.656   0.936
65536W        W37065  38.424  37.574  13.780
65537W        W37066  39.377  28.202  12.657
65538W        W37067   6.348  34.205  11.189
65539W        W37068  43.430  40.505  14.378
65540W        W37069  23.285  36.595  12.472
65541W        W37070  14.659   2.348   3.421
65542W        W37071  27.100  39.112   4.525
65543W        W37072   6.260   8.241   4.600
65544W        W37073  43.875  38.740   0.223
65545W        W37074   3.846   0.981   3.159
65546W        W37075   5.757   4.727   1.774
65547W        W37076  21.131  12.748  10.875
65548W        W37077  22.001  27.169  14.936
65549W        W37078  15.824   1.010  11.824
65550W        W37079   4.238  42.995   3.399
65551W        W37080  38.523   0.965  11.945
65552W        W37081   9.254  20.814   4.647
65553W        W37082  27.409  14.657  12.369
65554W        W37083  35.821   3.724  13.944
65555W        W37084  16.688  20.432  14.279
65556W        W37085  43.944  21.551   3.297
65557W        W37086   2.283   7.361   3.294
65558W        W37087  28.462  11.858  11.085
65559W        W37088   4.728   5.464  14.514
65560W        W37089   6.832  17.023   2.281
65561W        W37090  42.674   7.449  11.220
65562W        W37091  32.343  26.480  13.924
65563W        W37092   1.463  41.029   0.840
65564W        W37093  30.976  12.208  14.713
65565W        W37094  21.174  22.736   2.794
65566W        W37095  16.302  43.287  12.386
65567W        W37096   4.583  16.710   0.937
65568W        W37097   0.852   3.483  12.483
65569W        W37098  43.374  17.581  14.959
65570W        W37099  34.318   2.864  13.077
65571W        W37100  22.594  19.197  12.231
65572W        W37101  20.592  18.143   1.337
65573W        W37102  23.744  41.991   0.603
65574W        W37103  15.077  39.949  12.012
65575W        W37104  39.691  31.952  11.643
65576W        W37105  36.688  33.452   2.986
65577W        W37106  39.504   2.153   4.017
65578W        W37107  25.532  13.917  10.626
65579W        W37108  40.515   2.982  10.706
65580W        W37109   8.270  41.832   1.397
65581W        W37110  31.044   6.687   0.259
65582W        W37111  16.314   9.175  12.971
65583W        W37112  40.653  35.117   4.543
65584W        W37113  24.424  24.622   0.478
65585W        W37114   8.835   8.886   0.415
65586W        W37115  24.923  13.110  11.976
65587W        W37116  13.296  27.702   4.557
65588W        W37117  38.420  32.051   0.971
65589W        W37118  24.135  12.295   0.046
65590W        W37119  23.011  23.299   1.216
65591W        W37120  12.678  42.526   2.879
65592W        W37121  21.301  18.751   4.357
65593W        W37122  37.155  34.914  14.996
65594W        W37123   1.891  20.120  12.401
65595W        W37124   9.404  15.760  13.817
65596W        W37125  16.735  21.943  11.286
65597W        W37126  14.704  14.186   4.571
65598W        W37127  25.606  22.322  14.375
65599W        W37128   1.596   8.849   2.462
65600W        W37129  22.452  43.805  14.528
65601W        W37130   6.807  32.899   0.491
65602W        W37131  34.938   1.450  14.338
65603W        W37132   3.154  36.948  10.818
65604W        W37133  30.177  27.055   2.338
65605W        W37134   5.880  16.343   4.993
65606W        W37135   0.482   4.474   1.238
65607W        W37136  39.148  41.742  13.200
65608W        W37137  17.993  20.306   4.649
65609W        W37138  10.674   1.445   1.910
65610W        W37139  20.633   2.972   3.599
65611W        W37140  25.159  31.066   1.444
65612W        W37141  17.219  21.853  11.419
65613W        W37142   5.771  42.502  12.388
65614W        W37143  34.737   5.625   1.429
65615W        W37144  15.852  19.062  11.534
65616W        W37145   3.906  22.462   3.714
65617W        W37146   2.291  41.029   2.675
65618W        W37147  42.119   6.365   2.026
65619W        W37148  36.664  10.422   0.267
65620W        W37149  34.352  34.462  10.670
65621W        W37150  41.298  30.521  13.534
65622W        W37151   0.907  22.562   1.226
65623W        W37152   5.559  14.059  10.759
65624W        W37153  40.926  23.611  10.814
65625W        W37154  28.337  42.090  10.761
65626W        W37155  23.360  40.625   3.693
65627W        W37156   3.964  24.106   1.200
65628W        W37157   2.833   7.605  13.930
65629W        W37158  36.467   4.777  12.115
65630W        W37159  38.405   8.626  12.859
65631W        W37160  40.341   3.060   3.256
65632W        W37161  33.418  33.472  13.598
65633W        W37162  17.714  21.739  12.996
65634W        W37163  29.199   8.025   3.209
65635W        W37164  33.057  38.331  13.812
65636W        W37165  33.951  15.680   2.751
65637W        W37166  17.082  23.254  11.900
65638W        W37167  10.261  16.650   4.902
65639W        W37168   9.727   2.844   2.075
65640W        W37169   7.214  25.736   1.474
65641W        W37170  29.554  37.138  13.875
65642W        W37171  10.749  43.923   2.757
65643W        W37172   2.001  34.950  14.914
65644W        W37173  33.278  12.316  13.943
65645W        W37174  40.996  34.863   1.478
65646W        W37175   2.031  18.077  13.817
65647W        W37176  30.629  11.640   1.794
65648W        W37177  11.357  11.146  14.446
65649W        W37178   5.338   9.998   5.014
65650W        W37179  13.878  34.398  10.852
65651W        W37180  24.356  28.526   0.255
65652W        W37181  20.157  31.390  10.792
65653W        W37182   0.433  15.822   4.020
65654W        W37183  39.544   2.210   2.170
65655W        W37184  35.925  23.085  13.152
65656W        W37185  35.433  27.451   0.545
65657W        W37186  33.514  11.837   1.208
65658W        W37187   9.890  35.441  10.591
65659W        W37188  36.400  27.174  13.926
65660W        W37189  33.018  28.205   2.271
65661W        W37190  12.751  30.633   1.392
65662W        W37191  18.260  39.475  12.898
65663W        W37192   3.872  42.864   4.140
65664W        W37193  35.907  31.655  14.968
65665W        W37194   6.916  30.314  11.505
65666W        W37195  28.612  12.112   3.723
65667W        W37196  16.487   0.417  11.184
65668W        W37197  32.458  25.020   1.424
65669W        W37198  17.804  27.541   3.188
65670W        W37199  26.401   5.134   0.655
65671W        W37200  16.818  28.231   5.049
65672W        W37201  16.494   3.266  13.141
65673W        W37202   0.866  34.437   2.899
65674W        W37203  14.591  25.465   0.101
65675W        W37204   7.858   3.493   0.675
65676W        W37205  13.068   3.368   3.980
65677W        W37206   0.742  39.189  13.673
65678W        W37207  16.875  17.151   0.340
65679W        W37208  31.699  39.605   4.138
65680W        W37209  11.338  35.820   3.052
65681W        W37210  40.987  22.316  11.260
65682W        W37211  10.971  26.172   0.881
65683W        W37212  14.341  12.318   3.391
65684W        W37213  32.093  10.845  12.351
65685W        W37214  27.759  35.287  14.400
65686W        W37215   6.157  18.036   2.563
65687W        W37216  37.995  41.076  13.975
65688W        W37217  41.422  24.958  14.541
65689W        W37218   5.171  13.932  11.602
65690W        W37219  37.500  24.473  14.015
65691W        W37220  15.650  12.913   3.641
65692W        W37221  37.412  17.262   2.216
65693W        W37222  19.744   6.104   3.622
65694W        W37223  20.968  42.400  13.546
65695W        W37224  33.113  22.276  14.544
65696W        W37225  41.020  20.097  11.548
65697W        W37226  12.099  15.986   1.846
65698W        W37227  20.798  32.948   2.954
65699W        W37228   1.735   2.235   2.702
65700W        W37229  10.548  41.897  14.319
65701W        W37230  21.790  16.135   2.616
65702W        W37231  21.412   5.193   0.900
65703W        W37232  33.314  29.377   2.948
65704W        W37233   2.272   1.756   2.733
65705W        W37234  29.092   4.388   2.225
65706W        W37235  26.061  24.056   4.853
65707W        W37236  15.870  43.703   4.029
65708W        W37237   4.118  42.486   3.378
65709W        W37238  32.599  37.760  11.982
65710W        W37239  33.426  27.961  13.082
65711W        W37240  18.193  14.265  11.362
65712W        W37241   7.695   2.381  12.673
65713W        W37242  11.631  39.038  14.944
65714W        W37243  37.843  43.812   2.853
65715W        W37244  21.148  42.749  12.127
65716W        W37245  36.426  17.693  11.618
65717W        W37246   0.006  34.939  14.450
65718W        W37247  30.765  43.301  14.444
65719W        W37248  33.703   5.959  11.041
65720W        W37249  27.718   5.393  13.524
65721W        W37250   0.483  17.199   3.268
65722W        W37251  27.958  27.971  14.391
65723W        W37252   6.903   4.964  11.993
65724W        W37253  13.798   7.625   3.874
65725W        W37254   6.457  10.370   1.214
65726W        W37255  29.961  40.870   0.425
65727W        W37256  40.860  10.445  11.384
65728W        W37257  37.363  21.847   1.353
65729W        W37258  39.006  35.617  11.225
65730W        W37259   1.415  23.209  11.200
65731W        W37260  29.067  10.437  12.022
65732W        W37261  20.497   5.174  13.408
65733W        W37262  31.347  40.422  12.607
65734W        W37263   4.772  13.354   1.718
65735W        W37264   1.952   9.420  11.691
65736W        W37265  35.613  23.108   4.388
65737W        W37266   0.519   1.774  10.488
65738W        W37267  39.512  15.938  14.286
65739W        W37268  27.752   9.040   1.856
65740W        W37269  43.763  10.651   1.991
65741W        W37270  26.751   8.303   0.995
65742W        W37271  28.095  21.315   3.355
65743W        W37272   3.437   1.226   2.371
65744W        W37273  20.644  12.547  11.091
65745W        W37274   4.092  36.756   4.033
65746W        W37275  18.505  34.894  14.209
65747W        W37276  32.667  28.281  11.565
65748W        W37277  12.333   5.700   1.448
65749W        W37278  27.143  44.511   4.711
65750W        W37279  18.175  23.025  13.958
65751W        W37280  42.992   6.640  14.405
65752W        W37281  35.963  19.394  14.406
65753W        W37282  28.888   4.948  13.419
65754W        W37283  38.392   6.277   2.652
65755W        W37284  26.165  18.861  12.503
65756W        W37285   6.293  33.168  12.464
65757W        W37286  41.391  17.697   4.255
65758W        W37287   3.040  41.673  12.130
65759W        W37288  41.993  17.247  10.741
65760W        W37289  14.130  42.491   2.246
65761W        W37290  42.148   1.720   2.930
65762W        W37291  44.814  41.865   0.709
65763W        W37292  37.866   5.727  13.604
65764W        W37293   0.349  13.085  11.434
65765W        W37294  16.811  41.640  11.669
65766W        W37295   9.093  16.609   0.925
65767W        W37296   0.819  33.897   0.021
65768W        W37297   8.214   1.973  14.847
65769W        W37298  32.556  34.519   1.444
65770W        W37299  30.437  34.206   3.155
65771W        W37300   0.779  32.084  10.581
65772W        W37301  35.685  15.759   0.267
65773W        W37302  16.065  31.367   2.583
65774W        W37303   6.656   1.250   2.753
65775W        W37304  37.867  22.621   0.946
65776W        W37305   0.491  37.544   0.392
65777W        W37306  37.034  38.062  11.500
65778W        W37307  32.826   1.519  12.836
65779W        W37308  42.001   7.171  14.036
65780W        W37309  43.246   5.403   2.786
65781W        W37310  22.957   1.195  12.985
65782W        W37311  19.504  34.972  11.050
65783W        W37312  25.958   9.660  12.953
65784W        W37313  44.490  27.031  12.137
65785W        W37314  16.468  12.481   5.367
65786W        W37315  29.697  31.015  14.439
65787W        W37316  23.607   1.643  12.085
65788W        W37317  29.575   4.248  13.871
65789W        W37318  41.865  19.336  13.584
65790W        W37319  22.351  10.676   1.876
65791W        W37320  40.566   2.717   1.633
65792W        W37321  15.185  33.584  11.085
65793W        W37322  42.280  44.146  10.496
65794W        W37323   7.150   7.516   4.798
65795W        W37324  22.267   6.223  14.217
65796W        W37325  38.410   9.402  13.286
65797W        W37326  22.336  36.511  14.253
65798W        W37327  12.715  39.079  10.951
65799W        W37328   2.085  22.689   0.646
65800W        W37329  34.292   2.463   2.851
65801W        W37330  40.625  27.984  12.965
65802W        W37331   6.867  13.121  11.178
65803W        W37332   8.746  39.119  14.055
65804W        W37333  35.944  20.225  13.120
65805W        W37334  18.558  21.200  13.245
65806W        W37335   1.481  27.071   0.959
65807W        W37336  30.561  18.268   1.768
65808W        W37337  35.366  41.529   0.411
65809W        W37338  17.754  40.880  12.814
65810W        W37339  18.069  27.587   3.639
65811W        W37340  41.056  38.215   1.195
65812W        W37341  13.705  13.417   4.113
65813W        W37342  38.414   3.381   4.361
65814W        W37343  19.816  15.848   0.329
65815W        W37344  43.345  28.420   3.720
65816W        W37345  44.508   4.962  12.020
65817W        W37346  12.622   8.556   1.930
65818W        W37347  12.136  16.894   2.741
65819W        W37348  15.367  14.556   4.206
65820W        W37349  12.529  32.691   1.359
65821W        W37350  33.383  39.981  13.125
65822W        W37351   4.738  35.115  11.024
65823W        W37352   0.931  40.768   1.275
65824W        W37353  38.794  10.681   2.568
65825W        W37354  25.477  23.445  12.500
65826W        W37355   1.238  19.676   2.341
65827W        W37356  41.215  35.845   4.195
65828W        W37357  21.045  39.983  14.869
65829W        W37358   3.421  44.070  12.464
65830W        W37359  34.524  19.173   4.528
65831W        W37360   3.424  38.354  12.464
65832W        W37361   1.806  15.781   1.881
65833W        W37362  22.079  32.339   2.699
65834W        W37363   7.614  15.419  12.259
65835W        W37364  37.308   6.817   0.724
65836W        W37365  39.420  13.095  12.919
65837W        W37366  26.479  38.300   0.778
65838W        W37367  25.263   5.961  12.914
65839W        W37368  29.476  44.505   3.172
65840W        W37369  11.602  10.286  13.352
65841W        W37370   4.110  31.462  10.971
65842W        W37371  25.577  24.783  11.107
65843W        W37372  11.847  29.084   2.893
65844W        W37373  18.838  44.333   1.492
65845W        W37374  36.549  31.545  12.332
65846W        W37375  21.243  10.685   3.206
65847W        W37376  34.595  36.278   1.709
65848W        W37377  27.403  24.990   3.752
65849W        W37378  25.671  41.566  13.368
65850W        W37379  17.969  10.091   2.819
65851W        W37380   6.622  13.172  11.658
65852W        W37381  24.569  26.555  11.122
65853W        W37382  30.310  36.900   2.911
65854W        W37383  41.482   3.385   0.961
65855W        W37384  37.914  44.562  13.993
65856W        W37385  15.260  41.852   2.545
65857W        W37386  35.402  18.618   0.898
65858W        W37387  19.343  27.047  12.994
65859W        W37388  36.966  28.162   0.156
65860W        W37389   7.425  38.182   3.304
65861W        W37390  15.425  35.500  11.552
65862W        W37391   6.692  21.269  12.649
65863W        W37392  13.729  30.047   3.263
65864W        W37393  24.172  43.831  14.716
65865W        W37394   2.955  22.662  14.093
65866W        W37395  20.068  27.598   1.323
65867W        W37396  12.232  20.031   0.352
65868W        W37397  22.603  36.849   4.169
65869W        W37398   6.462   5.779  12.993
65870W        W37399  28.156  10.331   0.317
65871W        W37400  23.005  18.002   2.748
65872W        W37401  29.502  31.939   2.710
65873W        W37402  31.508   7.831   2.365
65874W        W37403  33.642  44.292   4.154
65875W        W37404  39.000  23.971   2.096
65876W        W37405   3.000  44.857  13.102
65877W        W37406   6.860  19.992  14.831
65878W        W37407   9.899  41.835  13.023
65879W        W37408  38.729  10.250   3.205
65880W        W37409   0.200  16.231   0.360
65881W        W37410  38.123  13.110  11.162
65882W        W37411  35.612  11.671   1.013
65883W        W37412   7.462  31.017  12.007
65884W        W37413  36.140  16.759   1.280
65885W        W37414  12.729  40.315   1.399
65886W        W37415  15.209  21.334   3.698
65887W        W37416  29.246   3.770  13.898
65888W        W37417  37.955   3.358   4.624
65889W        W37418  42.825  35.528  14.914
65890W        W37419  21.583  26.136   0.386
65891W        W37420  26.898  23.652  11.741
65892W        W37421   2.800  32.902   5.428
65893W        W37422  43.950   6.548   2.302
65894W        W37423  35.766  12.077  13.090
65895W        W37424   8.771   9.192  14.936
65896W        W37425   6.231  15.262   3.254
65897W        W37426  27.654   1.407   3.816
65898W        W37427  31.770  42.246  14.515
65899W        W37428  10.647  28.097   3.189
65900W        W37429  18.279  28.119  11.535
65901W        W37430  19.386  25.089   0.922
65902W        W37431   0.058  34.760  12.911
65903W        W37432  35.853  32.379  14.384
65904W        W37433  14.810   5.314   1.323
65905W        W37434  44.474  25.549  13.909
65906W        W37435  44.538   1.943  10.476
65907W        W37436   7.053  32.736  14.764
65908W        W37437  30.482   9.166   1.474
65909W        W37438  11.676  44.373   3.208
65910W        W37439  42.502  37.904  12.486
65911W        W37440  11.147  10.863   3.324
65912W        W37441  16.148  20.925   1.783
65913W        W37442   5.654  11.733  12.914
65914W        W37443  43.913  18.959  13.907
65915W        W37444   8.340  17.545   3.303
65916W        W37445  42.967  38.723   0.469
65917W        W37446   5.073  28.685  11.824
65918W        W37447  29.986   7.960   2.636
65919W        W37448  16.350  28.833  11.471
65920W        W37449  35.101  33.086   4.333
65921W        W37450   7.054  27.006   1.796
65922W        W37451   7.805  23.566  10.509
65923W        W37452  16.566  17.275   2.752
65924W        W37453   4.924  40.290  11.701
65925W        W37454  40.444  38.544  11.725
65926W        W37455  26.871  24.540  10.710
65927W        W37456   7.402  21.304  14.483
65928W        W37457  16.060  33.954  12.585
65929W        W37458  28.228  22.412  12.007
65930W        W37459  28.341   6.888   0.894
65931W        W37460   6.689  33.850  14.471
65932W        W37461  25.539  39.085  12.154
65933W        W37462  40.093  10.323  10.681
65934W        W37463  10.797  34.017  12.062
65935W        W37464  32.372  22.743  10.696
65936W        W37465  16.580  29.662   3.831
65937W        W37466   1.382  12.255  11.223
65938W        W37467  36.606  36.512   3.465
65939W        W37468   1.750  11.202   0.559
65940W        W37469  18.938  27.578   0.258
65941W        W37470   9.630  22.999   1.016
65942W        W37471   7.231  40.589  13.059
65943W        W37472   2.751  36.869  13.489
65944W        W37473  42.852  21.008   2.681
65945W        W37474  17.843   2.704   2.401
65946W        W37475  13.075   5.411  12.084
65947W        W37476  33.334  13.037   2.618
65948W        W37477   8.219  17.307  10.663
65949W        W37478  44.564  28.546   0.309
65950W        W37479   2.728  35.565   4.397
65951W        W37480  10.126  16.304  14.091
65952W        W37481  26.003   0.753  13.012
65953W        W37482  24.203   7.449  11.918
65954W        W37483   0.848   9.074   3.033
65955W        W37484   9.719  38.418   2.645
65956W        W37485   5.130  31.966  12.888
65957W        W37486  12.781   0.411   4.175
65958W        W37487  19.587  36.597  13.017
65959W        W37488  33.816   8.893  14.777
65960W        W37489   8.773   3.650  10.469
65961W        W37490  37.406  10.317  11.681
65962W        W37491   1.413  36.357   0.870
65963W        W37492   0.223   6.892   2.229
65964W        W37493  39.305  39.758   4.224
65965W        W37494  17.202   8.710   0.837
65966W        W37495  36.295  33.545   3.883
65967W        W37496   2.350  16.127   0.789
65968W        W37497  11.236  35.294   1.309
65969W        W37498  20.906  40.374  12.649
65970W        W37499  24.839  33.890   4.687
65971W        W37500   4.824  37.531   0.483
65972W        W37501  35.537  40.176   2.289
65973W        W37502  35.336  12.879   2.824
65974W        W37503   0.690  18.203   4.324
65975W        W37504  29.011   6.824   1.391
65976W        W37505  38.151  26.565   0.379
65977W        W37506   4.482  23.259   2.334
65978W        W37507  28.790  29.513   0.876
65979W        W37508   3.765  13.795   4.848
65980W        W37509   7.246  17.881   4.025
65981W        W37510  18.511  27.212   4.513
65982W        W37511  13.585   3.538   0.807
65983W        W37512   9.787  11.153   3.757
65984W        W37513   1.361  39.315   1.793
65985W        W37514  37.410  42.877  12.824
65986W        W37515   9.806  34.691   3.534
65987W        W37516  12.693   9.687  11.811
65988W        W37517   6.150  31.344   2.824
65989W        W37518  18.974   9.789  10.520
65990W        W37519   7.221  40.109   4.439
65991W        W37520  24.630  30.940  10.960
65992W        W37521   9.747  18.156  14.467
65993W        W37522  28.631  33.845  13.691
65994W        W37523  14.057  39.429   2.456
65995W        W37524  28.862  32.485   4.206
65996W        W37525  37.690   4.832  10.487
65997W        W37526  33.442   5.250   2.689
65998W        W37527   4.392  14.825  10.519
65999W        W37528  42.938  26.939   3.670
66000W        W37529  12.123  13.822   3.194
66001W        W37530   4.131   0.367  13.525
66002W        W37531  11.472  39.338  11.084
66003W        W37532  38.608  33.178  11.632
66004W        W37533  19.521  10.110  12.053
66005W        W37534  38.427  37.995  14.555
66006W        W37535  10.387  25.744  12.916
66007W        W37536  33.461  25.916   3.496
66008W        W37537  17.865   7.367   3.329
66009W        W37538  34.403  14.088   2.231
66010W        W37539   8.415  36.175  14.896
66011W        W37540  18.110  31.613   2.699
66012W        W37541  16.026  20.500  11.871
66013W        W37542  35.066  11.630  13.729
66014W        W37543   6.717  25.647   1.430
66015W        W37544  25.088  42.861  11.424
66016W        W37545  17.275  34.035  14.277
66017W        W37546  34.827  11.424  12.375
66018W        W37547  21.209  12.707  10.382
66019W        W37548  40.309   6.619   4.584
66020W        W37549  39.190  22.957  10.421
66021W        W37550  12.535   1.314   4.722
66022W        W37551  30.742  26.981  14.389
66023W        W37552   4.101  26.651  13.519
66024W        W37553   9.966  15.761   4.646
66025W        W37554  34.326  30.224  14.824
66026W        W37555  42.111   2.213   2.783
66027W        W37556  44.991  11.169  13.081
66028W        W37557  20.194  44.319   0.838
66029W        W37558  15.304  11.070  10.285
66030W        W37559  35.361  21.464  13.505
66031W        W37560  32.489  33.903   2.651
66032W        W37561   3.969  38.431  12.367
66033W        W37562  23.856  34.954  10.381
66034W        W37563  15.236  16.837   1.271
66035W        W37564   6.921   7.678   0.834
66036W        W37565  25.045   5.540  11.468
66037W        W37566  36.145  39.968   2.307
66038W        W37567  35.538   4.185   3.204
66039W        W37568  37.266  42.903   3.729
66040W        W37569   5.233  42.658  14.989
66041W        W37570  39.045   5.185   0.483
66042W        W37571  24.267  42.807   1.436
66043W        W37572  21.630   0.032   3.800
66044W        W37573  29.831   4.317   1.617
66045W        W37574  11.854  12.678   2.220
66046W        W37575   7.080  25.044   0.456
66047W        W37576  33.011  29.933  10.646
66048W        W37577  13.080   0.981  13.525
66049W        W37578  43.824   7.287   1.423
66050W        W37579  24.370   3.884   1.424
66051W        W37580  19.746  25.168   1.457
66052W        W37581  36.954  28.967   4.756
66053W        W37582   3.390   8.627  13.429
66054W        W37583   8.594  25.691  11.094
66055W        W37584  43.948  34.847   2.543
66056W        W37585  39.037  13.925   0.565
66057W        W37586  23.477   3.235  11.013
66058W        W37587  12.666  16.637   3.867
66059W        W37588  20.004   0.885   0.370
66060W        W37589  35.333  15.750  14.872
66061W        W37590  19.066  35.566   1.901
66062W        W37591  17.524  28.111  12.159
66063W        W37592   7.812  24.713   2.664
66064W        W37593  17.529  13.784   4.614
66065W        W37594  41.510   7.253  14.947
66066W        W37595   3.744  35.450   0.690
66067W        W37596   8.282   5.908   1.861
66068W        W37597  39.530  33.534  11.699
66069W        W37598   8.718  13.142  11.996
66070W        W37599  18.408   3.308  11.134
66071W        W37600  34.443  25.202   1.207
66072W        W37601  32.088   0.266  10.982
66073W        W37602  14.284   8.699   3.736
66074W        W37603  44.422  23.122   9.947
66075W        W37604   6.587  29.658   2.765
66076W        W37605  36.884  38.123  13.301
66077W        W37606  25.002  44.997   4.548
66078W        W37607   5.375  32.419   3.604
66079W        W37608  32.612  25.638   1.276
66080W        W37609   9.913  38.729  12.578
66081W        W37610  39.426  44.359  11.103
66082W        W37611   6.234  40.106   0.306
66083W        W37612   2.943  31.366  14.229
66084W        W37613  27.517  27.674   3.259
66085W        W37614  19.794  18.801  12.549
66086W        W37615   0.521  10.898   0.845
66087W        W37616   9.705   4.746  11.111
66088W        W37617  39.831  13.672  12.704
66089W        W37618   4.414   4.481   0.338
66090W        W37619  10.338  29.513  11.975
66091W        W37620  29.362   8.269  10.946
66092W        W37621  44.389  25.976   3.771
66093W        W37622  30.743   8.225   0.079
66094W        W37623   6.448  31.075  14.054
66095W        W37624  39.832   3.443  14.942
66096W        W37625  11.837   8.150  10.868
66097W        W37626  16.973  14.060  13.489
66098W        W37627  17.564  24.186  10.976
66099W        W37628  30.964  17.752  14.878
66100W        W37629   5.222  29.492   4.297
66101W        W37630   4.739  41.328   0.735
66102W        W37631   8.845  12.850  11.554
66103W        W37632  24.235  17.170  10.990
66104W        W37633  23.471   6.341  11.130
66105W        W37634  28.974   5.205  10.765
66106W        W37635  35.622   5.315   3.686
66107W        W37636  10.570   5.318   3.942
66108W        W37637   9.656  41.855   4.550
66109W        W37638  38.698  20.186   4.268
66110W        W37639  32.125  15.797   4.068
66111W        W37640  36.481  20.235  14.356
66112W        W37641   6.147  30.766  12.564
66113W        W37642  40.700  39.529   4.333
66114W        W37643   4.135  28.119   1.743
66115W        W37644   9.638  36.721  14.402
66116W        W37645  18.746   1.879  10.702
66117W        W37646  31.507   2.755  11.722
66118W        W37647   4.780  10.192   1.945
66119W        W37648  18.331  11.563   0.732
66120W        W37649   0.253  35.083   0.425
66121W        W37650  20.247   9.815  10.873
66122W        W37651  30.171  32.153  12.867
66123W        W37652  33.997  35.883   0.940
66124W        W37653  10.711  10.766   4.523
66125W        W37654  32.119   8.653  13.818
66126W        W37655  10.667  21.554  12.281
66127W        W37656   2.299   4.295  13.483
66128W        W37657  17.031  28.223  13.369
66129W        W37658  12.848  40.764   2.262
66130W        W37659  18.877   9.054   3.082
66131W        W37660  23.147  30.927  11.436
66132W        W37661   0.326  31.450   1.300
66133W        W37662  42.767   3.959  13.058
66134W        W37663   2.885  24.810   3.757
66135W        W37664  36.900  25.764   0.424
66136W        W37665  10.850   5.549  12.428
66137W        W37666  39.849  43.578  11.831
66138W        W37667  35.019  40.830  12.446
66139W        W37668  34.079   9.190  11.008
66140W        W37669  32.599   1.885  11.581
66141W        W37670  35.308  38.452  11.180
66142W        W37671  18.597  14.530  14.097
66143W        W37672  44.775   8.136  10.888
66144W        W37673  14.374  22.899  11.557
66145W        W37674   4.250  10.630  12.913
66146W        W37675  39.415   3.140   0.831
66147W        W37676  31.144  10.150  14.528
66148W        W37677  42.785  17.664  12.114
66149W        W37678  31.999  22.790  12.547
66150W        W37679  35.557  44.236   1.459
66151W        W37680  44.344  35.827   3.137
66152W        W37681  36.938   9.974  10.020
66153W        W37682  37.386   9.372   3.251
66154W        W37683   3.532  36.562   4.525
66155W        W37684  26.653   0.759  10.495
66156W        W37685   5.211  18.318  13.826
66157W        W37686   2.924  32.383  11.942
66158W        W37687  22.947  34.433  11.936
66159W        W37688  20.101   0.738   0.845
66160W        W37689  19.637  31.004  13.846
66161W        W37690  42.767   8.660   1.706
66162W        W37691  25.111   4.366  12.044
66163W        W37692  18.716  19.494   3.405
66164W        W37693   3.304  25.689   1.366
66165W        W37694   5.479  13.778   1.352
66166W        W37695  28.651  10.759   4.532
66167W        W37696   7.933  12.735  12.230
66168W        W37697  30.354   0.976  13.375
66169W        W37698  27.570  30.478   0.693
66170W        W37699  11.266  24.023  13.404
66171W        W37700   0.074  43.021  11.678
66172W        W37701   2.232  35.923   2.295
66173W        W37702  32.897  38.834   3.624
66174W        W37703  16.609  15.974   0.524
66175W        W37704  35.692  41.532  11.248
66176W        W37705  31.706  41.281   2.005
66177W        W37706  25.334   3.939  14.649
66178W        W37707  17.806   4.277   0.896
66179W        W37708   1.809  10.185   0.701
66180W        W37709   4.179  31.082  14.035
66181W        W37710  14.759  15.617   4.679
66182W        W37711  35.465   9.095   1.648
66183W        W37712  36.325  13.595   2.784
66184W        W37713   3.865  30.633   0.811
66185W        W37714  11.828  31.949   1.179
66186W        W37715  19.832   4.572  13.143
66187W        W37716  32.421  10.962  11.541
66188W        W37717   6.457  20.268   2.307
66189W        W37718   6.579  44.398  12.901
66190W        W37719  18.716  22.052  13.411
66191W        W37720  38.587  26.675   3.676
66192W        W37721  11.069  27.023   0.279
66193W        W37722   0.448   4.518   2.189
66194W        W37723  41.730  40.605  11.436
66195W        W37724  28.993  20.544  11.108
66196W        W37725  36.450  13.342   0.862
66197W        W37726  20.092  31.624   4.673
66198W        W37727  24.946   0.833   1.353
66199W        W37728  13.568  42.061  13.402
66200W        W37729  41.782   3.505  10.123
66201W        W37730  10.733   1.653   1.408
66202W        W37731  27.943  26.977   4.707
66203W        W37732  31.902  10.588   2.294
66204W        W37733  42.753   0.949   0.839
66205W        W37734  27.064  22.283   1.790
66206W        W37735  15.587  14.246  12.543
66207W        W37736  33.660  10.890   4.215
66208W        W37737  22.044  34.749  11.991
66209W        W37738  25.958  19.195   2.607
66210W        W37739  24.457  37.850   2.914
66211W        W37740  22.616   5.113  11.494
66212W        W37741  20.360  11.834   2.733
66213W        W37742  24.567   5.778   1.535
66214W        W37743  42.958  20.985  14.893
66215W        W37744  21.636  25.607   0.500
66216W        W37745  34.194  36.027   2.178
66217W        W37746   1.423  10.432  13.964
66218W        W37747  25.404   5.172   0.264
66219W        W37748  43.574  32.848   4.416
66220W        W37749  23.656  40.701   1.928
66221W        W37750  31.117  38.677  11.569
66222W        W37751  43.800  13.136   2.454
66223W        W37752   9.345  11.955   3.836
66224W        W37753  11.267  19.242   4.243
66225W        W37754  22.743  40.850   2.210
66226W        W37755  37.737  13.137   3.736
66227W        W37756  41.020  30.725  14.209
66228W        W37757  10.701  28.481  12.998
66229W        W37758  24.671  10.772  12.849
66230W        W37759  13.649   1.269   3.209
66231W        W37760  41.768  28.696   3.864
66232W        W37761   5.531  28.240   0.384
66233W        W37762  12.543   6.798  12.078
66234W        W37763  26.475  27.688   3.215
66235W        W37764  39.986   1.557   3.691
66236W        W37765  43.326   1.350  14.426
66237W        W37766  11.160  44.173   2.306
66238W        W37767  44.784  38.219   4.896
66239W        W37768  22.196  21.947   1.003
66240W        W37769  39.742  13.052  10.739
66241W        W37770  15.345  32.903  10.694
66242W        W37771   3.822  25.817   1.248
66243W        W37772  32.062  31.070   3.298
66244W        W37773   7.456  26.942  11.515
66245W        W37774   5.615  26.382   4.601
66246W        W37775  32.137  14.891   2.737
66247W        W37776  21.505  38.081  13.771
66248W        W37777  15.484  22.200   0.744
66249W        W37778   2.771   0.514  13.368
66250W        W37779  30.650  44.822   0.358
66251W        W37780   3.367  22.216   1.342
66252W        W37781   7.193  44.871   2.429
66253W        W37782  31.067   3.140   4.957
66254W        W37783  31.101  12.750   2.237
66255W        W37784   6.200  20.971   1.727
66256W        W37785  25.235  20.737  13.497
66257W        W37786  32.383  36.293   1.425
66258W        W37787  29.558   5.812   1.876
66259W        W37788  29.504  42.943   1.253
66260W        W37789  28.951  39.975  14.817
66261W        W37790  15.093  36.374   1.729
66262W        W37791  38.480  40.390   3.210
66263W        W37792  31.337  11.218   4.130
66264W        W37793  26.180  31.366   0.743
66265W        W37794  22.262  13.824  11.067
66266W        W37795   1.993  16.754   3.680
66267W        W37796   7.849  20.747   0.685
66268W        W37797  27.686   8.364  14.302
66269W        W37798  21.496  31.448   4.094
66270W        W37799   2.679  22.721   1.834
66271W        W37800   7.147   6.264  12.043
66272W        W37801  39.469   0.404  10.739
66273W        W37802   8.333  39.825   0.345
66274W        W37803  15.182  24.674  14.749
66275W        W37804  14.177  24.937  10.942
66276W        W37805  25.240   0.315   1.334
66277W        W37806   8.805  23.016  10.661
66278W        W37807  22.987   1.500  10.344
66279W        W37808  21.321   9.732   0.836
66280W        W37809  37.923  19.475  11.594
66281W        W37810  10.717   3.006  12.564
66282W        W37811   6.412  18.343  11.643
66283W        W37812  44.752  41.993   4.054
66284W        W37813  30.656  12.924  14.831
66285W        W37814  27.691  31.944  12.805
66286W        W37815  17.431  12.600  10.573
66287W        W37816  38.235   6.730   4.568
66288W        W37817  29.692  18.061  12.582
66289W        W37818  44.700  33.370   3.210
66290W        W37819   2.977  42.957  12.472
66291W        W37820  22.003  16.331  11.589
66292W        W37821  26.762  15.063   2.627
66293W        W37822  39.955  13.796   3.725
66294W        W37823  11.463  22.613  11.001
66295W        W37824  20.576   0.312   2.317
66296W        W37825  27.643  44.363   3.997
66297W        W37826  17.884  25.616   2.384
66298W        W37827  34.146  11.108   2.775
66299W        W37828  28.583   1.045   2.201
66300W        W37829   5.655  40.251  10.806
66301W        W37830  19.806  41.963   4.538
66302W        W37831  31.502  35.144  11.867
66303W        W37832  32.113   0.094   4.139
66304W        W37833  22.129   1.456  11.630
66305W        W37834   5.835  24.939  11.023
66306W        W37835  16.039  39.511  10.445
66307W        W37836  16.715   6.200  11.452
66308W        W37837  18.033  24.263  13.538
66309W        W37838  26.067  21.233  12.059
66310W        W37839  22.722  10.074  11.109
66311W        W37840   0.908  20.109  12.760
66312W        W37841  22.515  18.092   0.756
66313W        W37842  39.555  16.023   0.723
66314W        W37843   0.671   3.230   2.932
66315W        W37844  22.540  34.583   0.893
66316W        W37845  25.421  11.597   5.042
66317W        W37846   7.687  41.104  10.219
66318W        W37847  13.766  17.989  11.504
66319W        W37848  37.717   6.908  11.217
66320W        W37849  26.887  23.089  13.437
66321W        W37850  10.095  37.891   1.956
66322W        W37851  12.143  23.705  13.149
66323W        W37852  31.185  15.109   2.247
66324W        W37853   3.256  44.644  14.967
66325W        W37854  27.502  37.842  11.119
66326W        W37855   9.638  16.817   2.852
66327W        W37856  36.860  34.385  12.741
66328W        W37857  12.889  25.959   4.190
66329W        W37858   1.448  21.747  12.287
66330W        W37859  24.233  16.829  11.661
66331W        W37860  23.626  41.087  12.967
66332W        W37861  22.016   7.895   1.434
66333W        W37862  13.137  39.003   1.478
66334W        W37863  21.948   4.265  10.693
66335W        W37864  41.279  15.174   2.822
66336W        W37865  29.549   5.767   3.193
66337W        W37866  41.875  30.648   0.713
66338W        W37867  13.377  35.468   3.186
66339W        W37868  22.754  30.452  14.915
66340W        W37869   2.901  17.614   2.483
66341W        W37870  27.102  32.213  13.599
66342W        W37871  10.198  20.866   0.372
66343W        W37872   2.296  15.172   0.351
66344W        W37873  32.113  22.311  12.451
66345W        W37874  41.864  22.348   4.238
66346W        W37875  32.214  17.105  10.747
66347W        W37876  37.554  25.420   2.450
66348W        W37877   7.065   9.390  10.986
66349W        W37878   9.654  28.420   0.524
66350W        W37879  14.193   3.864  13.081
66351W        W37880   3.210  30.132  10.942
66352W        W37881  30.395  40.325  13.415
66353W        W37882  21.042   6.232   4.563
66354W        W37883  14.270  25.122   0.997
66355W        W37884  24.698  17.504  12.046
66356W        W37885   4.139  36.593  13.852
66357W        W37886  44.555  10.627   3.786
66358W        W37887  23.025  33.105   3.073
66359W        W37888  13.942  38.119  12.917
66360W        W37889  12.673  18.217   1.693
66361W        W37890  19.388  21.034   4.100
66362W        W37891  37.035   9.171  13.789
66363W        W37892  35.362  13.883   1.330
66364W        W37893  29.757   1.229   1.886
66365W        W37894  12.337  11.598   3.749
66366W        W37895   0.201  34.040  13.916
66367W        W37896  10.855  14.744  14.893
66368W        W37897  42.768  22.259   3.697
66369W        W37898  29.117  35.953   0.880
66370W        W37899  24.581  32.853  13.884
66371W        W37900   7.637  20.639  11.906
66372W        W37901  39.425  10.893  13.423
66373W        W37902  30.779   5.215   3.363
66374W        W37903   4.307   6.994   3.722
66375W        W37904  16.364   5.370  12.770
66376W        W37905  23.921  27.570   4.187
66377W        W37906  26.626  26.729  12.957
66378W        W37907  15.909  32.631  11.523
66379W        W37908   3.795   7.715   1.429
66380W        W37909   9.196  33.086  13.279
66381W        W37910  10.472  25.569  13.473
66382W        W37911   9.552  18.945  11.923
66383W        W37912  13.185   1.923  10.404
66384W        W37913  16.945  28.461   4.578
66385W        W37914  12.389   3.726   2.858
66386W        W37915  29.664  28.411  12.132
66387W        W37916  18.882  15.498   4.102
66388W        W37917  27.616  10.389  14.025
66389W        W37918  33.286  18.481  13.338
66390W        W37919  10.517  43.499  10.088
66391W        W37920  38.698   6.373   3.053
66392W        W37921  30.920  28.606  12.645
66393W        W37922  20.640   2.968  11.530
66394W        W37923  26.202  39.791  13.818
66395W        W37924  40.508  10.382   4.287
66396W        W37925  20.773  41.313  11.484
66397W        W37926  28.779  28.255   2.165
66398W        W37927  16.754  18.291  13.397
66399W        W37928  39.807   9.165  12.175
66400W        W37929  25.715  10.712  11.238
66401W        W37930  28.388  21.624   3.805
66402W        W37931  12.987  42.710  10.272
66403W        W37932  16.260  21.278  11.577
66404W        W37933   7.133  15.534  12.407
66405W        W37934  38.875  14.728   1.728
66406W        W37935  19.722  38.389  12.309
66407W        W37936   2.812   2.813  11.170
66408W        W37937   3.042  14.716   0.454
66409W        W37938  33.501  32.299   0.364
66410W        W37939  31.835   4.216  11.668
66411W        W37940  29.572  28.466   2.636
66412W        W37941   6.883  32.954  13.037
66413W        W37942   1.401  12.339   0.430
66414W        W37943  10.811  22.763   3.879
66415W        W37944   4.259   8.414   3.384
66416W        W37945  26.060  35.732   2.350
66417W        W37946   7.080  10.693  11.196
66418W        W37947  23.240  25.474  14.023
66419W        W37948  37.047  21.097   3.592
66420W        W37949  34.001   2.960   0.915
66421W        W37950  12.321  39.174  11.353
66422W        W37951  15.407  19.471  10.243
66423W        W37952  11.719  17.336   1.957
66424W        W37953  13.583  21.742   2.771
66425W        W37954  22.696   5.934  11.113
66426W        W37955   7.426   1.638   0.236
66427W        W37956  24.532  40.373  11.208
66428W        W37957  24.181  14.940  10.741
66429W        W37958  18.246  23.511   1.419
66430W        W37959   5.975  21.446  14.661
66431W        W37960  36.591   1.299   1.888
66432W        W37961   4.142   9.281   4.753
66433W        W37962  10.319  16.699   3.403
66434W        W37963  38.785  42.486  12.498
66435W        W37964  13.762  18.489   2.260
66436W        W37965  10.321   4.860   4.526
66437W        W37966  35.429  31.386   1.206
66438W        W37967  26.931   2.923  13.923
66439W        W37968  38.068  42.440  11.145
66440W        W37969  35.562  28.080  11.428
66441W        W37970  24.520   9.429   1.368
66442W        W37971  26.210  15.059  11.948
66443W        W37972  34.538   3.960   4.658
66444W        W37973  14.661  37.814   1.870
66445W        W37974  40.051  18.674  11.221
66446W        W37975   8.261  12.889   1.593
66447W        W37976  21.194  42.055  11.496
66448W        W37977  21.567  13.864   0.541
66449W        W37978   8.431  10.117  13.447
66450W        W37979  28.030  30.636   0.429
66451W        W37980  25.620  41.580   0.360
66452W        W37981  10.227   3.486   2.385
66453W        W37982  28.057   7.633  10.803
66454W        W37983  22.711  41.499  10.776
66455W        W37984   0.242  10.714  12.863
66456W        W37985   9.409  44.448   2.988
66457W        W37986   7.310  18.541  11.951
66458W        W37987   4.451  31.714   0.680
66459W        W37988  31.169  27.517   1.193
66460W        W37989  13.767  12.636   1.647
66461W        W37990  12.704   5.048  14.331
66462W        W37991  36.032   1.973   4.864
66463W        W37992   4.401  28.861  12.363
66464W        W37993  14.920   6.305   4.420
66465W        W37994  11.834  29.034   3.883
66466W        W37995  19.865  35.781   3.589
66467W        W37996  10.230  27.826  14.462
66468W        W37997  30.453  36.875  11.249
66469W        W37998   0.736  43.540   1.213
66470W        W37999  26.049  35.023  10.483
66471W        W38000  19.575  23.676   0.552
66472W        W38001  23.568  21.261   3.871
66473W        W38002  33.927   8.822   3.194
66474W        W38003  15.762  24.515  11.094
66475W        W38004  13.090  26.785   1.300
66476W        W38005   7.786  27.756   3.350
66477W        W38006  28.017  41.809  12.216
66478W        W38007  38.842  12.210  10.436
66479W        W38008   4.762  43.766   0.842
66480W        W38009  16.857  23.767   1.327
66481W        W38010  20.146  30.438   3.650
66482W        W38011  39.811  24.029   1.682
66483W        W38012  31.622  19.216  10.666
66484W        W38013  20.174   7.480   3.662
66485W        W38014  11.426   8.570   3.628
66486W        W38015  31.991  16.627  12.074
66487W        W38016  18.027   9.222   1.733
66488W        W38017   1.049  26.633  12.945
66489W        W38018   4.345  11.002  11.604
66490W        W38019  43.827  37.107  14.783
66491W        W38020  18.418   9.763   0.230
66492W        W38021  11.725  38.001   1.903
66493W        W38022   8.339   9.604   1.697
66494W        W38023  36.925  12.620  13.438
66495W        W38024   3.223  38.392   0.416
66496W        W38025  27.650  14.528   0.395
66497W        W38026   8.190  36.483  12.209
66498W        W38027  16.696   5.780   3.324
66499W        W38028  42.754  20.088   4.514
66500W        W38029   3.696  18.690  12.776
66501W        W38030  29.088  20.315  11.564
66502W        W38031   0.829  37.388   2.660
66503W        W38032   6.749  34.785  13.363
66504W        W38033  37.904  16.344   3.665
66505W        W38034  17.231  28.066   2.778
66506W        W38035  33.097  18.630   4.559
66507W        W38036  26.034  11.285   2.334
66508W        W38037  33.176  24.910   3.280
66509W        W38038  38.963  37.560  11.599
66510W        W38039  13.372  24.103   3.252
66511W        W38040  36.554  21.908   0.515
66512W        W38041  13.131  20.189  10.709
66513W        W38042  24.789  36.388  13.933
66514W        W38043   5.747  43.318  14.515
66515W        W38044  30.720  30.544   1.254
66516W        W38045   1.553  44.431  12.615
66517W        W38046  29.036  44.539  12.591
66518W        W38047   7.293  18.108   2.203
66519W        W38048  41.780  37.818  11.189
66520W        W38049  28.559  33.132  11.889
66521W        W38050   1.705  18.600  12.435
66522W        W38051  39.604  14.671  14.495
66523W        W38052  32.965  12.186   1.199
66524W        W38053  22.934  35.139  12.879
66525W        W38054  24.692  27.581   3.749
66526W        W38055  30.221  10.845   3.764
66527W        W38056  38.578   7.298  12.577
66528W        W38057  14.586  22.438  11.618
66529W        W38058  27.664  29.682  14.396
66530W        W38059  31.950  26.721   2.316
66531W        W38060  33.578   1.529   0.201
66532W        W38061  37.551  34.631   0.860
66533W        W38062  42.943  18.520   2.807
66534W        W38063   4.656  36.389   4.033
66535W        W38064  12.343  29.060  11.101
66536W        W38065  18.263  30.975   0.960
66537W        W38066   8.166  30.961   0.134
66538W        W38067  13.309  18.516  13.373
66539W        W38068   5.288  43.574   1.660
66540W        W38069  13.867  30.943   2.854
66541W        W38070  22.235   5.399  14.557
66542W        W38071  16.663  41.876   3.117
66543W        W38072  12.039   2.410   2.318
66544W        W38073   3.513  39.276  11.496
66545W        W38074  37.511  21.530  14.535
66546W        W38075  13.099  30.498   3.921
66547W        W38076   5.338  11.206   1.951
66548W        W38077  11.711  28.165  14.764
66549W        W38078  22.979  14.178  12.521
66550W        W38079   2.436  28.298  10.738
66551W        W38080  33.150  20.728  11.008
66552W        W38081  18.749   7.423   1.669
66553W        W38082   9.682  21.789  14.212
66554W        W38083  11.095  28.049  12.213
66555W        W38084  20.485   0.658   2.757
66556W        W38085  31.639  14.287   2.996
66557W        W38086  21.900  32.271  10.970
66558W        W38087  27.545  24.724  13.832
66559W        W38088  28.228  22.214  13.667
66560W        W38089  23.489   4.681  13.327
66561W        W38090  40.060  31.458   2.809
66562W        W38091   0.401  15.362   0.314
66563W        W38092  11.951   3.720   2.577
66564W        W38093  13.254   1.027   4.947
66565W        W38094  40.812  24.963   2.821
66566W        W38095  31.604  25.419   2.242
66567W        W38096  44.700  27.644  10.976
66568W        W38097  31.598   9.826   1.277
66569W        W38098  28.641  13.931  13.196
66570W        W38099  14.952  27.815  13.166
66571W        W38100  39.373  27.723  12.447
66572W        W38101   6.165   3.876   1.513
66573W        W38102  11.253  11.261  12.562
66574W        W38103  27.091  13.232  14.335
66575W        W38104   5.237   1.806   0.823
66576W        W38105  34.264  15.433   0.763
66577W        W38106  27.589  27.923   2.765
66578W        W38107  23.500  39.112   2.344
66579W        W38108  35.479  28.880  11.578
66580W        W38109   2.495  29.614  11.081
66581W        W38110  35.083   4.534  11.469
66582W        W38111   5.095  24.484  11.580
66583W        W38112   5.716  22.733  11.531
66584W        W38113  37.960   4.820   3.159
66585W        W38114  30.636   8.686   1.677
66586W        W38115  11.155   7.303  10.721
66587W        W38116   5.930  11.705  10.648
66588W        W38117  25.208  19.763  13.369
66589W        W38118   7.695  35.408  11.188
66590W        W38119  25.158  13.432   3.701
66591W        W38120   8.755   7.862   5.057
66592W        W38121  13.641  23.581   0.560
66593W        W38122  37.366  37.457  11.503
66594W        W38123  31.048   0.789  13.851
66595W        W38124  16.803  39.591  11.531
66596W        W38125  43.917  16.714   1.422
66597W        W38126  36.712  24.237   2.303
66598W        W38127  20.109  25.252   2.762
66599W        W38128  29.938  21.244   0.311
66600W        W38129  38.028  12.809   4.095
66601W        W38130  32.064  28.567   5.092
66602W        W38131  30.053  12.082  12.846
66603W        W38132  17.124  42.974  10.303
66604W        W38133   7.952  34.014  11.212
66605W        W38134  24.153  29.201   2.230
66606W        W38135  17.675  10.379   4.989
66607W        W38136  38.361  22.608  10.512
66608W        W38137  42.788  31.972   4.766
66609W        W38138  18.231  36.347   1.294
66610W        W38139  15.276  21.096   3.221
66611W        W38140  22.501  30.683  14.505
66612W        W38141   5.887  22.404  11.908
66613W        W38142  24.792  31.844  10.873
66614W        W38143  38.751   4.787   3.195
66615W        W38144  26.518  10.430   2.396
66616W        W38145  27.924  38.677  12.571
66617W        W38146  40.956  32.812  10.645
66618W        W38147  42.447  28.756   3.625
66619W        W38148  33.358  33.523  10.546
66620W        W38149   4.607  15.858  11.992
66621W        W38150  43.189  22.258  13.042
66622W        W38151  42.400  43.910   3.884
66623W        W38152  13.745  36.227   2.258
66624W        W38153  30.502  23.691  10.783
66625W        W38154  33.412  11.661  13.434
66626W        W38155  20.586  26.942   0.810
66627W        W38156  29.864  35.360   0.042
66628W        W38157  23.264   5.388  14.004
66629W        W38158   4.453   0.341   4.491
66630W        W38159  24.019  11.773   4.228
66631W        W38160  28.538  42.933  14.126
66632W        W38161  42.328   4.921  14.542
66633W        W38162  14.805  25.091   0.395
66634W        W38163   8.078  36.151   2.863
66635W        W38164   6.884  43.973  11.195
66636W        W38165   2.420  20.863  12.889
66637W        W38166  18.775  18.859   1.828
66638W        W38167  31.239  10.676  14.464
66639W        W38168  13.705   4.732   1.235
66640W        W38169   0.468  42.722   4.065
66641W        W38170  44.174  32.861  12.983
66642W        W38171  41.148  19.954   0.197
66643W        W38172  36.961  27.534   3.936
66644W        W38173  41.950  27.128   2.397
66645W        W38174  14.231  17.902  14.776
66646W        W38175  11.762   2.798   4.575
66647W        W38176   6.781  38.800  10.712
66648W        W38177   7.359   8.857   1.554
66649W        W38178  23.134  27.009   4.987
66650W        W38179   4.956  39.525  14.276
66651W        W38180  34.401  13.244  13.164
66652W        W38181  40.023   8.926   2.269
66653W        W38182  32.013   2.282  12.380
66654W        W38183   2.948  14.275   0.203
66655W        W38184  11.127  25.211   1.921
66656W        W38185  33.870  15.676  12.668
66657W        W38186  30.400   9.842  13.977
66658W        W38187  20.742  16.349  13.673
66659W        W38188  23.273  44.346   2.284
66660W        W38189  29.864  26.501  11.938
66661W        W38190  27.575  34.682  12.923
66662W        W38191  19.507  40.621  12.993
66663W        W38192  23.457  40.590  12.075
66664W        W38193   5.238  35.853   4.573
66665W        W38194  23.077  39.033  11.195
66666W        W38195   0.187  43.238  12.571
66667W        W38196  30.328  42.738  12.093
66668W        W38197  18.517  29.629   2.173
66669W        W38198  43.096  42.499  11.963
66670W        W38199   6.431  25.951  14.911
66671W        W38200  31.865  18.776   3.661
66672W        W38201   1.737  10.418   1.151
66673W        W38202  14.077   1.405  14.789
66674W        W38203  26.424  39.529  10.474
66675W        W38204   3.623  10.164   1.275
66676W        W38205   7.568   0.468   1.205
66677W        W38206  14.072  34.899   0.983
66678W        W38207  38.832  19.621   2.187
66679W        W38208  41.102  15.907   2.296
66680W        W38209  44.977  27.186  10.986
66681W        W38210  38.122  38.593  13.966
66682W        W38211  38.852   7.678  14.381
66683W        W38212  11.300  23.724   3.253
66684W        W38213  44.368  43.474   0.327
66685W        W38214  10.637   3.019   1.723
66686W        W38215  15.956   4.439  10.899
66687W        W38216  26.354  12.835   2.811
66688W        W38217  25.695  43.381   1.295
66689W        W38218  43.213  29.063   4.129
66690W        W38219  26.640  16.786  14.525
66691W        W38220  35.002   0.237  13.509
66692W        W38221  10.818  36.700   1.100
66693W        W38222  28.019   3.983   5.023
66694W        W38223   7.896  41.058  13.525
66695W        W38224   2.244  41.523   0.715
66696W        W38225  33.017   3.519  10.554
66697W        W38226  16.664  30.646  13.854
66698W        W38227  40.110  41.600  13.094
66699W        W38228  38.706  13.531   0.518
66700W        W38229  33.215  19.701  14.233
66701W        W38230  37.514  11.001   0.523
66702W        W38231  42.783  36.869  12.880
66703W        W38232  23.009  44.567   3.750
66704W        W38233  26.850  31.703  12.899
66705W        W38234   5.219  19.523  13.271
66706W        W38235  35.905   9.342  13.067
66707W        W38236  20.768  38.506   3.304
66708W        W38237  21.050  39.958  12.320
66709W        W38238  42.975   5.410   0.881
66710W        W38239  14.330  30.903   1.297
66711W        W38240  25.038   8.374  12.110
66712W        W38241  13.799  14.619  14.953
66713W        W38242  31.086  16.653   0.301
66714W        W38243  25.100  23.824  11.110
66715W        W38244   9.337  23.681   4.534
66716W        W38245  44.952   5.187   2.472
66717W        W38246  18.250  15.159   4.879
66718W        W38247  18.284  23.203  12.545
66719W        W38248  36.353  33.969   4.185
66720W        W38249  25.206  44.581  11.463
66721W        W38250  30.976  14.341   0.593
66722W        W38251  35.551  40.782   4.576
66723W        W38252  31.348  35.974  14.033
66724W        W38253  19.744  23.112  10.610
66725W        W38254  41.534   6.329  12.297
66726W        W38255  29.868  24.138   1.202
66727W        W38256  26.253  39.706  13.326
66728W        W38257  28.207  23.294   4.533
66729W        W38258  17.086  11.097   3.859
66730W        W38259  26.473  24.207   1.643
66731W        W38260  20.564  44.863   2.728
66732W        W38261  22.216  22.080   3.232
66733W        W38262  14.854  29.222   0.853
66734W        W38263  36.315  38.810   0.010
66735W        W38264   1.486  26.087  11.437
66736W        W38265  39.300  21.667  11.497
66737W        W38266   6.227  12.703  10.799
66738W        W38267  24.490   8.072  11.370
66739W        W38268  18.729   9.252  10.494
66740W        W38269  17.614  33.063   0.195
66741W        W38270  11.400  32.057   0.893
66742W        W38271  31.947  16.652   3.642
66743W        W38272   2.347   4.040  14.384
66744W        W38273  42.364  35.939  14.455
66745W        W38274  29.555  24.508  14.443
66746W        W38275  11.427   9.344   4.060
66747W        W38276   3.741  28.691   3.706
66748W        W38277  10.619  11.652  10.173
66749W        W38278  12.298  43.586   3.314
66750W        W38279   8.648   2.939   0.002
66751W        W38280  29.287  21.807   1.953
66752W        W38281   9.654  26.663  13.562
66753W        W38282  26.989   6.476  13.912
66754W        W38283  35.363  16.252   4.324
66755W        W38284  27.237  12.324   1.620
66756W        W38285  37.892  40.870   0.303
66757W        W38286  19.222  37.847   1.263
66758W        W38287  14.042  25.550  10.742
66759W        W38288  13.840  20.808   3.763
66760W        W38289  44.197   4.412  11.028
66761W        W38290  20.030   3.246   1.745
66762W        W38291  10.818   3.803  12.154
66763W        W38292  20.122   8.904   0.502
66764W        W38293  30.986  19.042  12.853
66765W        W38294   4.614   4.942  11.577
66766W        W38295  28.400  19.817  14.518
66767W        W38296  19.319   2.193  11.520
66768W        W38297   7.367  12.746  10.752
66769W        W38298   6.704   3.311  11.436
66770W        W38299   7.333  17.512  12.975
66771W        W38300  22.512   0.973   0.478
66772W        W38301  33.784  35.316  11.265
66773W        W38302  10.837   6.305   1.817
66774W        W38303   4.726  10.633  13.180
66775W        W38304  39.866   5.623  11.980
66776W        W38305  40.566  34.408   2.285
66777W        W38306   7.447  35.854  12.998
66778W        W38307  31.532  19.629  12.089
66779W        W38308   3.842  41.513   4.396
66780W        W38309  36.759   3.549  11.190
66781W        W38310   1.413  25.116   1.453
66782W        W38311  25.176  13.855   4.533
66783W        W38312  13.795   6.313   3.638
66784W        W38313  16.503   2.584  14.243
66785W        W38314   9.670  40.255   0.759
66786W        W38315  37.543  26.964  13.252
66787W        W38316  10.344  20.959   5.236
66788W        W38317   4.379  30.914  13.605
66789W        W38318  40.259  27.106  14.424
66790W        W38319  12.085  28.670  13.393
66791W        W38320  13.709   0.753   3.260
66792W        W38321  31.693  42.237  12.869
66793W        W38322  18.217   2.672   1.292
66794W        W38323  39.553   8.824  13.628
66795W        W38324  29.116   9.252  12.477
66796W        W38325  15.586  24.528   3.365
66797W        W38326  29.628   2.994  11.660
66798W        W38327  28.547   6.407  12.273
66799W        W38328  24.994   8.719   4.767
66800W        W38329   2.318  11.653  13.533
66801W        W38330  36.543  30.269  13.363
66802W        W38331  35.508  36.453  10.351
66803W        W38332  26.173  31.189   2.075
66804W        W38333  40.456   1.977   1.725
66805W        W38334   7.932  43.961  10.874
66806W        W38335  20.734  41.863  11.407
66807W        W38336  41.447  29.127   0.400
66808W        W38337   0.478  10.492  11.042
66809W        W38338   8.106  42.043   0.896
66810W        W38339   7.115   3.241  14.521
66811W        W38340  24.721  34.803  13.875
66812W        W38341  18.318  30.106   2.908
66813W        W38342  30.334  25.228  13.963
66814W        W38343  30.374  24.634   2.644
66815W        W38344  31.380  11.850  13.356
66816W        W38345  37.484  19.911   1.399
66817W        W38346  32.482  29.520  14.733
66818W        W38347  13.675  32.786  11.085
66819W        W38348  28.690  31.354   3.288
66820W        W38349  28.033  33.671  13.551
66821W        W38350   7.764  28.630  12.474
66822W        W38351  21.008  40.395   0.880
66823W        W38352  24.505  40.247  13.725
66824W        W38353  18.266  41.675  14.005
66825W        W38354  13.634  12.244  13.068
66826W        W38355  41.668  16.790   2.295
66827W        W38356  34.805  37.482   5.184
66828W        W38357   9.185  25.099  12.851
66829W        W38358  23.094   1.954   4.855
66830W        W38359  34.117  26.561   1.522
66831W        W38360   9.998  20.756   4.136
66832W        W38361  39.878  37.356   1.447
66833W        W38362  43.479  13.123  11.745
66834W        W38363  24.055  29.531   4.137
66835W        W38364   3.712  29.317   0.348
66836W        W38365  14.136  15.033   0.484
66837W        W38366   9.247  44.413   1.963
66838W        W38367  33.010  32.449   3.741
66839W        W38368   0.362   5.870  14.497
66840W        W38369  36.063  11.734  13.935
66841W        W38370   2.032  36.504  14.427
66842W        W38371  30.465  17.578  13.958
66843W        W38372  30.064   2.356   4.495
66844W        W38373  17.537  23.116  12.110
66845W        W38374   1.006  38.353  11.234
66846W        W38375  18.870  40.785  14.400
66847W        W38376  13.759  11.098  14.793
66848W        W38377  43.885  37.366  10.629
66849W        W38378  25.298  12.778   4.494
66850W        W38379   1.809   6.233  14.433
66851W        W38380  39.986  26.415   2.472
66852W        W38381  31.184  14.850  11.738
66853W        W38382  27.630  35.633   2.887
66854W        W38383   8.690  26.554   3.756
66855W        W38384  25.646   5.201   2.416
66856W        W38385  21.705  17.217  14.393
66857W        W38386  14.556  19.111  11.101
66858W        W38387  39.035  30.424   2.712
66859W        W38388  17.557  17.113  13.306
66860W        W38389  25.062   4.244  13.554
66861W        W38390  38.778   2.913   0.321
66862W        W38391  40.060  24.583  14.847
66863W        W38392  29.976  35.004  11.785
66864W        W38393  31.789  43.663   2.839
66865W        W38394  16.633  11.762  14.863
66866W        W38395  23.677  39.679  10.690
66867W        W38396   1.425  33.503  13.049
66868W        W38397  35.463  32.046  14.336
66869W        W38398  30.495  13.002  12.119
66870W        W38399  41.752  35.835  14.925
66871W        W38400  31.956  17.562  11.112
66872W        W38401  21.730  27.661   0.310
66873W        W38402  26.977  25.121   0.758
66874W        W38403  40.002  16.681   3.635
66875W        W38404  29.160   6.738   4.336
66876W        W38405  31.467  16.326  12.255
66877W        W38406   4.727  10.627   0.309
66878W        W38407  33.305  43.656   2.345
66879W        W38408   8.799  17.974   4.582
66880W        W38409  10.225  39.383  13.798
66881W        W38410  22.216  37.360  14.388
66882W        W38411  10.378   9.588   2.721
66883W        W38412  21.596  14.752  14.855
66884W        W38413  23.851  19.750   4.545
66885W        W38414   0.407  31.879   0.958
66886W        W38415  10.144  22.901  11.731
66887W        W38416  27.923  41.205   0.252
66888W        W38417   6.829  30.070  11.942
66889W        W38418  33.992  42.830   0.203
66890W        W38419  35.624  24.215  13.786
66891W        W38420  36.316  28.415  11.638
66892W        W38421   6.111   6.953  10.775
66893W        W38422  14.536  40.520  11.687
66894W        W38423  26.556  16.272   3.075
66895W        W38424  21.656  38.010   0.951
66896W        W38425  18.205  16.973   4.574
66897W        W38426   6.449  19.922   5.230
66898W        W38427  18.246  14.613  14.454
66899W        W38428  43.932  43.770   4.303
66900W        W38429   2.202  33.771   1.400
66901W        W38430  19.078  41.441   4.490
66902W        W38431  29.945  42.885   1.521
66903W        W38432  23.911  12.193  13.986
66904W        W38433  13.547  38.310   0.316
66905W        W38434   6.842  31.897   1.599
66906W        W38435  28.522  32.083  10.293
66907W        W38436   2.505  15.217  14.856
66908W        W38437  25.430  43.786   4.151
66909W        W38438  31.724  12.210  14.447
66910W        W38439  22.950   5.915  13.783
66911W        W38440  39.869  15.286  14.898
66912W        W38441   7.838  15.707   4.571
66913W        W38442   2.304  24.534  11.897
66914W        W38443  16.103  13.868  13.397
66915W        W38444   6.496  29.162  10.100
66916W        W38445  41.029  39.490  14.845
66917W        W38446  12.223   4.414   2.094
66918W        W38447  14.220   1.457  11.362
66919W        W38448  32.413  25.688  11.255
66920W        W38449   3.919  39.474   1.810
66921W        W38450  10.640  27.613  10.428
66922W        W38451  10.653  22.532  14.740
66923W        W38452  16.163  42.125   1.848
66924W        W38453   6.666  44.869  12.732
66925W        W38454  12.197  42.898  10.735
66926W        W38455  17.930   4.313   4.222
66927W        W38456  18.531   6.680   1.863
66928W        W38457   8.823   6.857   1.372
66929W        W38458   3.286  17.747   4.593
66930W        W38459  37.528   3.465   0.900
66931W        W38460  17.219   8.949  13.673
66932W        W38461   3.116   1.026   3.861
66933W        W38462  23.772  11.643   2.934
66934W        W38463  43.496  35.871   1.612
66935W        W38464   4.795  29.825   3.669
66936W        W38465  31.605  24.076   0.227
66937W        W38466  19.045   7.362   2.139
66938W        W38467  35.510   4.542   0.702
66939W        W38468  13.493   1.182   4.540
66940W        W38469  43.782  13.834  12.416
66941W        W38470  10.949  34.047  13.534
66942W        W38471   7.725  23.715  11.063
66943W        W38472  16.470   6.835   1.323
66944W        W38473   1.661  43.524  11.635
66945W        W38474  30.265  23.524  11.281
66946W        W38475  20.809  39.053  12.448
66947W        W38476  42.033   6.662  13.829
66948W        W38477  10.953  17.043   1.622
66949W        W38478  27.945   6.838   1.318
66950W        W38479  34.507  42.687   0.291
66951W        W38480  18.268  25.205   2.306
66952W        W38481  41.749   0.781  11.216
66953W        W38482  28.116   6.232   1.633
66954W        W38483   7.777  19.559  14.506
66955W        W38484   2.947  36.990   0.334
66956W        W38485  37.698  41.029   3.294
66957W        W38486  32.943  22.665   4.258
66958W        W38487  35.368  24.733  13.639
66959W        W38488  35.361  40.007   4.136
66960W        W38489  28.507  39.971   2.889
66961W        W38490  39.191  20.700  10.688
66962W        W38491  43.199  21.732   1.340
66963W        W38492  26.134  31.703   0.350
66964W        W38493  24.412   4.140   0.222
66965W        W38494  21.319  34.571  12.582
66966W        W38495  10.329  14.758   2.823
66967W        W38496  16.758  39.657  14.270
66968W        W38497   2.431  43.321   4.457
66969W        W38498  38.220  39.017   1.418
66970W        W38499  26.984  22.242  11.212
66971W        W38500   1.333  27.026  11.375
66972W        W38501  37.100  22.951   2.719
66973W        W38502  15.769  34.886   1.872
66974W        W38503   8.922   4.363   1.262
66975W        W38504  15.158  20.259   2.730
66976W        W38505  41.698  19.517  11.708
66977W        W38506  30.900  21.281  11.085
66978W        W38507  37.550  44.939   1.383
66979W        W38508   2.820  20.228  11.160
66980W        W38509  28.514  44.516  13.626
66981W        W38510  32.911  21.260  12.610
66982W        W38511  29.681   5.292  13.428
66983W        W38512  25.566  31.608  13.399
66984W        W38513   7.159   2.422   3.669
66985W        W38514  25.673  29.355   1.307
66986W        W38515  26.449   2.885  11.709
66987W        W38516   3.387  22.635  11.928
66988W        W38517  15.141  38.515  14.550
66989W        W38518  14.164  34.041  12.610
66990W        W38519  33.655   2.259   2.064
66991W        W38520  14.747  35.069   3.472
66992W        W38521   5.304  14.720   0.234
66993W        W38522  20.651   2.260   2.505
66994W        W38523  20.578  16.103   4.884
66995W        W38524  38.194  28.046   1.441
66996W        W38525  37.747  35.067   3.367
66997W        W38526  26.940  44.267  14.342
66998W        W38527  27.533   0.606  13.896
66999W        W38528  14.713  35.931  11.273
67000W        W38529   9.328  36.358   0.839
67001W        W38530  30.468  31.929   2.683
67002W        W38531  18.024  28.248   0.555
67003W        W38532  30.385  22.948  12.115
67004W        W38533   2.293  24.421  13.777
67005W        W38534   6.068  20.082   0.816
67006W        W38535  43.446  17.540   4.702
67007W        W38536  23.130  22.486   3.761
67008W        W38537   6.168   8.975  11.659
67009W        W38538  31.325  41.449  12.439
67010W        W38539   6.245  33.381   9.816
67011W        W38540   7.778  25.668  14.316
67012W        W38541  20.142  38.292   1.251
67013W        W38542  14.378  19.396   4.912
67014W        W38543   4.529  26.112  12.636
67015W        W38544  19.160  32.081  13.170
67016W        W38545  42.119  13.772  11.924
67017W        W38546   4.930  24.603   2.656
67018W        W38547  34.611   6.364  10.505
67019W        W38548  42.018  16.796   0.347
67020W        W38549  21.065  35.440  12.167
67021W        W38550  23.745  10.394  12.621
67022W        W38551  20.175   9.290  12.288
67023W        W38552  13.009   0.785   0.686
67024W        W38553  25.116  14.215   2.417
67025W        W38554   3.447  25.573   4.586
67026W        W38555  12.853   4.936  12.953
67027W        W38556  32.231  24.535   4.782
67028W        W38557   6.808  39.876  13.828
67029W        W38558  44.491  22.554  12.659
67030W        W38559   8.867  22.446  12.451
67031W        W38560   0.171  35.620  14.775
67032W        W38561  25.152  41.345   0.382
67033W        W38562   4.807  32.614   1.524
67034W        W38563  18.521   1.800   4.245
67035W        W38564  22.640  10.678   1.212
67036W        W38565  25.689  20.453   3.956
67037W        W38566   4.279  41.251   2.381
67038W        W38567  36.863  28.584  13.972
67039W        W38568  15.676  37.949  11.303
67040W        W38569  17.978  10.213   1.971
67041W        W38570  41.470  12.032   4.220
67042W        W38571  17.765  23.568   1.616
67043W        W38572  18.681  13.197   4.636
67044W        W38573  30.911   6.660   3.634
67045W        W38574  41.281  33.443  13.413
67046W        W38575   1.870  12.423  14.752
67047W        W38576   6.864   3.614  11.052
67048W        W38577  39.672  17.315  14.059
67049W        W38578  30.108  16.569  13.627
67050W        W38579  34.833   0.477  13.935
67051W        W38580   9.070  43.164   4.086
67052W        W38581  27.394  40.884   1.679
67053W        W38582  10.291  21.599   2.121
67054W        W38583  25.970  37.318   4.577
67055W        W38584  37.949  40.829   4.458
67056W        W38585  43.485   6.765   4.048
67057W        W38586   9.933  25.665  12.072
67058W        W38587  17.007  10.278  10.812
67059W        W38588   8.981   6.385  12.337
67060W        W38589  19.632  16.605   3.990
67061W        W38590  27.937  33.953  14.826
67062W        W38591  18.639   1.556  13.396
67063W        W38592  41.408  34.941   0.727
67064W        W38593  27.584  38.065   3.258
67065W        W38594   6.857  24.487   3.968
67066W        W38595  41.844  17.123   3.028
67067W        W38596   5.211  30.514   4.067
67068W        W38597  27.407   6.343   0.010
67069W        W38598  38.306  31.134   3.759
67070W        W38599  27.958  19.630   0.921
67071W        W38600  32.076  42.163   1.235
67072W        W38601  18.829  41.599  14.797
67073W        W38602  39.381  18.113   4.520
67074W        W38603  23.973  16.119   0.909
67075W        W38604  44.915  14.093   1.690
67076W        W38605  25.497   6.424  11.397
67077W        W38606  32.278  31.689  10.831
67078W        W38607  41.726  16.242   1.207
67079W        W38608  20.733  11.192   3.656
67080W        W38609   2.955   6.612  12.794
67081W        W38610   9.461  19.807   2.370
67082W        W38611  27.229  21.095   0.923
67083W        W38612  43.529  33.406   3.754
67084W        W38613  11.077   2.764  10.630
67085W        W38614  17.488  27.453   4.420
67086W        W38615  23.319  16.311  14.891
67087W        W38616  15.956  19.555  10.256
67088W        W38617   6.638  32.554  10.701
67089W        W38618  41.974  33.813  11.130
67090W        W38619  30.001  19.023   1.249
67091W        W38620   4.224  14.129  14.942
67092W        W38621  31.611   7.364   2.096
67093W        W38622  33.718  32.359   5.084
67094W        W38623  39.914   3.375   1.957
67095W        W38624  10.314   1.979   2.963
67096W        W38625   1.005  41.697   3.734
67097W        W38626  44.292  42.481   1.270
67098W        W38627  39.395   7.459   3.689
67099W        W38628   6.149   1.322   3.669
67100W        W38629   7.828  22.510   4.889
67101W        W38630  14.117   8.704  11.896
67102W        W38631  39.771  32.187   3.414
67103W        W38632  12.795  39.006   4.450
67104W        W38633  24.192  17.334   0.392
67105W        W38634  12.168  34.905   0.533
67106W        W38635   4.112  16.519   1.023
67107W        W38636   7.421  39.435  14.573
67108W        W38637  36.866  35.983   1.697
67109W        W38638   7.817   3.958  11.222
67110W        W38639   6.454  12.695  12.524
67111W        W38640  17.691  21.822   3.958
67112W        W38641  44.036  32.085  12.470
67113W        W38642  39.890  22.683   1.240
67114W        W38643  28.526  20.797   1.259
67115W        W38644  42.688  21.080   4.464
67116W        W38645   8.727  16.917  12.357
67117W        W38646   8.285  14.305  14.792
67118W        W38647  16.042  22.604  12.039
67119W        W38648   1.757   7.021  10.879
67120W        W38649  37.943  38.518  13.143
67121W        W38650  16.165  10.750  10.116
67122W        W38651  43.783  33.955  12.234
67123W        W38652   1.290  30.405   2.756
67124W        W38653  34.199  21.137  11.591
67125W        W38654  14.145  17.974  13.443
67126W        W38655   4.002  38.548  14.969
67127W        W38656   6.998  41.068  11.042
67128W        W38657  21.210  39.498  11.092
67129W        W38658  34.074   2.219  14.942
67130W        W38659  11.318   8.318  10.946
67131W        W38660  40.720  26.999  13.668
67132W        W38661  11.154  22.276  11.284
67133W        W38662  34.937   7.325  10.676
67134W        W38663  18.970  19.102  10.707
67135W        W38664  23.132  19.848   2.439
67136W        W38665   2.880  31.640  10.695
67137W        W38666  15.299  25.486  12.411
67138W        W38667   1.276   9.764  12.050
67139W        W38668  33.075  11.978  10.961
67140W        W38669   6.178  42.843  11.171
67141W        W38670   7.329   5.827  12.203
67142W        W38671  27.123  25.863  12.980
67143W        W38672  30.390  12.802   1.822
67144W        W38673  34.861  32.677  14.473
67145W        W38674  19.890  41.166   1.840
67146W        W38675  18.846   5.428  13.951
67147W        W38676  28.131  40.472  11.997
67148W        W38677   8.140  42.642   2.317
67149W        W38678  14.733  14.266  11.970
67150W        W38679   5.777   9.228  12.346
67151W        W38680  33.561  22.998  12.006
67152W        W38681  24.478  39.505   1.930
67153W        W38682  24.208  35.294   4.976
67154W        W38683  22.479  36.840   4.666
67155W        W38684   5.715   1.528   0.845
67156W        W38685  43.824   2.370   3.679
67157W        W38686  28.051  20.574   1.355
67158W        W38687  33.826  10.312  12.870
67159W        W38688  25.637   3.296   0.257
67160W        W38689  29.073  33.148  13.975
67161W        W38690  31.423  36.428   2.122
67162W        W38691   8.409  42.602  12.588
67163W        W38692  24.016  15.820   0.216
67164W        W38693  22.026  39.635   0.232
67165W        W38694  15.415  30.090   3.355
67166W        W38695   9.782   0.457  11.620
67167W        W38696  27.994  32.629   1.365
67168W        W38697  28.666   6.420   3.315
67169W        W38698   1.275  42.923   0.673
67170W        W38699   2.970  28.598   2.277
67171W        W38700  30.351  43.628  12.034
67172W        W38701  35.715  23.239   4.914
67173W        W38702   0.256  15.657  13.457
67174W        W38703  24.116  37.296   0.266
67175W        W38704   7.875   4.074  11.708
67176W        W38705  13.667  35.087   3.530
67177W        W38706   1.750   9.177   2.068
67178W        W38707  37.523  11.031   4.240
67179W        W38708  30.523  44.410  10.149
67180W        W38709  35.275  25.018  12.104
67181W        W38710  18.145   5.875   1.921
67182W        W38711  14.620  18.484   4.665
67183W        W38712  22.302  29.010  12.550
67184W        W38713  35.502  14.607  13.434
67185W        W38714  25.185  24.912   4.724
67186W        W38715  15.207  20.556   3.179
67187W        W38716  12.456  33.008   4.635
67188W        W38717  15.361  22.263   5.079
67189W        W38718  26.742  22.669   0.082
67190W        W38719  40.466  13.617   3.504
67191W        W38720   0.317  24.222   0.339
67192W        W38721  37.159  10.120  13.316
67193W        W38722   6.429  33.570   1.254
67194W        W38723  20.759  30.424   2.444
67195W        W38724  10.801  43.436   5.511
67196W        W38725  40.573  29.965   3.854
67197W        W38726   0.636  27.565  12.267
67198W        W38727  35.434   9.195  14.324
67199W        W38728   5.341  16.154  11.282
67200W        W38729   5.141  34.099   4.260
67201W        W38730  19.964  44.775  12.041
67202W        W38731  38.639   4.906  14.835
67203W        W38732  17.586  15.115  13.465
67204W        W38733  11.459   4.267  13.416
67205W        W38734  13.445   1.726   3.756
67206W        W38735   2.777  21.228  12.977
67207W        W38736  40.275  22.246  13.128
67208W        W38737  38.494  31.242  14.513
67209W        W38738  28.042  20.828   3.131
67210W        W38739  38.546  28.142  14.033
67211W        W38740  39.675  40.013   3.684
67212W        W38741   7.892   1.439   4.147
67213W        W38742  14.688  33.352  10.957
67214W        W38743  43.191   6.492   3.647
67215W        W38744   4.268  40.663  11.239
67216W        W38745  25.968  35.989   1.496
67217W        W38746  43.731  28.713   0.675
67218W        W38747  33.772  37.501  10.702
67219W        W38748  42.854   0.248   2.865
67220W        W38749  34.852   8.449   5.075
67221W        W38750  34.165   0.386   0.786
67222W        W38751  21.271  33.654  12.100
67223W        W38752   7.120  15.650  10.999
67224W        W38753   4.892  38.544  12.860
67225W        W38754  41.284  30.565  10.950
67226W        W38755  29.944  20.973   3.174
67227W        W38756   0.950  38.990  10.596
67228W        W38757  28.670  12.911  13.615
67229W        W38758  12.824  12.042  13.909
67230W        W38759   1.541  21.745   0.049
67231W        W38760  24.588  25.648  12.671
67232W        W38761   9.172  25.332  11.974
67233W        W38762  41.793  31.982   1.193
67234W        W38763  11.453  21.553   0.913
67235W        W38764  37.023  39.612   2.807
67236W        W38765  19.984  33.368  12.418
67237W        W38766  34.791  33.657  10.674
67238W        W38767  41.812  14.302   2.280
67239W        W38768  16.866  28.066  11.385
67240W        W38769  22.296  22.091   0.480
67241W        W38770  20.829   7.283   2.410
67242W        W38771  12.789  11.659   0.693
67243W        W38772  44.030  19.191   2.241
67244W        W38773  17.247  28.688  11.645
67245W        W38774  38.026  41.371   3.113
67246W        W38775   8.214  33.186   1.459
67247W        W38776   7.451  42.467   3.640
67248W        W38777  15.622  20.221   1.237
67249W        W38778  43.503  28.053  14.268
67250W        W38779  40.332  32.618   4.377
67251W        W38780  24.030  20.940  10.724
67252W        W38781  24.108   9.086  13.628
67253W        W38782  13.852  43.456  13.373
67254W        W38783  22.855   4.673   0.454
67255W        W38784  15.959  11.962   9.511
67256W        W38785  20.601   9.782  14.295
67257W        W38786  35.351  26.275   1.181
67258W        W38787  26.143  27.487  14.994
67259W        W38788   4.191  17.859   1.158
67260W        W38789  36.888   3.491  13.513
67261W        W38790  41.979  41.336   2.304
67262W        W38791   1.934   6.270   4.507
67263W        W38792  37.532  43.696  13.657
67264W        W38793  29.585  31.875  11.099
67265W        W38794  28.019  42.012   4.867
67266W        W38795  18.195  18.186  13.746
67267W        W38796   2.634  12.424  11.128
67268W        W38797  26.002  41.557  10.672
67269W        W38798  21.681  28.528   2.700
67270W        W38799  16.759  32.074  13.496
67271W        W38800  12.956  31.471  11.838
67272W        W38801   3.538   5.043  13.508
67273W        W38802  33.398  17.706  12.967
67274W        W38803   7.063   0.559   1.338
67275W        W38804  24.132  40.952  11.013
67276W        W38805  33.492  41.914   2.918
67277W        W38806   9.347  19.424  11.943
67278W        W38807  31.159   9.197  10.613
67279W        W38808   0.524  14.661  13.996
67280W        W38809  21.855  15.130   4.664
67281W        W38810   6.057  20.176   3.102
67282W        W38811  34.227   5.757   3.161
67283W        W38812  37.579  43.386   0.022
67284W        W38813   4.717  42.473   4.560
67285W        W38814  27.618  28.979   0.378
67286W        W38815  16.171  35.619  11.154
67287W        W38816  30.877  27.191  13.098
67288W        W38817  29.111  40.541   3.341
67289W        W38818  31.887   6.069   4.867
67290W        W38819  41.833   8.155  11.922
67291W        W38820  23.052  20.026  10.781
67292W        W38821  13.934   4.310  14.883
67293W        W38822  36.770  10.440  13.453
67294W        W38823   0.008  13.204   0.021
67295W        W38824  33.363  34.457  11.161
67296W        W38825  28.119  39.202  11.567
67297W        W38826  22.065   1.837   3.917
67298W        W38827  13.708   2.347   1.362
67299W        W38828  26.019  37.540   1.300
67300W        W38829   4.144  10.896  10.951
67301W        W38830   7.268  15.960   1.820
67302W        W38831   7.141  36.316   4.205
67303W        W38832  40.849  43.495  12.847
67304W        W38833  31.544  27.138  13.877
67305W        W38834  23.974  24.013  13.984
67306W        W38835  26.099  22.896  13.876
67307W        W38836   8.664  43.443   4.877
67308W        W38837  21.556   8.314  10.645
67309W        W38838  43.475  21.175   2.664
67310W        W38839  41.064  25.077   4.492
67311W        W38840  27.037  42.235  12.607
67312W        W38841  15.827  10.352  10.199
67313W        W38842   8.781   1.413   4.575
67314W        W38843  39.310  22.265   0.792
67315W        W38844  44.577  30.423  11.530
67316W        W38845  23.676  12.436   0.247
67317W        W38846  21.517  29.105   0.257
67318W        W38847  11.171  15.705   3.246
67319W        W38848  39.345  31.086  13.131
67320W        W38849  10.650  36.203   1.216
67321W        W38850  10.322   7.729   3.920
67322W        W38851  11.218  25.896  14.840
67323W        W38852  20.336  40.105  11.205
67324W        W38853  27.519   0.923  12.813
67325W        W38854  30.646  33.166  11.186
67326W        W38855  37.342  22.641   0.779
67327W        W38856   9.679  30.135  11.901
67328W        W38857   2.370  14.708  12.253
67329W        W38858  40.932  34.872   2.753
67330W        W38859  19.797  38.144  12.828
67331W        W38860   7.930  23.580  11.511
67332W        W38861  10.063  32.733  11.252
67333W        W38862  21.434  10.867   1.798
67334W        W38863  30.313  22.002  11.215
67335W        W38864  27.149  27.235   2.221
67336W        W38865   2.325  37.011  13.240
67337W        W38866  33.064  29.114   4.387
67338W        W38867  36.050   1.875   3.117
67339W        W38868   7.465  40.854   0.707
67340W        W38869  31.648   7.479  10.450
67341W        W38870  30.502  14.718   1.436
67342W        W38871  37.986  37.356   2.770
67343W        W38872  17.625  15.027  14.880
67344W        W38873  31.639  18.151   1.254
67345W        W38874  20.673   3.842   4.160
67346W        W38875  37.741  26.520  14.557
67347W        W38876  19.276  22.294  11.051
67348W        W38877  14.700  21.718   0.835
67349W        W38878  39.475  29.943   1.676
67350W        W38879   4.155   0.681   2.342
67351W        W38880  35.458   3.684  11.396
67352W        W38881  40.838  19.975   4.596
67353W        W38882  32.748  27.189   4.218
67354W        W38883  38.890   7.375  10.327
67355W        W38884  22.601  23.790   4.517
67356W        W38885  36.444  25.735  11.790
67357W        W38886   3.385  21.363  10.467
67358W        W38887  33.155  22.742  13.904
67359W        W38888  12.071  41.811   4.790
67360W        W38889  21.061  25.252  12.881
67361W        W38890  11.745  43.762  14.397
67362W        W38891  15.961  23.124   3.270
67363W        W38892   9.795  10.956  12.359
67364W        W38893  40.821  28.682   4.649
67365W        W38894  19.329  14.890  14.469
67366W        W38895  32.639  19.596  14.364
67367W        W38896   4.371  15.796  13.976
67368W        W38897  16.757  36.326   3.157
67369W        W38898  36.394  38.310  14.767
67370W        W38899   8.546  11.697  13.293
67371W        W38900  11.554  37.867  14.508
67372W        W38901  31.502  29.544   1.738
67373W        W38902   1.278  44.285   0.397
67374W        W38903  19.283  12.047  14.063
67375W        W38904  28.070  24.676   4.160
67376W        W38905   2.173  37.897  13.536
67377W        W38906   9.968  31.106   1.466
67378W        W38907  28.632  18.313   0.812
67379W        W38908  29.078  30.541  12.951
67380W        W38909  23.606   4.881  12.436
67381W        W38910  20.944  36.853   1.302
67382W        W38911  19.133  22.999   2.174
67383W        W38912  16.167  35.661   3.888
67384W        W38913  31.135  43.392  11.699
67385W        W38914  19.475  37.800   2.170
67386W        W38915  31.916  37.987   2.651
67387W        W38916  39.332  20.583  12.986
67388W        W38917  12.363  26.271  11.068
67389W        W38918   3.282  28.453   3.674
67390W        W38919  10.204  40.736   0.034
67391W        W38920  32.287   5.397  10.752
67392W        W38921  31.645  15.236  14.843
67393W        W38922  27.251  31.642  11.936
67394W        W38923  39.044   1.088   5.275
67395W        W38924   7.617  25.257   2.209
67396W        W38925  38.500   1.600   0.233
67397W        W38926  39.915  10.373  11.420
67398W        W38927  19.122   1.053   4.117
67399W        W38928  35.301  22.185   4.098
67400W        W38929   1.430   2.196   4.226
67401W        W38930   7.753  35.002   3.565
67402W        W38931  11.093  19.484  12.475
67403W        W38932  27.022  22.040  11.661
67404W        W38933  28.651  12.631  14.941
67405W        W38934  39.855   5.420   0.138
67406W        W38935   1.906  35.468   3.841
67407W        W38936  10.568  38.865  10.240
67408W        W38937  13.384  10.197  14.367
67409W        W38938  13.250  14.544   1.279
67410W        W38939  12.776  23.587  14.345
67411W        W38940  40.824  13.188   2.219
67412W        W38941  23.462  28.975   0.931
67413W        W38942   0.400  38.052   0.470
67414W        W38943  37.372  14.055  10.748
67415W        W38944  35.448  29.777   5.046
67416W        W38945  20.147   8.735  14.917
67417W        W38946   8.900  29.700  12.438
67418W        W38947  12.695  34.404   1.713
67419W        W38948  43.422  37.788   1.934
67420W        W38949   4.084  17.027  10.284
67421W        W38950  31.360  31.229  14.877
67422W        W38951   2.854  22.153  13.394
67423W        W38952  36.143  42.222  12.544
67424W        W38953  36.516  18.187  13.517
67425W        W38954   3.438  20.068  12.501
67426W        W38955  42.651  41.585  11.951
67427W        W38956  24.689  10.949  14.428
67428W        W38957  31.057  36.984   4.167
67429W        W38958  17.283  35.628   0.013
67430W        W38959  20.173  28.923   4.135
67431W        W38960  32.019   1.317   4.619
67432W        W38961  32.568  21.045   0.680
67433W        W38962  29.993  37.278   2.706
67434W        W38963   1.924  33.440  13.323
67435W        W38964  18.061  13.856   4.583
67436W        W38965  17.962  30.463   3.004
67437W        W38966  36.943   7.209  11.872
67438W        W38967  27.545  17.687   4.279
67439W        W38968  19.585  28.051   1.492
67440W        W38969  26.143  15.272  14.943
67441W        W38970  41.939  16.007   0.689
67442W        W38971  20.152   4.754   1.731
67443W        W38972  11.822  12.676  13.035
67444W        W38973   9.611   8.178  11.240
67445W        W38974  20.227  13.508  11.224
67446W        W38975  29.063  43.470  12.785
67447W        W38976  25.227  15.288  14.827
67448W        W38977  37.636  15.573   2.773
67449W        W38978  27.746   9.598  12.007
67450W        W38979  30.301   8.863   0.721
67451W        W38980  14.056   0.222   4.673
67452W        W38981  11.907  32.635  10.718
67453W        W38982  16.573  32.492  10.955
67454W        W38983  32.734   9.654  12.535
67455W        W38984  31.661   5.952  12.994
67456W        W38985   0.405   8.616   0.501
67457W        W38986  23.519  28.096  14.367
67458W        W38987  44.692  27.508   1.223
67459W        W38988  10.174   1.418   2.225
67460W        W38989  24.943  39.274   1.341
67461W        W38990  32.759  13.155  14.898
67462W        W38991  10.727  11.670  11.937
67463W        W38992  43.229  44.967  13.507
67464W        W38993   1.556  30.929  12.829
67465W        W38994  25.260  12.642  13.451
67466W        W38995   6.222  15.179   0.678
67467W        W38996  39.238  38.321  14.412
67468W        W38997  28.986  41.211  13.932
67469W        W38998  37.358  27.179   3.750
67470W        W38999   3.417  12.930  11.810
67471W        W39000  25.873  11.618  10.852
67472W        W39001  17.246  22.427  12.426
67473W        W39002  21.936   7.936  13.482
67474W        W39003   6.273  19.658   3.287
67475W        W39004  25.940  10.157  10.245
67476W        W39005  33.506   3.211   0.194
67477W        W39006  38.485  35.575  14.956
67478W        W39007  19.110  10.817   0.374
67479W        W39008  27.218  31.429   3.414
67480W        W39009   7.354  28.867   3.931
67481W        W39010  16.641  22.716   5.589
67482W        W39011  15.737  20.775  14.425
67483W        W39012  32.153  29.188   2.312
67484W        W39013   7.289  30.155   4.130
67485W        W39014  11.415  30.709  11.104
67486W        W39015  28.322  17.955  11.562
67487W        W39016  28.152  33.378   0.880
67488W        W39017   7.117   0.721   0.424
67489W        W39018   7.314  28.418   4.903
67490W        W39019  37.468  25.194  12.801
67491W        W39020  44.415  29.549  11.709
67492W        W39021  40.247  41.313  12.660
67493W        W39022   0.173  16.499   4.516
67494W        W39023  13.945  44.091  14.486
67495W        W39024  21.598  41.297   5.063
67496W        W39025  43.244  41.727   3.359
67497W        W39026   7.971   0.962   3.033
67498W        W39027  23.121  33.334   1.199
67499W        W39028  29.516  27.205  11.534
67500W        W39029  30.268  44.759  12.639
67501W        W39030  29.656  43.434   4.614
67502W        W39031  14.619   1.663  11.615
67503W        W39032   9.398  24.388   2.906
67504W        W39033  44.813  43.551   2.295
67505W        W39034   2.909   3.099   3.639
67506W        W39035  12.442  27.935   2.365
67507W        W39036  42.394  25.159   2.634
67508W        W39037   1.348  39.635   0.822
67509W        W39038  42.256   2.316  14.816
67510W        W39039  39.860  17.159   2.760
67511W        W39040  30.562  38.866   1.787
67512W        W39041  26.076   3.464  13.887
67513W        W39042   0.519  40.288  12.410
67514W        W39043   9.952  23.945  13.174
67515W        W39044  14.584  12.726   4.550
67516W        W39045  26.669  26.987  12.524
67517W        W39046   7.270  25.440  12.107
67518W        W39047  32.856  40.821  11.828
67519W        W39048  12.628  36.423   4.099
67520W        W39049  34.966  21.046  13.105
67521W        W39050   4.369  33.513   0.333
67522W        W39051  22.377  41.180  13.470
67523W        W39052  25.017  15.430   0.309
67524W        W39053  15.430  28.150   5.233
67525W        W39054  16.800  42.074  11.379
67526W        W39055  26.590  25.910   3.710
67527W        W39056  40.533  25.446  14.903
67528W        W39057   5.427  26.617  10.256
67529W        W39058  40.219  40.419   1.975
67530W        W39059  37.017   8.704   2.437
67531W        W39060   9.324  29.672  12.095
67532W        W39061  27.398  42.292  11.807
67533W        W39062   8.696  18.317  12.825
67534W        W39063  30.014  21.465   4.122
67535W        W39064  25.710  38.498  13.354
67536W        W39065  28.001  26.041  11.410
67537W        W39066  39.855  38.777   4.071
67538W        W39067  13.825   7.684  12.784
67539W        W39068   7.725  22.259  12.918
67540W        W39069  22.087  20.990  12.504
67541W        W39070  33.606  16.280  12.330
67542W        W39071  17.925   3.752   3.529
67543W        W39072  26.921  19.295  10.803
67544W        W39073   5.005  22.010  10.397
67545W        W39074  16.080   0.885  13.960
67546W        W39075  20.565   0.479  14.732
67547W        W39076  40.559  12.135  14.252
67548W        W39077  26.546   1.333   4.472
67549W        W39078  32.039  17.794  14.060
67550W        W39079  23.735  35.608  11.580
67551W        W39080   4.363   8.224  14.504
67552W        W39081  14.371   4.868  12.949
67553W        W39082  33.599   7.411   5.022
67554W        W39083  23.753  41.586   3.655
67555W        W39084   5.446  42.177   3.361
67556W        W39085  22.043  20.759  14.820
67557W        W39086  16.657  23.186  14.883
67558W        W39087   1.407  20.657  11.074
67559W        W39088  16.956  22.989   2.253
67560W        W39089  39.928  10.334  11.923
67561W        W39090  24.902  27.207   1.980
67562W        W39091  21.128   0.526  13.646
67563W        W39092  15.283  21.963   1.558
67564W        W39093   0.165   1.665  13.506
67565W        W39094  30.571  16.738   0.317
67566W        W39095  28.132   4.482   3.223
67567W        W39096  31.919  11.657  13.399
67568W        W39097  28.197   4.975  14.890
67569W        W39098   3.672  20.722  14.236
67570W        W39099  40.099  27.219   2.165
67571W        W39100  12.259  37.438  14.337
67572W        W39101  37.664   5.680   3.201
67573W        W39102  30.666  29.419  13.049
67574W        W39103  28.206   8.216  12.544
67575W        W39104   5.458  16.752   0.003
67576W        W39105  27.386  25.985   0.365
67577W        W39106   0.995  33.660  13.383
67578W        W39107   3.252  17.498  13.657
67579W        W39108  18.004  14.605  11.024
67580W        W39109  36.716   0.280   4.437
67581W        W39110  34.102   4.489  14.207
67582W        W39111  42.207  34.129  14.376
67583W        W39112   5.684  38.763   4.150
67584W        W39113   4.710  10.106  13.934
67585W        W39114  12.240  14.163   0.713
67586W        W39115  33.194  28.002   2.840
67587W        W39116  38.394  25.048  12.867
67588W        W39117  24.256  18.656  12.599
67589W        W39118   9.725  25.638   5.016
67590W        W39119  32.287  34.444  14.330
67591W        W39120  25.210  20.559   4.162
67592W        W39121   8.437  42.020  13.878
67593W        W39122  36.935  14.290   4.149
67594W        W39123  32.983  41.994  11.897
67595W        W39124  23.536  33.344  14.950
67596W        W39125  36.868   5.904  11.556
67597W        W39126   7.622   3.794   2.795
67598W        W39127  19.135   1.493   0.862
67599W        W39128   8.748  32.024  10.326
67600W        W39129  44.647  43.110  12.490
67601W        W39130   3.772  26.226  13.512
67602W        W39131  22.088   6.429   4.651
67603W        W39132  40.968  23.244  11.691
67604W        W39133   1.679   0.817   0.897
67605W        W39134  26.233  10.667   3.013
67606W        W39135  28.074  10.162  12.261
67607W        W39136   7.945  42.066   2.709
67608W        W39137  31.093  44.684   1.264
67609W        W39138  40.879  30.197   1.156
67610W        W39139  29.656  43.918   1.991
67611W        W39140  35.846  17.502   2.691
67612W        W39141  14.748  42.993  13.824
67613W        W39142  32.442   5.745  14.982
67614W        W39143  25.054  42.870   4.396
67615W        W39144  29.716  25.248   3.260
67616W        W39145  32.275   6.133   1.780
67617W        W39146   9.188  12.930  11.938
67618W        W39147  33.637   6.781  14.468
67619W        W39148  22.054   8.176   4.295
67620W        W39149   4.734  36.030   4.552
67621W        W39150  40.621  31.581  12.411
67622W        W39151  30.164  31.416   3.760
67623W        W39152   4.836   6.877  11.411
67624W        W39153   5.806   4.238   4.557
67625W        W39154   2.697  13.734   1.735
67626W        W39155  27.462  28.074  14.378
67627W        W39156   2.904  26.051  14.775
67628W        W39157  16.794  39.117  12.859
67629W        W39158   5.962   0.964   1.494
67630W        W39159  26.887   3.790   3.775
67631W        W39160  30.532  20.756  12.963
67632W        W39161  27.961  30.895   0.875
67633W        W39162  23.700  41.094   2.260
67634W        W39163  33.695   5.803   3.262
67635W        W39164  41.404  40.827   4.993
67636W        W39165   7.116  16.593   3.427
67637W        W39166  32.106  14.542  14.996
67638W        W39167  31.494  37.567  11.372
67639W        W39168   8.753  40.585   0.457
67640W        W39169  10.753  21.168  13.975
67641W        W39170  25.656  32.220  11.941
67642W        W39171   6.726  21.728   5.148
67643W        W39172   5.855  33.706   4.398
67644W        W39173   8.441  41.773  11.552
67645W        W39174  34.187   6.833  12.134
67646W        W39175  41.244  41.346  12.333
67647W        W39176  34.041  11.023  11.148
67648W        W39177  27.295  26.744   2.118
67649W        W39178  15.188   7.872   5.530
67650W        W39179  26.839  33.555  13.181
67651W        W39180  27.489  24.967  11.907
67652W        W39181   4.184  39.607  11.975
67653W        W39182  17.563  23.635   0.699
67654W        W39183   3.307  33.922   4.160
67655W        W39184  38.956  15.281   3.307
67656W        W39185   7.239  13.990  11.140
67657W        W39186  29.147  18.198   0.770
67658W        W39187  10.513  11.324   0.933
67659W        W39188  30.001  17.602   2.310
67660W        W39189  43.821  17.680  12.063
67661W        W39190  33.304  13.684   0.424
67662W        W39191  31.680  37.735  12.914
67663W        W39192  43.442  14.779   1.290
67664W        W39193  39.009  21.674   2.761
67665W        W39194   8.730  32.683   1.442
67666W        W39195  26.481   9.999  12.918
67667W        W39196   8.210  12.162  14.395
67668W        W39197  10.864  13.344  11.589
67669W        W39198   9.984  25.914   3.665
67670W        W39199  16.180  40.209  14.829
67671W        W39200  10.575  40.314   0.333
67672W        W39201  36.832  34.121  10.642
67673W        W39202  42.370  20.475   1.729
67674W        W39203  36.955  34.447  11.791
67675W        W39204  26.224  22.512   3.129
67676W        W39205   1.794   9.912   1.283
67677W        W39206  23.873   4.423   1.574
67678W        W39207   5.735  24.391   2.869
67679W        W39208  11.140  19.105   2.271
67680W        W39209  38.077  21.338   2.607
67681W        W39210  39.319  26.605   1.733
67682W        W39211   7.960  21.534   2.371
67683W        W39212   5.452  18.150   3.169
67684W        W39213  42.062  34.746  10.751
67685W        W39214  19.578  17.857   4.106
67686W        W39215  28.206   7.318   2.461
67687W        W39216  30.377  41.576  14.446
67688W        W39217  30.573  10.613   0.993
67689W        W39218  41.962  16.572  14.881
67690W        W39219  40.830  19.381  12.512
67691W        W39220   8.097  32.287  13.384
67692W        W39221   0.824  39.027   1.840
67693W        W39222  44.949  44.987  14.099
67694W        W39223  39.459   7.077   1.781
67695W        W39224  16.003   8.119   2.614
67696W        W39225  30.006  19.204   3.810
67697W        W39226   7.579  16.224   1.204
67698W        W39227   3.171   6.347   3.362
67699W        W39228   4.663  34.747  14.755
67700W        W39229  15.363  32.373   4.789
67701W        W39230   0.339  44.536  10.701
67702W        W39231  43.021  42.931   3.160
67703W        W39232  25.924  44.393  14.365
67704W        W39233   1.739  37.625  14.839
67705W        W39234   9.744  26.853  14.073
67706W        W39235   6.456   5.301  14.229
67707W        W39236   7.665  19.580   0.033
67708W        W39237  10.464  35.608  12.488
67709W        W39238   7.865  16.218   0.756
67710W        W39239  16.935  38.380   4.620
67711W        W39240  28.579  21.053   0.259
67712W        W39241   7.287  36.239   4.727
67713W        W39242  24.178  22.967   0.889
67714W        W39243  35.850   7.186  14.946
67715W        W39244  33.087  18.078  12.377
67716W        W39245   9.381   1.199  14.833
67717W        W39246  38.397  40.065  14.447
67718W        W39247   3.306  17.652   2.796
67719W        W39248  14.205  27.940  11.257
67720W        W39249   6.754  12.539   1.375
67721W        W39250  24.743  40.794  12.932
67722W        W39251   5.323  38.869   4.514
67723W        W39252  10.266   0.278  13.410
67724W        W39253  10.239   2.514  11.042
67725W        W39254   1.180  13.139   1.391
67726W        W39255  40.062  14.791   0.685
67727W        W39256  29.195  18.658   1.744
67728W        W39257  14.306  23.068  10.675
67729W        W39258  10.638  21.154   0.403
67730W        W39259   9.391   7.606  14.482
67731W        W39260  25.699   5.785  14.482
67732W        W39261  13.933   8.446  11.502
67733W        W39262   5.338  24.609  12.029
67734W        W39263  38.467  42.430  13.495
67735W        W39264  10.385  29.379  12.865
67736W        W39265  11.695  26.647  10.512
67737W        W39266  44.374   8.881  13.838
67738W        W39267   0.494  27.250  14.222
67739W        W39268   8.440  25.544   1.787
67740W        W39269   9.056   1.950   0.420
67741W        W39270  23.549  44.036   4.035
67742W        W39271  35.825  13.587  11.168
67743W        W39272  19.998  37.428  14.828
67744W        W39273  37.606  32.985  13.445
67745W        W39274  41.029  44.040  10.751
67746W        W39275  13.642   0.562  12.852
67747W        W39276  18.742   4.410  13.802
67748W        W39277  31.151  40.952   4.582
67749W        W39278  37.599  38.843   5.167
67750W        W39279  11.716   6.672  10.641
67751W        W39280  25.076   6.975  14.960
67752W        W39281  23.126  31.499   3.093
67753W        W39282  41.390  27.409   4.133
67754W        W39283  18.781  44.224   3.340
67755W        W39284  35.746  35.859  13.431
67756W        W39285  18.987  38.945   1.943
67757W        W39286  24.773  41.525  12.590
67758W        W39287  28.875  33.014  11.211
67759W        W39288  41.060   5.813  13.460
67760W        W39289  39.020  40.728   0.747
67761W        W39290   5.904  44.709   0.387
67762W        W39291   8.787  43.961  11.409
67763W        W39292   0.405  15.133   0.769
67764W        W39293  44.985  15.671   3.800
67765W        W39294  36.031  21.498   4.602
67766W        W39295  27.702   0.457   0.820
67767W        W39296   8.143  41.587  14.344
67768W        W39297  24.935  40.918  10.615
67769W        W39298  14.772   4.871   0.668
67770W        W39299  43.734  21.777  12.083
67771W        W39300  32.206  21.736  12.876
67772W        W39301  14.972   7.676  11.157
67773W        W39302  41.815  17.081   3.544
67774W        W39303   7.340   6.406   4.611
67775W        W39304  21.058  14.561  13.009
67776W        W39305  43.347  32.529  11.379
67777W        W39306  36.295   7.569   9.771
67778W        W39307  12.593  32.722  11.468
67779W        W39308  11.235  34.999   2.209
67780W        W39309  23.410   3.864   2.268
67781W        W39310   2.820  42.280   4.556
67782W        W39311  29.929  27.791   3.316
67783W        W39312   5.915  28.141  13.843
67784W        W39313  17.656  38.948   1.146
67785W        W39314  14.329  25.999   1.444
67786W        W39315   1.437  25.145   0.885
67787W        W39316  32.581   8.855  14.059
67788W        W39317  15.488  42.236   0.503
67789W        W39318  26.451  19.742   3.821
67790W        W39319  21.695   8.445  11.492
67791W        W39320  34.566   5.394   2.440
67792W        W39321  35.003  26.179   1.591
67793W        W39322  39.243  43.923  14.844
67794W        W39323   4.558   5.481   0.270
67795W        W39324  26.532  39.282  14.867
67796W        W39325  29.359  44.490  14.083
67797W        W39326  23.372  16.805   0.885
67798W        W39327  24.527  10.239  13.084
67799W        W39328  35.656   8.801   3.246
67800W        W39329  39.916  21.553   4.708
67801W        W39330  40.075  35.605  12.450
67802W        W39331  34.689  15.752   4.691
67803W        W39332  25.376  30.488   2.801
67804W        W39333  24.592   9.484  12.455
67805W        W39334   6.324  22.228   4.066
67806W        W39335  28.440  24.681  13.348
67807W        W39336   4.830  42.319  14.971
67808W        W39337  14.209  41.937   3.562
67809W        W39338  34.405  28.471   1.151
67810W        W39339  34.572   0.490  13.392
67811W        W39340  40.077  15.419   2.099
67812W        W39341  33.872   3.665  11.970
67813W        W39342  18.562  11.324   2.254
67814W        W39343  15.819  16.182   1.282
67815W        W39344  40.159  29.496  13.585
67816W        W39345  32.580  14.348   3.413
67817W        W39346  26.206  43.257   1.253
67818W        W39347  12.087   3.845  14.878
67819W        W39348  34.451  38.923   4.515
67820W        W39349  15.620  25.947  13.038
67821W        W39350  20.750  24.755  14.535
67822W        W39351  36.918  19.690   3.028
67823W        W39352  34.092   1.355  12.530
67824W        W39353  13.298   7.588   0.657
67825W        W39354   8.041  11.735  14.028
67826W        W39355  17.284  16.753  14.535
67827W        W39356  35.643   6.897  12.873
67828W        W39357   0.996  26.238  14.441
67829W        W39358  27.137  15.578   4.758
67830W        W39359  10.754   6.942   1.274
67831W        W39360   3.280  20.550   3.780
67832W        W39361  44.026  25.245  14.391
67833W        W39362  18.949   9.209   4.723
67834W        W39363  25.388   3.611   4.576
67835W        W39364  28.861  24.090   1.300
67836W        W39365  14.495  38.501   0.990
67837W        W39366  20.454  43.578   0.479
67838W        W39367   3.216   0.831  11.929
67839W        W39368  32.242  16.943  14.775
67840W        W39369  17.205  40.894   0.892
67841W        W39370  34.663  16.239   0.926
67842W        W39371  31.663  43.142   2.860
67843W        W39372  22.198  38.704   3.542
67844W        W39373   0.468  11.418  11.115
67845W        W39374  40.416  43.346   1.758
67846W        W39375  27.201  14.178  12.491
67847W        W39376  19.201  30.184  13.859
67848W        W39377  37.720  24.681  14.947
67849W        W39378  43.046   5.958   3.624
67850W        W39379  39.109  16.242   0.849
67851W        W39380  14.073  22.198  12.765
67852W        W39381  26.135   2.352  12.479
67853W        W39382  15.610  44.283  11.155
67854W        W39383  23.619  38.944   0.000
67855W        W39384  16.172  34.177  14.994
67856W        W39385  31.006  42.313  11.195
67857W        W39386  16.663   8.216   4.304
67858W        W39387  42.380   2.051   4.210
67859W        W39388  39.898  14.662  11.151
67860W        W39389  21.427  12.917  13.087
67861W        W39390  12.581  11.723   3.298
67862W        W39391  25.256  21.992   3.829
67863W        W39392  39.383  40.950   1.614
67864W        W39393  25.205  43.374   4.638
67865W        W39394  37.558  16.502   2.467
67866W        W39395  10.338  27.167   1.881
67867W        W39396  31.001   1.468  14.484
67868W        W39397  41.300  17.965  14.495
67869W        W39398  15.196   5.872  13.384
67870W        W39399  11.246  12.901   0.909
67871W        W39400  40.939   7.653  12.908
67872W        W39401   2.422  16.360   1.917
67873W        W39402   1.008  20.137   0.268
67874W        W39403   7.705  31.195  12.491
67875W        W39404  28.187  33.979  12.826
67876W        W39405  38.075  30.971  12.052
67877W        W39406  22.276  19.230  13.587
67878W        W39407   8.289   2.495   0.672
67879W        W39408  24.156  25.448   4.138
67880W        W39409  39.538  32.409   1.308
67881W        W39410  23.044   3.893   1.886
67882W        W39411   0.667   3.849   3.216
67883W        W39412   6.454  21.502  14.446
67884W        W39413  43.195  42.863  10.653
67885W        W39414  15.304  43.863  11.748
67886W        W39415  32.458  16.841  11.998
67887W        W39416  42.389  21.034   2.936
67888W        W39417  31.241   0.460  11.454
67889W        W39418  29.973  10.882  14.845
67890W        W39419  15.745  13.607  13.709
67891W        W39420  38.471  32.554  13.143
67892W        W39421  25.675  43.229  12.052
67893W        W39422  28.996  31.026  12.139
67894W        W39423   0.307  18.425  14.256
67895W        W39424  30.878  31.054   3.609
67896W        W39425   7.859   0.412   2.344
67897W        W39426  41.507  42.864   4.892
67898W        W39427  19.673   5.149  10.390
67899W        W39428  41.331   6.206  10.392
67900W        W39429  39.185   6.213   2.968
67901W        W39430   2.012   8.733   2.172
67902W        W39431   4.533  10.678   1.957
67903W        W39432   0.480   6.117   3.627
67904W        W39433   5.916  32.099   1.418
67905W        W39434   9.115  40.441  13.599
67906W        W39435  14.084  25.549   0.800
67907W        W39436  15.625  11.402  14.841
67908W        W39437   3.799  24.988  14.793
67909W        W39438   6.279  27.072   0.379
67910W        W39439  27.809  33.067   3.738
67911W        W39440  16.602  38.988  14.764
67912W        W39441   3.418   5.174  11.694
67913W        W39442  31.005  11.642   4.764
67914W        W39443  43.522  44.683   1.403
67915W        W39444   3.976   1.460  11.838
67916W        W39445  35.588  41.586  12.059
67917W        W39446   0.361  24.146  12.019
67918W        W39447  20.093  33.333   3.177
67919W        W39448  13.259   5.272  10.476
67920W        W39449  27.662  40.330  12.519
67921W        W39450   7.914  27.561  13.017
67922W        W39451  33.018  44.553   3.962
67923W        W39452  17.706  22.266   2.014
67924W        W39453  35.490  28.512  11.183
67925W        W39454  43.420  21.198  12.059
67926W        W39455  21.724   8.445   2.083
67927W        W39456  18.524   5.706   2.296
67928W        W39457  20.450  37.450  13.060
67929W        W39458   9.317  34.102   1.315
67930W        W39459  41.620  39.800   1.463
67931W        W39460  26.852   8.802  11.612
67932W        W39461  17.377  33.321  11.336
67933W        W39462  18.592   5.226  13.455
67934W        W39463  15.298  16.625  12.013
67935W        W39464   8.830  12.680   3.294
67936W        W39465  21.158  33.852   3.774
67937W        W39466   5.610  12.957  13.406
67938W        W39467  28.431  31.194  14.999
67939W        W39468  18.663  24.228   4.045
67940W        W39469   6.789  27.652  14.618
67941W        W39470  29.636  35.585   3.448
67942W        W39471  18.635  24.670  12.619
67943W        W39472   4.666  33.449   3.308
67944W        W39473  17.047  20.614   1.290
67945W        W39474   4.703  25.593   1.185
67946W        W39475  28.567   8.656   4.915
67947W        W39476  31.670  22.243  10.726
67948W        W39477  10.671  17.605   0.477
67949W        W39478  24.660  16.680  14.908
67950W        W39479  44.360  26.997   1.955
67951W        W39480  34.018  26.251  11.594
67952W        W39481  43.313  23.866  12.591
67953W        W39482  31.987  10.126  13.245
67954W        W39483  43.922  28.215   1.860
67955W        W39484   8.146  24.780  10.588
67956W        W39485  24.548  33.970  14.410
67957W        W39486  13.271  27.490  13.029
67958W        W39487  29.136  10.841  14.250
67959W        W39488  30.498  33.052   0.772
67960W        W39489  24.952   1.330   1.545
67961W        W39490  39.088   2.334   4.251
67962W        W39491  10.767  30.502   1.922
67963W        W39492   0.162  16.845   4.140
67964W        W39493  41.180  21.771   4.079
67965W        W39494  40.609  11.433   0.766
67966W        W39495   8.111  40.583  13.512
67967W        W39496  26.102  22.183  12.148
67968W        W39497  17.906  22.789   4.142
67969W        W39498  20.448  40.288   2.802
67970W        W39499  23.774  24.566   2.946
67971W        W39500  43.231  39.498   4.605
67972W        W39501   7.459  18.314   3.667
67973W        W39502  23.515  18.854   1.346
67974W        W39503  13.574  41.910  10.689
67975W        W39504  21.532  43.405  10.624
67976W        W39505   7.816  35.516  11.694
67977W        W39506  17.759  39.261  11.452
67978W        W39507  33.499  10.856  13.869
67979W        W39508  11.353  36.074   4.382
67980W        W39509  38.486  33.381   4.537
67981W        W39510  30.918  44.686  14.914
67982W        W39511  12.767   9.642   4.283
67983W        W39512  17.489  22.060  12.674
67984W        W39513  37.231  29.566  13.354
67985W        W39514  13.689  36.895  12.421
67986W        W39515  37.288   0.120  11.229
67987W        W39516  34.987  22.809  13.012
67988W        W39517  25.023   7.422  11.544
67989W        W39518  19.449  11.017  12.163
67990W        W39519  26.721   4.517   0.775
67991W        W39520  33.577  36.453   1.708
67992W        W39521  12.542  43.056  11.609
67993W        W39522  14.679  14.205   5.077
67994W        W39523  14.066   3.331   4.209
67995W        W39524  34.784  11.701  14.222
67996W        W39525  39.357  19.601   1.292
67997W        W39526   6.652  23.566   0.790
67998W        W39527  16.873   1.356  14.972
67999W        W39528  33.396  31.458   4.588
68000W        W39529   8.644  11.894   2.245
68001W        W39530  24.491  21.800   1.801
68002W        W39531  41.856  10.323   0.488
68003W        W39532  41.078  29.512  13.070
68004W        W39533  28.815  15.283   4.566
68005W        W39534  16.789  22.762   2.886
68006W        W39535  33.588   2.440  14.675
68007W        W39536  35.828  23.192   3.266
68008W        W39537  27.236  15.143   5.594
68009W        W39538   9.850  18.785  12.426
68010W        W39539   2.611  43.956   3.763
68011W        W39540  18.323  31.704   3.170
68012W        W39541  27.420  37.345  11.053
68013W        W39542  19.258  27.215   4.112
68014W        W39543   7.698  17.212  10.736
68015W        W39544   3.368  35.019   3.351
68016W        W39545  16.791  43.449   3.366
68017W        W39546  23.526  15.254  14.474
68018W        W39547  31.060  17.591  12.030
68019W        W39548  22.450   3.543  11.498
68020W        W39549  17.580  39.617  12.374
68021W        W39550   5.136  18.714   2.031
68022W        W39551   2.804  40.923  11.492
68023W        W39552  33.317  23.491  14.872
68024W        W39553  32.609  28.865   4.481
68025W        W39554  13.633  42.865   0.408
68026W        W39555  37.748  38.132   1.112
68027W        W39556   7.218   2.420   1.839
68028W        W39557  26.338  35.019  12.255
68029W        W39558   1.565  14.932   1.616
68030W        W39559  36.425   3.383   1.861
68031W        W39560  39.039  17.403   4.110
68032W        W39561  20.670  20.728   1.230
68033W        W39562   3.267  37.328   1.474
68034W        W39563  15.202  39.146   0.783
68035W        W39564  31.726  32.137  14.901
68036W        W39565   5.980   3.867   0.958
68037W        W39566   0.748  11.112   3.379
68038W        W39567  12.672  13.253   0.389
68039W        W39568   1.398   1.853  10.621
68040W        W39569   5.802  33.119   0.310
68041W        W39570  29.868  42.046   1.976
68042W        W39571  23.141  10.817  11.756
68043W        W39572  29.152  18.542  10.782
68044W        W39573  38.634  30.537  13.125
68045W        W39574  16.838  25.624  14.829
68046W        W39575  38.531  41.996  11.619
68047W        W39576  30.519  32.858   2.314
68048W        W39577   0.294  19.114  14.966
68049W        W39578  10.198   8.824  13.694
68050W        W39579  15.137  16.250   2.362
68051W        W39580  33.832  42.531  10.427
68052W        W39581  28.138  21.004  13.432
68053W        W39582  41.714  27.073  13.365
68054W        W39583   0.313   8.056  13.475
68055W        W39584  21.039  16.074   1.662
68056W        W39585  20.212  34.191   2.854
68057W        W39586  38.321  36.359   2.623
68058W        W39587  10.155   8.131   2.781
68059W        W39588  25.601   1.442  14.811
68060W        W39589  18.943  42.471   0.805
68061W        W39590  33.917  12.085   1.437
68062W        W39591  15.319  44.258  13.712
68063W        W39592  26.952  40.935   2.791
68064W        W39593  41.956  42.431  13.240
68065W        W39594   0.860   7.146  11.140
68066W        W39595  38.426  44.544  13.245
68067W        W39596  37.881  22.525   2.867
68068W        W39597  30.040  41.311  14.806
68069W        W39598  40.304  37.173   3.113
68070W        W39599  18.135  17.136   2.815
68071W        W39600  39.319  24.599   0.990
68072W        W39601   4.048  18.867   3.396
68073W        W39602   5.814  19.299   2.167
68074W        W39603  34.561  28.911   1.366
68075W        W39604  30.404  18.389   2.258
68076W        W39605  28.012   0.011  11.997
68077W        W39606  42.714  28.726   1.712
68078W        W39607  26.635  44.200  13.504
68079W        W39608  33.951  34.271   1.825
68080W        W39609  10.121  42.111  12.649
68081W        W39610   3.277  19.626  11.639
68082W        W39611  23.552  40.822   4.147
68083W        W39612  28.887  38.982   4.408
68084W        W39613  22.163  19.043  14.907
68085W        W39614   5.980  39.829  10.733
68086W        W39615   3.815  11.309  10.936
68087W        W39616  14.769  40.481   0.963
68088W        W39617  29.603  33.812  10.244
68089W        W39618  14.821  19.570  11.090
68090W        W39619  37.437   4.637   3.914
68091W        W39620   3.009  18.013   3.120
68092W        W39621  29.555  42.942   4.026
68093W        W39622  14.121  21.192  13.974
68094W        W39623  24.977  14.025  14.388
68095W        W39624   3.773  39.441   3.279
68096W        W39625  18.099   0.394   4.743
68097W        W39626   2.872  15.080   1.423
68098W        W39627   3.650  13.763  12.029
68099W        W39628   4.221  33.292   1.231
68100W        W39629  26.784  18.183  11.306
68101W        W39630  25.291  21.121   0.620
68102W        W39631  26.670  44.091  11.248
68103W        W39632   1.802   6.763  14.351
68104W        W39633  10.690  17.973  14.401
68105W        W39634  13.820   8.683   5.252
68106W        W39635  19.728  10.579   2.603
68107W        W39636  42.056  36.934  13.399
68108W        W39637  27.957  43.945   2.269
68109W        W39638  10.632  29.906  12.173
68110W        W39639  34.595  21.311   1.673
68111W        W39640  34.360   6.263   0.047
68112W        W39641  23.503  19.227   0.992
68113W        W39642  36.914  19.594  11.663
68114W        W39643   9.949   3.783   1.725
68115W        W39644  36.249  29.524   1.430
68116W        W39645  44.222   8.919  11.170
68117W        W39646  30.534   5.824  14.875
68118W        W39647   7.239  12.268  12.459
68119W        W39648  20.005  37.824  11.097
68120W        W39649  20.659  39.885  12.642
68121W        W39650  13.321  10.654   0.407
68122W        W39651  26.604  27.210  13.847
68123W        W39652  12.707  30.870  13.046
68124W        W39653  41.903   4.627   2.664
68125W        W39654  18.947  19.222   3.048
68126W        W39655  41.075  20.650  11.902
68127W        W39656  39.766  19.010   1.670
68128W        W39657   9.898   7.530   4.237
68129W        W39658   4.382   7.494   3.620
68130W        W39659  20.699   3.146  11.022
68131W        W39660  15.264  37.803  14.813
68132W        W39661   4.249  22.295  13.471
68133W        W39662   6.202  20.701   4.225
68134W        W39663   8.408  12.963   2.762
68135W        W39664  30.078  37.501  10.473
68136W        W39665  14.326  39.830  12.927
68137W        W39666   4.594  29.113   4.108
68138W        W39667  40.459   4.193   0.021
68139W        W39668  20.108  17.285  13.126
68140W        W39669   7.192   0.351   4.678
68141W        W39670   6.922  13.691   4.582
68142W        W39671   4.477  16.747   2.472
68143W        W39672  34.574  39.550  11.272
68144W        W39673  20.926  21.508  10.993
68145W        W39674  24.489  32.123   2.273
68146W        W39675   9.690  11.698   0.462
68147W        W39676  36.327  29.596  14.405
68148W        W39677  35.034   0.509   1.269
68149W        W39678  33.938  22.558  12.020
68150W        W39679   7.221  25.497   1.916
68151W        W39680  19.361   8.826  12.396
68152W        W39681  17.783   0.539  11.511
68153W        W39682  40.423  43.362   3.056
68154W        W39683  29.358  36.133   4.037
68155W        W39684  41.954  16.991   0.819
68156W        W39685   8.151  23.666   4.075
68157W        W39686   3.348  16.302   2.698
68158W        W39687  13.931  29.402   4.980
68159W        W39688  32.919  33.379  14.252
68160W        W39689  13.886  24.504   3.792
68161W        W39690   6.968   0.494   2.268
68162W        W39691  31.845  34.985   1.434
68163W        W39692  16.314   2.013  13.102
68164W        W39693   3.571   7.001   2.903
68165W        W39694   7.407  17.735  13.869
68166W        W39695   9.045  41.326   4.286
68167W        W39696   0.997  15.922  12.757
68168W        W39697  30.019  41.108  13.786
68169W        W39698  14.339  28.236  14.826
68170W        W39699  28.867  13.663   3.626
68171W        W39700  21.708  39.998  12.900
68172W        W39701  37.018  39.147   2.155
68173W        W39702  35.987  25.173  12.983
68174W        W39703  24.634  28.087  14.249
68175W        W39704   0.489   1.725  13.927
68176W        W39705  27.132   2.687  14.432
68177W        W39706   1.752   0.734   3.513
68178W        W39707  13.887   7.447  13.509
68179W        W39708  14.042  22.644   3.572
68180W        W39709  36.419  35.939   0.087
68181W        W39710   9.136  24.524   1.105
68182W        W39711  21.202  44.349  10.538
68183W        W39712   7.402  14.312  14.748
68184W        W39713   2.017  40.822  14.348
68185W        W39714   5.809  28.118  11.387
68186W        W39715   3.760  37.864   3.225
68187W        W39716  13.848  34.485   4.551
68188W        W39717  31.232   8.473   1.540
68189W        W39718  33.392  25.285   1.476
68190W        W39719  27.283   1.715   0.353
68191W        W39720  21.756   0.548   2.943
68192W        W39721   5.196   2.319   0.738
68193W        W39722  38.096  41.067  13.085
68194W        W39723  35.959  40.912   2.338
68195W        W39724   9.342  26.672  13.128
68196W        W39725  18.830  40.513   2.264
68197W        W39726  17.205   8.897  10.990
68198W        W39727  28.132  18.250   2.099
68199W        W39728  26.904  31.050  10.513
68200W        W39729   1.635  40.541   2.624
68201W        W39730  20.255  35.079  10.549
68202W        W39731   6.881  10.358  13.352
68203W        W39732  13.755  18.986   3.498
68204W        W39733  26.748  41.904   1.790
68205W        W39734  41.893   2.266   0.203
68206W        W39735  42.252   1.432   1.675
68207W        W39736  18.113  11.305   1.298
68208W        W39737  14.677  24.180   5.360
68209W        W39738  17.547  16.172   4.124
68210W        W39739   5.281  33.954  11.407
68211W        W39740  35.146  44.361  11.535
68212W        W39741  25.058   0.576   0.921
68213W        W39742  35.133  16.238  14.859
68214W        W39743  33.532  37.534  14.742
68215W        W39744  39.844  38.820   0.373
68216W        W39745  13.584  34.583   3.552
68217W        W39746  43.700   2.852  14.971
68218W        W39747  35.517  34.384   1.030
68219W        W39748  18.132  11.832  12.892
68220W        W39749   8.354  21.489  11.165
68221W        W39750  15.192   4.375  14.016
68222W        W39751  19.815   4.275  10.663
68223W        W39752  35.172  37.807  13.167
68224W        W39753   8.636   7.388   3.078
68225W        W39754  36.383  44.941   1.763
68226W        W39755  24.590  35.664  10.529
68227W        W39756   5.886  33.610  13.440
68228W        W39757  42.923  39.986   1.188
68229W        W39758  38.478  38.585  10.337
68230W        W39759  32.769   1.748   4.733
68231W        W39760  40.918  18.634   3.539
68232W        W39761  16.704  17.471   0.788
68233W        W39762  21.744  40.553   2.347
68234W        W39763  26.955   1.819   2.345
68235W        W39764   1.878   8.899  12.620
68236W        W39765   5.240  21.086   4.699
68237W        W39766  27.103  22.679  14.376
68238W        W39767   9.795  37.069  11.072
68239W        W39768   0.384  16.713   0.471
68240W        W39769  44.893  19.138   3.758
68241W        W39770  30.167  24.212  12.832
68242W        W39771   5.173  36.482   2.854
68243W        W39772  39.120  31.401   1.003
68244W        W39773   3.821  11.502   1.090
68245W        W39774  26.733  16.018   1.807
68246W        W39775  31.104  43.722  10.866
68247W        W39776  18.046   7.313   0.524
68248W        W39777  35.867  18.760   1.429
68249W        W39778  34.874  39.751   1.893
68250W        W39779  28.231  26.242   0.704
68251W        W39780  14.100  31.837   1.349
68252W        W39781  37.021   9.903  11.011
68253W        W39782  42.555  21.523  12.944
68254W        W39783  34.083  27.434  12.568
68255W        W39784   9.331  35.064   4.153
68256W        W39785  28.202  27.415   4.664
68257W        W39786  12.624  35.351   3.608
68258W        W39787   5.771  19.161  12.837
68259W        W39788  25.507   0.519  13.463
68260W        W39789  29.149   3.374   3.747
68261W        W39790  14.055  40.259   0.380
68262W        W39791   9.318  36.548  13.442
68263W        W39792  25.969  17.024  11.135
68264W        W39793  23.095  11.217   2.484
68265W        W39794  38.567   3.367  11.553
68266W        W39795  28.489  15.556   3.182
68267W        W39796  38.541  13.683   4.434
68268W        W39797   1.214  13.676  11.508
68269W        W39798  35.430  44.981   3.293
68270W        W39799  29.159  13.964   0.885
68271W        W39800  19.551  30.242   3.737
68272W        W39801   6.831   2.393  13.336
68273W        W39802  43.582   7.010   0.872
68274W        W39803  32.335  29.962  11.689
68275W        W39804  15.594  33.038   0.445
68276W        W39805  19.811  35.558   4.368
68277W        W39806  25.214  10.683   1.401
68278W        W39807  18.877  18.673  12.583
68279W        W39808  22.285  43.653   0.280
68280W        W39809  13.375  30.478   9.795
68281W        W39810   2.367   4.373   3.621
68282W        W39811  23.767   1.913   2.896
68283W        W39812   8.365  29.059  13.874
68284W        W39813  36.566  11.945   1.929
68285W        W39814  38.553  27.135  11.566
68286W        W39815   8.830   4.236  11.016
68287W        W39816   9.682   3.403   3.397
68288W        W39817  19.032  18.481   0.327
68289W        W39818   7.326  22.597   1.333
68290W        W39819   9.296  30.888   3.204
68291W        W39820  13.889  22.902  11.702
68292W        W39821   8.754  35.341  12.089
68293W        W39822  18.384  16.811  13.307
68294W        W39823  21.924  39.375   3.104
68295W        W39824  28.065  15.332  12.445
68296W        W39825  10.796  34.244  12.815
68297W        W39826   5.894  14.550   1.504
68298W        W39827  13.079   5.287  14.738
68299W        W39828  22.076  33.853  13.082
68300W        W39829  44.360  14.092  12.857
68301W        W39830   9.856  38.701   0.845
68302W        W39831  13.514  32.421  13.478
68303W        W39832  27.881  39.906  14.850
68304W        W39833   1.895  36.670  11.255
68305W        W39834  32.102  31.073  12.012
68306W        W39835  18.804  13.083  12.953
68307W        W39836  23.130  18.755   2.166
68308W        W39837  38.235  42.579  14.009
68309W        W39838  15.834   3.642  11.547
68310W        W39839  25.498  16.752  12.144
68311W        W39840   0.421  16.760   0.980
68312W        W39841  15.760  15.578   2.341
68313W        W39842  22.910   2.777   1.324
68314W        W39843   9.805  37.523   2.171
68315W        W39844  25.037  29.500  11.234
68316W        W39845  33.344  13.642  13.667
68317W        W39846  42.934  43.991  12.536
68318W        W39847  30.603  27.956   0.205
68319W        W39848  40.012  44.470   2.903
68320W        W39849  33.519  12.899   3.814
68321W        W39850  39.323  26.457   1.187
68322W        W39851   9.674  35.836   0.368
68323W        W39852  36.504  43.559   0.986
68324W        W39853  37.473   4.461  10.757
68325W        W39854  22.153   0.678   3.277
68326W        W39855  31.597   5.733   4.186
68327W        W39856   8.934  15.800  11.120
68328W        W39857  43.158  12.251  10.770
68329W        W39858  21.532  20.266  12.497
68330W        W39859  10.230  44.547   0.268
68331W        W39860  25.067  16.601  13.782
68332W        W39861  18.307  10.890   2.444
68333W        W39862  10.255  38.080  12.469
68334W        W39863  37.651  24.030  12.075
68335W        W39864   1.869  20.913   2.360
68336W        W39865  31.994  24.718   1.376
68337W        W39866   4.421  13.813  11.169
68338W        W39867  27.977   3.049  13.315
68339W        W39868  25.391   5.696  14.071
68340W        W39869  33.003  20.083   4.837
68341W        W39870  30.529  35.172  12.479
68342W        W39871   5.409  34.446   3.895
68343W        W39872  40.936  24.732  13.796
68344W        W39873  22.741  25.555  13.934
68345W        W39874  17.073  42.910  12.947
68346W        W39875   0.259   0.472   0.254
68347W        W39876  38.696   7.263   4.185
68348W        W39877  12.585  32.461   2.807
68349W        W39878  13.550   0.317   1.336
68350W        W39879  12.570  43.834   1.151
68351W        W39880  12.714  27.211   0.407
68352W        W39881  19.538  34.391  13.078
68353W        W39882  35.856  17.752   3.184
68354W        W39883   6.725  35.083   2.666
68355W        W39884  41.496   6.825  14.675
68356W        W39885  23.442  15.782  13.194
68357W        W39886  22.480  19.684   3.501
68358W        W39887  22.488   6.750  13.399
68359W        W39888  27.691  12.049   0.731
68360W        W39889  35.436  34.902   0.929
68361W        W39890  25.125   1.185   4.123
68362W        W39891   9.577   9.133  11.153
68363W        W39892  41.110  43.822  14.963
68364W        W39893  32.219  31.940  13.474
68365W        W39894  18.333   9.972  10.231
68366W        W39895  33.567  18.565   0.862
68367W        W39896  34.135  36.454  11.937
68368W        W39897  32.570  20.605   0.993
68369W        W39898  35.144  39.752  10.194
68370W        W39899  10.232  17.586   4.314
68371W        W39900  14.376  13.039  14.329
68372W        W39901  37.946  37.586   3.271
68373W        W39902  10.859   1.700   5.737
68374W        W39903  16.443  41.892   4.112
68375W        W39904  15.564   5.040  13.514
68376W        W39905  21.481  42.447   5.253
68377W        W39906  24.769  13.912  11.079
68378W        W39907  35.905  37.335  14.881
68379W        W39908  15.618  18.944  13.504
68380W        W39909  16.535  12.960  10.958
68381W        W39910  34.940  25.742  11.894
68382W        W39911  30.770  21.323   0.846
68383W        W39912  30.584  29.964   1.752
68384W        W39913   8.753   7.239  14.112
68385W        W39914   7.609  38.885  11.675
68386W        W39915  13.078  37.413   3.267
68387W        W39916  28.680  12.276   0.932
68388W        W39917   6.475  35.529  10.247
68389W        W39918  26.681  16.585   2.670
68390W        W39919  37.984   6.079  13.217
68391W        W39920  29.775  18.910   2.642
68392W        W39921  44.903  42.557  13.002
68393W        W39922  36.137  30.229  11.653
68394W        W39923  31.553  39.009  13.497
68395W        W39924  31.949   9.352  14.567
68396W        W39925  43.099  35.389  14.475
68397W        W39926  20.642  30.596   0.929
68398W        W39927  13.824  28.578  10.608
68399W        W39928  13.381  18.553   0.658
68400W        W39929  39.271  20.210   3.124
68401W        W39930  24.794  31.181   0.627
68402W        W39931  41.985  28.172  14.314
68403W        W39932  23.891  40.188   4.887
68404W        W39933  19.965  14.510  11.245
68405W        W39934  40.010   5.382   1.439
68406W        W39935  14.432  44.717   2.329
68407W        W39936   3.214  38.255  12.000
68408W        W39937  11.744  35.881   3.634
68409W        W39938  39.422   6.707   0.553
68410W        W39939  35.471   0.489   3.377
68411W        W39940  35.373  30.584  12.904
68412W        W39941  16.666  35.355   4.620
68413W        W39942  13.240  25.603   3.712
68414W        W39943  24.172  33.239   1.978
68415W        W39944  19.261  24.021  13.002
68416W        W39945  26.619  11.665  13.414
68417W        W39946  10.743  15.603  12.080
68418W        W39947  22.608  18.793   3.921
68419W        W39948  17.358  12.936  12.902
68420W        W39949   8.499   1.462  10.509
68421W        W39950  39.775  24.488   1.919
68422W        W39951   6.257   7.545  13.882
68423W        W39952  14.176  39.333   4.849
68424W        W39953   4.737  43.410   4.575
68425W        W39954   6.522  12.344  10.618
68426W        W39955   3.525  17.572   0.478
68427W        W39956  19.407   0.952  11.031
68428W        W39957  33.547   3.390   5.057
68429W        W39958  35.098  17.157  12.126
68430W        W39959  15.557  19.064  14.003
68431W        W39960  23.505   5.762  14.433
68432W        W39961  11.768  17.726   3.647
68433W        W39962  14.861  17.412   0.330
68434W        W39963  23.122  14.015  13.564
68435W        W39964  35.910  17.637  11.565
68436W        W39965  26.145   5.174  12.919
68437W        W39966  44.002  32.314  14.067
68438W        W39967   9.440  23.644   3.634
68439W        W39968   8.754  41.036   0.205
68440W        W39969  17.329  33.032  13.303
68441W        W39970  27.348  29.713  12.537
68442W        W39971   6.567  11.451   1.406
68443W        W39972   0.207  18.175   2.353
68444W        W39973   9.639  29.073  13.381
68445W        W39974  33.027  44.192   3.573
68446W        W39975  32.507   0.521  13.594
68447W        W39976  12.117  40.264   0.436
68448W        W39977  31.373   3.925  13.003
68449W        W39978  35.119  12.520   4.118
68450W        W39979  42.693  18.021   3.256
68451W        W39980   1.527  36.269  10.696
68452W        W39981  13.188  38.807  12.928
68453W        W39982   3.771  40.875   3.262
68454W        W39983  21.566  23.151   1.720
68455W        W39984  19.697  41.260   2.346
68456W        W39985  19.784  20.010   2.433
68457W        W39986  26.890  32.595  10.679
68458W        W39987  17.671   9.182  13.563
68459W        W39988  12.352  23.317  13.435
68460W        W39989  21.696   7.252  10.976
68461W        W39990  21.051  15.712  12.182
68462W        W39991  26.913   2.079   1.905
68463W        W39992  12.112  38.124   1.261
68464W        W39993   2.738  16.838   0.736
68465W        W39994   7.899   8.165  14.441
68466W        W39995  21.712  40.570   0.254
68467W        W39996  42.815  44.797   3.345
68468W        W39997   6.480  29.017   0.450
68469W        W39998  10.622  16.766   1.888
68470W        W39999  11.293   1.779   0.733
68471W        W40000  18.244   8.118  12.136
68472W        W40001  13.810   5.469   3.247
68473W        W40002   8.354  43.216   0.009
68474W        W40003  33.335  14.872   2.359
68475W        W40004  19.140  10.112   4.135
68476W        W40005  43.459  41.137  11.891
68477W        W40006  35.147  32.547   0.726
68478W        W40007  16.749  17.537  11.952
68479W        W40008  14.463  35.114   3.922
68480W        W40009  11.301  41.321   4.339
68481W        W40010   3.853   8.309   0.381
68482W        W40011  11.625  26.000   4.683
68483W        W40012  23.574  35.867   3.091
68484W        W40013  18.074  41.828   3.373
68485W        W40014   4.157   1.488   3.778
68486W        W40015   2.254  10.290  11.851
68487W        W40016  37.675   7.586  14.260
68488W        W40017  19.989  28.592   2.310
68489W        W40018   3.503   6.739   4.267
68490W        W40019  43.278  31.369   2.829
68491W        W40020   7.687  18.447   2.199
68492W        W40021  30.982   0.368  12.781
68493W        W40022  30.533  36.647   1.739
68494W        W40023  14.187  19.589  14.466
68495W        W40024  10.313   8.184  13.513
68496W        W40025  33.280  32.480  13.350
68497W        W40026  20.820  43.854   1.449
68498W        W40027  33.569  28.948  14.971
68499W        W40028   1.529   5.355  11.371
68500W        W40029  12.353  40.293  14.421
68501W        W40030  31.826  23.160  13.483
68502W        W40031  23.014  30.826  13.273
68503W        W40032  27.478  27.622   2.366
68504W        W40033   0.723  21.082  13.242
68505W        W40034  17.775  33.814   0.964
68506W        W40035  33.051   9.914  12.871
68507W        W40036  17.144  42.870   4.419
68508W        W40037   6.388  26.804   0.814
68509W        W40038  40.516   5.298   3.322
68510W        W40039   5.706  10.250  13.867
68511W        W40040  27.749  19.496  14.715
68512W        W40041  18.305   7.199   4.244
68513W        W40042  18.273   6.315   1.587
68514W        W40043  37.078  28.917   3.906
68515W        W40044  26.867  10.120   3.378
68516W        W40045  36.469  40.210   4.575
68517W        W40046   8.007  12.217   3.669
68518W        W40047   6.776  10.215   2.446
68519W        W40048  20.829  17.851   4.046
68520W        W40049   4.127  17.116   2.409
68521W        W40050  37.360  27.798   5.249
68522W        W40051   7.753  39.017   0.883
68523W        W40052   1.555  43.452   1.386
68524W        W40053  17.242  41.333   3.364
68525W        W40054  42.396  18.221  12.983
68526W        W40055  12.785  29.316  11.230
68527W        W40056  30.197  21.637  14.040
68528W        W40057  38.066  31.827  11.147
68529W        W40058   4.946  42.531   2.395
68530W        W40059   7.424   9.846   3.686
68531W        W40060  22.248  19.803   2.704
68532W        W40061  35.937  23.674   0.316
68533W        W40062  34.844  29.643  12.442
68534W        W40063  17.816   9.876   0.981
68535W        W40064  21.595  13.809   2.796
68536W        W40065  29.010  10.733  14.735
68537W        W40066  25.197   3.527   1.047
68538W        W40067  37.041  15.806   0.549
68539W        W40068  21.001  43.434   1.198
68540W        W40069  42.801  32.007  11.930
68541W        W40070  41.502   6.019  11.245
68542W        W40071  28.137  18.372  11.796
68543W        W40072   8.215  28.413  12.517
68544W        W40073  33.612  14.296  14.449
68545W        W40074  25.098   4.736  11.611
68546W        W40075  24.677   3.939  13.328
68547W        W40076   5.498  13.784  11.223
68548W        W40077   0.424  13.873   2.710
68549W        W40078  14.782   5.421  13.792
68550W        W40079   3.114  28.712   4.778
68551W        W40080  15.342   3.899   0.230
68552W        W40081  15.408  43.495  13.328
68553W        W40082   8.265   0.293   4.553
68554W        W40083  17.559  36.550   2.667
68555W        W40084  19.261  40.282   3.874
68556W        W40085  27.701  24.907  10.494
68557W        W40086   5.087  22.281   2.655
68558W        W40087  43.966  36.033   3.425
68559W        W40088   7.208  26.212   0.250
68560W        W40089  31.618  39.750   0.985
68561W        W40090  17.195   6.733   4.998
68562W        W40091  33.345  13.386   4.022
68563W        W40092   6.630   6.302  12.115
68564W        W40093   0.959  39.989   2.681
68565W        W40094   9.062  11.660  14.902
68566W        W40095  29.754  29.207  10.365
68567W        W40096  37.427  44.579  12.430
68568W        W40097  23.631   2.647   3.573
68569W        W40098   2.284   8.414   3.124
68570W        W40099  15.020  42.330   2.704
68571W        W40100   4.851  40.633  12.055
68572W        W40101   1.492   8.255  14.229
68573W        W40102  14.602   2.380  14.989
68574W        W40103  14.720  16.216  14.900
68575W        W40104   1.909  26.054  12.211
68576W        W40105  43.644  39.407  11.103
68577W        W40106   2.741  24.179   3.599
68578W        W40107   1.583  15.996   1.478
68579W        W40108  14.279  21.363   2.212
68580W        W40109   6.141  28.011  14.309
68581W        W40110  41.345   8.607   2.710
68582W        W40111   5.734   8.931  11.923
68583W        W40112  21.779   7.018   3.192
68584W        W40113  22.974  17.380   4.482
68585W        W40114   5.538  33.170   0.810
68586W        W40115  18.565  28.491   2.800
68587W        W40116   8.188  24.004  13.103
68588W        W40117  38.320  43.718   3.122
68589W        W40118  17.326   7.908  11.193
68590W        W40119  15.413  21.525  11.454
68591W        W40120  15.030  42.984  11.056
68592W        W40121  44.912   9.668  13.433
68593W        W40122  42.568  10.886  11.981
68594W        W40123  33.610  39.537  14.001
68595W        W40124  38.213  27.528   2.104
68596W        W40125  23.387  27.073  10.630
68597W        W40126  30.280  13.782  11.573
68598W        W40127  13.133  39.273  13.131
68599W        W40128  32.510  30.695   4.056
68600W        W40129  44.168  19.592  13.046
68601W        W40130   1.918   5.865  10.562
68602W        W40131  21.527   4.289  13.517
68603W        W40132  23.988  41.469  12.930
68604W        W40133   7.680  24.120   1.932
68605W        W40134  10.767  36.400   0.693
68606W        W40135   9.265  33.438   0.089
68607W        W40136  25.761  26.061  11.601
68608W        W40137  28.358  25.609   4.414
68609W        W40138  24.047   4.252  10.741
68610W        W40139  39.524   2.511  12.804
68611W        W40140  19.333  21.650  13.491
68612W        W40141  35.721  21.196   2.288
68613W        W40142  25.082  20.869   3.171
68614W        W40143  42.988  42.269  14.469
68615W        W40144  11.551  38.975   1.213
68616W        W40145  24.199  31.244  13.500
68617W        W40146  30.138  30.042  11.664
68618W        W40147  41.309  32.716  12.480
68619W        W40148  11.584  24.171  14.262
68620W        W40149   6.176  11.327  14.703
68621W        W40150  34.974  42.030  11.461
68622W        W40151  11.833  36.355  10.625
68623W        W40152   0.936  38.012  12.038
68624W        W40153  31.065   9.099  14.225
68625W        W40154  15.709  11.824  13.210
68626W        W40155  27.211   4.250  14.851
68627W        W40156   1.358  41.539  14.082
68628W        W40157  34.072  43.362   4.635
68629W        W40158   8.655  12.394   0.311
68630W        W40159  35.592  27.660  14.162
68631W        W40160  38.419  36.830   2.888
68632W        W40161  17.334  30.248   2.456
68633W        W40162  43.745   7.810   0.511
68634W        W40163   2.500  19.252  11.795
68635W        W40164  28.248  33.041  14.367
68636W        W40165  20.232  10.666   2.766
68637W        W40166  20.526  22.000   0.395
68638W        W40167  33.064  42.466  12.153
68639W        W40168  18.630  32.490   4.859
68640W        W40169  16.471  29.043   2.151
68641W        W40170  26.083   8.629   1.389
68642W        W40171  39.486  27.450   2.780
68643W        W40172  41.976  37.296  11.907
68644W        W40173   4.504  18.003  11.909
68645W        W40174   4.505  34.513   4.299
68646W        W40175  32.904  16.817  12.639
68647W        W40176   0.292  44.513  12.858
68648W        W40177  10.627  43.026   0.703
68649W        W40178   4.951   3.667   4.742
68650W        W40179  25.273  10.365   1.804
68651W        W40180  17.065  17.785   3.913
68652W        W40181  33.107  43.696   4.443
68653W        W40182  24.203  39.580  12.601
68654W        W40183  30.509  26.965  11.235
68655W        W40184  29.006   9.076   4.084
68656W        W40185  12.797   8.206  11.984
68657W        W40186  32.864  23.442   3.172
68658W        W40187  34.294  27.048  10.898
68659W        W40188  27.505  30.641  12.369
68660W        W40189   4.493   2.436   1.890
68661W        W40190  39.088  42.240  10.263
68662W        W40191   6.293  37.992   3.395
68663W        W40192  32.649   2.147  13.436
68664W        W40193  43.339  16.564   2.121
68665W        W40194  41.053  15.270  13.983
68666W        W40195  17.809  39.588   4.271
68667W        W40196  43.807  38.805   4.222
68668W        W40197  27.301   6.451   0.521
68669W        W40198  44.223  10.120   5.021
68670W        W40199  18.822  32.884   3.686
68671W        W40200   5.654  26.900   4.545
68672W        W40201  36.402  21.270  10.765
68673W        W40202  27.536  15.156   2.250
68674W        W40203  38.805  25.743  11.554
68675W        W40204  29.555   6.146   1.497
68676W        W40205   1.224  35.522  13.920
68677W        W40206  28.851  19.897   2.243
68678W        W40207  16.842  23.209  14.388
68679W        W40208  37.148   5.980   2.715
68680W        W40209   2.063   4.389   3.192
68681W        W40210  16.682  19.063   2.636
68682W        W40211  22.811  40.904  13.470
68683W        W40212  12.232  18.482   1.365
68684W        W40213  21.215  37.765   0.806
68685W        W40214  32.850  15.517   3.647
68686W        W40215  26.682  30.410   1.426
68687W        W40216  14.075  22.008  11.032
68688W        W40217   6.911   0.031  14.233
68689W        W40218  10.302  39.418   0.237
68690W        W40219  40.590  26.703   1.310
68691W        W40220  14.714  18.521  12.971
68692W        W40221   4.335  12.910   2.394
68693W        W40222  29.240  12.627  12.469
68694W        W40223  14.097  36.842  13.434
68695W        W40224   5.672   1.785   1.667
68696W        W40225  15.468  22.053  11.521
68697W        W40226  20.099   5.377  13.126
68698W        W40227  34.850   9.765  12.459
68699W        W40228  10.358  12.052   1.910
68700W        W40229  24.470  36.945  13.235
68701W        W40230  26.644  44.489  13.968
68702W        W40231  39.495  36.515   4.318
68703W        W40232  13.047  22.927  14.897
68704W        W40233   3.139  10.361   3.721
68705W        W40234  18.112  40.348   0.346
68706W        W40235  40.622   9.028   1.309
68707W        W40236   1.459  32.942   3.599
68708W        W40237   4.700  39.050   5.248
68709W        W40238  23.691  30.475  13.847
68710W        W40239  14.052  24.430   1.179
68711W        W40240   8.171  15.165   2.637
68712W        W40241  16.453   8.965   0.473
68713W        W40242  24.765  25.790  13.942
68714W        W40243   8.975  20.922   4.209
68715W        W40244   7.897  13.763  13.139
68716W        W40245   8.799  18.208  13.319
68717W        W40246  40.922  22.687  10.939
68718W        W40247   4.203  10.878  14.466
68719W        W40248   5.820  43.259  14.004
68720W        W40249   6.682  34.608  12.437
68721W        W40250  33.080  29.178  11.588
68722W        W40251  34.326  23.733  12.070
68723W        W40252   0.445  34.434   0.622
68724W        W40253  44.767  36.353   0.420
68725W        W40254  44.102   8.728   0.396
68726W        W40255  44.246  34.428   3.350
68727W        W40256  30.762  34.096   1.749
68728W        W40257  13.410  26.957  14.562
68729W        W40258  16.428  27.439   0.899
68730W        W40259  41.920  39.116   0.729
68731W        W40260  40.947  21.532  14.807
68732W        W40261  43.548   0.469  14.740
68733W        W40262  31.082  32.465   1.231
68734W        W40263  23.730  36.091  12.179
68735W        W40264  41.022  24.887   3.685
68736W        W40265  12.187  29.913   4.109
68737W        W40266  36.058  10.028  13.725
68738W        W40267  37.418  32.324   1.699
68739W        W40268  15.715  27.771  13.584
68740W        W40269  33.537  24.169  13.983
68741W        W40270  29.976   4.412   0.676
68742W        W40271  10.400  32.374   4.559
68743W        W40272  10.101  44.353  14.311
68744W        W40273  18.694   7.228  10.306
68745W        W40274  18.657   6.335  11.529
68746W        W40275  44.181   2.276  10.658
68747W        W40276  18.709  32.928  11.481
68748W        W40277  39.289  42.156   0.739
68749W        W40278  40.651  22.183  11.599
68750W        W40279  20.016  32.102  11.947
68751W        W40280  38.086  31.197   3.290
68752W        W40281  12.641  12.766  13.819
68753W        W40282   0.071  36.410  10.693
68754W        W40283   0.813   3.990  12.602
68755W        W40284   7.813   8.201   0.822
68756W        W40285  30.291  26.788  12.097
68757W        W40286  22.551  28.653   4.159
68758W        W40287   9.205   7.686  14.954
68759W        W40288  16.237  25.166  11.501
68760W        W40289  18.189   9.170  11.339
68761W        W40290  33.843   2.018   0.384
68762W        W40291   9.206  43.698  11.667
68763W        W40292   5.600   6.857  10.699
68764W        W40293  37.875  19.661   1.925
68765W        W40294  27.105  36.183   4.324
68766W        W40295   6.967  20.176   2.340
68767W        W40296  44.335  27.212   3.403
68768W        W40297  24.939  27.628   1.214
68769W        W40298  40.154  26.741   1.622
68770W        W40299  26.995  36.513   0.935
68771W        W40300  25.661   4.745  11.577
68772W        W40301  25.458  22.265   3.105
68773W        W40302  43.774  28.509   2.701
68774W        W40303  38.400  10.473   1.746
68775W        W40304  42.014  33.702   1.041
68776W        W40305  44.256  16.201   4.498
68777W        W40306  39.844   4.836   3.637
68778W        W40307  11.702  29.987  12.873
68779W        W40308  27.404  24.180   2.646
68780W        W40309  15.727   5.410   0.298
68781W        W40310  13.126  21.563   4.646
68782W        W40311  20.744   0.640  14.051
68783W        W40312  34.393   3.533  10.665
68784W        W40313  13.603  29.175  13.235
68785W        W40314  43.026  36.390  14.657
68786W        W40315   7.340  39.352  13.532
68787W        W40316  12.716  19.172  14.355
68788W        W40317  33.429  25.785  14.836
68789W        W40318  36.571  12.383   2.261
68790W        W40319   3.885  43.035  11.795
68791W        W40320  24.015  38.843   3.837
68792W        W40321  14.532   8.167  13.895
68793W        W40322  28.963  10.192  13.358
68794W        W40323  33.010  13.577   3.674
68795W        W40324   1.445  14.206   3.596
68796W        W40325   7.013   2.949  11.617
68797W        W40326  20.595   4.757  11.079
68798W        W40327   9.723   8.273   2.396
68799W        W40328  28.107   0.999  11.060
68800W        W40329  18.270  39.928   1.571
68801W        W40330  40.984  27.679  14.691
68802W        W40331  19.660   7.990   1.057
68803W        W40332   4.465   0.877  13.288
68804W        W40333  16.655  28.976   3.567
68805W        W40334  31.402  44.878  14.945
68806W        W40335  40.559  29.915  13.785
68807W        W40336  34.972  24.216  11.763
68808W        W40337   0.720  20.560  13.933
68809W        W40338  40.887   9.224   3.167
68810W        W40339  40.239  12.167  13.420
68811W        W40340  15.329  15.350  11.099
68812W        W40341  20.647   6.711  14.337
68813W        W40342  38.877  13.319   1.258
68814W        W40343  18.614   1.212   2.452
68815W        W40344  14.612  24.204  13.510
68816W        W40345  25.699  44.843   3.757
68817W        W40346  41.300  30.075   2.776
68818W        W40347   6.845  25.032  14.896
68819W        W40348  27.150   6.936  13.754
68820W        W40349  20.204  23.697   2.821
68821W        W40350  40.078  24.464  14.329
68822W        W40351  13.687  39.424   3.044
68823W        W40352  36.049  28.955  13.800
68824W        W40353  23.939  40.253   1.935
68825W        W40354   7.993  25.839  13.026
68826W        W40355  21.375  22.080   0.794
68827W        W40356  24.729  40.452   3.277
68828W        W40357  19.612  26.542   3.912
68829W        W40358  39.567  24.110  10.767
68830W        W40359  16.257  31.182   1.280
68831W        W40360   4.836  20.635  13.716
68832W        W40361  32.010   6.102   2.687
68833W        W40362  39.925  40.555  12.973
68834W        W40363  21.706  37.602  12.007
68835W        W40364  22.919  42.085   5.201
68836W        W40365  25.119  40.012   0.821
68837W        W40366   5.841  14.194  12.165
68838W        W40367  29.946  42.767   0.041
68839W        W40368  23.939   3.141  10.837
68840W        W40369   3.712  42.585  14.199
68841W        W40370  31.323  37.951   4.547
68842W        W40371  11.209   9.132   0.389
68843W        W40372   9.434  35.192  11.030
68844W        W40373   4.477  28.220  14.000
68845W        W40374  42.001   0.198   2.936
68846W        W40375  14.690  44.028  13.917
68847W        W40376  36.265   8.704   1.261
68848W        W40377  36.852  32.029   2.270
68849W        W40378  40.914  35.465  10.757
68850W        W40379  12.791   0.782  12.062
68851W        W40380  33.451  38.956   4.585
68852W        W40381  15.495  39.960   4.225
68853W        W40382  43.539  25.063   0.606
68854W        W40383  20.681   9.453  11.523
68855W        W40384  41.435   4.479   2.918
68856W        W40385  29.294  18.957   2.809
68857W        W40386  23.190  32.924   4.541
68858W        W40387   2.051  33.972   0.916
68859W        W40388  13.689   0.852   4.208
68860W        W40389  37.082  30.893   3.248
68861W        W40390   6.270   2.775   3.562
68862W        W40391  43.750   7.331  11.601
68863W        W40392  35.719  20.164  14.871
68864W        W40393  19.482  25.313  14.783
68865W        W40394   1.754  44.346  13.979
68866W        W40395  17.183  38.314  12.900
68867W        W40396  16.867   6.388   0.030
68868W        W40397  27.269  31.267  13.501
68869W        W40398  33.156  23.662   1.753
68870W        W40399   6.607  25.037   4.772
68871W        W40400  36.138  33.087  13.473
68872W        W40401  21.030  34.539  12.080
68873W        W40402   4.047  38.855  12.870
68874W        W40403  23.763  11.214  14.724
68875W        W40404  42.270  26.219  10.439
68876W        W40405  38.454   5.553   3.583
68877W        W40406  17.804   0.018  13.360
68878W        W40407  23.769  40.456  12.483
68879W        W40408  30.557  30.259   0.827
68880W        W40409  42.125   5.761   0.951
68881W        W40410  24.306  44.248  12.946
68882W        W40411  34.826  22.926   3.332
68883W        W40412  41.466  14.675   1.049
68884W        W40413  34.316  28.501  12.912
68885W        W40414  32.637  43.369  11.592
68886W        W40415  17.142  29.770   2.451
68887W        W40416   0.288  36.602   1.972
68888W        W40417  24.547  33.984  12.521
68889W        W40418  16.852  33.302  14.070
68890W        W40419  21.914  12.962  11.130
68891W        W40420  42.378  14.045  14.752
68892W        W40421  19.191   2.552  11.136
68893W        W40422  14.198  14.213   3.740
68894W        W40423  31.486  39.138   4.280
68895W        W40424  11.373  27.202  11.548
68896W        W40425  28.585  13.554  14.893
68897W        W40426  10.847  40.809  12.354
68898W        W40427  22.980  24.900   0.633
68899W        W40428  43.085  20.610   0.336
68900W        W40429  43.778   2.563   1.780
68901W        W40430   0.635   5.307   2.179
68902W        W40431  34.562  30.610  13.354
68903W        W40432  17.721  43.384  14.833
68904W        W40433  43.754  33.482  12.437
68905W        W40434  31.418  27.069  12.908
68906W        W40435   6.327  13.667   0.648
68907W        W40436  20.234  10.138   2.807
68908W        W40437  39.618  28.768  11.208
68909W        W40438  15.219  12.007   2.703
68910W        W40439  21.694  28.193   0.439
68911W        W40440  36.935   9.212   0.346
68912W        W40441   0.471  14.361  11.159
68913W        W40442  35.281   8.804  10.316
68914W        W40443   7.810   6.129   1.677
68915W        W40444  26.201  12.728   1.429
68916W        W40445  37.987  25.003   1.022
68917W        W40446  22.896  12.716   4.097
68918W        W40447   2.442  26.642   2.750
68919W        W40448  22.216  17.213   0.244
68920W        W40449  39.541  15.169  12.079
68921W        W40450  36.812  16.066   2.818
68922W        W40451  40.528  41.735  12.801
68923W        W40452  27.264   4.152  12.866
68924W        W40453   1.991  43.889   1.709
68925W        W40454   7.931  21.707   0.270
68926W        W40455  39.118  24.971  14.319
68927W        W40456  26.244  12.709   2.332
68928W        W40457  38.994  33.942  12.873
68929W        W40458  23.277  31.976  14.531
68930W        W40459  24.400   0.453   4.116
68931W        W40460  44.684  13.542  10.670
68932W        W40461  44.221  10.271   3.598
68933W        W40462  17.244  11.771  13.049
68934W        W40463  38.903  38.590  12.526
68935W        W40464  26.026  36.920   3.262
68936W        W40465  16.093   1.266   0.252
68937W        W40466  36.091  29.981   4.555
68938W        W40467  38.458  13.782  11.999
68939W        W40468  18.507  26.142   1.975
68940W        W40469  38.055   6.221  13.699
68941W        W40470  40.131  22.625   1.707
68942W        W40471  24.605  10.400   1.505
68943W        W40472  15.198   4.722   5.126
68944W        W40473  26.516  41.008   3.556
68945W        W40474  21.298  40.010   2.741
68946W        W40475  33.135  40.101   4.668
68947W        W40476   9.205  27.665   3.528
68948W        W40477   5.677  38.402  12.168
68949W        W40478  37.057  16.365   2.453
68950W        W40479  20.533  42.427   4.054
68951W        W40480   0.443  27.427  13.675
68952W        W40481   9.120  11.694  10.788
68953W        W40482  39.818  26.987  11.191
68954W        W40483  16.677   4.943  11.956
68955W        W40484  21.394  23.938   1.306
68956W        W40485  43.249   1.235  12.534
68957W        W40486  14.905  43.014   3.822
68958W        W40487   7.035  33.134   0.942
68959W        W40488  37.485  38.620   4.224
68960W        W40489  24.395  41.821   3.626
68961W        W40490  38.394  32.631  12.620
68962W        W40491  36.599  37.365   3.213
68963W        W40492  37.619  22.949   2.711
68964W        W40493  44.228  41.308   4.577
68965W        W40494  34.463  41.966  10.821
68966W        W40495  42.303  22.556   2.553
68967W        W40496  33.422  19.132  11.072
68968W        W40497  40.380   7.771  13.858
68969W        W40498  15.211  42.800  13.956
68970W        W40499  13.288   2.120  11.361
68971W        W40500  16.495   0.665   0.325
68972W        W40501   6.374  16.658  12.956
68973W        W40502  34.276  10.617   0.358
68974W        W40503  34.031  30.243   1.542
68975W        W40504  14.501  15.000  11.073
68976W        W40505  39.321  20.807  13.849
68977W        W40506   2.024   7.757  14.737
68978W        W40507  23.978  16.691  13.004
68979W        W40508   4.961  10.543  13.889
68980W        W40509  39.023  38.985   4.666
68981W        W40510  24.705  41.362  11.012
68982W        W40511  16.931  36.855   4.489
68983W        W40512  30.688  12.731   3.383
68984W        W40513  20.826  24.889  13.224
68985W        W40514  34.144  22.929  14.040
68986W        W40515  33.260  18.875   4.992
68987W        W40516   0.793  16.773   1.785
68988W        W40517  26.117  18.772   2.329
68989W        W40518  14.593  17.530  10.634
68990W        W40519  30.894   0.149   0.739
68991W        W40520   9.953  18.286   2.608
68992W        W40521   7.738  36.959  11.098
68993W        W40522  17.315  39.543  11.430
68994W        W40523   9.393  29.044  13.854
68995W        W40524  12.597   1.730  12.040
68996W        W40525   2.907  29.010   2.652
68997W        W40526  44.454   0.450  11.441
68998W        W40527   7.908   0.450  10.563
68999W        W40528  16.724  42.398  14.985
69000W        W40529  22.532   3.294  12.446
69001W        W40530  24.574  42.869   4.100
69002W        W40531  27.486  16.286   3.171
69003W        W40532  38.010  13.407  10.737
69004W        W40533  16.037  33.375  13.431
69005W        W40534  18.037  41.611  11.168
69006W        W40535  13.131  15.077  13.382
69007W        W40536  35.437  37.885  13.599
69008W        W40537  24.946  27.981  10.823
69009W        W40538  27.188  30.640   3.697
69010W        W40539  16.194  39.302   0.960
69011W        W40540  30.099   7.946   3.908
69012W        W40541  18.233  41.540  11.625
69013W        W40542  43.189  10.342   2.783
69014W        W40543   3.452  19.104  13.011
69015W        W40544  39.448  42.378  13.134
69016W        W40545  28.509  12.594   3.505
69017W        W40546  39.285   9.402  10.974
69018W        W40547  21.185   5.829   1.940
69019W        W40548  15.666  40.023   3.731
69020W        W40549  44.274  29.341  13.626
69021W        W40550  35.863   4.766  14.304
69022W        W40551   3.486  20.608   3.311
69023W        W40552  28.641  24.912   2.498
69024W        W40553  27.100  17.378   1.677
69025W        W40554   7.351  24.271  14.768
69026W        W40555  11.382  44.317  12.525
69027W        W40556   6.417   9.319   2.265
69028W        W40557  44.428   7.158  13.442
69029W        W40558  11.951  23.101   3.718
69030W        W40559  14.219  22.764   5.015
69031W        W40560  33.492  19.331   3.697
69032W        W40561  33.975   2.276   3.234
69033W        W40562   4.270  36.390   4.381
69034W        W40563  29.345   5.196   3.708
69035W        W40564  43.437  39.116  14.847
69036W        W40565  44.638  42.287  11.210
69037W        W40566  11.992  27.760  14.929
69038W        W40567  15.037   8.638  12.818
69039W        W40568  40.035   9.348   2.614
69040W        W40569  28.736   6.705   4.660
69041W        W40570   0.360  42.359  10.704
69042W        W40571  31.542   9.053  14.621
69043W        W40572   8.730   6.869  13.310
69044W        W40573  40.972  34.792   0.972
69045W        W40574   0.153   1.415  11.736
69046W        W40575  16.640  17.146   1.299
69047W        W40576  29.171  28.454  12.013
69048W        W40577  41.893  44.204   3.788
69049W        W40578   9.786  24.699   3.116
69050W        W40579   9.135  38.083  13.362
69051W        W40580  25.064  29.619   2.476
69052W        W40581  16.116   0.267  11.498
69053W        W40582  33.001  23.749  11.100
69054W        W40583  42.683  13.606  13.079
69055W        W40584  21.118  11.439   2.782
69056W        W40585  23.706  16.647  14.870
69057W        W40586  12.103  12.668   0.492
69058W        W40587  12.266  12.924  12.995
69059W        W40588  41.358  19.754  12.647
69060W        W40589  40.319   4.657   3.741
69061W        W40590  24.053  10.677  11.128
69062W        W40591  28.948  44.492   3.090
69063W        W40592  11.618  13.680   3.222
69064W        W40593  25.463   7.268   3.649
69065W        W40594  25.445  17.156   1.481
69066W        W40595  19.009  33.965   1.267
69067W        W40596  37.428  41.110  11.468
69068W        W40597  19.533   0.757  12.513
69069W        W40598  36.680   9.826   4.191
69070W        W40599  37.127  16.285  14.817
69071W        W40600  20.614   6.483  13.626
69072W        W40601   7.142   9.774   1.246
69073W        W40602  23.762  15.849   2.337
69074W        W40603  22.651  25.766   3.263
69075W        W40604   5.551  13.629  11.794
69076W        W40605   3.066  11.828  11.495
69077W        W40606  25.503  10.677   5.075
69078W        W40607  28.926  15.774  12.133
69079W        W40608  10.589   7.280  14.459
69080W        W40609  41.534  15.256   0.310
69081W        W40610   2.482  44.878  11.531
69082W        W40611  15.008  28.149  12.766
69083W        W40612  20.696  44.634  13.932
69084W        W40613   0.982  13.802   1.484
69085W        W40614  19.772  34.831   1.262
69086W        W40615  14.170  30.418  12.634
69087W        W40616  31.123  10.539  12.576
69088W        W40617  33.398  27.641  12.005
69089W        W40618  28.612  36.422  13.325
69090W        W40619  35.019  14.555   1.227
69091W        W40620   8.833  17.308  12.009
69092W        W40621  24.117   1.283  13.855
69093W        W40622   4.840  16.237   4.530
69094W        W40623  15.062  28.477   3.733
69095W        W40624  26.182  41.496  11.579
69096W        W40625  27.984  11.039  12.805
69097W        W40626  19.758   8.251   2.556
69098W        W40627  20.264  11.265  12.647
69099W        W40628   6.991  12.730  12.455
69100W        W40629   5.457   0.028  14.565
69101W        W40630  17.514  15.806  12.556
69102W        W40631  11.475  33.945  13.512
69103W        W40632  15.661  42.032   1.773
69104W        W40633  28.917  41.979  14.436
69105W        W40634  13.332  34.613   4.358
69106W        W40635  42.610  38.332   4.006
69107W        W40636  23.299  37.071  11.588
69108W        W40637  14.351   1.817   0.017
69109W        W40638  15.631   5.328   1.746
69110W        W40639  37.473  42.070   4.477
69111W        W40640   3.862  18.011  11.596
69112W        W40641  26.466  37.407  14.406
69113W        W40642  17.856  19.258  11.426
69114W        W40643  19.313  38.544   0.833
69115W        W40644  18.013  18.324   4.026
69116W        W40645  39.012  26.798   3.963
69117W        W40646  44.574  13.562  13.993
69118W        W40647  39.831  19.539  13.407
69119W        W40648  15.128  25.301   3.736
69120W        W40649  33.072  44.935  11.974
69121W        W40650  12.286  16.844  10.745
69122W        W40651  35.635   2.559   4.160
69123W        W40652  43.048   3.678  11.137
69124W        W40653  33.057  39.395  11.526
69125W        W40654  11.890  15.702  13.884
69126W        W40655  35.034   8.860  11.228
69127W        W40656  33.321  43.923   1.312
69128W        W40657  39.670  32.777   2.251
69129W        W40658  28.724  21.169   0.877
69130W        W40659   4.233  20.175  11.594
69131W        W40660  43.315  29.000   0.427
69132W        W40661  40.022  11.232  11.595
69133W        W40662  13.100  42.858   4.793
69134W        W40663  20.997  10.063  13.009
69135W        W40664  38.876  33.497   1.489
69136W        W40665  12.196   0.995  14.473
69137W        W40666  10.054  34.382   2.261
69138W        W40667  25.631  24.046  13.388
69139W        W40668  31.680  42.505   4.199
69140W        W40669   8.278   9.352  14.957
69141W        W40670  35.691  43.891  12.178
69142W        W40671  35.959  18.227  12.373
69143W        W40672  18.637   1.482   2.903
69144W        W40673  41.823  34.897  12.582
69145W        W40674  43.756  44.356  14.980
69146W        W40675  32.847  27.499  13.975
69147W        W40676  12.108  22.726   0.871
69148W        W40677  40.533  19.271  13.382
69149W        W40678  28.014   5.894   0.268
69150W        W40679  37.484  21.815  14.979
69151W        W40680  16.746  21.133  14.261
69152W        W40681  19.364   5.381  12.405
69153W        W40682  35.248  21.067   2.389
69154W        W40683  39.822   6.118  10.522
69155W        W40684  39.679  13.330  14.573
69156W        W40685  44.009   4.909  12.033
69157W        W40686  33.480  22.508   2.192
69158W        W40687  41.556  14.720  13.501
69159W        W40688   6.107   6.148  13.007
69160W        W40689  15.609  37.726   3.652
69161W        W40690  32.520  42.829  11.059
69162W        W40691  30.251   2.832   4.633
69163W        W40692   9.921   2.760  12.032
69164W        W40693  32.830  19.713  13.886
69165W        W40694  27.572   6.169   0.864
69166W        W40695   6.150  12.212   0.222
69167W        W40696  27.269  27.010   5.080
69168W        W40697  41.537  43.301   0.832
69169W        W40698   1.402  15.592   2.747
69170W        W40699  15.594  13.379   4.514
69171W        W40700  10.811  16.743  10.695
69172W        W40701  40.295  29.628   4.539
69173W        W40702  20.754  38.839  11.627
69174W        W40703  13.567   7.319  10.809
69175W        W40704  20.566  17.369   2.728
69176W        W40705  33.589  33.932  12.353
69177W        W40706  43.985  41.575  14.761
69178W        W40707  41.448  17.289  11.947
69179W        W40708  12.709  35.986   3.300
69180W        W40709  13.407  32.954   4.959
69181W        W40710  13.573   7.796   3.002
69182W        W40711  43.808  26.560   3.593
69183W        W40712  22.494   0.656   1.470
69184W        W40713  23.259  16.276  13.044
69185W        W40714  11.145  38.850  12.292
69186W        W40715  15.712  28.193  10.722
69187W        W40716  33.655  43.653  14.426
69188W        W40717  14.965  39.994   4.335
69189W        W40718   8.064  27.865  12.622
69190W        W40719  44.875  19.921  13.397
69191W        W40720  23.716  28.467  10.656
69192W        W40721  18.691   2.787   0.989
69193W        W40722  37.338  43.688   2.720
69194W        W40723  16.323   7.203  10.362
69195W        W40724   0.726  31.279  14.960
69196W        W40725  19.310  33.975  10.633
69197W        W40726  26.670  43.902  12.065
69198W        W40727  24.111  14.618   2.358
69199W        W40728  29.036  27.408   2.340
69200W        W40729  35.505  14.637   2.603
69201W        W40730  31.043  28.193   3.709
69202W        W40731  19.283  43.419   3.477
69203W        W40732   8.380  33.545  10.699
69204W        W40733  16.505  34.489  11.657
69205W        W40734   8.914  20.424   4.292
69206W        W40735  19.038  25.665  11.665
69207W        W40736  20.636  12.371   2.858
69208W        W40737  15.558  39.779  10.291
69209W        W40738  35.353  28.636  10.679
69210W        W40739  23.923   8.148  12.580
69211W        W40740  17.354   3.877   3.641
69212W        W40741  42.180  38.593   3.449
69213W        W40742  11.796  14.574   4.076
69214W        W40743  12.323  43.037   2.261
69215W        W40744  36.706  27.444   0.825
69216W        W40745  10.690  35.268  12.821
69217W        W40746  31.151   4.105   1.278
69218W        W40747  16.304  27.004   2.373
69219W        W40748  44.576  38.057   3.667
69220W        W40749  36.408  35.789   1.483
69221W        W40750  32.618   0.969  11.495
69222W        W40751  20.109  19.951   1.340
69223W        W40752  35.068   8.884  11.728
69224W        W40753  43.263  40.925  14.744
69225W        W40754  18.231   9.611   5.113
69226W        W40755  16.478  28.541   3.285
69227W        W40756  30.537   3.741  13.412
69228W        W40757   5.959   2.918  12.855
69229W        W40758  25.105  35.521   4.379
69230W        W40759  16.214  41.058   1.924
69231W        W40760  37.753  17.778   4.576
69232W        W40761  37.607  15.551   1.890
69233W        W40762  36.601  28.851   1.818
69234W        W40763  20.248  34.586   2.417
69235W        W40764  21.085   5.740   0.410
69236W        W40765   6.456  36.661   3.768
69237W        W40766  18.044  32.240   1.797
69238W        W40767   2.948  11.298   1.414
69239W        W40768  14.427  20.373  12.894
69240W        W40769  29.508   2.142   3.839
69241W        W40770   9.104  33.172  12.382
69242W        W40771  38.327  21.675   2.299
69243W        W40772  25.713  26.022  10.458
69244W        W40773   8.025   4.856  10.610
69245W        W40774   9.379   3.776  14.851
69246W        W40775  14.211  28.454   4.594
69247W        W40776  15.699  18.277   3.317
69248W        W40777  11.169  24.549  13.443
69249W        W40778  35.506   8.156   1.967
69250W        W40779  20.731  15.993   2.436
69251W        W40780  37.342  19.853  13.511
69252W        W40781  30.340  14.150  12.942
69253W        W40782  21.743   7.285  13.016
69254W        W40783  16.204  16.777  14.017
69255W        W40784  14.805  14.606  10.751
69256W        W40785   2.057  10.246  10.540
69257W        W40786  20.148  26.014   4.070
69258W        W40787  27.501  31.653   2.133
69259W        W40788  20.749  23.233  13.715
69260W        W40789  41.531  18.107   0.390
69261W        W40790  20.747  26.042  11.904
69262W        W40791  10.687  36.575  14.304
69263W        W40792  32.575   2.798   4.654
69264W        W40793   2.374   8.221  12.562
69265W        W40794  24.782   6.458   4.073
69266W        W40795  39.897  35.327  10.443
69267W        W40796  13.435  33.668   9.862
69268W        W40797  26.277  44.011   3.181
69269W        W40798   1.565  17.263  12.377
69270W        W40799  15.668  20.727   3.328
69271W        W40800   9.769  14.302   3.665
69272W        W40801  19.770  40.988   3.153
69273W        W40802  34.462  17.744   3.626
69274W        W40803  14.443  32.523   4.529
69275W        W40804   6.056  21.011   0.487
69276W        W40805  44.495  31.537   0.780
69277W        W40806  19.011  33.511  10.523
69278W        W40807   2.717  38.571   2.830
69279W        W40808  25.093   4.484   4.777
69280W        W40809  38.406   1.685   2.438
69281W        W40810   4.527  16.149  12.498
69282W        W40811  28.228  16.696   0.787
69283W        W40812  14.196  19.488   4.050
69284W        W40813  30.100  44.097  14.313
69285W        W40814  17.844  35.909  11.492
69286W        W40815  29.630  27.711  11.556
69287W        W40816  11.227   9.003  12.530
69288W        W40817  32.059  33.539  14.254
69289W        W40818  36.261  32.659   3.916
69290W        W40819  40.333  11.660  11.517
69291W        W40820  23.159  36.587  10.659
69292W        W40821  41.035  28.111   0.888
69293W        W40822  37.601  31.567  13.050
69294W        W40823   1.523  41.444   2.863
69295W        W40824  10.156   2.904  14.294
69296W        W40825   7.116  42.633  14.444
69297W        W40826  18.230  37.574  12.515
69298W        W40827  43.277  36.452   3.482
69299W        W40828  41.368  13.059  10.651
69300W        W40829  17.099  12.209   4.822
69301W        W40830  25.026  39.048  13.713
69302W        W40831   2.134  20.250  10.553
69303W        W40832  18.647   2.885   1.505
69304W        W40833   6.929  44.317   1.382
69305W        W40834  37.593  23.134  13.769
69306W        W40835   2.811  39.531  13.679
69307W        W40836  22.498   8.347   1.846
69308W        W40837  25.151  23.496   4.256
69309W        W40838   5.839  34.083   0.337
69310W        W40839  39.390   8.086  12.922
69311W        W40840  20.074  36.419   1.873
69312W        W40841  39.873  33.396   0.886
69313W        W40842  41.346  16.483   1.491
69314W        W40843   9.460  12.263  11.341
69315W        W40844  22.047  11.986  14.351
69316W        W40845  44.436  31.438   2.361
69317W        W40846  35.316  12.649  14.834
69318W        W40847  43.209  16.160  12.128
69319W        W40848  35.119  36.783  14.853
69320W        W40849  10.743  37.619  14.216
69321W        W40850  40.945   0.286  13.767
69322W        W40851  31.117  21.000  10.056
69323W        W40852  20.861  31.588   0.456
69324W        W40853  32.158  25.568  13.957
69325W        W40854  29.538  14.833  11.974
69326W        W40855  19.539  10.151   3.303
69327W        W40856  20.668  37.568   3.865
69328W        W40857   0.436  37.790   3.264
69329W        W40858  10.631   5.348  14.933
69330W        W40859  32.129  29.687   2.346
69331W        W40860  17.567  27.969  11.216
69332W        W40861  16.060  15.122   3.873
69333W        W40862  34.428   5.754   3.690
69334W        W40863   5.763   0.521  12.477
69335W        W40864  33.370  15.241  11.269
69336W        W40865  40.040  18.192   1.303
69337W        W40866  14.330  39.291  11.255
69338W        W40867  26.286  27.893  11.111
69339W        W40868  40.036   8.760  11.197
69340W        W40869  29.905  26.224  13.020
69341W        W40870   8.211  33.411  11.173
69342W        W40871  33.753  38.727   4.995
69343W        W40872  22.797   4.982  14.288
69344W        W40873  27.192  39.643   3.756
69345W        W40874  13.183  29.313   2.214
69346W        W40875  29.080  32.023  10.004
69347W        W40876  33.848  11.385  13.505
69348W        W40877  39.390  37.931  13.587
69349W        W40878   1.879  38.745  13.523
69350W        W40879  22.246   0.943  10.763
69351W        W40880  21.988   2.050  14.945
69352W        W40881  22.575  23.845  10.597
69353W        W40882  17.131   6.652   1.899
69354W        W40883  19.249  20.493   2.364
69355W        W40884  21.671  42.225   3.258
69356W        W40885  30.307  44.508  11.711
69357W        W40886  35.847  44.477   3.710
69358W        W40887  20.011  26.702   4.484
69359W        W40888   6.804  13.687  14.875
69360W        W40889  21.635  22.583  10.905
69361W        W40890  41.361  23.074   4.570
69362W        W40891   7.749   6.878   0.475
69363W        W40892   0.273   8.162   3.630
69364W        W40893   6.715  39.847   0.222
69365W        W40894   7.933  25.562   1.244
69366W        W40895   7.736  17.683   1.734
69367W        W40896   4.763   7.118   0.752
69368W        W40897  16.553  38.055   1.501
69369W        W40898  11.368   3.277  13.202
69370W        W40899  26.056   9.121   3.628
69371W        W40900  43.176  21.569   2.504
69372W        W40901  22.857  25.002  11.340
69373W        W40902  13.961  13.259   1.236
69374W        W40903  32.946  12.155  11.823
69375W        W40904  35.303  44.282  12.428
69376W        W40905  10.827  32.836   4.328
69377W        W40906  24.015  31.530   1.366
69378W        W40907  31.134  33.425   2.186
69379W        W40908  41.088  10.211   0.015
69380W        W40909   2.743  22.201  13.921
69381W        W40910  26.246  22.168   3.577
69382W        W40911  43.030  17.719   4.975
69383W        W40912  44.946   7.801   1.370
69384W        W40913  29.861  38.787   2.827
69385W        W40914  42.781  21.226  13.358
69386W        W40915  11.753  44.574   0.591
69387W        W40916  23.781  32.436  12.194
69388W        W40917  36.841   4.594  11.090
69389W        W40918  20.558  30.424   1.958
69390W        W40919  13.657  11.783  11.563
69391W        W40920   9.341  30.134  14.133
69392W        W40921   8.035  34.537  11.442
69393W        W40922  39.943   0.837  13.539
69394W        W40923  37.353  40.004  14.308
69395W        W40924  24.568  20.766   3.219
69396W        W40925  27.295  20.902   2.914
69397W        W40926  24.415  24.294   4.310
69398W        W40927   1.829   4.230   2.750
69399W        W40928  10.850  10.038   3.942
69400W        W40929  16.158  26.463  13.997
69401W        W40930   8.068  17.568  14.444
69402W        W40931   6.128  20.761   1.240
69403W        W40932   0.309  39.622  14.406
69404W        W40933  26.927  41.442   4.326
69405W        W40934  28.238  16.746  11.153
69406W        W40935  32.583   9.142  12.392
69407W        W40936  32.115   4.393   4.356
69408W        W40937  15.281  32.893   4.574
69409W        W40938  24.238   1.803   2.766
69410W        W40939  17.515  35.494   1.763
69411W        W40940  14.680  18.759   0.923
69412W        W40941  31.199  17.076   0.565
69413W        W40942  30.630  42.442   2.186
69414W        W40943  18.532  15.668  14.026
69415W        W40944  19.215   5.178  10.672
69416W        W40945  36.540  26.676  13.934
69417W        W40946  36.483  41.724  11.762
69418W        W40947  37.086   4.818  13.861
69419W        W40948   1.896  30.969  11.442
69420W        W40949  42.181  20.343  11.618
69421W        W40950  36.514  15.671   0.748
69422W        W40951  43.522  28.938  10.289
69423W        W40952  12.148   9.894   3.219
69424W        W40953  12.626  29.806   2.719
69425W        W40954   2.224  44.364   0.773
69426W        W40955  13.897  30.448   4.535
69427W        W40956   3.371  42.622  12.587
69428W        W40957  12.332  19.687   2.436
69429W        W40958  10.358  40.033  12.095
69430W        W40959  29.458  11.273  12.554
69431W        W40960  18.007  28.924  14.449
69432W        W40961   7.391  11.115  13.067
69433W        W40962  17.196  42.789   3.369
69434W        W40963   6.642  27.046   4.427
69435W        W40964  30.552  20.446   1.039
69436W        W40965  11.547   6.268   4.581
69437W        W40966  44.250  17.309  10.519
69438W        W40967   0.869  14.038  11.214
69439W        W40968  44.303  10.574  11.614
69440W        W40969   7.621  32.655  12.565
69441W        W40970   5.808  26.717   0.693
69442W        W40971  33.048  26.935  11.881
69443W        W40972  32.642  42.282   1.931
69444W        W40973  43.672  18.541  12.189
69445W        W40974  15.697  10.221   2.418
69446W        W40975  29.622  28.943   1.294
69447W        W40976   4.917  36.883  13.644
69448W        W40977   2.621  32.398  11.121
69449W        W40978  42.786   9.725   0.987
69450W        W40979  40.789  16.004  12.982
69451W        W40980  35.027  42.278  14.599
69452W        W40981  18.479  37.487  14.759
69453W        W40982   9.616  44.495  13.057
69454W        W40983  24.515  38.373  12.243
69455W        W40984  11.913  28.005  10.650
69456W        W40985  13.769  22.994  12.615
69457W        W40986  32.741  33.774  11.350
69458W        W40987  37.401  23.127  12.045
69459W        W40988  19.519  34.057   3.248
69460W        W40989   1.022  37.530  14.414
69461W        W40990  29.849  15.942   4.951
69462W        W40991  20.850  23.350   4.112
69463W        W40992  15.647  27.161  11.617
69464W        W40993  11.490  38.173   3.707
69465W        W40994  26.589  20.153  10.977
69466W        W40995   8.446   6.838  12.870
69467W        W40996  43.070   8.759   0.490
69468W        W40997  39.164  24.278   4.074
69469W        W40998   4.566  28.814  11.479
69470W        W40999  33.679  22.789   0.239
69471W        W41000  44.109  32.289   3.683
69472W        W41001  22.937  33.052   2.253
69473W        W41002  23.260  31.155  10.416
69474W        W41003  36.703   9.434   3.634
69475W        W41004  25.673  29.071   5.313
69476W        W41005  17.628  14.675   1.493
69477W        W41006  33.975   3.248  10.544
69478W        W41007  14.727   0.797   2.344
69479W        W41008  44.851  29.515   4.576
69480W        W41009   1.534  27.071  14.054
69481W        W41010   7.071  11.753   2.941
69482W        W41011  24.716  19.266  10.809
69483W        W41012   9.304  40.393   1.374
69484W        W41013  21.438  20.136  12.008
69485W        W41014  38.655  13.731   1.502
69486W        W41015  35.626  11.852  12.634
69487W        W41016  43.819  17.135  12.972
69488W        W41017  24.729  40.526  13.372
69489W        W41018   0.813  44.332  13.007
69490W        W41019  23.244   8.938  12.339
69491W        W41020  43.019  44.714   1.344
69492W        W41021  14.812  12.603   0.220
69493W        W41022  42.090  39.709  11.085
69494W        W41023  15.321  16.878  11.124
69495W        W41024  36.460  37.575   4.117
69496W        W41025  14.694  33.434  14.738
69497W        W41026   0.106  24.981   5.040
69498W        W41027  16.766  37.099   3.667
69499W        W41028  28.691  43.574  14.751
69500W        W41029  38.891  31.632   3.317
69501W        W41030  26.437  20.969  14.824
69502W        W41031   3.171  44.326  10.941
69503W        W41032  10.917  39.872  13.636
69504W        W41033   2.441  31.448  14.378
69505W        W41034  34.009  38.021   3.668
69506W        W41035   0.247  27.295  12.463
69507W        W41036  38.016  31.257   0.340
69508W        W41037  35.032  38.863   2.156
69509W        W41038  19.265  37.394   0.426
69510W        W41039  25.032   8.428   3.111
69511W        W41040   8.853  44.875   3.234
69512W        W41041  44.425  44.864  12.063
69513W        W41042   7.121  10.068   1.638
69514W        W41043  15.601  25.005   4.719
69515W        W41044  33.877   8.611  12.549
69516W        W41045  28.436   1.225  14.432
69517W        W41046  28.160  12.345  11.595
69518W        W41047  38.787  21.668  10.619
69519W        W41048  16.528  22.176  12.551
69520W        W41049  44.443   7.705   0.319
69521W        W41050  20.624   8.153   2.075
69522W        W41051  31.351   7.423   3.768
69523W        W41052  13.847   5.039   2.236
69524W        W41053  26.237  18.045  13.980
69525W        W41054  26.104  38.888  12.901
69526W        W41055  41.457  14.321  11.144
69527W        W41056  33.397   6.442  13.488
69528W        W41057   4.783   3.700   2.888
69529W        W41058  10.219  10.210   0.281
69530W        W41059  30.121  10.257   4.536
69531W        W41060  14.692   1.989  10.682
69532W        W41061  18.152  24.741  10.898
69533W        W41062  18.460  15.712  11.660
69534W        W41063  31.257   2.748   4.639
69535W        W41064  34.504  16.213  13.623
69536W        W41065  28.446   2.437   0.694
69537W        W41066  25.499  16.050  13.382
69538W        W41067  40.534  31.592  10.669
69539W        W41068  30.397  30.897   3.605
69540W        W41069  28.631   6.939   1.960
69541W        W41070  39.580  36.588  13.910
69542W        W41071   6.672  22.168   0.904
69543W        W41072  40.820  42.549   2.694
69544W        W41073  39.307  23.691  12.408
69545W        W41074  12.302  14.724  13.869
69546W        W41075  44.219  23.781  12.376
69547W        W41076   5.401  24.660  11.180
69548W        W41077  22.263  23.564  14.315
69549W        W41078  36.835   0.033   0.338
69550W        W41079  27.644  34.407   3.078
69551W        W41080  17.184  36.741  10.858
69552W        W41081  41.938   6.342  13.093
69553W        W41082  15.776  29.684  13.962
69554W        W41083  23.225  29.567  12.957
69555W        W41084  32.442  35.018   1.748
69556W        W41085  14.795  44.705  11.887
69557W        W41086   6.679  15.097   4.325
69558W        W41087   0.628   5.257  13.846
69559W        W41088   2.579  42.088   3.708
69560W        W41089  20.818  35.994   1.870
69561W        W41090  11.699  36.836   0.982
69562W        W41091  10.197  33.462   2.330
69563W        W41092  20.560  31.021   1.210
69564W        W41093  40.877  21.525   4.440
69565W        W41094  34.136   1.004  14.499
69566W        W41095   0.028  28.207  14.451
69567W        W41096  39.519  35.897   4.595
69568W        W41097  15.782  10.406   3.459
69569W        W41098  20.621  33.859  12.044
69570W        W41099  29.199  21.362  10.743
69571W        W41100  44.750  10.825  14.272
69572W        W41101  38.989   6.641  14.354
69573W        W41102  36.228  23.006   1.893
69574W        W41103  21.329   8.689   2.321
69575W        W41104   0.422  43.826  14.563
69576W        W41105  32.404   7.790   2.166
69577W        W41106  14.327  41.926   2.224
69578W        W41107  42.503  43.841   3.382
69579W        W41108  10.946  33.511  12.055
69580W        W41109  12.142  26.788  13.341
69581W        W41110  11.732  20.802  12.252
69582W        W41111   9.325  20.757   3.356
69583W        W41112  25.118  39.131  13.235
69584W        W41113  37.958  19.123   0.683
69585W        W41114   2.090  13.910  13.887
69586W        W41115  22.089  24.867   2.996
69587W        W41116  25.968  17.138   3.117
69588W        W41117   9.909  23.758   3.829
69589W        W41118   2.711   0.294   3.559
69590W        W41119   8.801   7.262   3.567
69591W        W41120  18.088   8.982  12.561
69592W        W41121  44.504  18.175   0.495
69593W        W41122  42.294   4.445  10.496
69594W        W41123   6.711  33.977   1.446
69595W        W41124  20.207  34.564   1.354
69596W        W41125  30.869   6.476   0.993
69597W        W41126  33.467  42.737   3.277
69598W        W41127   7.850  24.814  14.017
69599W        W41128  19.112  36.187  14.971
69600W        W41129  15.251   8.917   1.752
69601W        W41130  43.819  35.321  11.931
69602W        W41131   6.538  41.592  13.805
69603W        W41132  26.001   4.815   3.889
69604W        W41133  19.332  24.776  11.484
69605W        W41134  11.766  20.258  13.071
69606W        W41135  25.679  14.870  12.033
69607W        W41136  38.937  38.533   3.197
69608W        W41137  39.179  24.647  14.724
69609W        W41138  21.157   9.748  13.386
69610W        W41139  23.288  17.202  14.368
69611W        W41140  11.276  43.504   1.682
69612W        W41141  14.573  40.726   3.225
69613W        W41142  40.409  43.197  13.012
69614W        W41143  27.725   3.207   2.238
69615W        W41144  30.113  25.866   2.097
69616W        W41145  41.908  36.894   3.048
69617W        W41146  28.449  31.993  12.275
69618W        W41147  24.732   7.232   1.267
69619W        W41148  33.119  44.388   1.102
69620W        W41149  33.374  16.208   1.963
69621W        W41150  34.425  21.769   1.833
69622W        W41151   2.439  40.368  12.476
69623W        W41152  14.516  16.650  11.454
69624W        W41153  25.034  40.946  14.831
69625W        W41154  29.233  38.844  10.417
69626W        W41155  20.271  37.399   2.553
69627W        W41156   4.479  10.248  12.630
69628W        W41157  15.740  40.566   1.612
69629W        W41158  16.895   3.231  12.819
69630W        W41159  28.131  12.610  14.969
69631W        W41160  43.751  39.544   4.698
69632W        W41161  44.355  18.324  11.213
69633W        W41162  12.098  10.415   3.308
69634W        W41163  19.136  34.909  12.050
69635W        W41164   1.747   9.583  14.999
69636W        W41165  24.500  25.678  14.355
69637W        W41166  26.148  27.313   2.380
69638W        W41167  25.659   9.135   0.963
69639W        W41168  14.182  14.902   2.742
69640W        W41169  15.319  18.517  10.552
69641W        W41170   2.389  20.746  14.337
69642W        W41171  19.828  29.028   3.608
69643W        W41172  30.584  30.387   3.390
69644W        W41173   6.486   1.549  11.725
69645W        W41174  32.502  43.056  13.849
69646W        W41175  39.104   0.194  11.700
69647W        W41176   0.853  40.749  12.104
69648W        W41177  35.952   1.293  12.457
69649W        W41178   8.169  10.285  12.573
69650W        W41179  38.735  14.306  10.827
69651W        W41180  42.786  20.691   3.120
69652W        W41181  21.236  11.388   1.917
69653W        W41182  14.235   3.862   3.798
69654W        W41183  23.510   7.919  12.456
69655W        W41184   9.472  20.633  14.183
69656W        W41185   5.817  16.332  13.118
69657W        W41186  20.236  15.016   4.337
69658W        W41187  18.526  14.358   0.045
69659W        W41188  42.097  18.764  11.150
69660W        W41189   6.903  40.384   4.835
69661W        W41190  25.980  32.725   0.455
69662W        W41191  16.102  29.873  13.368
69663W        W41192  41.347  16.143   3.200
69664W        W41193  21.809   8.774  10.673
69665W        W41194   3.669  20.676   4.254
69666W        W41195  26.881  41.078  12.141
69667W        W41196  37.388  19.566  13.085
69668W        W41197  40.452  19.756  12.447
69669W        W41198   4.373  16.110   0.785
69670W        W41199   9.289  31.132   2.740
69671W        W41200  22.009  27.657   0.834
69672W        W41201   7.893   7.239   4.157
69673W        W41202  31.129  18.826   0.958
69674W        W41203  30.356  24.703  10.601
69675W        W41204  18.779  12.917   0.984
69676W        W41205  23.252  38.373   3.702
69677W        W41206  39.710   7.203   3.373
69678W        W41207  14.531  30.635  10.736
69679W        W41208  17.929  38.583   3.573
69680W        W41209   9.597  18.032  12.044
69681W        W41210   9.186  25.481  12.471
69682W        W41211  30.118   1.332  11.655
69683W        W41212   1.975  26.861  14.228
69684W        W41213  22.256   9.801   4.820
69685W        W41214  34.919  44.886   1.407
69686W        W41215   9.165  25.812  11.659
69687W        W41216  35.856   6.654  12.469
69688W        W41217  32.313  37.927  14.301
69689W        W41218  15.296  34.343   4.802
69690W        W41219  42.908  19.298   3.634
69691W        W41220   6.851  42.583  11.940
69692W        W41221  10.638  27.859  11.505
69693W        W41222  35.393  25.123   3.218
69694W        W41223  41.307  31.912  13.134
69695W        W41224   1.283   8.952   0.440
69696W        W41225  23.557  38.887  13.977
69697W        W41226  35.935  28.995  10.715
69698W        W41227   9.938  10.835   4.947
69699W        W41228  28.086  37.870   4.450
69700W        W41229  25.146  18.460  12.463
69701W        W41230  27.399  30.396  12.965
69702W        W41231   0.418  35.514   0.213
69703W        W41232  34.379   9.675  14.665
69704W        W41233   6.930  30.555   4.114
69705W        W41234  27.894  10.802  13.899
69706W        W41235  41.306  38.420  14.397
69707W        W41236  37.515  25.938  12.171
69708W        W41237  42.455  33.897  12.000
69709W        W41238  23.150  22.595  12.356
69710W        W41239   6.428  23.949   1.056
69711W        W41240  17.131  21.416  11.765
69712W        W41241  17.673  42.276  12.702
69713W        W41242  30.814  34.300  10.775
69714W        W41243  30.552  25.750   1.172
69715W        W41244   7.198  28.592  13.925
69716W        W41245   4.834  36.946  13.123
69717W        W41246   3.428   4.564  12.059
69718W        W41247  42.369  19.054   3.395
69719W        W41248  38.332  36.899  13.524
69720W        W41249   6.808  14.079  13.464
69721W        W41250  37.165   3.271   1.271
69722W        W41251  32.987   2.243   4.056
69723W        W41252  22.074   5.860   4.635
69724W        W41253  24.523   8.005   2.317
69725W        W41254  26.764  42.661  14.289
69726W        W41255  25.722  38.546   1.349
69727W        W41256  31.091  17.759   0.725
69728W        W41257   1.095  38.808  12.953
69729W        W41258  29.167  14.827  13.128
69730W        W41259   6.889   1.869   0.374
69731W        W41260  34.091   7.765  14.375
69732W        W41261   7.759  33.327  14.831
69733W        W41262   3.344  37.309  14.097
69734W        W41263  30.122  44.130   0.190
69735W        W41264  36.360   9.917   2.707
69736W        W41265  15.743   3.222  10.326
69737W        W41266   4.421  44.482   4.527
69738W        W41267   7.411  25.039   1.777
69739W        W41268  38.179   5.322  13.512
69740W        W41269  10.160   6.824   0.790
69741W        W41270  20.512  18.563   0.393
69742W        W41271  37.531  38.944   3.827
69743W        W41272  25.049  26.242  13.439
69744W        W41273  19.038  26.051   2.802
69745W        W41274  41.070  27.196  12.711
69746W        W41275  11.380  27.646   3.209
69747W        W41276  11.288  42.932  14.291
69748W        W41277  22.524  37.978   2.968
69749W        W41278  21.721  27.158   0.438
69750W        W41279  23.468  38.348   4.219
69751W        W41280  21.671  18.752  10.699
69752W        W41281  33.915   8.632  13.266
69753W        W41282  37.443  15.716  12.037
69754W        W41283  36.289  24.450   4.129
69755W        W41284  18.109  32.414   3.711
69756W        W41285  14.438  38.457  11.863
69757W        W41286  26.088  35.566  10.525
69758W        W41287  24.580  22.182   0.725
69759W        W41288  35.979  11.071   1.298
69760W        W41289  17.591  11.931   3.685
69761W        W41290  32.996  44.428  11.957
69762W        W41291   4.887  37.890   1.308
69763W        W41292  41.305  33.719  12.398
69764W        W41293  23.821   4.950   0.308
69765W        W41294  32.964  40.230  12.992
69766W        W41295  31.315  31.587   4.942
69767W        W41296  31.569  39.198  12.518
69768W        W41297  34.486  15.720   4.187
69769W        W41298  26.138  24.132  14.438
69770W        W41299  35.044  15.435  10.719
69771W        W41300   3.810  37.501  11.909
69772W        W41301  23.004   4.878  13.277
69773W        W41302  28.946   6.533   1.796
69774W        W41303   7.346  23.283   2.170
69775W        W41304  12.123  24.614  14.048
69776W        W41305  27.947   5.018  13.255
69777W        W41306  19.215  15.130  12.578
69778W        W41307  42.431  19.839   0.242
69779W        W41308   5.554  11.057  13.170
69780W        W41309  24.716  30.610   3.550
69781W        W41310  37.820  22.058  11.985
69782W        W41311  21.595   2.040   3.781
69783W        W41312  39.142  17.181   4.561
69784W        W41313  24.258   9.084  12.548
69785W        W41314  30.407  38.581  12.246
69786W        W41315  14.724  25.589   3.516
69787W        W41316  28.928  37.868  13.670
69788W        W41317   2.330  33.408  11.187
69789W        W41318  24.041  39.357   1.646
69790W        W41319  12.608  22.807   4.051
69791W        W41320  22.721  12.298   4.355
69792W        W41321   6.096  24.064   2.723
69793W        W41322   3.997  12.145  11.552
69794W        W41323  27.591   2.260   4.162
69795W        W41324   0.565  34.171   2.177
69796W        W41325  31.378  23.475   4.126
69797W        W41326   2.276  29.140  11.108
69798W        W41327  43.867   6.303  14.450
69799W        W41328  24.530  34.903  14.405
69800W        W41329   6.668   1.722  12.612
69801W        W41330   4.338  20.091   1.376
69802W        W41331   3.270  13.395  14.059
69803W        W41332  14.561  28.388   4.200
69804W        W41333  24.058  42.923   3.853
69805W        W41334  43.926  29.178  14.625
69806W        W41335  39.487  10.744   0.694
69807W        W41336  39.737  20.878  13.152
69808W        W41337  24.479  14.198  10.766
69809W        W41338   1.468  31.115   2.191
69810W        W41339  21.422  28.155   1.370
69811W        W41340  14.778  36.528  12.089
69812W        W41341  15.204  44.996  13.396
69813W        W41342  11.200   8.436   4.602
69814W        W41343  44.935  31.486   0.466
69815W        W41344  16.020   7.153  11.975
69816W        W41345   8.058  18.368   1.020
69817W        W41346   9.195   3.441   3.199
69818W        W41347   9.661  35.487  11.401
69819W        W41348   0.671  15.888   3.305
69820W        W41349  34.344   1.429  14.703
69821W        W41350  26.885  14.183  12.918
69822W        W41351  27.638  32.140   2.928
69823W        W41352   5.927   1.463   1.338
69824W        W41353  15.845  42.308   2.234
69825W        W41354  37.899  38.740   2.338
69826W        W41355  14.842  31.613   2.293
69827W        W41356   0.749  18.320  13.465
69828W        W41357  29.837   8.173   1.614
69829W        W41358  42.109  11.608   2.863
69830W        W41359  26.093  39.942   1.211
69831W        W41360  19.846  23.530   4.121
69832W        W41361   0.229   4.993   2.081
69833W        W41362  30.066  18.557  13.050
69834W        W41363   9.425   6.413  11.575
69835W        W41364  23.502   8.306  12.841
69836W        W41365  23.170  23.367   3.265
69837W        W41366  28.214  35.315  13.464
69838W        W41367  44.163  27.965   3.814
69839W        W41368  11.393  20.054  14.933
69840W        W41369  12.809  28.389   4.213
69841W        W41370  25.176  35.417  11.702
69842W        W41371  10.867  42.868  13.772
69843W        W41372  20.274  34.353  13.435
69844W        W41373  44.769  12.658  13.955
69845W        W41374   5.783  20.217   4.572
69846W        W41375  17.201   6.165   4.126
69847W        W41376  39.555   8.809  12.451
69848W        W41377   0.998   8.291  13.036
69849W        W41378   7.285  16.164   4.224
69850W        W41379   4.896   4.357   2.215
69851W        W41380  34.402  28.725  11.524
69852W        W41381   5.398  43.822   2.680
69853W        W41382  19.643  27.485   0.809
69854W        W41383  30.432  23.034  14.750
69855W        W41384  18.800  28.885  12.667
69856W        W41385  28.516   5.015   0.316
69857W        W41386  42.671  22.409  14.003
69858W        W41387  21.820  38.041   3.170
69859W        W41388  13.390  32.443  11.544
69860W        W41389   9.562   0.110  11.214
69861W        W41390  25.498   1.800  12.154
69862W        W41391  40.243  12.802  13.973
69863W        W41392  34.417   5.368   4.336
69864W        W41393  39.492  38.730  14.683
69865W        W41394  31.879   2.907  13.525
69866W        W41395  44.759  44.487   4.146
69867W        W41396  35.855  16.801   3.695
69868W        W41397  42.845   2.820   0.770
69869W        W41398  36.180  24.764  13.331
69870W        W41399   6.345  12.883   1.387
69871W        W41400  24.506   9.980  13.531
69872W        W41401  40.755   3.828   0.887
69873W        W41402  14.906  23.097   0.760
69874W        W41403   7.717  16.274   3.683
69875W        W41404  34.202  27.002  10.359
69876W        W41405   6.244   6.663   0.357
69877W        W41406   4.672  22.610  13.416
69878W        W41407  43.326   7.150   3.721
69879W        W41408  31.253   5.152  14.858
69880W        W41409  28.370  15.190  11.513
69881W        W41410  42.206  36.156   2.584
69882W        W41411   0.482   6.949  12.380
69883W        W41412   2.694   9.312   4.604
69884W        W41413  16.964  23.433  12.482
69885W        W41414  18.173  30.173  10.367
69886W        W41415  42.209   5.376   1.301
69887W        W41416  36.548  39.596  12.032
69888W        W41417  21.823  33.096  10.636
69889W        W41418  17.089   2.414   3.701
69890W        W41419  21.696  20.787  14.453
69891W        W41420  14.553  22.610   2.700
69892W        W41421   4.388  29.553   1.878
69893W        W41422   6.332  24.887   3.420
69894W        W41423  44.050  27.940  12.099
69895W        W41424   0.603  27.736  14.052
69896W        W41425  34.358  11.991  14.246
69897W        W41426  35.045  11.760  11.562
69898W        W41427  15.907   7.566   1.386
69899W        W41428  32.981   5.810  11.712
69900W        W41429   4.868  40.041  10.882
69901W        W41430  25.701   4.489   3.647
69902W        W41431   9.852  26.717   0.424
69903W        W41432  34.892   2.504   3.676
69904W        W41433  34.372  33.605  12.189
69905W        W41434   1.257  42.370  10.773
69906W        W41435  36.785  22.965   1.734
69907W        W41436  19.861  22.661  11.717
69908W        W41437  16.238  42.533  13.124
69909W        W41438  16.216  28.055  10.556
69910W        W41439  21.136  31.698   2.381
69911W        W41440   6.466  24.658   0.058
69912W        W41441  19.725  37.562  12.016
69913W        W41442  12.698  39.831  12.434
69914W        W41443   3.943  31.547   0.777
69915W        W41444  33.162  32.891   2.903
69916W        W41445   1.352  22.719  13.852
69917W        W41446  33.181  32.223  11.618
69918W        W41447   9.266  39.801   0.439
69919W        W41448  14.600   3.045  14.435
69920W        W41449   1.217  39.887  12.887
69921W        W41450  36.033   6.340  12.115
69922W        W41451   8.233  35.970   1.881
69923W        W41452  11.696  42.990   3.742
69924W        W41453  36.029  17.009   4.129
69925W        W41454   4.711  30.955   0.305
69926W        W41455  41.796  42.902  14.126
69927W        W41456  24.773  28.537   0.763
69928W        W41457  34.036  18.841  11.620
69929W        W41458  43.554  42.400  10.915
69930W        W41459  42.074  28.087   2.053
69931W        W41460  13.738   4.523   2.299
69932W        W41461  19.252  24.536  11.031
69933W        W41462  33.411  32.957  12.842
69934W        W41463  42.412  27.920   0.625
69935W        W41464  12.269  34.889   3.398
69936W        W41465  37.460  37.452  12.905
69937W        W41466  29.645  33.591  14.037
69938W        W41467  38.407  30.566   0.865
69939W        W41468  42.803   0.486   2.382
69940W        W41469  32.014  31.589   3.353
69941W        W41470  23.786  18.173   1.466
69942W        W41471  33.556  44.989  13.569
69943W        W41472  42.733  35.957  10.466
69944W        W41473  14.898  21.736  13.811
69945W        W41474  16.144  16.247  13.909
69946W        W41475  13.835  30.164   4.070
69947W        W41476  21.056  43.336   4.098
69948W        W41477   8.183   6.688   3.815
69949W        W41478   6.890  35.471  13.955
69950W        W41479   4.250  25.817  11.147
69951W        W41480  18.838  21.761   1.537
69952W        W41481  20.443  20.096  11.468
69953W        W41482  34.155   9.311  11.512
69954W        W41483  26.201  15.281  13.328
69955W        W41484  36.939   4.404   4.625
69956W        W41485   8.883  24.704  13.077
69957W        W41486  42.264  23.790  11.312
69958W        W41487  26.454   7.157   4.079
69959W        W41488   8.167  39.401   3.900
69960W        W41489  38.347  29.322  10.326
69961W        W41490  14.105  30.158  12.055
69962W        W41491  10.133  34.782  14.407
69963W        W41492   6.385   3.305  13.683
69964W        W41493  29.996   9.894   3.380
69965W        W41494  15.664  21.122   3.733
69966W        W41495   7.886  38.079  13.748
69967W        W41496  43.841  44.306  10.579
69968W        W41497  42.505  35.613  10.806
69969W        W41498  29.691   9.119  11.713
69970W        W41499   4.367   0.952  10.932
69971W        W41500  12.843  21.034   0.835
69972W        W41501  17.562  20.656   1.244
69973W        W41502  43.410  32.883   1.244
69974W        W41503  31.097  40.222   3.149
69975W        W41504   6.676   4.731   3.599
69976W        W41505  30.086  39.905   2.821
69977W        W41506   9.698  41.092  14.323
69978W        W41507  29.764  25.068  10.222
69979W        W41508   9.927  16.159   3.358
69980W        W41509  31.188  42.338  10.652
69981W        W41510   9.241  41.450  13.984
69982W        W41511   2.509  40.661   2.404
69983W        W41512  36.887  40.604  13.016
69984W        W41513  35.913  35.450  14.890
69985W        W41514  32.676  31.568   3.686
69986W        W41515  20.387  31.412  11.581
69987W        W41516   8.771   3.462   1.302
69988W        W41517  39.324  16.136  11.669
69989W        W41518   9.834  25.958  14.044
69990W        W41519   4.633   0.222  13.593
69991W        W41520  40.560  15.722   1.521
69992W        W41521   7.798  15.430   2.301
69993W        W41522   0.833  13.519  14.194
69994W        W41523   1.480  26.599  13.833
69995W        W41524  11.750  25.694   0.427
69996W        W41525  40.024   6.502  11.925
69997W        W41526   7.890  14.145  14.020
69998W        W41527   1.069  17.447   5.010
69999W        W41528   6.481  38.345   4.116
70000W        W41529  31.680   0.539  12.110
70001W        W41530   6.758  41.505  11.090
70002W        W41531  35.336   6.868   1.048
70003W        W41532  23.161  20.582   4.275
70004W        W41533   2.716  38.529  11.990
70005W        W41534  12.665   7.759  13.610
70006W        W41535   4.438  38.595   1.722
70007W        W41536   0.846  16.097  11.860
70008W        W41537  35.629  15.238  14.285
70009W        W41538  41.298  39.422   1.344
70010W        W41539  15.734  30.202  13.906
70011W        W41540   3.240  30.359   1.040
70012W        W41541   3.771  18.334   4.985
70013W        W41542  16.808  20.616   0.803
70014W        W41543   0.746  35.590  14.838
70015W        W41544   4.225   1.968  11.157
70016W        W41545   6.234   3.375   0.848
70017W        W41546  21.088  14.112   1.085
70018W        W41547   6.274  14.610  12.963
70019W        W41548  36.604  20.798   2.357
70020W        W41549  30.826  41.443  12.270
70021W        W41550  15.707  34.573  13.736
70022W        W41551  40.256  22.109  13.639
70023W        W41552  15.886  17.426   1.089
70024W        W41553  38.325  27.883   3.216
70025W        W41554   2.482   4.861   1.445
70026W        W41555  30.923   4.686  13.995
70027W        W41556  10.049  13.664  11.212
70028W        W41557  18.593  44.011   1.895
70029W        W41558  10.934  40.535   3.591
70030W        W41559   2.259  43.904  13.099
70031W        W41560  25.136  21.696  14.551
70032W        W41561  23.995  28.995  10.808
70033W        W41562  32.655  35.489   2.589
70034W        W41563   6.569  14.985   3.830
70035W        W41564  10.819  14.612   0.388
70036W        W41565  28.882  25.663  14.380
70037W        W41566  24.524   6.992  10.527
70038W        W41567  40.510  42.847  10.712
70039W        W41568  16.613  12.582   2.650
70040W        W41569  41.280   9.270   4.951
70041W        W41570  16.837  32.595   0.284
70042W        W41571   2.843  34.309   3.137
70043W        W41572  34.967   7.686  13.884
70044W        W41573   4.003  24.671   2.266
70045W        W41574  30.974  14.858   3.221
70046W        W41575  32.661  10.414   3.642
70047W        W41576   8.751   9.601  12.921
70048W        W41577  16.511  15.827   1.880
70049W        W41578   9.261  19.807  11.062
70050W        W41579   6.961  39.794  10.561
70051W        W41580   2.373  43.201  11.999
70052W        W41581   7.578  34.864  13.951
70053W        W41582  22.923  28.094  11.242
70054W        W41583  13.194  16.426  14.844
70055W        W41584  39.318  12.857  10.525
70056W        W41585   4.358   4.991   0.215
70057W        W41586  20.418  24.672  12.283
70058W        W41587  32.108   6.668  14.556
70059W        W41588  29.972  25.102   2.578
70060W        W41589   4.903  15.868   0.719
70061W        W41590  35.724  24.142  12.871
70062W        W41591  22.212  19.328   0.708
70063W        W41592  38.701  43.677   2.710
70064W        W41593  26.906  30.501  11.161
70065W        W41594   0.033  25.078  14.494
70066W        W41595   1.975  34.891  13.062
70067W        W41596  23.286  31.469  11.912
70068W        W41597   5.243  24.259  14.534
70069W        W41598  23.932  14.132  14.912
70070W        W41599  12.590  32.082   0.065
70071W        W41600  39.361  24.185  11.225
70072W        W41601   5.656  23.008   1.508
70073W        W41602   0.221  23.723   2.875
70074W        W41603   6.735  41.913   3.068
70075W        W41604  34.513   2.012  10.784
70076W        W41605  39.657   6.381   2.826
70077W        W41606  15.185  18.820  12.316
70078W        W41607   9.253  44.933  11.929
70079W        W41608  26.871  25.261  13.749
70080W        W41609  38.914  34.690  13.953
70081W        W41610  33.290   3.336   4.621
70082W        W41611  26.973   9.307   2.257
70083W        W41612  30.513  35.178  13.338
70084W        W41613  29.437  43.917  10.572
70085W        W41614  39.875   1.151   4.677
70086W        W41615  23.442  12.774   1.072
70087W        W41616   5.974  19.749   4.494
70088W        W41617  31.259  14.576  12.966
70089W        W41618  24.492  25.286  14.723
70090W        W41619  18.039  33.195  12.099
70091W        W41620  32.082   3.507   3.234
70092W        W41621  31.672  27.213   0.770
70093W        W41622  41.969  36.948   4.037
70094W        W41623  24.510   3.153   4.497
70095W        W41624  35.560  30.002  13.714
70096W        W41625  11.031  20.734  12.482
70097W        W41626  22.460  17.004  10.652
70098W        W41627  40.041  17.745   1.932
70099W        W41628  15.100  15.186  14.981
70100W        W41629   9.839  41.710   1.773
70101W        W41630  18.189  42.328  11.953
70102W        W41631   7.456  44.873  11.169
70103W        W41632   1.230  17.010  12.100
70104W        W41633  33.485  21.866   0.733
70105W        W41634  33.027  38.330   2.657
70106W        W41635  43.902  23.367   3.710
70107W        W41636  18.140  37.885   1.415
70108W        W41637  29.112  12.331   0.683
70109W        W41638   9.342  31.608   3.853
70110W        W41639  34.858   4.727   3.764
70111W        W41640  27.049  25.483   4.321
70112W        W41641  22.521  25.648  14.401
70113W        W41642  26.994  35.044  13.401
70114W        W41643  21.880  11.767   4.652
70115W        W41644  44.783  42.520   1.438
70116W        W41645  29.572  36.981   1.456
70117W        W41646  20.145  31.125   0.448
70118W        W41647  17.185  39.359  13.233
70119W        W41648  33.424  27.111  12.910
70120W        W41649   9.799   6.667  14.549
70121W        W41650  16.099  10.153  13.963
70122W        W41651   0.673  34.621   1.935
70123W        W41652  34.046   7.251  13.600
70124W        W41653   3.120   1.749  12.088
70125W        W41654  18.867  34.630  12.446
70126W        W41655   9.802  17.783   1.180
70127W        W41656  20.638   8.255   1.104
70128W        W41657  41.784  18.474  11.435
70129W        W41658  14.207   7.189  13.811
70130W        W41659  32.000  21.844   0.714
70131W        W41660  41.776  43.533  12.343
70132W        W41661  34.704  15.609   1.334
70133W        W41662  18.718   9.945   1.451
70134W        W41663  42.968  18.656  14.442
70135W        W41664  33.910  42.111  14.667
70136W        W41665  30.352  23.508   0.471
70137W        W41666  30.425  38.875  13.972
70138W        W41667  14.541  28.613   2.384
70139W        W41668  43.653   4.429   4.804
70140W        W41669  20.768  21.035   3.389
70141W        W41670  19.782  43.055  13.788
70142W        W41671   0.844   7.895  11.854
70143W        W41672  23.945  31.479   2.700
70144W        W41673  25.971  14.136  10.830
70145W        W41674  30.600  21.222   4.924
70146W        W41675  13.194  10.699  10.380
70147W        W41676   3.184   6.777  14.718
70148W        W41677  43.495   4.636  14.947
70149W        W41678  23.720   5.413   3.200
70150W        W41679  26.067  40.780   0.302
70151W        W41680  42.281  15.288   1.237
70152W        W41681  14.178   5.968   0.422
70153W        W41682  35.537  44.949   1.967
70154W        W41683   2.958  14.864   4.083
70155W        W41684  21.799  40.009   0.974
70156W        W41685   3.386  42.563   0.697
70157W        W41686   2.352  42.899   4.142
70158W        W41687  41.329  37.542  11.127
70159W        W41688  35.229  23.574   0.838
70160W        W41689  33.637   9.227  11.298
70161W        W41690  44.041  15.105  12.013
70162W        W41691  41.496  25.452   3.298
70163W        W41692  24.536  38.057   4.766
70164W        W41693  24.059  36.389  10.722
70165W        W41694  12.101  15.098  13.536
70166W        W41695  29.093  14.714  14.586
70167W        W41696  26.631  11.298   9.933
70168W        W41697  16.681  30.023   0.664
70169W        W41698  17.461   4.633   1.685
70170W        W41699  43.886  10.708  10.672
70171W        W41700  23.257  36.585   3.649
70172W        W41701  24.312  26.793   5.215
70173W        W41702  37.529   1.812  13.942
70174W        W41703  34.957  25.465   4.076
70175W        W41704   1.656  21.872   0.946
70176W        W41705  32.039   2.531  14.808
70177W        W41706  14.553  40.333   3.544
70178W        W41707   4.966  40.697   4.137
70179W        W41708   9.682  41.547   0.238
70180W        W41709  20.760  33.466   0.812
70181W        W41710   0.785   1.472  12.529
70182W        W41711  35.476  38.981  13.336
70183W        W41712  26.574  42.866  10.727
70184W        W41713  19.070  22.610   3.154
70185W        W41714   2.299  31.938  13.999
70186W        W41715  39.939  32.825  11.393
70187W        W41716  10.873  31.958   2.829
70188W        W41717  27.329  38.519   4.179
70189W        W41718  14.300  11.699   3.774
70190W        W41719  36.684  37.441  14.548
70191W        W41720  12.859  31.620  12.502
70192W        W41721  10.541  29.179   4.005
70193W        W41722   0.767  29.366   3.173
70194W        W41723  28.869   4.344  12.966
70195W        W41724  21.196  32.387   2.731
70196W        W41725  34.819   0.641   4.915
70197W        W41726  24.339  37.712   2.046
70198W        W41727  11.767   4.314   3.337
70199W        W41728   4.691   7.711   1.532
70200W        W41729  22.940  10.762   2.275
70201W        W41730  19.752  43.873   4.166
70202W        W41731  43.366  32.332   2.173
70203W        W41732   4.956  39.058   1.372
70204W        W41733  18.309  19.652  10.649
70205W        W41734  40.814  37.273   0.257
70206W        W41735   3.999  18.325   1.267
70207W        W41736  36.288  24.253  13.280
70208W        W41737  29.198  44.760   1.242
70209W        W41738   1.680  42.721   0.406
70210W        W41739  10.764   8.095  14.749
70211W        W41740   3.820  35.752  10.815
70212W        W41741  22.299  11.194   0.451
70213W        W41742  31.116  24.016   1.928
70214W        W41743  41.538  29.088   2.786
70215W        W41744   0.459  27.198   3.256
70216W        W41745  21.013  35.467  13.579
70217W        W41746  34.529  42.335   3.845
70218W        W41747  19.722  30.706  14.275
70219W        W41748  34.427  20.549  10.792
70220W        W41749  15.344  29.472   0.817
70221W        W41750  10.632  29.601   4.278
70222W        W41751  39.264  25.403   0.407
70223W        W41752  11.217  34.921   0.303
70224W        W41753  25.076  22.491  10.778
70225W        W41754  32.905  33.515  12.328
70226W        W41755  23.294  37.469   2.656
70227W        W41756   6.198   6.357  14.939
70228W        W41757  44.453   5.303  14.536
70229W        W41758  28.636  20.753  13.546
70230W        W41759  13.707  29.076  10.441
70231W        W41760   8.804  37.737   0.736
70232W        W41761  32.425  24.600   3.863
70233W        W41762   2.471  26.668   4.903
70234W        W41763  23.490   9.665   0.407
70235W        W41764  19.523  15.767  10.718
70236W        W41765  24.516   9.861   2.101
70237W        W41766  32.352  43.458   4.446
70238W        W41767   2.766  34.644  14.414
70239W        W41768  25.807  32.426  12.387
70240W        W41769  17.207  43.020  11.590
70241W        W41770  37.894  36.030  10.749
70242W        W41771  37.913  42.406  14.431
70243W        W41772   0.295   4.589  11.519
70244W        W41773  42.583   6.973   2.925
70245W        W41774  25.111  17.804   1.843
70246W        W41775  39.438  12.731   2.250
70247W        W41776  31.627  19.051   4.413
70248W        W41777  26.866  36.526   2.717
70249W        W41778  27.040  43.773   2.672
70250W        W41779  31.620  35.932   0.035
70251W        W41780  40.396  20.511   0.400
70252W        W41781  22.129   7.709  14.367
70253W        W41782   1.895  41.521  14.878
70254W        W41783  27.993   4.340  10.431
70255W        W41784  27.762   8.194  12.287
70256W        W41785  39.458  33.006  13.001
70257W        W41786  34.134  30.089  14.335
70258W        W41787  16.625  33.912  10.773
70259W        W41788   4.128  33.700   4.317
70260W        W41789  37.734  39.389   0.679
70261W        W41790   0.723   7.287   1.457
70262W        W41791  14.637  40.967   0.871
70263W        W41792  11.244   1.979   5.526
70264W        W41793  29.959  27.205  14.962
70265W        W41794  34.551  30.078   4.787
70266W        W41795  13.618  25.152  12.620
70267W        W41796  12.957  21.403  11.896
70268W        W41797   5.939  17.143  11.131
70269W        W41798   7.145  24.226   3.635
70270W        W41799  32.712  15.178   1.304
70271W        W41800  20.065  41.073   2.721
70272W        W41801  39.441  44.770  11.863
70273W        W41802  28.661   9.220   3.742
70274W        W41803   3.675  33.681   3.259
70275W        W41804  37.628  41.662   4.209
70276W        W41805  16.711  12.586   4.911
70277W        W41806   5.407  23.835  12.586
70278W        W41807  13.427  39.407   4.351
70279W        W41808   9.030  29.513  11.673
70280W        W41809   5.374  22.473   3.732
70281W        W41810   5.963  15.880  14.932
70282W        W41811  16.822  31.951  14.907
70283W        W41812   6.476  29.894   0.277
70284W        W41813  36.609   5.704  12.891
70285W        W41814  25.940  42.928   3.315
70286W        W41815  42.078   8.190   2.286
70287W        W41816  18.496   1.170  14.643
70288W        W41817  18.120   6.143   2.892
70289W        W41818  33.358  25.244  12.558
70290W        W41819   5.278  33.946  13.019
70291W        W41820   0.495  21.136   1.335
70292W        W41821  25.986  40.022  11.991
70293W        W41822  44.878  26.122   0.981
70294W        W41823   8.991  10.137   0.908
70295W        W41824  37.395  21.262   2.371
70296W        W41825  15.271   0.014   0.311
70297W        W41826  10.040   2.663  12.934
70298W        W41827  36.574   3.819   3.304
70299W        W41828  33.200  34.731  14.589
70300W        W41829   1.558   8.667   3.332
70301W        W41830  41.061  35.554   3.378
70302W        W41831  24.976  41.933   1.920
70303W        W41832  33.973  27.408   1.011
70304W        W41833  32.622  36.894  14.673
70305W        W41834  30.951   6.713  13.951
70306W        W41835  28.891  43.970   3.186
70307W        W41836  41.904   8.983  12.567
70308W        W41837  26.151   9.858   1.516
70309W        W41838  22.085  17.820   0.908
70310W        W41839   8.556   9.837   0.685
70311W        W41840   8.966  43.975  13.963
70312W        W41841  34.507  25.552   0.825
70313W        W41842  44.477  35.917   2.234
70314W        W41843  24.979  28.108   2.391
70315W        W41844  24.063  13.839  10.730
70316W        W41845   4.145  34.986   4.626
70317W        W41846  15.583  39.526  10.745
70318W        W41847  43.947  31.042  12.477
70319W        W41848  12.720   4.501  12.667
70320W        W41849  18.396   8.004   3.763
70321W        W41850  17.577  31.470  12.450
70322W        W41851  33.505  13.339   3.556
70323W        W41852  44.453  20.769  10.969
70324W        W41853  40.775   6.967  14.404
70325W        W41854   0.438  36.391  14.586
70326W        W41855   0.745  26.695   3.238
70327W        W41856  36.972  34.861  12.517
70328W        W41857  15.062  17.571  13.572
70329W        W41858  31.993  27.953  13.777
70330W        W41859  33.566  10.285   2.724
70331W        W41860  19.388  41.842  14.263
70332W        W41861  43.450  32.071   3.762
70333W        W41862   5.437  11.799  12.453
70334W        W41863  42.475  18.277   5.004
70335W        W41864  30.460  15.634   0.330
70336W        W41865  25.737  24.654   2.792
70337W        W41866  41.785  17.260   1.220
70338W        W41867  29.044  33.249   1.999
70339W        W41868  40.564  33.850   2.831
70340W        W41869   0.491  40.135   2.393
70341W        W41870   7.504  16.841   4.863
70342W        W41871  14.344  33.509   5.004
70343W        W41872  39.555  30.520   0.951
70344W        W41873  42.580  19.817   3.086
70345W        W41874   7.798   4.473  13.652
70346W        W41875  24.307  13.479  11.077
70347W        W41876  26.077  36.883   4.817
70348W        W41877  10.926   7.167  12.109
70349W        W41878  43.016  39.488   3.280
70350W        W41879  43.880   6.620   4.796
70351W        W41880  12.224   4.821  14.030
70352W        W41881   3.154   8.763  12.475
70353W        W41882  40.362  36.620  13.158
70354W        W41883  18.718  18.597  13.071
70355W        W41884   4.984  27.437  11.027
70356W        W41885  14.204   2.002  11.427
70357W        W41886  33.379  15.720   2.666
70358W        W41887  26.437  13.173  14.810
70359W        W41888  39.034  12.244  13.375
70360W        W41889  18.252  28.399  13.080
70361W        W41890  34.577  17.270   4.848
70362W        W41891  11.759  11.899  14.281
70363W        W41892  21.120   7.777  11.172
70364W        W41893  34.818   6.864  13.371
70365W        W41894  18.933  19.232   4.078
70366W        W41895  22.453  37.309  10.374
70367W        W41896   1.713  37.665  13.501
70368W        W41897  25.457  26.044   0.246
70369W        W41898   0.232  20.399   3.554
70370W        W41899  38.418  25.157   1.290
70371W        W41900   8.185   4.677  12.489
70372W        W41901  18.622   5.309  14.796
70373W        W41902  18.279   4.436  14.734
70374W        W41903  20.120  42.846  14.508
70375W        W41904   3.267  34.672  14.522
70376W        W41905  37.451  38.533  14.424
70377W        W41906  31.577  27.125   0.279
70378W        W41907   0.772  37.687   5.276
70379W        W41908  36.389  23.594  10.763
70380W        W41909  25.719   0.041  13.555
70381W        W41910  15.191   6.409   3.379
70382W        W41911  22.488   2.238   3.900
70383W        W41912   0.269  16.890  12.001
70384W        W41913  27.598  17.974  10.837
70385W        W41914  44.784  33.973   1.387
70386W        W41915  25.693  15.096   1.318
70387W        W41916  37.433   6.377   4.767
70388W        W41917  23.628  39.842   9.679
70389W        W41918  12.748  21.527  14.481
70390W        W41919  13.338   4.083   2.797
70391W        W41920  11.381   1.014  12.039
70392W        W41921  14.676   2.462   2.912
70393W        W41922  20.292  19.599  10.683
70394W        W41923  17.841  19.006   0.028
70395W        W41924   1.821  15.843  12.068
70396W        W41925  23.983  38.241  12.210
70397W        W41926  27.923   9.872  10.991
70398W        W41927  43.449   9.415  11.375
70399W        W41928   9.816  28.837   0.282
70400W        W41929   9.259  15.253   0.938
70401W        W41930  13.383  33.395   3.805
70402W        W41931  33.541  11.877  13.891
70403W        W41932   1.517  36.870  13.004
70404W        W41933  31.478  39.972  11.992
70405W        W41934   6.144  29.906   2.584
70406W        W41935  16.262  44.309  11.586
70407W        W41936  29.212  43.520   2.825
70408W        W41937   8.362  14.650   1.004
70409W        W41938  28.637   3.651   1.721
70410W        W41939  43.975  30.148  13.338
70411W        W41940   5.204  36.072  11.621
70412W        W41941  33.538  12.943   4.704
70413W        W41942  10.108  22.948  12.510
70414W        W41943   9.914  13.742   2.320
70415W        W41944   0.463  25.442   0.560
70416W        W41945  31.225  32.173   0.068
70417W        W41946  29.980  19.592   4.161
70418W        W41947  15.348  17.751  11.325
70419W        W41948  35.931  44.565   0.293
70420W        W41949  23.019  32.878  11.322
70421W        W41950  23.760  44.235  14.477
70422W        W41951  17.991  11.061  11.215
70423W        W41952  12.694  43.930   1.633
70424W        W41953   6.695   8.883  12.932
70425W        W41954  18.216  11.701   0.239
70426W        W41955  33.462   4.719  12.410
70427W        W41956  18.547   2.072  13.433
70428W        W41957  19.623  30.792   2.270
70429W        W41958  20.053   7.864  13.082
70430W        W41959  23.480  25.447   0.370
70431W        W41960   9.323  22.139   3.361
70432W        W41961  18.701  21.085  14.270
70433W        W41962  22.556  24.065  11.095
70434W        W41963  22.652  38.342  11.163
70435W        W41964  27.659  14.578   4.831
70436W        W41965  10.357  22.442   5.064
70437W        W41966  39.167  43.399  13.438
70438W        W41967   8.373  16.324  10.680
70439W        W41968  28.084  16.213   0.919
70440W        W41969  38.424  21.248  10.685
70441W        W41970  11.042   2.857  13.908
70442W        W41971   3.499  11.332   2.384
70443W        W41972  17.085  18.630  14.506
70444W        W41973  26.031  26.705   2.857
70445W        W41974  31.127  36.130  11.119
70446W        W41975  20.687  40.435   2.219
70447W        W41976  35.362  38.061  14.920
70448W        W41977  39.823  18.629  13.822
70449W        W41978  15.559  33.019   2.289
70450W        W41979  10.117   0.793   3.419
70451W        W41980  27.971  13.367  11.665
70452W        W41981  42.946  11.847  10.554
70453W        W41982  38.046   2.268   1.388
70454W        W41983  10.049   1.844  12.782
70455W        W41984  39.415  10.551   0.220
70456W        W41985  40.704  30.093  11.212
70457W        W41986  43.550   9.249  14.880
70458W        W41987  39.987  20.151  13.510
70459W        W41988  41.831  26.842  13.811
70460W        W41989   0.794  11.920  11.264
70461W        W41990   2.289  20.191   0.916
70462W        W41991  19.253  29.875  14.430
70463W        W41992  13.301  22.141   4.413
70464W        W41993  23.052  13.070  12.815
70465W        W41994  10.463  34.651   3.261
70466W        W41995  43.981   9.631  12.523
70467W        W41996  22.640  40.319   4.115
70468W        W41997  27.674  34.551   1.337
70469W        W41998   6.065  19.156  11.833
70470W        W41999  19.523   6.958  13.810
70471W        W42000  20.104  30.513   4.459
70472W        W42001   4.952  27.688  14.444
70473W        W42002  10.037  42.322   4.264
70474W        W42003   6.176   6.043  14.537
70475W        W42004   4.866  13.517  13.804
70476W        W42005   8.642  10.344  14.470
70477W        W42006  20.928   7.709  12.438
70478W        W42007   3.999   4.371   3.192
70479W        W42008  11.700   7.718   4.538
70480W        W42009  14.654  26.524   1.871
70481W        W42010  41.806  32.620   2.799
70482W        W42011  42.540  16.593  12.557
70483W        W42012  39.093  25.520  12.845
70484W        W42013  17.631   8.727  10.739
70485W        W42014  13.160  32.685  11.161
70486W        W42015  31.505  29.129  11.651
70487W        W42016  12.862   5.427   3.088
70488W        W42017  41.683  25.418   4.312
70489W        W42018  19.004  32.172  12.005
70490W        W42019  13.425  41.384  12.880
70491W        W42020  26.635   1.464  11.640
70492W        W42021  38.330  29.047  14.559
70493W        W42022  25.765  29.782  14.214
70494W        W42023  24.497  12.731   3.998
70495W        W42024  30.014  43.763   3.267
70496W        W42025  17.137  12.664   4.593
70497W        W42026  34.040  42.080   2.154
70498W        W42027  38.522   0.316   2.129
70499W        W42028  30.008  38.348  10.471
70500W        W42029  14.546   0.158   4.506
70501W        W42030  21.056  23.990   3.032
70502W        W42031  10.876   0.429  12.657
70503W        W42032  21.074   1.061   3.263
70504W        W42033  34.449  18.526   2.876
70505W        W42034   3.903  10.389  14.411
70506W        W42035  19.571  24.485   2.773
70507W        W42036  27.440  21.547   0.708
70508W        W42037  37.943  16.517   4.278
70509W        W42038   2.436   0.240   4.013
70510W        W42039  42.535  13.355   4.660
70511W        W42040   6.373   2.035   0.419
70512W        W42041  29.902  34.162   3.214
70513W        W42042  14.357  44.055   5.104
70514W        W42043  25.867  15.560   3.933
70515W        W42044   6.450  23.957  11.591
70516W        W42045  24.118  19.058   4.369
70517W        W42046  43.623  43.849  10.785
70518W        W42047  20.317  31.505   1.252
70519W        W42048   5.183   3.669  10.700
70520W        W42049  39.754  34.102  10.704
70521W        W42050  16.565  15.478  12.289
70522W        W42051  16.817  39.379   1.536
70523W        W42052  13.891  33.124   1.703
70524W        W42053  20.805  18.241   1.837
70525W        W42054  36.928   8.457  10.733
70526W        W42055   1.044  22.070  11.507
70527W        W42056  44.843  35.914  10.798
70528W        W42057   8.864  11.673  11.952
70529W        W42058  39.471  15.186  10.977
70530W        W42059   1.431  43.571  12.076
70531W        W42060  23.716  17.299  13.466
70532W        W42061  10.226  23.709  13.932
70533W        W42062   8.339  28.951  11.147
70534W        W42063  19.023  29.697   2.174
70535W        W42064  10.652  24.229  14.601
70536W        W42065   0.468   1.944   2.739
70537W        W42066  32.177  11.689   3.672
70538W        W42067  25.243  14.105  12.726
70539W        W42068  43.592   3.018  11.901
70540W        W42069  44.885  31.437  12.162
70541W        W42070   0.380  29.137   3.612
70542W        W42071  26.598  36.653  12.044
70543W        W42072  14.472  36.042  14.704
70544W        W42073  22.433   1.048  14.322
70545W        W42074  16.869   3.901   3.853
70546W        W42075  31.037  38.740   4.194
70547W        W42076  16.055  31.839  14.389
70548W        W42077  15.753   2.409   1.228
70549W        W42078  17.320  35.799  12.548
70550W        W42079  26.617  21.701  14.294
70551W        W42080   9.309  42.235  11.110
70552W        W42081  32.001  27.951  12.029
70553W        W42082  41.597  22.330  12.627
70554W        W42083  13.359  38.938   4.563
70555W        W42084   4.347  11.351  11.161
70556W        W42085  32.631  18.311   1.500
70557W        W42086  25.795  11.402  13.428
70558W        W42087   0.330  29.714  11.480
70559W        W42088  18.745  17.623  12.018
70560W        W42089   4.206   9.601   4.111
70561W        W42090   7.413  17.323   0.458
70562W        W42091  26.422  44.579   1.198
70563W        W42092  40.974  38.595   2.324
70564W        W42093  43.615  12.576   4.090
70565W        W42094  27.241  13.662  11.924
70566W        W42095  17.739  35.854  13.568
70567W        W42096  16.596  24.466  10.299
70568W        W42097  23.547  18.201  13.602
70569W        W42098  14.077   0.617   5.013
70570W        W42099  44.765  36.507   3.226
70571W        W42100  29.858  37.495   0.960
70572W        W42101  23.690  17.426   1.377
70573W        W42102  32.651  20.669   2.504
70574W        W42103  40.853  23.967   2.364
70575W        W42104  32.147  41.915   2.703
70576W        W42105   5.083   4.089  10.177
70577W        W42106  39.240  21.964   0.370
70578W        W42107   2.223   4.817   2.882
70579W        W42108  27.013  25.395  11.312
70580W        W42109  25.658  24.663   4.180
70581W        W42110   8.812  40.878   2.605
70582W        W42111  16.805  25.012  11.107
70583W        W42112  21.750  40.489  13.769
70584W        W42113  34.480  14.798  11.739
70585W        W42114  34.533  37.928   3.610
70586W        W42115  14.588  43.908  13.401
70587W        W42116  11.883  34.512   0.789
70588W        W42117  18.080  41.498   1.923
70589W        W42118  37.070  12.702   0.336
70590W        W42119   8.156  10.732  11.040
70591W        W42120  14.187  19.471  10.661
70592W        W42121  26.933   2.277  13.528
70593W        W42122  21.128   7.030   0.704
70594W        W42123  26.885  17.238   3.098
70595W        W42124  34.364   4.749   1.723
70596W        W42125  17.106  21.841  13.846
70597W        W42126  11.364   2.310   0.514
70598W        W42127   5.360  19.373   0.757
70599W        W42128  39.888  27.106   2.894
70600W        W42129  43.006   6.398  13.922
70601W        W42130  24.923  36.105   0.780
70602W        W42131   9.885  35.914   3.053
70603W        W42132  16.316   2.994   0.025
70604W        W42133  25.611  13.128  11.139
70605W        W42134   0.327  43.567   0.577
70606W        W42135  29.630  36.899  14.335
70607W        W42136  22.746  32.922   1.447
70608W        W42137   9.893  27.682  13.499
70609W        W42138  25.502   7.198  12.970
70610W        W42139  21.849  33.514  13.551
70611W        W42140   5.886  42.485  11.893
70612W        W42141   7.664  10.935   3.286
70613W        W42142  41.978  38.786  13.987
70614W        W42143   2.603  33.710  14.877
70615W        W42144  35.936   2.281  12.435
70616W        W42145  17.660  24.070  11.871
70617W        W42146  26.473  25.049   3.952
70618W        W42147  36.466   0.848  13.998
70619W        W42148  14.040  30.976  12.432
70620W        W42149  35.925  42.293  14.862
70621W        W42150  42.498  32.926  14.939
70622W        W42151  30.715   5.184  12.657
70623W        W42152   8.516   7.663   3.765
70624W        W42153  16.013  39.910   4.128
70625W        W42154  35.255  28.177  10.436
70626W        W42155  35.497  25.213  13.865
70627W        W42156  18.230  24.756   2.866
70628W        W42157  39.268  16.099  13.054
70629W        W42158   9.588  11.747  14.940
70630W        W42159  33.539  38.588  12.935
70631W        W42160   0.223  24.114   2.133
70632W        W42161  39.395  29.394   4.527
70633W        W42162  43.485  19.270   4.191
70634W        W42163  13.222  39.161   0.981
70635W        W42164  24.638  11.132   0.812
70636W        W42165  26.096  38.820  11.573
70637W        W42166  43.090  35.346   0.362
70638W        W42167  39.978   4.171  12.690
70639W        W42168  39.749   5.269   2.810
70640W        W42169   2.077  29.215  14.258
70641W        W42170  14.635  37.266   3.806
70642W        W42171  34.627  44.435   1.451
70643W        W42172   8.859  34.163  11.076
70644W        W42173  39.936  38.285   3.642
70645W        W42174  34.920   3.960  12.503
70646W        W42175  30.502  23.148   0.849
70647W        W42176  16.253  36.204   3.804
70648W        W42177  35.332  19.721   3.705
70649W        W42178   2.850   9.273   0.505
70650W        W42179  23.910  40.033   4.380
70651W        W42180  43.080   8.954   3.579
70652W        W42181   3.013  29.716  12.202
70653W        W42182  34.040  34.879   4.069
70654W        W42183  40.051  14.842   0.162
70655W        W42184   0.906  10.867  11.620
70656W        W42185  38.448  43.738   1.867
70657W        W42186  17.022  38.006  10.937
70658W        W42187  41.863  30.516  14.180
70659W        W42188   8.937  28.186  13.542
70660W        W42189  11.702  18.580  11.548
70661W        W42190   5.933  10.250   2.799
70662W        W42191   1.744   3.206   1.257
70663W        W42192  30.969  34.364  12.160
70664W        W42193  10.820  40.274   2.765
70665W        W42194  40.176  30.083  12.379
70666W        W42195   2.042  21.167   0.172
70667W        W42196  32.901   2.818   3.348
70668W        W42197  20.203  44.521   1.314
70669W        W42198   5.638   7.771  13.272
70670W        W42199  27.420  15.671  12.834
70671W        W42200  21.009  12.344  10.048
70672W        W42201  13.592  11.908   4.223
70673W        W42202  23.850  13.539   3.968
70674W        W42203  16.755  38.147   3.632
70675W        W42204  33.427  21.084  13.897
70676W        W42205  17.097  34.347  13.031
70677W        W42206  13.665  38.906   3.190
70678W        W42207  12.882  23.289  12.624
70679W        W42208   0.099  10.823   0.255
70680W        W42209   5.120   2.724  12.607
70681W        W42210  13.691  14.048   3.196
70682W        W42211   8.063  14.146   2.349
70683W        W42212  17.841   6.697   3.577
70684W        W42213  42.534  16.684   1.269
70685W        W42214  32.596   0.113  12.084
70686W        W42215  42.368   4.473   1.844
70687W        W42216  11.196  33.070  13.116
70688W        W42217  17.679   1.798  12.060
70689W        W42218  13.016   8.610  13.368
70690W        W42219  22.657   3.664   2.860
70691W        W42220   8.643  28.042   0.607
70692W        W42221  30.014  30.384  12.577
70693W        W42222  32.943  27.140  12.775
70694W        W42223  38.584   2.399   4.130
70695W        W42224   2.401   7.742  12.359
70696W        W42225   5.489  24.222   2.178
70697W        W42226  37.656   4.734   4.421
70698W        W42227  31.854  36.451  14.857
70699W        W42228  28.487  37.549  11.543
70700W        W42229  18.197  34.582   2.686
70701W        W42230  24.830   8.094  14.904
70702W        W42231  10.097  15.173   3.523
70703W        W42232  20.287  10.194  14.392
70704W        W42233  34.379  16.078  11.564
70705W        W42234  24.223  15.194   1.923
70706W        W42235  18.471  33.455  14.743
70707W        W42236  44.251   6.746   2.714
70708W        W42237  25.193  41.451  13.519
70709W        W42238  29.545   2.150  11.108
70710W        W42239  28.467  23.127   2.872
70711W        W42240  44.866  25.032   0.033
70712W        W42241  11.415  44.329   2.760
70713W        W42242  14.313   5.824  11.145
70714W        W42243  24.474  42.002  11.592
70715W        W42244  37.507  19.793  11.584
70716W        W42245  35.436   9.250   0.427
70717W        W42246  32.116  44.734  10.978
70718W        W42247   9.908  15.910   2.928
70719W        W42248  15.530  15.711  11.997
70720W        W42249  42.453   3.948  10.664
70721W        W42250   0.644  32.772  10.534
70722W        W42251  14.407   6.733   4.060
70723W        W42252  20.058  23.799  11.607
70724W        W42253  27.994   0.892  11.933
70725W        W42254  41.194   3.613   4.592
70726W        W42255  29.237  28.175  12.465
70727W        W42256  14.515  21.953  12.480
70728W        W42257  34.641  10.847   4.774
70729W        W42258   3.022  38.553  14.253
70730W        W42259  23.479   2.151  12.068
70731W        W42260   1.800  15.649  11.060
70732W        W42261  38.395  42.962   2.531
70733W        W42262  21.820   2.914   4.160
70734W        W42263  44.785  34.426   1.686
70735W        W42264  30.527  12.367  13.980
70736W        W42265   9.124  30.053  13.097
70737W        W42266  40.502  41.762   1.696
70738W        W42267  23.688   8.996   2.701
70739W        W42268  19.024  12.056  14.497
70740W        W42269   4.743   9.151  10.893
70741W        W42270  43.021  35.196   3.587
70742W        W42271  16.690  43.712   0.621
70743W        W42272  40.399  17.734  11.662
70744W        W42273  11.766  10.368   3.761
70745W        W42274  22.658   2.186   3.428
70746W        W42275  29.921  18.569  13.556
70747W        W42276  18.268  17.441   2.371
70748W        W42277  33.077  42.405   1.660
70749W        W42278  29.733  34.847  12.550
70750W        W42279  23.534  28.294   4.613
70751W        W42280  42.456  21.328   1.879
70752W        W42281  28.502  39.398  14.198
70753W        W42282  11.379  16.719  10.431
70754W        W42283  40.847   6.781   1.847
70755W        W42284  33.184  11.355   0.601
70756W        W42285  41.947  32.161   2.556
70757W        W42286  16.390  15.348  12.953
70758W        W42287  19.718  21.124  13.774
70759W        W42288  43.739  39.857   4.232
70760W        W42289  31.939  39.731  11.272
70761W        W42290  29.287  24.237  12.983
70762W        W42291  21.876   5.221   1.878
70763W        W42292  19.274  15.682   4.388
70764W        W42293  22.625  33.061  14.542
70765W        W42294  38.877  37.595  10.555
70766W        W42295  17.262  22.218  14.856
70767W        W42296  35.058  33.033   1.475
70768W        W42297  29.196  32.161  14.833
70769W        W42298  14.785  21.958  11.662
70770W        W42299  28.383  12.711   0.910
70771W        W42300  14.359  25.555   4.639
70772W        W42301  15.113  20.873   0.565
70773W        W42302  19.508   3.849  10.708
70774W        W42303  42.404  40.413   1.843
70775W        W42304  31.827   1.716  11.144
70776W        W42305   4.981  34.945  10.171
70777W        W42306  36.148  19.777   0.875
70778W        W42307  26.569  44.965   0.424
70779W        W42308  30.163  38.684   3.616
70780W        W42309  13.118  10.011   4.081
70781W        W42310  29.601  34.161   3.633
70782W        W42311  32.083  30.215  12.641
70783W        W42312  35.386   6.457  12.507
70784W        W42313  36.888  11.334  14.089
70785W        W42314  20.201  37.858   2.777
70786W        W42315  39.324  20.486   0.292
70787W        W42316   5.537  19.763   3.965
70788W        W42317  41.758  20.114   4.498
70789W        W42318  38.016  16.030  13.479
70790W        W42319  33.948  14.572   3.285
70791W        W42320  32.921   9.798   3.185
70792W        W42321  30.960  19.094   2.775
70793W        W42322   2.269  26.626   2.273
70794W        W42323  28.162   8.361  11.551
70795W        W42324  27.166   9.483   4.102
70796W        W42325  15.268  36.977  11.067
70797W        W42326  23.430   5.340  12.616
70798W        W42327  15.157  30.138  11.145
70799W        W42328   0.016  31.274   3.212
70800W        W42329  10.501  14.371  13.327
70801W        W42330   8.206  21.074  14.008
70802W        W42331  42.233  41.892  11.030
70803W        W42332  32.973  29.377  14.917
70804W        W42333  12.091  32.145   1.684
70805W        W42334  42.366  36.348  12.166
70806W        W42335  33.998  38.466   2.456
70807W        W42336   2.441  24.956  13.908
70808W        W42337  44.253  15.571  10.085
70809W        W42338   4.785  32.033  11.041
70810W        W42339  19.683  31.689  14.516
70811W        W42340  18.549   2.477  12.174
70812W        W42341   9.168  27.234  11.005
70813W        W42342  31.658  28.573   1.414
70814W        W42343  26.045  16.133  10.735
70815W        W42344  37.209   5.245  13.237
70816W        W42345  18.529  20.283   4.589
70817W        W42346   7.834  41.845   2.254
70818W        W42347  13.468  13.141   1.385
70819W        W42348   4.419  25.085   3.344
70820W        W42349   2.720   7.387  13.458
70821W        W42350  16.249  35.965  12.492
70822W        W42351  39.498  14.243   2.896
70823W        W42352  44.238  17.113   3.637
70824W        W42353  17.429  13.546  14.587
70825W        W42354  36.267  28.562   3.672
70826W        W42355  33.348  18.662   1.835
70827W        W42356  22.580  37.596  13.135
70828W        W42357  42.115  31.844  11.462
70829W        W42358  38.468   5.395  14.014
70830W        W42359  11.799   4.908  13.762
70831W        W42360  32.056  12.745   4.768
70832W        W42361  41.436  29.889   2.319
70833W        W42362  29.025  42.872  10.724
70834W        W42363  39.480   5.651  14.843
70835W        W42364  36.667  28.555   0.352
70836W        W42365  31.682  24.758  12.596
70837W        W42366  40.568   5.769  10.440
70838W        W42367  35.789  19.640  13.887
70839W        W42368  38.132  20.711   3.680
70840W        W42369  29.220   9.300   4.489
70841W        W42370  34.862  19.997  13.790
70842W        W42371  11.654  16.780  12.876
70843W        W42372  28.987  44.663  14.424
70844W        W42373  11.818  19.926   1.086
70845W        W42374  37.974  38.390  12.653
70846W        W42375  34.530  32.650   3.487
70847W        W42376  42.725  40.262  11.687
70848W        W42377  43.848  39.286  12.602
70849W        W42378  29.388  36.991   4.123
70850W        W42379  24.178  16.743  14.688
70851W        W42380  36.601  24.993  14.391
70852W        W42381  25.496  22.507   1.585
70853W        W42382   2.661  26.096   1.870
70854W        W42383  33.598   3.418   2.198
70855W        W42384  37.632  17.033  13.490
70856W        W42385  33.478  14.405   2.196
70857W        W42386  16.532  22.336  14.338
70858W        W42387  44.830  34.372  10.085
70859W        W42388  20.817  33.551  13.411
70860W        W42389  20.709  12.576   0.910
70861W        W42390  24.415  30.580  11.299
70862W        W42391  23.571  21.156   1.785
70863W        W42392  31.878  21.610  14.827
70864W        W42393  22.809  14.704   0.485
70865W        W42394   7.411  11.057   1.785
70866W        W42395  31.189  36.055   2.874
70867W        W42396  12.770  28.815   2.406
70868W        W42397   7.280  14.268  12.480
70869W        W42398  25.503   2.757   0.596
70870W        W42399  11.412   0.418   3.170
70871W        W42400  33.573  39.953   1.925
70872W        W42401  20.828  41.457  10.708
70873W        W42402  26.944  32.178  13.099
70874W        W42403   9.713  16.334   2.658
70875W        W42404  37.356  20.162   3.732
70876W        W42405  41.307   9.353  13.982
70877W        W42406  29.027  44.294  13.516
70878W        W42407   7.222  40.427   3.083
70879W        W42408   5.111  40.345  12.593
70880W        W42409  40.252  31.016  12.829
70881W        W42410  14.833  24.381  10.605
70882W        W42411   8.958  43.934  13.105
70883W        W42412  18.428  40.456   4.191
70884W        W42413   9.880  25.465  14.958
70885W        W42414   8.806  36.611   2.918
70886W        W42415  29.209  22.134   3.197
70887W        W42416   3.491  39.743   2.956
70888W        W42417  19.546  26.242  13.007
70889W        W42418  21.676  34.003  14.796
70890W        W42419  38.793  37.242  13.617
70891W        W42420  11.330  34.674  10.514
70892W        W42421  25.090   3.154  12.432
70893W        W42422  24.699   1.666   2.881
70894W        W42423  17.192  39.364   1.891
70895W        W42424   6.442  36.025   2.591
70896W        W42425   8.693   3.406   3.114
70897W        W42426  36.740  27.773  13.173
70898W        W42427  44.415  29.548  12.211
70899W        W42428  42.423  17.658   1.659
70900W        W42429   7.080   4.495   2.441
70901W        W42430  24.137  15.217   0.401
70902W        W42431  20.232   2.426   1.045
70903W        W42432  10.400  23.113   4.318
70904W        W42433  13.749  16.943   0.488
70905W        W42434  27.211  14.671   1.784
70906W        W42435  18.764  35.005   0.205
70907W        W42436   4.451  34.051   3.589
70908W        W42437  26.677  33.892   1.397
70909W        W42438   2.176  39.345   2.223
70910W        W42439  30.923  18.567   3.451
70911W        W42440   9.809   9.639  13.926
70912W        W42441  11.050  41.509  14.859
70913W        W42442  31.459  17.351  12.428
70914W        W42443   4.448  24.034  10.987
70915W        W42444  23.601  42.779   1.801
70916W        W42445   8.219  34.363   0.470
70917W        W42446   3.110  18.682  10.736
70918W        W42447   1.541  44.316   3.695
70919W        W42448  30.527  43.016  14.875
70920W        W42449   2.738   5.588  11.576
70921W        W42450  27.817  24.668  14.713
70922W        W42451   8.309  11.583   0.382
70923W        W42452  11.376  35.719  12.362
70924W        W42453  41.340  26.165   1.257
70925W        W42454  35.021  19.772  14.235
70926W        W42455   3.208  33.022  14.875
70927W        W42456  34.471  16.424   0.474
70928W        W42457  10.278   5.566   9.896
70929W        W42458  28.454   5.157   2.663
70930W        W42459  21.664  27.990  14.037
70931W        W42460  13.849  27.084   0.763
70932W        W42461  30.905  25.492   0.232
70933W        W42462  43.497  33.732  13.641
70934W        W42463  11.593   4.451   0.803
70935W        W42464  44.413  44.827   2.476
70936W        W42465  18.892  16.322   2.878
70937W        W42466  34.099   0.989   1.825
70938W        W42467  23.417  10.270   1.124
70939W        W42468  31.003  30.907   0.327
70940W        W42469  35.283   4.671   4.608
70941W        W42470  15.800  26.730  12.386
70942W        W42471  43.061  16.124  10.976
70943W        W42472  41.820  27.187   4.308
70944W        W42473  19.735   0.368  12.077
70945W        W42474  39.513   0.924   0.809
70946W        W42475  27.871  22.494   2.910
70947W        W42476   5.688  39.201  14.574
70948W        W42477  25.128  22.717   2.375
70949W        W42478   1.870  30.432  12.123
70950W        W42479  14.583  39.937   3.877
70951W        W42480  41.302   2.284   4.686
70952W        W42481  29.395  39.367  13.105
70953W        W42482   1.000  12.403   4.181
70954W        W42483  21.181  19.697   1.484
70955W        W42484  44.852  22.505  12.311
70956W        W42485  16.762  42.579   0.880
70957W        W42486  41.979  12.409   0.429
70958W        W42487   2.920  26.741  14.444
70959W        W42488  25.133  22.954  14.773
70960W        W42489  15.902  16.646  10.333
70961W        W42490  32.466  22.192  12.890
70962W        W42491  15.189   6.891  12.926
70963W        W42492  18.339   0.796   3.410
70964W        W42493   4.858   1.599   1.796
70965W        W42494  26.510  25.543   2.191
70966W        W42495   6.602  41.894   0.837
70967W        W42496  25.661  42.887  12.522
70968W        W42497  25.714  23.888   3.119
70969W        W42498  27.410  14.972   5.090
70970W        W42499  38.143  33.591  10.468
70971W        W42500   7.290  35.403   0.099
70972W        W42501  38.319  22.089  11.080
70973W        W42502   8.171   8.182   4.479
70974W        W42503   8.655  10.407  12.461
70975W        W42504  32.918  28.512   4.672
70976W        W42505   5.989  23.972  14.865
70977W        W42506  23.313  15.761   3.777
70978W        W42507  12.088  18.671  13.049
70979W        W42508  26.863  32.964  12.934
70980W        W42509   2.115  19.614   4.552
70981W        W42510   6.216  29.384   1.807
70982W        W42511  18.035  18.714   0.447
70983W        W42512  20.539  28.402   1.363
70984W        W42513  38.566   4.651  10.358
70985W        W42514  36.860  41.629   0.695
70986W        W42515  40.039   2.934   0.209
70987W        W42516  22.295  24.893   0.321
70988W        W42517  10.644   9.314   1.748
70989W        W42518  39.345  33.373   0.324
70990W        W42519  18.756  36.457  12.254
70991W        W42520  31.885  39.589   3.231
70992W        W42521  43.396  44.202   3.575
70993W        W42522  10.892  38.956  13.548
70994W        W42523  22.181  24.460  14.299
70995W        W42524   1.854  43.329   1.804
70996W        W42525  16.443  26.092   4.661
70997W        W42526  18.296   4.139   1.195
70998W        W42527  28.624  11.206  13.948
70999W        W42528  35.188  32.120   1.017
71000W        W42529  43.331   9.389   4.320
71001W        W42530   8.383  12.620   4.764
71002W        W42531   1.730  23.923   0.201
71003W        W42532   7.766  22.116  14.948
71004W        W42533  28.496  38.541  14.391
71005W        W42534   4.300  16.828  10.719
71006W        W42535  21.817  21.930   0.309
71007W        W42536  22.196   3.809  13.922
71008W        W42537  36.951   1.222  10.686
71009W        W42538  20.431  26.188   3.663
71010W        W42539  27.591  13.052  11.501
71011W        W42540  33.824  20.478  14.383
71012W        W42541  32.065  34.329  12.513
71013W        W42542   8.714  40.358  10.735
71014W        W42543  16.378  17.020   4.684
71015W        W42544  23.040  43.344   3.732
71016W        W42545  34.094  30.413   4.205
71017W        W42546  17.695  15.315  11.616
71018W        W42547  28.092   5.127   4.062
71019W        W42548  11.280   6.165  13.009
71020W        W42549  25.711  28.961  12.120
71021W        W42550  35.519  43.565   4.346
71022W        W42551  37.305  41.534   4.603
71023W        W42552  12.740  12.336  14.891
71024W        W42553  41.903  40.059   1.816
71025W        W42554  44.051   1.913   0.081
71026W        W42555   1.622   9.460  13.102
71027W        W42556   1.076  32.046   1.299
71028W        W42557  11.750  26.067   3.668
71029W        W42558   2.534  15.509   4.089
71030W        W42559  36.157  14.391   3.234
71031W        W42560  27.144  16.614   2.920
71032W        W42561   3.908   6.942   4.043
71033W        W42562  26.698  44.440  13.033
71034W        W42563  10.332  30.798   1.775
71035W        W42564  27.089  15.141  12.899
71036W        W42565  19.179  31.152   2.875
71037W        W42566  14.389   3.518  14.377
71038W        W42567  44.376   8.135   3.713
71039W        W42568   3.833  24.714   0.242
71040W        W42569  10.204  28.615  10.737
71041W        W42570  38.101  14.801  12.554
71042W        W42571  39.317  16.315  13.929
71043W        W42572  42.725  12.087  10.999
71044W        W42573  13.025  35.570  13.062
71045W        W42574  14.217  38.583  12.322
71046W        W42575  18.176  39.913   0.059
71047W        W42576   3.344  16.628   2.277
71048W        W42577  37.377  11.711  13.470
71049W        W42578   5.292  14.104   0.984
71050W        W42579  44.832  19.789  14.612
71051W        W42580  13.444  31.221   4.255
71052W        W42581  28.340  29.534  12.388
71053W        W42582  20.566  16.527  13.123
71054W        W42583   5.202  10.763  12.002
71055W        W42584  32.679   6.476   4.313
71056W        W42585  35.340  17.746   4.724
71057W        W42586  39.486  26.897   3.155
71058W        W42587  15.771  19.422  12.381
71059W        W42588  18.230  32.611   0.780
71060W        W42589  16.501   4.728   0.343
71061W        W42590  10.593  33.652   4.219
71062W        W42591  13.221  14.252   3.196
71063W        W42592  43.185  28.801  11.097
71064W        W42593   9.763  25.245   1.416
71065W        W42594  36.489  21.572   2.820
71066W        W42595  44.075  38.485  12.978
71067W        W42596  30.970  34.319   3.141
71068W        W42597   6.830  33.343  14.495
71069W        W42598  13.890  29.467  11.134
71070W        W42599  35.488  17.704  12.811
71071W        W42600  36.706  33.158   0.763
71072W        W42601  12.425   4.940   3.647
71073W        W42602  32.830   4.724   0.499
71074W        W42603  20.743  32.141   4.226
71075W        W42604  36.948   9.624  14.566
71076W        W42605  17.055  38.868  11.046
71077W        W42606   3.321  11.885  13.039
71078W        W42607  13.910  10.636  12.579
71079W        W42608  16.527  24.487   3.298
71080W        W42609  32.004   1.073   0.822
71081W        W42610  21.207  12.092  12.959
71082W        W42611  18.025  34.081   2.277
71083W        W42612  34.619  18.133  14.298
71084W        W42613  18.569   3.584   3.555
71085W        W42614  40.494  34.673  12.554
71086W        W42615   0.040  14.046  11.607
71087W        W42616  13.596  19.604   4.630
71088W        W42617   2.506  36.164   4.170
71089W        W42618   4.674  18.318   3.722
71090W        W42619  42.227  33.387   4.229
71091W        W42620  29.490  21.719  14.617
71092W        W42621  17.255  10.288  13.326
71093W        W42622  19.858  25.623  14.639
71094W        W42623  17.986  27.398   4.491
71095W        W42624  23.567  17.737  13.846
71096W        W42625   1.268  37.908  13.459
71097W        W42626  43.956  22.254  14.293
71098W        W42627  25.292   9.664  11.080
71099W        W42628   4.662  17.116  12.164
71100W        W42629  42.589  29.869   2.844
71101W        W42630  43.094  27.940   3.624
71102W        W42631  15.692  19.238   3.344
71103W        W42632  34.606  25.635   2.705
71104W        W42633  27.644  44.303  10.683
71105W        W42634  15.020  29.216   2.288
71106W        W42635   5.642  43.397   1.981
71107W        W42636   9.275  16.074   2.544
71108W        W42637  25.290  23.600   4.813
71109W        W42638   1.687  26.415   0.822
71110W        W42639  21.158  36.015   0.435
71111W        W42640  36.772  20.759  11.129
71112W        W42641  18.663  17.154  14.574
71113W        W42642  21.488   2.690  12.072
71114W        W42643  37.886  31.666   3.231
71115W        W42644  13.840  12.705  11.908
71116W        W42645  41.219  29.528   5.029
71117W        W42646  12.986  21.796   4.182
71118W        W42647  20.998  17.575  13.133
71119W        W42648  18.837  36.111  10.519
71120W        W42649  18.110  14.120  14.833
71121W        W42650   4.132  17.647  14.255
71122W        W42651  41.004  29.010  14.906
71123W        W42652  17.007   9.907   3.140
71124W        W42653  20.530   5.427   4.040
71125W        W42654  40.108  19.197  11.025
71126W        W42655   9.756   3.233   2.405
71127W        W42656  21.558  33.039  11.596
71128W        W42657  34.770  31.295  12.084
71129W        W42658  28.089  41.452   9.631
71130W        W42659  13.127  27.039  12.058
71131W        W42660  32.878  19.202  13.031
71132W        W42661  30.459  38.590  10.315
71133W        W42662  16.140   7.809  13.944
71134W        W42663  38.635  11.288  13.285
71135W        W42664  34.407  12.905   3.722
71136W        W42665  21.132   3.124  10.739
71137W        W42666  39.421  41.384   4.476
71138W        W42667  44.213   2.282   0.930
71139W        W42668  17.749  16.346   1.434
71140W        W42669   1.922  17.072  13.829
71141W        W42670  35.153  11.306  11.934
71142W        W42671   2.939  21.465  10.730
71143W        W42672  16.093   0.555  11.917
71144W        W42673  37.601  22.558   1.889
71145W        W42674  38.578  41.983  10.702
71146W        W42675  18.217  11.754  14.165
71147W        W42676  39.839   5.437   1.914
71148W        W42677  41.099   8.666   3.152
71149W        W42678  24.866  38.083  12.505
71150W        W42679  11.442  25.422   1.272
71151W        W42680  12.900   9.787  12.818
71152W        W42681   4.415   7.807  14.196
71153W        W42682  38.083   2.669   2.946
71154W        W42683   5.330  34.900   2.700
71155W        W42684  11.516   9.899  14.560
71156W        W42685  22.095  30.699  11.263
71157W        W42686  18.330   4.641  10.946
71158W        W42687  25.381  16.553  11.672
71159W        W42688   2.195   6.567  12.711
71160W        W42689   8.133  19.361  10.757
71161W        W42690  33.115  14.381  14.277
71162W        W42691  10.855  19.405   4.518
71163W        W42692  22.083  36.958   4.970
71164W        W42693  41.264  35.981  14.237
71165W        W42694   6.012  19.755  11.556
71166W        W42695  22.434   5.844  13.776
71167W        W42696  24.074  41.058   3.060
71168W        W42697  30.467  27.664   0.991
71169W        W42698  42.481  33.348   1.756
71170W        W42699  27.548  20.711   1.210
71171W        W42700  28.065  36.972   1.363
71172W        W42701   4.039  33.216   4.100
71173W        W42702  35.517  37.046  14.669
71174W        W42703  16.655  35.737  11.089
71175W        W42704  16.219  11.243   4.758
71176W        W42705  17.808  16.139   3.676
71177W        W42706  37.999   4.287   1.485
71178W        W42707  18.746  40.354  14.059
71179W        W42708  13.783   6.201  12.995
71180W        W42709  11.503  20.209  10.958
71181W        W42710  27.491  32.897  14.734
71182W        W42711  20.080  23.644  13.320
71183W        W42712  29.135  32.470   0.269
71184W        W42713  35.520  34.363  13.834
71185W        W42714  27.435   7.853  11.460
71186W        W42715  23.705   0.704   4.322
71187W        W42716  42.051  19.585   0.031
71188W        W42717   2.469  14.651   3.200
71189W        W42718  12.242  28.709   2.719
71190W        W42719  35.503  32.477  12.506
71191W        W42720  23.646  22.057  11.208
71192W        W42721  12.012  20.294   4.478
71193W        W42722  20.098  19.748   0.863
71194W        W42723   4.747  24.091  10.576
71195W        W42724   1.348   3.146  10.540
71196W        W42725  16.837   5.942  14.744
71197W        W42726  10.212  30.458   0.567
71198W        W42727  40.951   5.343  13.621
71199W        W42728  24.609  10.501  13.548
71200W        W42729   0.602  24.138  14.437
71201W        W42730  24.036  33.369   4.571
71202W        W42731  23.599  15.284  11.979
71203W        W42732  36.683  17.783  12.075
71204W        W42733  29.038   0.807   2.203
71205W        W42734  16.189   7.880  14.486
71206W        W42735  29.067   1.789   0.937
71207W        W42736  14.879   8.393  13.456
71208W        W42737  20.344  27.461  14.085
71209W        W42738  38.396   2.878  11.565
71210W        W42739  21.103  37.919   5.484
71211W        W42740   6.463   0.359  14.391
71212W        W42741  29.972  35.576  13.179
71213W        W42742  24.578  36.381   3.268
71214W        W42743  19.388  11.229   3.729
71215W        W42744  31.693  27.179   2.753
71216W        W42745   2.318  42.464   3.333
71217W        W42746  34.069  41.172  12.049
71218W        W42747   1.077  18.526  11.178
71219W        W42748  34.639  11.791  10.449
71220W        W42749  30.405  27.122   1.460
71221W        W42750  26.763  19.994  13.116
71222W        W42751   5.834  23.274  13.284
71223W        W42752  28.481  28.595   3.339
71224W        W42753  27.574  11.926   4.878
71225W        W42754  35.721  13.271   0.293
71226W        W42755  37.426  23.168   4.012
71227W        W42756  33.596  12.708   2.322
71228W        W42757  34.896  41.985  13.759
71229W        W42758  14.553  43.044  10.916
71230W        W42759  25.178   6.485  12.898
71231W        W42760   3.565  10.205  12.439
71232W        W42761  15.028  25.083  12.595
71233W        W42762  29.341  13.865  14.360
71234W        W42763  29.169  27.175   3.758
71235W        W42764  31.103  18.139   3.671
71236W        W42765   1.322  11.876   3.766
71237W        W42766   3.034   1.891  11.606
71238W        W42767  17.293  11.396   2.920
71239W        W42768  23.205  26.658   4.073
71240W        W42769  12.672  21.223  14.910
71241W        W42770  17.085  39.588  12.418
71242W        W42771  20.698   8.114  10.452
71243W        W42772  19.743   0.264  10.644
71244W        W42773  13.251  38.174   2.830
71245W        W42774   0.429  44.950   2.710
71246W        W42775  31.279  23.523   2.108
71247W        W42776   1.298  17.627   4.573
71248W        W42777   9.319  29.182  14.815
71249W        W42778  40.071  21.750   1.607
71250W        W42779  16.877  32.524   2.245
71251W        W42780  15.120  15.116  13.456
71252W        W42781  21.927  29.525  11.523
71253W        W42782  20.491  12.386   0.470
71254W        W42783  24.362   0.579  11.522
71255W        W42784  36.932  38.575  13.035
71256W        W42785  13.573   9.233  12.933
71257W        W42786  10.888   4.461   2.834
71258W        W42787  13.536  29.708   4.102
71259W        W42788  42.254  15.643   0.865
71260W        W42789  15.219  42.435   3.663
71261W        W42790  43.427   9.593  10.545
71262W        W42791   7.747  25.950   3.688
71263W        W42792  10.586  16.227   2.234
71264W        W42793  26.912  43.041  10.314
71265W        W42794  23.655  36.128   0.310
71266W        W42795  32.561  29.467  10.961
71267W        W42796  14.140   6.684  13.782
71268W        W42797  40.364  44.253   0.758
71269W        W42798  33.423  37.030  12.030
71270W        W42799  27.907  21.551  10.389
71271W        W42800  27.683  34.103  11.942
71272W        W42801   5.253   6.057   2.711
71273W        W42802   8.295   3.468   4.930
71274W        W42803   3.863  44.372  12.397
71275W        W42804  12.199  31.487   3.863
71276W        W42805   0.480  42.291   2.733
71277W        W42806  34.057  39.432  13.763
71278W        W42807  43.943  26.674   2.628
71279W        W42808  35.592   6.443  13.386
71280W        W42809   1.047   8.722   4.009
71281W        W42810  37.432  35.405   2.143
71282W        W42811  19.352  13.768   1.919
71283W        W42812  32.441  32.726   4.616
71284W        W42813  36.325  13.727   3.861
71285W        W42814  37.552  44.117  12.219
71286W        W42815  24.915  43.972   0.843
71287W        W42816   5.958  38.313   4.113
71288W        W42817  12.790  19.300   1.233
71289W        W42818  43.092  18.604   4.610
71290W        W42819  28.068  43.724  13.937
71291W        W42820  14.743  20.459   2.962
71292W        W42821   8.331   4.961  11.027
71293W        W42822  21.561  11.292   1.520
71294W        W42823   0.400   9.748  10.934
71295W        W42824   1.450  41.569  14.592
71296W        W42825  23.433  28.356   2.623
71297W        W42826  17.785  25.019   1.357
71298W        W42827   6.413   3.683   3.304
71299W        W42828  21.056  26.590   1.443
71300W        W42829   2.867  25.703  11.985
71301W        W42830  13.460  37.128  11.593
71302W        W42831  25.565  13.406  10.708
71303W        W42832   0.209  14.548  11.559
71304W        W42833  12.091  38.722   4.804
71305W        W42834  43.512  22.328   1.220
71306W        W42835  11.783   8.891   5.063
71307W        W42836  18.988  21.853  10.963
71308W        W42837  32.873   7.298   1.710
71309W        W42838  16.781  16.130  14.533
71310W        W42839   1.488  42.085  12.829
71311W        W42840  27.939  22.404   0.883
71312W        W42841  34.470  19.136  14.413
71313W        W42842  16.070   6.749  10.298
71314W        W42843  28.618  22.568  11.120
71315W        W42844   6.177  13.851  13.375
71316W        W42845  31.934   2.632   1.983
71317W        W42846  21.061  11.898   0.458
71318W        W42847  16.058  44.379   1.099
71319W        W42848  19.796  23.098   3.357
71320W        W42849  26.939  21.082  14.850
71321W        W42850  26.258  42.298  11.120
71322W        W42851  39.013  20.557   2.085
71323W        W42852  16.581  17.661  10.632
71324W        W42853   9.994  33.530   1.346
71325W        W42854  18.734  31.899  11.618
71326W        W42855  16.301  42.254  10.689
71327W        W42856   6.832  13.953   2.582
71328W        W42857  39.385  39.287  12.898
71329W        W42858   0.870  10.461  13.561
71330W        W42859  41.849  35.879  11.548
71331W        W42860  38.287  43.297   4.460
71332W        W42861  24.238  43.354  14.429
71333W        W42862  37.568  43.706   0.930
71334W        W42863  20.780  34.168  11.626
71335W        W42864  35.029  44.375   0.205
71336W        W42865  15.750  13.376   1.908
71337W        W42866  23.927  21.304  13.365
71338W        W42867  38.042   8.708  10.945
71339W        W42868  44.350  39.015   0.230
71340W        W42869  31.266  25.275  12.092
71341W        W42870   5.803  18.058  12.420
71342W        W42871  38.534  15.341  13.744
71343W        W42872  41.850  26.249  11.658
71344W        W42873   6.552   2.745   3.064
71345W        W42874  35.060  17.271  14.738
71346W        W42875  30.938  11.093  11.590
71347W        W42876   7.364   7.145   1.233
71348W        W42877   4.704  28.712   0.117
71349W        W42878   0.458  11.119   1.323
71350W        W42879  28.177  36.387   0.486
71351W        W42880  31.285  18.995  14.768
71352W        W42881   9.171   1.567  13.348
71353W        W42882  38.708   4.327   3.470
71354W        W42883   9.596   8.154  12.008
71355W        W42884  23.037  33.965  12.715
71356W        W42885   7.467  26.946  10.614
71357W        W42886  40.949  39.869   0.808
71358W        W42887  42.037  18.298  10.972
71359W        W42888  33.014  17.565   1.362
71360W        W42889   8.649  42.775  13.689
71361W        W42890   4.347  42.823   1.455
71362W        W42891  24.651   4.459  13.317
71363W        W42892   8.416  22.633   2.774
71364W        W42893  18.277  14.627   1.766
71365W        W42894  41.369  17.602   0.401
71366W        W42895  32.573  10.256  12.040
71367W        W42896  38.419  22.841  11.854
71368W        W42897  34.458  43.926  13.615
71369W        W42898   2.456  10.257  10.861
71370W        W42899  36.847  30.062   2.603
71371W        W42900  38.851  38.437  11.621
71372W        W42901  19.323   6.728   2.866
71373W        W42902  29.254  38.870   4.073
71374W        W42903  10.346  27.032   2.370
71375W        W42904  27.865  38.398  13.015
71376W        W42905  15.117  35.628   4.142
71377W        W42906  29.391  28.446  14.518
71378W        W42907  34.087  32.068   2.669
71379W        W42908   3.559  26.694  13.451
71380W        W42909   4.205  39.686   3.502
71381W        W42910  20.084  16.326  13.142
71382W        W42911  37.510  16.116  13.535
71383W        W42912  19.818  43.909  11.809
71384W        W42913  30.345  24.271   4.854
71385W        W42914  18.150   4.788   4.236
71386W        W42915   7.873   9.126   3.809
71387W        W42916   8.797   3.908   1.023
71388W        W42917  37.980  18.986  12.240
71389W        W42918  27.096  41.337   1.615
71390W        W42919  40.739  43.878  14.492
71391W        W42920  31.396   2.357   2.566
71392W        W42921  28.238  42.093   0.616
71393W        W42922  26.662  20.176   3.601
71394W        W42923  23.533  27.198   2.293
71395W        W42924  19.746   3.993   4.114
71396W        W42925  33.590  17.044  12.044
71397W        W42926  12.018   0.331   1.931
71398W        W42927   2.358   0.289  10.952
71399W        W42928  14.845  17.805  11.458
71400W        W42929  21.675  36.991  13.852
71401W        W42930  11.876  20.525   1.650
71402W        W42931  22.779  42.562  10.975
71403W        W42932  34.540  42.089  14.600
71404W        W42933  23.498  27.477   1.808
71405W        W42934   6.434  30.157  11.613
71406W        W42935  43.494   6.490   0.202
71407W        W42936  22.497  34.672   5.020
71408W        W42937  42.975  13.199   2.856
71409W        W42938  37.549  33.854  12.878
71410W        W42939   3.344  13.013   4.914
71411W        W42940   7.733   4.327   4.474
71412W        W42941  20.760  11.308  12.506
71413W        W42942  11.291  26.626  10.843
71414W        W42943  21.445  34.184   0.282
71415W        W42944   5.291  31.763  10.511
71416W        W42945  38.815  30.139  14.799
71417W        W42946   7.159  14.416  13.763
71418W        W42947  32.484   9.809  14.006
71419W        W42948   8.352  33.899   0.727
71420W        W42949  42.642  40.513  11.149
71421W        W42950  12.046  23.853   1.920
71422W        W42951  30.166  13.231   0.367
71423W        W42952  37.585  40.381   4.531
71424W        W42953  19.746  21.064  12.018
71425W        W42954   3.531  16.209   1.351
71426W        W42955  28.587  16.063   0.824
71427W        W42956  26.957  44.795  10.581
71428W        W42957  31.077  34.033   2.705
71429W        W42958  36.396   3.792   2.425
71430W        W42959  38.584  14.300  12.057
71431W        W42960   3.551  24.156  13.932
71432W        W42961  10.923  42.773   4.238
71433W        W42962  34.606  26.566   1.693
71434W        W42963  28.158  26.783  13.018
71435W        W42964  31.712  31.477   1.823
71436W        W42965  28.098  29.689  11.233
71437W        W42966  27.439  27.667   1.850
71438W        W42967   5.685  15.088   3.369
71439W        W42968  16.799  23.969  10.305
71440W        W42969  18.231  18.368   3.147
71441W        W42970  16.583  25.143   3.798
71442W        W42971  43.032  11.670   1.632
71443W        W42972  19.545  19.746   2.824
71444W        W42973  42.386  24.005   3.630
71445W        W42974  23.114  27.500   2.224
71446W        W42975  41.094  23.115  12.653
71447W        W42976   9.973  21.597  13.838
71448W        W42977   0.586   7.883   2.756
71449W        W42978   3.775  14.101   0.785
71450W        W42979  28.917  41.927   3.093
71451W        W42980  35.462  39.567   1.080
71452W        W42981  39.704  44.982  13.039
71453W        W42982  32.078  14.862   4.135
71454W        W42983  38.038  25.009   0.512
71455W        W42984  30.069  17.123  13.330
71456W        W42985  40.795  32.434  14.418
71457W        W42986  19.211  32.187  13.919
71458W        W42987  17.095  21.044  10.332
71459W        W42988  36.172  23.975  14.052
71460W        W42989  16.252   3.917  11.677
71461W        W42990  27.625  31.991  10.563
71462W        W42991  35.259  32.636   3.667
71463W        W42992   4.739  26.470   4.794
71464W        W42993  11.810  20.693  13.307
71465W        W42994   5.878  18.211  13.317
71466W        W42995  37.539  41.396  11.889
71467W        W42996  31.969   8.439   1.312
71468W        W42997  31.958   4.093   1.728
71469W        W42998   8.274   7.315  12.746
71470W        W42999  18.674  35.042  10.682
71471W        W43000  10.564   8.443  12.192
71472W        W43001  32.833   2.968  13.765
71473W        W43002  42.079  23.265  11.078
71474W        W43003   1.157  14.434  10.355
71475W        W43004  42.220   1.366  12.477
71476W        W43005  36.452  11.767   0.982
71477W        W43006  37.090  31.697  13.966
71478W        W43007  35.947  33.647  14.874
71479W        W43008   2.803  43.672   4.631
71480W        W43009  40.148  38.283   2.765
71481W        W43010  44.758  18.171  13.068
71482W        W43011  21.677  18.765   1.761
71483W        W43012  44.368  23.200  10.525
71484W        W43013   2.411  13.558   4.068
71485W        W43014  12.147  35.572   2.742
71486W        W43015  17.971   6.921  10.920
71487W        W43016  34.611  23.738   4.366
71488W        W43017  43.761  16.235   4.678
71489W        W43018   8.035  40.339   2.713
71490W        W43019  32.860  26.136  12.485
71491W        W43020  12.534  27.978  14.465
71492W        W43021  27.933   8.953   0.043
71493W        W43022  13.646   4.698  14.221
71494W        W43023  25.247   5.218  13.911
71495W        W43024   1.018   9.807   0.289
71496W        W43025  39.926   6.720  13.452
71497W        W43026  27.079  41.728  12.555
71498W        W43027  37.614   2.771   3.174
71499W        W43028  25.276  38.295   4.199
71500W        W43029  12.717  20.808  13.329
71501W        W43030  33.642  14.567  10.951
71502W        W43031  11.543   0.793  11.608
71503W        W43032  21.514   9.785   2.272
71504W        W43033  13.267   3.844   3.869
71505W        W43034  24.092  17.612   2.342
71506W        W43035  25.069  19.981  11.731
71507W        W43036  41.295  33.163   2.036
71508W        W43037  42.015  33.125  11.942
71509W        W43038   5.906  18.634  14.498
71510W        W43039   9.828   7.897  11.607
71511W        W43040  10.301  24.591  14.524
71512W        W43041  42.343  11.178   0.454
71513W        W43042  32.006  36.909   4.590
71514W        W43043  29.701  27.439  10.226
71515W        W43044  35.506   7.325  13.735
71516W        W43045   6.459   3.302   4.577
71517W        W43046  21.946   1.766  11.240
71518W        W43047  35.784   2.733  10.628
71519W        W43048  40.652   9.117  13.008
71520W        W43049  29.623  10.553   0.385
71521W        W43050   1.851  20.723   4.198
71522W        W43051  22.191   3.936   4.572
71523W        W43052  24.750   5.252   2.334
71524W        W43053  15.865  17.503  13.955
71525W        W43054  42.548   8.524  13.211
71526W        W43055   1.205   5.678   2.653
71527W        W43056  15.134  18.644  14.301
71528W        W43057  41.985   9.104   1.142
71529W        W43058  12.780  33.174  13.989
71530W        W43059  35.424  24.006  13.266
71531W        W43060  10.377  36.388   3.558
71532W        W43061  42.026  12.294  10.261
71533W        W43062   8.437   9.330   3.492
71534W        W43063  10.157   4.386   4.336
71535W        W43064  17.000  34.036   0.993
71536W        W43065  17.062   6.381  13.055
71537W        W43066   8.945  12.697  14.972
71538W        W43067  17.578  31.921   5.049
71539W        W43068  14.564  11.422   0.036
71540W        W43069   8.226  42.971  12.265
71541W        W43070   3.291   1.296   1.360
71542W        W43071  33.953  23.226  14.477
71543W        W43072  10.377  35.914  11.497
71544W        W43073  12.344  15.669   3.512
71545W        W43074  29.542  17.286  10.537
71546W        W43075   0.015  24.555  11.181
71547W        W43076  22.656  29.415   0.348
71548W        W43077  32.546   8.770   2.378
71549W        W43078  35.168  38.959  13.767
71550W        W43079  43.412  36.929   3.668
71551W        W43080  40.828  19.800  12.798
71552W        W43081  31.090  14.766  13.515
71553W        W43082   8.357  18.305   1.577
71554W        W43083  24.397  13.607   4.160
71555W        W43084  27.013  30.699  14.885
71556W        W43085   9.406  15.095   2.233
71557W        W43086  34.589  42.989  13.039
71558W        W43087  31.040  26.356  10.940
71559W        W43088  18.319  38.874   3.740
71560W        W43089  33.663  44.402  12.355
71561W        W43090  13.421  11.441   2.382
71562W        W43091  25.272  11.949  12.806
71563W        W43092  36.737  16.187   0.784
71564W        W43093   3.288  28.912  13.902
71565W        W43094  20.621   1.573   3.241
71566W        W43095  34.475  21.231  13.143
71567W        W43096  15.853   8.578   1.316
71568W        W43097   5.715  36.340   1.495
71569W        W43098  16.155  13.012  14.398
71570W        W43099  17.655  15.836   0.559
71571W        W43100  20.588   5.205  14.835
71572W        W43101  29.610  39.720   4.260
71573W        W43102  32.996  16.621   4.767
71574W        W43103  30.669  33.523   0.642
71575W        W43104  31.523  22.180   4.558
71576W        W43105  41.587  39.138  13.916
71577W        W43106  37.527   5.274   2.111
71578W        W43107  41.895  41.963   1.661
71579W        W43108  21.126   7.489   0.943
71580W        W43109  17.260  15.741   4.129
71581W        W43110  17.862   7.954   4.644
71582W        W43111  25.451  40.995   2.350
71583W        W43112   1.714  35.495  11.974
71584W        W43113  18.553  38.122  14.308
71585W        W43114  29.697   8.809  13.464
71586W        W43115  30.005  15.546  14.415
71587W        W43116  43.224   3.880   0.291
71588W        W43117  41.470   9.546   0.542
71589W        W43118  30.618  17.868  11.204
71590W        W43119  17.530  18.242   1.278
71591W        W43120  39.617  43.003   4.363
71592W        W43121  19.766  37.902  14.799
71593W        W43122  27.086  35.735   1.359
71594W        W43123  28.918  36.600  10.376
71595W        W43124  16.071  16.044   3.311
71596W        W43125  25.171   3.997   1.709
71597W        W43126  12.511  30.133  11.518
71598W        W43127  19.838  19.009  11.652
71599W        W43128  28.542  13.911  11.157
71600W        W43129  23.917  13.748  13.291
71601W        W43130  37.096  20.103  11.587
71602W        W43131  14.755  23.838   4.196
71603W        W43132  23.491  29.774   4.647
71604W        W43133  29.511  24.379   5.111
71605W        W43134  26.964  35.913  13.674
71606W        W43135  35.562   2.309  11.572
71607W        W43136  44.388  16.666  13.702
71608W        W43137  34.395  30.388  12.449
71609W        W43138  34.944  30.966   4.185
71610W        W43139   4.883  22.659  12.944
71611W        W43140  12.393  38.625  14.958
71612W        W43141  31.807  28.441  14.664
71613W        W43142  39.838  24.669   0.964
71614W        W43143   5.443  22.209   1.255
71615W        W43144  44.367  13.965   1.732
71616W        W43145  38.849  18.138   2.385
71617W        W43146  43.877  25.946   3.151
71618W        W43147  14.930  38.307  11.050
71619W        W43148  12.246  41.254  11.514
71620W        W43149  32.039  30.472   4.175
71621W        W43150  26.476  10.237  14.711
71622W        W43151   0.444  16.435   2.662
71623W        W43152  29.538  25.748   3.286
71624W        W43153  25.124  21.621   0.089
71625W        W43154  19.737  37.058   0.966
71626W        W43155  14.724   1.305   0.488
71627W        W43156   6.260  30.318   2.898
71628W        W43157  43.998  16.212   3.170
71629W        W43158  22.044  22.135  13.945
71630W        W43159  16.874  40.083   2.364
71631W        W43160  30.079  13.528  14.454
71632W        W43161  27.348  42.837   4.545
71633W        W43162  10.891   7.983   2.241
71634W        W43163  32.612   4.984   4.124
71635W        W43164  38.755  12.491  12.400
71636W        W43165  44.514  10.223  10.269
71637W        W43166  37.794  20.004   3.282
71638W        W43167  19.799   6.883   2.962
71639W        W43168  39.606  35.378   4.555
71640W        W43169  28.031   2.097  13.933
71641W        W43170  29.133  35.539  11.178
71642W        W43171  11.305  38.648   0.865
71643W        W43172   1.775  41.556   1.402
71644W        W43173  32.495  18.428  13.579
71645W        W43174  34.732   1.484   2.076
71646W        W43175  40.385  23.636   4.512
71647W        W43176   6.336  33.028  11.467
71648W        W43177  12.067   6.284   4.462
71649W        W43178  31.714  12.991   5.107
71650W        W43179  40.129  21.775  12.050
71651W        W43180   1.342  21.002  12.978
71652W        W43181  35.315  28.423  11.707
71653W        W43182  12.705  25.648   3.791
71654W        W43183  26.742  13.154  12.981
71655W        W43184  16.759  27.729  12.562
71656W        W43185  28.106  12.046   4.632
71657W        W43186  18.833  22.516   4.125
71658W        W43187  29.621  44.115   2.474
71659W        W43188  12.534  21.505   2.891
71660W        W43189  23.264  32.445   0.819
71661W        W43190  34.951  37.069   2.519
71662W        W43191  39.293  17.163  13.706
71663W        W43192  20.733  21.182   0.328
71664W        W43193  39.137   2.864  11.128
71665W        W43194  40.373  33.139   4.363
71666W        W43195  21.319  12.307  11.585
71667W        W43196   6.383  44.045  11.025
71668W        W43197  18.685  32.086  12.582
71669W        W43198  35.310   1.049  10.241
71670W        W43199  41.307  43.801   4.126
71671W        W43200  27.881  19.953  14.910
71672W        W43201  42.357  33.062  12.849
71673W        W43202   4.486  21.000   0.322
71674W        W43203   6.259  16.829   4.545
71675W        W43204  32.530   2.392  11.692
71676W        W43205  44.255  29.197   4.147
71677W        W43206  36.319  21.558   3.784
71678W        W43207  13.272   9.101   0.331
71679W        W43208  26.672   2.291   4.532
71680W        W43209  39.348  40.381  14.939
71681W        W43210  38.799  17.799   3.224
71682W        W43211  20.467  16.730   1.822
71683W        W43212  42.422   7.484   2.927
71684W        W43213  43.362   7.940   2.704
71685W        W43214  12.263  33.863  13.919
71686W        W43215   7.667   1.880   2.881
71687W        W43216   2.408  11.571   0.690
71688W        W43217   6.169   5.818   4.113
71689W        W43218  31.581   4.369   3.057
71690W        W43219   6.076  37.022   3.807
71691W        W43220  25.480  11.360   0.315
71692W        W43221  12.569  14.685   2.374
71693W        W43222   1.712  26.210   1.727
71694W        W43223  19.171   6.150  14.895
71695W        W43224  19.719  31.598  11.595
71696W        W43225  44.480  23.973  13.069
71697W        W43226  11.185  15.754  10.889
71698W        W43227   7.350  36.454  11.741
71699W        W43228   3.976  38.357   3.259
71700W        W43229  29.432  11.756   1.354
71701W        W43230  21.092  37.413   4.122
71702W        W43231  35.690  14.532  11.565
71703W        W43232   1.735  43.698   2.159
71704W        W43233  29.665  24.141  11.632
71705W        W43234  17.733  40.896  13.858
71706W        W43235  40.455  30.041   4.875
71707W        W43236  22.450  42.921   0.884
71708W        W43237  30.399   5.491   3.628
71709W        W43238  14.857   9.245   2.737
71710W        W43239  24.775  32.327  13.914
71711W        W43240   6.642   8.325   2.309
71712W        W43241   8.955  19.782   1.676
71713W        W43242   7.642  30.084   0.635
71714W        W43243  44.863  14.469   2.929
71715W        W43244  12.757  35.155   2.217
71716W        W43245  13.282  28.186   3.296
71717W        W43246  25.589   9.192  10.483
71718W        W43247  36.597  27.501   2.867
71719W        W43248  11.352   2.908   4.291
71720W        W43249  28.980   6.165  14.333
71721W        W43250   8.218   0.941  12.170
71722W        W43251  14.782  36.239  13.551
71723W        W43252  12.688  21.919  13.583
71724W        W43253   9.375  42.991   4.526
71725W        W43254   6.846  23.218  11.297
71726W        W43255  33.392  16.165   0.430
71727W        W43256  14.953  25.677   4.037
71728W        W43257   8.798  21.199   2.879
71729W        W43258   0.224  22.925  11.569
71730W        W43259   7.071  27.480   3.810
71731W        W43260  19.413  26.413   2.028
71732W        W43261  42.028  12.066   1.433
71733W        W43262  17.578  27.434   2.644
71734W        W43263  42.970   0.015   3.861
71735W        W43264   3.881  12.609  13.415
71736W        W43265  36.421  27.506  11.961
71737W        W43266   8.069   0.933  11.048
71738W        W43267  13.909  11.076   4.664
71739W        W43268   4.964  10.002   0.859
71740W        W43269  13.849  19.704  14.843
71741W        W43270  28.230  25.166   4.852
71742W        W43271  34.964  38.988   4.555
71743W        W43272  11.771  17.269   2.765
71744W        W43273   8.321   1.730   3.380
71745W        W43274  32.635  27.166   2.863
71746W        W43275   0.557  14.670   1.829
71747W        W43276  31.540   7.864   3.933
71748W        W43277  26.896   1.918  13.929
71749W        W43278   1.404  36.812   0.620
71750W        W43279   3.801  14.784  14.468
71751W        W43280  13.152  32.314  13.106
71752W        W43281  21.963  28.826  12.196
71753W        W43282   8.065  26.736  12.973
71754W        W43283  10.366   3.785   1.377
71755W        W43284  40.730  11.267   0.294
71756W        W43285  41.867  29.179   4.197
71757W        W43286  16.742  11.214   4.724
71758W        W43287  28.217  43.715   3.904
71759W        W43288   3.741  34.692   1.687
71760W        W43289  15.626  19.536  11.502
71761W        W43290  20.269   5.873  11.197
71762W        W43291  16.752  31.120  11.268
71763W        W43292  39.380  18.043   3.548
71764W        W43293  11.929  20.549  11.452
71765W        W43294  21.570  26.745  12.472
71766W        W43295  27.537  10.250   4.161
71767W        W43296   3.476  20.077   4.431
71768W        W43297  25.745   5.661   2.191
71769W        W43298   1.399  35.579  12.375
71770W        W43299  31.413  27.560   0.490
71771W        W43300   2.430  26.916   0.432
71772W        W43301  27.393  30.582   3.036
71773W        W43302   7.820   0.808  11.475
71774W        W43303  43.933  40.520   4.865
71775W        W43304  20.787  35.835  13.265
71776W        W43305  11.269  24.919  13.875
71777W        W43306  24.455  34.855  12.299
71778W        W43307  38.037  14.875   2.679
71779W        W43308  30.571  33.145  11.694
71780W        W43309   8.655  30.031   3.850
71781W        W43310  10.508  27.427  14.242
71782W        W43311  22.093   7.720   2.325
71783W        W43312   6.700  27.115  12.123
71784W        W43313  10.934  41.819  11.523
71785W        W43314  37.793  15.627  11.129
71786W        W43315  11.420  36.814  12.989
71787W        W43316  40.848  35.161  12.184
71788W        W43317  20.938   5.444   3.106
71789W        W43318  24.667  22.648   4.739
71790W        W43319  44.521   7.937  12.026
71791W        W43320  38.803   1.390  13.443
71792W        W43321  16.230  43.799  11.531
71793W        W43322  40.390   7.614   2.871
71794W        W43323  14.048  28.459  13.475
71795W        W43324   0.717  27.127  12.611
71796W        W43325  27.597  15.572  12.364
71797W        W43326  12.678  11.246  11.113
71798W        W43327   7.275  29.175  10.599
71799W        W43328   8.430  40.975   3.210
71800W        W43329  24.861   6.525   5.375
71801W        W43330  34.265  18.190  12.794
71802W        W43331  19.297  19.262  13.318
71803W        W43332  14.900  44.231  12.983
71804W        W43333   8.842  34.777   2.884
71805W        W43334  31.008  39.487  13.938
71806W        W43335  17.489   5.153  11.813
71807W        W43336  34.861  24.634  12.836
71808W        W43337  36.863  18.584   0.513
71809W        W43338   9.085   8.170  11.947
71810W        W43339  23.686  30.742   2.202
71811W        W43340  13.537   5.698  10.718
71812W        W43341  15.833  30.917   1.494
71813W        W43342  29.124  11.232   3.341
71814W        W43343  35.532   0.788   0.960
71815W        W43344  15.466   1.310   2.471
71816W        W43345  43.518   0.233  11.318
71817W        W43346  42.917  32.105  14.812
71818W        W43347  39.849   2.775  13.337
71819W        W43348  40.441  40.828   1.756
71820W        W43349  39.569   8.189  14.730
71821W        W43350  28.058  16.992  13.416
71822W        W43351  23.038  19.030  10.997
71823W        W43352  38.915  36.956  12.124
71824W        W43353  33.699  16.906  12.997
71825W        W43354  41.004  44.465   2.876
71826W        W43355   1.141  36.125   3.247
71827W        W43356  41.418   0.235  13.528
71828W        W43357  18.580   2.495  13.169
71829W        W43358  37.865  39.436  11.250
71830W        W43359  19.043  20.576  12.641
71831W        W43360   5.910   7.414   4.365
71832W        W43361  19.896   9.965  11.651
71833W        W43362   2.060  37.687  11.276
71834W        W43363  16.302  12.366   9.542
71835W        W43364  35.006  31.545  10.863
71836W        W43365   3.533  43.278   1.340
71837W        W43366  37.069  27.826  14.403
71838W        W43367  36.486  28.919   2.773
71839W        W43368  25.606  18.267   3.595
71840W        W43369  27.750  18.322   1.152
71841W        W43370   4.363  14.699   3.782
71842W        W43371  43.194  22.653   2.442
71843W        W43372   3.607  30.157   2.015
71844W        W43373  17.893  25.761  10.718
71845W        W43374   2.551   0.734  12.963
71846W        W43375  39.949  44.030  12.049
71847W        W43376  12.914  33.453   2.611
71848W        W43377   4.789   1.443  10.789
71849W        W43378  18.673  25.292  13.836
71850W        W43379  10.139  32.680   0.349
71851W        W43380  42.281  11.594   3.355
71852W        W43381  27.116   5.567   3.648
71853W        W43382  12.315  33.081  14.858
71854W        W43383   5.246  38.478  10.738
71855W        W43384  16.143  16.759   1.894
71856W        W43385  38.549  28.852  14.967
71857W        W43386  13.271  23.383  14.347
71858W        W43387  38.975  43.291  13.903
71859W        W43388  10.852  27.699  11.922
71860W        W43389   9.742  21.035  13.528
71861W        W43390   2.158  14.848  12.709
71862W        W43391   9.183   9.972   3.187
71863W        W43392  31.720  38.125   1.885
71864W        W43393  30.612  26.636   1.551
71865W        W43394  18.071  15.928  13.840
71866W        W43395   2.400  16.554   0.453
71867W        W43396  23.363  27.811   0.980
71868W        W43397   8.789  39.543  11.151
71869W        W43398  18.491   1.701   2.240
71870W        W43399  30.655  26.845   2.944
71871W        W43400   6.244  20.542   3.726
71872W        W43401  23.579   8.962  13.508
71873W        W43402  33.974   5.948   1.824
71874W        W43403  17.840  33.259  14.742
71875W        W43404  33.620  30.606   3.601
71876W        W43405   4.303  29.943   3.719
71877W        W43406  35.779  28.088  14.391
71878W        W43407   8.159  18.003   0.178
71879W        W43408   6.167  36.235   1.222
71880W        W43409  42.900  21.524   4.246
71881W        W43410  19.209  12.524  13.853
71882W        W43411  24.981  14.322  13.092
71883W        W43412  32.518  19.279  10.675
71884W        W43413  17.053  17.844  12.469
71885W        W43414  40.026  25.284  14.876
71886W        W43415   7.843  43.825  11.852
71887W        W43416   4.643  35.326   0.290
71888W        W43417   4.381  26.812  10.677
71889W        W43418  12.607  29.533  12.534
71890W        W43419   5.704  12.204   2.432
71891W        W43420  10.651  19.200   0.407
71892W        W43421  16.748  38.540   0.918
71893W        W43422  42.226   9.301   1.579
71894W        W43423   9.130  20.552   3.797
71895W        W43424   3.234  42.188   4.215
71896W        W43425  12.276  15.277  12.968
71897W        W43426  23.309  34.374   4.694
71898W        W43427   7.865  37.272  14.840
71899W        W43428  17.768  40.913   4.645
71900W        W43429  16.034   1.995   4.109
71901W        W43430   3.779  13.314   0.305
71902W        W43431  14.270  14.192  12.811
71903W        W43432   7.379  36.889  12.049
71904W        W43433   2.294  17.892  11.147
71905W        W43434  19.616   7.948   1.799
71906W        W43435  25.716  44.289  14.841
71907W        W43436   0.930  10.831   1.200
71908W        W43437   3.346   5.432   0.704
71909W        W43438  10.279  44.525   1.666
71910W        W43439  30.754  30.578   3.837
71911W        W43440  29.307  36.350  12.662
71912W        W43441  36.403   5.363   3.288
71913W        W43442  36.417  26.462  14.388
71914W        W43443  44.834   7.670  12.765
71915W        W43444  21.124  29.322   3.023
71916W        W43445   3.875  33.207   9.991
71917W        W43446  13.093  24.705   4.155
71918W        W43447   5.902   9.784  10.647
71919W        W43448  19.819  25.098   3.232
71920W        W43449   3.298   8.971  12.898
71921W        W43450   4.311  18.111  10.468
71922W        W43451   3.757   0.509   0.370
71923W        W43452  22.092  36.661  11.055
71924W        W43453   1.019   2.850   2.215
71925W        W43454  32.848  36.432  14.770
71926W        W43455  19.637  28.090  14.087
71927W        W43456  24.478  13.375   0.264
71928W        W43457   4.219  30.077  14.208
71929W        W43458  40.567  28.244  14.113
71930W        W43459  25.247   6.231   4.166
71931W        W43460  12.255  23.697  14.558
71932W        W43461  21.610  39.599   2.767
71933W        W43462  28.135  11.087  14.241
71934W        W43463  28.396  39.989   1.945
71935W        W43464   2.457  18.797  11.530
71936W        W43465   0.499   2.781  10.487
71937W        W43466  37.346  20.233   1.017
71938W        W43467  33.572  41.278  11.959
71939W        W43468  32.003  32.065   3.534
71940W        W43469  14.652  30.224   3.752
71941W        W43470  40.821   7.913   4.458
71942W        W43471  10.723  19.207  10.756
71943W        W43472  19.797  39.039  11.688
71944W        W43473  32.399   7.820  14.342
71945W        W43474  36.890   5.378  11.597
71946W        W43475  40.075  23.009  13.452
71947W        W43476  29.822  25.981   1.235
71948W        W43477  28.872  20.551   4.774
71949W        W43478  39.784   9.908  11.641
71950W        W43479  34.045  14.044   4.089
71951W        W43480  24.124   1.842   4.987
71952W        W43481  42.916   7.321  13.806
71953W        W43482  44.632  29.405   0.792
71954W        W43483   1.052  44.254   3.801
71955W        W43484  34.755  17.481  13.826
71956W        W43485  21.592  33.108  13.357
71957W        W43486   7.013   3.359   0.035
71958W        W43487   7.916  16.791   3.688
71959W        W43488  24.289  24.240  14.961
71960W        W43489  20.628   4.462  10.381
71961W        W43490  24.556  17.333   2.953
71962W        W43491  32.631   5.241  11.098
71963W        W43492  17.786  29.465   1.605
71964W        W43493   5.731  20.240  10.678
71965W        W43494  25.141   6.957  12.632
71966W        W43495   9.327  12.612   4.526
71967W        W43496  44.219  11.398   0.716
71968W        W43497  31.185  22.123   2.251
71969W        W43498  40.337  44.223  13.006
71970W        W43499  31.364  24.654  13.477
71971W        W43500   9.079  28.893  12.504
71972W        W43501  13.364  33.470   4.747
71973W        W43502   4.895  28.391  11.444
71974W        W43503  22.406  28.733   1.744
71975W        W43504  22.677  40.806  14.495
71976W        W43505  14.987  36.596  11.255
71977W        W43506   0.511  44.663  12.346
71978W        W43507  43.245  41.423  14.023
71979W        W43508   4.382   9.897   3.122
71980W        W43509  18.489   1.726  11.563
71981W        W43510  31.075   9.688   4.899
71982W        W43511  12.399  29.067  12.618
71983W        W43512   7.636   9.680   1.098
71984W        W43513  25.345  16.211  12.108
71985W        W43514  42.352  35.326  13.989
71986W        W43515  20.375  23.694   4.972
71987W        W43516   2.845   8.593   3.489
71988W        W43517  19.652  10.825   1.137
71989W        W43518  42.705  34.489   3.313
71990W        W43519   3.362   9.947  11.511
71991W        W43520  15.562  35.266   3.938
71992W        W43521  37.986  44.274  12.035
71993W        W43522  12.613   0.723  13.514
71994W        W43523  16.694   7.090   4.580
71995W        W43524  34.481  24.011  11.667
71996W        W43525  40.202  30.564  14.001
71997W        W43526  25.400  42.270  12.092
71998W        W43527   2.519  29.546   0.071
71999W        W43528  11.151   4.473   4.124
72000W        W43529  34.969   6.466   1.798
72001W        W43530  22.809  13.252   3.053
72002W        W43531  17.149  25.676  10.709
72003W        W43532   8.786   1.535   3.168
72004W        W43533  12.619   6.157  11.490
72005W        W43534  12.045  24.689   4.190
72006W        W43535  16.446  19.275   0.921
72007W        W43536  41.382   0.039  10.605
72008W        W43537  28.951  17.225  11.838
72009W        W43538  29.219  32.617  11.152
72010W        W43539  24.512  43.439  14.848
72011W        W43540   1.255  32.774   1.758
72012W        W43541  25.079  43.427  13.120
72013W        W43542  33.098  34.887  12.561
72014W        W43543   5.935  18.159  11.066
72015W        W43544  39.050  42.734   0.788
72016W        W43545  16.483  29.502   2.811
72017W        W43546  20.909  23.282  12.361
72018W        W43547   1.237  23.796   4.170
72019W        W43548  32.061  18.718   4.544
72020W        W43549  33.491  36.357   4.044
72021W        W43550   5.885  22.847  12.943
72022W        W43551  38.327   0.323   4.499
72023W        W43552   9.393  38.837  12.545
72024W        W43553  31.190  30.874   3.246
72025W        W43554   0.404  21.427   2.326
72026W        W43555  14.530   1.291   1.402
72027W        W43556   8.337  41.847  12.966
72028W        W43557  31.887  36.360  10.704
72029W        W43558  15.151  24.619   4.680
72030W        W43559  40.889  20.089  10.677
72031W        W43560  31.459  30.063   1.427
72032W        W43561  40.900   6.478  14.564
72033W        W43562   9.883  17.252  11.005
72034W        W43563  42.947  11.290   2.862
72035W        W43564  18.327  32.643   1.576
72036W        W43565  24.725   1.375   2.439
72037W        W43566  34.506   7.890   4.507
72038W        W43567  37.387  39.446   1.464
72039W        W43568  13.254  40.273   5.151
72040W        W43569  34.414  37.007   0.916
72041W        W43570  13.289  33.037  10.796
72042W        W43571  24.934  14.265  14.873
72043W        W43572  16.290   5.447  10.770
72044W        W43573  39.856   5.832  13.904
72045W        W43574  21.057  19.231  10.720
72046W        W43575  20.926  43.519   0.287
72047W        W43576  29.894  24.037   4.967
72048W        W43577  38.366  19.206   4.207
72049W        W43578  21.677  44.297   3.239
72050W        W43579  31.636  36.049   4.159
72051W        W43580  43.528  21.213   3.174
72052W        W43581  28.353  33.679   0.477
72053W        W43582  21.359  11.747  13.311
72054W        W43583   2.148  41.364  11.867
72055W        W43584  21.292  38.346  14.436
72056W        W43585  30.510  11.051  10.474
72057W        W43586  19.299   5.801   3.750
72058W        W43587   1.054  31.821   2.770
72059W        W43588  27.174  12.447  13.652
72060W        W43589  33.363  32.281  10.252
72061W        W43590  20.577  28.031   0.675
72062W        W43591  34.187  35.932   4.328
72063W        W43592  38.079  42.281   3.224
72064W        W43593  10.129  23.199   0.179
72065W        W43594  20.720  10.854   2.669
72066W        W43595  22.728  17.779   3.200
72067W        W43596   3.441  33.133   1.747
72068W        W43597  38.399  36.362   3.127
72069W        W43598  43.526   9.819  14.320
72070W        W43599  39.865   6.775  10.526
72071W        W43600  38.409  31.724   2.447
72072W        W43601  32.897  21.111  13.123
72073W        W43602  11.677  13.624   1.356
72074W        W43603  30.022  26.754  14.670
72075W        W43604  25.141  12.591   4.002
72076W        W43605  10.095  41.956   3.187
72077W        W43606   8.115   4.847  13.864
72078W        W43607   1.129  25.085  12.774
72079W        W43608  34.972  37.825   0.730
72080W        W43609  39.594  31.940   0.277
72081W        W43610  43.574  28.448   1.565
72082W        W43611  15.961  37.353   3.632
72083W        W43612  37.814   0.655   3.792
72084W        W43613  23.483   6.643   0.827
72085W        W43614  22.694   4.411   1.965
72086W        W43615  17.143  22.695   9.814
72087W        W43616   2.599  22.941   0.482
72088W        W43617   5.481  17.861   1.421
72089W        W43618  12.907   3.820   1.892
72090W        W43619  43.771  35.449  13.747
72091W        W43620  31.010  41.575  13.702
72092W        W43621  26.210  33.091  11.106
72093W        W43622  18.056  16.360  11.111
72094W        W43623   5.715  21.044   1.863
72095W        W43624  32.252  14.111   3.097
72096W        W43625   5.511  17.298   2.271
72097W        W43626   7.200  13.238  10.770
72098W        W43627  39.021  37.743   1.478
72099W        W43628  21.173   7.976  10.703
72100W        W43629  25.046  22.605   3.213
72101W        W43630  33.506  39.010   1.892
72102W        W43631   6.208  38.778   4.189
72103W        W43632   6.773  16.089   1.641
72104W        W43633  30.029  35.908   1.867
72105W        W43634   8.357  31.683   4.139
72106W        W43635   9.333  37.963   3.769
72107W        W43636  42.426  33.890   2.680
72108W        W43637  38.978  39.101  12.584
72109W        W43638   2.408  30.959  12.336
72110W        W43639  10.586  25.111  11.569
72111W        W43640  30.736  20.999   4.489
72112W        W43641  29.123  32.053   0.834
72113W        W43642  17.094  20.571  11.717
72114W        W43643  33.325  32.556   3.351
72115W        W43644  19.184  36.397   4.398
72116W        W43645  39.553  42.082  10.950
72117W        W43646  15.572   6.876   0.951
72118W        W43647   5.180  37.564  10.514
72119W        W43648   9.836  21.624   1.836
72120W        W43649  23.447  32.603  13.534
72121W        W43650  24.993  14.668   0.838
72122W        W43651  32.642   3.424  13.666
72123W        W43652  43.434  11.058  10.779
72124W        W43653   1.301   9.132   4.253
72125W        W43654  31.672  11.404   2.808
72126W        W43655   2.804  28.464  12.649
72127W        W43656  28.526   5.448   4.026
72128W        W43657  40.363  20.730   4.504
72129W        W43658  11.301  16.041  12.650
72130W        W43659   5.268  38.461  13.503
72131W        W43660   8.752  32.256  10.782
72132W        W43661  44.556  14.210  11.475
72133W        W43662   0.605   4.842  13.067
72134W        W43663  12.095  42.716  12.493
72135W        W43664   3.478  12.270  13.380
72136W        W43665  24.265  33.774   2.777
72137W        W43666   5.226  39.066   0.369
72138W        W43667  34.868  43.798   1.989
72139W        W43668  32.022  18.762   0.052
72140W        W43669  34.454  14.344  14.023
72141W        W43670  26.772   2.299  14.962
72142W        W43671  23.009   2.476   5.194
72143W        W43672  21.996   4.494   2.330
72144W        W43673  39.125   4.693  14.871
72145W        W43674  25.734  29.644  10.537
72146W        W43675  36.493  37.793   4.577
72147W        W43676   4.511  11.301   4.059
72148W        W43677  18.730  28.138   3.443
72149W        W43678  40.742  25.549  11.218
72150W        W43679  14.682   9.541  12.481
72151W        W43680   6.454  27.393   3.477
72152W        W43681   4.222  25.009  11.377
72153W        W43682  11.338   5.764   2.359
72154W        W43683  30.191   5.624   1.960
72155W        W43684  23.799  22.592  13.278
72156W        W43685  33.630  13.356  11.524
72157W        W43686  16.089  30.460   1.753
72158W        W43687  32.198  23.482  10.186
72159W        W43688  42.354  31.033   4.075
72160W        W43689   2.494  32.747   4.957
72161W        W43690   0.063  31.089   1.844
72162W        W43691   0.685  26.768   1.218
72163W        W43692  30.401  42.012   1.989
72164W        W43693  44.421   8.870  14.877
72165W        W43694  10.137  16.623   0.994
72166W        W43695  35.400   2.914   3.843
72167W        W43696  42.013  19.045   4.126
72168W        W43697   3.715  37.997   4.552
72169W        W43698  11.431  20.081   2.202
72170W        W43699  26.133  22.686  10.529
72171W        W43700  20.541  39.948  12.117
72172W        W43701  34.511  38.299   0.656
72173W        W43702   4.339  28.203   0.860
72174W        W43703   0.438  19.637   0.711
72175W        W43704  18.614  19.678   2.452
72176W        W43705  26.172  20.087   2.685
72177W        W43706   4.974   4.708  13.513
72178W        W43707  25.999   0.950  13.506
72179W        W43708  11.798   0.386  12.612
72180W        W43709  12.209  37.892   1.733
72181W        W43710  37.415  36.954   4.879
72182W        W43711  20.820  43.074   3.168
72183W        W43712  34.342   8.790  14.754
72184W        W43713  26.067  32.858  12.241
72185W        W43714  24.783  11.770  12.054
72186W        W43715  41.907   5.674   2.056
72187W        W43716   4.560  21.588   2.576
72188W        W43717  34.465   5.972   1.036
72189W        W43718  24.447   5.418  12.619
72190W        W43719  27.874  30.529  12.808
72191W        W43720  25.493  22.144   0.832
72192W        W43721  19.215  13.084  11.646
72193W        W43722  12.954  29.769   1.774
72194W        W43723   1.204  15.751   1.207
72195W        W43724  11.200  36.995  11.649
72196W        W43725  42.899  18.956  11.145
72197W        W43726   0.955  26.389   3.778
72198W        W43727   3.725   2.340   4.854
72199W        W43728  14.030  44.303   4.778
72200W        W43729  16.783  43.249   2.069
72201W        W43730  22.006  24.409   4.258
72202W        W43731  37.850  42.822   4.711
72203W        W43732   5.312   4.675   2.332
72204W        W43733  19.670  32.194  12.977
72205W        W43734   1.340  35.418  10.323
72206W        W43735   4.242  40.146  12.052
72207W        W43736   7.918  32.677  10.687
72208W        W43737  27.612  34.869   4.049
72209W        W43738  30.682  24.433   1.356
72210W        W43739   2.181  18.622   5.079
72211W        W43740  13.769  33.785  11.143
72212W        W43741  40.843  37.389   0.764
72213W        W43742  24.573  24.879  13.852
72214W        W43743  11.927  10.167   0.826
72215W        W43744   4.421   1.663  14.282
72216W        W43745  40.857  11.915  12.931
72217W        W43746  27.006  11.313  13.481
72218W        W43747  14.028  43.838  10.602
72219W        W43748  10.752  36.140   3.244
72220W        W43749  38.535  17.848   2.705
72221W        W43750   3.160   8.635  13.933
72222W        W43751   4.372  25.732  14.663
72223W        W43752   0.864  20.957   0.864
72224W        W43753  41.872   2.660   1.920
72225W        W43754  44.762  26.712  14.345
72226W        W43755  20.144  33.903   4.608
72227W        W43756  24.435  16.089   1.675
72228W        W43757  40.340  33.574   0.765
72229W        W43758   3.386  29.589  12.696
72230W        W43759  42.021  22.191  10.477
72231W        W43760  13.559  28.732  13.519
72232W        W43761   9.767  29.369   0.264
72233W        W43762   7.869  28.467  11.097
72234W        W43763  22.126  20.321   4.530
72235W        W43764  37.449   9.169  12.550
72236W        W43765  18.283  26.271  14.044
72237W        W43766  39.501  11.848   3.779
72238W        W43767  22.762   8.302  11.409
72239W        W43768  42.786  28.360  13.945
72240W        W43769   8.084  43.029   3.546
72241W        W43770  44.783  31.964  12.131
72242W        W43771  21.334  38.328   1.575
72243W        W43772  33.927   5.439  12.408
72244W        W43773   3.576  21.023   1.659
72245W        W43774  34.886   9.090   3.182
72246W        W43775  35.657   7.442   2.357
72247W        W43776  25.371  37.132  14.735
72248W        W43777   2.926  29.988  11.724
72249W        W43778  25.409  30.350  11.089
72250W        W43779  40.116  17.144   2.151
72251W        W43780  29.645  15.185   2.150
72252W        W43781   2.320   7.116   4.255
72253W        W43782  24.055  11.268   2.620
72254W        W43783   2.407  22.305   4.146
72255W        W43784   4.625  15.845   3.213
72256W        W43785  28.461  31.546  14.555
72257W        W43786  17.706  25.364  14.851
72258W        W43787  37.366  22.635   2.371
72259W        W43788  29.134   0.546   1.772
72260W        W43789   3.304  28.036  14.020
72261W        W43790   4.897  14.440   1.298
72262W        W43791   3.491  32.241  11.373
72263W        W43792  26.274  11.340  10.990
72264W        W43793  10.050   0.367   3.725
72265W        W43794  35.024   2.267   1.594
72266W        W43795  32.743  36.058  13.794
72267W        W43796  35.307  13.907   2.778
72268W        W43797  21.197   7.360  12.140
72269W        W43798   5.445  42.354  11.132
72270W        W43799  42.540  17.585  14.764
72271W        W43800  32.572  19.737  11.916
72272W        W43801   3.799  23.068  12.110
72273W        W43802  18.447  14.672  10.599
72274W        W43803  31.460  10.322   1.202
72275W        W43804  30.775  31.985  12.633
72276W        W43805  24.489  12.381   1.096
72277W        W43806  10.008  14.558  11.446
72278W        W43807  25.435   0.062  11.343
72279W        W43808  35.507  30.887  14.254
72280W        W43809  16.617  16.484  12.109
72281W        W43810  39.111  38.231   1.326
72282W        W43811  37.471  22.754  12.997
72283W        W43812  21.281  37.837   5.010
72284W        W43813   1.892  19.105  13.026
72285W        W43814   6.358   9.411   3.226
72286W        W43815  36.366   0.613   4.743
72287W        W43816  33.663   5.714  13.185
72288W        W43817  23.317   8.592  10.780
72289W        W43818  30.485   5.400   4.121
72290W        W43819   7.967  20.094   2.252
72291W        W43820  22.397  24.146   2.861
72292W        W43821  18.585   0.267  14.463
72293W        W43822  14.859  32.036  12.522
72294W        W43823   5.938  22.147   1.181
72295W        W43824  27.791  29.251  11.239
72296W        W43825  21.285   3.308   1.705
72297W        W43826  12.883   2.042   1.358
72298W        W43827  25.838  12.146  12.051
72299W        W43828  27.469  23.995  11.636
72300W        W43829  36.812  27.562   3.420
72301W        W43830  11.705  15.415  12.416
72302W        W43831  43.707  17.185   1.295
72303W        W43832  28.528  32.198   2.738
72304W        W43833  12.258  14.849  10.750
72305W        W43834  36.520  13.047  13.027
72306W        W43835  19.444  26.460  13.466
72307W        W43836  30.228  13.755   1.435
72308W        W43837  25.393  22.050  13.895
72309W        W43838   9.672  37.634  14.796
72310W        W43839  29.155  18.984  13.086
72311W        W43840  34.803   7.067  11.092
72312W        W43841  35.545   7.819   4.079
72313W        W43842  37.899  42.217  12.426
72314W        W43843  16.836   2.941   3.788
72315W        W43844  16.121  26.393   4.316
72316W        W43845   6.366  16.920  10.652
72317W        W43846  11.827   1.214  13.267
72318W        W43847  36.491  39.738   2.688
72319W        W43848  33.416  30.590  14.257
72320W        W43849   6.415   4.739   0.981
72321W        W43850  18.076  36.071   0.887
72322W        W43851  19.616  35.472  10.953
72323W        W43852   6.537   8.006  10.820
72324W        W43853  31.203  44.353   3.650
72325W        W43854  37.927  42.043   4.028
72326W        W43855  12.218  15.139   3.585
72327W        W43856  37.629   3.436  12.994
72328W        W43857  39.744  31.490   4.221
72329W        W43858  25.049  44.059   1.741
72330W        W43859  39.297  34.934   2.315
72331W        W43860   1.020  35.619   4.539
72332W        W43861   5.526  36.813  11.074
72333W        W43862  22.748   3.496   1.709
72334W        W43863  39.002  19.396   4.501
72335W        W43864   6.549  31.015   4.892
72336W        W43865  26.477  12.793   1.862
72337W        W43866  31.702  33.923  11.040
72338W        W43867  27.719  12.356  13.804
72339W        W43868  26.718   5.114   2.128
72340W        W43869  34.851  16.365  14.446
72341W        W43870  26.723  33.697  10.851
72342W        W43871  15.117   3.040  11.926
72343W        W43872  25.850   3.767  10.577
72344W        W43873  29.424   3.840  12.058
72345W        W43874  30.581  24.085  12.144
72346W        W43875  36.469  20.683   4.705
72347W        W43876  39.872  17.028   3.284
72348W        W43877  21.788   6.864  13.944
72349W        W43878  44.489  36.335   3.633
72350W        W43879  32.671  23.129   0.239
72351W        W43880   6.678  38.509   3.663
72352W        W43881  11.828  26.138   1.232
72353W        W43882  32.042  23.143   1.472
72354W        W43883  20.536  44.978  14.899
72355W        W43884  42.131   2.217   3.751
72356W        W43885  42.461  15.236   0.581
72357W        W43886  35.090  39.868  14.922
72358W        W43887  22.118  27.155  11.258
72359W        W43888  38.310  44.981   3.271
72360W        W43889  28.240  39.752  13.938
72361W        W43890  23.034  24.484  12.946
72362W        W43891  34.433  18.975  13.029
72363W        W43892  22.615   2.507  13.107
72364W        W43893   5.361   0.855  13.393
72365W        W43894  29.325  17.822   1.491
72366W        W43895  36.147  37.044   2.835
72367W        W43896  19.596   2.928  13.263
72368W        W43897   3.698   5.590  11.632
72369W        W43898   0.967   0.996   0.258
72370W        W43899   5.697  11.642  14.369
72371W        W43900  36.509  40.000   1.314
72372W        W43901  21.442  25.586  12.003
72373W        W43902  22.650   4.759   2.353
72374W        W43903  30.067  28.144   1.509
72375W        W43904   6.618  25.122   9.815
72376W        W43905  37.362  11.896  14.860
72377W        W43906  36.755   5.630   2.214
72378W        W43907  33.303  13.203   0.674
72379W        W43908  15.817  10.687   1.694
72380W        W43909  32.820   7.149  13.945
72381W        W43910  28.691  17.078   2.278
72382W        W43911  44.039  41.484   1.888
72383W        W43912  28.261   8.907   1.794
72384W        W43913  13.242  44.230  13.971
72385W        W43914  38.541   3.904  14.618
72386W        W43915  28.143  35.964  11.067
72387W        W43916  23.967  20.363  13.617
72388W        W43917  30.610  18.185   1.253
72389W        W43918  22.271  17.260   3.780
72390W        W43919  42.995  12.343  12.346
72391W        W43920   2.287  22.996  13.746
72392W        W43921   5.678   7.153   3.438
72393W        W43922  37.294  18.591   1.287
72394W        W43923  27.078  21.686  14.598
72395W        W43924  25.181  23.980  14.747
72396W        W43925   1.841  36.392   2.840
72397W        W43926  24.317  42.547  11.042
72398W        W43927  15.657  30.505  10.067
72399W        W43928  36.475   4.836   3.358
72400W        W43929  44.554   0.042   1.446
72401W        W43930   4.767  27.514  11.495
72402W        W43931  33.757   2.915  12.420
72403W        W43932  11.226  10.228  12.862
72404W        W43933  32.094  24.081   2.251
72405W        W43934  11.633  33.917   0.910
72406W        W43935  22.738  22.110   5.051
72407W        W43936  27.143  26.199  11.700
72408W        W43937  11.728   9.435  14.415
72409W        W43938  33.986  34.314   0.934
72410W        W43939  21.445  22.075   2.577
72411W        W43940  24.216  25.414   2.244
72412W        W43941   9.353  10.419   3.382
72413W        W43942  33.895  12.153  13.074
72414W        W43943   3.720   5.231  13.943
72415W        W43944  30.036  35.850   0.042
72416W        W43945  39.055  13.143   3.169
72417W        W43946   2.191  17.753   1.859
72418W        W43947  43.491  16.718  12.532
72419W        W43948  18.764  12.157   4.103
72420W        W43949  15.450  23.678   4.476
72421W        W43950  22.676   7.297  14.863
72422W        W43951  24.158  23.113   4.981
72423W        W43952  20.809   4.176   2.848
72424W        W43953  22.050  41.004   5.012
72425W        W43954  18.550   3.682  10.797
72426W        W43955  24.469  16.709   2.303
72427W        W43956   9.607  39.507  13.352
72428W        W43957  38.058  23.503  10.903
72429W        W43958  21.520  29.177  10.654
72430W        W43959  41.026  12.124  12.004
72431W        W43960  22.694   7.331   1.479
72432W        W43961   3.764  23.857  11.032
72433W        W43962  44.292  15.430  13.311
72434W        W43963  17.924  20.207  14.570
72435W        W43964  36.109   8.918   4.582
72436W        W43965  16.193  30.462  14.006
72437W        W43966  42.339   8.891  12.232
72438W        W43967  34.152  17.585   2.092
72439W        W43968   0.943  23.455   1.295
72440W        W43969  24.773  11.895  13.989
72441W        W43970  38.386  42.222  14.438
72442W        W43971   7.765  15.814   1.467
72443W        W43972  24.248   1.801   1.843
72444W        W43973  13.831  32.636   3.856
72445W        W43974  36.088  33.008  11.452
72446W        W43975  18.007  28.197   1.370
72447W        W43976  20.076   5.668  13.938
72448W        W43977  29.636  36.055   2.531
72449W        W43978  10.249  39.688  11.746
72450W        W43979  24.833   5.165   0.263
72451W        W43980  13.082  40.608   1.768
72452W        W43981  22.605   2.922  14.463
72453W        W43982  43.850  19.055   4.968
72454W        W43983  23.818  19.273   3.710
72455W        W43984  21.204  19.734   3.868
72456W        W43985   4.887  23.197  12.843
72457W        W43986  25.545  25.636   4.495
72458W        W43987   1.935  25.972   0.825
72459W        W43988  14.230  16.910   3.147
72460W        W43989  17.183  38.820  13.001
72461W        W43990  10.472  42.421   4.990
72462W        W43991  40.442   1.776   0.707
72463W        W43992  39.746  34.398  12.926
72464W        W43993   0.452  20.286  12.540
72465W        W43994  28.206   2.872   3.694
72466W        W43995  16.365  19.046   4.906
72467W        W43996   6.655  25.963  11.182
72468W        W43997  40.852  40.807  14.997
72469W        W43998  39.757   2.991  14.034
72470W        W43999  41.805  41.441  11.433
72471W        W44000  37.279   9.811  11.477
72472W        W44001  12.699  20.196  10.428
72473W        W44002  14.151   2.253  13.324
72474W        W44003   0.972  35.426  10.736
72475W        W44004  17.300  39.873  14.443
72476W        W44005  22.082  15.053  13.650
72477W        W44006  16.181  42.851   4.297
72478W        W44007  16.185  29.551  12.943
72479W        W44008  12.286  30.700   0.856
72480W        W44009  12.187  38.911   3.384
72481W        W44010  28.154  21.582  10.862
72482W        W44011   7.978  19.201  13.878
72483W        W44012  30.195   7.126  11.270
72484W        W44013   3.368  19.316  12.068
72485W        W44014   0.226  35.107   4.791
72486W        W44015   3.176   3.225   3.207
72487W        W44016   1.171  16.869  12.577
72488W        W44017  14.233  22.346  12.301
72489W        W44018   8.121  23.154  14.935
72490W        W44019  24.572  19.338   4.194
72491W        W44020  28.195  27.167   2.104
72492W        W44021   5.919   7.483   3.770
72493W        W44022   8.087  27.539   2.420
72494W        W44023  31.415  39.847   2.734
72495W        W44024  14.165  33.126   3.226
72496W        W44025  31.194   5.754  13.022
72497W        W44026   2.084  28.987  11.562
72498W        W44027  26.090  11.878   1.557
72499W        W44028  24.472  25.454   3.700
72500W        W44029  14.238  43.954   3.338
72501W        W44030  26.600  29.412   1.407
72502W        W44031  12.873   3.274   1.850
72503W        W44032  38.372   5.668  12.020
72504W        W44033   9.605  24.055  10.940
72505W        W44034  13.824  42.722   0.881
72506W        W44035   8.389  23.128  13.911
72507W        W44036  38.524  29.395   3.311
72508W        W44037   6.519  30.918  13.522
72509W        W44038  15.525  38.110  12.877
72510W        W44039  28.422   3.652  10.654
72511W        W44040  23.175  13.726  12.631
72512W        W44041  43.447  43.439  12.082
72513W        W44042  20.586  21.558   2.657
72514W        W44043  41.020  40.788  14.104
72515W        W44044  19.700  26.706   2.394
72516W        W44045  24.023  39.221   4.186
72517W        W44046   7.253   7.207  13.017
72518W        W44047   3.727  18.788   3.798
72519W        W44048  39.818  14.158   2.117
72520W        W44049  19.171  27.918   9.927
72521W        W44050  10.218  44.753   0.799
72522W        W44051  25.437  18.796   4.487
72523W        W44052  43.540  29.236  11.758
72524W        W44053  44.801  14.802   3.320
72525W        W44054  27.541  39.277   3.631
72526W        W44055   4.999  13.948   1.402
72527W        W44056  20.580  21.525   3.196
72528W        W44057  36.597  38.326  11.681
72529W        W44058  19.508  28.658   3.350
72530W        W44059   2.799  12.797  11.616
72531W        W44060  24.496  22.155  12.441
72532W        W44061  42.268  16.195   1.057
72533W        W44062  34.585   3.826  11.610
72534W        W44063  17.819  13.084  13.020
72535W        W44064  12.211  14.738   1.985
72536W        W44065  22.225  32.592  13.900
72537W        W44066   7.036  29.585  10.403
72538W        W44067   8.321  33.923   0.189
72539W        W44068  44.429   9.937   3.258
72540W        W44069  13.916  20.599   3.295
72541W        W44070  10.704  42.356  10.388
72542W        W44071  25.219  13.565  12.089
72543W        W44072   9.873   5.659   1.192
72544W        W44073   1.925  28.401   1.927
72545W        W44074  28.453   7.704  13.435
72546W        W44075  44.198  44.164  14.800
72547W        W44076  17.701  18.637  12.940
72548W        W44077  42.443  38.603   2.608
72549W        W44078  31.058  28.648   2.257
72550W        W44079   3.458  15.766   0.987
72551W        W44080  35.761  43.571   0.376
72552W        W44081  38.470  20.812  14.875
72553W        W44082  35.019  23.982   4.650
72554W        W44083   2.317  15.184  14.355
72555W        W44084  11.663   0.484  12.017
72556W        W44085  17.184  41.443  11.370
72557W        W44086  11.414  32.618   3.775
72558W        W44087   2.495  17.913   3.199
72559W        W44088   4.501   0.827  12.776
72560W        W44089  31.734  24.950  10.477
72561W        W44090  39.631  30.694  12.929
72562W        W44091  21.442   6.732   0.392
72563W        W44092  19.521  15.700  12.945
72564W        W44093  13.322   7.039  14.892
72565W        W44094  39.367   2.024  14.696
72566W        W44095   9.945  43.527   2.752
72567W        W44096   0.479  36.107   2.823
72568W        W44097  42.804   3.092   2.214
72569W        W44098   8.336  44.850  11.084
72570W        W44099  36.450   4.609  11.647
72571W        W44100  21.957  13.291   1.391
72572W        W44101  42.087  20.232   0.285
72573W        W44102  32.019  30.194  14.459
72574W        W44103  26.196  44.562  14.796
72575W        W44104   2.264   2.789   0.295
72576W        W44105  23.387  19.072  10.621
72577W        W44106  32.981  27.650   4.284
72578W        W44107  20.620  44.228   1.146
72579W        W44108  20.149   0.021   1.361
72580W        W44109  26.805  28.075   3.343
72581W        W44110  28.010  22.810   3.799
72582W        W44111  11.266   9.064   2.761
72583W        W44112   6.349  44.043   0.673
72584W        W44113  38.033  32.342  12.873
72585W        W44114  41.903  19.497  10.712
72586W        W44115   6.301  16.952   0.467
72587W        W44116   5.476  10.312  12.022
72588W        W44117  43.776  21.171   0.511
72589W        W44118  17.326  11.196   0.871
72590W        W44119  30.287  43.215   1.326
72591W        W44120  10.210   2.735  11.529
72592W        W44121   0.535  37.867  10.702
72593W        W44122  40.999  14.689   0.757
72594W        W44123   0.753  25.126   4.200
72595W        W44124  20.756  21.753  14.425
72596W        W44125   6.675  36.459  12.376
72597W        W44126  17.324  30.641  13.552
72598W        W44127   5.647  41.843   0.384
72599W        W44128  11.078  23.786  11.786
72600W        W44129  21.062  31.208   4.210
72601W        W44130   5.878  25.980   1.720
72602W        W44131  29.486  42.309  12.502
72603W        W44132  27.234  26.815   4.274
72604W        W44133  23.760  39.281   3.746
72605W        W44134  44.306  34.601   1.797
72606W        W44135  10.459  25.069  13.674
72607W        W44136  20.218  41.937   2.206
72608W        W44137   9.624  34.025   2.549
72609W        W44138   8.379  22.161  13.545
72610W        W44139  33.530  31.576  14.764
72611W        W44140  23.165  31.887   2.721
72612W        W44141  29.172  28.174  13.263
72613W        W44142  31.075  38.359   0.687
72614W        W44143  36.779  33.892   2.292
72615W        W44144  26.337  34.736  12.677
72616W        W44145  29.921  29.163   0.423
72617W        W44146  43.103   1.949  13.544
72618W        W44147  41.881  39.289   4.541
72619W        W44148  16.598  23.437   4.954
72620W        W44149  20.353  32.183   5.132
72621W        W44150   0.681  25.648   4.081
72622W        W44151   7.807  29.522   4.781
72623W        W44152  22.029  36.326  10.669
72624W        W44153  14.316  20.502  12.399
72625W        W44154  33.954  26.572   1.999
72626W        W44155  18.280   8.274   4.685
72627W        W44156  17.359  37.666   5.054
72628W        W44157  33.515  11.805   1.722
72629W        W44158   2.578  20.355  13.808
72630W        W44159  12.927  42.533  10.763
72631W        W44160  14.609  33.883  12.351
72632W        W44161  18.320   1.767   5.194
72633W        W44162  25.654   0.377  11.002
72634W        W44163  24.406   1.200  11.588
72635W        W44164  31.943  16.249   3.282
72636W        W44165  23.424  18.809   2.835
72637W        W44166  11.715   5.934  12.852
72638W        W44167   9.761  14.275  14.198
72639W        W44168  43.906  36.695  14.509
72640W        W44169  33.557  39.352  10.913
72641W        W44170  11.835  26.555  13.688
72642W        W44171  22.586  27.504  14.694
72643W        W44172  18.192  44.526  12.668
72644W        W44173   1.878   2.447   3.148
72645W        W44174  35.171  25.560  10.694
72646W        W44175  11.855  38.896   2.173
72647W        W44176  15.724  33.953   0.227
72648W        W44177  28.551   0.761  10.927
72649W        W44178  16.637  32.607  13.092
72650W        W44179  23.874  12.381  14.480
72651W        W44180  44.332  14.266  14.541
72652W        W44181  16.189   0.386  12.405
72653W        W44182  43.298   0.875   3.093
72654W        W44183  12.189   4.418  11.953
72655W        W44184  15.709   7.835   5.438
72656W        W44185  39.561  10.051   0.226
72657W        W44186  44.333  25.872  12.580
72658W        W44187  39.613  38.091  10.657
72659W        W44188  23.055   2.428  11.890
72660W        W44189  37.670  14.359   3.300
72661W        W44190  24.055  36.138   4.121
72662W        W44191  25.230   9.417   0.871
72663W        W44192  30.915  40.927   0.321
72664W        W44193   2.571  18.498   0.069
72665W        W44194   3.491   0.981   0.755
72666W        W44195   4.357   9.106  11.647
72667W        W44196  19.145  42.956   1.781
72668W        W44197  16.391  28.579   9.739
72669W        W44198  42.272  30.246   1.461
72670W        W44199   5.309   0.004  12.322
72671W        W44200   2.422  30.493  14.917
72672W        W44201  17.996  34.828   3.876
72673W        W44202   6.800  40.875  12.922
72674W        W44203   2.224  36.353   0.410
72675W        W44204  29.993   5.849   1.530
72676W        W44205  31.401  24.762  14.852
72677W        W44206  24.572   3.919  10.682
72678W        W44207  29.824  33.886  12.609
72679W        W44208  28.203  24.473   0.041
72680W        W44209   6.963  11.819   0.691
72681W        W44210  24.580  25.136   4.090
72682W        W44211  17.170  28.184   0.058
72683W        W44212  17.177   3.212   1.979
72684W        W44213  19.007  40.293  12.386
72685W        W44214  37.108   4.862   0.886
72686W        W44215  43.932   7.397  13.652
72687W        W44216  10.369  26.627  12.763
72688W        W44217  36.518  14.809  12.831
72689W        W44218  14.305  15.495  10.728
72690W        W44219  21.849   3.728  11.424
72691W        W44220  26.527  33.325  12.815
72692W        W44221  42.811   5.608   2.583
72693W        W44222  23.062   7.079  12.183
72694W        W44223  37.752  24.384   2.268
72695W        W44224   1.315  37.318  10.834
72696W        W44225  20.585   0.449  12.458
72697W        W44226  16.679   2.753   4.774
72698W        W44227   5.019  43.283  11.397
72699W        W44228  34.584  42.273   3.337
72700W        W44229  13.220   7.385  14.425
72701W        W44230   7.260  35.611  12.368
72702W        W44231   5.680  38.405   4.534
72703W        W44232  14.231  34.018   0.777
72704W        W44233   7.369  41.781   0.498
72705W        W44234  15.291  20.120  12.654
72706W        W44235   3.378   3.331  14.042
72707W        W44236   6.958  40.672   0.756
72708W        W44237   0.531   5.894   1.405
72709W        W44238  13.671  19.880   2.757
72710W        W44239  38.833  14.144   3.687
72711W        W44240  31.488  26.975   2.351
72712W        W44241  34.749  20.156  12.346
72713W        W44242   4.349  25.802   0.826
72714W        W44243  41.271   4.236  11.194
72715W        W44244   6.578  36.494  14.411
72716W        W44245  39.914  28.717   1.533
72717W        W44246  30.013  12.613  12.876
72718W        W44247  31.624   6.173  12.533
72719W        W44248  44.943   2.889   2.353
72720W        W44249  31.666  30.490  10.766
72721W        W44250  26.136   9.380   0.706
72722W        W44251  37.902   1.281   4.167
72723W        W44252  28.146   9.721   1.428
72724W        W44253  25.126  17.241   3.630
72725W        W44254  25.531  12.375  10.681
72726W        W44255  19.617  38.966   3.975
72727W        W44256   4.166  39.837   1.480
72728W        W44257  10.237  17.288  12.320
72729W        W44258  18.794   0.374  14.943
72730W        W44259   2.384   4.306   4.593
72731W        W44260  23.222  41.424   0.904
72732W        W44261   2.276  23.687   0.789
72733W        W44262   7.543  15.630  13.260
72734W        W44263  22.060  37.146  11.156
72735W        W44264  24.763  14.289  13.569
72736W        W44265  34.589  29.896  14.494
72737W        W44266  24.533   4.174  12.893
72738W        W44267  41.308  24.394  13.058
72739W        W44268  44.495   0.140  14.910
72740W        W44269  35.364   7.015  10.697
72741W        W44270  42.364   4.860   2.834
72742W        W44271  30.628  28.258   5.098
72743W        W44272  16.781  38.061  11.991
72744W        W44273  27.267  28.106   3.131
72745W        W44274   6.074  32.953  13.517
72746W        W44275  37.340  15.627   3.734
72747W        W44276  31.960  26.471  11.234
72748W        W44277  34.344  21.076  11.049
72749W        W44278  39.845  23.474  13.507
72750W        W44279  25.374  12.370  12.215
72751W        W44280  42.362  26.725  11.141
72752W        W44281  27.880  14.693   0.887
72753W        W44282  28.972  39.075  13.216
72754W        W44283  24.084   8.592  11.197
72755W        W44284   0.987  14.723  13.746
72756W        W44285  39.048  23.074  12.609
72757W        W44286   2.008  43.954  11.569
72758W        W44287   9.780  31.455  13.821
72759W        W44288   0.963  25.474  13.499
72760W        W44289  23.553  22.287  12.511
72761W        W44290  29.944  44.058   3.748
72762W        W44291  14.274  27.874   2.761
72763W        W44292  34.049  42.389   0.485
72764W        W44293  29.083  23.603  11.187
72765W        W44294  39.121  40.978   2.904
72766W        W44295   0.509  20.139   1.181
72767W        W44296  34.703  23.750   0.965
72768W        W44297  39.275   5.238   4.117
72769W        W44298  34.106   7.939   1.777
72770W        W44299  39.556  18.775  11.215
72771W        W44300  31.217  32.524   0.462
72772W        W44301  34.427  39.964   3.067
72773W        W44302  31.922  25.522   2.698
72774W        W44303  17.648  36.276  12.221
72775W        W44304  26.503   9.215   1.024
72776W        W44305  26.413  31.020  13.279
72777W        W44306  29.902  37.086   2.212
72778W        W44307  43.843  14.640  12.866
72779W        W44308   5.221  39.842   3.098
72780W        W44309  32.528  33.717   4.550
72781W        W44310  18.581  34.049  10.872
72782W        W44311  13.726  39.005   0.747
72783W        W44312  38.425  39.358  12.990
72784W        W44313  42.627  25.192   4.182
72785W        W44314  17.822  24.256  13.084
72786W        W44315  43.372   7.868   4.101
72787W        W44316  29.359  44.559   2.661
72788W        W44317  34.336  36.484   0.849
72789W        W44318   9.716  37.560  14.262
72790W        W44319   1.880  20.213   0.245
72791W        W44320  32.941   3.714  11.032
72792W        W44321  14.249  20.549  14.534
72793W        W44322  24.614   4.614  13.845
72794W        W44323   5.944  33.149  13.997
72795W        W44324  31.401  24.551   2.633
72796W        W44325  34.194  25.655   1.334
72797W        W44326  12.334  34.108   2.348
72798W        W44327  18.787  14.479   0.905
72799W        W44328  42.070   1.211  12.002
72800W        W44329  27.435  13.784  10.907
72801W        W44330  27.941   5.988   3.133
72802W        W44331  44.316  28.279   1.545
72803W        W44332   3.384   6.290   0.525
72804W        W44333  21.695  29.184   4.666
72805W        W44334  14.002  28.755   1.750
72806W        W44335  25.095  28.492  14.059
72807W        W44336  25.692  41.700  11.554
72808W        W44337  39.068  28.522   4.146
72809W        W44338   2.175   6.256   3.182
72810W        W44339   5.501   9.003  11.059
72811W        W44340  33.122   7.206   4.188
72812W        W44341  42.553  23.047  11.069
72813W        W44342  22.561  15.596   4.745
72814W        W44343  35.828  15.736   3.711
72815W        W44344   8.692  22.158  14.614
72816W        W44345  44.034  28.647  10.682
72817W        W44346  10.436  26.131   0.676
72818W        W44347   1.376   5.566  13.139
72819W        W44348  28.583  20.501   0.309
72820W        W44349  23.876  22.579  12.782
72821W        W44350   7.721  43.960   3.394
72822W        W44351  35.860  30.403  13.818
72823W        W44352  32.536  23.448  14.546
72824W        W44353   6.961  13.681   3.567
72825W        W44354  18.984  29.615  11.197
72826W        W44355  38.935   1.558   1.814
72827W        W44356   6.148   7.228  14.716
72828W        W44357   1.242  35.830   3.678
72829W        W44358  41.983  17.185  12.071
72830W        W44359   1.432  35.401   0.336
72831W        W44360  40.398   2.326  14.892
72832W        W44361  35.833  27.721   3.280
72833W        W44362  39.962  27.902   0.883
72834W        W44363   1.823  35.086   2.281
72835W        W44364   9.710  12.286   4.654
72836W        W44365  18.598  22.215   1.474
72837W        W44366  17.827  33.432  12.542
72838W        W44367  44.555  27.558  13.826
72839W        W44368  26.378   4.193  13.234
72840W        W44369  23.780  34.399  13.823
72841W        W44370  38.114  20.523   1.452
72842W        W44371   3.854  14.679  11.053
72843W        W44372   5.020   9.494   2.504
72844W        W44373   5.893  43.865   2.822
72845W        W44374  34.839  32.911  11.422
72846W        W44375  23.546   2.175  14.582
72847W        W44376   6.757   1.854  11.304
72848W        W44377  13.896  23.582   4.635
72849W        W44378  21.524  28.001  13.034
72850W        W44379  18.362  35.398   3.300
72851W        W44380  17.768  11.742  12.089
72852W        W44381  13.578  29.499  11.551
72853W        W44382  33.196  25.637  11.690
72854W        W44383   9.198  28.591   0.696
72855W        W44384   1.058  13.577   3.990
72856W        W44385   8.830  34.424   9.866
72857W        W44386   2.349  30.287   2.946
72858W        W44387  17.303  22.604  13.476
72859W        W44388   0.769  27.038  11.603
72860W        W44389   5.159  15.636  13.359
72861W        W44390   8.550  43.203   4.027
72862W        W44391   5.846  38.017   3.690
72863W        W44392  39.846  25.853  14.383
72864W        W44393   3.672  17.043   2.156
72865W        W44394  38.635  41.449   4.198
72866W        W44395  34.044  31.043  13.017
72867W        W44396   0.696  35.571   5.506
72868W        W44397  11.234   4.139  12.966
72869W        W44398  28.473  42.562   0.693
72870W        W44399   3.831  39.960   3.789
72871W        W44400  29.916  43.129   0.945
72872W        W44401   4.223   3.393   1.607
72873W        W44402  43.272   8.180  10.816
72874W        W44403   5.086  31.515   2.194
72875W        W44404  41.778   3.839   3.649
72876W        W44405  31.011  31.849  10.743
72877W        W44406  44.247  19.897   2.840
72878W        W44407   3.400  14.356   1.739
72879W        W44408  35.558  29.293   2.845
72880W        W44409  25.507  31.156  10.713
72881W        W44410  31.310   7.742  14.520
72882W        W44411   2.001  37.180  11.227
72883W        W44412  24.940  11.655  12.533
72884W        W44413  28.726  18.536   1.955
72885W        W44414  35.882  13.598  11.674
72886W        W44415   8.579  14.201  12.012
72887W        W44416   9.797  20.849  11.395
72888W        W44417  35.143  15.317   0.783
72889W        W44418  12.939   0.854   1.864
72890W        W44419  14.681  32.056   0.032
72891W        W44420   6.855   3.793  13.832
72892W        W44421  24.357   5.937  12.585
72893W        W44422   4.491  30.943  14.415
72894W        W44423  28.528   2.190  14.253
72895W        W44424  13.087  13.019  13.943
72896W        W44425  24.940  12.198   0.260
72897W        W44426  12.137  39.325  14.371
72898W        W44427  22.653  28.078   0.385
72899W        W44428  31.907  33.308  12.544
72900W        W44429   4.734  38.858   0.926
72901W        W44430   9.109  18.588  13.550
72902W        W44431  34.465  38.494   1.142
72903W        W44432   2.365  17.074   4.277
72904W        W44433   8.737  30.966   4.064
72905W        W44434  24.058  30.095  12.114
72906W        W44435  37.640  23.807  11.592
72907W        W44436  40.895  21.735   0.289
72908W        W44437   2.923  25.956  11.518
72909W        W44438  36.030  35.198   3.215
72910W        W44439   8.344  25.421   0.778
72911W        W44440  36.485   4.710   4.632
72912W        W44441   0.860   1.844  11.695
72913W        W44442  44.153  36.531   2.713
72914W        W44443  32.125   3.395  12.931
72915W        W44444  20.264  26.103  11.445
72916W        W44445   3.671  36.264   1.743
72917W        W44446   4.242  32.241  11.994
72918W        W44447  40.010  25.219   1.775
72919W        W44448  42.066  39.221   0.245
72920W        W44449  31.046  19.581   0.450
72921W        W44450  29.063  30.171   4.614
72922W        W44451  33.807  23.076  13.086
72923W        W44452   7.621  10.245   0.357
72924W        W44453  15.503  26.152  10.754
72925W        W44454  15.827   2.151  12.849
72926W        W44455  40.080  36.298   1.345
72927W        W44456  21.610  17.548  14.003
72928W        W44457  44.827   2.350  14.122
72929W        W44458  32.946  28.332  14.656
72930W        W44459  44.346   8.687   4.629
72931W        W44460  44.398  31.587   3.703
72932W        W44461   0.703   2.694  13.022
72933W        W44462  21.139   4.201  11.527
72934W        W44463  21.452  21.119   1.874
72935W        W44464   3.224  14.716   2.810
72936W        W44465   4.435  23.244  13.611
72937W        W44466  26.018   4.472  13.523
72938W        W44467  43.755  22.655   4.065
72939W        W44468  34.423  12.203   2.342
72940W        W44469  20.059  35.564   2.278
72941W        W44470  18.985  11.821   4.646
72942W        W44471  44.541   7.783  11.538
72943W        W44472  22.958   2.458   0.906
72944W        W44473  28.560   1.326   3.842
72945W        W44474  22.476  28.914   0.384
72946W        W44475   7.780  21.930  11.638
72947W        W44476  31.992  32.103   2.024
72948W        W44477  30.360  19.228  11.209
72949W        W44478  44.605  34.822  11.900
72950W        W44479  16.408  27.611  14.123
72951W        W44480  32.741  32.280   2.065
72952W        W44481   8.660   1.909  10.766
72953W        W44482  24.611  13.367  13.748
72954W        W44483  18.552  29.554   0.767
72955W        W44484  28.728  14.869  12.848
72956W        W44485  22.456  17.235   2.515
72957W        W44486   5.732  43.220   4.254
72958W        W44487  16.037   3.124   3.055
72959W        W44488   7.943  36.849  12.492
72960W        W44489   6.325  29.780  13.475
72961W        W44490   5.891  22.651  11.039
72962W        W44491  30.094  15.248  12.484
72963W        W44492  28.686  17.464   4.056
72964W        W44493  25.360  31.561   1.716
72965W        W44494   3.382  27.655   2.155
72966W        W44495   8.679   5.417   3.216
72967W        W44496  33.121  29.955   0.809
72968W        W44497  13.330   4.264  10.656
72969W        W44498  11.867  25.198  13.750
72970W        W44499   4.399  43.928   2.464
72971W        W44500  27.144  35.554   3.665
72972W        W44501  43.992  19.795  13.523
72973W        W44502  28.769  12.782   3.091
72974W        W44503  22.057  37.391   5.254
72975W        W44504   6.990   7.193  13.472
72976W        W44505  20.546  10.623  10.651
72977W        W44506  22.161  37.423   1.996
72978W        W44507  15.056  40.367   2.210
72979W        W44508  36.462   9.473  12.225
72980W        W44509  27.589  30.435  13.882
72981W        W44510  19.173  20.195  13.349
72982W        W44511  13.620  16.714  14.613
72983W        W44512  38.558  25.530   1.673
72984W        W44513  14.534  33.133  12.140
72985W        W44514  29.965   6.785   2.452
72986W        W44515  35.878  23.320   1.685
72987W        W44516  11.723  15.145   0.401
72988W        W44517  15.682  28.112   0.992
72989W        W44518  21.575  31.157   2.881
72990W        W44519  35.450  30.940   1.492
72991W        W44520  19.992   6.299   0.921
72992W        W44521  15.494  18.470  12.568
72993W        W44522  17.606  33.085   3.637
72994W        W44523   7.813  24.078   4.090
72995W        W44524   4.632  40.287  12.770
72996W        W44525  31.699  18.724  12.214
72997W        W44526   1.074  27.530   0.322
72998W        W44527   7.921  24.564   2.168
72999W        W44528  39.088  22.430  11.041
73000W        W44529   5.345   6.009  14.968
73001W        W44530  44.253  37.890   0.927
73002W        W44531   6.811   2.987  13.389
73003W        W44532   3.598  13.318  11.150
73004W        W44533  31.167   0.483  10.673
73005W        W44534  19.317  34.424   2.372
73006W        W44535   0.485  11.139   0.386
73007W        W44536  13.979   7.709   4.344
73008W        W44537  24.747   0.878  11.376
73009W        W44538   4.983  24.996   3.230
73010W        W44539   7.370  16.096  11.152
73011W        W44540  37.635  25.015  11.820
73012W        W44541   3.447  38.395  13.997
73013W        W44542  40.984  31.846   0.071
73014W        W44543  18.161  33.642   1.562
73015W        W44544  44.417  42.358  12.960
73016W        W44545  26.035   9.906   3.317
73017W        W44546   1.741  42.863  14.907
73018W        W44547  18.436  31.557  10.041
73019W        W44548   9.379  27.002  12.352
73020W        W44549  35.808   1.724   0.096
73021W        W44550   6.345  43.048   4.222
73022W        W44551  26.258   5.853  10.961
73023W        W44552   7.379  17.296  11.610
73024W        W44553   6.341  37.134   1.356
73025W        W44554  32.982  21.592   4.549
73026W        W44555  24.727  28.063   4.159
73027W        W44556  12.901  40.270   4.183
73028W        W44557  41.323  16.253   1.958
73029W        W44558  38.303  43.346  13.495
73030W        W44559  23.646   4.800   1.303
73031W        W44560  32.082   8.345  11.528
73032W        W44561  40.395   1.638  13.850
73033W        W44562  25.941  19.699   3.821
73034W        W44563  16.159  14.752   3.063
73035W        W44564  26.087  44.873  13.033
73036W        W44565  18.633  16.735   2.716
73037W        W44566  32.496  38.116   3.827
73038W        W44567  17.733  43.339  12.849
73039W        W44568  20.104   1.311  12.804
73040W        W44569  18.663  25.544   3.880
73041W        W44570  19.084  32.084   3.077
73042W        W44571  35.583   9.564   4.184
73043W        W44572  13.162  42.590   3.504
73044W        W44573  16.172  31.464   4.069
73045W        W44574  40.775  43.499   3.873
73046W        W44575  34.198  41.202  14.308
73047W        W44576   2.302  14.365  14.011
73048W        W44577  38.342  16.724   0.704
73049W        W44578  38.538  40.479  11.513
73050W        W44579  23.090  17.307  11.326
73051W        W44580  31.581   4.837   3.891
73052W        W44581  44.706  34.408  14.953
73053W        W44582  44.693  32.232  13.507
73054W        W44583   3.292  16.126  14.421
73055W        W44584  10.398  41.766  12.976
73056W        W44585  19.491   7.335   0.435
73057W        W44586  33.054  15.849  13.015
73058W        W44587   2.334   9.261  13.825
73059W        W44588  13.249  27.734   3.059
73060W        W44589  41.513  42.619   1.844
73061W        W44590  44.074  13.562  14.080
73062W        W44591  44.754  21.289   4.566
73063W        W44592  12.311  26.456  12.378
73064W        W44593  30.342   8.643  11.143
73065W        W44594   3.964  14.854   4.076
73066W        W44595   7.274  28.295   2.197
73067W        W44596  37.585   5.934  11.169
73068W        W44597  24.041  17.662  13.112
73069W        W44598  11.150  28.123  11.670
73070W        W44599  39.584  30.025  11.559
73071W        W44600   4.756  30.184  14.868
73072W        W44601  39.489  18.766   3.268
73073W        W44602  27.395   3.849   3.877
73074W        W44603  13.211  21.328  10.226
73075W        W44604  31.122  16.071   2.655
73076W        W44605  41.916  31.687   2.113
73077W        W44606  24.807  39.450   3.737
73078W        W44607   4.219  12.404  11.179
73079W        W44608  44.822  29.488  13.381
73080W        W44609   9.766  10.211   3.167
73081W        W44610   3.833  13.856  10.507
73082W        W44611  36.304   7.590   4.713
73083W        W44612  36.510  34.158  11.620
73084W        W44613  12.903  29.110  12.516
73085W        W44614   1.032  22.644   3.675
73086W        W44615   9.693  20.749   3.718
73087W        W44616  25.251  39.803  14.289
73088W        W44617   9.710  24.958  14.923
73089W        W44618  30.575  40.619   4.002
73090W        W44619  35.367  11.307  10.719
73091W        W44620   9.441  31.460  13.025
73092W        W44621   7.645  17.869  13.327
73093W        W44622  24.664  33.152  10.722
73094W        W44623   5.913  42.195  10.474
73095W        W44624  44.343   6.180  14.287
73096W        W44625  12.719  35.827  12.466
73097W        W44626  18.541  27.393  11.949
73098W        W44627  22.704  22.750   2.706
73099W        W44628   0.854  44.274  13.968
73100W        W44629  17.722  11.336   2.646
73101W        W44630  17.760   1.262   3.380
73102W        W44631  41.433   4.430  12.425
73103W        W44632  37.052  22.543   1.872
73104W        W44633  25.150   9.503   1.660
73105W        W44634  26.124  36.502  14.731
73106W        W44635  39.952  34.947  11.709
73107W        W44636  37.169  26.889  12.888
73108W        W44637   5.476  29.966   1.858
73109W        W44638  41.812   2.713  13.885
73110W        W44639   4.596  43.909   3.259
73111W        W44640   9.364  27.287   3.011
73112W        W44641  10.335  34.327  14.541
73113W        W44642   9.820  30.730  13.516
73114W        W44643  10.516  27.748   0.229
73115W        W44644  26.620  41.907  12.491
73116W        W44645  43.345  13.261  12.308
73117W        W44646  31.292  35.415   2.366
73118W        W44647  40.491  35.998   2.436
73119W        W44648  27.955   6.895   2.291
73120W        W44649   2.462  16.716   3.900
73121W        W44650   6.396  21.654  12.063
73122W        W44651  33.110  18.216   1.714
73123W        W44652  28.958   0.759   2.702
73124W        W44653   7.495   8.587  14.909
73125W        W44654  27.036  20.754  11.545
73126W        W44655  33.507  28.817  12.726
73127W        W44656  13.457  16.795   2.411
73128W        W44657  18.557  43.935   0.103
73129W        W44658   5.235  39.405  14.683
73130W        W44659  38.487  10.715   3.062
73131W        W44660   8.330  41.144  12.300
73132W        W44661  41.017  33.362  11.966
73133W        W44662   1.244  40.802   1.699
73134W        W44663  33.452  17.684  13.997
73135W        W44664   1.192  20.501  13.036
73136W        W44665  37.399   5.706  14.391
73137W        W44666  24.636   0.659  13.151
73138W        W44667  18.597  14.937  12.426
73139W        W44668  44.000   3.274   1.267
73140W        W44669  42.494  25.231  12.096
73141W        W44670  20.962  29.008  12.012
73142W        W44671  27.777  13.667  13.446
73143W        W44672   9.334  22.203   2.856
73144W        W44673  18.690  35.354   1.117
73145W        W44674  42.258  35.799  11.915
73146W        W44675  39.271  19.559   0.445
73147W        W44676  42.614  11.683   4.716
73148W        W44677  26.586   3.032   3.067
73149W        W44678   2.504   0.959  10.749
73150W        W44679  21.455  26.117   2.751
73151W        W44680  26.639  25.736  11.102
73152W        W44681  21.116  12.300  13.966
73153W        W44682  22.136  43.084  12.207
73154W        W44683  24.271  28.554   2.832
73155W        W44684  10.350   9.364   3.208
73156W        W44685  25.000  31.873  14.728
73157W        W44686  32.910  14.829   1.667
73158W        W44687  39.846  38.718  13.457
73159W        W44688  22.243  21.483  12.010
73160W        W44689  24.749  36.434  13.085
73161W        W44690  23.236  35.341   1.161
73162W        W44691  13.377  14.276  14.002
73163W        W44692  21.986  17.328   0.715
73164W        W44693  37.626  25.231  13.552
73165W        W44694   3.579  21.792   1.030
73166W        W44695  23.096  35.374   2.209
73167W        W44696  33.162  27.150   3.605
73168W        W44697  43.803  35.860  10.629
73169W        W44698  30.176   3.342   4.583
73170W        W44699   0.793  10.698  10.696
73171W        W44700  18.759  18.300  11.670
73172W        W44701  23.615   1.307  13.085
73173W        W44702  40.140   2.698  13.785
73174W        W44703  16.323  12.448  11.125
73175W        W44704  16.135  16.795   2.914
73176W        W44705  27.962  13.029  13.620
73177W        W44706  19.484   1.364  14.337
73178W        W44707  31.005   9.145  12.646
73179W        W44708  41.087  20.660   4.194
73180W        W44709  34.834  36.954  13.171
73181W        W44710  22.241  41.027   1.853
73182W        W44711  19.500  12.397   3.641
73183W        W44712   2.886  22.627   0.830
73184W        W44713  18.810  36.068  13.671
73185W        W44714  24.551  37.239  11.643
73186W        W44715  43.542  31.867   1.403
73187W        W44716  29.745  44.977   3.911
73188W        W44717  10.725   2.489  11.497
73189W        W44718  32.306  10.376  12.920
73190W        W44719   0.201  40.673   3.264
73191W        W44720   8.769  29.357   1.066
73192W        W44721  29.100  17.601  13.623
73193W        W44722   6.015  15.684   4.882
73194W        W44723  32.800  17.688   2.279
73195W        W44724  18.815  42.066   1.859
73196W        W44725  11.479  24.019  14.786
73197W        W44726  33.384  18.832  12.475
73198W        W44727  23.058  10.655  13.232
73199W        W44728  29.900   0.285   2.097
73200W        W44729  36.309  24.174  11.414
73201W        W44730  37.497  35.913  13.090
73202W        W44731  12.938  16.668   4.874
73203W        W44732   4.924  17.030  11.174
73204W        W44733  27.443  17.149  11.109
73205W        W44734  29.110   9.270   2.696
73206W        W44735  32.158   5.664  11.220
73207W        W44736  30.065  31.641   0.103
73208W        W44737   6.413  12.609   0.415
73209W        W44738  32.418  21.279   4.349
73210W        W44739  19.677  23.030  11.116
73211W        W44740   7.098  16.188  14.409
73212W        W44741  38.506   9.338  14.892
73213W        W44742  25.430  34.180  14.785
73214W        W44743  38.749  11.278  11.932
73215W        W44744   6.935  26.171  12.121
73216W        W44745   3.986  22.128   3.327
73217W        W44746  29.186  32.504  12.019
73218W        W44747  12.217  38.587   1.461
73219W        W44748  30.784   0.475  11.677
73220W        W44749  37.102   2.894   3.196
73221W        W44750  35.996  14.130   4.110
73222W        W44751  21.206  28.072   3.931
73223W        W44752   1.646  20.589  11.520
73224W        W44753  14.355  44.762   0.401
73225W        W44754  16.187   3.492  10.492
73226W        W44755  14.604  11.040   1.453
73227W        W44756  24.530   6.139   3.749
73228W        W44757   2.091  42.260  11.905
73229W        W44758   4.748  39.022  12.975
73230W        W44759  14.680  44.253   1.206
73231W        W44760  41.273   4.455   3.828
73232W        W44761  36.972  43.884  11.560
73233W        W44762  37.844  10.325  10.512
73234W        W44763  23.554   8.504  12.376
73235W        W44764  18.324  27.571  10.328
73236W        W44765  17.327  44.078   2.027
73237W        W44766  32.152  20.552   4.900
73238W        W44767  19.986  24.017  14.462
73239W        W44768  28.572   8.609  13.076
73240W        W44769   2.916   0.231   0.637
73241W        W44770  44.441  40.589   5.028
73242W        W44771  37.424  25.823  11.662
73243W        W44772  15.087  36.279  12.715
73244W        W44773  12.217  15.417   0.348
73245W        W44774  26.158  34.011   1.352
73246W        W44775  24.453  42.336   0.278
73247W        W44776  43.528  11.077  13.600
73248W        W44777  39.014  41.680  11.587
73249W        W44778  16.333  28.100  14.258
73250W        W44779  40.900  16.756   1.367
73251W        W44780   4.157  38.312   0.490
73252W        W44781   3.898  13.375   1.192
73253W        W44782  13.597   5.267  12.010
73254W        W44783  30.235  40.905  13.364
73255W        W44784  27.342  23.154   4.230
73256W        W44785  17.659  20.187  13.537
73257W        W44786  23.974  14.216  13.048
73258W        W44787  26.561  26.234   2.359
73259W        W44788  43.485  32.154  12.454
73260W        W44789  16.321  23.264  12.985
73261W        W44790  18.071  14.941  14.052
73262W        W44791  16.068   9.708  13.442
73263W        W44792   6.492  25.687   3.545
73264W        W44793  22.589   0.830  10.380
73265W        W44794  30.985  31.340   3.167
73266W        W44795   6.144  15.709  11.136
73267W        W44796  21.775   7.902  12.101
73268W        W44797  17.543   0.470  13.470
73269W        W44798  18.569  36.117   2.817
73270W        W44799  16.720  43.411  13.790
73271W        W44800  26.135   8.258   4.717
73272W        W44801  35.413  18.053   4.174
73273W        W44802  39.807  15.745  13.714
73274W        W44803  31.499   9.795   4.622
73275W        W44804   6.667  12.421   2.410
73276W        W44805  27.936   6.368   4.533
73277W        W44806   8.958  28.946   0.122
73278W        W44807   7.795  19.680  13.981
73279W        W44808   9.345   8.722   2.834
73280W        W44809  44.734   3.924  12.007
73281W        W44810   9.199  23.083   2.775
73282W        W44811  27.378  18.629  11.219
73283W        W44812  14.683  32.946   0.033
73284W        W44813  43.054  19.628  14.721
73285W        W44814  12.955  33.624  14.452
73286W        W44815   1.549  37.952  13.920
73287W        W44816   1.998  28.751   2.275
73288W        W44817  29.635  44.062   0.011
73289W        W44818  27.656   1.802  14.435
73290W        W44819   0.264  35.852  11.661
73291W        W44820  25.534   0.031   3.153
73292W        W44821  22.475   2.781   2.771
73293W        W44822   1.529  34.167  11.138
73294W        W44823  12.010   1.376   4.784
73295W        W44824  33.400  36.469   3.094
73296W        W44825  34.403  31.182   4.137
73297W        W44826  14.796  28.972  11.705
73298W        W44827  18.299  10.932  10.814
73299W        W44828  42.353  14.336   0.995
73300W        W44829  12.869  41.278   0.437
73301W        W44830  10.082  20.532   1.435
73302W        W44831  17.690  16.223  10.612
73303W        W44832  11.237  37.692   3.544
73304W        W44833  10.141  20.733  13.698
73305W        W44834  37.612  37.987   1.641
73306W        W44835   5.549  40.972   2.791
73307W        W44836  34.484  42.047   1.049
73308W        W44837  31.941   2.946  14.534
73309W        W44838  43.937  43.060  11.105
73310W        W44839  34.702  41.123   2.539
73311W        W44840  41.413  16.999  14.473
73312W        W44841   5.258  13.436  14.536
73313W        W44842   3.694  44.819   1.836
73314W        W44843  29.209  23.032  12.365
73315W        W44844  20.171  39.326  14.067
73316W        W44845  32.950   5.681  12.994
73317W        W44846  21.552  19.556  14.515
73318W        W44847  31.666  43.874  12.210
73319W        W44848   2.455  29.916   1.238
73320W        W44849   4.845  41.812  14.764
73321W        W44850  12.228  18.994  13.505
73322W        W44851   5.476  37.556   1.752
73323W        W44852  41.969   5.884   0.468
73324W        W44853  35.687  15.428  11.267
73325W        W44854  38.989   2.686   2.672
73326W        W44855  44.659   3.624  14.040
73327W        W44856  44.436  42.772  11.187
73328W        W44857  17.042  34.885   2.339
73329W        W44858  20.133   1.848  12.045
73330W        W44859  16.609   7.767   1.370
73331W        W44860  32.812  44.709  12.392
73332W        W44861  38.909   7.390  14.846
73333W        W44862  17.580   8.936   1.772
73334W        W44863  18.976   0.871   2.608
73335W        W44864  17.853   4.837   2.864
73336W        W44865  30.480  15.495   5.301
73337W        W44866   0.041  31.677  11.739
73338W        W44867   5.230  31.067  11.680
73339W        W44868   2.745  41.023   3.847
73340W        W44869   9.059  33.890  14.367
73341W        W44870  25.586  44.047   0.305
73342W        W44871   7.279  15.339   1.247
73343W        W44872  33.537  14.195   4.105
73344W        W44873  13.103   2.510   5.035
73345W        W44874   0.317  41.870   1.397
73346W        W44875  33.474   1.645   1.233
73347W        W44876  34.507  35.887  13.149
73348W        W44877  10.667   1.452  10.281
73349W        W44878  17.210  38.833   4.174
73350W        W44879  30.916  18.576   1.351
73351W        W44880  18.594  35.646  13.464
73352W        W44881  12.216  42.702   1.860
73353W        W44882  11.214   4.499   3.267
73354W        W44883  25.284   5.893   2.289
73355W        W44884   7.626  35.887   3.593
73356W        W44885  13.227   2.277   1.024
73357W        W44886  17.309  21.049  12.561
73358W        W44887  27.344  36.139   3.756
73359W        W44888  24.084  21.523   4.384
73360W        W44889  17.261  14.513  14.403
73361W        W44890  34.430  32.375   2.428
73362W        W44891  19.878   0.873  11.319
73363W        W44892  43.393  38.622   2.403
73364W        W44893  16.588  31.044  12.539
73365W        W44894   1.297  44.858  14.568
73366W        W44895  27.395  30.402  11.917
73367W        W44896   9.740  37.859   1.208
73368W        W44897   1.373  31.551   3.392
73369W        W44898  11.617   6.909  12.293
73370W        W44899  28.040  23.011  14.718
73371W        W44900  16.262  34.679   0.025
73372W        W44901  27.444  30.899   0.968
73373W        W44902  32.499  34.487  13.225
73374W        W44903  35.646  33.018   3.674
73375W        W44904  33.631  39.882  14.407
73376W        W44905  38.199  10.955   3.481
73377W        W44906  33.003  24.040  10.678
73378W        W44907  34.571  33.002   1.749
73379W        W44908  16.638  25.658  12.959
73380W        W44909  11.706   7.082  11.821
73381W        W44910  13.898  33.546   4.759
73382W        W44911  42.256   0.999   1.944
73383W        W44912   5.132   0.958  14.314
73384W        W44913  27.681  15.506   0.839
73385W        W44914  41.364  18.280   2.291
73386W        W44915   7.879  36.595   3.714
73387W        W44916  38.253  24.699  12.457
73388W        W44917  24.407  33.008   3.243
73389W        W44918  31.837  10.710  11.221
73390W        W44919   2.860   6.640  11.586
73391W        W44920  31.505  20.491   1.017
73392W        W44921  44.629   0.892  11.659
73393W        W44922   1.725   9.108   1.525
73394W        W44923  29.078  16.488  13.991
73395W        W44924  17.031  27.762   2.167
73396W        W44925   0.214  28.936   4.093
73397W        W44926  10.342  26.737   3.287
73398W        W44927  38.609  35.920  14.280
73399W        W44928  11.586   6.334  13.530
73400W        W44929  12.109  43.652   1.348
73401W        W44930  21.696  22.117   3.348
73402W        W44931  35.771   5.893  13.519
73403W        W44932  11.391  29.391   2.239
73404W        W44933  41.301   3.920  13.172
73405W        W44934  33.570   0.300  14.951
73406W        W44935   5.024  26.403   3.266
73407W        W44936   7.395  26.930  14.510
73408W        W44937  21.617  33.605  13.052
73409W        W44938  29.406  23.605  11.579
73410W        W44939  30.823  10.277   3.138
73411W        W44940   1.905   2.269  12.501
73412W        W44941  13.317  11.574   3.660
73413W        W44942   8.868  28.996   1.419
73414W        W44943  25.679   6.793   4.902
73415W        W44944  38.911   0.182   1.377
73416W        W44945  33.844   5.348  12.893
73417W        W44946  33.121  16.349  12.528
73418W        W44947  27.439  44.962  10.665
73419W        W44948   1.687  42.173  11.584
73420W        W44949   3.794  40.829   3.784
73421W        W44950  18.845  19.575   5.101
73422W        W44951  10.448   2.986  11.096
73423W        W44952   0.340   4.408  13.091
73424W        W44953  12.975  31.707   3.321
73425W        W44954  24.737  44.864  14.858
73426W        W44955  28.400  43.301  12.132
73427W        W44956  35.805  18.838  11.877
73428W        W44957  26.554  18.719   0.732
73429W        W44958  29.105  29.263   4.972
73430W        W44959  23.889  12.256  12.779
73431W        W44960   1.437  36.833   3.600
73432W        W44961  33.380  15.649   4.953
73433W        W44962   5.273  29.923  10.687
73434W        W44963  19.493  43.427   4.035
73435W        W44964   4.358  37.383  12.500
73436W        W44965  10.727  39.227  13.966
73437W        W44966  32.753  20.696   3.542
73438W        W44967  20.042   4.768  12.496
73439W        W44968  30.140  16.117   1.402
73440W        W44969  24.807  20.740  12.074
73441W        W44970  24.483   0.485   1.898
73442W        W44971   7.919  39.696  10.661
73443W        W44972  36.487   2.820   1.882
73444W        W44973  28.599  12.878  11.505
73445W        W44974  37.994  28.288  14.273
73446W        W44975  20.542  25.250   4.589
73447W        W44976  41.248   5.481   0.909
73448W        W44977  40.305   6.537  12.375
73449W        W44978  12.257   0.393   1.067
73450W        W44979  35.831   1.914   3.578
73451W        W44980  18.331  40.466   2.271
73452W        W44981  30.630  19.519   4.768
73453W        W44982  30.128   0.507  13.361
73454W        W44983   5.681  39.486   3.843
73455W        W44984  12.969  28.197  12.604
73456W        W44985  39.613  14.152  14.669
73457W        W44986  37.444  33.663   3.108
73458W        W44987  28.251  14.144   3.137
73459W        W44988  16.662  13.273  13.305
73460W        W44989  23.044  37.444  13.341
73461W        W44990  43.031   5.735  10.457
73462W        W44991  13.773   9.778   0.065
73463W        W44992  40.769  24.262  12.894
73464W        W44993  15.756  22.273   4.744
73465W        W44994  29.650  37.854   2.772
73466W        W44995  42.092  41.057   1.067
73467W        W44996  15.324  41.456  10.849
73468W        W44997   8.921  20.926  12.509
73469W        W44998   6.442  35.661  14.524
73470W        W44999  40.468  36.429   4.205
73471W        W45000  13.072   2.251   2.496
73472W        W45001  32.300  10.578   1.416
73473W        W45002  22.663  32.301  13.842
73474W        W45003  42.730   5.387  10.723
73475W        W45004  17.913  25.127  13.363
73476W        W45005  19.765   9.269   0.427
73477W        W45006  40.009  27.071   4.714
73478W        W45007  33.261  19.782   3.831
73479W        W45008  11.638  22.994  12.875
73480W        W45009  20.625  38.992  14.246
73481W        W45010   8.336  40.706  11.924
73482W        W45011  22.281   9.578  13.412
73483W        W45012   0.713  35.835   4.195
73484W        W45013  35.636  35.549   0.414
73485W        W45014  27.047  30.123   0.791
73486W        W45015  26.162  17.714   1.740
73487W        W45016  24.758  32.017   0.464
73488W        W45017  33.851  10.146  14.142
73489W        W45018   9.174   4.080  14.488
73490W        W45019  18.077  38.488  11.965
73491W        W45020   8.962  23.260  13.922
73492W        W45021  22.223  41.425   4.758
73493W        W45022  42.761  35.922  11.945
73494W        W45023  18.290  16.623  12.399
73495W        W45024  22.003   8.370  11.884
73496W        W45025  30.054  43.838  12.970
73497W        W45026   6.470  33.807  11.461
73498W        W45027  34.499  28.238   4.477
73499W        W45028  37.498  12.856  14.379
73500W        W45029   9.275  37.592   1.442
73501W        W45030  44.386  25.792   2.387
73502W        W45031  18.648  44.263  11.940
73503W        W45032  30.990  34.851  11.990
73504W        W45033  25.635  15.801  12.014
73505W        W45034  13.741  43.791   3.305
73506W        W45035  20.504  38.878  12.065
73507W        W45036   7.886  14.198  11.568
73508W        W45037  36.612  44.038   0.764
73509W        W45038  13.389   6.497   4.963
73510W        W45039  23.066  36.583   3.138
73511W        W45040  14.187   2.545   0.266
73512W        W45041  17.156  30.254   3.311
73513W        W45042  22.472  10.425   4.094
73514W        W45043   4.336  40.276   2.834
73515W        W45044  35.123   2.708   0.794
73516W        W45045  39.631  27.396   3.267
73517W        W45046  41.422  28.942   4.155
73518W        W45047  39.015  23.215   2.761
73519W        W45048   9.124  28.905  11.100
73520W        W45049  32.597  40.143  14.071
73521W        W45050  42.360   4.411  11.940
73522W        W45051  44.365  41.598   0.593
73523W        W45052  34.881  37.392   1.010
73524W        W45053  12.896   2.430   0.506
73525W        W45054  17.838  30.020   1.244
73526W        W45055  11.351  32.200  13.019
73527W        W45056  17.111  38.919  10.134
73528W        W45057   1.247   8.653  14.448
73529W        W45058  28.895  37.385  13.446
73530W        W45059  19.517  28.705   2.439
73531W        W45060  29.623  13.650   4.229
73532W        W45061   9.880  23.795   4.565
73533W        W45062  24.216   6.073  14.424
73534W        W45063  12.232  43.305   2.848
73535W        W45064  13.811  12.300   2.118
73536W        W45065  12.824  43.479  14.032
73537W        W45066  28.024  27.466  10.998
73538W        W45067  44.387  26.698  10.614
73539W        W45068  20.162  18.282  11.122
73540W        W45069  13.377  22.319  10.240
73541W        W45070   1.408  21.022  14.736
73542W        W45071  41.247   0.871   1.393
73543W        W45072   5.003   1.489  11.515
73544W        W45073  24.110  19.290  14.391
73545W        W45074  33.131  28.895   0.846
73546W        W45075   9.744  14.816   3.730
73547W        W45076   4.636  38.385   1.303
73548W        W45077  32.294  41.944  12.523
73549W        W45078  15.426  37.747  11.718
73550W        W45079   1.552  18.535  11.416
73551W        W45080  38.374  42.775   2.038
73552W        W45081  33.870   7.232  12.090
73553W        W45082  15.734  12.645  13.971
73554W        W45083   9.167  35.599  13.941
73555W        W45084  30.908  11.321   3.867
73556W        W45085  31.877  35.558   4.165
73557W        W45086  10.104  29.293   1.820
73558W        W45087  40.823  43.220   1.408
73559W        W45088  26.497  19.117  14.773
73560W        W45089  42.435  43.774  14.362
73561W        W45090   2.959  34.671  12.836
73562W        W45091  33.127  36.291   1.906
73563W        W45092   7.806   3.544   3.208
73564W        W45093  28.933  29.093   4.410
73565W        W45094  29.104  20.819  11.531
73566W        W45095  39.932  39.263  13.383
73567W        W45096  36.810  19.995   4.439
73568W        W45097   6.156  32.680  12.502
73569W        W45098  32.048  43.685   1.214
73570W        W45099  33.549  37.623   4.575
73571W        W45100  10.748  13.004   4.683
73572W        W45101   2.429   2.740  13.112
73573W        W45102  40.593   0.687  14.257
73574W        W45103  28.042  21.683   2.169
73575W        W45104  33.578   5.423  12.041
73576W        W45105  25.353  34.284  11.010
73577W        W45106  27.010  40.437   4.787
73578W        W45107  39.418  20.026   1.762
73579W        W45108  20.636  18.748   1.752
73580W        W45109  22.812  44.334   1.299
73581W        W45110   5.365  30.753   2.808
73582W        W45111  28.624   2.405  14.720
73583W        W45112  42.243  28.619  13.477
73584W        W45113   4.957  22.189  11.983
73585W        W45114  25.622  21.053  12.193
73586W        W45115   7.953  10.142   1.076
73587W        W45116  43.019  26.050   3.317
73588W        W45117  42.823  32.981  10.187
73589W        W45118  40.024  20.003   3.863
73590W        W45119  44.270   4.504  13.977
73591W        W45120  23.917  42.424   2.354
73592W        W45121  12.697  30.541   2.624
73593W        W45122   5.398  43.046   0.913
73594W        W45123   5.679  14.240   2.227
73595W        W45124  21.016  39.020   9.853
73596W        W45125  32.142  31.542  13.169
73597W        W45126  39.370   4.972  13.088
73598W        W45127  10.368  33.909   3.744
73599W        W45128  42.949  34.478  14.057
73600W        W45129  41.929   2.228   3.263
73601W        W45130  26.059  30.571   3.216
73602W        W45131  11.182  19.353   3.739
73603W        W45132   7.218  21.569  14.885
73604W        W45133  34.863  44.768   4.444
73605W        W45134   9.734  34.611  12.406
73606W        W45135  27.263   6.094   3.536
73607W        W45136  39.811   1.869   0.001
73608W        W45137  20.204  31.616  12.012
73609W        W45138  11.533  25.601  13.628
73610W        W45139  12.806  31.952  11.103
73611W        W45140   2.828  27.639  13.416
73612W        W45141  11.569  14.870  14.488
73613W        W45142   0.071  19.740  11.851
73614W        W45143   3.460  32.906   3.209
73615W        W45144  40.999   2.732   1.329
73616W        W45145   2.393  36.984   1.105
73617W        W45146  25.754  21.188   2.003
73618W        W45147  24.224   5.920  11.617
73619W        W45148  40.047  24.281   1.286
73620W        W45149  22.012  29.310   4.261
73621W        W45150  44.982  24.119  10.918
73622W        W45151  29.665  34.183  12.206
73623W        W45152   3.488  35.845   0.384
73624W        W45153  44.914  35.171   1.375
73625W        W45154   5.024  33.350  11.626
73626W        W45155  35.850  37.969  10.659
73627W        W45156   3.458   2.230   4.396
73628W        W45157  13.141   6.046  10.607
73629W        W45158   9.658  38.411   1.229
73630W        W45159  38.929  39.049   3.242
73631W        W45160  22.588   7.850   3.669
73632W        W45161  17.864   4.591   0.055
73633W        W45162  28.646  40.088   0.238
73634W        W45163  40.329  37.332   0.691
73635W        W45164   8.948   6.801   2.303
73636W        W45165  13.910  44.931   1.184
73637W        W45166   8.365  35.086   2.909
73638W        W45167  19.036  36.543  13.623
73639W        W45168  31.514  33.606   1.427
73640W        W45169  19.072  33.147   3.309
73641W        W45170  11.827  12.941   0.926
73642W        W45171  31.553  43.785   1.457
73643W        W45172  11.759  35.312   1.396
73644W        W45173  14.345  25.638  11.987
73645W        W45174   0.197  32.504   5.082
73646W        W45175  43.205   5.317  12.024
73647W        W45176  21.040  10.254  12.187
73648W        W45177  21.021  21.611   4.962
73649W        W45178  16.544  37.072  12.807
73650W        W45179  42.261  18.805  13.357
73651W        W45180  22.184  40.352   1.437
73652W        W45181  17.130   9.417   1.292
73653W        W45182  34.088  20.691   2.468
73654W        W45183   1.715  23.743   1.444
73655W        W45184  17.177   2.011  12.588
73656W        W45185  37.795  38.886   9.810
73657W        W45186   1.346  44.032  13.829
73658W        W45187  38.641  15.183  11.904
73659W        W45188   5.484   9.748  14.014
73660W        W45189  22.230  18.089  12.856
73661W        W45190  23.700  22.772  14.254
73662W        W45191  38.497  12.150   0.144
73663W        W45192   3.200  17.055   0.406
73664W        W45193   9.874  37.662  13.417
73665W        W45194   5.775   8.714  12.377
73666W        W45195   2.917  29.828  13.584
73667W        W45196  44.780  34.322   0.449
73668W        W45197   3.579  20.062  11.649
73669W        W45198  44.243  38.080   1.415
73670W        W45199  28.860  36.221  10.721
73671W        W45200  35.459  42.006  13.415
73672W        W45201  36.869  12.357   2.712
73673W        W45202   5.891  10.618   2.388
73674W        W45203  27.444  17.669  11.619
73675W        W45204  11.406  37.187  13.938
73676W        W45205  31.299   7.437  13.766
73677W        W45206   7.360  27.661   4.622
73678W        W45207  35.589   8.379  13.927
73679W        W45208  21.567   5.943  10.960
73680W        W45209  31.752   9.104   0.893
73681W        W45210  19.287   4.582   0.782
73682W        W45211  28.084   2.369   4.498
73683W        W45212   1.782   9.818   3.823
73684W        W45213  26.672  34.862  13.041
73685W        W45214  15.977  42.968  11.090
73686W        W45215  28.661  11.367  10.978
73687W        W45216  32.106  16.553  14.271
73688W        W45217  36.872  30.938  14.387
73689W        W45218  18.698  41.037  12.656
73690W        W45219   6.286  21.006  12.870
73691W        W45220   3.751  41.358   3.059
73692W        W45221  14.774   4.316  14.324
73693W        W45222  10.219  17.277  13.820
73694W        W45223   3.174  15.778  12.288
73695W        W45224   5.875   8.192  13.465
73696W        W45225  43.765   8.263  10.730
73697W        W45226  25.233  14.861   1.247
73698W        W45227  31.415  26.699  14.074
73699W        W45228  30.987  42.816  11.091
73700W        W45229  24.382   2.449  12.685
73701W        W45230  15.882   4.892   0.981
73702W        W45231  41.660  19.980   4.008
73703W        W45232  17.159  31.677  12.661
73704W        W45233  35.111  27.155  13.548
73705W        W45234  18.185   7.385   1.430
73706W        W45235  35.350  35.988   0.394
73707W        W45236  31.292  20.574   2.867
73708W        W45237  24.683  21.806   3.128
73709W        W45238   7.878  10.431   2.389
73710W        W45239  25.573  23.935  12.322
73711W        W45240  31.923   8.491  14.328
73712W        W45241  13.787  27.399   3.397
73713W        W45242  34.647  14.785   1.493
73714W        W45243   7.698   2.253   1.700
73715W        W45244   1.673   2.501  13.901
73716W        W45245  42.275  32.881   4.456
73717W        W45246  29.109  36.904  14.864
73718W        W45247  15.331  42.954   0.969
73719W        W45248  22.961  25.389  12.697
73720W        W45249   9.142   2.568  12.369
73721W        W45250  36.474  27.440  10.447
73722W        W45251  21.052  31.719   4.233
73723W        W45252   6.936  13.032  12.044
73724W        W45253  33.986  15.772  11.706
73725W        W45254  13.639  12.329  13.974
73726W        W45255   1.054  28.230  14.480
73727W        W45256  38.822  39.365   2.334
73728W        W45257  26.598  20.487   4.492
73729W        W45258   7.914  31.855  13.817
73730W        W45259  42.421   5.984   1.860
73731W        W45260  25.000  44.834   0.328
73732W        W45261  36.082  38.470   0.320
73733W        W45262  15.695   7.255   0.046
73734W        W45263  10.508  28.490   1.830
73735W        W45264   0.991  28.072  11.125
73736W        W45265  34.568   6.908  14.247
73737W        W45266   9.373  24.521   4.476
73738W        W45267  17.773  10.567   0.220
73739W        W45268  41.636   0.492  10.606
73740W        W45269   4.959  31.696   0.803
73741W        W45270  21.757   4.950   2.331
73742W        W45271  10.235   7.446   4.878
73743W        W45272  27.202  32.181   0.856
73744W        W45273  16.048   7.241   2.739
73745W        W45274  12.562  33.016  14.418
73746W        W45275  27.155  38.837  12.046
73747W        W45276  31.439  10.800  13.936
73748W        W45277   3.028  30.145  13.977
73749W        W45278  20.735  10.266   4.996
73750W        W45279  34.615   3.029   1.925
73751W        W45280  32.929  18.100  13.518
73752W        W45281   6.873  16.630  14.556
73753W        W45282  26.822  32.450  12.448
73754W        W45283  40.819  22.500   2.093
73755W        W45284  31.772  40.256   2.759
73756W        W45285  33.493  12.902  12.842
73757W        W45286  29.610  17.677  13.468
73758W        W45287  16.198  15.178   0.755
73759W        W45288  15.575  36.548  14.395
73760W        W45289  20.274  42.790  13.036
73761W        W45290  41.868  40.922  12.966
73762W        W45291  30.084  10.086   1.278
73763W        W45292  37.426  16.009   0.268
73764W        W45293  30.037  44.461  12.259
73765W        W45294   7.658  26.637  12.636
73766W        W45295  21.711   8.670  14.294
73767W        W45296  16.366  20.869   0.816
73768W        W45297  37.648  17.033   1.250
73769W        W45298  18.341  44.807  13.260
73770W        W45299  11.797  44.402   0.101
73771W        W45300  33.471  39.406  14.483
73772W        W45301  13.756  33.712   2.313
73773W        W45302  14.312  14.641  14.077
73774W        W45303  38.896   8.920  13.804
73775W        W45304  33.349  27.243  11.203
73776W        W45305  14.539   5.731   1.351
73777W        W45306  11.635  43.485  11.677
73778W        W45307  31.399  44.900  11.276
73779W        W45308   6.413  12.798  13.484
73780W        W45309  19.860   1.132   2.071
73781W        W45310  14.327  30.813   4.543
73782W        W45311   4.785  22.418   3.191
73783W        W45312  12.054  19.257   2.304
73784W        W45313  25.662  37.857   0.447
73785W        W45314   9.186  37.823  13.802
73786W        W45315   3.225  19.716   2.747
73787W        W45316   5.392   8.816   1.368
73788W        W45317  32.122  30.794   1.145
73789W        W45318  31.839  30.356   2.809
73790W        W45319   1.914  43.410  12.090
73791W        W45320  16.388   4.743   1.937
73792W        W45321  23.715   5.155  10.749
73793W        W45322  42.498   6.282   1.033
73794W        W45323  38.018  13.958  14.041
73795W        W45324  39.601  19.506   1.741
73796W        W45325  40.369   0.025  12.469
73797W        W45326   2.213  39.103  12.201
73798W        W45327  13.138   9.458  11.993
73799W        W45328  21.218  30.987  14.052
73800W        W45329  13.376  39.843   3.477
73801W        W45330  43.436  10.356   4.798
73802W        W45331   0.508  35.442   0.722
73803W        W45332  11.605  33.962   2.817
73804W        W45333  33.544   9.334  10.289
73805W        W45334  29.786   0.433   3.665
73806W        W45335  43.336  14.719   1.931
73807W        W45336  43.770  30.857   1.649
73808W        W45337  17.849   4.734  11.171
73809W        W45338  40.422  38.739  12.568
73810W        W45339  26.728   8.170   4.117
73811W        W45340  20.251  24.001   4.100
73812W        W45341  43.535  12.403   2.795
73813W        W45342   7.236  27.889  12.645
73814W        W45343  29.727  23.127  11.615
73815W        W45344  40.330  13.363   4.354
73816W        W45345  15.597  16.007   3.116
73817W        W45346   9.542  34.410  10.665
73818W        W45347  28.526  13.217   3.250
73819W        W45348   0.615   5.655   3.766
73820W        W45349  44.655  37.943  11.201
73821W        W45350  30.093  39.550  12.548
73822W        W45351  22.633  15.348  11.730
73823W        W45352  10.935  18.794   1.898
73824W        W45353  23.500  14.956   1.203
73825W        W45354  18.127  26.243  12.609
73826W        W45355  20.681   8.272   3.114
73827W        W45356  44.396  21.613  13.016
73828W        W45357  31.423  29.765  11.509
73829W        W45358  41.513  41.501  10.542
73830W        W45359  28.929  26.163  14.301
73831W        W45360   1.414   7.373  14.846
73832W        W45361  32.427  24.544  11.947
73833W        W45362  31.183  25.100   3.612
73834W        W45363  30.607  38.814   0.321
73835W        W45364   2.235  35.023   0.432
73836W        W45365  12.206   5.139  14.462
73837W        W45366  22.046  29.034   0.761
73838W        W45367  14.165  19.965   1.811
73839W        W45368  26.819  15.662  11.487
73840W        W45369   1.855  30.900  11.937
73841W        W45370   5.734  27.212   4.137
73842W        W45371  16.667  13.854   2.211
73843W        W45372  32.698   0.562   2.552
73844W        W45373   9.721  16.252  13.329
73845W        W45374  22.231  17.172   1.145
73846W        W45375  32.585  34.007  10.378
73847W        W45376   3.878  31.367   1.637
73848W        W45377  13.099  36.847  13.293
73849W        W45378  43.362  14.670  14.026
73850W        W45379   5.797  42.357   3.001
73851W        W45380  22.627  29.427   2.380
73852W        W45381  10.366  40.809   0.971
73853W        W45382  39.435  20.717   4.474
73854W        W45383  28.014  16.341   1.419
73855W        W45384  43.385  39.938  11.708
73856W        W45385  15.769   1.370   4.823
73857W        W45386  19.517  19.069   3.349
73858W        W45387   7.680  12.175   4.626
73859W        W45388  16.227   7.371  14.271
73860W        W45389  39.916   0.844   4.275
73861W        W45390   8.041  30.685   3.305
73862W        W45391  11.365   9.493  12.533
73863W        W45392  25.934  17.303   1.531
73864W        W45393  10.826  26.623  13.985
73865W        W45394  37.027  10.060   4.986
73866W        W45395  13.772  40.442   3.939
73867W        W45396  27.425   9.236   3.123
73868W        W45397   0.577  39.807  13.704
73869W        W45398  43.535   9.391   2.741
73870W        W45399  26.743  19.745  13.557
73871W        W45400  18.484  23.705   0.577
73872W        W45401  43.763   2.335  12.426
73873W        W45402  20.072   4.881   0.785
73874W        W45403  35.586  17.102   4.411
73875W        W45404  13.667   7.932   3.496
73876W        W45405  33.918  12.264   3.337
73877W        W45406   0.699  30.687   2.339
73878W        W45407   1.198  22.986   0.324
73879W        W45408  23.149  39.023   1.758
73880W        W45409   3.475   0.559  12.735
73881W        W45410  17.545   1.919   0.912
73882W        W45411  17.071  42.390   4.612
73883W        W45412   8.493  18.066   1.142
73884W        W45413  36.071  27.699  12.601
73885W        W45414  13.277  27.692   0.178
73886W        W45415  36.527  29.875  13.768
73887W        W45416  31.021  18.134  12.106
73888W        W45417   1.976  41.856  13.277
73889W        W45418  16.787  38.036   2.346
73890W        W45419  19.689  41.101  13.028
73891W        W45420  31.045  20.175   2.631
73892W        W45421  43.450   5.283   1.882
73893W        W45422  35.390   4.021   0.710
73894W        W45423  37.323  41.484   1.814
73895W        W45424  30.936  12.008   3.759
73896W        W45425  15.685  34.389   1.761
73897W        W45426  17.727  38.311   0.408
73898W        W45427   5.484  26.495  11.877
73899W        W45428  25.696  39.408   2.789
73900W        W45429  31.898   9.833   1.752
73901W        W45430  40.968   2.514  12.466
73902W        W45431  19.075   3.069  11.214
73903W        W45432  18.427  28.530  11.892
73904W        W45433  39.748   3.719   1.622
73905W        W45434   4.654  15.616  13.323
73906W        W45435   3.745  12.579  11.586
73907W        W45436  27.686  17.215   4.126
73908W        W45437  10.759   7.648  10.677
73909W        W45438  44.572  16.068  12.012
73910W        W45439  36.568  31.084  12.592
73911W        W45440  41.555  23.225  11.075
73912W        W45441  10.469  29.512  13.360
73913W        W45442  13.929  19.398  12.466
73914W        W45443   0.310   3.355  12.907
73915W        W45444   7.233   8.194  12.942
73916W        W45445  27.447  21.782   1.793
73917W        W45446  34.117  41.615   1.727
73918W        W45447  27.747  33.064   0.703
73919W        W45448  44.515  18.636   3.177
73920W        W45449  37.917   8.892   2.730
73921W        W45450  25.118  30.434   4.291
73922W        W45451  22.549  40.597   1.749
73923W        W45452  26.446  41.341   9.867
73924W        W45453  44.955  13.484   3.864
73925W        W45454  27.473   1.282   2.967
73926W        W45455   7.916  31.514   4.344
73927W        W45456  20.073  15.250   3.308
73928W        W45457   6.313  41.097   4.170
73929W        W45458   6.008  12.673  10.341
73930W        W45459  38.593  29.219  12.848
73931W        W45460  38.894  25.040  13.021
73932W        W45461   2.851  24.447   0.902
73933W        W45462   4.261   0.405   0.260
73934W        W45463  15.407  36.978   4.238
73935W        W45464  10.972  16.196   0.035
73936W        W45465  37.457  41.289   2.348
73937W        W45466   8.365   0.404  12.045
73938W        W45467  44.849  13.072  12.647
73939W        W45468  27.276  19.588  11.106
73940W        W45469  30.154  29.368  12.002
73941W        W45470   1.901   1.983  14.858
73942W        W45471   4.370  24.728  14.799
73943W        W45472  38.815   6.895   0.867
73944W        W45473  17.816  39.510  14.518
73945W        W45474  29.910   5.948  12.067
73946W        W45475  30.381  20.249   1.797
73947W        W45476  32.385  35.717   3.306
73948W        W45477   5.217  28.918   0.733
73949W        W45478  19.180  14.818  12.980
73950W        W45479  19.192  41.930   2.244
73951W        W45480  22.108   4.353  11.620
73952W        W45481  36.156  35.560   0.323
73953W        W45482  42.874  27.080  11.914
73954W        W45483  42.447   7.670  10.805
73955W        W45484   3.721   1.192   3.913
73956W        W45485  12.547  32.341  11.838
73957W        W45486  39.536  17.815  14.036
73958W        W45487  25.964  18.540   1.881
73959W        W45488  32.906   1.893  14.445
73960W        W45489  11.151  31.421  10.622
73961W        W45490  23.827  35.953  13.910
73962W        W45491  20.746  23.230   0.988
73963W        W45492  31.022  37.943   3.129
73964W        W45493  16.002  20.197  14.912
73965W        W45494  35.616  19.771   0.795
73966W        W45495  18.594  33.562   1.906
73967W        W45496  25.441   7.745  11.602
73968W        W45497  30.240  17.150  14.313
73969W        W45498  12.368  38.346  12.681
73970W        W45499   5.218  19.795  13.720
73971W        W45500  11.147   0.747   0.430
73972W        W45501  28.156  10.186   4.052
73973W        W45502  25.060  31.567   1.303
73974W        W45503  14.213  35.143  14.932
73975W        W45504  12.170  39.761   0.284
73976W        W45505   1.699  41.986   2.190
73977W        W45506   1.051  16.849  14.735
73978W        W45507  18.241  30.915   2.484
73979W        W45508   1.341  33.478   1.158
73980W        W45509  17.526   2.113  11.660
73981W        W45510  40.313  36.083  14.485
73982W        W45511  15.826   1.432  12.109
73983W        W45512  32.054  38.542   4.093
73984W        W45513  41.469   6.227   2.910
73985W        W45514  39.749  27.659   0.019
73986W        W45515  17.917  14.753   4.869
73987W        W45516  13.851  26.178   2.700
73988W        W45517   6.370  14.041   2.838
73989W        W45518  35.086  30.038   3.639
73990W        W45519  10.814  13.532   1.416
73991W        W45520  37.513   1.837   3.176
73992W        W45521   0.393  27.058   2.364
73993W        W45522  43.446  43.008   4.037
73994W        W45523  21.587  43.535  13.953
73995W        W45524  13.264  43.460  10.611
73996W        W45525   9.806   5.795   3.717
73997W        W45526  43.057  10.832   2.629
73998W        W45527  31.011   1.826   3.012
73999W        W45528  10.437   7.719   2.915
74000W        W45529  29.489  33.511   1.868
74001W        W45530  31.698   3.490   1.639
74002W        W45531  30.461  41.557  11.302
74003W        W45532  32.888  14.883  14.370
74004W        W45533  33.395  16.770  12.459
74005W        W45534  41.426  27.038  11.977
74006W        W45535  11.771   7.783   2.681
74007W        W45536  11.372  33.939   1.413
74008W        W45537  39.555  21.496  11.046
74009W        W45538  17.870  36.727  11.070
74010W        W45539   5.276  13.259   2.417
74011W        W45540  16.308   8.761  13.292
74012W        W45541  41.786   8.729   3.708
74013W        W45542  44.767  30.423   3.178
74014W        W45543  10.380  40.582   2.796
74015W        W45544  20.020  25.304   4.577
74016W        W45545  30.443  16.029  11.060
74017W        W45546   8.512  27.247  11.614
74018W        W45547   1.349   4.396   2.599
74019W        W45548  33.313  14.003   4.545
74020W        W45549  31.396   9.906  14.049
74021W        W45550  11.339  19.352  12.941
74022W        W45551  18.054  34.310  10.635
74023W        W45552  12.634   4.694  14.733
74024W        W45553  28.120  30.659   4.067
74025W        W45554  13.632  33.056   2.992
74026W        W45555   5.926  20.090  13.045
74027W        W45556  10.890  15.674   1.361
74028W        W45557  16.505  14.208  13.318
74029W        W45558   0.950   6.925  12.092
74030W        W45559  27.888  11.102  13.295
74031W        W45560  22.290  36.937   1.772
74032W        W45561  40.715  42.377  10.641
74033W        W45562   2.090  27.419  10.569
74034W        W45563   3.339  30.944  12.562
74035W        W45564  12.016  19.714  10.312
74036W        W45565  44.392  35.326   4.869
74037W        W45566   6.705  13.128   2.813
74038W        W45567  23.850  15.883  11.745
74039W        W45568  38.467  24.263   4.679
74040W        W45569  36.920  23.225   0.409
74041W        W45570  27.608   8.801  14.042
74042W        W45571  26.400  29.488   2.281
74043W        W45572  16.283  27.128   1.874
74044W        W45573  28.380  43.974   3.072
74045W        W45574   7.219   9.864   2.616
74046W        W45575   9.186  18.045  14.423
74047W        W45576  15.588  28.347  12.382
74048W        W45577  11.426  36.369   2.388
74049W        W45578  37.966  38.256   2.474
74050W        W45579   8.368  30.470   0.088
74051W        W45580   7.767   9.084  12.903
74052W        W45581  28.723  25.353   1.272
74053W        W45582  21.525   5.879  14.992
74054W        W45583   1.887   5.953  11.870
74055W        W45584  10.431  38.689  10.701
74056W        W45585  17.238   3.022  12.487
74057W        W45586   6.881  39.303  10.697
74058W        W45587  29.113  14.923   2.452
74059W        W45588   0.910  16.666  11.427
74060W        W45589   3.430  24.612   2.609
74061W        W45590  34.818  32.511   2.733
74062W        W45591  11.054   9.243  12.077
74063W        W45592  34.860  42.464   2.324
74064W        W45593  42.343  15.413  14.232
74065W        W45594   6.674  27.983  14.235
74066W        W45595  40.546  29.118  13.537
74067W        W45596  11.299  34.795  13.793
74068W        W45597  21.671  16.022  11.087
74069W        W45598  25.287  22.867   2.845
74070W        W45599   9.350  28.216   2.787
74071W        W45600  39.842  36.410   0.017
74072W        W45601  28.245   5.211   1.745
74073W        W45602  43.223   4.755  14.260
74074W        W45603   0.983   2.656  13.923
74075W        W45604  15.175  22.641   0.815
74076W        W45605  38.579   7.840  14.794
74077W        W45606   6.365  42.465  10.671
74078W        W45607  28.838   5.282  12.994
74079W        W45608   5.442  43.850   2.165
74080W        W45609   9.232  30.963   2.232
74081W        W45610  41.304   1.210   4.196
74082W        W45611  34.534  25.328  13.796
74083W        W45612  17.576   9.139  12.613
74084W        W45613  11.215  19.043   2.926
74085W        W45614  16.628  37.333  13.633
74086W        W45615  27.758  29.507  14.867
74087W        W45616  26.539  40.060  13.083
74088W        W45617   2.958  17.292   0.786
74089W        W45618   1.930  11.761  12.918
74090W        W45619  14.984  22.961   2.854
74091W        W45620  29.078  25.070   2.721
74092W        W45621  27.899  28.632   4.593
74093W        W45622  40.425  15.179   1.780
74094W        W45623  25.561  18.712  13.568
74095W        W45624  30.433  35.641  11.515
74096W        W45625  40.592  38.757  10.869
74097W        W45626  24.152   7.624  11.397
74098W        W45627  10.413  17.712  14.033
74099W        W45628  37.312  19.091  11.041
74100W        W45629  21.175  27.784  14.963
74101W        W45630  34.155  18.116   2.872
74102W        W45631  18.379  36.101  11.409
74103W        W45632  31.612  42.029  10.677
74104W        W45633  28.180  20.461  11.522
74105W        W45634  43.573  15.308   3.102
74106W        W45635   4.211   3.768   3.784
74107W        W45636  21.028  22.200   1.732
74108W        W45637  23.870   2.843  13.891
74109W        W45638  41.300  16.191   0.281
74110W        W45639  34.136   9.432   2.750
74111W        W45640  39.805  12.737  14.747
74112W        W45641  41.891   4.376  12.124
74113W        W45642  15.860  16.851  11.194
74114W        W45643  27.867   7.368   4.333
74115W        W45644  18.119   9.415   1.233
74116W        W45645  36.869   1.854  11.531
74117W        W45646   0.173  30.514   0.288
74118W        W45647  40.293  38.599   2.338
74119W        W45648  38.999   7.197   4.612
74120W        W45649  18.639  14.312   4.574
74121W        W45650  21.119  35.108   1.374
74122W        W45651  19.403  33.088  12.967
74123W        W45652  15.274  34.404  13.466
74124W        W45653  37.097  29.936  11.538
74125W        W45654  11.504  23.903   1.901
74126W        W45655  32.375  43.447  11.134
74127W        W45656  15.363   3.680   1.807
74128W        W45657  21.720   1.767   1.271
74129W        W45658  10.899   2.824   0.725
74130W        W45659  35.630   6.804  11.532
74131W        W45660  40.733  32.562  13.367
74132W        W45661   3.275  10.604   2.845
74133W        W45662  33.376  41.402  12.429
74134W        W45663  22.512  24.976  10.229
74135W        W45664  44.426   4.516  14.765
74136W        W45665  14.073  23.674  12.110
74137W        W45666  44.027  42.499  12.234
74138W        W45667  32.349   4.179  13.043
74139W        W45668  25.701  23.475   1.322
74140W        W45669   0.612  43.485   3.796
74141W        W45670  44.047  10.758   1.508
74142W        W45671   0.264  40.940  13.855
74143W        W45672   5.279  15.032  10.658
74144W        W45673   9.938   1.672  14.381
74145W        W45674  24.092  42.551   1.896
74146W        W45675  21.272  25.675  11.143
74147W        W45676  34.010  32.912   2.992
74148W        W45677  25.734  39.191  11.669
74149W        W45678  24.296  12.096   1.504
74150W        W45679  23.228  29.298   4.592
74151W        W45680  25.185  21.992  11.693
74152W        W45681  27.023   3.416  13.378
74153W        W45682   0.473  22.956   2.272
74154W        W45683   6.738  28.301   1.003
74155W        W45684  17.250   4.072  12.538
74156W        W45685  30.494  20.685   1.495
74157W        W45686   5.174  42.503   4.296
74158W        W45687  40.736  24.057  11.989
74159W        W45688   1.263  11.809  14.033
74160W        W45689  10.673  15.489  13.474
74161W        W45690  37.865  29.465  12.603
74162W        W45691   6.887  33.694  11.108
74163W        W45692  32.499  39.897   1.188
74164W        W45693   5.175  32.438  12.183
74165W        W45694  38.795  36.481   2.809
74166W        W45695   8.306  24.573  13.299
74167W        W45696   8.526   3.332  12.102
74168W        W45697   2.171  12.281   2.760
74169W        W45698   1.365  29.058   2.405
74170W        W45699  30.491   0.750   1.166
74171W        W45700  18.776   5.303   3.815
74172W        W45701  35.612  21.878   2.710
74173W        W45702  41.582  41.726   0.904
74174W        W45703  44.300  31.945   2.452
74175W        W45704  44.216  27.121  11.660
74176W        W45705  28.642  27.097  10.994
74177W        W45706  13.356  35.975  12.964
74178W        W45707  14.596  31.259  13.878
74179W        W45708  34.023  17.814   0.330
74180W        W45709  11.589  27.574   4.269
74181W        W45710  39.419   3.175  11.492
74182W        W45711   1.599  13.988   4.021
74183W        W45712  10.877  43.822   0.366
74184W        W45713  32.936  27.695   2.266
74185W        W45714  11.308  32.542   4.300
74186W        W45715  13.366  20.553   2.085
74187W        W45716   6.242  24.995   2.919
74188W        W45717  42.462  43.987  14.817
74189W        W45718  18.377  14.679  13.676
74190W        W45719  29.096   6.451  11.603
74191W        W45720  19.780  28.009  13.593
74192W        W45721  20.037  17.794   1.776
74193W        W45722  44.471  41.352  14.360
74194W        W45723  31.048  34.447  14.965
74195W        W45724  29.412   8.714  11.199
74196W        W45725  14.229  39.678  13.825
74197W        W45726  41.154  40.778   0.989
74198W        W45727  24.803  23.636  14.479
74199W        W45728  10.108  34.126   1.769
74200W        W45729  12.661  22.063  14.456
74201W        W45730  34.993  26.509   4.124
74202W        W45731   9.284  15.704   4.272
74203W        W45732   6.833  40.683  10.730
74204W        W45733  22.153   7.981   4.763
74205W        W45734  40.872   3.207   4.600
74206W        W45735  21.692  30.370  11.358
74207W        W45736  23.516  39.916  13.876
74208W        W45737  35.547  25.133   0.390
74209W        W45738  42.860  35.384   2.641
74210W        W45739  35.002   5.163   2.323
74211W        W45740  25.663  30.108  12.757
74212W        W45741  30.701  29.691   0.775
74213W        W45742  21.727  23.509  14.336
74214W        W45743   2.373  11.100  14.377
74215W        W45744   3.064   0.888  12.879
74216W        W45745  19.021   4.721  12.552
74217W        W45746  40.021  23.707  13.077
74218W        W45747  42.159   4.414   3.991
74219W        W45748  19.162  17.848   1.200
74220W        W45749  43.301  34.328  13.047
74221W        W45750  22.289  32.103   0.856
74222W        W45751  39.871  29.202  14.869
74223W        W45752   3.726  16.960   4.254
74224W        W45753   3.294  15.011  14.545
74225W        W45754  40.237  36.943   4.069
74226W        W45755  30.467  37.431   1.810
74227W        W45756  32.505  21.270  13.494
74228W        W45757  34.071  23.048  12.018
74229W        W45758  34.832  12.206  14.366
74230W        W45759  34.563  20.488   2.331
74231W        W45760  39.971  22.518  13.554
74232W        W45761   5.977   9.159   3.413
74233W        W45762  26.971   0.328  14.043
74234W        W45763  17.326  22.286   4.601
74235W        W45764   0.232   6.752   1.746
74236W        W45765  35.886   9.127   1.929
74237W        W45766  40.430   1.307   0.927
74238W        W45767  19.481  26.477  12.484
74239W        W45768  32.921  25.278  12.863
74240W        W45769  25.687  28.187  11.578
74241W        W45770  42.029   7.438   3.259
74242W        W45771  19.871  32.141  13.719
74243W        W45772  26.526  37.645  11.209
74244W        W45773  25.922  38.335  13.813
74245W        W45774  19.089  22.446  13.927
74246W        W45775  44.851   7.321  13.137
74247W        W45776  43.625  40.420  10.146
74248W        W45777  13.288  11.200  13.019
74249W        W45778  16.526  19.729   1.325
74250W        W45779  10.314   8.339   2.337
74251W        W45780  15.659  31.131  13.416
74252W        W45781   3.009  37.352   2.324
74253W        W45782  17.598  37.896   0.678
74254W        W45783  10.361   9.671  11.384
74255W        W45784  29.159  31.548  13.395
74256W        W45785   1.290  38.447   0.111
74257W        W45786  25.387  38.746   0.074
74258W        W45787   3.465   3.645   4.915
74259W        W45788  11.102  27.196   3.094
74260W        W45789  39.274   4.312  14.546
74261W        W45790  41.829   1.719   1.830
74262W        W45791  31.003   0.188  11.088
74263W        W45792  37.003  11.948   1.325
74264W        W45793  42.605  20.887  14.219
74265W        W45794  31.451   3.943   1.682
74266W        W45795  19.067  20.549  10.652
74267W        W45796   2.839  37.216  13.871
74268W        W45797  37.836  10.645   2.216
74269W        W45798  21.113  15.688   4.710
74270W        W45799  13.963  26.444   4.552
74271W        W45800   9.724  11.601   4.023
74272W        W45801  33.805  11.168  12.411
74273W        W45802  12.351   1.890   4.129
74274W        W45803  35.718  43.789  14.868
74275W        W45804   5.518  44.656  11.541
74276W        W45805  32.983  18.602  11.122
74277W        W45806  28.239  11.697  12.176
74278W        W45807  13.778  28.010  10.981
74279W        W45808   4.667   6.262  13.045
74280W        W45809  41.968  44.696   2.874
74281W        W45810  21.069  22.485   0.855
74282W        W45811  18.836  33.466  13.836
74283W        W45812  36.363  20.499  13.019
74284W        W45813  44.916  32.071  10.796
74285W        W45814   2.244  26.630   3.896
74286W        W45815  18.817   4.262   4.548
74287W        W45816   0.465  38.927   4.838
74288W        W45817  19.099  20.846  14.545
74289W        W45818   0.397  23.892   4.374
74290W        W45819  42.880  33.518   5.025
74291W        W45820  29.534   0.992  14.851
74292W        W45821  22.275  16.311  14.337
74293W        W45822  10.644  15.134   4.664
74294W        W45823  22.511   3.948   1.842
74295W        W45824  25.570  31.711  14.008
74296W        W45825  43.860  23.702  12.003
74297W        W45826  42.782  25.052  12.808
74298W        W45827  14.016  11.445   2.920
74299W        W45828  14.000  12.350   1.256
74300W        W45829  24.152   0.551   4.557
74301W        W45830   7.725   5.852   1.218
74302W        W45831  22.648  24.770   3.163
74303W        W45832  27.195  40.007  10.721
74304W        W45833  21.217  23.801  11.572
74305W        W45834   3.823  23.111  14.905
74306W        W45835  30.915  44.171  11.050
74307W        W45836  43.798   0.777   3.300
74308W        W45837  39.328   1.055  11.241
74309W        W45838  38.762  42.779   1.227
74310W        W45839  34.406  15.139   1.195
74311W        W45840  24.150  26.974   0.550
74312W        W45841  27.141  31.518   3.918
74313W        W45842  42.306  33.441  14.911
74314W        W45843  17.184  42.283  14.511
74315W        W45844  19.121  25.584   3.612
74316W        W45845  18.311  36.538   1.881
74317W        W45846   9.259   8.113   3.721
74318W        W45847  43.827   4.051  11.099
74319W        W45848  38.030  19.077   2.451
74320W        W45849  20.452  11.881   1.194
74321W        W45850  29.398   6.380   1.961
74322W        W45851  30.085  18.292   3.847
74323W        W45852  42.934  21.651  11.475
74324W        W45853  28.956  41.887   4.597
74325W        W45854  42.594  15.547  13.430
74326W        W45855  25.598   3.027  11.686
74327W        W45856   6.971   1.352   3.184
74328W        W45857  25.112  23.525  10.673
74329W        W45858  11.351  13.789  10.654
74330W        W45859  20.484  33.692   3.282
74331W        W45860  13.371   4.613   2.757
74332W        W45861  40.996  19.655  10.967
74333W        W45862  39.996  17.681  12.809
74334W        W45863   2.301   8.858  10.422
74335W        W45864  19.168  24.725   2.589
74336W        W45865  25.174  40.438  14.992
74337W        W45866  43.819  44.447  12.334
74338W        W45867   0.523  17.786  11.111
74339W        W45868  16.260  39.939   1.810
74340W        W45869   9.906   9.441  11.495
74341W        W45870  40.097  25.697   1.511
74342W        W45871  28.163  25.180  13.903
74343W        W45872  19.354  15.267   4.114
74344W        W45873   2.353  23.963  10.750
74345W        W45874   3.877  30.171  13.790
74346W        W45875  28.407  28.641   0.441
74347W        W45876  28.618  43.249  11.330
74348W        W45877  41.302  32.429  13.887
74349W        W45878  42.233  27.692   1.062
74350W        W45879  42.931   5.245   3.215
74351W        W45880  14.320  17.053   5.033
74352W        W45881  36.600  15.647  14.327
74353W        W45882  37.150  41.404  11.122
74354W        W45883  30.312  34.570   2.358
74355W        W45884  32.927  44.618   2.096
74356W        W45885   1.767   8.279   2.324
74357W        W45886  19.554  26.589   1.050
74358W        W45887   3.369   9.341   3.784
74359W        W45888  29.624   3.686   1.226
74360W        W45889  19.215  36.427   2.409
74361W        W45890  44.715  41.632  14.809
74362W        W45891  18.280  43.898   2.351
74363W        W45892  38.155  21.109   0.164
74364W        W45893  25.503  13.113  13.428
74365W        W45894  31.434  18.621   1.342
74366W        W45895  38.943   0.432  10.789
74367W        W45896  16.227  13.381  13.564
74368W        W45897  12.894   4.015   1.398
74369W        W45898   4.795  35.548  12.378
74370W        W45899  42.547  36.010   2.217
74371W        W45900  33.047   3.410  12.876
74372W        W45901  26.969  17.587  12.971
74373W        W45902  31.839  16.316   0.526
74374W        W45903  28.991   6.204   0.716
74375W        W45904  31.804  11.754   4.040
74376W        W45905  13.803  36.491  13.632
74377W        W45906  27.794  42.918   4.799
74378W        W45907  13.703  31.313  11.082
74379W        W45908  24.219  20.450  10.788
74380W        W45909  14.016   4.348  11.745
74381W        W45910  20.172  26.546   2.659
74382W        W45911  18.649  31.119   5.367
74383W        W45912   2.476  42.917  14.323
74384W        W45913  32.702   6.258  11.619
74385W        W45914   8.433  40.303  14.483
74386W        W45915   7.281  29.378  12.605
74387W        W45916  25.163   6.061  14.361
74388W        W45917  30.393  40.639  11.146
74389W        W45918  37.343  35.400  11.905
74390W        W45919  35.086  40.880   3.783
74391W        W45920  13.266  36.120   4.126
74392W        W45921   1.557   0.841  13.990
74393W        W45922  38.392  42.737  14.482
74394W        W45923  35.282   0.254   1.647
74395W        W45924  18.252   6.233  14.220
74396W        W45925  35.862  41.544  10.742
74397W        W45926   0.894  41.927   3.242
74398W        W45927   4.243  22.802  11.672
74399W        W45928  44.298   5.328   0.449
74400W        W45929  28.421  40.822   3.787
74401W        W45930  35.185  43.930   4.292
74402W        W45931  40.876   9.988  14.217
74403W        W45932   2.000  18.605  13.862
74404W        W45933   3.280  24.235  12.543
74405W        W45934  24.175  30.082   2.725
74406W        W45935  11.130  10.035  13.331
74407W        W45936  12.442  15.176   0.743
74408W        W45937  43.370  44.741   3.645
74409W        W45938   4.724  12.142   3.880
74410W        W45939  42.616  18.823   0.276
74411W        W45940  11.315  15.137  12.606
74412W        W45941  29.292  44.238   1.291
74413W        W45942  39.424   7.826  10.768
74414W        W45943  34.971  16.094   1.349
74415W        W45944  33.286  14.351   3.658
74416W        W45945  27.169  12.694  12.365
74417W        W45946  11.601  42.070   1.793
74418W        W45947  13.354  27.510   4.065
74419W        W45948   3.321   4.368   1.165
74420W        W45949  32.835  32.801  13.433
74421W        W45950  36.519   8.915   0.293
74422W        W45951   4.307   8.291   0.006
74423W        W45952  20.037  44.893   0.287
74424W        W45953  20.469  32.056   2.735
74425W        W45954  10.683  27.143  13.847
74426W        W45955  40.378   2.190   3.950
74427W        W45956   3.593  35.475   1.278
74428W        W45957  34.026  42.550   4.104
74429W        W45958  15.122  15.554   0.349
74430W        W45959   9.799  13.432   2.808
74431W        W45960  33.802  26.883  12.633
74432W        W45961  42.949   9.406  13.482
74433W        W45962  25.740  38.102  14.546
74434W        W45963  22.622  11.556  10.604
74435W        W45964   3.759  42.820   1.395
74436W        W45965  22.201  30.893   4.088
74437W        W45966  13.596   4.657   0.657
74438W        W45967  14.761  14.708   2.835
74439W        W45968  32.582   3.402  12.138
74440W        W45969  15.248  13.332  14.848
74441W        W45970  34.547  15.882  10.003
74442W        W45971  16.281   3.919   0.303
74443W        W45972  34.348  39.815  12.055
74444W        W45973  12.818   0.384   2.939
74445W        W45974  44.913   6.069  14.283
74446W        W45975   5.007  16.991  10.259
74447W        W45976  34.643  24.660   4.127
74448W        W45977  37.548  36.768   2.377
74449W        W45978  11.123  27.850  13.540
74450W        W45979  19.206  44.503   4.217
74451W        W45980  22.801  34.549   0.021
74452W        W45981  23.033  25.693  14.474
74453W        W45982  42.038  11.623   0.038
74454W        W45983  30.445  27.006  14.804
74455W        W45984  21.596  43.857  12.809
74456W        W45985  44.320  23.937   2.651
74457W        W45986   6.290  33.029   2.773
74458W        W45987   7.368  16.092   0.728
74459W        W45988  41.934  26.584  12.490
74460W        W45989  40.035   1.639  14.311
74461W        W45990  13.218  23.417   1.879
74462W        W45991  29.045  17.108   1.584
74463W        W45992   1.431  36.391  13.510
74464W        W45993   5.411  44.809   0.396
74465W        W45994  28.243  25.746   2.370
74466W        W45995   8.837   0.790  14.418
74467W        W45996   3.413  20.230  14.949
74468W        W45997  14.107  18.181   1.166
74469W        W45998  27.130  28.984  14.297
74470W        W45999   9.648   0.282   2.840
74471W        W46000  40.122   3.093  11.084
74472W        W46001   0.692   0.870  11.994
74473W        W46002  29.693  10.646   1.919
74474W        W46003  16.664  38.413  13.054
74475W        W46004  26.073  44.441   3.942
74476W        W46005  20.596  24.092  13.901
74477W        W46006  25.283  26.394   2.270
74478W        W46007  20.499   3.906  11.630
74479W        W46008   2.379  12.140   3.222
74480W        W46009   1.374  29.643   1.218
74481W        W46010  24.975  32.378   2.590
74482W        W46011  40.515   1.365   1.445
74483W        W46012  35.971  35.517   1.357
74484W        W46013  34.524  18.754  11.202
74485W        W46014  38.881  40.863  11.215
74486W        W46015  28.875  34.124   3.115
74487W        W46016  27.133  29.848   3.290
74488W        W46017  37.219   9.413   4.969
74489W        W46018   0.435  10.406   1.735
74490W        W46019  24.095  15.622   0.726
74491W        W46020  31.435   7.275   1.593
74492W        W46021   1.302  44.276   1.296
74493W        W46022  39.154  22.048  14.038
74494W        W46023   2.228  30.529   1.950
74495W        W46024   8.485  38.244   4.190
74496W        W46025  17.556  21.154  11.891
74497W        W46026  15.884  31.345  13.846
74498W        W46027  25.919  23.496   1.802
74499W        W46028  15.511  42.964   4.886
74500W        W46029  35.524  41.193   2.432
74501W        W46030  44.278  15.759   3.247
74502W        W46031  40.627  22.509  12.873
74503W        W46032  36.903  38.166   2.252
74504W        W46033   0.573   5.253  11.164
74505W        W46034  32.698  14.849   9.471
74506W        W46035  20.555  38.130  13.825
74507W        W46036  14.598  41.470   4.561
74508W        W46037   3.067  44.402  12.107
74509W        W46038  14.065  22.760   0.416
74510W        W46039   7.071  15.071   0.868
74511W        W46040  28.610  39.580   3.261
74512W        W46041  28.065  23.717   0.418
74513W        W46042  29.117  16.668   2.834
74514W        W46043   7.220   4.213   1.123
74515W        W46044   2.684  19.740  14.975
74516W        W46045  12.188   9.908  10.543
74517W        W46046  42.064  19.274   0.446
74518W        W46047   0.742   2.832   4.002
74519W        W46048  14.290  40.268   0.852
74520W        W46049  21.156   5.439   3.569
74521W        W46050  25.168  27.999   3.385
74522W        W46051   1.152  16.833   4.584
74523W        W46052   1.822   0.004  11.067
74524W        W46053  40.404  26.755   4.837
74525W        W46054  19.593  44.304   3.908
74526W        W46055   0.400  10.160   3.184
74527W        W46056  15.607  15.065  13.240
74528W        W46057  41.328  21.641  10.699
74529W        W46058  22.716  20.863  12.958
74530W        W46059  14.143  41.496   4.789
74531W        W46060  32.252  13.755  11.522
74532W        W46061  12.139   3.760  13.095
74533W        W46062  20.795  39.799  11.168
74534W        W46063   0.397  34.190   0.130
74535W        W46064  22.655  44.886  13.091
74536W        W46065  30.643  14.912  13.785
74537W        W46066  37.964  23.207   0.726
74538W        W46067   9.914   5.264  10.603
74539W        W46068  41.474  43.348   2.666
74540W        W46069  19.971  22.293  12.864
74541W        W46070  31.859  15.400   0.278
74542W        W46071  11.382  39.477   1.191
74543W        W46072  42.981  33.869  11.930
74544W        W46073  12.491  12.681   3.093
74545W        W46074  32.106  18.580   3.230
74546W        W46075  35.824  37.844   3.323
74547W        W46076  11.682  18.170   1.988
74548W        W46077  17.045  17.372  13.919
74549W        W46078  24.135   6.267  13.925
74550W        W46079   4.814  19.380   5.072
74551W        W46080  16.243   3.360  13.963
74552W        W46081  44.517  41.882   3.589
74553W        W46082  14.858  21.286   2.851
74554W        W46083   5.395  27.094  14.421
74555W        W46084  13.686  27.455  10.983
74556W        W46085  43.822   8.848  13.710
74557W        W46086  23.741  16.894  11.695
74558W        W46087  15.740  40.717  12.969
74559W        W46088   6.730  17.616   1.827
74560W        W46089  32.136  15.332  13.967
74561W        W46090  20.982   1.223   4.709
74562W        W46091  40.836  31.028  14.985
74563W        W46092  29.033   3.035  14.280
74564W        W46093  10.976  33.572  14.876
74565W        W46094  25.671  11.235   0.853
74566W        W46095   2.441  17.085  13.887
74567W        W46096   1.297   6.432  12.860
74568W        W46097  42.745   8.663  12.452
74569W        W46098  18.081   5.802  12.441
74570W        W46099  39.813  29.676   4.737
74571W        W46100  31.444  44.449  13.998
74572W        W46101  19.189  24.950  14.567
74573W        W46102   0.490  22.267   0.420
74574W        W46103  38.869  32.136   3.308
74575W        W46104  19.325  14.547   1.845
74576W        W46105  31.058   4.483  13.541
74577W        W46106   7.184   1.629   0.726
74578W        W46107  16.720   6.956  14.013
74579W        W46108  40.534  13.268  11.014
74580W        W46109  37.405  37.370   1.095
74581W        W46110  31.602  34.600   5.138
74582W        W46111  10.249  35.445  11.651
74583W        W46112  26.167  16.008  14.155
74584W        W46113  39.296  26.975   2.677
74585W        W46114  27.371  39.872  14.936
74586W        W46115  21.985   7.678   4.350
74587W        W46116   8.870  33.069   0.650
74588W        W46117   6.723  22.077   0.019
74589W        W46118   2.735  25.404   4.572
74590W        W46119  36.448  26.926   0.891
74591W        W46120   8.345  10.725  11.521
74592W        W46121  41.974  15.189   4.152
74593W        W46122   6.325  42.642  11.628
74594W        W46123   2.839  27.815  11.870
74595W        W46124  31.802  29.094   1.848
74596W        W46125  32.060  20.126   1.771
74597W        W46126   4.869  44.337  11.155
74598W        W46127   7.633  26.107   2.869
74599W        W46128  13.574  35.007   2.680
74600W        W46129  25.271  29.360  10.804
74601W        W46130  21.049  41.839  14.911
74602W        W46131  22.655  29.894   2.636
74603W        W46132  19.528  20.514   3.804
74604W        W46133  25.444   5.397  10.632
74605W        W46134  26.585  25.227  11.973
74606W        W46135  17.961  44.970   4.426
74607W        W46136   3.506  27.707   4.540
74608W        W46137  33.911  11.159   1.842
74609W        W46138  34.590  26.672  10.492
74610W        W46139  22.286  44.771  11.994
74611W        W46140  30.962  41.975  12.213
74612W        W46141  23.766   5.314  14.469
74613W        W46142  27.236  38.989   2.177
74614W        W46143  33.585  34.034  11.854
74615W        W46144  26.493  36.440   0.804
74616W        W46145  30.650   8.596   4.174
74617W        W46146   6.428  11.196   3.177
74618W        W46147  35.574  26.808   4.995
74619W        W46148   2.331  41.679  10.459
74620W        W46149  29.925  41.008  12.070
74621W        W46150  39.619  41.954  14.913
74622W        W46151  32.627  37.759  14.692
74623W        W46152  11.256  13.144  13.413
74624W        W46153  40.979  41.340   4.706
74625W        W46154  25.269   3.916  12.207
74626W        W46155  16.138   8.602   2.808
74627W        W46156  23.260  26.141  12.607
74628W        W46157  33.090  20.396   2.694
74629W        W46158  40.833  26.106   4.372
74630W        W46159  14.860  35.848  12.550
74631W        W46160   3.321  25.256  13.492
74632W        W46161   1.170  24.234  13.320
74633W        W46162  11.258  44.929   2.828
74634W        W46163  34.390  32.458   0.407
74635W        W46164   9.904  42.063   1.385
74636W        W46165  11.512  31.536  11.967
74637W        W46166  31.870  10.761   0.529
74638W        W46167  22.592  37.356   4.551
74639W        W46168  39.492   7.676   3.213
74640W        W46169  26.542  20.916   5.168
74641W        W46170  12.354  39.563  12.074
74642W        W46171  23.891   0.795   0.330
74643W        W46172  34.406  44.213   0.414
74644W        W46173   7.850  27.133   0.799
74645W        W46174  31.863  33.879  13.299
74646W        W46175  34.828   1.377   1.091
74647W        W46176  32.434  37.573   3.762
74648W        W46177  11.467   3.748  11.523
74649W        W46178  37.576  18.806  14.898
74650W        W46179  14.069  36.589   3.594
74651W        W46180   8.370   8.733   1.651
74652W        W46181  31.976  25.734  13.070
74653W        W46182  44.155  21.470  12.100
74654W        W46183  40.488  24.704  14.062
74655W        W46184  33.782  37.171  14.473
74656W        W46185  12.585  12.230   1.537
74657W        W46186  19.139   5.804   4.645
74658W        W46187  10.751  36.741   2.387
74659W        W46188   6.322  16.815   2.217
74660W        W46189  31.133   0.772   3.322
74661W        W46190   6.057  14.035   3.737
74662W        W46191  38.378  31.653  12.634
74663W        W46192  19.352  39.889   3.560
74664W        W46193  20.889  32.302  14.718
74665W        W46194  26.687  22.490   3.376
74666W        W46195  28.673  39.673   1.661
74667W        W46196   1.318  26.052   2.841
74668W        W46197  33.510  13.783  10.593
74669W        W46198   6.350  33.371  13.414
74670W        W46199  43.397  39.299  13.895
74671W        W46200  18.731  42.202   2.354
74672W        W46201  21.777   3.659  14.248
74673W        W46202   3.259  29.192  12.991
74674W        W46203  20.659  26.422   0.815
74675W        W46204  34.075  35.810  11.829
74676W        W46205  42.347   8.899   1.951
74677W        W46206  12.196  27.571  10.716
74678W        W46207   9.681  20.276   1.619
74679W        W46208  35.420   6.014   2.547
74680W        W46209  16.724  11.557  12.013
74681W        W46210   4.722  31.076  11.040
74682W        W46211  26.663  12.986   3.217
74683W        W46212  26.191  42.748  12.463
74684W        W46213  25.301  29.556  14.994
74685W        W46214  37.306  35.577  12.745
74686W        W46215  41.445  20.556   0.858
74687W        W46216   7.300  43.758  12.595
74688W        W46217  25.702  28.637   3.998
74689W        W46218  25.082  13.285   0.948
74690W        W46219  44.228   5.370  14.034
74691W        W46220  40.749   4.176  11.179
74692W        W46221  27.496  32.511   4.535
74693W        W46222  35.088  39.233  10.169
74694W        W46223   0.200  18.219   4.175
74695W        W46224  37.133  11.966   4.496
74696W        W46225  41.008  43.661  13.489
74697W        W46226  19.312  44.985  10.606
74698W        W46227  40.810  11.659   1.217
74699W        W46228   2.165   4.352  14.748
74700W        W46229   7.642  35.382   4.237
74701W        W46230  11.802  21.361   0.544
74702W        W46231   5.058  22.993  11.048
74703W        W46232  11.309   9.673   4.586
74704W        W46233   2.176   3.366   4.718
74705W        W46234  38.825  16.618   3.714
74706W        W46235  41.529  14.667   1.549
74707W        W46236  43.902   0.115   4.916
74708W        W46237  17.795  35.513   2.630
74709W        W46238  15.800  35.522   3.543
74710W        W46239  13.758  25.010   1.837
74711W        W46240  18.400  25.883   4.216
74712W        W46241  32.054  32.061  12.081
74713W        W46242  17.981   9.103   0.783
74714W        W46243   9.802   2.709   3.637
74715W        W46244   1.025   5.198   4.526
74716W        W46245  23.317  12.324  11.456
74717W        W46246   6.826  22.640  13.300
74718W        W46247  24.715  22.090  11.961
74719W        W46248  20.273  42.906   4.101
74720W        W46249   2.413  41.063  12.849
74721W        W46250  17.737  29.992   4.855
74722W        W46251  19.984  12.330   0.487
74723W        W46252  30.420  38.367   1.864
74724W        W46253  25.681  20.790   4.354
74725W        W46254  37.067  34.086   0.037
74726W        W46255  21.261  44.886  13.764
74727W        W46256   5.265  36.091   3.211
74728W        W46257  44.961  10.825   4.645
74729W        W46258  13.333  14.052   1.441
74730W        W46259  27.438  43.981   0.510
74731W        W46260  23.316  21.107   0.301
74732W        W46261  12.210  37.143   2.877
74733W        W46262  32.409  36.886   4.271
74734W        W46263  31.185   6.885   3.234
74735W        W46264  16.072  23.689   2.226
74736W        W46265   2.081  22.703   2.706
74737W        W46266   4.435  29.015   0.490
74738W        W46267  39.656  24.772  11.250
74739W        W46268   6.337  32.106   2.253
74740W        W46269   2.375  24.080   4.706
74741W        W46270   7.271   6.890   1.852
74742W        W46271  30.114  14.710   2.757
74743W        W46272   8.426   4.296   1.019
74744W        W46273  20.262   7.179   4.104
74745W        W46274  29.006  16.632  12.698
74746W        W46275  24.065  39.624  12.079
74747W        W46276  41.283  43.313  11.560
74748W        W46277  23.738  31.060   1.344
74749W        W46278  32.483   2.819  14.990
74750W        W46279  23.944  24.063  12.016
74751W        W46280  10.386  37.575   0.346
74752W        W46281  10.795  14.117   1.267
74753W        W46282  12.463  44.025  13.450
74754W        W46283  37.769   3.793   3.310
74755W        W46284  22.982  29.736  14.387
74756W        W46285  17.727   9.861  11.971
74757W        W46286   2.237  16.560  12.004
74758W        W46287  40.386  23.513   1.026
74759W        W46288   1.008  32.363  13.002
74760W        W46289  43.391  44.226  12.510
74761W        W46290  40.267  27.936  11.961
74762W        W46291  34.997  37.535  14.460
74763W        W46292   2.728   3.507   3.219
74764W        W46293  20.774  30.499  13.436
74765W        W46294  16.263  25.103   0.018
74766W        W46295   2.388  38.064  12.166
74767W        W46296   3.533  21.496   3.808
74768W        W46297   9.943  16.813  11.602
74769W        W46298   1.408   6.243  11.435
74770W        W46299  26.553  35.801  12.897
74771W        W46300  36.569  24.566  13.633
74772W        W46301  42.789  34.249  13.087
74773W        W46302  36.364  25.264   3.196
74774W        W46303   4.373  20.691  10.685
74775W        W46304  39.448  11.116   1.714
74776W        W46305  39.851  29.486   4.253
74777W        W46306  20.531   4.995   3.089
74778W        W46307  35.997  43.383  11.573
74779W        W46308  34.639  34.244  12.843
74780W        W46309  17.974  35.032   2.574
74781W        W46310  17.327  39.365  11.931
74782W        W46311   8.103  18.596   4.267
74783W        W46312  11.148   5.848   2.830
74784W        W46313  22.554  19.088   1.005
74785W        W46314  35.186  41.565   3.221
74786W        W46315  17.347  32.596  14.326
74787W        W46316  35.614  19.088  11.460
74788W        W46317  24.286   6.786  13.028
74789W        W46318  17.431  18.294  11.611
74790W        W46319  23.666  28.144   0.731
74791W        W46320  14.017  28.769  14.140
74792W        W46321  16.025   4.182  13.410
74793W        W46322   1.219  42.321  11.769
74794W        W46323  37.416   9.853  10.190
74795W        W46324  30.578  12.609   3.876
74796W        W46325  27.351  10.650   0.580
74797W        W46326  10.252  29.517   0.567
74798W        W46327  12.387  41.548  11.110
74799W        W46328  34.377  20.540  12.567
74800W        W46329   8.087  16.197   1.219
74801W        W46330  32.543  12.475  11.757
74802W        W46331  37.682   0.769  10.766
74803W        W46332   3.793  35.889   2.263
74804W        W46333  36.046  21.967   3.697
74805W        W46334  44.204  31.857  11.233
74806W        W46335  40.514  40.351  12.066
74807W        W46336  13.364  34.410   4.852
74808W        W46337  26.516   7.834  11.149
74809W        W46338  43.275  43.395   3.243
74810W        W46339  37.126  32.466   2.217
74811W        W46340  18.595  28.941   4.048
74812W        W46341   2.443  13.281  12.583
74813W        W46342  27.702  40.058  10.735
74814W        W46343  44.328  14.261  11.929
74815W        W46344  30.907   9.949  13.857
74816W        W46345   0.837  32.066  12.456
74817W        W46346  41.001   1.723  12.929
74818W        W46347   0.964  15.758   2.916
74819W        W46348  23.561  43.702  10.537
74820W        W46349  16.622  40.263   1.966
74821W        W46350  35.867   0.773  10.706
74822W        W46351   0.064  13.638  13.930
74823W        W46352  42.536  15.644  12.106
74824W        W46353   9.371  31.666   4.897
74825W        W46354  42.002  44.574  14.886
74826W        W46355  34.082  36.688  13.748
74827W        W46356  17.555   2.973  11.096
74828W        W46357   2.863  23.000   2.266
74829W        W46358  33.603   4.918  14.890
74830W        W46359  25.832  43.054  13.453
74831W        W46360  26.750  28.009  11.303
74832W        W46361   0.656  36.384  13.825
74833W        W46362  23.981  29.573  13.995
74834W        W46363   0.798   1.031   3.558
74835W        W46364  19.545  32.456   3.680
74836W        W46365   0.399  31.385  10.570
74837W        W46366   9.683  10.141   0.313
74838W        W46367  33.200  29.420   0.830
74839W        W46368  11.841  29.159   2.377
74840W        W46369  31.251  40.869  11.137
74841W        W46370  37.590   2.432  13.023
74842W        W46371   9.721  23.024  14.875
74843W        W46372  32.954   2.272   3.147
74844W        W46373  42.034  36.895   1.713
74845W        W46374  32.681  23.178   3.977
74846W        W46375   9.478  16.735  13.366
74847W        W46376  30.999  37.958  10.801
74848W        W46377  26.571  19.102   2.653
74849W        W46378  14.946  35.107  12.052
74850W        W46379   5.271   4.460   2.831
74851W        W46380  12.404   8.906  12.806
74852W        W46381  35.411  21.591   0.275
74853W        W46382  27.233   4.592  14.406
74854W        W46383  14.829  43.803   4.125
74855W        W46384   0.861  24.227   2.877
74856W        W46385  19.711  22.055  11.199
74857W        W46386  38.487  16.449   1.558
74858W        W46387  39.242  34.636   2.728
74859W        W46388  38.538  40.501   2.404
74860W        W46389  11.326   1.232   0.726
74861W        W46390   3.414  25.687   2.810
74862W        W46391  21.376  31.149  11.521
74863W        W46392   8.818  33.356   2.725
74864W        W46393  11.391   7.723  13.138
74865W        W46394  33.621  29.708   1.007
74866W        W46395  44.088  25.492   0.906
74867W        W46396  44.680  24.761  11.573
74868W        W46397  36.447  14.216   4.344
74869W        W46398  41.029   1.816  11.671
74870W        W46399   6.310  22.736   4.160
74871W        W46400  14.883  34.498  14.379
74872W        W46401  25.904  27.453  12.841
74873W        W46402  16.542  20.533  12.802
74874W        W46403  13.671  41.782  11.630
74875W        W46404  38.272  11.667  13.264
74876W        W46405  27.842  22.038  10.966
74877W        W46406  42.277  13.623   1.778
74878W        W46407  12.669   4.776  10.959
74879W        W46408  39.009  36.533   1.133
74880W        W46409  42.348  31.383   2.757
74881W        W46410   0.864  19.714  13.648
74882W        W46411   5.686  42.016  12.520
74883W        W46412   4.524   5.804  14.855
74884W        W46413   7.148  33.985  10.745
74885W        W46414   1.502  19.114  14.493
74886W        W46415  24.754  43.450   3.416
74887W        W46416   3.856  25.962   2.717
74888W        W46417  42.389  10.191  13.782
74889W        W46418   2.648  41.050  11.037
74890W        W46419  31.129  30.942  11.219
74891W        W46420   4.778  44.946  14.010
74892W        W46421   0.762  17.805   2.765
74893W        W46422  21.676   9.703   3.717
74894W        W46423  40.544  39.488   3.851
74895W        W46424  15.032  38.839  13.442
74896W        W46425  32.635   7.313  13.479
74897W        W46426  22.227  39.152  11.103
74898W        W46427  16.032  16.614  11.603
74899W        W46428  22.724  40.327   2.174
74900W        W46429  28.663  12.591   0.477
74901W        W46430  40.085  22.137  12.451
74902W        W46431  24.147   3.724   0.039
74903W        W46432  34.197  44.058   2.306
74904W        W46433   3.677  21.979   3.726
74905W        W46434  20.104   3.406   0.828
74906W        W46435  25.517  12.862  11.568
74907W        W46436   8.704  20.636  13.024
74908W        W46437   8.829  23.772  12.938
74909W        W46438  40.350  25.166   3.722
74910W        W46439  13.212  19.129  14.829
74911W        W46440  22.379   3.829  14.399
74912W        W46441   6.805  30.934   1.930
74913W        W46442  42.507  33.899   0.832
74914W        W46443  15.335  15.001   4.482
74915W        W46444  42.991  20.971   4.049
74916W        W46445  32.667  17.318   2.993
74917W        W46446  15.460   9.765  12.178
74918W        W46447  17.294  44.851   0.812
74919W        W46448  42.462  14.488   0.011
74920W        W46449  30.037  25.988  12.049
74921W        W46450  20.494  35.098   3.945
74922W        W46451   2.121  19.174  11.488
74923W        W46452  26.535  35.329  11.521
74924W        W46453  13.693   1.568  13.007
74925W        W46454  23.156  15.847   2.812
74926W        W46455  38.653  13.176  12.550
74927W        W46456  43.207  24.455   1.703
74928W        W46457  35.666   3.792  14.793
74929W        W46458   5.325  28.103  13.666
74930W        W46459  29.684  32.403   3.866
74931W        W46460  17.238  11.587   3.887
74932W        W46461  32.277  25.166   0.090
74933W        W46462  29.725  23.962  12.929
74934W        W46463  12.643  16.085  13.142
74935W        W46464  39.841  15.834   1.535
74936W        W46465  15.360  30.342  13.485
74937W        W46466   3.966  36.805   3.179
74938W        W46467  34.863   8.694  14.773
74939W        W46468  20.200  35.090  13.968
74940W        W46469   7.827  31.566   3.275
74941W        W46470   3.462   6.792   2.434
74942W        W46471  19.880   7.307   2.633
74943W        W46472   3.168  13.865  12.222
74944W        W46473  17.916  20.024  12.824
74945W        W46474   4.267  28.706   4.107
74946W        W46475  40.279   5.249   2.871
74947W        W46476  19.335   6.870   3.899
74948W        W46477  29.958   3.304  14.174
74949W        W46478  37.657   6.960  14.794
74950W        W46479  14.294  14.517  12.152
74951W        W46480  15.374  24.174  14.739
74952W        W46481   8.932  21.517  13.007
74953W        W46482   1.414   0.221   3.154
74954W        W46483  23.853  14.780  13.010
74955W        W46484  18.916  15.121   2.348
74956W        W46485  24.970  40.961   4.090
74957W        W46486   6.816  28.186   4.117
74958W        W46487   4.725  26.985   4.541
74959W        W46488  22.091  26.270  11.746
74960W        W46489  16.095   5.365   2.544
74961W        W46490   1.176  26.979   2.830
74962W        W46491   7.800  14.654  12.944
74963W        W46492  16.230   8.901   1.925
74964W        W46493   7.376   1.979  14.079
74965W        W46494   5.890   6.186   1.709
74966W        W46495  14.957  41.857   2.949
74967W        W46496   4.729  41.022   0.292
74968W        W46497  12.059  10.782  10.523
74969W        W46498  40.290  37.013  14.002
74970W        W46499  37.971  24.703  14.442
74971W        W46500  42.558  12.742   1.453
74972W        W46501  33.149   5.000   0.796
74973W        W46502  30.699  22.184   4.960
74974W        W46503  39.121  23.033  14.095
74975W        W46504   2.327  17.204  12.584
74976W        W46505   7.687  28.692   3.170
74977W        W46506  24.758  42.322   2.718
74978W        W46507  15.693   1.778  10.709
74979W        W46508  29.486  12.354  12.108
74980W        W46509  14.661  41.386  11.576
74981W        W46510  18.709  11.679   1.834
74982W        W46511  25.724  22.691   3.100
74983W        W46512   5.892  13.174   1.339
74984W        W46513   9.224  21.354  11.229
74985W        W46514  31.397  21.098  12.965
74986W        W46515  10.512  14.299  14.969
74987W        W46516  26.374   2.066   2.871
74988W        W46517  15.230  13.896   0.091
74989W        W46518  35.491  30.312   0.840
74990W        W46519  19.303  32.926   1.478
74991W        W46520  20.767  34.331   0.652
74992W        W46521   2.492  32.954   3.192
74993W        W46522  24.087  26.639  13.399
74994W        W46523  41.928  32.496  13.259
74995W        W46524  13.730  27.912   3.368
74996W        W46525   6.768  20.579   1.015
74997W        W46526  26.051  38.237   1.832
74998W        W46527  40.865  31.178  13.007
74999W        W46528  24.246  35.061   2.284
75000W        W46529  14.226  22.668  10.336
75001W        W46530  42.245  40.031   4.083
75002W        W46531   9.609  40.456  10.625
75003W        W46532  23.450  20.693  11.451
75004W        W46533  28.924   6.892   3.302
75005W        W46534  20.096   1.713   0.518
75006W        W46535  25.088   6.512  14.121
75007W        W46536  18.394  10.962  12.023
75008W        W46537   3.885  42.723   5.063
75009W        W46538  43.007   1.396  12.961
75010W        W46539  16.190  27.442  12.105
75011W        W46540  26.659  28.488   3.099
75012W        W46541  43.729  41.320   1.284
75013W        W46542   7.485  18.031  11.577
75014W        W46543  39.825  27.599   2.415
75015W        W46544   1.303   9.909   1.785
75016W        W46545   8.432   4.789   0.810
75017W        W46546  35.866   5.267  14.480
75018W        W46547  11.025  18.518   2.766
75019W        W46548  20.316  30.181   4.074
75020W        W46549  17.080   5.956  11.201
75021W        W46550  20.073  35.525  11.273
75022W        W46551  14.740  42.843   1.286
75023W        W46552   7.226  14.368   0.396
75024W        W46553   9.988  19.889  13.783
75025W        W46554  21.160  32.761  10.521
75026W        W46555   4.333  25.637   2.215
75027W        W46556  18.679  28.541  14.178
75028W        W46557  11.542   2.144   3.066
75029W        W46558  28.910   9.348   3.310
75030W        W46559  43.773  27.013  12.856
75031W        W46560  37.817  13.127  13.318
75032W        W46561  43.755  15.884   0.775
75033W        W46562  38.607  41.061  10.729
75034W        W46563  16.772  26.452   3.614
75035W        W46564  27.174  21.190  11.784
75036W        W46565   4.591  40.050  14.633
75037W        W46566  11.705  38.160  13.817
75038W        W46567  36.055  21.980   1.264
75039W        W46568   9.313  25.658  14.932
75040W        W46569  41.483  37.545   5.093
75041W        W46570  19.738   8.322  13.994
75042W        W46571   0.988  11.801   3.352
75043W        W46572  32.764  23.018  12.356
75044W        W46573  21.962   4.838  13.997
75045W        W46574  15.479  38.807  12.529
75046W        W46575  22.735   6.433  11.642
75047W        W46576  12.075  23.638   3.827
75048W        W46577  16.203  25.885   2.013
75049W        W46578  27.727   1.687   1.567
75050W        W46579  19.492  24.755   1.677
75051W        W46580  13.777  17.304   1.303
75052W        W46581   7.087  28.562   1.278
75053W        W46582  30.004  42.418  10.870
75054W        W46583  24.362  29.236  14.118
75055W        W46584   9.795  17.542  12.135
75056W        W46585   9.395   4.818  12.122
75057W        W46586   7.952  27.623   2.897
75058W        W46587  25.473  24.207  14.294
75059W        W46588  14.557  44.351   4.709
75060W        W46589  10.796  30.690   0.488
75061W        W46590  41.543  29.531  11.108
75062W        W46591  29.895  13.798   3.788
75063W        W46592  36.595  16.201  13.459
75064W        W46593  30.991   3.282  13.001
75065W        W46594  40.480  27.587   1.339
75066W        W46595   7.453  25.708   1.003
75067W        W46596  19.142  43.811  14.452
75068W        W46597  19.958   7.526   5.037
75069W        W46598  34.105  29.386   0.739
75070W        W46599  29.620  32.580  14.358
75071W        W46600  25.933  16.767  10.688
75072W        W46601  26.441  43.576  14.897
75073W        W46602  16.332  21.260  12.396
75074W        W46603  19.994  24.622   3.339
75075W        W46604   0.394  29.842  10.698
75076W        W46605  12.805  14.522   3.275
75077W        W46606  38.989  11.882   3.822
75078W        W46607  34.307  15.786   3.654
75079W        W46608  29.206   6.485   3.172
75080W        W46609  30.367  33.826  13.362
75081W        W46610  26.636  23.089   1.638
75082W        W46611  11.290   2.950   3.244
75083W        W46612  43.324  38.586   4.564
75084W        W46613  42.859  12.362  13.493
75085W        W46614   3.533  14.184   2.678
75086W        W46615  21.183   5.661  11.678
75087W        W46616  37.658  14.098   0.991
75088W        W46617  34.425   2.522  10.826
75089W        W46618  25.723  15.638  12.504
75090W        W46619  23.525  33.714   2.004
75091W        W46620  10.959  33.628  11.131
75092W        W46621  34.048  12.352   2.798
75093W        W46622  26.490  17.671   4.184
75094W        W46623  24.319   8.395  10.783
75095W        W46624   7.878   2.831   3.789
75096W        W46625  11.970  32.517  11.572
75097W        W46626   5.787  17.124   0.200
75098W        W46627  22.003  14.595  13.993
75099W        W46628  14.632   9.706   2.662
75100W        W46629   6.167  23.635   1.872
75101W        W46630   7.868  32.583  12.084
75102W        W46631  30.903  36.159   4.665
75103W        W46632  18.564  31.576  13.227
75104W        W46633  40.105  44.137   3.286
75105W        W46634  20.147  12.531   4.617
75106W        W46635  36.827   7.691   4.648
75107W        W46636  44.201  31.929  13.064
75108W        W46637   9.275  19.389   0.247
75109W        W46638  41.476  36.336   5.132
75110W        W46639  18.064  29.458   3.633
75111W        W46640  20.517  18.526  11.398
75112W        W46641  33.532  18.318  11.679
75113W        W46642  27.362  21.385   2.727
75114W        W46643  40.212  32.648  11.843
75115W        W46644  11.628  25.503  11.962
75116W        W46645  42.885   5.787   1.656
75117W        W46646  12.362  44.315   2.790
75118W        W46647  16.020  25.622  14.308
75119W        W46648  13.170  37.331  11.179
75120W        W46649   7.173  18.722   3.937
75121W        W46650  26.540  35.051   1.379
75122W        W46651  41.222  19.173   2.772
75123W        W46652   5.878  25.980  10.825
75124W        W46653  41.153  36.327   0.174
75125W        W46654   4.354  25.987   1.304
75126W        W46655  24.421  29.667   5.193
75127W        W46656  34.327  31.938  12.543
75128W        W46657  44.246   0.419   0.272
75129W        W46658  43.418  32.094  11.114
75130W        W46659  24.533  29.981  11.890
75131W        W46660  39.375  37.872   4.213
75132W        W46661  38.480  33.065  13.886
75133W        W46662  23.154  34.907   1.451
75134W        W46663  15.684  33.859   0.741
75135W        W46664  42.055  29.052  13.771
75136W        W46665  42.904   4.351   4.078
75137W        W46666  30.063  28.603  13.083
75138W        W46667   1.403  39.277   1.235
75139W        W46668   8.215   7.890   0.746
75140W        W46669  17.232  39.991  10.218
75141W        W46670  13.386  41.355  10.742
75142W        W46671  22.756  24.516   2.733
75143W        W46672  19.030  34.487   3.813
75144W        W46673  10.088  43.517   0.275
75145W        W46674   7.078   5.706   2.714
75146W        W46675  38.348  31.611   3.531
75147W        W46676  43.291   6.115  10.719
75148W        W46677   6.896  39.330  13.866
75149W        W46678   5.428  11.342   3.377
75150W        W46679  19.129  26.067  13.773
75151W        W46680  15.764  29.201   0.964
75152W        W46681   6.289  39.774  14.929
75153W        W46682   5.757  38.901   0.990
75154W        W46683   5.846  41.215  14.602
75155W        W46684  25.673  34.841  13.937
75156W        W46685  18.194  25.408   4.095
75157W        W46686   5.889  27.833   2.320
75158W        W46687   5.032  36.370  12.356
75159W        W46688  32.772  31.900  13.653
75160W        W46689  16.273  10.666  13.037
75161W        W46690  29.160  14.411   2.410
75162W        W46691  29.498  23.651   4.214
75163W        W46692  28.421   7.299   1.625
75164W        W46693  35.416  12.754  12.400
75165W        W46694  11.760  10.270  12.844
75166W        W46695  26.065   9.031  11.592
75167W        W46696  42.294  43.503   4.689
75168W        W46697   5.352  18.829   0.415
75169W        W46698   6.414  14.866   1.989
75170W        W46699   6.111  31.437   0.377
75171W        W46700  12.846  16.783  13.542
75172W        W46701   7.378  42.795   4.585
75173W        W46702   5.652   2.468  11.287
75174W        W46703  24.438  34.266  12.940
75175W        W46704  26.030   8.003   3.283
75176W        W46705  26.685  12.144   4.945
75177W        W46706  43.035  32.552   1.405
75178W        W46707  26.670  35.680  11.189
75179W        W46708   4.743  18.700   2.790
75180W        W46709   2.254  38.323   2.596
75181W        W46710  18.586  44.313   2.336
75182W        W46711  35.055  37.404  11.931
75183W        W46712  16.050  30.958  12.407
75184W        W46713  13.167  36.641  12.466
75185W        W46714   8.243  28.587  12.018
75186W        W46715  17.704  32.861   2.604
75187W        W46716   3.601  30.017   4.694
75188W        W46717  29.041  19.453  12.882
75189W        W46718  21.761  42.521  13.894
75190W        W46719  31.627  23.079   0.267
75191W        W46720  24.428  41.613  10.647
75192W        W46721  22.158   0.535  12.634
75193W        W46722  22.933  12.608  14.678
75194W        W46723  18.213   5.104  11.174
75195W        W46724   7.845   3.952  13.525
75196W        W46725  27.531  41.786  13.874
75197W        W46726  13.886  41.545  12.058
75198W        W46727   3.844  16.103   0.935
75199W        W46728  37.916  18.225   1.566
75200W        W46729  20.773  31.503  14.410
75201W        W46730  41.490  28.386  11.330
75202W        W46731  43.819  44.207  13.842
75203W        W46732  20.121  39.480  11.653
75204W        W46733   1.992  31.651   2.781
75205W        W46734  34.020   1.778  13.430
75206W        W46735  42.555   2.451  14.405
75207W        W46736  10.248  31.424   0.411
75208W        W46737  44.256  17.087  14.946
75209W        W46738  42.410  37.599   1.353
75210W        W46739  29.340  11.165   2.772
75211W        W46740  43.987  23.772  14.469
75212W        W46741  37.770  27.565  11.716
75213W        W46742  24.128  38.810  10.533
75214W        W46743  13.284  16.057  13.451
75215W        W46744   4.838  42.204   4.057
75216W        W46745  30.189   2.487  12.975
75217W        W46746   1.543  40.095  14.060
75218W        W46747  13.744   1.432  12.527
75219W        W46748  24.646   3.626  11.105
75220W        W46749  43.101  43.784   4.334
75221W        W46750  38.016  33.234   4.229
75222W        W46751   4.407   9.708  11.397
75223W        W46752   3.648  40.717   4.256
75224W        W46753  24.584  15.206   0.129
75225W        W46754  21.323  23.614   1.719
75226W        W46755  12.622   5.846  13.060
75227W        W46756  29.702  44.620   1.284
75228W        W46757  25.994  15.534   0.401
75229W        W46758  25.835  22.511   1.161
75230W        W46759   4.748   2.373   1.106
75231W        W46760   2.224  20.945   5.137
75232W        W46761  33.829  43.081   1.307
75233W        W46762  14.752  42.502  14.045
75234W        W46763  30.415  27.138  11.730
75235W        W46764   0.786  15.619   1.463
75236W        W46765  34.890   6.147  13.907
75237W        W46766  35.313  14.213  13.176
75238W        W46767  19.455  37.469  14.746
75239W        W46768  44.313  42.440  14.007
75240W        W46769   7.083  23.233  12.454
75241W        W46770  19.800  22.152   2.974
75242W        W46771   9.389  32.184   5.037
75243W        W46772  36.931  25.740  13.364
75244W        W46773  16.489  17.558   1.725
75245W        W46774  31.026  38.896  13.414
75246W        W46775  40.090  30.554   0.987
75247W        W46776  39.377  36.170   1.422
75248W        W46777  35.479  44.355   9.993
75249W        W46778  22.873   0.278  13.325
75250W        W46779  16.256  23.694  13.670
75251W        W46780  44.756  14.286  10.710
75252W        W46781   5.272  42.834  11.434
75253W        W46782  29.055  33.830  10.785
75254W        W46783  10.367  35.381   2.211
75255W        W46784  18.778  35.744   1.478
75256W        W46785  29.921  30.910   0.898
75257W        W46786  28.523   0.039  11.975
75258W        W46787  13.243  20.323  14.005
75259W        W46788  42.577  42.597  14.443
75260W        W46789  31.485  13.847   3.425
75261W        W46790   4.441  14.957   3.336
75262W        W46791  35.388  16.591   1.810
75263W        W46792  36.528  28.349   4.125
75264W        W46793  41.721  17.034  13.548
75265W        W46794  19.046  37.572  10.542
75266W        W46795   7.087   0.463   3.701
75267W        W46796  23.107  22.039  10.458
75268W        W46797   6.977   3.788   1.849
75269W        W46798  20.512   1.519   2.326
75270W        W46799  21.629  42.923   0.261
75271W        W46800   6.805  41.868  14.745
75272W        W46801  24.966  21.610   3.548
75273W        W46802  25.634  14.268  13.672
75274W        W46803  25.929  21.685   4.567
75275W        W46804  13.048  35.404   1.887
75276W        W46805  35.391  31.090  12.733
75277W        W46806   1.756  34.621   2.026
75278W        W46807   2.383   5.447   4.654
75279W        W46808  39.979   9.576  12.467
75280W        W46809  20.566  17.071  13.037
75281W        W46810   5.811  32.125   3.706
75282W        W46811  12.507  41.005  13.742
75283W        W46812  15.842   8.787   4.759
75284W        W46813  21.589  16.268   3.096
75285W        W46814  35.406  43.397   0.030
75286W        W46815  20.455  29.474   9.496
75287W        W46816  38.087  21.065   5.002
75288W        W46817  23.241  35.362   1.704
75289W        W46818  41.479  38.404   2.279
75290W        W46819  35.749   4.850   0.345
75291W        W46820  36.770   2.284   3.585
75292W        W46821   7.353   3.718  11.161
75293W        W46822  20.570  42.824   1.503
75294W        W46823  43.500  24.120  13.428
75295W        W46824   2.228  13.639  13.454
75296W        W46825  11.231  32.294   2.992
75297W        W46826   8.137  12.288   0.247
75298W        W46827  37.057  40.424  14.377
75299W        W46828  10.495  22.883  13.823
75300W        W46829  20.171  36.286  11.710
75301W        W46830  13.561  18.218  11.089
75302W        W46831   8.410  35.320  14.315
75303W        W46832  25.729  20.194   1.247
75304W        W46833  14.539  19.497   1.760
75305W        W46834  32.193  22.238  13.326
75306W        W46835  41.046   3.841  11.414
75307W        W46836  34.426   1.816  12.512
75308W        W46837  16.754   8.836  11.802
75309W        W46838  40.341  23.175   4.323
75310W        W46839  14.701  18.719  12.475
75311W        W46840  20.871  38.601   1.616
75312W        W46841   3.322  16.549   0.444
75313W        W46842  24.773   5.251   4.367
75314W        W46843  22.609  21.127   3.544
75315W        W46844  31.406  14.573   0.411
75316W        W46845  31.908   1.692   4.948
75317W        W46846  19.409  23.396   1.490
75318W        W46847  20.056  22.201  11.554
75319W        W46848  43.855  40.411   4.338
75320W        W46849  14.127  15.941  11.367
75321W        W46850  33.207  12.980   4.308
75322W        W46851  20.562   8.831   0.223
75323W        W46852  26.638  27.268   2.261
75324W        W46853   6.227  44.022  13.974
75325W        W46854   8.473   0.390   0.873
75326W        W46855  41.372  10.322   0.824
75327W        W46856  44.327   6.316  13.001
75328W        W46857  23.119  11.195   4.869
75329W        W46858  26.075  28.502   4.772
75330W        W46859  33.772  24.247  10.151
75331W        W46860  39.977   5.360   4.268
75332W        W46861  34.508  40.011  13.832
75333W        W46862  36.945  12.366   4.137
75334W        W46863  18.182  38.366  10.674
75335W        W46864  17.070  36.346   2.654
75336W        W46865  14.603  12.686   3.150
75337W        W46866  17.792  17.157  12.849
75338W        W46867  18.213  33.574  12.953
75339W        W46868  39.669  12.764   0.244
75340W        W46869   6.827  39.591  12.456
75341W        W46870  33.573  12.388  10.617
75342W        W46871  24.579  24.134   3.831
75343W        W46872  15.851  18.293  12.892
75344W        W46873  39.333  37.764   2.292
75345W        W46874  31.767  25.406  12.173
75346W        W46875  12.252  29.884   1.416
75347W        W46876   7.681  27.798  12.020
75348W        W46877   5.492   3.787  11.465
75349W        W46878  38.566  18.230   4.100
75350W        W46879  19.803   3.172   4.507
75351W        W46880  30.709  12.140   4.554
75352W        W46881   8.768  37.274  11.408
75353W        W46882  29.510  14.887  14.339
75354W        W46883  26.764   3.953  11.233
75355W        W46884  43.395  36.203   9.818
75356W        W46885   8.543   8.964   4.999
75357W        W46886   4.862   6.249  12.560
75358W        W46887  17.530  26.650  11.478
75359W        W46888  40.017  39.712   0.925
75360W        W46889  24.001   1.349   2.724
75361W        W46890  17.444   3.286   0.615
75362W        W46891   5.957  42.748  10.448
75363W        W46892   9.189  41.300  12.131
75364W        W46893  23.740  41.486   0.420
75365W        W46894  22.830  18.586  11.148
75366W        W46895  20.058  39.488  12.561
75367W        W46896  29.929  36.927  12.149
75368W        W46897  32.499   0.876   3.086
75369W        W46898  13.007   2.564  11.458
75370W        W46899  44.854  24.708   3.588
75371W        W46900  24.385  12.360  14.435
75372W        W46901  25.744  41.685   1.703
75373W        W46902  24.191  17.651  10.635
75374W        W46903   8.761  16.169   4.582
75375W        W46904  15.889  39.705  11.582
75376W        W46905   3.619   7.679   0.021
75377W        W46906  40.557  27.809   4.710
75378W        W46907  11.803  36.719   3.315
75379W        W46908  30.993  23.221   4.367
75380W        W46909  17.668  39.244   1.570
75381W        W46910  40.910  27.491  11.413
75382W        W46911  21.705  13.802  12.553
75383W        W46912   5.895  28.586  11.595
75384W        W46913   0.435   0.914  13.106
75385W        W46914  18.688   9.422  13.964
75386W        W46915  40.356  14.242  12.195
75387W        W46916   1.924  33.109  11.260
75388W        W46917  42.068  22.813   5.168
75389W        W46918  33.969   9.265   0.820
75390W        W46919  24.001  40.881  10.452
75391W        W46920  12.400  33.725  12.735
75392W        W46921  12.146   8.329   3.307
75393W        W46922  41.624  29.179   5.098
75394W        W46923  16.184  11.318   0.372
75395W        W46924  23.469  10.799  14.876
75396W        W46925  13.985  37.623  12.030
75397W        W46926  44.286  19.405   2.645
75398W        W46927  24.112  19.263   3.248
75399W        W46928   0.218  31.365   5.472
75400W        W46929   8.427  40.577  13.093
75401W        W46930  13.192  26.361   9.919
75402W        W46931   2.003  44.991   0.485
75403W        W46932   3.401  13.400  11.628
75404W        W46933  14.267  23.215  11.949
75405W        W46934  12.712  37.367   2.874
75406W        W46935  29.074  12.142  14.711
75407W        W46936  15.256   4.361   3.833
75408W        W46937  13.641  18.072   3.664
75409W        W46938  34.973  13.074  13.994
75410W        W46939  42.729   2.214  12.533
75411W        W46940   0.847  40.705   3.744
75412W        W46941  44.160   1.820  14.367
75413W        W46942  39.259  32.523  13.011
75414W        W46943  27.526  41.803  11.962
75415W        W46944  30.091  44.979  13.411
75416W        W46945   7.901   4.274  12.651
75417W        W46946  38.844  36.437  12.935
75418W        W46947  15.104   9.183   2.246
75419W        W46948  39.576  11.852  14.046
75420W        W46949  21.622  38.576   1.938
75421W        W46950   3.669  10.373   3.726
75422W        W46951  30.478   8.609   0.315
75423W        W46952  21.731  28.064   0.951
75424W        W46953  32.962  43.910  11.995
75425W        W46954  32.568  18.963  12.413
75426W        W46955  17.079  16.742  12.391
75427W        W46956  40.854  15.649   3.804
75428W        W46957  39.949  41.778  13.551
75429W        W46958  43.786  36.500   3.316
75430W        W46959  40.513  30.047  12.924
75431W        W46960  32.887   6.174  11.135
75432W        W46961  28.197  20.968  11.638
75433W        W46962   6.230   3.152  11.260
75434W        W46963  14.054  35.034  14.062
75435W        W46964  44.203  16.112   1.974
75436W        W46965  34.140  38.860   2.145
75437W        W46966  30.832  12.233   0.397
75438W        W46967   2.250  18.243  13.346
75439W        W46968  33.489  12.115  14.382
75440W        W46969  39.064  31.876  13.499
75441W        W46970  23.814  41.923   1.393
75442W        W46971  30.292  14.271   3.016
75443W        W46972  30.777  42.924   1.391
75444W        W46973  15.289  23.111   4.602
75445W        W46974  21.797  29.992  11.675
75446W        W46975  32.382  26.172  11.085
75447W        W46976  39.708   5.825   1.577
75448W        W46977  14.071  40.700  12.489
75449W        W46978  35.318  41.864   4.544
75450W        W46979   9.406  41.719   2.652
75451W        W46980  36.667  35.182  12.231
75452W        W46981  44.735   5.396  13.888
75453W        W46982  21.544   0.665  12.999
75454W        W46983  43.281  15.388  10.770
75455W        W46984  42.427  26.227   1.590
75456W        W46985  19.153   2.778   1.518
75457W        W46986  34.374  36.001  12.671
75458W        W46987  37.520  37.588  13.430
75459W        W46988  25.848   7.248   3.292
75460W        W46989  32.959   0.549   0.876
75461W        W46990  35.401  39.049   1.791
75462W        W46991  44.243  11.711  14.173
75463W        W46992   0.855   0.518   4.265
75464W        W46993  26.144  17.788  14.820
75465W        W46994  28.087  13.855   0.549
75466W        W46995  31.431  32.460  14.632
75467W        W46996  17.759  25.402  12.409
75468W        W46997  37.110  19.478  10.785
75469W        W46998  23.954  39.637  13.907
75470W        W46999  32.116  40.746   1.301
75471W        W47000  11.109  13.840   3.937
75472W        W47001  19.529  31.123  11.560
75473W        W47002  28.086  35.614  11.441
75474W        W47003  21.063  14.548   4.655
75475W        W47004  22.734  25.269   3.336
75476W        W47005  40.057  24.547   3.704
75477W        W47006   3.898  39.960   3.207
75478W        W47007  35.165  43.016  14.727
75479W        W47008  29.715  41.096   2.099
75480W        W47009  35.881  12.679   4.516
75481W        W47010  29.359  14.546  13.572
75482W        W47011  17.158   9.385  12.354
75483W        W47012   9.893  29.040   2.382
75484W        W47013   9.643  20.128  11.254
75485W        W47014  16.843  44.435  14.439
75486W        W47015   8.074  15.352  12.079
75487W        W47016  19.597  40.153  11.286
75488W        W47017   0.790   5.754   2.380
75489W        W47018   3.955  29.666  14.917
75490W        W47019  32.385  17.676   2.633
75491W        W47020  43.165  31.473  11.880
75492W        W47021  28.100  42.501   3.100
75493W        W47022  16.194   9.894  14.406
75494W        W47023  40.576   5.215  11.993
75495W        W47024  27.141  31.131  12.503
75496W        W47025  32.373  43.459   0.320
75497W        W47026  31.145  44.820   3.892
75498W        W47027   6.585  43.163  11.105
75499W        W47028   8.905   5.870   2.431
75500W        W47029  30.486   1.032  14.746
75501W        W47030   9.446  20.717   4.166
75502W        W47031  35.946  34.061  13.788
75503W        W47032  13.121  20.822  14.020
75504W        W47033  14.254  19.881  12.921
75505W        W47034  22.581  18.550  12.094
75506W        W47035  37.120  16.683  14.017
75507W        W47036  42.946   7.351   2.848
75508W        W47037  35.967  44.317  14.840
75509W        W47038   2.421   8.225  11.168
75510W        W47039  23.196   7.745  10.820
75511W        W47040  24.290  33.636  12.827
75512W        W47041  23.714  12.869  14.378
75513W        W47042   1.250  18.184  13.410
75514W        W47043   8.786   8.340  12.611
75515W        W47044  23.075  44.262   4.192
75516W        W47045  20.295   4.141  10.585
75517W        W47046  27.679  17.170  11.626
75518W        W47047  13.977  31.470  14.892
75519W        W47048  19.960  32.721  11.112
75520W        W47049  39.442   9.890  11.267
75521W        W47050   8.047  10.926  13.768
75522W        W47051  21.179  13.640  11.876
75523W        W47052  34.155  44.392   1.215
75524W        W47053   1.311  22.464   3.269
75525W        W47054   2.638  24.783   4.242
75526W        W47055   8.431  11.680   4.667
75527W        W47056  13.455  23.306   2.801
75528W        W47057  15.617  19.754  10.631
75529W        W47058   9.122  14.708  12.550
75530W        W47059  22.158  13.210   1.858
75531W        W47060   1.430  37.822  10.795
75532W        W47061  16.981  35.583   0.925
75533W        W47062   0.514  16.258   0.808
75534W        W47063  33.507  10.849   1.727
75535W        W47064  40.540  20.491  11.017
75536W        W47065  40.035  14.653  14.212
75537W        W47066  25.116  11.760   1.939
75538W        W47067  41.076   9.735  12.970
75539W        W47068   1.766   0.990   3.958
75540W        W47069  27.620  15.859   4.679
75541W        W47070   7.100  24.161   2.781
75542W        W47071   6.929  34.054  13.927
75543W        W47072  31.610  32.650   2.784
75544W        W47073   0.045  14.323   3.391
75545W        W47074  32.013  18.161   4.071
75546W        W47075   6.993  19.613  14.313
75547W        W47076  32.010  14.580   1.245
75548W        W47077  19.173  25.230   1.396
75549W        W47078  37.852  27.025   3.854
75550W        W47079  25.899  26.173   0.696
75551W        W47080  24.517  35.924   1.117
75552W        W47081  16.322  25.229   3.345
75553W        W47082  20.525  40.969   0.719
75554W        W47083  13.910  35.514   3.703
75555W        W47084   4.120   3.159   0.644
75556W        W47085  16.555  33.595  14.468
75557W        W47086  34.775  17.736  10.434
75558W        W47087   9.598   3.527   4.872
75559W        W47088  26.181   8.031  13.066
75560W        W47089   8.175  40.898   1.879
75561W        W47090  21.665  32.168  10.529
75562W        W47091  17.759  32.630  12.844
75563W        W47092  26.189  40.492   3.214
75564W        W47093  36.358  30.397  14.890
75565W        W47094  28.660  36.843   2.706
75566W        W47095  22.428  18.079  12.352
75567W        W47096  39.923  22.519   3.669
75568W        W47097  21.967  43.856  14.310
75569W        W47098  41.829   4.135  14.964
75570W        W47099  30.388  22.802   2.345
75571W        W47100  30.466  34.921  12.015
75572W        W47101  31.422  23.119   2.774
75573W        W47102  15.713   0.579  11.558
75574W        W47103   1.500  34.498  11.526
75575W        W47104   0.352   9.213   3.101
75576W        W47105  25.717  41.477   2.362
75577W        W47106  21.915  44.854  12.357
75578W        W47107  25.983  35.585   4.798
75579W        W47108   1.893   3.897   0.234
75580W        W47109  39.733  32.206   2.399
75581W        W47110  13.669  39.898   3.896
75582W        W47111  40.990  34.028  14.859
75583W        W47112  21.604  34.288   1.719
75584W        W47113  43.848   6.959  11.176
75585W        W47114   9.773  36.661   4.748
75586W        W47115   2.296  38.834   0.224
75587W        W47116  43.611  29.673  11.984
75588W        W47117  36.454  37.355   0.009
75589W        W47118  44.347  42.366  14.529
75590W        W47119   1.984  30.782   1.551
75591W        W47120  16.557  29.027  12.308
75592W        W47121   1.462  44.548  10.535
75593W        W47122  22.525  36.529  14.843
75594W        W47123  10.928   7.681  14.459
75595W        W47124  19.140  34.140  11.632
75596W        W47125  12.712  21.477  10.927
75597W        W47126  37.064  40.119   3.654
75598W        W47127  23.430  26.245  11.590
75599W        W47128  17.127  42.492  11.557
75600W        W47129  22.111  23.010   1.767
75601W        W47130  43.591   8.388  14.768
75602W        W47131  20.537   6.373   2.831
75603W        W47132  21.292   5.949  13.489
75604W        W47133  44.077  24.784   4.198
75605W        W47134   8.158  12.752  13.906
75606W        W47135  20.217  24.103  13.556
75607W        W47136  31.417   3.749   2.474
75608W        W47137   8.764  37.574  13.943
75609W        W47138   3.980  37.223   2.437
75610W        W47139  43.435  40.809   1.582
75611W        W47140  32.409   9.308   1.298
75612W        W47141  12.204  23.211   2.649
75613W        W47142  40.930   5.476   0.108
75614W        W47143  40.489  37.152  13.099
75615W        W47144  43.725  28.818  11.067
75616W        W47145  19.135  27.492  12.113
75617W        W47146  34.500  35.477  10.641
75618W        W47147  16.168  21.771  12.464
75619W        W47148   4.170  15.602  13.514
75620W        W47149  21.546  40.480   1.880
75621W        W47150  36.675   7.794   3.260
75622W        W47151  13.565  33.500   1.874
75623W        W47152  18.780  35.120  11.545
75624W        W47153   6.350   2.321   2.769
75625W        W47154  22.958   9.456   3.400
75626W        W47155  39.574  24.592  12.476
75627W        W47156  12.727  17.438   3.226
75628W        W47157   7.369  25.685   2.382
75629W        W47158   6.808   0.373  13.412
75630W        W47159  35.414  29.319  11.809
75631W        W47160  34.684  39.063   3.139
75632W        W47161  33.245  25.079   0.290
75633W        W47162  14.536  34.649   3.674
75634W        W47163  10.274  24.008  10.176
75635W        W47164  44.411  33.224  13.294
75636W        W47165  13.829  26.134  13.093
75637W        W47166  16.819   1.240   2.454
75638W        W47167  33.435  23.273   1.629
75639W        W47168  28.741  31.628   0.832
75640W        W47169  13.697   6.947  13.556
75641W        W47170  28.061   2.751  12.934
75642W        W47171  21.004  33.884   0.488
75643W        W47172  16.348  30.444  13.510
75644W        W47173  35.613  40.765  13.036
75645W        W47174   9.699  43.571   1.105
75646W        W47175   3.945  12.071  12.549
75647W        W47176  29.540  13.994   1.600
75648W        W47177  37.532  20.765   2.358
75649W        W47178  21.159   0.968  12.116
75650W        W47179  31.143  34.550   2.701
75651W        W47180   8.519  43.264  13.662
75652W        W47181  33.909  15.215   1.104
75653W        W47182  20.539  31.726   4.954
75654W        W47183  32.834  42.922  11.444
75655W        W47184   4.414  29.389  12.331
75656W        W47185  42.133  13.279   0.588
75657W        W47186  29.875  16.382  10.168
75658W        W47187   7.178  39.864   0.902
75659W        W47188  37.792  33.936   3.741
75660W        W47189  22.511  43.034  10.959
75661W        W47190  32.719  18.201  14.559
75662W        W47191  41.525  29.453  13.433
75663W        W47192  35.777  23.214   1.198
75664W        W47193  18.293  28.927   2.726
75665W        W47194  42.382   3.396   2.326
75666W        W47195   9.479   7.728   3.384
75667W        W47196   4.810  21.595  10.686
75668W        W47197  27.920  28.584   1.700
75669W        W47198   7.092  24.030   1.804
75670W        W47199  38.527   6.848  13.431
75671W        W47200   2.482  35.477   1.693
75672W        W47201  32.729  40.646  14.188
75673W        W47202  38.533  25.710  13.493
75674W        W47203  22.475  23.599  12.919
75675W        W47204  32.367  22.497  14.990
75676W        W47205  43.958   1.394   4.605
75677W        W47206  11.282  25.900   1.216
75678W        W47207  33.129  44.896  11.077
75679W        W47208  22.565  26.119  14.588
75680W        W47209  31.942  29.072   0.764
75681W        W47210  19.946  13.295   0.017
75682W        W47211  14.934   5.328   4.050
75683W        W47212  25.644  36.194   2.808
75684W        W47213   3.943  27.424   0.861
75685W        W47214   1.676  28.452  13.391
75686W        W47215  14.248  42.484  13.258
75687W        W47216  40.428  28.430   1.559
75688W        W47217  31.368  17.070  14.536
75689W        W47218   5.917  39.872   1.393
75690W        W47219  39.780  43.395  10.826
75691W        W47220   0.274  19.550   4.401
75692W        W47221   6.387  33.974   4.974
75693W        W47222  21.975  21.638  11.127
75694W        W47223  28.386  32.087   4.058
75695W        W47224  39.783  37.050  13.779
75696W        W47225  20.306  28.377   0.371
75697W        W47226   0.842  14.423  14.947
75698W        W47227   0.297  11.177   4.204
75699W        W47228  39.480  39.885  11.187
75700W        W47229  24.094  15.587   3.156
75701W        W47230  40.014  44.872   2.550
75702W        W47231  41.965   7.363  10.776
75703W        W47232  17.529  36.291  11.717
75704W        W47233   9.514  34.990  11.488
75705W        W47234   1.560  10.214  10.621
75706W        W47235  12.001  21.981   1.749
75707W        W47236  29.445   7.136   1.369
75708W        W47237  32.985  10.623  14.032
75709W        W47238  14.476  22.805  11.071
75710W        W47239   5.930  12.828   4.161
75711W        W47240  11.783  16.586   1.328
75712W        W47241  16.154  42.083  12.885
75713W        W47242   8.959   3.870   0.520
75714W        W47243  22.232  16.849   1.998
75715W        W47244  24.595  33.827   1.077
75716W        W47245   4.826  34.917   2.851
75717W        W47246  31.067  30.050  11.300
75718W        W47247  42.859  15.227   4.388
75719W        W47248  10.818  16.780  11.640
75720W        W47249  38.425  29.378  11.169
75721W        W47250   8.886  11.248   2.714
75722W        W47251  32.718   0.058   2.315
75723W        W47252   6.537  25.102   1.389
75724W        W47253  30.040  40.807  14.628
75725W        W47254   6.720  29.086   4.717
75726W        W47255  10.323  38.928   4.701
75727W        W47256   8.331  24.566   4.579
75728W        W47257  16.221  13.796  11.351
75729W        W47258   3.922  32.025  11.611
75730W        W47259   4.379  38.454  11.533
75731W        W47260  20.946  29.696   4.968
75732W        W47261  42.436   2.164  10.487
75733W        W47262  18.724  39.890   0.832
75734W        W47263  36.872  28.966  11.340
75735W        W47264  29.429   5.197  11.032
75736W        W47265  33.120  26.164   1.798
75737W        W47266  36.107  27.901  12.112
75738W        W47267  40.086  18.307   2.128
75739W        W47268   3.214   5.781  11.646
75740W        W47269  21.108  14.666  12.076
75741W        W47270  27.885  33.654  11.700
75742W        W47271  27.999  25.166  14.572
75743W        W47272  10.786  25.945   1.818
75744W        W47273   2.981   5.800  14.086
75745W        W47274  38.351   4.889   1.902
75746W        W47275  43.336  43.350  10.518
75747W        W47276  30.088  23.308   0.030
75748W        W47277   2.752  38.587   1.364
75749W        W47278   3.291  24.961  13.041
75750W        W47279  31.510  39.949   4.527
75751W        W47280   6.669  26.470  12.431
75752W        W47281  27.085  14.084   1.336
75753W        W47282   9.913  17.892  14.924
75754W        W47283  41.386  37.542   2.326
75755W        W47284  30.609  11.114   1.853
75756W        W47285  19.328  25.409   0.502
75757W        W47286  18.194  39.898  14.544
75758W        W47287  43.001   4.363  11.685
75759W        W47288  26.759  14.526   3.467
75760W        W47289  17.611  37.037  11.992
75761W        W47290   8.267  32.124   3.906
75762W        W47291  23.952  40.127  10.834
75763W        W47292  12.207   7.038  14.456
75764W        W47293   6.837   3.788   0.244
75765W        W47294  34.615   1.020   1.876
75766W        W47295  14.554  33.611  11.886
75767W        W47296   9.958  10.299  10.193
75768W        W47297  36.281  30.965  11.670
75769W        W47298  22.508  41.848  13.852
75770W        W47299  25.720  11.182  14.440
75771W        W47300   5.479  41.911  12.034
75772W        W47301  42.296   0.001  14.885
75773W        W47302  42.283  39.499   2.646
75774W        W47303  22.209  16.250  12.922
75775W        W47304  20.523   9.754   0.318
75776W        W47305  38.828   5.654  11.810
75777W        W47306  26.708  40.439   2.307
75778W        W47307  10.202  40.612   1.429
75779W        W47308  29.137  25.083   5.004
75780W        W47309  42.677  42.238  14.893
75781W        W47310  22.515  13.227  13.654
75782W        W47311  19.648   4.364  14.787
75783W        W47312  30.395  18.985   0.851
75784W        W47313  34.006  38.468  14.892
75785W        W47314   2.237   2.507   4.667
75786W        W47315  44.305  20.377  10.675
75787W        W47316   3.885  16.276  12.452
75788W        W47317   4.261  35.847   4.563
75789W        W47318  42.319  29.188  10.718
75790W        W47319   3.064  18.675   4.198
75791W        W47320  24.664   2.446   0.454
75792W        W47321  24.689  11.305  11.440
75793W        W47322  41.846   5.047   5.408
75794W        W47323  14.126  25.043   4.726
75795W        W47324  12.755  21.476   3.858
75796W        W47325   1.002  42.327  14.928
75797W        W47326   4.592   1.326  12.948
75798W        W47327  28.132  39.776  10.847
75799W        W47328  10.106  38.423  13.956
75800W        W47329  31.544   6.696  12.528
75801W        W47330  39.423  39.506   1.891
75802W        W47331  39.606  24.802  14.217
75803W        W47332   6.794   0.453   3.153
75804W        W47333  27.151   7.394  14.083
75805W        W47334  33.644   1.406  13.416
75806W        W47335  29.740  44.252   1.619
75807W        W47336  43.244   7.787  11.117
75808W        W47337  23.521  24.166   2.230
75809W        W47338  11.963   4.624  10.399
75810W        W47339  33.971  24.396  10.629
75811W        W47340  40.165  42.508   1.816
75812W        W47341  30.938  37.883   4.176
75813W        W47342  44.917  27.258   3.729
75814W        W47343   0.010  42.334  13.483
75815W        W47344  17.541  12.158   1.699
75816W        W47345  34.311  32.613  12.142
75817W        W47346  30.778  24.562  12.294
75818W        W47347   8.278   3.649  13.371
75819W        W47348  41.972  20.593   1.332
75820W        W47349  27.116  16.861   1.732
75821W        W47350  34.891  20.602   1.222
75822W        W47351  12.548  24.443   0.478
75823W        W47352  16.239  43.378   0.717
75824W        W47353  26.128  22.538  11.487
75825W        W47354  31.592   4.750   3.385
75826W        W47355  43.202  35.914   1.195
75827W        W47356   4.788   9.814  13.187
75828W        W47357  10.138  13.287   1.029
75829W        W47358   1.015   1.866   1.458
75830W        W47359  22.815   7.109   3.452
75831W        W47360  33.671  20.077   1.864
75832W        W47361   7.827   9.114  12.008
75833W        W47362  39.032  27.908   2.724
75834W        W47363  13.890   0.612  10.191
75835W        W47364  43.406   5.893   2.924
75836W        W47365  43.924  12.105   0.850
75837W        W47366  34.044   4.476   3.715
75838W        W47367  11.769  13.065   0.342
75839W        W47368   1.713  43.846  10.720
75840W        W47369  39.121  35.486   0.235
75841W        W47370  40.571  30.694   0.296
75842W        W47371  31.564  11.554  12.968
75843W        W47372  43.216   0.777   3.588
75844W        W47373   7.991  29.219   0.345
75845W        W47374   3.521  41.006  14.186
75846W        W47375  10.788  15.473   5.030
75847W        W47376  33.966  42.409   2.556
75848W        W47377  39.452   2.941   5.090
75849W        W47378  41.511  41.827  14.303
75850W        W47379  35.012   4.233   3.829
75851W        W47380  16.674  12.900  12.387
75852W        W47381   3.686  19.791  12.064
75853W        W47382  40.064   5.631  13.469
75854W        W47383  15.125  27.006   3.367
75855W        W47384  43.918  23.271  10.795
75856W        W47385  41.972  24.928   1.669
75857W        W47386  27.854  42.819   2.781
75858W        W47387  31.221  12.102   4.579
75859W        W47388  34.867  40.438  14.028
75860W        W47389   2.711  28.546  14.925
75861W        W47390  12.653   5.549  14.446
75862W        W47391  35.815  28.499  11.630
75863W        W47392  11.234  38.444  13.348
75864W        W47393  35.569  43.343   4.808
75865W        W47394  26.953   5.952   0.388
75866W        W47395  19.305  28.991   3.690
75867W        W47396  39.094  10.452   2.167
75868W        W47397  13.607  34.727   2.221
75869W        W47398   0.399  19.173   0.978
75870W        W47399  42.856  30.393  12.062
75871W        W47400  11.728  25.814  14.918
75872W        W47401  20.586  21.121  13.558
75873W        W47402  18.121   3.415   2.310
75874W        W47403  20.759  18.858  14.882
75875W        W47404  44.838  17.572   1.264
75876W        W47405  40.304   4.136   3.737
75877W        W47406   8.126   5.203   0.862
75878W        W47407  31.627  22.208   3.679
75879W        W47408   4.426  23.595   3.616
75880W        W47409  27.608  16.819  12.580
75881W        W47410  32.846  36.648  13.336
75882W        W47411  38.444  14.132   2.715
75883W        W47412   6.794  25.316  11.916
75884W        W47413  18.286  34.502   1.203
75885W        W47414  10.258   0.538  13.846
75886W        W47415  15.433  17.531   0.188
75887W        W47416  11.686  32.488   1.749
75888W        W47417  19.677  20.062  11.948
75889W        W47418   5.890  37.092   0.997
75890W        W47419   3.723  25.606   4.143
75891W        W47420  25.425   6.560   2.394
75892W        W47421  20.177   6.624  11.626
75893W        W47422  12.206  31.878  12.966
75894W        W47423  44.998   8.655   3.353
75895W        W47424  41.342   7.182  11.606
75896W        W47425   7.335  18.441   1.804
75897W        W47426  21.140  30.927  11.930
75898W        W47427   6.720  13.386  10.717
75899W        W47428  25.064  18.221  14.792
75900W        W47429  16.790   3.862  12.457
75901W        W47430  21.941  25.116  11.428
75902W        W47431  21.344  37.136   4.457
75903W        W47432  20.542  34.400  14.765
75904W        W47433   2.262  25.165  14.883
75905W        W47434   5.487  21.500  14.471
75906W        W47435  20.945  30.387  10.642
75907W        W47436  15.269  38.421  11.577
75908W        W47437  10.275   6.718   4.166
75909W        W47438   4.294   4.193  10.419
75910W        W47439  35.656  41.377   0.833
75911W        W47440  37.463  10.809  13.543
75912W        W47441  33.816   4.354  13.773
75913W        W47442   0.354  18.733  12.463
75914W        W47443  19.259  13.384  12.955
75915W        W47444  36.544  42.999  14.419
75916W        W47445  34.950   5.444   0.173
75917W        W47446  37.004  43.427   0.958
75918W        W47447  15.337  30.015   0.775
75919W        W47448  27.426  42.549   0.251
75920W        W47449  41.233  11.647  11.237
75921W        W47450  18.088  39.784  12.201
75922W        W47451  29.114   8.536   3.217
75923W        W47452  13.358  12.459   1.922
75924W        W47453  14.087   7.275   0.273
75925W        W47454  15.492  39.429  11.811
75926W        W47455  33.299  43.318   4.126
75927W        W47456   3.755  17.708  14.854
75928W        W47457  24.499   0.748   3.705
75929W        W47458  30.110  35.676  11.058
75930W        W47459   6.362  24.799   3.955
75931W        W47460   8.739  28.682   2.282
75932W        W47461  22.709  22.526   1.200
75933W        W47462  29.603   7.956  13.773
75934W        W47463   5.688  39.086   2.917
75935W        W47464  23.106   4.220   0.370
75936W        W47465  38.368  44.449  14.256
75937W        W47466   3.710  19.828   3.169
75938W        W47467   6.629  40.570   1.185
75939W        W47468  37.859  29.669   3.397
75940W        W47469  14.374  32.600  12.190
75941W        W47470   3.739   2.849   3.636
75942W        W47471  26.579  14.752  14.479
75943W        W47472  29.417   7.219  14.437
75944W        W47473  32.322   5.318  11.562
75945W        W47474  26.239  13.284   3.288
75946W        W47475  13.780  14.114   4.921
75947W        W47476  28.221   6.901   2.750
75948W        W47477  18.686  12.664   3.675
75949W        W47478  42.855  17.986  11.189
75950W        W47479  15.552  11.308  10.683
75951W        W47480  30.458   1.538   3.383
75952W        W47481  41.625  37.967   3.624
75953W        W47482  41.840  24.327   3.564
75954W        W47483  12.138   4.789   3.233
75955W        W47484  35.903   1.535   2.737
75956W        W47485  32.381  32.321  11.764
75957W        W47486  19.213  22.798  11.180
75958W        W47487  10.958  11.871   4.324
75959W        W47488  43.077  30.323   1.612
75960W        W47489  26.541  25.166  14.830
75961W        W47490  30.174  17.269   0.701
75962W        W47491  32.049   7.765  12.867
75963W        W47492  33.185  23.035   0.170
75964W        W47493   9.216   4.355  10.667
75965W        W47494  17.225  41.937  13.135
75966W        W47495  37.422  34.676   4.585
75967W        W47496  42.799  10.710   1.589
75968W        W47497  40.493  29.875   0.989
75969W        W47498  14.013  15.186   3.957
75970W        W47499  44.276  36.548   0.440
75971W        W47500   9.351   0.770  14.246
75972W        W47501  31.522  12.726  13.736
75973W        W47502  11.695  24.717  13.667
75974W        W47503  43.921  12.119  11.012
75975W        W47504   8.358  16.108  14.799
75976W        W47505   7.514  31.131  13.251
75977W        W47506  25.550  17.240   2.786
75978W        W47507  20.405  38.848   2.257
75979W        W47508  16.651  36.668  13.411
75980W        W47509  13.103  30.604   2.935
75981W        W47510  22.071  19.626   3.194
75982W        W47511   4.194  29.462   0.345
75983W        W47512  15.157   1.520   2.108
75984W        W47513   8.453  34.889  11.396
75985W        W47514  16.295   1.207   2.314
75986W        W47515  37.991  16.311  12.863
75987W        W47516  37.982  16.768  14.356
75988W        W47517   6.609   8.816  11.951
75989W        W47518  15.673  42.054  11.615
75990W        W47519  43.023  10.668  12.521
75991W        W47520  14.414  10.684  12.721
75992W        W47521  13.099  44.306   0.390
75993W        W47522   3.316  32.409  12.342
75994W        W47523  13.074  14.736   2.315
75995W        W47524  26.000  14.211  14.907
75996W        W47525  27.586  24.501  12.314
75997W        W47526   8.070  39.316   2.289
75998W        W47527  32.619  28.288  12.518
75999W        W47528  20.309   6.701  10.776
76000W        W47529  42.466  33.616   1.300
76001W        W47530   9.885  28.187   0.904
76002W        W47531  18.489  12.155   4.542
76003W        W47532  29.410  15.815  12.893
76004W        W47533  25.906  33.056  13.335
76005W        W47534  43.872  37.964   2.901
76006W        W47535   4.958  16.554   0.101
76007W        W47536  30.566  11.756  12.109
76008W        W47537  22.730  23.553   4.077
76009W        W47538  37.907   5.199  13.050
76010W        W47539   8.131  43.940   2.571
76011W        W47540  16.043   0.054  10.070
76012W        W47541  15.253  14.244  10.669
76013W        W47542  22.737  18.376  14.469
76014W        W47543   2.881  40.948   1.899
76015W        W47544   6.712   9.116  14.366
76016W        W47545   5.174  15.652   1.776
76017W        W47546  18.540  43.071   0.020
76018W        W47547  19.974  37.087   2.245
76019W        W47548  21.189  19.260  13.287
76020W        W47549   9.342  43.032   3.224
76021W        W47550  26.118  40.999  11.509
76022W        W47551  18.696   4.796  14.764
76023W        W47552  29.448   7.401  10.384
76024W        W47553  26.558  33.650   1.877
76025W        W47554  23.537  31.410   0.191
76026W        W47555  29.459  10.246  13.447
76027W        W47556   6.507  37.747  12.114
76028W        W47557  42.233  17.364   0.334
76029W        W47558   6.315  37.706  13.372
76030W        W47559  27.063  34.480   1.878
76031W        W47560  29.143  27.298   1.818
76032W        W47561  44.228  34.138   3.760
76033W        W47562  32.987   3.618   3.881
76034W        W47563  29.029  29.567  13.914
76035W        W47564  21.562  18.015   3.583
76036W        W47565   1.747  36.122   2.417
76037W        W47566  40.903   1.607  10.756
76038W        W47567  26.696  41.981   0.822
76039W        W47568  26.924  16.576  10.598
76040W        W47569  16.372  36.063   1.274
76041W        W47570   1.811  38.518   1.840
76042W        W47571   1.852  16.852  10.556
76043W        W47572  16.270  24.774  12.721
76044W        W47573  25.794  43.563  13.479
76045W        W47574  40.247  40.064  11.661
76046W        W47575  17.531   4.439  12.947
76047W        W47576  36.316  26.670  11.125
76048W        W47577   3.315  19.264  14.896
76049W        W47578  36.454  14.604  11.054
76050W        W47579  31.477  35.494   1.899
76051W        W47580  18.333  43.828  12.076
76052W        W47581  25.287  26.947   2.327
76053W        W47582  12.782  23.153   1.942
76054W        W47583  32.562  22.113   0.255
76055W        W47584  41.208   7.860  11.140
76056W        W47585  33.399  16.929  10.679
76057W        W47586   5.505  41.154   3.308
76058W        W47587  20.757  44.216  12.816
76059W        W47588  41.292   1.130   3.487
76060W        W47589   4.244  10.415   0.425
76061W        W47590  25.478  27.643   4.254
76062W        W47591  30.750  25.202   2.378
76063W        W47592  28.610  20.171  11.458
76064W        W47593  24.258  30.009  14.042
76065W        W47594  22.115  11.425  11.112
76066W        W47595  35.162  33.080  13.566
76067W        W47596  16.113  22.502  13.359
76068W        W47597  24.782  40.451   4.552
76069W        W47598  18.207  43.725   0.404
76070W        W47599  26.433   0.773  13.313
76071W        W47600   0.243  23.660   3.936
76072W        W47601  30.481  39.399  13.959
76073W        W47602   3.777  32.271   3.821
76074W        W47603  20.730  22.298   0.016
76075W        W47604  24.988   3.768  13.762
76076W        W47605  31.619  39.996  10.975
76077W        W47606   5.113   0.204  11.149
76078W        W47607  22.007   3.386  10.562
76079W        W47608  43.179  23.894   3.022
76080W        W47609  29.722  22.690   0.372
76081W        W47610  31.592   4.769  14.371
76082W        W47611   6.253  19.311  10.695
76083W        W47612  23.784  36.834  10.708
76084W        W47613  19.423  33.323   4.258
76085W        W47614   4.634   6.719  13.282
76086W        W47615  35.407  21.162  13.937
76087W        W47616   2.841   8.731  12.929
76088W        W47617   1.379  17.664  13.461
76089W        W47618  19.731  17.319   4.521
76090W        W47619  41.291  10.232  11.709
76091W        W47620  42.767  27.437   2.852
76092W        W47621   3.050   4.913   3.797
76093W        W47622  44.477   3.371   2.928
76094W        W47623   7.142  38.002  11.004
76095W        W47624   7.676   8.488   1.221
76096W        W47625  11.344  32.973   4.596
76097W        W47626  24.230   3.738  13.017
76098W        W47627  12.771  12.730  10.985
76099W        W47628  26.579  39.820   3.787
76100W        W47629   3.784  21.887   1.818
76101W        W47630  23.708  31.667   2.249
76102W        W47631  16.560  11.838  12.602
76103W        W47632   3.478  11.733   3.620
76104W        W47633  20.343   1.950   5.021
76105W        W47634  42.295  19.956   1.759
76106W        W47635  33.143  44.077   4.087
76107W        W47636  21.757  17.539  12.238
76108W        W47637  32.796  25.942   9.593
76109W        W47638  27.247  22.190   3.676
76110W        W47639  33.094  27.392   2.673
76111W        W47640  23.050   2.349  12.390
76112W        W47641  17.164  23.574   0.350
76113W        W47642  27.399   3.821  10.615
76114W        W47643  42.053  18.830   2.173
76115W        W47644  12.267   1.476   1.817
76116W        W47645  32.093  26.693  10.775
76117W        W47646  40.203   1.460  12.382
76118W        W47647  20.724  16.911   3.848
76119W        W47648  38.948   7.883  10.558
76120W        W47649  17.128  34.995   4.028
76121W        W47650  14.280   1.093   2.385
76122W        W47651  41.057  44.607   0.996
76123W        W47652  39.900  25.472  13.429
76124W        W47653   9.707  30.792   2.909
76125W        W47654   5.366  34.073   0.994
76126W        W47655  29.595  11.589  10.333
76127W        W47656  31.064  11.852  11.965
76128W        W47657  24.108  11.360   3.893
76129W        W47658  42.467   0.572  12.985
76130W        W47659   4.445  29.127  11.078
76131W        W47660  33.360  29.110  10.788
76132W        W47661  16.707  19.066  12.904
76133W        W47662   8.759   7.905   1.511
76134W        W47663  18.256  28.189   4.182
76135W        W47664  36.623  37.580  14.039
76136W        W47665  32.990  21.200  10.778
76137W        W47666  31.663   1.895  10.691
76138W        W47667  33.890   1.089   2.297
76139W        W47668  22.936  25.668   3.712
76140W        W47669  20.573   2.814   1.161
76141W        W47670  34.013   8.600   3.648
76142W        W47671   2.529  33.096  11.601
76143W        W47672  11.314  41.109  11.454
76144W        W47673  39.113  17.673   0.477
76145W        W47674  19.187   2.866  11.679
76146W        W47675  34.973  35.967  12.908
76147W        W47676  32.918   9.986   0.032
76148W        W47677   9.403  18.791  13.986
76149W        W47678  30.413  23.578   1.707
76150W        W47679   0.473  12.266  11.077
76151W        W47680  11.398  27.091  10.620
76152W        W47681  19.233  43.926  13.443
76153W        W47682   4.492  25.543   4.634
76154W        W47683  24.948  13.239   1.440
76155W        W47684  24.579  17.815   3.269
76156W        W47685  42.780   8.592   3.985
76157W        W47686  36.054  14.889   3.356
76158W        W47687  23.097   0.768   2.825
76159W        W47688  29.017  36.578   4.177
76160W        W47689  40.264  38.104  14.955
76161W        W47690  21.814   7.303  14.804
76162W        W47691   1.798  13.713   1.904
76163W        W47692  36.258  20.112  14.813
76164W        W47693  29.880  44.538  14.192
76165W        W47694  37.971  17.109  12.010
76166W        W47695   5.698  13.608  14.318
76167W        W47696  35.613  32.417   1.019
76168W        W47697   9.629  27.818  13.957
76169W        W47698  11.761   3.683  14.464
76170W        W47699  37.542   3.923  14.863
76171W        W47700  26.026  24.048   4.334
76172W        W47701  24.191  16.630  10.391
76173W        W47702  27.120   2.890   4.990
76174W        W47703   1.700  26.582  14.588
76175W        W47704  14.129   2.431   3.671
76176W        W47705  35.083  34.507   0.150
76177W        W47706   7.261  25.443   3.209
76178W        W47707  39.946  25.555   4.695
76179W        W47708   1.485  22.676  13.349
76180W        W47709  36.953  35.768  12.413
76181W        W47710  32.924  35.050   2.697
76182W        W47711  37.590  14.185   4.118
76183W        W47712  22.496  16.731   2.422
76184W        W47713  27.614  29.121  13.344
76185W        W47714   7.335  31.940  12.466
76186W        W47715  28.515  28.958   1.657
76187W        W47716  29.529  14.537   0.216
76188W        W47717  34.144  17.989   4.145
76189W        W47718  12.674  20.057   3.655
76190W        W47719  22.620  16.843   3.313
76191W        W47720   1.702   3.483   2.275
76192W        W47721  17.160  44.545  10.133
76193W        W47722  32.159  19.067   3.304
76194W        W47723   8.642   6.206   2.116
76195W        W47724  37.437   7.873  12.931
76196W        W47725  16.865  40.944   3.622
76197W        W47726  30.424  15.239  14.498
76198W        W47727  33.414  40.543   4.722
76199W        W47728  44.236  35.835   1.182
76200W        W47729  31.205  23.086   3.744
76201W        W47730  38.575  28.407   1.679
76202W        W47731   6.841  26.681   3.178
76203W        W47732  22.463  26.080   2.165
76204W        W47733  41.601  29.112   1.217
76205W        W47734  41.819  35.328  14.852
76206W        W47735  35.807  36.071  11.548
76207W        W47736  43.213  24.686   4.021
76208W        W47737  41.839  37.365  12.806
76209W        W47738  32.834  15.613   4.891
76210W        W47739   8.957  22.605   2.744
76211W        W47740  32.410  36.348  10.695
76212W        W47741  14.618  40.484  10.876
76213W        W47742  26.558   5.443   2.890
76214W        W47743   0.355  18.092   0.103
76215W        W47744  18.348   0.893  13.857
76216W        W47745  26.421  31.846   5.047
76217W        W47746  26.934  30.389  14.475
76218W        W47747  41.442  17.686  12.460
76219W        W47748  12.803  33.712  11.724
76220W        W47749   5.034   8.681   0.425
76221W        W47750   8.224   2.611   1.158
76222W        W47751   1.868  16.845   4.152
76223W        W47752  42.745  31.739   3.210
76224W        W47753  40.363  21.794   3.756
76225W        W47754  12.800  18.164   2.663
76226W        W47755   9.255  19.041   2.447
76227W        W47756   5.881  30.517  10.785
76228W        W47757  15.844  20.493  11.162
76229W        W47758  40.844  19.757   3.262
76230W        W47759  18.294  15.130  12.861
76231W        W47760  38.857  24.430   3.258
76232W        W47761   0.709  44.033   4.125
76233W        W47762  20.610  30.589  14.467
76234W        W47763  16.671   3.062  14.069
76235W        W47764  43.060  14.236   4.638
76236W        W47765   8.242  19.087  12.145
76237W        W47766  24.139   7.112   3.004
76238W        W47767  40.773   6.759  12.593
76239W        W47768   8.165  24.439   4.100
76240W        W47769  20.197  21.398  13.752
76241W        W47770  21.701   5.715   2.788
76242W        W47771  13.769  42.018  11.174
76243W        W47772  13.009   6.602  14.896
76244W        W47773   6.013  30.568   0.908
76245W        W47774   9.166  38.465  11.738
76246W        W47775   9.243  31.674   0.007
76247W        W47776  21.473  40.466  12.953
76248W        W47777  34.962   0.868   2.258
76249W        W47778  22.003  26.766  11.583
76250W        W47779  27.192  13.388   0.233
76251W        W47780  35.292  37.087   1.182
76252W        W47781  41.911   5.650   3.703
76253W        W47782  26.022  39.333  14.053
76254W        W47783   9.175  21.733   3.062
76255W        W47784   4.834   9.855  11.674
76256W        W47785   2.848   0.764   2.449
76257W        W47786  15.870  40.723   0.232
76258W        W47787  21.840   2.221  13.303
76259W        W47788  42.289  34.989   0.270
76260W        W47789  14.252  34.472  12.320
76261W        W47790  10.235  39.819  11.252
76262W        W47791  32.642  12.598   1.077
76263W        W47792  33.892  30.372  12.618
76264W        W47793  23.297  26.412   1.217
76265W        W47794  41.946  23.607  11.686
76266W        W47795  22.658  27.914  13.912
76267W        W47796  34.018  31.250   1.272
76268W        W47797   2.373  44.977  10.536
76269W        W47798  10.313  28.129  14.900
76270W        W47799  36.898  13.797   3.585
76271W        W47800  31.625  28.451   2.195
76272W        W47801  19.125  23.162   3.928
76273W        W47802  15.718  39.181   0.794
76274W        W47803  19.330  15.204   4.627
76275W        W47804  42.804  11.685   0.750
76276W        W47805  34.958  24.743  11.804
76277W        W47806  17.704  31.364  10.619
76278W        W47807  26.125   7.084  11.474
76279W        W47808  30.472   0.456  12.119
76280W        W47809  36.623   5.252   2.718
76281W        W47810  29.210  14.354   3.286
76282W        W47811   5.332   4.810   3.353
76283W        W47812  39.965  44.341   3.740
76284W        W47813  33.111  32.034   1.778
76285W        W47814  44.314   6.262   3.830
76286W        W47815  29.907   1.488   3.214
76287W        W47816  44.186   1.385   0.182
76288W        W47817  40.609  44.346  10.676
76289W        W47818  31.496  23.132   0.775
76290W        W47819  21.156  11.262  13.298
76291W        W47820  36.119   6.301  13.316
76292W        W47821  15.845  43.442  12.526
76293W        W47822   4.569   2.018  13.934
76294W        W47823  35.106   8.895   0.196
76295W        W47824  28.602   3.213  10.827
76296W        W47825  15.612  41.267  14.323
76297W        W47826  18.836  42.673  10.052
76298W        W47827  29.014  30.525   2.369
76299W        W47828  24.533  42.225   1.792
76300W        W47829   8.882  30.756  13.515
76301W        W47830   2.395  32.219   0.481
76302W        W47831  34.471  11.392   3.933
76303W        W47832  36.548   6.349   2.290
76304W        W47833  16.902  31.202   0.561
76305W        W47834   6.391  25.674   4.043
76306W        W47835  40.285   5.966  13.046
76307W        W47836  24.200   2.285   2.267
76308W        W47837  44.776  11.847  13.465
76309W        W47838  41.770   2.232   1.599
76310W        W47839  41.112  24.095  10.766
76311W        W47840   3.415  29.906   4.216
76312W        W47841  12.247  16.824  12.947
76313W        W47842  39.276   6.714   4.596
76314W        W47843  15.254  37.919  10.354
76315W        W47844  26.879  10.094   0.000
76316W        W47845  19.980  41.547  11.030
76317W        W47846   9.713  17.569   4.168
76318W        W47847   4.311  37.407  11.982
76319W        W47848  40.527  37.961   4.936
76320W        W47849   4.487   9.336   2.366
76321W        W47850  36.001  32.632  12.427
76322W        W47851  11.858  17.282  14.532
76323W        W47852  19.578  19.300   1.871
76324W        W47853  38.430  26.068  12.155
76325W        W47854  27.175  37.015   4.811
76326W        W47855   8.477  34.205  12.859
76327W        W47856  37.423  15.709   5.051
76328W        W47857  39.430  16.126  14.748
76329W        W47858  31.456  14.409  13.435
76330W        W47859  22.216  14.412   4.111
76331W        W47860   8.858  34.522   0.849
76332W        W47861  34.385   3.969   3.759
76333W        W47862  10.118  34.016   2.656
76334W        W47863  14.883   2.732  13.489
76335W        W47864   0.957  15.101  11.235
76336W        W47865  37.070  24.719   2.337
76337W        W47866   7.701  42.504   0.859
76338W        W47867  22.578   6.625  14.265
76339W        W47868  14.822  17.831   4.026
76340W        W47869  25.277  39.840   4.426
76341W        W47870   7.591  43.765   0.262
76342W        W47871   9.112  42.247   1.779
76343W        W47872  18.023   6.088  12.854
76344W        W47873  31.887  13.095  12.121
76345W        W47874  39.568  31.189  12.197
76346W        W47875  14.587   0.210   2.253
76347W        W47876   7.341  18.547  11.429
76348W        W47877  35.022  32.422  12.320
76349W        W47878   9.381  14.279  12.441
76350W        W47879  38.019  18.848   0.241
76351W        W47880  27.574  34.399   0.416
76352W        W47881   0.661  25.713  14.552
76353W        W47882  25.173  20.760   2.285
76354W        W47883  18.713  33.068  14.215
76355W        W47884  18.001  27.089   3.618
76356W        W47885  16.174  27.080  11.474
76357W        W47886  34.179  17.043  12.713
76358W        W47887  28.107   4.044  12.420
76359W        W47888  17.593   3.384   1.161
76360W        W47889  10.642  24.068  11.743
76361W        W47890  17.595   1.401   0.818
76362W        W47891  10.501  31.717   3.611
76363W        W47892  41.494  39.567   4.757
76364W        W47893  39.960   6.205   4.602
76365W        W47894  21.199   2.699   2.322
76366W        W47895  30.617   9.199   0.984
76367W        W47896  31.763  28.421  13.017
76368W        W47897   9.197  43.831  12.662
76369W        W47898  10.224   1.229  11.546
76370W        W47899  30.778  35.487   2.381
76371W        W47900  36.846   1.512   2.850
76372W        W47901  13.173  36.139   4.640
76373W        W47902  29.066  43.511  11.125
76374W        W47903  41.955  23.314  13.921
76375W        W47904  10.896  26.510   0.478
76376W        W47905   6.843  34.415   1.689
76377W        W47906  16.916  24.195   3.606
76378W        W47907  41.439   8.195   3.036
76379W        W47908  12.912   8.446  10.687
76380W        W47909   7.377  15.152  12.629
76381W        W47910  35.532   9.103  11.746
76382W        W47911   5.124  12.042   3.553
76383W        W47912  40.311  21.512  11.630
76384W        W47913  12.445  25.741   4.783
76385W        W47914  43.166  19.770   1.421
76386W        W47915   2.317   3.713  10.899
76387W        W47916  29.414   9.757  14.340
76388W        W47917  33.913  25.343   3.202
76389W        W47918  23.348  27.692  13.220
76390W        W47919   9.902   6.306  10.690
76391W        W47920  20.132  18.562   4.131
76392W        W47921   1.873   7.328   4.524
76393W        W47922  38.330   3.527  11.124
76394W        W47923  44.733   6.464  11.602
76395W        W47924  17.171  23.618  10.214
76396W        W47925  41.390   2.143   0.129
76397W        W47926  18.232   0.366  12.617
76398W        W47927  39.749  34.078  14.494
76399W        W47928  44.935   0.366   4.649
76400W        W47929  32.949   4.199   0.521
76401W        W47930  19.389  21.409  10.140
76402W        W47931  13.114  15.257  10.990
76403W        W47932  15.893  19.801  11.944
76404W        W47933  32.925  25.219   1.196
76405W        W47934  44.288   2.228  12.403
76406W        W47935  25.595  13.284   0.934
76407W        W47936  38.145  15.531  13.489
76408W        W47937  18.672  13.196  11.638
76409W        W47938   2.095  36.388   4.932
76410W        W47939  29.555  15.078   0.781
76411W        W47940  36.484  19.876   0.491
76412W        W47941  21.993  29.859   1.067
76413W        W47942  25.259  39.943  13.268
76414W        W47943  14.804  14.537  13.901
76415W        W47944   8.281  44.133   4.107
76416W        W47945  38.872   8.821  12.877
76417W        W47946  20.848  35.853  12.684
76418W        W47947  34.600   7.473  12.087
76419W        W47948  11.760  21.785   2.202
76420W        W47949  32.209  38.128   2.257
76421W        W47950  18.773  39.530   2.598
76422W        W47951   2.498   1.285  11.199
76423W        W47952  19.315  39.110  11.493
76424W        W47953  39.096  32.828  14.806
76425W        W47954  12.270  32.884   4.174
76426W        W47955  39.452  13.012  13.486
76427W        W47956  17.190   6.368  11.598
76428W        W47957  12.565  36.716   0.435
76429W        W47958  36.616   1.177  14.814
76430W        W47959  36.292  34.255   2.078
76431W        W47960  16.107  12.019   0.849
76432W        W47961  21.677   1.541   3.667
76433W        W47962  38.934  39.328   0.196
76434W        W47963  42.400  33.103   1.263
76435W        W47964  36.410  25.665  11.291
76436W        W47965   2.710  33.642   1.376
76437W        W47966   6.183   5.912   4.632
76438W        W47967  13.742  23.450  11.215
76439W        W47968  24.718  15.140   4.306
76440W        W47969  22.312   5.481   0.083
76441W        W47970   6.795  36.075  12.698
76442W        W47971  41.801  28.589   2.782
76443W        W47972  35.775   3.532   1.746
76444W        W47973  33.607   9.313   1.713
76445W        W47974  38.616  39.456  13.442
76446W        W47975  36.838  43.289  10.873
76447W        W47976  39.498  20.038   3.769
76448W        W47977   3.512  20.831  13.568
76449W        W47978   9.781  39.500   2.644
76450W        W47979   1.168  29.570  13.962
76451W        W47980   6.399  35.300   4.651
76452W        W47981   6.000  27.548  12.593
76453W        W47982  40.074  13.052  14.392
76454W        W47983  22.638  28.765  14.545
76455W        W47984   0.550   8.287  12.105
76456W        W47985  37.568   9.847  13.456
76457W        W47986  38.513   2.946   2.941
76458W        W47987   6.414  25.566   0.654
76459W        W47988   5.203  29.126   3.060
76460W        W47989  34.065  19.287   0.503
76461W        W47990  11.207  18.646  14.989
76462W        W47991   7.465  42.896  12.958
76463W        W47992  37.118  23.073   2.214
76464W        W47993  30.942   2.952   0.450
76465W        W47994  28.285  25.084  12.976
76466W        W47995  36.130  42.245   2.703
76467W        W47996  42.869  39.226  12.272
76468W        W47997   9.790  17.549   0.715
76469W        W47998  29.650  43.790  14.402
76470W        W47999   7.512  39.471   0.996
76471W        W48000  19.518   4.894  12.522
76472W        W48001  17.536  44.717   4.239
76473W        W48002  31.830  17.337  13.927
76474W        W48003  10.390  39.872  13.589
76475W        W48004  14.216   4.710   2.428
76476W        W48005  10.144   6.919   3.265
76477W        W48006  26.703  16.782   4.110
76478W        W48007   9.770  29.462   2.660
76479W        W48008  17.458  43.782   4.544
76480W        W48009   8.593  39.438   4.538
76481W        W48010  16.477  29.542  14.789
76482W        W48011  14.374  20.810   2.192
76483W        W48012   1.371  38.080   2.575
76484W        W48013   1.325  30.318   1.826
76485W        W48014  26.677  13.139   2.215
76486W        W48015   1.772  28.147  10.685
76487W        W48016  36.065  10.390  11.635
76488W        W48017  27.209  35.488  13.558
76489W        W48018  31.347  17.199  13.570
76490W        W48019  18.104  41.111  11.052
76491W        W48020  21.388  11.871   2.696
76492W        W48021  43.776   1.354  12.494
76493W        W48022  24.881  13.382   2.267
76494W        W48023  36.317  10.590  14.357
76495W        W48024  10.403  21.585   0.613
76496W        W48025  39.160  25.476  12.304
76497W        W48026  31.038  37.024  13.286
76498W        W48027  29.403  21.736   3.851
76499W        W48028  35.539  34.403  12.473
76500W        W48029   2.996   7.206   1.838
76501W        W48030  27.071   8.355  10.694
76502W        W48031  30.522   7.662  13.795
76503W        W48032  15.967  17.935   1.119
76504W        W48033  27.002  22.675   3.732
76505W        W48034  24.175   7.328  14.021
76506W        W48035  39.300  12.076   0.811
76507W        W48036  35.030  15.092  13.018
76508W        W48037  12.037  10.919   3.226
76509W        W48038   6.232   7.147  12.959
76510W        W48039  39.089   2.285  12.583
76511W        W48040  23.482  14.845  12.192
76512W        W48041  32.262  15.582  14.396
76513W        W48042  42.725  36.870   1.419
76514W        W48043  27.606  44.905  14.489
76515W        W48044  34.090  29.548   3.271
76516W        W48045  41.045  14.609  12.669
76517W        W48046   4.423  12.856   0.448
76518W        W48047  44.520  19.362  10.572
76519W        W48048  20.292  28.185   4.579
76520W        W48049  29.461  34.260   2.387
76521W        W48050  27.836   0.796  11.441
76522W        W48051  33.795  24.924   0.623
76523W        W48052  38.106  34.415  10.714
76524W        W48053  27.530  27.870  13.860
76525W        W48054  42.542  21.024  11.091
76526W        W48055  25.607   8.201   4.609
76527W        W48056  41.046  26.789  12.385
76528W        W48057   4.473  18.610   0.467
76529W        W48058   8.849  19.492  14.408
76530W        W48059  23.077  21.040  10.567
76531W        W48060   5.660  25.639  12.571
76532W        W48061  14.791   6.698  11.179
76533W        W48062  10.485  20.706  12.360
76534W        W48063  31.884  35.846  10.659
76535W        W48064  20.608  38.353   4.141
76536W        W48065  28.725   5.891  14.978
76537W        W48066   1.689  18.972  11.640
76538W        W48067  40.161   0.393   4.343
76539W        W48068  27.079   5.153   1.727
76540W        W48069  33.362   0.231  13.095
76541W        W48070  40.948  15.041  10.551
76542W        W48071  44.077  10.756   3.758
76543W        W48072  43.833  22.987  12.522
76544W        W48073  12.809   3.700   3.654
76545W        W48074   5.800  33.732   4.925
76546W        W48075   5.791  27.933  13.390
76547W        W48076  41.892  10.633  14.047
76548W        W48077  16.512  17.444  14.572
76549W        W48078  43.028  11.126   4.211
76550W        W48079   3.418  17.336   0.009
76551W        W48080  10.314   5.367   0.326
76552W        W48081  36.050  31.647  12.248
76553W        W48082   7.813  19.135   1.290
76554W        W48083   6.332  43.350  13.800
76555W        W48084   1.807   2.885  11.280
76556W        W48085  36.278  28.454   1.906
76557W        W48086  21.628  22.923   4.002
76558W        W48087  31.624  24.908  12.122
76559W        W48088  43.507   2.917  14.475
76560W        W48089  11.086  40.408   0.356
76561W        W48090  43.877  14.057  10.573
76562W        W48091  43.741  35.174   0.354
76563W        W48092  31.797  19.722   2.716
76564W        W48093   4.711   3.411  12.596
76565W        W48094  10.830  30.405  14.388
76566W        W48095  31.885  18.592   0.512
76567W        W48096  22.543  14.776  13.603
76568W        W48097  19.746  44.352   1.435
76569W        W48098   7.841  22.746  11.847
76570W        W48099  10.959  18.739  10.543
76571W        W48100   6.803  32.433   4.389
76572W        W48101  28.164  40.216   0.373
76573W        W48102   7.280  21.109   2.647
76574W        W48103  11.245   5.192   2.229
76575W        W48104  15.996  38.458   3.621
76576W        W48105  17.411  25.208  13.026
76577W        W48106  34.887  14.349   0.768
76578W        W48107  18.584  30.428  13.510
76579W        W48108   9.938  40.542  12.635
76580W        W48109   4.749   4.453  11.724
76581W        W48110  10.801   3.872  13.053
76582W        W48111   8.915   2.967   3.364
76583W        W48112  19.206  19.757   3.739
76584W        W48113   9.726  43.415   2.268
76585W        W48114  30.358  19.499   0.870
76586W        W48115  21.601  26.648   2.751
76587W        W48116  24.389  11.297   3.442
76588W        W48117  29.088  31.495   2.975
76589W        W48118  19.594  42.436  12.558
76590W        W48119   3.967  39.017   3.580
76591W        W48120  16.073  37.754   1.621
76592W        W48121  35.342  12.150   1.249
76593W        W48122  16.704   7.859   0.045
76594W        W48123  15.857   9.207  12.704
76595W        W48124   2.012  20.639   3.227
76596W        W48125  28.782  15.660  13.653
76597W        W48126  40.432  40.436   1.425
76598W        W48127  24.254  28.667  14.745
76599W        W48128  19.475  15.616   2.328
76600W        W48129  33.807  38.011   3.179
76601W        W48130   7.278   5.559   1.475
76602W        W48131  14.862  44.268  12.153
76603W        W48132  29.670   6.366   2.397
76604W        W48133  40.224   9.860   3.694
76605W        W48134   5.307  25.385  13.474
76606W        W48135  36.467  27.176  14.452
76607W        W48136   6.135  42.468   0.819
76608W        W48137  40.482   6.143   3.389
76609W        W48138  12.523  17.037  12.509
76610W        W48139  14.552  44.832   1.850
76611W        W48140  26.463  38.870  13.807
76612W        W48141   4.898  22.514  10.611
76613W        W48142  13.061   6.507  11.414
76614W        W48143  30.587  42.144  11.478
76615W        W48144  40.158  39.782   3.659
76616W        W48145  15.527  39.309   1.973
76617W        W48146  12.207  44.001  14.508
76618W        W48147   9.864  30.541   2.077
76619W        W48148  40.988  25.079   2.349
76620W        W48149  24.954  21.140   0.223
76621W        W48150  30.498  42.994   4.860
76622W        W48151  43.811  35.554   0.831
76623W        W48152  26.340  34.538  14.684
76624W        W48153  16.347  17.045   2.349
76625W        W48154   4.762  36.546   4.528
76626W        W48155  34.821  28.358  12.974
76627W        W48156  11.668  40.836  13.400
76628W        W48157  29.236   6.690   4.890
76629W        W48158  38.415  10.293  12.674
76630W        W48159  40.367  41.440   3.224
76631W        W48160  29.069  37.982   4.269
76632W        W48161   1.248   7.233   1.387
76633W        W48162  15.134  24.437   1.968
76634W        W48163  14.638  26.054  14.243
76635W        W48164   3.709  26.522  12.990
76636W        W48165  30.669  43.794  12.406
76637W        W48166   9.146   5.456  12.856
76638W        W48167   4.789  13.342   1.192
76639W        W48168  30.805  26.163   1.385
76640W        W48169   2.302  10.719  11.084
76641W        W48170  44.303  32.390   3.222
76642W        W48171   8.290  33.038   4.734
76643W        W48172  43.031  31.242  14.830
76644W        W48173   9.842  22.216  11.385
76645W        W48174  39.073  39.258  13.530
76646W        W48175  19.220   2.839   0.990
76647W        W48176  30.965  40.123  14.326
76648W        W48177   3.149   5.328  13.146
76649W        W48178  26.191  34.281  12.504
76650W        W48179  36.315   9.953  11.528
76651W        W48180   9.177  38.904  12.081
76652W        W48181   4.282  33.217   4.680
76653W        W48182  15.410  24.167  13.941
76654W        W48183   5.488   2.595   2.210
76655W        W48184  20.944  31.926   1.425
76656W        W48185  42.417   6.197  13.358
76657W        W48186  40.827  23.120  10.697
76658W        W48187   7.323  22.253   2.222
76659W        W48188  21.634  37.874  13.309
76660W        W48189  43.413  42.060   2.624
76661W        W48190  34.892  29.919  12.881
76662W        W48191  21.351  22.624  13.920
76663W        W48192  39.123   8.678  11.082
76664W        W48193  13.155  21.064  11.115
76665W        W48194  37.333  20.096  12.563
76666W        W48195   6.066  14.806   1.012
76667W        W48196  12.845  42.068  11.711
76668W        W48197  36.559  29.922  11.708
76669W        W48198  36.774  43.596   0.536
76670W        W48199  18.731   9.508   5.111
76671W        W48200  41.801   2.004   4.130
76672W        W48201   2.444  23.559   2.687
76673W        W48202  25.029  37.504  14.407
76674W        W48203   6.654  41.352  14.256
76675W        W48204  26.189  20.045   0.421
76676W        W48205   3.052  38.399   2.244
76677W        W48206   3.900  33.108  13.799
76678W        W48207  44.024  20.348  12.688
76679W        W48208   7.143  21.444   4.618
76680W        W48209   8.040   4.389  10.394
76681W        W48210  13.326  22.944  10.737
76682W        W48211  25.685  20.264   0.396
76683W        W48212  43.698  10.273   3.623
76684W        W48213   5.708  12.334   0.473
76685W        W48214   4.158  33.592  13.908
76686W        W48215  36.428  16.266   4.518
76687W        W48216  40.528  38.371  13.963
76688W        W48217  41.213  14.798  14.159
76689W        W48218  17.896  41.570   0.718
76690W        W48219  43.529  38.013  14.566
76691W        W48220  21.001  11.697   4.110
76692W        W48221  44.340  27.917  13.026
76693W        W48222  35.877  38.383  14.027
76694W        W48223   9.415  18.016  14.869
76695W        W48224   5.484  33.536   2.445
76696W        W48225   0.029  33.541   2.842
76697W        W48226   2.503   2.493  12.671
76698W        W48227  34.091  33.075  12.050
76699W        W48228   7.792  30.006   0.149
76700W        W48229  13.197  18.798  13.819
76701W        W48230   7.705   3.792   3.747
76702W        W48231  42.997  35.970  13.251
76703W        W48232  35.972  20.488   4.752
76704W        W48233   9.811  31.409   0.705
76705W        W48234  23.208   4.384   3.704
76706W        W48235  25.701  23.007  14.848
76707W        W48236  10.164  18.033  10.647
76708W        W48237  20.478  44.999  11.232
76709W        W48238  13.114  23.748   4.118
76710W        W48239  28.142  23.787   3.291
76711W        W48240  28.613  42.965  11.768
76712W        W48241  30.979   2.966   1.396
76713W        W48242   5.882  29.974  12.419
76714W        W48243   4.983  32.422  13.142
76715W        W48244  19.028  15.591  10.715
76716W        W48245  28.983   9.771  11.531
76717W        W48246  40.256  44.863   1.379
76718W        W48247  12.595   4.230   4.481
76719W        W48248  27.647  36.968  14.764
76720W        W48249  33.493  15.110   4.818
76721W        W48250  31.113   7.855   0.390
76722W        W48251  28.018  29.798  10.359
76723W        W48252  15.810   8.224   3.083
76724W        W48253  31.016  25.582   3.789
76725W        W48254   8.776   5.710   1.965
76726W        W48255  23.616   0.714  13.047
76727W        W48256  32.407  21.281  12.978
76728W        W48257  39.253  25.576  11.817
76729W        W48258  40.788  43.294   2.320
76730W        W48259  21.681   9.170   3.730
76731W        W48260  14.854  41.496  13.860
76732W        W48261  21.738   8.977   5.002
76733W        W48262  25.188  32.031   0.173
76734W        W48263  27.996   4.756  11.115
76735W        W48264  43.058  24.709  10.536
76736W        W48265  21.029  13.046   4.640
76737W        W48266  28.879  29.716  13.437
76738W        W48267  28.671   7.210   1.172
76739W        W48268  13.568   5.676  12.910
76740W        W48269  44.391  25.785  14.907
76741W        W48270  24.639  37.050   3.703
76742W        W48271  13.211  41.630  13.296
76743W        W48272  27.463   7.157  12.059
76744W        W48273   4.778  44.840   1.719
76745W        W48274  40.030  32.080  14.506
76746W        W48275  11.166  16.917  14.977
76747W        W48276  40.245  16.679  10.743
76748W        W48277  28.840   3.978  10.541
76749W        W48278  30.607  35.299  13.848
76750W        W48279   6.878  13.082  13.377
76751W        W48280  28.366  29.236  12.809
76752W        W48281  11.605   0.865   2.539
76753W        W48282   6.014   4.000   3.409
76754W        W48283  31.142  32.086   1.812
76755W        W48284  29.180  39.522  14.945
76756W        W48285   1.343  40.605   2.190
76757W        W48286  34.673   1.732  12.075
76758W        W48287  27.503  43.678  13.268
76759W        W48288  15.601   6.213   2.202
76760W        W48289  44.796  31.449   4.066
76761W        W48290  23.663   2.010   4.799
76762W        W48291  35.725  27.059  12.465
76763W        W48292  23.293  23.673  14.346
76764W        W48293  28.555  34.643   0.475
76765W        W48294  23.240  31.493  13.077
76766W        W48295  32.533  25.016   1.945
76767W        W48296  43.350  43.344   4.636
76768W        W48297  12.609   6.273   3.108
76769W        W48298  11.590  12.349   1.882
76770W        W48299   8.264  27.076  12.030
76771W        W48300   8.695  39.061  14.851
76772W        W48301  10.596  13.971   1.721
76773W        W48302  18.115  34.963   2.057
76774W        W48303  33.440  42.834  10.609
76775W        W48304  36.136  42.869  11.576
76776W        W48305   1.643  23.477   4.343
76777W        W48306  33.022   4.277   4.745
76778W        W48307  39.319  32.401   4.117
76779W        W48308  19.195  24.086   2.237
76780W        W48309  33.123   3.393  13.899
76781W        W48310   5.194   5.253   1.380
76782W        W48311  10.773  18.263   1.958
76783W        W48312  27.684   4.811   0.884
76784W        W48313  10.809  37.093   1.461
76785W        W48314   0.309  13.195  12.852
76786W        W48315  39.210   1.710  12.496
76787W        W48316  38.822  16.542  11.062
76788W        W48317   5.928  39.956   3.806
76789W        W48318  32.373  27.131  10.742
76790W        W48319   2.919   1.641   0.924
76791W        W48320  33.616  35.569  10.295
76792W        W48321   4.174  12.647  10.737
76793W        W48322  38.466   8.905   3.519
76794W        W48323  11.712  13.665   0.079
76795W        W48324  13.284  12.280  13.442
76796W        W48325  20.717  42.071   4.579
76797W        W48326  14.093  10.433   4.115
76798W        W48327  17.327   9.434  10.863
76799W        W48328  37.106   2.865  11.050
76800W        W48329   8.150   5.938  10.492
76801W        W48330  32.984  23.429  12.586
76802W        W48331  22.175  25.894   4.979
76803W        W48332  35.663  42.375  12.515
76804W        W48333  40.777  14.228  13.516
76805W        W48334  14.184  40.411   1.734
76806W        W48335  33.975  27.674   1.450
76807W        W48336  43.594  38.338   0.871
76808W        W48337   6.107   6.823   3.491
76809W        W48338  33.914  22.379  10.766
76810W        W48339  28.838  23.452  13.198
76811W        W48340  44.852  19.668  10.833
76812W        W48341  23.985  38.122  13.814
76813W        W48342  14.733  37.854   2.824
76814W        W48343   8.954  39.985  14.411
76815W        W48344   9.381  32.862   3.197
76816W        W48345  12.497  12.845  11.892
76817W        W48346   5.789  30.176  14.955
76818W        W48347  27.386  35.075  11.169
76819W        W48348  22.997  37.278   4.994
76820W        W48349  39.375  20.727  14.834
76821W        W48350  24.020   5.026  12.683
76822W        W48351  44.721   6.808   4.748
76823W        W48352  20.377   3.587  13.964
76824W        W48353  30.540   6.400  14.814
76825W        W48354  13.300  34.611  13.415
76826W        W48355   1.408  24.586  14.536
76827W        W48356  37.429  36.964   1.425
76828W        W48357  21.934  30.302   2.736
76829W        W48358  26.135   0.074  14.740
76830W        W48359  14.286  42.695  13.758
76831W        W48360  35.385  37.297   2.662
76832W        W48361  28.007   8.240   4.380
76833W        W48362  36.087  23.737   3.194
76834W        W48363  39.678  14.048  12.375
76835W        W48364   7.883  34.540  14.308
76836W        W48365  19.474  17.680  13.002
76837W        W48366  44.968  14.197   4.930
76838W        W48367  21.123  33.826   2.761
76839W        W48368   0.457  32.984   2.775
76840W        W48369  21.870  38.616   0.179
76841W        W48370   7.836  28.076  13.856
76842W        W48371  14.744  36.037  13.040
76843W        W48372  24.533  27.865   4.622
76844W        W48373  27.035  40.001  14.552
76845W        W48374   5.895  38.828  14.908
76846W        W48375  26.844  32.352   2.380
76847W        W48376  10.122   5.204  14.877
76848W        W48377  28.465  25.633   4.926
76849W        W48378  27.662  28.426   2.975
76850W        W48379  39.614  16.493   0.902
76851W        W48380  34.558  38.373   4.970
76852W        W48381   3.175  12.031   0.362
76853W        W48382  31.484  10.118   1.721
76854W        W48383   8.088   9.853  14.786
76855W        W48384  34.009  14.191  13.390
76856W        W48385  23.539  31.358   3.628
76857W        W48386  24.722  24.662  12.920
76858W        W48387   2.412  19.685   3.170
76859W        W48388  18.592  26.957  12.479
76860W        W48389  21.493  15.166   2.397
76861W        W48390  37.179  21.112  14.536
76862W        W48391  13.726  26.167   4.110
76863W        W48392   7.548  15.539  14.803
76864W        W48393  44.734   8.239   3.354
76865W        W48394  21.869  35.964   4.016
76866W        W48395  28.492   5.002   3.745
76867W        W48396  17.419  44.102   0.312
76868W        W48397  14.685  39.493  10.881
76869W        W48398   0.994  22.494  13.247
76870W        W48399  40.175  28.188  13.171
76871W        W48400   0.321  14.524  13.541
76872W        W48401  29.829  42.361   0.750
76873W        W48402  41.740  22.850   4.240
76874W        W48403   0.303  38.877  13.289
76875W        W48404   3.286  18.538   4.725
76876W        W48405  14.376  19.262  13.432
76877W        W48406   1.372  13.051   3.169
76878W        W48407  15.584  25.965  14.403
76879W        W48408  21.085  26.750  13.964
76880W        W48409  44.068  16.029  12.126
76881W        W48410  36.503   5.227   0.497
76882W        W48411  23.740   6.924   3.271
76883W        W48412  18.371  34.418  12.492
76884W        W48413   3.934  18.035  13.905
76885W        W48414   2.309   9.763   3.684
76886W        W48415  12.738  22.843  11.247
76887W        W48416   9.793  12.886   0.983
76888W        W48417   2.032  30.165  13.067
76889W        W48418  17.610  34.972  11.484
76890W        W48419   9.276  15.507  14.830
76891W        W48420  21.765  39.903  12.391
76892W        W48421   1.533  14.084  11.511
76893W        W48422  21.182  24.607   3.325
76894W        W48423  37.317   1.369   0.849
76895W        W48424   0.362  10.645  11.524
76896W        W48425  17.163   5.389  11.486
76897W        W48426  18.806  22.776   3.666
76898W        W48427   5.009  15.082   2.801
76899W        W48428  15.155  26.507  12.078
76900W        W48429  40.302  19.589   0.228
76901W        W48430   3.464  16.610   3.696
76902W        W48431   8.124  41.067  14.342
76903W        W48432  28.042  43.074  14.312
76904W        W48433  24.545  35.661   1.923
76905W        W48434  31.145  40.451   0.250
76906W        W48435  29.476  23.164   0.360
76907W        W48436  28.778  15.746   4.865
76908W        W48437  32.505  27.981   2.251
76909W        W48438  29.432  11.250  14.340
76910W        W48439   4.987  20.761  13.253
76911W        W48440  36.472   0.326  10.905
76912W        W48441   4.415  35.854  14.330
76913W        W48442  14.644  10.228   2.678
76914W        W48443   1.014   4.539  11.739
76915W        W48444  44.272  33.099  14.678
76916W        W48445  35.540  17.100   1.846
76917W        W48446  39.268  11.167  14.737
76918W        W48447  13.030   8.121  11.530
76919W        W48448  12.820   8.042   1.866
76920W        W48449  35.603   1.682   1.761
76921W        W48450  14.811  11.219  11.589
76922W        W48451  27.001  11.793  13.773
76923W        W48452  22.660  41.043   2.685
76924W        W48453  32.603  33.870  12.117
76925W        W48454  25.729  28.337   1.014
76926W        W48455   6.640   0.211   1.351
76927W        W48456  10.832  25.715   4.112
76928W        W48457  12.944  40.679  11.184
76929W        W48458  26.469  25.047   2.688
76930W        W48459  38.354   6.428   0.230
76931W        W48460   4.328  13.605  13.097
76932W        W48461  40.508   7.640  12.465
76933W        W48462  36.004  15.481  12.124
76934W        W48463  32.083  21.284   5.051
76935W        W48464  36.770  29.577  14.127
76936W        W48465  35.035  14.484   3.219
76937W        W48466   8.624  40.928   2.119
76938W        W48467  38.005  44.721  13.512
76939W        W48468  39.505  38.247  14.864
76940W        W48469  35.740   0.212   4.026
76941W        W48470  15.872   5.846  11.822
76942W        W48471  11.140  36.998   0.243
76943W        W48472  35.995  31.141   1.016
76944W        W48473  30.515  24.209   2.347
76945W        W48474  12.240  38.533  13.516
76946W        W48475  18.634  25.378  11.888
76947W        W48476  13.231  18.987  14.318
76948W        W48477  28.553  21.619  13.120
76949W        W48478   1.821  23.687   3.478
76950W        W48479  44.536   3.447  11.121
76951W        W48480   2.229  22.853   4.103
76952W        W48481   8.708  31.710   0.750
76953W        W48482  33.693  36.054   3.253
76954W        W48483   0.540  18.568   3.335
76955W        W48484  43.081   7.240   4.182
76956W        W48485  17.057  25.971   3.372
76957W        W48486  10.810  24.302   4.755
76958W        W48487   7.855  43.221  12.585
76959W        W48488  43.526  43.799   2.172
76960W        W48489  41.972   9.871   3.664
76961W        W48490  38.019  12.601  11.159
76962W        W48491   2.839  34.594  13.355
76963W        W48492  42.234  11.631  12.869
76964W        W48493  23.370  43.753   0.701
76965W        W48494  21.072  34.433  14.563
76966W        W48495  26.414  24.222   1.139
76967W        W48496   8.907  16.648  14.409
76968W        W48497  44.878  34.205   0.940
76969W        W48498   3.774  28.867  14.079
76970W        W48499  44.299  38.962  10.503
76971W        W48500  16.025  33.821   3.155
76972W        W48501  23.485   1.147  12.210
76973W        W48502  32.478  22.846   9.798
76974W        W48503  41.448  15.326  13.035
76975W        W48504   4.953  29.547   5.018
76976W        W48505  21.509   5.112  11.973
76977W        W48506  23.680  12.558   2.787
76978W        W48507   3.793   8.995   3.610
76979W        W48508  31.637  27.678   1.014
76980W        W48509  21.407   9.155   2.534
76981W        W48510  29.659  28.739   4.000
76982W        W48511  40.864   2.350   1.919
76983W        W48512  25.009  21.936  10.693
76984W        W48513  11.524  24.689   0.483
76985W        W48514   3.196  33.627  11.701
76986W        W48515  19.942  15.634  14.866
76987W        W48516  43.681   3.667   0.370
76988W        W48517  38.915  36.360   3.935
76989W        W48518  16.730  28.635  13.069
76990W        W48519  44.447  25.156   4.876
76991W        W48520  11.754  42.587   2.688
76992W        W48521  29.264  28.444   0.426
76993W        W48522  29.201  42.798   4.860
76994W        W48523   7.315  44.651   3.403
76995W        W48524  22.017  22.462  11.639
76996W        W48525  14.914  31.047  10.712
76997W        W48526  42.610   3.744  12.610
76998W        W48527   6.347   8.910  10.821
76999W        W48528  37.486  17.999   2.668
77000W        W48529  31.865   6.380  11.908
77001W        W48530  30.070  42.454   2.905
77002W        W48531  32.083  37.779   1.722
77003W        W48532  21.150  18.788  11.968
77004W        W48533   1.244  33.574  13.856
77005W        W48534  30.389  17.034  10.982
77006W        W48535  40.443  27.170   0.303
77007W        W48536  42.777  24.136   3.264
77008W        W48537  34.854  24.192  14.562
77009W        W48538  41.518   7.664   1.609
77010W        W48539  17.846  39.390  11.949
77011W        W48540  27.106  22.540  13.401
77012W        W48541  28.045  32.513   4.616
77013W        W48542  14.256   6.211  10.754
77014W        W48543  16.470  33.384  13.722
77015W        W48544  11.129  24.139   2.816
77016W        W48545   1.406  36.572  12.562
77017W        W48546  43.881   3.870  14.494
77018W        W48547   1.923   1.747  12.573
77019W        W48548  33.049  19.598  14.720
77020W        W48549  23.180   7.830   0.368
77021W        W48550   1.433   5.175  14.093
77022W        W48551  27.403   5.621   4.441
77023W        W48552   2.464  39.799  13.413
77024W        W48553  19.811   1.771  14.518
77025W        W48554  37.470  16.045   2.230
77026W        W48555  25.129   4.933  14.345
77027W        W48556  40.264  38.154   1.729
77028W        W48557   8.203   7.975  11.482
77029W        W48558   0.907  36.095  14.168
77030W        W48559  39.254  39.936  13.943
77031W        W48560   0.087  26.219   3.497
77032W        W48561   8.486   3.848  12.909
77033W        W48562  24.909  39.568   2.330
77034W        W48563  41.231  10.696   1.250
77035W        W48564  21.787  21.169  11.012
77036W        W48565  26.261  12.373  13.405
77037W        W48566  37.097  35.458  13.183
77038W        W48567  44.673   2.963  11.225
77039W        W48568  12.453  16.644   2.394
77040W        W48569  18.087  37.561   2.009
77041W        W48570  10.306   1.721  11.501
77042W        W48571  16.159   4.643   4.120
77043W        W48572  37.499  14.577   2.864
77044W        W48573  35.935  11.419  11.397
77045W        W48574  28.414  13.149  10.589
77046W        W48575  41.485  17.666   0.964
77047W        W48576  37.715  14.332  13.199
77048W        W48577  23.191  11.583  13.035
77049W        W48578   4.887   5.235  13.569
77050W        W48579  12.565  35.305   1.732
77051W        W48580  13.880  17.086   2.217
77052W        W48581  34.899  31.093  10.516
77053W        W48582   7.343   7.251   2.699
77054W        W48583   0.345  37.820  13.313
77055W        W48584  15.787  17.825   2.009
77056W        W48585  34.400  26.995   1.432
77057W        W48586   9.057   1.995  11.086
77058W        W48587   5.209  36.918   1.760
77059W        W48588  18.801   7.855  13.035
77060W        W48589  39.872  21.296  11.965
77061W        W48590  14.753  16.226   2.719
77062W        W48591  30.413   1.290   0.203
77063W        W48592  30.367  27.707   4.101
77064W        W48593   9.088  20.024  10.635
77065W        W48594  31.474   5.245   0.374
77066W        W48595  10.437  11.437  13.929
77067W        W48596  17.273  17.711  14.963
77068W        W48597   1.432  16.553  14.533
77069W        W48598  36.297  24.210   3.205
77070W        W48599  32.846  31.999  11.111
77071W        W48600  26.649  33.609  11.895
77072W        W48601  10.414  29.512   1.430
77073W        W48602  37.526  27.481  14.475
77074W        W48603   0.199   3.426  13.469
77075W        W48604  25.739  30.280  14.488
77076W        W48605  31.202  33.867   4.031
77077W        W48606  40.027  26.165  11.083
77078W        W48607  29.478  10.916  14.732
77079W        W48608  31.069   2.241   4.701
77080W        W48609  28.491  24.160   2.918
77081W        W48610  35.744   0.311   0.837
77082W        W48611  13.534  37.467   3.019
77083W        W48612  39.709  18.995  10.770
77084W        W48613  28.141  37.943   4.969
77085W        W48614  43.843  14.369  14.335
77086W        W48615  34.673  30.911   3.713
77087W        W48616   7.440   1.672   2.451
77088W        W48617  41.023  42.576  11.112
77089W        W48618  27.644  30.908  10.615
77090W        W48619  13.359   4.768  10.553
77091W        W48620  10.166  38.266   2.896
77092W        W48621  40.729  31.588   4.346
77093W        W48622   0.507   7.715   4.256
77094W        W48623   9.351  23.616  10.922
77095W        W48624  25.281  25.557   0.566
77096W        W48625  15.606  24.026  12.491
77097W        W48626   3.455  11.872  12.502
77098W        W48627  34.458  44.964   2.728
77099W        W48628  15.161  34.623   2.857
77100W        W48629  35.480  44.277  11.933
77101W        W48630  10.665  43.935   5.397
77102W        W48631  37.733   9.851   2.665
77103W        W48632  33.567  43.997   4.636
77104W        W48633  17.655  23.108  13.878
77105W        W48634  40.309  29.673   1.432
77106W        W48635  36.947   1.745  12.469
77107W        W48636  39.454  37.432  13.957
77108W        W48637  36.858  20.624  14.362
77109W        W48638   6.089  40.199  10.388
77110W        W48639   7.492  13.815  12.363
77111W        W48640  27.696   5.937  14.813
77112W        W48641   3.169  14.634   1.332
77113W        W48642   8.517  35.205   0.908
77114W        W48643  33.003  14.695   0.292
77115W        W48644  31.883  27.268   3.212
77116W        W48645  41.502   3.467   3.814
77117W        W48646   6.774  16.857  13.712
77118W        W48647  16.340  43.074   3.841
77119W        W48648   7.810   3.419  13.413
77120W        W48649   5.543  25.114   1.313
77121W        W48650  28.089  25.552   1.900
77122W        W48651  15.556   3.981   4.091
77123W        W48652  29.079  13.516  10.354
77124W        W48653  28.375  44.941  11.514
77125W        W48654  17.331  14.210   2.440
77126W        W48655  34.495   6.499   1.091
77127W        W48656  33.053  18.155  10.868
77128W        W48657  12.850  20.685  14.907
77129W        W48658  11.000   6.771  11.786
77130W        W48659  12.630   5.774  13.942
77131W        W48660   7.454  40.837  11.122
77132W        W48661  32.553  42.850   2.705
77133W        W48662  27.531   8.385   3.634
77134W        W48663   3.969  20.044  12.427
77135W        W48664  16.730  23.266   1.850
77136W        W48665  17.151  35.377   1.415
77137W        W48666  12.611  29.206  14.119
77138W        W48667  44.449  15.784  12.531
77139W        W48668   1.611  33.856   4.545
77140W        W48669  14.119  12.291  13.567
77141W        W48670  35.348  36.780  13.133
77142W        W48671   9.662  40.035   1.252
77143W        W48672   5.118  18.381  12.940
77144W        W48673  38.866  42.491   0.332
77145W        W48674  10.147  14.844   0.859
77146W        W48675   0.571  22.286  14.276
77147W        W48676  40.462   2.550   2.503
77148W        W48677  36.541  12.663  11.622
77149W        W48678  28.920   2.655  11.634
77150W        W48679  10.368  31.361   0.932
77151W        W48680  28.505  18.203  12.105
77152W        W48681  28.222  20.213   3.759
77153W        W48682  41.169  42.499  12.961
77154W        W48683   5.366  10.438  12.532
77155W        W48684  18.733  19.167  10.014
77156W        W48685  37.619   9.574   2.227
77157W        W48686  32.064  23.833  14.795
77158W        W48687   5.893  34.865  12.598
77159W        W48688  14.227  41.221  11.193
77160W        W48689  41.553  10.645  13.650
77161W        W48690  31.380  31.937  10.382
77162W        W48691  24.086  44.513   0.316
77163W        W48692  27.707  30.592   3.709
77164W        W48693  27.481   2.270   2.783
77165W        W48694   6.282  16.818  11.488
77166W        W48695  11.703  32.977   0.848
77167W        W48696  34.450  34.615   1.009
77168W        W48697  37.373  38.097   4.167
77169W        W48698   4.330   1.258  11.516
77170W        W48699  33.365  13.297  13.251
77171W        W48700  40.635  21.965  14.898
77172W        W48701   2.521  30.788  10.735
77173W        W48702  40.656   5.868   0.281
77174W        W48703   2.162  19.748  14.982
77175W        W48704  37.318  21.772   2.316
77176W        W48705  16.768  27.066   2.076
77177W        W48706  23.540  15.793  14.419
77178W        W48707   8.679  19.312  13.951
77179W        W48708  25.623  36.887   4.152
77180W        W48709  42.128  26.503  11.999
77181W        W48710  16.129  11.715   1.282
77182W        W48711  44.725   5.878   4.652
77183W        W48712  36.144   8.275   2.662
77184W        W48713  37.504   7.823  10.794
77185W        W48714  14.320  23.250   2.405
77186W        W48715  39.659  31.079  13.563
77187W        W48716  22.064  22.254   3.690
77188W        W48717  33.504  41.072  11.157
77189W        W48718  37.664  18.999  13.876
77190W        W48719  21.654  36.349  11.598
77191W        W48720  20.849  38.994   1.023
77192W        W48721   9.691  10.874   1.944
77193W        W48722  22.322  35.457   1.818
77194W        W48723  22.132  42.604   4.095
77195W        W48724  24.549  35.874   3.244
77196W        W48725   2.304  14.116   4.575
77197W        W48726  42.022  32.897  14.072
77198W        W48727  33.322  29.700   3.780
77199W        W48728  24.803  31.808   5.013
77200W        W48729  42.902  32.986   4.950
77201W        W48730  18.260  12.777   3.168
77202W        W48731   7.657   2.959   0.967
77203W        W48732   9.881  29.183  12.904
77204W        W48733   8.601  16.775   0.928
77205W        W48734  39.363  40.333  11.448
77206W        W48735  12.168  44.512  12.768
77207W        W48736   5.699  37.927   2.712
77208W        W48737   0.374   0.275   3.865
77209W        W48738  21.011   2.533   3.762
77210W        W48739  17.664   7.095  11.273
77211W        W48740  25.644  33.517   3.055
77212W        W48741   4.893  29.366  11.117
77213W        W48742  38.869  34.678   0.410
77214W        W48743  25.666   9.410   3.781
77215W        W48744  32.662  15.642  10.241
77216W        W48745   9.776  26.599   1.830
77217W        W48746  15.608  10.510   4.926
77218W        W48747   9.249  43.491   4.496
77219W        W48748  14.360  16.110  13.024
77220W        W48749  37.004  39.113   3.586
77221W        W48750   1.917  32.831   1.343
77222W        W48751  43.274  30.655  14.008
77223W        W48752  39.714  19.874   2.179
77224W        W48753  34.474  18.336  13.372
77225W        W48754   0.346  26.459   1.445
77226W        W48755  38.589  39.421  12.502
77227W        W48756   4.231  34.678  13.076
77228W        W48757   0.551  15.693  11.605
77229W        W48758  33.092  22.752   3.759
77230W        W48759  27.078  27.981  13.077
77231W        W48760  22.543  43.498   2.941
77232W        W48761   0.727  33.896   3.470
77233W        W48762   3.985  38.957  13.604
77234W        W48763  29.152  37.064  11.185
77235W        W48764  30.423  31.444  14.784
77236W        W48765   0.944  25.721  11.891
77237W        W48766  32.553  39.622   3.814
77238W        W48767   0.288   9.353  12.471
77239W        W48768  37.768  41.176   4.131
77240W        W48769   6.427  40.436   4.597
77241W        W48770  23.270   2.426   1.345
77242W        W48771  15.916  42.442  12.530
77243W        W48772   6.741  34.259  13.439
77244W        W48773  15.213  11.624  13.838
77245W        W48774  44.673  30.288   1.446
77246W        W48775  41.367   6.472  13.847
77247W        W48776  22.457  26.161  14.076
77248W        W48777  14.252  44.339   1.947
77249W        W48778  24.552   6.479  10.518
77250W        W48779  22.645  19.577   0.769
77251W        W48780  34.416  28.526  13.789
77252W        W48781  37.791  11.158  13.881
77253W        W48782  22.247  10.613  13.560
77254W        W48783  39.841  35.395  14.550
77255W        W48784  11.762   8.060   2.212
77256W        W48785  16.192   9.891   1.566
77257W        W48786  13.072   5.384   4.177
77258W        W48787  29.460  30.379   4.237
77259W        W48788  23.663  21.753   3.943
77260W        W48789  29.101  16.239  10.999
77261W        W48790  20.217   7.378  13.122
77262W        W48791  30.991  33.948  12.460
77263W        W48792  29.893  14.248  12.650
77264W        W48793  28.483   7.600  12.925
77265W        W48794  26.526   2.098  14.230
77266W        W48795   6.844  11.160   2.370
77267W        W48796  22.513  18.611   0.765
77268W        W48797  25.008  34.853   1.838
77269W        W48798  39.025  24.994   2.438
77270W        W48799   4.906  11.217  13.376
77271W        W48800  17.322  35.524   2.846
77272W        W48801   0.198  37.179   3.454
77273W        W48802   3.677  12.295  11.160
77274W        W48803  16.630  11.375   2.150
77275W        W48804  39.487  39.557   2.896
77276W        W48805   1.955  18.445   0.781
77277W        W48806  18.346  23.003   1.641
77278W        W48807  41.420   5.406  14.829
77279W        W48808  23.454  32.402   2.851
77280W        W48809  29.448  28.978   0.361
77281W        W48810  18.503  18.071  14.911
77282W        W48811  11.432  12.288  11.064
77283W        W48812  35.346  10.769   3.091
77284W        W48813   2.465  44.266  12.782
77285W        W48814  17.725  24.153   4.853
77286W        W48815  15.331  28.585  13.987
77287W        W48816  37.566  43.936   0.473
77288W        W48817  25.931  13.223   4.227
77289W        W48818   1.778  25.484  13.796
77290W        W48819  42.262   0.204  13.960
77291W        W48820  44.065  11.806   0.420
77292W        W48821   4.250  17.084   0.329
77293W        W48822  25.605  27.068  13.689
77294W        W48823   3.323   8.789   3.313
77295W        W48824  42.610  25.817  14.686
77296W        W48825  20.649  10.897  14.912
77297W        W48826  19.634  23.642  13.010
77298W        W48827  15.303   0.436   3.644
77299W        W48828  22.824  26.591   1.393
77300W        W48829  25.690  34.971   0.401
77301W        W48830  13.187  16.119   1.272
77302W        W48831  41.470  43.719   1.230
77303W        W48832  20.968  31.496  12.901
77304W        W48833  26.462   6.562   3.291
77305W        W48834   0.506  32.255  14.536
77306W        W48835  26.412  16.313   0.403
77307W        W48836  13.584  12.846  10.938
77308W        W48837   3.705   4.687  11.548
77309W        W48838  28.933  19.619  12.036
77310W        W48839  38.339  25.479  10.644
77311W        W48840  41.041  21.553  12.824
77312W        W48841   5.310  25.511   4.164
77313W        W48842  24.070  30.518  12.471
77314W        W48843  36.130  25.155  11.052
77315W        W48844  23.568  41.857   4.189
77316W        W48845  36.479  41.068  11.029
77317W        W48846  15.123   7.886   1.883
77318W        W48847  40.801  34.209   3.284
77319W        W48848  31.115  26.866   4.640
77320W        W48849  26.586  32.613   4.501
77321W        W48850  22.647  26.676  12.424
77322W        W48851   8.187  30.905  12.530
77323W        W48852  27.022  23.975   3.086
77324W        W48853  39.474  14.060   0.161
77325W        W48854  27.147  29.036   1.213
77326W        W48855  16.812  43.180   2.570
77327W        W48856  13.807  32.534   0.496
77328W        W48857  14.943  14.650   0.865
77329W        W48858  36.012  28.588  14.457
77330W        W48859   7.223  24.605   0.750
77331W        W48860  42.756   5.257   4.041
77332W        W48861   3.636  25.716  12.587
77333W        W48862  14.693   3.000  12.865
77334W        W48863  13.428  44.909  11.873
77335W        W48864  42.754   6.902   4.726
77336W        W48865  19.350  22.714   1.308
77337W        W48866   2.447  43.565   4.976
77338W        W48867   8.879  14.072   1.831
77339W        W48868  12.107   2.551  13.462
77340W        W48869  14.641  36.194  14.234
77341W        W48870  25.674  30.796  11.060
77342W        W48871  14.805   0.093   0.821
77343W        W48872  31.797  12.850  11.670
77344W        W48873  31.250  31.619   1.629
77345W        W48874  27.692  18.620  11.632
77346W        W48875  20.855  20.066   4.129
77347W        W48876  43.638   7.577   5.047
77348W        W48877  19.371  42.011   3.617
77349W        W48878  41.360  22.745  12.414
77350W        W48879  22.866  22.738  13.800
77351W        W48880  27.436   2.749   2.313
77352W        W48881  31.074  24.235  13.353
77353W        W48882  36.198  12.862   1.653
77354W        W48883  32.341  23.981   1.814
77355W        W48884  43.328  16.172   0.001
77356W        W48885  11.271  44.289   0.015
77357W        W48886  18.348  25.084   0.774
77358W        W48887  33.073  39.444   0.231
77359W        W48888  10.223  15.884   4.225
77360W        W48889  44.563   8.792   4.168
77361W        W48890  42.961  38.561   3.702
77362W        W48891  16.040  11.716   4.834
77363W        W48892  36.956  11.027  14.495
77364W        W48893   7.294  13.490  11.203
77365W        W48894   4.503  14.238   2.792
77366W        W48895  24.030  17.024   1.648
77367W        W48896  10.230  21.031  11.181
77368W        W48897  17.855  36.082   0.429
77369W        W48898  44.861  24.566   4.626
77370W        W48899   9.733  42.808  12.809
77371W        W48900   9.780   1.835   1.193
77372W        W48901  29.173  13.820   3.224
77373W        W48902  35.585  23.615   3.097
77374W        W48903  23.467  29.962   1.743
77375W        W48904  23.690   9.859  11.249
77376W        W48905  13.475   0.704   1.865
77377W        W48906   3.912  42.418  14.675
77378W        W48907  34.457  27.994  13.013
77379W        W48908  10.191  38.054   0.452
77380W        W48909  13.113  32.618   4.123
77381W        W48910  25.997  44.546   3.443
77382W        W48911  44.389   2.761  14.528
77383W        W48912  29.529  40.228   4.205
77384W        W48913  31.111  20.290  11.170
77385W        W48914  19.161  36.036   1.682
77386W        W48915  12.917  44.214   1.261
77387W        W48916  39.038  17.903   4.203
77388W        W48917  40.831   3.911  12.398
77389W        W48918  18.775  27.716  10.165
77390W        W48919  36.539  25.747   1.253
77391W        W48920  34.960  12.699  14.457
77392W        W48921   5.939  12.661  14.694
77393W        W48922  31.213  39.743  13.065
77394W        W48923  27.519  44.302   4.989
77395W        W48924  40.895  36.391   3.917
77396W        W48925  33.612   4.256   2.852
77397W        W48926  37.961  43.706  13.360
77398W        W48927  29.584  19.339  12.911
77399W        W48928   5.735  31.139   2.193
77400W        W48929   0.764  40.626   4.946
77401W        W48930  27.178  22.944   1.194
77402W        W48931  23.579   6.682   2.433
77403W        W48932  19.364  19.848  14.893
77404W        W48933   8.306  29.181   2.154
77405W        W48934  35.052   1.236  13.515
77406W        W48935   2.244  23.553   3.183
77407W        W48936  17.575  11.655  12.583
77408W        W48937   0.612  22.689  12.151
77409W        W48938  11.405   2.308   1.405
77410W        W48939   6.188  11.786   0.512
77411W        W48940   4.476  11.372   3.214
77412W        W48941  44.500  42.485  10.764
77413W        W48942  11.459  42.951   0.309
77414W        W48943  36.298  14.317  14.000
77415W        W48944   3.154  41.244  14.955
77416W        W48945   8.465  16.004  12.347
77417W        W48946  30.423   6.775   1.280
77418W        W48947  43.928  25.481  11.495
77419W        W48948   6.441   8.677   1.851
77420W        W48949  25.613   3.628  14.360
77421W        W48950  29.893  41.434  12.458
77422W        W48951  41.780  26.083  12.532
77423W        W48952   7.536  15.252   0.787
77424W        W48953  30.474  22.562   0.034
77425W        W48954   8.281  40.826   0.299
77426W        W48955  16.738  40.895  12.993
77427W        W48956  29.581  40.019   4.677
77428W        W48957  17.940  14.690   3.565
77429W        W48958  11.902  19.860   2.238
77430W        W48959  40.049  35.499  13.847
77431W        W48960  41.282  21.198   1.336
77432W        W48961  44.020  33.309   3.642
77433W        W48962  31.898   8.458   2.895
77434W        W48963  17.007  34.948  13.843
77435W        W48964  15.404  25.034   4.084
77436W        W48965  37.798  27.505   3.643
77437W        W48966  28.381  43.571  13.418
77438W        W48967  28.002  27.634   2.483
77439W        W48968  23.681  15.483  14.025
77440W        W48969  37.910  33.998  13.972
77441W        W48970   0.280  26.102  13.389
77442W        W48971  43.764   4.494   2.834
77443W        W48972  29.944   9.594  12.071
77444W        W48973  39.861   9.315   1.647
77445W        W48974  40.376  35.826  13.574
77446W        W48975  23.431   0.910   4.777
77447W        W48976  18.330  44.743  10.892
77448W        W48977  14.054  44.178   2.900
77449W        W48978  19.127  28.735  13.902
77450W        W48979  43.666   8.350  13.863
77451W        W48980  11.800   5.973   0.218
77452W        W48981  39.845  35.140   0.367
77453W        W48982  20.244  19.170  13.439
77454W        W48983  15.640  11.845   1.027
77455W        W48984  41.225  20.132   4.250
77456W        W48985  28.048  38.926  12.001
77457W        W48986  39.425   9.293   0.833
77458W        W48987  44.514   4.706  10.436
77459W        W48988  34.455   4.909  12.057
77460W        W48989  21.657  16.270  14.993
77461W        W48990  44.671  34.551   2.176
77462W        W48991  27.501   8.517   2.688
77463W        W48992  32.795   6.306   0.368
77464W        W48993  13.779   9.349   4.412
77465W        W48994  42.574  21.556  11.099
77466W        W48995  42.014  10.988  10.676
77467W        W48996   8.976  43.577  11.131
77468W        W48997  28.993  23.893  13.435
77469W        W48998  33.796  14.344  11.406
77470W        W48999   2.940  15.853   0.938
77471W        W49000  33.730   2.958  10.188
77472W        W49001  40.234  24.260  13.879
77473W        W49002  44.693  23.538  11.489
77474W        W49003   2.038  10.414  13.122
77475W        W49004  32.153  35.533   3.738
77476W        W49005   7.849  13.864   4.083
77477W        W49006  39.937  13.152   2.156
77478W        W49007  44.714  42.150  13.858
77479W        W49008  38.357  16.054   2.433
77480W        W49009  24.447  18.164  13.886
77481W        W49010  25.238   6.922  11.447
77482W        W49011  14.124  22.519  10.818
77483W        W49012  21.688  42.978   2.876
77484W        W49013  19.505  32.998  11.944
77485W        W49014  36.165  19.261  13.940
77486W        W49015  29.870  21.688   3.660
77487W        W49016   1.885   9.426  12.650
77488W        W49017  31.904  33.020   1.034
77489W        W49018  41.369  10.146   4.324
77490W        W49019   3.788  31.881   3.492
77491W        W49020  16.068   4.876   2.365
77492W        W49021   6.152  23.244   3.059
77493W        W49022   7.259  22.533   0.830
77494W        W49023  41.120  11.542   0.814
77495W        W49024  40.679   1.406  12.566
77496W        W49025  23.604  28.488  11.621
77497W        W49026  16.206   3.969  10.768
77498W        W49027   5.624  39.342   2.242
77499W        W49028  32.074   6.394  10.893
77500W        W49029  22.241  35.543  14.590
77501W        W49030  16.567  14.781   3.424
77502W        W49031  27.549  17.967  12.987
77503W        W49032  31.530  42.526  11.584
77504W        W49033  10.802  37.479   1.812
77505W        W49034  41.519   6.714   2.727
77506W        W49035  37.437  10.927  11.827
77507W        W49036  20.742  37.507   2.385
77508W        W49037   6.640   6.185  13.848
77509W        W49038  41.015  30.152  10.766
77510W        W49039  36.522  12.873   2.091
77511W        W49040  17.637  20.306  12.061
77512W        W49041  44.998  43.612  12.990
77513W        W49042  34.092   4.694   4.193
77514W        W49043  17.602  34.351  13.743
77515W        W49044  22.165  21.195   4.902
77516W        W49045  17.306  40.786  13.570
77517W        W49046   1.153  20.770  10.646
77518W        W49047   7.392  37.932   4.829
77519W        W49048  39.035  41.117  13.887
77520W        W49049  33.695  32.253  11.603
77521W        W49050  41.990  36.567   5.010
77522W        W49051  42.879  33.593   0.012
77523W        W49052   4.952  34.947   0.508
77524W        W49053  32.539  16.890   0.882
77525W        W49054  25.755  35.798  10.897
77526W        W49055  36.691  34.410   3.221
77527W        W49056   0.930  17.590  14.103
77528W        W49057  21.478  27.174   3.669
77529W        W49058   4.194  30.978   1.571
77530W        W49059  32.882  18.576   0.361
77531W        W49060  34.888  12.772  12.275
77532W        W49061  43.507  26.662  10.361
77533W        W49062  33.588  20.578  12.050
77534W        W49063  12.190  44.031  12.926
77535W        W49064   2.998  15.669  13.704
77536W        W49065   4.304  18.230   2.239
77537W        W49066  17.040  36.780   0.927
77538W        W49067  15.700  12.094   0.522
77539W        W49068  43.215  29.424   0.730
77540W        W49069   3.902  39.573  13.136
77541W        W49070  29.004   4.168   4.772
77542W        W49071   8.734   5.690  12.041
77543W        W49072  21.628  21.044  11.476
77544W        W49073   8.907   6.313  11.512
77545W        W49074   5.286  27.223  13.002
77546W        W49075   0.117  32.021   1.833
77547W        W49076   5.534  16.834  10.210
77548W        W49077  25.600  14.667   3.236
77549W        W49078  12.907  16.581  14.031
77550W        W49079   2.446  26.885   1.831
77551W        W49080  28.473  16.467   1.160
77552W        W49081  23.020  43.311   2.703
77553W        W49082   6.767  29.997  13.591
77554W        W49083  32.181  30.528  10.807
77555W        W49084  22.076  13.604   4.524
77556W        W49085   8.340  15.063  13.383
77557W        W49086   7.840  17.312   3.640
77558W        W49087  21.775  34.218  12.471
77559W        W49088  14.056   5.339   1.810
77560W        W49089  38.494  25.114   4.122
77561W        W49090  40.783  10.349  14.604
77562W        W49091  40.949  37.581  10.547
77563W        W49092  36.517   3.704   0.225
77564W        W49093   3.123  24.704   1.275
77565W        W49094  38.491  32.662   3.594
77566W        W49095  12.895  30.964   1.771
77567W        W49096  24.757  13.901   2.222
77568W        W49097  40.319   9.155  12.602
77569W        W49098  23.570   3.169  11.996
77570W        W49099  27.860  14.259  11.651
77571W        W49100  30.979  41.799  10.597
77572W        W49101  11.776  26.699   0.050
77573W        W49102  30.371  39.857   3.402
77574W        W49103  34.016  39.365  14.282
77575W        W49104   1.009  29.901   1.910
77576W        W49105  12.115   2.544   3.885
77577W        W49106  37.056  43.006   1.253
77578W        W49107   7.506   3.806   1.899
77579W        W49108  14.560  39.873  10.088
77580W        W49109  40.960  34.513   3.693
77581W        W49110  44.804  15.168  10.707
77582W        W49111  19.137   4.744   0.265
77583W        W49112  30.128  31.976   2.295
77584W        W49113  37.011  30.480  13.501
77585W        W49114   3.418  34.465  10.143
77586W        W49115  40.359  28.003   4.249
77587W        W49116   9.374  14.594   2.282
77588W        W49117  34.506  41.855   1.995
77589W        W49118  17.620   6.132  13.464
77590W        W49119  29.453  42.940   0.749
77591W        W49120   3.874  21.858  11.065
77592W        W49121   4.249   8.949  12.988
77593W        W49122  18.016  29.363   2.645
77594W        W49123  19.933  15.697  11.518
77595W        W49124   4.758  22.086   0.923
77596W        W49125  25.072  43.423  13.981
77597W        W49126   7.610  43.836   3.882
77598W        W49127  15.173  11.497   2.774
77599W        W49128  15.082   8.448   2.782
77600W        W49129  12.214  24.684  13.552
77601W        W49130   9.592  11.635   2.377
77602W        W49131  35.135  14.140  11.368
77603W        W49132  44.635  16.481  11.621
77604W        W49133  37.065   4.177   1.493
77605W        W49134  44.189  27.509  11.029
77606W        W49135   4.723   0.551  12.394
77607W        W49136  44.689  26.171  13.022
77608W        W49137   4.441  43.613  12.351
77609W        W49138  41.048  21.197   4.054
77610W        W49139  42.069  38.246  11.262
77611W        W49140  30.558  42.026   4.322
77612W        W49141   9.177  15.662  14.313
77613W        W49142  43.871  39.903   2.397
77614W        W49143  20.521  10.361   1.186
77615W        W49144  14.100  43.228  11.120
77616W        W49145  19.179   0.927  11.497
77617W        W49146  43.470  25.405   1.904
77618W        W49147  29.248  41.037  10.778
77619W        W49148  13.798  22.268   1.846
77620W        W49149   1.963  30.090  14.866
77621W        W49150  36.516  10.119  14.390
77622W        W49151  19.808   5.744   2.617
77623W        W49152  30.864  11.920   2.678
77624W        W49153  19.330  11.944   2.704
77625W        W49154  37.902  24.616  11.988
77626W        W49155   7.176  42.545   0.925
77627W        W49156  31.141   9.458   1.236
77628W        W49157  29.198  37.780   0.155
77629W        W49158  31.936  10.597  15.000
77630W        W49159  13.885   9.648   1.924
77631W        W49160  35.526  24.054   0.737
77632W        W49161  33.101  12.206  10.504
77633W        W49162  31.892  32.861  10.556
77634W        W49163  25.919  33.382   2.634
77635W        W49164  11.819  43.251  12.100
77636W        W49165  24.285  20.673  12.058
77637W        W49166  17.852  42.482  14.005
77638W        W49167  40.366  16.415   2.717
77639W        W49168  16.194  11.738  10.503
77640W        W49169  41.866   7.617  11.992
77641W        W49170  31.935  39.743   2.708
77642W        W49171   8.293  20.210   3.757
77643W        W49172  21.144   5.697  13.043
77644W        W49173  41.769  11.597  14.061
77645W        W49174  10.719  19.283   1.845
77646W        W49175   1.829  16.353  10.369
77647W        W49176  13.049  10.270   3.179
77648W        W49177  40.118  44.910  13.383
77649W        W49178  34.993   1.465   2.894
77650W        W49179  27.365  22.938  13.611
77651W        W49180  35.337  43.896   0.241
77652W        W49181  20.321   0.377   0.465
77653W        W49182  30.496  14.597   0.646
77654W        W49183  21.501   4.321   4.114
77655W        W49184  28.137  13.089  12.086
77656W        W49185  10.076  37.950  11.031
77657W        W49186  27.112   1.430   4.259
77658W        W49187  19.514  29.948   0.171
77659W        W49188  19.527  41.863   2.637
77660W        W49189   8.385   1.202   3.292
77661W        W49190  35.065  39.842   4.679
77662W        W49191   3.420  12.775  13.237
77663W        W49192  22.211  32.660  12.425
77664W        W49193   9.849  15.249  10.749
77665W        W49194  36.458  18.984  12.980
77666W        W49195  33.542  28.378   4.137
77667W        W49196  23.746  32.855   2.811
77668W        W49197  29.418   9.653   0.270
77669W        W49198  18.280  18.736   3.650
77670W        W49199  37.595  12.786  10.942
77671W        W49200  18.292   4.695   1.516
77672W        W49201  34.812  10.233  12.004
77673W        W49202  14.489  25.072  12.669
77674W        W49203  28.637   8.242  12.175
77675W        W49204  42.973  17.587   3.430
77676W        W49205  24.680  44.492   4.085
77677W        W49206   9.303  13.962  13.872
77678W        W49207   3.539  23.947  12.197
77679W        W49208  33.962  27.405   4.582
77680W        W49209  12.251  14.675   0.860
77681W        W49210  14.217   0.480  10.664
77682W        W49211   0.473  42.699   1.722
77683W        W49212  22.541  22.679  12.487
77684W        W49213  27.104  28.963  13.347
77685W        W49214   4.345  28.510   0.415
77686W        W49215  40.849  21.543  12.363
77687W        W49216  33.385  36.951   0.950
77688W        W49217  20.506  12.150  12.731
77689W        W49218  37.227   8.928  14.438
77690W        W49219  20.684  31.999  14.289
77691W        W49220  25.175  23.152  13.360
77692W        W49221  40.355  41.279  11.010
77693W        W49222  19.731  11.624   0.856
77694W        W49223  24.098  11.406   0.064
77695W        W49224  19.533  19.129   0.839
77696W        W49225  23.212  18.581  13.562
77697W        W49226  28.448  17.727   1.385
77698W        W49227  25.621  31.002  13.972
77699W        W49228  35.902  13.468   0.748
77700W        W49229  11.320  32.010  12.020
77701W        W49230   4.819  30.620  12.314
77702W        W49231   8.723  15.594  12.489
77703W        W49232  37.669  32.595   1.331
77704W        W49233  26.402  17.570  11.513
77705W        W49234  40.522  44.953   2.380
77706W        W49235  40.566  15.235   3.751
77707W        W49236  26.038  38.644   2.395
77708W        W49237  23.087   0.381  11.692
77709W        W49238  14.385  12.882   0.333
77710W        W49239   0.165  34.490  14.709
77711W        W49240  29.195   2.281   1.695
77712W        W49241   9.976   3.685   0.516
77713W        W49242  11.796  36.382   3.702
77714W        W49243   7.891  23.551   3.661
77715W        W49244  17.689  23.264  13.395
77716W        W49245  15.864  32.010   2.893
77717W        W49246   9.609  17.640   0.247
77718W        W49247   3.295  43.813   3.303
77719W        W49248   0.390  30.205  11.623
77720W        W49249   7.772  30.396  13.802
77721W        W49250   2.960  35.631   0.402
77722W        W49251  23.487  29.622   2.621
77723W        W49252  12.687  32.102  13.023
77724W        W49253  30.037  38.790  14.312
77725W        W49254  31.492   1.397  13.712
77726W        W49255  28.156  38.510   2.124
77727W        W49256  26.512  22.849  11.607
77728W        W49257  33.160  11.947  12.617
77729W        W49258  35.868  40.492  10.488
77730W        W49259  22.486  14.119   1.036
77731W        W49260  14.736  31.110   4.410
77732W        W49261  25.243   0.983  11.529
77733W        W49262  32.569  39.560  11.503
77734W        W49263   9.444   7.702  13.463
77735W        W49264  18.778  11.602   0.484
77736W        W49265  22.734  14.517   1.784
77737W        W49266  13.299  40.132  14.517
77738W        W49267  27.604   9.259  14.258
77739W        W49268  20.637  27.220  10.112
77740W        W49269  32.026  38.369  10.626
77741W        W49270  41.753  16.050  11.985
77742W        W49271  17.661  43.314  12.337
77743W        W49272   2.022   7.602  10.646
77744W        W49273  16.574  34.363   1.779
77745W        W49274   5.436  19.748   4.490
77746W        W49275   0.241  42.723   2.240
77747W        W49276  37.499  43.385  12.655
77748W        W49277  13.219  16.466   2.090
77749W        W49278  13.943  39.501  14.816
77750W        W49279  35.330  21.203  14.452
77751W        W49280  30.417   4.793  12.515
77752W        W49281  34.157  22.164   3.429
77753W        W49282  43.906   2.644  12.812
77754W        W49283   6.173  23.487   0.949
77755W        W49284  21.199  42.259  11.976
77756W        W49285   9.631  15.327  13.505
77757W        W49286  22.866  14.415   0.897
77758W        W49287  15.593  43.756   2.159
77759W        W49288  16.195  34.578  11.068
77760W        W49289   4.492   4.556  11.259
77761W        W49290  37.414  29.392   0.786
77762W        W49291  14.302  12.648  10.637
77763W        W49292  19.181  25.258  11.373
77764W        W49293  20.783  18.758   4.108
77765W        W49294  44.404  10.975  10.728
77766W        W49295  32.856  22.194   1.820
77767W        W49296  35.787  40.891  11.599
77768W        W49297  42.157  26.772  10.078
77769W        W49298   5.968  30.181  14.468
77770W        W49299  37.927  36.461   3.352
77771W        W49300  42.514  43.731  13.017
77772W        W49301  42.543  25.033   2.153
77773W        W49302  11.355  12.854   2.283
77774W        W49303  43.400   3.196  14.041
77775W        W49304   8.122  20.098   3.281
77776W        W49305  12.265  30.988  11.881
77777W        W49306  30.979   5.119  11.006
77778W        W49307  30.238  33.532   0.928
77779W        W49308   0.957   1.818  10.105
77780W        W49309  27.928  37.153  11.891
77781W        W49310  25.606  27.674   0.010
77782W        W49311  22.124  28.628  11.172
77783W        W49312   8.897  20.630   3.062
77784W        W49313   2.735  27.041   2.926
77785W        W49314  20.017  40.016  11.605
77786W        W49315  39.662  31.318   0.984
77787W        W49316   1.476   3.832   4.945
77788W        W49317  18.973   6.730  11.141
77789W        W49318  42.930   5.209  14.919
77790W        W49319  29.616   3.874   0.682
77791W        W49320  19.148  31.023   3.376
77792W        W49321  31.442   5.294  14.372
77793W        W49322  29.193  37.488  13.870
77794W        W49323  13.655   0.690   4.707
77795W        W49324  29.154  11.232  13.864
77796W        W49325  29.317  29.195  11.672
77797W        W49326   7.623  29.592   0.429
77798W        W49327   6.325  13.828   3.320
77799W        W49328  40.882  28.183   4.155
77800W        W49329   2.341  35.990   1.799
77801W        W49330  19.728  12.637  12.898
77802W        W49331  32.435  34.234   3.826
77803W        W49332  12.855  44.405  13.547
77804W        W49333  34.525  15.489   2.141
77805W        W49334  25.736  18.656   3.180
77806W        W49335  32.966  30.595  11.482
77807W        W49336  30.153  31.478  13.329
77808W        W49337  23.244  24.016  11.928
77809W        W49338  34.401  33.172  12.939
77810W        W49339  17.675   5.557   0.104
77811W        W49340  30.876   3.748   3.671
77812W        W49341  12.809  11.312  13.412
77813W        W49342   6.862  32.428  13.025
77814W        W49343   4.180  36.915  12.596
77815W        W49344  24.520   9.617   0.869
77816W        W49345  32.868   8.080  14.432
77817W        W49346   1.830   8.351  11.781
77818W        W49347  27.608  14.390  13.953
77819W        W49348  44.381   3.190   3.397
77820W        W49349  13.095   0.341   0.429
77821W        W49350   5.694  32.427   1.063
77822W        W49351  21.719  16.017   0.433
77823W        W49352   0.574  23.045   2.771
77824W        W49353  41.085  21.510  11.907
77825W        W49354   8.853   5.581  14.463
77826W        W49355  16.611  12.078   4.873
77827W        W49356   6.685  43.421  14.517
77828W        W49357  32.893  15.920   2.749
77829W        W49358  20.004  29.529  12.838
77830W        W49359  18.415  43.921  11.097
77831W        W49360  28.417  35.859  10.631
77832W        W49361  42.084  15.248  13.826
77833W        W49362  17.171  39.401   4.325
77834W        W49363  19.259   5.212  12.869
77835W        W49364   1.461   6.487   4.501
77836W        W49365   9.110  26.048   1.931
77837W        W49366   9.248  14.723   4.080
77838W        W49367  34.028  40.782  14.025
77839W        W49368  15.748  11.862   2.415
77840W        W49369  10.155  13.369   3.372
77841W        W49370  38.924  11.479   2.265
77842W        W49371  33.030  30.629  12.453
77843W        W49372  24.789   0.841   3.238
77844W        W49373  34.222  31.802   3.138
77845W        W49374  16.180  19.828  10.654
77846W        W49375  35.001   0.873  11.864
77847W        W49376   2.821  22.030  12.352
77848W        W49377  31.953  27.515   4.693
77849W        W49378  23.486   5.274  11.627
77850W        W49379  14.498  28.073  10.187
77851W        W49380  16.618  42.329   4.372
77852W        W49381  26.100   3.833   0.284
77853W        W49382  24.116   4.722   0.902
77854W        W49383  42.998   2.844  13.868
77855W        W49384  32.683  12.826   3.999
77856W        W49385  37.523  42.174   0.905
77857W        W49386   3.392  43.748   2.774
77858W        W49387  34.479  35.580   3.603
77859W        W49388  23.442  16.596  10.905
77860W        W49389  23.467  25.675   3.570
77861W        W49390  38.903  43.327  12.548
77862W        W49391   0.725   0.321   2.449
77863W        W49392  14.866  10.411  12.533
77864W        W49393  38.101   5.993   1.209
77865W        W49394  22.325  22.944   3.371
77866W        W49395  38.494   8.447   3.281
77867W        W49396  17.289  32.030  11.718
77868W        W49397  24.615  36.410   2.385
77869W        W49398  38.275  38.432   4.800
77870W        W49399  18.666  11.103   0.454
77871W        W49400   9.758  18.623   0.371
77872W        W49401   3.716   3.878  12.081
77873W        W49402  15.342  44.468   0.319
77874W        W49403  44.499  13.784   2.214
77875W        W49404   7.003  21.582   2.511
77876W        W49405  16.169  36.685   0.393
77877W        W49406   6.776  18.192   0.463
77878W        W49407  38.778  41.016  14.319
77879W        W49408  21.212   5.229   0.389
77880W        W49409  42.044   2.769   0.356
77881W        W49410  40.862  30.319   5.018
77882W        W49411  34.723  13.239  12.200
77883W        W49412  17.737  25.134   2.298
77884W        W49413  29.378  15.088  11.536
77885W        W49414  35.127   9.189  13.437
77886W        W49415   7.988  11.742  12.570
77887W        W49416  18.210  15.220   0.450
77888W        W49417   2.494  37.464  11.124
77889W        W49418  28.018   6.554   4.051
77890W        W49419   3.702  14.797  13.042
77891W        W49420  11.846   6.843  13.277
77892W        W49421  26.288  29.750   4.198
77893W        W49422  32.197  29.459   1.863
77894W        W49423  18.422   7.342  11.589
77895W        W49424  28.568  14.589   4.064
77896W        W49425   9.090  32.529   2.446
77897W        W49426  15.037  33.703  12.078
77898W        W49427   3.055  20.102  11.630
77899W        W49428  32.854  39.120   1.003
77900W        W49429   7.269  21.198   1.300
77901W        W49430  11.146  16.374  11.608
77902W        W49431   0.994  12.675  12.995
77903W        W49432   7.810  31.337  13.828
77904W        W49433  29.116  28.938  13.105
77905W        W49434   4.660  14.894   1.425
77906W        W49435  10.869  20.231  11.506
77907W        W49436  25.715  37.117   1.272
77908W        W49437  10.370   3.897   4.295
77909W        W49438   5.329  44.055  14.935
77910W        W49439  19.782  12.665   3.271
77911W        W49440   0.250  27.965   0.323
77912W        W49441  33.100  29.716  11.578
77913W        W49442  37.470  29.425  14.847
77914W        W49443  44.185   0.940   1.065
77915W        W49444   5.635   6.248  12.121
77916W        W49445   1.204   4.440  11.089
77917W        W49446  36.426  24.982   1.897
77918W        W49447   2.388  27.194  14.945
77919W        W49448  12.564  16.164   1.678
77920W        W49449  24.214  12.560   2.763
77921W        W49450  32.152   1.528  12.016
77922W        W49451   6.491  37.141   0.091
77923W        W49452  31.849  36.959  13.941
77924W        W49453  38.758   7.201  12.101
77925W        W49454  38.594   2.937  12.046
77926W        W49455  17.623  24.489  14.031
77927W        W49456  22.720  26.243   4.617
77928W        W49457  35.054   0.922  12.383
77929W        W49458  29.461   3.273   3.332
77930W        W49459  26.625  44.694   4.818
77931W        W49460  41.471  37.056   4.785
77932W        W49461  21.057  42.932   1.062
77933W        W49462  34.408  44.826  14.005
77934W        W49463  12.411  27.721   3.654
77935W        W49464   0.943  43.894   0.278
77936W        W49465  39.070  16.752  14.494
77937W        W49466  33.115  42.754  12.889
77938W        W49467   6.618  23.879   1.572
77939W        W49468  27.134  44.375  13.857
77940W        W49469  37.035   0.728  12.502
77941W        W49470  17.278  32.403   0.497
77942W        W49471  27.660  29.976  10.704
77943W        W49472  38.755  17.119   3.779
77944W        W49473  26.453   5.804   4.648
77945W        W49474  36.406  42.075  12.138
77946W        W49475  11.265   2.025  12.023
77947W        W49476  13.586   1.142  14.429
77948W        W49477   8.400  30.924   3.653
77949W        W49478   6.363  44.561   3.341
77950W        W49479  43.446  34.622   0.771
77951W        W49480  11.246  23.657  11.340
77952W        W49481  10.156  32.171  12.524
77953W        W49482  43.385   4.642  11.481
77954W        W49483  27.005  12.602   3.074
77955W        W49484  23.487  31.713  13.479
77956W        W49485  24.200  19.687  12.123
77957W        W49486  19.017  44.387  13.425
77958W        W49487  34.031  20.501   1.747
77959W        W49488  39.814  32.627  10.921
77960W        W49489  15.667  10.920   2.116
77961W        W49490  13.834  36.017   1.194
77962W        W49491  42.953  21.210   4.905
77963W        W49492  12.336  38.062   3.261
77964W        W49493  13.379  38.884  10.694
77965W        W49494   0.340  25.525  14.186
77966W        W49495  43.864  33.430  14.894
77967W        W49496  37.615  23.642  11.092
77968W        W49497  35.333  26.891  13.151
77969W        W49498  24.243   6.748  11.376
77970W        W49499  41.669  34.227   4.234
77971W        W49500  27.303  33.754   4.081
77972W        W49501  19.763  17.297  13.942
77973W        W49502  27.258   3.603  12.926
77974W        W49503   8.352  26.325   1.873
77975W        W49504   8.863  17.538  12.858
77976W        W49505   8.184  19.584   3.329
77977W        W49506   4.708  17.550   1.953
77978W        W49507  15.409   5.027  11.823
77979W        W49508  37.029  37.162  12.984
77980W        W49509  37.502  35.095  14.367
77981W        W49510  17.631  21.512   3.534
77982W        W49511  35.445  42.782  12.895
77983W        W49512  30.130  24.718  12.881
77984W        W49513  37.650  13.952   4.580
77985W        W49514  42.341   1.478  14.453
77986W        W49515  24.615   6.699   2.964
77987W        W49516  16.843  22.500   2.431
77988W        W49517  28.400  11.723   2.200
77989W        W49518  34.352  17.800  14.606
77990W        W49519  37.821  32.383  11.461
77991W        W49520  27.021  30.346   3.318
77992W        W49521  17.298   9.300  14.067
77993W        W49522  13.228  42.369  11.978
77994W        W49523  36.303  22.180  11.965
77995W        W49524  39.627   9.403   2.918
77996W        W49525  41.211  13.399  13.063
77997W        W49526  10.106  26.416   4.057
77998W        W49527  33.081   4.658   3.920
77999W        W49528  34.055  37.308   0.552
78000W        W49529  10.452  15.278  10.478
78001W        W49530  23.038  11.655  14.275
78002W        W49531  25.004  35.414   1.874
78003W        W49532   5.477  18.347  12.144
78004W        W49533  26.087  10.665   2.158
78005W        W49534  16.653  42.418   4.944
78006W        W49535  31.843  42.909  11.415
78007W        W49536  34.966   9.495   1.853
78008W        W49537  23.080  23.964   2.412
78009W        W49538   7.440  37.173   3.221
78010W        W49539  26.941   3.806  14.785
78011W        W49540   2.268  30.095  14.351
78012W        W49541  22.785  23.613  10.990
78013W        W49542  39.929  37.296   4.340
78014W        W49543  33.376   9.129   2.163
78015W        W49544  22.235  37.981   1.280
78016W        W49545  38.498   9.409  10.407
78017W        W49546  16.915  27.520  14.894
78018W        W49547  18.421   2.536  13.654
78019W        W49548  37.928   2.019  11.650
78020W        W49549  16.394  39.827  13.900
78021W        W49550  33.230  25.068   3.770
78022W        W49551   9.978  23.285   4.574
78023W        W49552  41.561  12.604  14.498
78024W        W49553  44.965  27.482  12.838
78025W        W49554   4.930   6.671   4.905
78026W        W49555  42.870  28.697  12.649
78027W        W49556  20.850  14.799   0.375
78028W        W49557   7.380   5.112   1.219
78029W        W49558  33.860   4.968   3.807
78030W        W49559  26.630  30.242  13.848
78031W        W49560  28.638  38.245  13.433
78032W        W49561  21.418  22.381  14.406
78033W        W49562  23.035  21.557  10.645
78034W        W49563   0.981  32.991  14.999
78035W        W49564  40.611  38.672  13.037
78036W        W49565  11.891  14.085   9.913
78037W        W49566   7.107  10.868  12.093
78038W        W49567  41.592  36.050  12.837
78039W        W49568  23.113  14.605   1.389
78040W        W49569  22.620  32.973   0.038
78041W        W49570  12.740  29.828  11.151
78042W        W49571  42.481  26.134   4.133
78043W        W49572  35.092  26.087   2.287
78044W        W49573  41.455  35.843  13.321
78045W        W49574  10.577   3.985   3.659
78046W        W49575   8.049  12.817  12.713
78047W        W49576   9.338  37.008   2.748
78048W        W49577  20.582  43.425   2.197
78049W        W49578  34.062  41.929   0.744
78050W        W49579  20.314  36.030  13.192
78051W        W49580  34.498  33.497   0.944
78052W        W49581  10.080  35.341   2.661
78053W        W49582  25.877  10.116  11.998
78054W        W49583   5.342  31.210   4.559
78055W        W49584  25.983   3.704   1.486
78056W        W49585   2.586   2.123   3.712
78057W        W49586   8.236   5.388   1.996
78058W        W49587  29.089  11.264  14.759
78059W        W49588  10.644   8.556  13.768
78060W        W49589  30.108  10.345   3.627
78061W        W49590  13.179  20.167  11.207
78062W        W49591  40.214  35.319   1.240
78063W        W49592  13.756  14.820  12.819
78064W        W49593  35.759  29.609   0.112
78065W        W49594  35.645  27.110  14.405
78066W        W49595   9.643  20.631   2.351
78067W        W49596  19.027   5.447  14.466
78068W        W49597  15.977  20.526   2.074
78069W        W49598   5.384   9.729  10.627
78070W        W49599  32.556   8.168  12.435
78071W        W49600   6.913  28.838  12.333
78072W        W49601  23.017   9.605   0.598
78073W        W49602  18.522   8.926  13.992
78074W        W49603  18.843  19.995  14.325
78075W        W49604   5.437   2.242   4.422
78076W        W49605   2.308  21.244  13.810
78077W        W49606  10.460  35.273  14.364
78078W        W49607   4.336  39.930  12.513
78079W        W49608   0.456  11.538   3.242
78080W        W49609  33.925  17.579   4.396
78081W        W49610  35.758  37.574  13.202
78082W        W49611   8.606   8.872   4.161
78083W        W49612   9.469  21.822  12.103
78084W        W49613   5.797  31.904   3.241
78085W        W49614  44.736  29.199  11.921
78086W        W49615  26.010  38.301   3.259
78087W        W49616  13.752  23.612   3.603
78088W        W49617   3.922  13.559  14.056
78089W        W49618  22.047  27.141   0.846
78090W        W49619  25.486   7.882   2.452
78091W        W49620  27.196   7.960   4.156
78092W        W49621  41.888  18.141  14.951
78093W        W49622  21.052  32.427   0.198
78094W        W49623  26.101  43.469  11.833
78095W        W49624   1.942   0.321   0.878
78096W        W49625  43.428  38.437   0.383
78097W        W49626  24.055  33.102  12.810
78098W        W49627  22.077  30.422  11.703
78099W        W49628  22.810  26.913  11.884
78100W        W49629   1.983  27.092   1.875
78101W        W49630   2.186  15.358   3.748
78102W        W49631  34.985  43.731  14.307
78103W        W49632  17.675  19.508   0.933
78104W        W49633  20.621  22.557   1.736
78105W        W49634  33.882  19.765  11.565
78106W        W49635  12.094   9.358  10.770
78107W        W49636   2.460  38.199  12.656
78108W        W49637  37.132  28.710   1.836
78109W        W49638  38.758   9.968  14.825
78110W        W49639  25.140  16.753  14.268
78111W        W49640   8.370  33.094  12.992
78112W        W49641  18.068  15.556   3.543
78113W        W49642  15.666  29.191  12.516
78114W        W49643  11.388  20.030  11.407
78115W        W49644  23.989  24.575   0.222
78116W        W49645  36.127  21.743  14.787
78117W        W49646  12.687  38.357   1.191
78118W        W49647  22.796  38.065   1.961
78119W        W49648   1.654  25.051   3.699
78120W        W49649  24.449  39.749  13.633
78121W        W49650  20.490  40.463   0.869
78122W        W49651  33.168  24.212   2.271
78123W        W49652  42.227  34.620   3.177
78124W        W49653  15.080  13.103  10.515
78125W        W49654   5.248   9.566  11.533
78126W        W49655  12.573  21.517  12.802
78127W        W49656   7.501  25.604   4.867
78128W        W49657  26.493  41.041   0.269
78129W        W49658  19.587  31.391  13.467
78130W        W49659  36.842  13.516  12.381
78131W        W49660  23.676   3.648  10.754
78132W        W49661  24.653  17.108   0.302
78133W        W49662  43.536  10.258  12.061
78134W        W49663   9.381  10.464  10.229
78135W        W49664  16.169  39.001   1.386
78136W        W49665  33.699  25.462  11.732
78137W        W49666  27.387   8.666   1.847
78138W        W49667  26.685  23.649   2.368
78139W        W49668  21.056   8.905   3.757
78140W        W49669  24.223  30.329   0.852
78141W        W49670   7.119  43.971   4.060
78142W        W49671  30.108  12.854   4.526
78143W        W49672  42.466  42.465   2.706
78144W        W49673  23.972   7.658  13.331
78145W        W49674  40.391   7.505  10.745
78146W        W49675  24.550  15.881   2.470
78147W        W49676   3.288  11.634   4.100
78148W        W49677  18.660  43.043  12.442
78149W        W49678   0.063  22.108  11.589
78150W        W49679  18.652  27.470   2.131
78151W        W49680  11.619   8.256   1.272
78152W        W49681  36.862  18.190   2.178
78153W        W49682   1.950  29.888   3.101
78154W        W49683   4.482  18.654  14.939
78155W        W49684  24.617  15.316   3.309
78156W        W49685  26.935  16.890  10.172
78157W        W49686  32.105  19.049  11.581
78158W        W49687  15.258  42.297  13.957
78159W        W49688  17.739  18.519  11.971
78160W        W49689  12.373  34.593   0.173
78161W        W49690  44.377   8.651  14.368
78162W        W49691   6.627  34.005  14.955
78163W        W49692   9.047   2.043  13.518
78164W        W49693  38.513   9.034  11.559
78165W        W49694  15.841  16.983   2.310
78166W        W49695  10.404   9.507   4.892
78167W        W49696  16.614   5.658   1.876
78168W        W49697  34.471   4.560   4.984
78169W        W49698   8.979  25.556   1.827
78170W        W49699  16.078  29.855  11.651
78171W        W49700   2.826   7.558   0.160
78172W        W49701  34.767   4.844  13.463
78173W        W49702  11.337  43.784  12.584
78174W        W49703  40.522  15.250   1.256
78175W        W49704  40.555   3.145  12.906
78176W        W49705  22.409  25.153  14.856
78177W        W49706  29.865   1.187   3.627
78178W        W49707  42.887  24.363   1.289
78179W        W49708  18.833  27.699  11.039
78180W        W49709  38.020  36.294  14.833
78181W        W49710  27.202  35.571   0.867
78182W        W49711  31.462  25.221  12.566
78183W        W49712  37.807  41.561  13.057
78184W        W49713  41.345   8.175  11.532
78185W        W49714  22.013  13.935   4.121
78186W        W49715   9.563  30.092   4.748
78187W        W49716  23.066   7.172  12.676
78188W        W49717   9.764   8.316   3.816
78189W        W49718  22.340  31.234  10.586
78190W        W49719  18.105  25.913   1.736
78191W        W49720  40.156  20.138  11.255
78192W        W49721  23.779  26.736  10.679
78193W        W49722  32.504  39.062  11.512
78194W        W49723  17.737  31.917   2.881
78195W        W49724   7.712  18.692  13.901
78196W        W49725   2.354  38.547  14.758
78197W        W49726  12.581  31.667  10.719
78198W        W49727   8.757  38.380   1.407
78199W        W49728  42.492  33.070  11.057
78200W        W49729  43.891  33.721   0.729
78201W        W49730   1.379  12.331  14.010
78202W        W49731  37.510  28.165  12.718
78203W        W49732  27.169  25.111   0.266
78204W        W49733  15.719  18.114  10.408
78205W        W49734  42.096  39.855   2.291
78206W        W49735   9.147  32.599   1.809
78207W        W49736  38.435  24.152   1.199
78208W        W49737  42.766  34.047   0.335
78209W        W49738   5.288   0.346  13.256
78210W        W49739   5.767  22.799   3.153
78211W        W49740  42.720  14.329   2.787
78212W        W49741  34.420  21.512  12.418
78213W        W49742  28.172  28.398  11.894
78214W        W49743  36.355  21.733   3.294
78215W        W49744  41.924  42.885  13.583
78216W        W49745  21.997   0.985   2.887
78217W        W49746   6.837   0.749  11.761
78218W        W49747  30.672  41.730   1.039
78219W        W49748  44.035  16.323   2.681
78220W        W49749  40.569  27.536  12.026
78221W        W49750  15.103   5.264   1.759
78222W        W49751  11.817  35.317   4.744
78223W        W49752  29.566   9.951  12.112
78224W        W49753  23.729  30.443   0.890
78225W        W49754  31.020  28.574   4.061
78226W        W49755  31.418  28.067  14.824
78227W        W49756  16.158  12.351   0.416
78228W        W49757  32.471  41.357   0.730
78229W        W49758  38.472   6.912   1.336
78230W        W49759  11.810  27.695  11.070
78231W        W49760  24.088  14.600  14.777
78232W        W49761  36.117  35.022   2.202
78233W        W49762  44.283  31.093   0.989
78234W        W49763  25.739  31.069   4.356
78235W        W49764  18.180  11.272  11.637
78236W        W49765  33.494  16.231   2.444
78237W        W49766  42.961  16.184  10.472
78238W        W49767  42.263   1.443  13.575
78239W        W49768  29.384  38.495  13.016
78240W        W49769  14.743   0.127  11.594
78241W        W49770  29.714  28.254   4.114
78242W        W49771  27.582  37.205   1.857
78243W        W49772  11.765  34.062  10.915
78244W        W49773  33.861   7.290  13.106
78245W        W49774   4.100  32.215   3.190
78246W        W49775  16.511  44.813   4.044
78247W        W49776  44.611   8.692   0.354
78248W        W49777  34.263  20.223   2.682
78249W        W49778   6.787   2.562  11.934
78250W        W49779  36.331   4.857   1.803
78251W        W49780  31.669   6.809  12.071
78252W        W49781  41.887  23.674  12.661
78253W        W49782  12.042  11.982  11.728
78254W        W49783  15.655  35.143  12.344
78255W        W49784  26.394  37.514   2.888
78256W        W49785  26.972  20.042  14.920
78257W        W49786  33.059   4.730  14.101
78258W        W49787  35.608  33.093  11.644
78259W        W49788  10.178  15.673   3.393
78260W        W49789  39.575  43.871  12.365
78261W        W49790  32.544  33.035  14.374
78262W        W49791   5.242  29.402   2.624
78263W        W49792  39.476  29.120  13.088
78264W        W49793  19.292  36.344  10.752
78265W        W49794   8.277   7.259  13.273
78266W        W49795  36.556   3.835  12.085
78267W        W49796  29.150   3.008   1.122
78268W        W49797  40.991  21.813   1.751
78269W        W49798  22.045  31.149   0.599
78270W        W49799   8.837  25.067  14.965
78271W        W49800  16.984   9.383   3.244
78272W        W49801  34.675  38.121   1.426
78273W        W49802   1.372  27.936  12.496
78274W        W49803   0.006   4.867   3.818
78275W        W49804   3.134  22.581   4.940
78276W        W49805   5.453  22.713  11.988
78277W        W49806  20.653  24.028   4.660
78278W        W49807  19.069  16.897  14.380
78279W        W49808  10.217  31.853  11.566
78280W        W49809  41.031  29.992  13.945
78281W        W49810  33.867  38.495  10.683
78282W        W49811   7.973   5.323  11.158
78283W        W49812  18.701  21.468  12.198
78284W        W49813   2.812  29.146  13.819
78285W        W49814  26.743  44.629   2.540
78286W        W49815  21.028   8.184  14.820
78287W        W49816   4.366   4.712   3.324
78288W        W49817  34.952  23.229  13.445
78289W        W49818  40.184   8.715   5.123
78290W        W49819   1.305  39.434   3.763
78291W        W49820  31.557   9.827  14.574
78292W        W49821  43.990   7.100  12.148
78293W        W49822  17.291  24.744   4.949
78294W        W49823   7.259  33.371   3.575
78295W        W49824   8.327  42.833   4.297
78296W        W49825   6.877  19.331   2.738
78297W        W49826  33.834  23.498  14.893
78298W        W49827   8.885  15.242  14.146
78299W        W49828  12.635  37.387  10.990
78300W        W49829  10.248  12.575  12.785
78301W        W49830  22.043   1.066   0.291
78302W        W49831  43.367  14.146  14.155
78303W        W49832  25.063  20.605  10.672
78304W        W49833   0.569  26.229  11.183
78305W        W49834   7.409  31.520  11.709
78306W        W49835  18.725   5.810  10.768
78307W        W49836  12.428   2.383  13.069
78308W        W49837  30.691  42.817  12.496
78309W        W49838  43.531   5.947   3.452
78310W        W49839  16.684  18.332   0.303
78311W        W49840  28.468  38.477   0.766
78312W        W49841  26.754  37.223  12.597
78313W        W49842  22.643  18.287   3.238
78314W        W49843   7.280  24.627   2.705
78315W        W49844  20.575  39.128  13.736
78316W        W49845  30.860   5.625   4.887
78317W        W49846  26.779   8.796   0.229
78318W        W49847  18.543  23.038   1.149
78319W        W49848  15.897  44.182  12.063
78320W        W49849   6.914  23.281   3.734
78321W        W49850   9.092  12.785  13.594
78322W        W49851   2.626   1.933  12.018
78323W        W49852  23.453  37.616  10.734
78324W        W49853  36.624   3.351   1.210
78325W        W49854  13.120   6.466  10.915
78326W        W49855  30.135  10.388   0.343
78327W        W49856  16.714  29.076  12.790
78328W        W49857  18.167  44.301   2.675
78329W        W49858  38.020  28.839   2.118
78330W        W49859  43.843  42.433  14.488
78331W        W49860  31.579  37.424   4.247
78332W        W49861  11.728   5.330   4.477
78333W        W49862  15.332   0.927  11.580
78334W        W49863  31.791  44.448  13.419
78335W        W49864  30.831  34.953   3.648
78336W        W49865  23.693  22.612   2.700
78337W        W49866  21.388  25.253  10.863
78338W        W49867  13.058   3.625   0.734
78339W        W49868  21.830  18.149  14.560
78340W        W49869  32.005  23.529  13.790
78341W        W49870  10.163  32.548  13.987
78342W        W49871   3.843  27.425   2.362
78343W        W49872   0.535  18.210  11.876
78344W        W49873  19.549   2.278   2.843
78345W        W49874   5.316  21.007   3.679
78346W        W49875  39.563  16.178  13.498
78347W        W49876  12.111   5.352  14.924
78348W        W49877  44.207  33.915  11.024
78349W        W49878  36.109  32.526  11.127
78350W        W49879  39.878  13.109  12.043
78351W        W49880  28.019  13.273  14.366
78352W        W49881  30.212   7.197   3.337
78353W        W49882  24.698  31.055  10.424
78354W        W49883   0.953  17.342  12.455
78355W        W49884  14.585   7.681   2.736
78356W        W49885  26.275  23.371   2.623
78357W        W49886  41.100  27.123   3.105
78358W        W49887  10.295  28.009   1.941
78359W        W49888  44.779   2.703  13.078
78360W        W49889   8.756  21.927  11.704
78361W        W49890   3.940   1.586  12.368
78362W        W49891  12.707  30.245   4.560
78363W        W49892   0.562  37.847   4.119
78364W        W49893   2.748  18.542   1.321
78365W        W49894  30.278  14.670   4.155
78366W        W49895  40.951  17.452  12.041
78367W        W49896  24.469  29.860   2.355
78368W        W49897  28.462  18.130  12.956
78369W        W49898  17.351  16.765  12.876
78370W        W49899  30.675  11.293  13.878
78371W        W49900  29.390  16.729   4.752
78372W        W49901  43.212   4.333  10.492
78373W        W49902  29.710  20.219  12.935
78374W        W49903  29.971   0.400  14.061
78375W        W49904   7.631  41.474  14.405
78376W        W49905   1.261  30.273  14.459
78377W        W49906  44.013  29.657   2.872
78378W        W49907  44.396  12.661  13.585
78379W        W49908  22.488   1.786  11.914
78380W        W49909  10.130  38.355  11.621
78381W        W49910   6.190   3.923  13.081
78382W        W49911  34.548   7.071  12.421
78383W        W49912  30.798  44.781  12.621
78384W        W49913  36.516  30.240  10.764
78385W        W49914  44.436   0.360   0.748
78386W        W49915  19.576  42.942   2.741
78387W        W49916  41.813   1.663  12.009
78388W        W49917   0.487  13.797   1.697
78389W        W49918  40.337  41.585  11.414
78390W        W49919   3.820  36.304   3.183
78391W        W49920  11.372   3.465   3.345
78392W        W49921  15.179  37.965   0.725
78393W        W49922  26.982  37.499  12.189
78394W        W49923   8.312  42.070  14.376
78395W        W49924  38.991  33.404   0.985
78396W        W49925  30.532   3.789   2.766
78397W        W49926  21.020  10.173  11.221
78398W        W49927  26.596  35.619   2.723
78399W        W49928  16.263   5.216  11.227
78400W        W49929  16.079   4.205   3.836
78401W        W49930  35.992  38.536  12.919
78402W        W49931  17.940  23.245   2.389
78403W        W49932  30.075  14.691   3.274
78404W        W49933  32.556   7.814   0.188
78405W        W49934   7.000  30.649   0.757
78406W        W49935   8.911  15.858  14.742
78407W        W49936  39.716   8.868  13.136
78408W        W49937  23.679  15.263   3.066
78409W        W49938   4.987  25.218  10.828
78410W        W49939  17.237  19.722   2.167
78411W        W49940  17.545  41.428   3.771
78412W        W49941   9.185  14.884  10.920
78413W        W49942   1.319  23.335   1.675
78414W        W49943  21.091  12.747  12.411
78415W        W49944  29.119  29.085  12.583
78416W        W49945  16.080  40.804  13.370
78417W        W49946   6.153   8.617  12.057
78418W        W49947   0.340  41.778  11.897
78419W        W49948  44.461  13.426  14.901
78420W        W49949  10.269  23.659   2.512
78421W        W49950  35.917  21.145   1.003
78422W        W49951  18.640  23.663   1.959
78423W        W49952  28.104   4.151  14.740
78424W        W49953  34.376   5.265  12.585
78425W        W49954  17.310  25.669   0.744
78426W        W49955  37.930  35.019   2.880
78427W        W49956  28.452   7.701   1.252
78428W        W49957  13.334  42.170  11.514
78429W        W49958   9.933   4.689  13.300
78430W        W49959  31.467   8.196   0.664
78431W        W49960  33.211  41.981   1.952
78432W        W49961  43.037  10.706   4.573
78433W        W49962  41.027  37.323   4.979
78434W        W49963  24.112  11.075   0.449
78435W        W49964  17.006  10.301  11.333
78436W        W49965   3.163  39.067   1.840
78437W        W49966  10.723   9.634  10.754
78438W        W49967  38.641  34.149   3.507
78439W        W49968   5.917  31.058  14.867
78440W        W49969   3.878  22.553  12.064
78441W        W49970  36.186  27.059   2.291
78442W        W49971  14.762  21.245   4.138
78443W        W49972  25.008  25.754   4.601
78444W        W49973  41.848   8.423   1.858
78445W        W49974  19.351  16.546  14.933
78446W        W49975   4.226  18.785  13.972
78447W        W49976  10.597   7.121   2.139
78448W        W49977  31.241  30.560   3.650
78449W        W49978  31.959   2.142   1.812
78450W        W49979  26.457  16.606  13.049
78451W        W49980  35.494  17.517  10.971
78452W        W49981  40.338   6.603   3.175
78453W        W49982   0.380  39.396   4.599
78454W        W49983  17.715  23.102   0.766
78455W        W49984  17.558   4.778  10.743
78456W        W49985  39.205   8.776   4.120
78457W        W49986   4.653   8.507   3.686
78458W        W49987  20.487  41.810   2.774
78459W        W49988  28.165  10.354   2.248
78460W        W49989   1.303  29.530  12.950
78461W        W49990   0.393  41.372  11.559
78462W        W49991  19.301  13.804  14.255
78463W        W49992  38.676  30.164   2.328
78464W        W49993  22.472  31.368   2.380
78465W        W49994  38.475  35.694  12.517
78466W        W49995   8.345  23.071   0.552
78467W        W49996  28.708  41.821  13.112
78468W        W49997  19.652  35.592  12.003
78469W        W49998  11.110  31.274  14.610
78470W        W49999  43.532   4.166   4.010
78471W        W50000   0.453   6.637   3.586
78472W        W50001   3.669  19.645   4.620
78473W        W50002   6.133  16.327   4.548
78474W        W50003  28.462  40.545   4.208
78475W        W50004  28.880  18.012  13.361
78476W        W50005  13.744   5.252   1.356
78477W        W50006  25.102  39.341  14.512
78478W        W50007  30.938   5.340  10.549
78479W        W50008  30.628  40.860   2.386
78480W        W50009  18.720  16.757   0.694
78481W        W50010  30.720  26.091  13.257
78482W        W50011  38.290  11.233   0.628
78483W        W50012  37.063  31.699   0.872
78484W        W50013  36.978   6.285   3.353
78485W        W50014  15.659  32.367  13.905
78486W        W50015  22.460   4.743   3.406
78487W        W50016   0.306  40.436   3.733
78488W        W50017  33.541  17.660  12.473
78489W        W50018   5.589  41.518   3.707
78490W        W50019   5.903  36.965   2.330
78491W        W50020   2.725  35.140   1.349
78492W        W50021  21.995  13.099  12.085
78493W        W50022  17.312  30.990   1.441
78494W        W50023  40.468   0.883   4.976
78495W        W50024  12.396  21.325   1.416
78496W        W50025  23.675  16.736   1.918
78497W        W50026  24.094  23.532   4.656
78498W        W50027  40.263   3.727   0.760
78499W        W50028  28.629  40.496  13.982
78500W        W50029   9.170  30.840  11.464
78501W        W50030   8.345   5.908   2.420
78502W        W50031  28.134  10.337  14.302
78503W        W50032   8.266  27.526   3.291
78504W        W50033  25.738  41.471  11.094
78505W        W50034  24.798  22.297   3.775
78506W        W50035  28.026  38.964  14.762
78507W        W50036   7.368  42.264   2.762
78508W        W50037  25.988  11.305   0.453
78509W        W50038  10.797  23.457   1.647
78510W        W50039  23.049  28.484   4.594
78511W        W50040  33.438  21.330  14.403
78512W        W50041  34.551  32.095  12.998
78513W        W50042  22.526   9.776   0.450
78514W        W50043  38.981  31.459  14.429
78515W        W50044  20.500  19.416   0.996
78516W        W50045  24.749  17.687  13.887
78517W        W50046  25.026   3.315  13.479
78518W        W50047   1.173  22.914  13.001
78519W        W50048   4.387   4.496  13.742
78520W        W50049  15.443  35.045   1.101
78521W        W50050  15.207  33.098   1.233
78522W        W50051  28.404   5.825   1.386
78523W        W50052  29.008  17.628   2.434
78524W        W50053  13.156  27.451   2.625
78525W        W50054  14.274  20.641  11.915
78526W        W50055  24.966  14.500  12.475
78527W        W50056   0.474  21.466  13.978
78528W        W50057  40.826  44.290  11.728
78529W        W50058   6.393  30.657  11.541
78530W        W50059   1.331  42.542  14.228
78531W        W50060  37.200  34.171   2.402
78532W        W50061  16.369  38.468  11.331
78533W        W50062  35.518  26.644   4.169
78534W        W50063  41.109  36.068  12.987
78535W        W50064  13.227  30.493  12.967
78536W        W50065   9.793  36.071   0.811
78537W        W50066   6.454   1.076   4.090
78538W        W50067  21.147  15.025   3.352
78539W        W50068  31.324  34.767  11.546
78540W        W50069   9.198   9.577   3.621
78541W        W50070   7.879   6.269   4.640
78542W        W50071  32.381  37.391   5.134
78543W        W50072  36.516  15.330  12.108
78544W        W50073  23.261  27.304  11.217
78545W        W50074  16.565   3.024   2.818
78546W        W50075  34.612  29.928   0.415
78547W        W50076  10.882   3.916   1.252
78548W        W50077   9.636  36.861   0.463
78549W        W50078  30.929  12.725  12.995
78550W        W50079   1.235  34.329   0.677
78551W        W50080  35.113  24.683   1.883
78552W        W50081  25.498  16.304   3.714
78553W        W50082  29.018  39.376  14.085
78554W        W50083   0.502  10.863  11.967
78555W        W50084  33.930  23.934   2.557
78556W        W50085  19.125  24.496  13.307
78557W        W50086  27.535   6.252   2.916
78558W        W50087  16.981  37.320   0.885
78559W        W50088  42.445  44.061   2.241
78560W        W50089  29.704  18.598  11.658
78561W        W50090  18.619  22.722   4.557
78562W        W50091  25.201  12.384   0.844
78563W        W50092  29.539  19.857   3.305
78564W        W50093  41.339  29.358   1.915
78565W        W50094  26.246  16.681  11.909
78566W        W50095  39.544  25.642  12.610
78567W        W50096   3.934  34.400   1.318
78568W        W50097   4.874  11.734  13.339
78569W        W50098  41.000  28.391   0.318
78570W        W50099   2.283  41.272   2.219
78571W        W50100   8.492  31.951  13.295
78572W        W50101   9.037  29.918   0.449
78573W        W50102  43.814  13.719  12.916
78574W        W50103  14.803  33.812   3.154
78575W        W50104  16.072  41.078  11.166
78576W        W50105  12.608  42.320  13.061
78577W        W50106   3.312  30.969  12.027
78578W        W50107   9.489  12.046  10.886
78579W        W50108  26.151  20.851   2.145
78580W        W50109   8.810  29.749   4.604
78581W        W50110  29.945  32.836   1.947
78582W        W50111  41.544  40.578   3.715
78583W        W50112   8.166  26.204   3.921
78584W        W50113  18.062  29.391  13.007
78585W        W50114   1.267   6.928   0.093
78586W        W50115   5.228  11.066  11.592
78587W        W50116  30.932  33.884  11.474
78588W        W50117  26.074  12.769  14.858
78589W        W50118   9.598  32.428   4.073
78590W        W50119  39.912  13.144   1.175
78591W        W50120  41.750  42.365   2.246
78592W        W50121  13.637  39.331  14.423
78593W        W50122  16.848  31.231   1.281
78594W        W50123  40.643  17.662   3.791
78595W        W50124  14.060  31.618   1.817
78596W        W50125  39.845  39.337  12.125
78597W        W50126   6.707  43.974   2.152
78598W        W50127  29.206  12.890   4.690
78599W        W50128  37.610  35.883   2.258
78600W        W50129  24.643  24.973  13.323
78601W        W50130  44.822  27.907   2.167
78602W        W50131  19.003   2.097   4.158
78603W        W50132  12.806   1.529  12.937
78604W        W50133  29.497  39.881  14.703
78605W        W50134   2.117  41.562  13.916
78606W        W50135   9.380  19.983   1.905
78607W        W50136  36.913  27.616  12.233
78608W        W50137  27.998   3.164   5.046
78609W        W50138  36.037   4.837   1.204
78610W        W50139   9.566   9.182  12.990
78611W        W50140  24.274  36.163  14.813
78612W        W50141  38.571  32.089  13.456
78613W        W50142  24.493  21.810  10.627
78614W        W50143  32.445  28.946  10.988
78615W        W50144   3.271  20.978   4.096
78616W        W50145  21.121   0.848   0.393
78617W        W50146  23.196   6.159   3.561
78618W        W50147  40.853  37.482  14.476
78619W        W50148   2.207   8.900   1.364
78620W        W50149  33.265  39.710  12.673
78621W        W50150  31.138  14.200  13.803
78622W        W50151  24.239   6.512   3.996
78623W        W50152   0.808  44.953  14.436
78624W        W50153   8.353   6.976   4.239
78625W        W50154  16.647  22.482  10.097
78626W        W50155  31.991   5.072  11.925
78627W        W50156  17.549   6.773  13.889
78628W        W50157   7.401  43.314   1.483
78629W        W50158   0.587  39.390   3.095
78630W        W50159  17.598  40.077   4.289
78631W        W50160  27.738   2.444  10.406
78632W        W50161  28.105   9.390  12.767
78633W        W50162  31.056  30.447   2.052
78634W        W50163   0.914  12.171  14.186
78635W        W50164   3.941  16.898  13.230
78636W        W50165  12.143  14.321  10.784
78637W        W50166  23.515  17.355  11.599
78638W        W50167  36.561  18.204  11.824
78639W        W50168  33.822   1.568  12.949
78640W        W50169  34.515   2.258  14.478
78641W        W50170  34.467  30.980   1.326
78642W        W50171   1.119  24.088  14.606
78643W        W50172   6.374  37.879   2.129
78644W        W50173   2.861  19.770   0.482
78645W        W50174  31.630   6.431  14.565
78646W        W50175   3.327  22.896  11.489
78647W        W50176  21.995  17.714   3.734
78648W        W50177  14.630  44.522  14.909
78649W        W50178  22.071   8.066   1.940
78650W        W50179  17.210  31.510   0.276
78651W        W50180   9.144  44.307  10.619
78652W        W50181  16.958  18.542   1.461
78653W        W50182  31.884   4.575  12.027
78654W        W50183   3.439  18.176   2.858
78655W        W50184  39.933  38.590  11.581
78656W        W50185  41.462   4.871   2.573
78657W        W50186  13.060  16.121   1.760
78658W        W50187  34.040  22.685   3.763
78659W        W50188  21.515  33.489   3.452
78660W        W50189  34.505  13.098   0.777
78661W        W50190  19.724  42.377   2.781
78662W        W50191   8.668  38.437   2.762
78663W        W50192  33.311  27.975   1.906
78664W        W50193  25.735  29.455  11.001
78665W        W50194  41.755  39.576   2.578
78666W        W50195   6.661   7.413   3.168
78667W        W50196  11.340  43.076  11.077
78668W        W50197   5.917  41.529  11.236
78669W        W50198   9.830  24.306   4.604
78670W        W50199   8.392   3.065   3.426
78671W        W50200  22.321  34.435   4.207
78672W        W50201  21.556   3.452  13.432
78673W        W50202  34.824   0.397  11.256
78674W        W50203   2.521   0.733  11.199
78675W        W50204  42.234  29.271  14.394
78676W        W50205  21.549  10.546  13.918
78677W        W50206  41.331  31.130  14.461
78678W        W50207   3.911  27.146   3.418
78679W        W50208  13.875  31.939  12.425
78680W        W50209   4.670   2.420   3.436
78681W        W50210  27.666  15.867  11.436
78682W        W50211   9.747  17.782  11.158
78683W        W50212  28.630  11.722  10.610
78684W        W50213  31.975  38.835  10.309
78685W        W50214  39.295  20.285  13.905
78686W        W50215  26.411   1.975  11.017
78687W        W50216  33.069  15.825  13.951
78688W        W50217  12.910  35.802   0.219
78689W        W50218  30.887  36.098  12.433
78690W        W50219  18.658  38.408  12.053
78691W        W50220  31.770   5.198   4.405
78692W        W50221  19.544  28.670  12.479
78693W        W50222  23.046  12.561  12.650
78694W        W50223   3.974   6.428  12.386
78695W        W50224  20.721  24.225   3.860
78696W        W50225  42.982  39.589   3.795
78697W        W50226  31.567  24.827  13.926
78698W        W50227  20.722  27.871   4.633
78699W        W50228  34.878  36.116   5.018
78700W        W50229  18.007  26.811  13.944
78701W        W50230  25.105   2.911   4.073
78702W        W50231  13.835  34.570   5.052
78703W        W50232   3.799   1.450   4.368
78704W        W50233   3.768  19.622  11.492
78705W        W50234   2.176  30.966  13.424
78706W        W50235  23.661  42.513  13.838
78707W        W50236  22.072   9.880   3.433
78708W        W50237  40.759  41.857  11.551
78709W        W50238  18.497   6.179  11.996
78710W        W50239  42.501  30.631  13.414
78711W        W50240   9.968  29.609  14.244
78712W        W50241  11.578  37.030  14.452
78713W        W50242   7.954  27.087  10.717
78714W        W50243   4.033  25.605   0.009
78715W        W50244   7.769  30.275   3.201
78716W        W50245  44.528   7.842   5.062
78717W        W50246  34.564  22.209  13.012
78718W        W50247  42.525  24.804   3.337
78719W        W50248  29.159  38.057   2.794
78720W        W50249   6.757  33.139   3.846
78721W        W50250  18.900  31.628  10.254
78722W        W50251   6.715  39.417   2.790
78723W        W50252   8.196   2.404   1.625
78724W        W50253   5.420  19.027  13.263
78725W        W50254  23.458  10.736   2.196
78726W        W50255   6.763  12.111  14.001
78727W        W50256  24.902  43.914  13.943
78728W        W50257   3.501  24.145   2.313
78729W        W50258  10.230  29.705  12.430
78730W        W50259  42.962  15.033   2.304
78731W        W50260  37.533  19.314  14.860
78732W        W50261  19.806  16.177  11.555
78733W        W50262  16.929  10.043   5.351
78734W        W50263  27.928  15.436  13.493
78735W        W50264  29.553  20.084  14.476
78736W        W50265  29.082  25.375  13.485
78737W        W50266  11.598  20.935  11.758
78738W        W50267   6.769  29.498   0.404
78739W        W50268  13.135  14.213  14.494
78740W        W50269  24.934   4.158  12.524
78741W        W50270  16.160  42.474  11.134
78742W        W50271  26.446  35.254  10.741
78743W        W50272  38.741  18.268   1.877
78744W        W50273  44.904  29.427  12.351
78745W        W50274  22.104  43.264   2.753
78746W        W50275  35.136  27.197   3.626
78747W        W50276  44.005  18.847  12.543
78748W        W50277  27.796   3.287  13.741
78749W        W50278   1.974  29.561  11.045
78750W        W50279   1.369  41.304  13.139
78751W        W50280  30.620  21.001   2.595
78752W        W50281  13.265   4.867  12.098
78753W        W50282  22.619  19.112  13.986
78754W        W50283  31.763  16.118  14.265
78755W        W50284   0.539  23.115  13.680
78756W        W50285   9.447  18.526   0.787
78757W        W50286  34.616  25.154  13.315
78758W        W50287  22.759  29.545   4.986
78759W        W50288  22.650  17.287  12.525
78760W        W50289  27.523  32.294  10.147
78761W        W50290  10.688  35.362  13.861
78762W        W50291  26.443  10.767  14.775
78763W        W50292   1.418   0.487  11.617
78764W        W50293   0.233  12.679   1.372
78765W        W50294  42.873  30.073  10.710
78766W        W50295   4.801  22.006   9.906
78767W        W50296  31.974  20.083  11.139
78768W        W50297  37.424   8.633   2.093
78769W        W50298  31.099  36.032   4.189
78770W        W50299   2.858   9.802  11.833
78771W        W50300   7.382  12.693  11.635
78772W        W50301  43.879  43.233   0.266
78773W        W50302   2.263  22.966  10.525
78774W        W50303  13.839  14.533   2.913
78775W        W50304  38.964  17.835   0.983
78776W        W50305  19.329  31.326  12.114
78777W        W50306   7.327  41.276   0.396
78778W        W50307   1.502   9.307   0.791
78779W        W50308  41.008  17.738   0.754
78780W        W50309  35.018  26.557   4.620
78781W        W50310   4.871   8.161   4.606
78782W        W50311  35.414  43.741   1.366
78783W        W50312  17.726  24.875  12.499
78784W        W50313  37.771  38.988  12.948
78785W        W50314   2.265   7.639   2.822
78786W        W50315  37.865  38.275  12.160
78787W        W50316  43.872  44.774   2.404
78788W        W50317  11.296  43.998  14.251
78789W        W50318  19.538  22.765   0.781
78790W        W50319  41.088  38.958  13.956
78791W        W50320  25.439  30.147  14.914
78792W        W50321  25.229  20.137  10.455
78793W        W50322  29.641  26.110  12.517
78794W        W50323   9.397   3.864   1.824
78795W        W50324  14.579   9.821   1.277
78796W        W50325  37.845  16.586   0.753
78797W        W50326  15.293  32.062  10.821
78798W        W50327  30.840  37.114  11.035
78799W        W50328  30.905  12.164  13.182
78800W        W50329  35.053   0.315   3.133
78801W        W50330  32.779  24.664   2.226
78802W        W50331  12.738   3.501   3.195
78803W        W50332  38.518   3.822   4.088
78804W        W50333  23.117  17.061   1.294
78805W        W50334  15.778  18.131   1.572
78806W        W50335  32.392   2.861   2.145
78807W        W50336  42.469  26.748   3.439
78808W        W50337  38.822  14.371   0.385
78809W        W50338   1.106  15.484   4.164
78810W        W50339  18.866  15.380  14.298
78811W        W50340  18.798  18.074  11.115
78812W        W50341  25.276  13.497  11.160
78813W        W50342  19.068  39.178  12.391
78814W        W50343  11.211   7.933   4.698
78815W        W50344  24.210   8.420  11.646
78816W        W50345  27.254  28.076   2.157
78817W        W50346  34.180  42.485  11.468
78818W        W50347   6.875   9.630   1.768
78819W        W50348  18.533  44.848  14.060
78820W        W50349   7.629  23.053  14.897
78821W        W50350  40.514  42.747   0.019
78822W        W50351  18.135   3.907   0.722
78823W        W50352  27.181  11.473   0.229
78824W        W50353  30.848  11.274  13.392
78825W        W50354  43.461  39.858   3.311
78826W        W50355   1.858  33.413  12.302
78827W        W50356  26.564  44.282  12.411
78828W        W50357  24.989  44.856   1.328
78829W        W50358  16.543  15.666   1.384
78830W        W50359  18.526  25.185   2.757
78831W        W50360  21.783   9.752  12.870
78832W        W50361  11.592  19.566  11.526
78833W        W50362  17.124  40.458   3.613
78834W        W50363   3.453  21.464  12.513
78835W        W50364   7.663  27.056   4.514
78836W        W50365  40.757  28.006  12.094
78837W        W50366  32.117  18.789   0.937
78838W        W50367  16.646   7.235  10.761
78839W        W50368   3.846  31.053  11.620
78840W        W50369  16.227  40.539   1.754
78841W        W50370   4.220  36.514   1.263
78842W        W50371  26.882  26.485   1.124
78843W        W50372  31.658   7.257   2.590
78844W        W50373  17.377  39.784  12.893
78845W        W50374  22.510   9.262   1.723
78846W        W50375  23.111   1.661   2.414
78847W        W50376  40.355   7.195   2.570
78848W        W50377   3.883   3.813  12.585
78849W        W50378  37.449  42.785  11.861
78850W        W50379  11.205  26.235   4.927
78851W        W50380  36.485  32.023  14.564
78852W        W50381  34.031  31.925  13.783
78853W        W50382   4.037   4.135  14.000
78854W        W50383  11.749  19.175   3.000
78855W        W50384  14.681   1.840   3.600
78856W        W50385  32.149   7.311   0.750
78857W        W50386  32.352  12.689  11.101
78858W        W50387  33.501  21.854  14.398
78859W        W50388   4.893  39.086  14.925
78860W        W50389  34.583  25.183   0.311
78861W        W50390  13.115  14.597  12.009
78862W        W50391   8.110   1.409   9.611
78863W        W50392  21.211  19.932  12.696
78864W        W50393  14.149  19.701   4.550
78865W        W50394  25.106   3.028   0.904
78866W        W50395  23.643  27.703  12.805
78867W        W50396  31.388   0.413   4.492
78868W        W50397  36.013  33.823  11.187
78869W        W50398  10.826   4.425   2.009
78870W        W50399  28.863  12.907  14.325
78871W        W50400   7.314  19.581   2.808
78872W        W50401  40.951   6.515  12.154
78873W        W50402   3.216  12.364   1.662
78874W        W50403  16.999  20.471   3.129
78875W        W50404  34.814  38.376   1.892
78876W        W50405  29.020   0.625  14.273
78877W        W50406  31.418  17.089   4.404
78878W        W50407  18.753   8.243   0.507
78879W        W50408   8.833  35.066   4.344
78880W        W50409   4.323  43.483   1.724
78881W        W50410   0.057  24.223   3.479
78882W        W50411  42.376  34.738   4.362
78883W        W50412  15.735  28.960  10.272
78884W        W50413  15.630   2.904   1.372
78885W        W50414   8.020  31.183  13.373
78886W        W50415  29.637  15.086   3.984
78887W        W50416  13.587  13.330  11.278
78888W        W50417  21.611  42.892  10.928
78889W        W50418  41.067  15.119   0.468
78890W        W50419  32.170   2.749  12.531
78891W        W50420  12.644  26.082  12.531
78892W        W50421  25.985  26.117   0.192
78893W        W50422  17.063  11.768  12.570
78894W        W50423  17.767  43.871   4.140
78895W        W50424  27.146   6.415   1.397
78896W        W50425  15.771  25.916   0.451
78897W        W50426  16.856  37.655  12.338
78898W        W50427   3.222  17.892  11.134
78899W        W50428  20.794  33.751   4.986
78900W        W50429  11.871  32.487   0.809
78901W        W50430  28.838  32.324   9.669
78902W        W50431  44.819  43.049   3.900
78903W        W50432  32.339  42.913  11.544
78904W        W50433  13.683  26.078   3.567
78905W        W50434  20.606  33.442  11.359
78906W        W50435  43.045  44.001   3.878
78907W        W50436  44.124  28.434   3.097
78908W        W50437  33.524  17.334  11.620
78909W        W50438  33.576  26.349  13.507
78910W        W50439  10.816  12.552   1.234
78911W        W50440  23.458  16.090  11.501
78912W        W50441  15.955  35.316   0.975
78913W        W50442   9.644  11.358  11.481
78914W        W50443  25.986  26.270  13.446
78915W        W50444  10.103   2.255   1.779
78916W        W50445  16.346  22.177   3.227
78917W        W50446  30.337  11.612   0.856
78918W        W50447  39.391   3.794  10.709
78919W        W50448  23.374  28.538   3.697
78920W        W50449  38.600  21.507   3.143
78921W        W50450  28.070  22.816  12.927
78922W        W50451  42.755   3.251  12.038
78923W        W50452  36.159  42.094   3.224
78924W        W50453  13.548  41.526   3.939
78925W        W50454   5.193   7.936   1.699
78926W        W50455   7.176  17.076  12.660
78927W        W50456   6.760   9.554   0.507
78928W        W50457   5.755  38.803  10.464
78929W        W50458  23.412  44.507  13.610
78930W        W50459  41.966  13.191  12.035
78931W        W50460  30.879   0.714  11.051
78932W        W50461  18.192  14.387  11.849
78933W        W50462   2.382  28.904   4.603
78934W        W50463   5.198   0.809   2.723
78935W        W50464  25.255   1.333  11.098
78936W        W50465  20.349  28.972   3.651
78937W        W50466  31.419   1.786  12.910
78938W        W50467  14.587  19.527   2.774
78939W        W50468  32.138  38.535   3.599
78940W        W50469  28.476  33.126  14.827
78941W        W50470  30.131  40.887   4.473
78942W        W50471  31.010   3.440   0.271
78943W        W50472   2.877  15.678   2.360
78944W        W50473  27.484  31.345  11.580
78945W        W50474  19.345  12.576   1.880
78946W        W50475   7.566  15.231   3.497
78947W        W50476  11.052  43.037  11.540
78948W        W50477  42.140  15.561   2.292
78949W        W50478  15.844  32.250   4.262
78950W        W50479  27.018  13.019  11.086
78951W        W50480  38.420   0.022  13.459
78952W        W50481  11.851  28.125  12.404
78953W        W50482  37.823   2.004   4.450
78954W        W50483  36.395  31.444   2.747
78955W        W50484   1.786  37.376   2.866
78956W        W50485  24.166  35.917  12.408
78957W        W50486  21.353  23.026   3.220
78958W        W50487  28.043  44.744  13.784
78959W        W50488  18.062  25.432  13.931
78960W        W50489  44.419   2.950   4.687
78961W        W50490   5.331  16.827   2.219
78962W        W50491   7.627  41.881  14.744
78963W        W50492  43.007  14.660   3.684
78964W        W50493  41.000   1.298  11.144
78965W        W50494   8.172  18.855  11.273
78966W        W50495   8.345  35.898  14.447
78967W        W50496   7.923  22.242  13.755
78968W        W50497  38.898  42.973   3.760
78969W        W50498  16.058  13.236   4.325
78970W        W50499   6.077  38.369  10.472
78971W        W50500  15.287  30.341  14.559
78972W        W50501  22.634  26.959   2.446
78973W        W50502  44.371   2.724  12.440
78974W        W50503  32.450   5.833   2.808
78975W        W50504  39.470  39.020  11.715
78976W        W50505  19.327  25.919  13.333
78977W        W50506  24.973  29.000  11.142
78978W        W50507  42.807  10.493   3.592
78979W        W50508  36.024   8.407   4.700
78980W        W50509  32.691  14.337   1.698
78981W        W50510  19.225  20.967  11.918
78982W        W50511  25.587  44.028  13.452
78983W        W50512  40.320  32.928   3.428
78984W        W50513  28.334  15.310   2.741
78985W        W50514   5.658  26.611  11.432
78986W        W50515  15.751  42.017  13.835
78987W        W50516  29.734  11.657  11.640
78988W        W50517  16.252  30.863  10.772
78989W        W50518   0.003  27.000  12.134
78990W        W50519  24.345  37.372   1.216
78991W        W50520   5.246  36.581   3.388
78992W        W50521  40.730  17.267   0.779
78993W        W50522  38.280  36.004  11.611
78994W        W50523  40.858   8.894   3.562
78995W        W50524  22.452   1.775  11.364
78996W        W50525  19.319  10.847   3.387
78997W        W50526  35.373  31.487  13.068
78998W        W50527  32.404  38.055   0.807
78999W        W50528  44.651  27.063   2.860
79000W        W50529  38.468  44.309  11.892
79001W        W50530  14.240  41.909  12.040
79002W        W50531  21.949  20.309  14.458
79003W        W50532  39.893   8.296  11.393
79004W        W50533  41.012  30.021  13.058
79005W        W50534   4.923  22.942   2.374
79006W        W50535  21.014  40.183   3.693
79007W        W50536  42.114  34.853  11.755
79008W        W50537  15.892  10.455  11.531
79009W        W50538  11.816  21.681  13.300
79010W        W50539  16.156  28.979   4.230
79011W        W50540  12.133  14.013  11.197
79012W        W50541  23.464  18.261  11.493
79013W        W50542  14.218  31.371  12.115
79014W        W50543  44.147  31.319   5.178
79015W        W50544  23.453  16.181   3.521
79016W        W50545  41.326  35.326  12.016
79017W        W50546  37.187   6.307  12.122
79018W        W50547  18.640  12.868  11.249
79019W        W50548   2.967  43.062   1.774
79020W        W50549  25.056  35.367   4.867
79021W        W50550  23.462  15.188   4.062
79022W        W50551  44.224  31.569   1.851
79023W        W50552   2.024  16.155  13.819
79024W        W50553  13.365  14.618   2.729
79025W        W50554  16.793   3.524   4.173
79026W        W50555   3.345  32.914  10.602
79027W        W50556   9.010  29.468  12.981
79028W        W50557  26.770  26.740   3.219
79029W        W50558  17.728  24.210   0.648
79030W        W50559  44.554  27.224  11.268
79031W        W50560  38.027  30.695   3.219
79032W        W50561   9.983  22.645  12.935
79033W        W50562  15.746  20.747  12.979
79034W        W50563  22.326  26.576  14.885
79035W        W50564  22.164  29.931   4.216
79036W        W50565   9.785  35.123   2.301
79037W        W50566   1.181  35.360  11.963
79038W        W50567   7.690   6.325  12.952
79039W        W50568  28.507  43.543   0.771
79040W        W50569  39.784   3.240   2.886
79041W        W50570   7.515   1.047  11.149
79042W        W50571  31.269  43.478  14.460
79043W        W50572   1.141   2.402   4.594
79044W        W50573  14.470  21.680   4.128
79045W        W50574   5.997  28.624  13.092
79046W        W50575  13.283  41.246  11.247
79047W        W50576   4.332   6.477  14.024
79048W        W50577  22.918  12.414  13.955
79049W        W50578  12.973  32.390  14.932
79050W        W50579  43.005  35.964   4.306
79051W        W50580   3.263  35.622  10.631
79052W        W50581   2.944   9.199   0.009
79053W        W50582   3.406  35.361   0.298
79054W        W50583  17.392   6.957   2.705
79055W        W50584  23.826  13.018  11.114
79056W        W50585  38.582   4.247   2.175
79057W        W50586  34.054  11.595   0.480
79058W        W50587   2.046   6.295  13.113
79059W        W50588  30.602  29.133  11.000
79060W        W50589   3.335  27.057  12.141
79061W        W50590  28.236  12.798   3.111
79062W        W50591  28.159  13.308  12.637
79063W        W50592  16.320  10.548   0.782
79064W        W50593   3.061  38.047  14.970
79065W        W50594   8.318  19.891   4.644
79066W        W50595  31.172  15.391  14.785
79067W        W50596   8.677   9.885   4.930
79068W        W50597  16.778  30.706   1.370
79069W        W50598   0.420  43.363  14.789
79070W        W50599  28.555  31.682  13.248
79071W        W50600  16.537   7.407  13.845
79072W        W50601  25.234  15.766  12.563
79073W        W50602   6.399  13.108  14.502
79074W        W50603  36.318  16.204  12.798
79075W        W50604  25.422   7.412  12.493
79076W        W50605  17.528  40.328  13.493
79077W        W50606  37.603  44.373  10.896
79078W        W50607  15.116  37.610   2.574
79079W        W50608  11.456  28.779  11.224
79080W        W50609   3.813  25.308  12.312
79081W        W50610  31.490  10.627  11.934
79082W        W50611  13.358  22.024  14.988
79083W        W50612  32.076  44.957  12.895
79084W        W50613  26.117  43.489   3.079
79085W        W50614  18.068  40.736   0.675
79086W        W50615  26.259  32.621   3.222
79087W        W50616  12.359  28.788  11.532
79088W        W50617  22.231  13.129   4.735
79089W        W50618   5.037   7.203  10.213
79090W        W50619   9.369  18.533  14.467
79091W        W50620  34.900   7.405  14.375
79092W        W50621  44.383  32.350   0.364
79093W        W50622  19.305  20.656  13.634
79094W        W50623  13.663   0.869   5.197
79095W        W50624  14.336  27.393  14.174
79096W        W50625  13.732  20.427   5.506
79097W        W50626   1.707  33.961  12.983
79098W        W50627  35.804  38.515   0.746
79099W        W50628  30.302   4.153   3.078
79100W        W50629  32.129  28.114  10.710
79101W        W50630  36.237  33.225  14.824
79102W        W50631   7.810  44.806  13.770
79103W        W50632  37.838  30.928  11.594
79104W        W50633  43.931  12.830  11.683
79105W        W50634   2.356  18.005   0.784
79106W        W50635  25.462  29.387  12.541
79107W        W50636  28.454   9.747  10.969
79108W        W50637  23.756  30.077  12.581
79109W        W50638  36.009   3.210  13.948
79110W        W50639  36.095  29.396  11.167
79111W        W50640  30.318  24.257   4.081
79112W        W50641  41.928  21.784  11.458
79113W        W50642  22.513   2.318   2.432
79114W        W50643  13.829   7.759   1.453
79115W        W50644  23.992  16.048  14.337
79116W        W50645  40.144  41.873   1.043
79117W        W50646  33.047  11.104  13.817
79118W        W50647   5.035  26.201   3.757
79119W        W50648  10.646  40.507   1.674
79120W        W50649  37.904  30.918  12.544
79121W        W50650  43.282  26.978   4.216
79122W        W50651  21.655  18.049  11.998
79123W        W50652   2.600  32.703   0.492
79124W        W50653  28.199  22.871  11.237
79125W        W50654  17.309  21.720   3.172
79126W        W50655   1.914  34.621  14.493
79127W        W50656   2.271   3.223   0.562
79128W        W50657  27.596  18.567   2.876
79129W        W50658  13.886  37.767   0.693
79130W        W50659   8.044  33.462   4.953
79131W        W50660   3.670   9.474   1.023
79132W        W50661  39.605  14.245  11.055
79133W        W50662  12.647  17.432   0.778
79134W        W50663  15.088  22.668   4.855
79135W        W50664  38.395  32.131   3.539
79136W        W50665  22.821   5.903   3.328
79137W        W50666  28.414  17.872  10.724
79138W        W50667  43.347  42.919   1.720
79139W        W50668  17.850  36.460   1.688
79140W        W50669  23.274   4.412  11.117
79141W        W50670  26.254  26.169  11.756
79142W        W50671  39.307  15.098  13.656
79143W        W50672  14.200  31.729  13.396
79144W        W50673   4.355  28.229   4.309
79145W        W50674  11.163  34.059   1.865
79146W        W50675  43.884  17.079  10.795
79147W        W50676  13.216  22.571   3.008
79148W        W50677  30.133  19.761   1.796
79149W        W50678  16.707   8.316  14.795
79150W        W50679  19.725  24.136  13.820
79151W        W50680   5.922  21.512   0.382
79152W        W50681  22.355  12.393   2.180
79153W        W50682   7.789  39.313   3.552
79154W        W50683  29.091   6.166  10.638
79155W        W50684   5.010  19.814   4.097
79156W        W50685  38.407  18.529  11.610
79157W        W50686  28.594  15.057   3.185
79158W        W50687   0.608  14.876   0.295
79159W        W50688   1.335  30.090  12.724
79160W        W50689  18.003   0.349   2.140
79161W        W50690   7.147  39.803   2.313
79162W        W50691  21.617   0.164   1.364
79163W        W50692  25.711  29.747   3.316
79164W        W50693  32.889   6.315  14.758
79165W        W50694   7.245  33.052  10.638
79166W        W50695  18.824  38.833   3.658
79167W        W50696  32.533   2.283  10.745
79168W        W50697  19.579  37.622   3.271
79169W        W50698  37.195   9.848   4.062
79170W        W50699   1.436  10.396   2.772
79171W        W50700   2.184  27.085   2.753
79172W        W50701  28.211  40.908  14.926
79173W        W50702  14.384  10.286  10.110
79174W        W50703  37.903  14.133   3.714
79175W        W50704   9.880  43.815   0.651
79176W        W50705  31.008  16.866   4.641
79177W        W50706  34.970  20.597   1.727
79178W        W50707   4.296  19.091   0.296
79179W        W50708   2.757  20.246   0.661
79180W        W50709  16.048  32.227  12.231
79181W        W50710  14.579  23.910   3.729
79182W        W50711   4.952   9.236   4.326
79183W        W50712  12.242  31.929   3.542
79184W        W50713  26.160  18.211  14.479
79185W        W50714  36.559  41.025   1.415
79186W        W50715  16.256   8.430   1.748
79187W        W50716   7.893   1.445   1.869
79188W        W50717  25.606   9.840  14.198
79189W        W50718   7.678  14.795  14.325
79190W        W50719  42.458  27.966  14.373
79191W        W50720  10.654  37.603   1.326
79192W        W50721  36.176  15.201   2.840
79193W        W50722   1.362   6.623  12.278
79194W        W50723  14.134  22.672   0.922
79195W        W50724  22.519  28.385   2.138
79196W        W50725  32.424  12.338  14.153
79197W        W50726  32.566   3.136   2.857
79198W        W50727  28.218   3.680   3.608
79199W        W50728  16.148  37.962   4.856
79200W        W50729  19.098  37.269   4.380
79201W        W50730  16.074  20.268   2.697
79202W        W50731  31.990  14.353  12.856
79203W        W50732   6.631  35.328   4.143
79204W        W50733  24.600  15.769   4.601
79205W        W50734   5.976  28.385   2.860
79206W        W50735  19.970  12.692  13.356
79207W        W50736  33.586  31.201   2.116
79208W        W50737  22.764  11.362   1.858
79209W        W50738   1.370  27.503   2.900
79210W        W50739  35.076  26.011   3.242
79211W        W50740   9.825   9.113  12.350
79212W        W50741  10.943   3.670   3.114
79213W        W50742  12.267  23.585  11.474
79214W        W50743  25.498  31.833   3.911
79215W        W50744  44.923  32.507   1.825
79216W        W50745  35.593  44.126  13.891
79217W        W50746   8.471  23.600  13.312
79218W        W50747   0.981  25.717  12.954
79219W        W50748  25.113  31.128  12.021
79220W        W50749  14.003  29.307   1.843
79221W        W50750  26.650  27.137  10.802
79222W        W50751  28.702  11.702  11.976
79223W        W50752  25.069  18.130  10.698
79224W        W50753   9.803  43.524  11.600
79225W        W50754  38.492   5.153  10.460
79226W        W50755  38.339  43.880  12.643
79227W        W50756  29.992  38.006  13.566
79228W        W50757  12.327   6.611   1.273
79229W        W50758  19.152  38.582  12.149
79230W        W50759  42.328  29.561  11.612
79231W        W50760  18.136  37.046   1.921
79232W        W50761  21.399  18.323  10.667
79233W        W50762   3.424  24.236   3.997
79234W        W50763  38.527  28.462   0.274
79235W        W50764   8.701  39.632   1.797
79236W        W50765   6.262   4.183   2.233
79237W        W50766  20.506   2.505   3.727
79238W        W50767  28.733   8.890   3.190
79239W        W50768  24.508   6.937   2.508
79240W        W50769   9.667  25.976   4.638
79241W        W50770  16.059  30.964   4.143
79242W        W50771  43.477   3.744   3.656
79243W        W50772  22.621   8.726   3.379
79244W        W50773   1.324   7.342   3.239
79245W        W50774   5.993  24.158   3.272
79246W        W50775  34.934  13.934  10.842
79247W        W50776  35.126  32.451  11.189
79248W        W50777  44.984  17.270   3.223
79249W        W50778  19.810  32.596  12.031
79250W        W50779   0.450   9.886   0.894
79251W        W50780   2.638  36.796   3.185
79252W        W50781   1.943   6.691   3.077
79253W        W50782  17.783  33.922  13.485
79254W        W50783  35.189  27.425  14.385
79255W        W50784  24.937  13.629   1.816
79256W        W50785  21.659  20.587  12.134
79257W        W50786  26.114  23.792   1.346
79258W        W50787  32.569  16.006  14.203
79259W        W50788  19.626   7.696  11.964
79260W        W50789   8.393  28.379   4.896
79261W        W50790  44.099  27.019  11.156
79262W        W50791   4.387  20.579   3.684
79263W        W50792  11.554   6.043  12.071
79264W        W50793   5.736  29.659  10.728
79265W        W50794  21.342  23.047  12.189
79266W        W50795  22.558  35.064  11.983
79267W        W50796   7.618  21.104  12.968
79268W        W50797   6.016  44.848  11.517
79269W        W50798  17.997  12.397  11.666
79270W        W50799  24.714  30.073  13.540
79271W        W50800  42.303  30.675   3.679
79272W        W50801   6.463  34.860   4.397
79273W        W50802  42.982  10.135   0.720
79274W        W50803  35.988   7.667  10.539
79275W        W50804  37.966  24.252  11.621
79276W        W50805  22.855  38.051  12.451
79277W        W50806   3.425  36.501  11.513
79278W        W50807   5.092  39.818  12.090
79279W        W50808  27.344  43.161  13.478
79280W        W50809  26.126   8.761   4.594
79281W        W50810   3.319  40.175  12.017
79282W        W50811   6.451   1.550   1.370
79283W        W50812   6.943  36.616   1.753
79284W        W50813  25.246  27.441   2.770
79285W        W50814  11.868  22.858   3.183
79286W        W50815  35.526  32.099  10.622
79287W        W50816  24.639   8.572  14.768
79288W        W50817   1.614  17.259  11.834
79289W        W50818  36.285  44.769   4.501
79290W        W50819  11.263  15.380   0.410
79291W        W50820  34.500  34.071  12.381
79292W        W50821  11.248  31.102   1.413
79293W        W50822   5.051  30.762  11.297
79294W        W50823  29.486  33.436   1.322
79295W        W50824  44.017  19.246  14.347
79296W        W50825  43.967  19.191   0.326
79297W        W50826  29.682  12.609   2.599
79298W        W50827  26.208  36.539  12.909
79299W        W50828  41.220  23.528   3.763
79300W        W50829  33.643  18.198   1.818
79301W        W50830  27.457  41.375   3.870
79302W        W50831  40.050  19.678   2.597
79303W        W50832   6.436  33.932   4.431
79304W        W50833  16.025  13.525   4.764
79305W        W50834  43.981  21.301   1.494
79306W        W50835  37.333  30.870  11.584
79307W        W50836  29.885  33.450   2.703
79308W        W50837  12.336  42.784   0.257
79309W        W50838  29.516   7.018   4.606
79310W        W50839  21.353   0.863  11.491
79311W        W50840  21.498  19.621  13.030
79312W        W50841  35.418   5.491  13.427
79313W        W50842  31.866  14.715   1.756
79314W        W50843  10.890  37.683   0.090
79315W        W50844  26.080  38.877   4.378
79316W        W50845  33.004  27.637  13.478
79317W        W50846   2.392  23.227  12.349
79318W        W50847  20.360   1.129   1.890
79319W        W50848  34.946  28.335  13.888
79320W        W50849  39.536  24.976   1.281
79321W        W50850  17.284  17.304   3.172
79322W        W50851  13.589  19.992  14.463
79323W        W50852  24.541  38.672  11.082
79324W        W50853  39.731  24.214   0.697
79325W        W50854  18.830  31.106   3.780
79326W        W50855  36.779  38.024   0.017
79327W        W50856  38.091  16.773  11.527
79328W        W50857  24.772  20.774  14.354
79329W        W50858  21.776  44.237   1.367
79330W        W50859  40.835  20.513   4.628
79331W        W50860  32.205  40.906   0.779
79332W        W50861  18.880   9.146  14.678
79333W        W50862  24.580  37.443   0.745
79334W        W50863  39.589  40.615   0.736
79335W        W50864  44.755  35.345  14.686
79336W        W50865  30.839  34.918  11.528
79337W        W50866   7.472  34.924   0.282
79338W        W50867  13.716  36.537  14.135
79339W        W50868  28.515  24.453   4.353
79340W        W50869   1.975   7.798   1.450
79341W        W50870  18.142   8.471   3.749
79342W        W50871  41.089  34.443   2.298
79343W        W50872  29.740  24.088  10.263
79344W        W50873  36.199  42.867  10.102
79345W        W50874  37.492  17.410  11.104
79346W        W50875   5.520  36.377   5.014
79347W        W50876  10.446  18.004   1.256
79348W        W50877  39.458  17.083  13.193
79349W        W50878   2.333  26.884   3.198
79350W        W50879  14.195  20.502   1.802
79351W        W50880   9.241  18.161  11.662
79352W        W50881  18.128  35.660  12.056
79353W        W50882   1.088  43.717   3.995
79354W        W50883  35.155   9.167   2.712
79355W        W50884  25.422  18.277   4.512
79356W        W50885  21.728   5.258   4.633
79357W        W50886  34.159  11.096   4.702
79358W        W50887   8.496   4.245   3.946
79359W        W50888  41.976  23.837  14.039
79360W        W50889  18.177  42.869   0.498
79361W        W50890  19.755  13.375  12.544
79362W        W50891  44.462  18.549   0.079
79363W        W50892  16.289  36.559   3.108
79364W        W50893  31.469  19.229  12.964
79365W        W50894  40.800  43.793   4.276
79366W        W50895   2.693  11.091   1.000
79367W        W50896  28.893  26.401  11.731
79368W        W50897   7.255  20.012   0.575
79369W        W50898  14.373   6.659  11.486
79370W        W50899  18.515  43.973   3.748
79371W        W50900   2.433  28.458   2.134
79372W        W50901   7.765  39.449   2.686
79373W        W50902  15.555   8.591  14.006
79374W        W50903  27.632  20.052  14.214
79375W        W50904  39.964  13.823   1.720
79376W        W50905   5.499   6.715  14.481
79377W        W50906  17.077  16.902  11.537
79378W        W50907  30.983  10.502   1.291
79379W        W50908  41.966  29.914  13.119
79380W        W50909  22.171  38.789  13.889
79381W        W50910  29.396  21.812   0.144
79382W        W50911   9.460  15.818   4.768
79383W        W50912  39.429  16.685  13.554
79384W        W50913  22.623  13.783  10.673
79385W        W50914  38.491  16.073   1.929
79386W        W50915  21.039  38.590  14.825
79387W        W50916  19.269  41.390   3.095
79388W        W50917  26.024  22.689  11.996
79389W        W50918   1.471   9.131  12.428
79390W        W50919   0.278   1.316  12.577
79391W        W50920  36.334  12.549   3.622
79392W        W50921  42.833  44.561   0.820
79393W        W50922  23.185  16.233  13.924
79394W        W50923  13.498  30.239   3.689
79395W        W50924  26.992  31.161   0.845
79396W        W50925  26.560  29.909  11.814
79397W        W50926  10.747  27.468   1.800
79398W        W50927  43.870   6.100  12.820
79399W        W50928   5.727  18.785   2.597
79400W        W50929  37.949  13.714  14.486
79401W        W50930  35.962  18.121   1.382
79402W        W50931  43.827  39.592   3.781
79403W        W50932  36.964  32.617   0.014
79404W        W50933  19.227  34.627   0.857
79405W        W50934  35.305   1.712  14.934
79406W        W50935  20.674  33.560  12.913
79407W        W50936  32.793  32.418  10.795
79408W        W50937   8.039  37.353  12.525
79409W        W50938  43.098  26.712   4.633
79410W        W50939  10.857   7.553   3.362
79411W        W50940  12.625  35.433  11.516
79412W        W50941  40.321   1.235  13.495
79413W        W50942  18.765  24.137   0.476
79414W        W50943  29.599  27.925  13.396
79415W        W50944   6.688  42.326  14.503
79416W        W50945  12.368  20.816   2.627
79417W        W50946  40.012   8.693  12.673
79418W        W50947  23.188   5.859   4.238
79419W        W50948  21.005   6.144  11.652
79420W        W50949  40.344  26.475  12.862
79421W        W50950  19.534  30.034  13.003
79422W        W50951  27.331   0.214   1.062
79423W        W50952   0.426   7.930   2.211
79424W        W50953   7.822   3.804   1.377
79425W        W50954  35.715  24.236   2.384
79426W        W50955  26.580  11.221  11.917
79427W        W50956  44.292  43.505   2.373
79428W        W50957  33.913  28.830  11.495
79429W        W50958  19.555  15.649   1.699
79430W        W50959   2.657  25.807  12.761
79431W        W50960  24.121  24.878  10.789
79432W        W50961  41.330  30.886  13.040
79433W        W50962   0.472  14.736   1.313
79434W        W50963  14.787  34.254   2.784
79435W        W50964  24.453   5.813   2.832
79436W        W50965  38.832  19.992  11.045
79437W        W50966  18.259  20.434  12.830
79438W        W50967  34.521  36.000   0.867
79439W        W50968  13.472  23.222  14.808
79440W        W50969  31.862  34.932   4.437
79441W        W50970  43.654  29.440   3.658
79442W        W50971  43.404  17.060   2.884
79443W        W50972  32.882   2.266   4.565
79444W        W50973   8.237   2.483   4.512
79445W        W50974  10.723  23.681  11.384
79446W        W50975   1.276  38.874  10.991
79447W        W50976   3.096   7.493  12.160
79448W        W50977  14.847   7.895   4.055
79449W        W50978  37.771   2.286   3.105
79450W        W50979   3.308   7.833   1.536
79451W        W50980  41.884   4.640   0.248
79452W        W50981   1.063  13.752  10.669
79453W        W50982  44.228  36.657  14.123
79454W        W50983  18.738   5.413   1.486
79455W        W50984   2.280  36.033  14.457
79456W        W50985  37.131  40.841  10.501
79457W        W50986  13.439  18.751   1.669
79458W        W50987  11.069  11.134   3.762
79459W        W50988   2.864  27.174  13.200
79460W        W50989  44.998  31.942   0.228
79461W        W50990   9.898  30.597   1.557
79462W        W50991  14.315   6.346   3.620
79463W        W50992  30.845  41.987   2.858
79464W        W50993  31.096   4.787  11.379
79465W        W50994  24.191  34.344  14.591
79466W        W50995  19.766  33.455   2.224
79467W        W50996   2.751  35.597  14.825
79468W        W50997  32.539  16.009   1.196
79469W        W50998  15.968  11.507   0.805
79470W        W50999  19.770  23.759  12.029
79471W        W51000  42.881  10.745   3.124
79472W        W51001   1.401  13.358  12.012
79473W        W51002  22.533  38.796   3.157
79474W        W51003  38.774  40.803   1.207
79475W        W51004  41.785  10.685   4.111
79476W        W51005  39.140  28.662  12.510
79477W        W51006   4.415  40.219   4.699
79478W        W51007  30.459  15.101   2.698
79479W        W51008   2.186  27.383  12.843
79480W        W51009  27.584  27.556  14.264
79481W        W51010  33.455   1.374  10.739
79482W        W51011  33.127  30.154  13.535
79483W        W51012  15.213  31.131   0.285
79484W        W51013  36.338   8.909  12.132
79485W        W51014  12.699  36.414   4.610
79486W        W51015  41.001  15.485   1.414
79487W        W51016  40.347  17.284   3.985
79488W        W51017  44.744  32.997   1.692
79489W        W51018   6.768  22.998   4.139
79490W        W51019  10.341  32.581  10.281
79491W        W51020   0.517  18.075   3.650
79492W        W51021  17.854  18.499  11.076
79493W        W51022  44.768  36.618   1.893
79494W        W51023  17.964   6.339   0.772
79495W        W51024  22.360  38.616   0.307
79496W        W51025  32.392   1.752  13.039
79497W        W51026   1.229  32.556  14.850
79498W        W51027   8.961   5.449  11.039
79499W        W51028   1.518   7.410  12.069
79500W        W51029  11.243   5.360   2.700
79501W        W51030  11.066  29.342   4.053
79502W        W51031  43.808  16.738   4.500
79503W        W51032  27.172  17.075   4.061
79504W        W51033  44.257  33.931   4.236
79505W        W51034  15.528  14.484   0.375
79506W        W51035   3.456  30.879  10.672
79507W        W51036   1.754  42.033  10.735
79508W        W51037  21.924  18.285  11.613
79509W        W51038  22.590  24.152   2.376
79510W        W51039   0.556  28.538   3.186
79511W        W51040  27.972  15.411   0.390
79512W        W51041  18.206  29.929   3.392
79513W        W51042  12.321  26.655   3.271
79514W        W51043  38.828  13.134  11.721
79515W        W51044  29.668   4.940  11.399
79516W        W51045  21.779  22.344   1.224
79517W        W51046  33.941  44.284   3.603
79518W        W51047  34.614  31.710   0.827
79519W        W51048  22.712   3.453  14.236
79520W        W51049  35.626  34.943  12.027
79521W        W51050  29.552  20.544  11.587
79522W        W51051  27.900   4.684   1.351
79523W        W51052  43.431   9.828   4.044
79524W        W51053  20.588  43.189  13.009
79525W        W51054  33.892  43.921  11.881
79526W        W51055  27.519  43.559  14.282
79527W        W51056  38.541  30.137  10.664
79528W        W51057   6.152   6.067  14.018
79529W        W51058  27.464   8.397  14.779
79530W        W51059  12.070  31.612   2.896
79531W        W51060  27.208  43.915  14.079
79532W        W51061  24.908  19.329  13.348
79533W        W51062  41.228   0.911  14.889
79534W        W51063  38.368  30.650  12.330
79535W        W51064  15.866   5.334   1.255
79536W        W51065  15.707  17.741   0.698
79537W        W51066  17.550  27.442   0.343
79538W        W51067  12.186   8.006  14.358
79539W        W51068  31.856  15.486   9.867
79540W        W51069   9.154  25.415   0.364
79541W        W51070  30.881  15.371   3.244
79542W        W51071  24.051  40.566  12.072
79543W        W51072  10.358  12.291   1.427
79544W        W51073  36.387  33.995   0.775
79545W        W51074  19.774  42.976   4.163
79546W        W51075  35.521  12.175  12.188
79547W        W51076   2.468  43.667   0.957
79548W        W51077   1.861  36.693  13.487
79549W        W51078   4.683  38.578   3.766
79550W        W51079  39.545  17.862  12.520
79551W        W51080  35.132  29.031   4.617
79552W        W51081  27.259   5.742   0.814
79553W        W51082  10.022  31.088   4.613
79554W        W51083   5.989  19.667  14.483
79555W        W51084  29.434   4.758   3.027
79556W        W51085  23.702  39.965  14.915
79557W        W51086  42.266  37.529   3.626
79558W        W51087  35.149  14.076  12.679
79559W        W51088  17.812  22.204  10.299
79560W        W51089  14.673  42.457  13.546
79561W        W51090  29.732  31.957   1.860
79562W        W51091  27.999   6.196   2.659
79563W        W51092   8.312  10.531  12.100
79564W        W51093  14.598  12.430  13.443
79565W        W51094  38.516  17.301  14.836
79566W        W51095  35.544   1.267  12.770
79567W        W51096   7.249   5.368  11.675
79568W        W51097  15.487   7.601  10.314
79569W        W51098  25.553  38.820   1.982
79570W        W51099  42.012  33.450   2.494
79571W        W51100  39.145  15.244  11.746
79572W        W51101   9.631  28.363  11.555
79573W        W51102  29.352  15.389   2.533
79574W        W51103  21.194  30.151   2.458
79575W        W51104  24.969  28.690  13.542
79576W        W51105   4.101  21.524  14.762
79577W        W51106  16.209  20.164  12.610
79578W        W51107   4.280  37.927   3.061
79579W        W51108  16.576  34.205   1.256
79580W        W51109  17.152   4.398  13.537
79581W        W51110  23.596  29.673   1.256
79582W        W51111  37.124  24.361  13.034
79583W        W51112  12.082  38.615  13.025
79584W        W51113  28.501  32.892  10.890
79585W        W51114  33.872  21.201   4.490
79586W        W51115  24.751   0.824   4.163
79587W        W51116  40.783  35.358   3.794
79588W        W51117  10.220   3.372   3.416
79589W        W51118   9.621  10.931  13.374
79590W        W51119  11.345  18.295   1.329
79591W        W51120  13.015   0.791   2.712
79592W        W51121  16.081   4.582   3.085
79593W        W51122   1.372  27.295   2.432
79594W        W51123  31.327  38.519   2.460
79595W        W51124   8.311  36.543  12.716
79596W        W51125  30.550  22.988   0.338
79597W        W51126   1.842  33.649   1.755
79598W        W51127   7.707  21.476  12.519
79599W        W51128  40.999  37.585   1.227
79600W        W51129  40.333  42.084  11.358
79601W        W51130  44.979   1.901   1.272
79602W        W51131  40.398  15.820  10.556
79603W        W51132  26.705  24.422   3.336
79604W        W51133   5.027  34.187  12.033
79605W        W51134   7.481  32.946  12.145
79606W        W51135   0.197  19.236  12.054
79607W        W51136  20.857  15.340  12.491
79608W        W51137  14.722  35.841   2.792
79609W        W51138  33.668  18.163   2.703
79610W        W51139  27.663  24.585   2.837
79611W        W51140  23.308  29.029  14.956
79612W        W51141   0.852  29.372   4.624
79613W        W51142   0.957   5.349  14.217
79614W        W51143  28.606  10.738   0.047
79615W        W51144  39.338   4.331  12.036
79616W        W51145   2.919  43.311   0.030
79617W        W51146   1.881  15.329  11.996
79618W        W51147  16.374  37.796  14.368
79619W        W51148   5.117  18.558  12.455
79620W        W51149  43.425  13.444   2.813
79621W        W51150  38.055   8.802  14.693
79622W        W51151  41.289  24.168   2.195
79623W        W51152   9.305   5.098  11.222
79624W        W51153  28.675  11.277   2.181
79625W        W51154  24.295  28.423  13.920
79626W        W51155  44.453   2.679   2.203
79627W        W51156   9.809  42.116  12.166
79628W        W51157  39.817  24.003  14.273
79629W        W51158  27.273  44.216  14.971
79630W        W51159   5.171   9.408   2.017
79631W        W51160   5.464  20.283   2.909
79632W        W51161  14.123  38.401   2.466
79633W        W51162  26.251  39.214  12.538
79634W        W51163  44.882  23.768  14.733
79635W        W51164  20.824  20.133  13.632
79636W        W51165  40.561   2.631  12.954
79637W        W51166  35.091  10.167   0.005
79638W        W51167  26.447  18.481  12.163
79639W        W51168  40.085  24.481  12.603
79640W        W51169   5.390  44.185  11.165
79641W        W51170  44.620  22.004  14.326
79642W        W51171  30.572  14.088   0.766
79643W        W51172  43.919  20.004   1.767
79644W        W51173  43.208   0.242   1.270
79645W        W51174  44.832  26.098   0.470
79646W        W51175  42.351  17.520   2.197
79647W        W51176  42.565  11.615   1.837
79648W        W51177  31.850  24.208   4.095
79649W        W51178  23.874  31.524  13.801
79650W        W51179  30.757  26.777  12.821
79651W        W51180  35.268   2.748   2.953
79652W        W51181   2.432  22.516  13.540
79653W        W51182  24.969  27.587   4.218
79654W        W51183  38.192   5.647   3.155
79655W        W51184  13.672  13.140  12.668
79656W        W51185   4.498  36.916  11.252
79657W        W51186  36.416   1.591  13.498
79658W        W51187   0.179  37.302  11.885
79659W        W51188   8.337  16.819  10.610
79660W        W51189  28.055  29.614  12.954
79661W        W51190   4.029  35.233  12.402
79662W        W51191  24.638  32.812  12.868
79663W        W51192  19.054  37.910  12.511
79664W        W51193   9.911  21.031  14.888
79665W        W51194  20.989  29.057   0.315
79666W        W51195   4.896   8.368  11.018
79667W        W51196  17.633  10.811  14.289
79668W        W51197  22.215  42.359  12.929
79669W        W51198  16.543  36.206  10.930
79670W        W51199  28.099  14.008  10.284
79671W        W51200  15.962  27.006  11.981
79672W        W51201  42.829   1.948  10.740
79673W        W51202  13.698   2.155  11.660
79674W        W51203  31.956   6.764  14.059
79675W        W51204  14.532  44.877  12.832
79676W        W51205  33.943   0.147   0.345
79677W        W51206  34.063  27.395   2.827
79678W        W51207  28.190   6.927  13.934
79679W        W51208  12.306  40.133   0.932
79680W        W51209  32.378  24.197   4.188
79681W        W51210  31.869  19.816   3.676
79682W        W51211   0.571  36.384  10.603
79683W        W51212  43.287  23.700   2.182
79684W        W51213  26.443   4.803  11.147
79685W        W51214  38.316  39.060   2.254
79686W        W51215  42.010  36.858  11.083
79687W        W51216  34.499   0.783  11.233
79688W        W51217  40.374   7.721  12.966
79689W        W51218  18.027   6.409  13.282
79690W        W51219  31.838  43.456  12.574
79691W        W51220  14.638  17.147  11.249
79692W        W51221  18.056  43.741   3.702
79693W        W51222  26.509   9.769  13.780
79694W        W51223  35.927  14.488  12.022
79695W        W51224  21.079  34.335  14.034
79696W        W51225  16.365  22.749  14.718
79697W        W51226  23.797  36.443   2.375
79698W        W51227  33.598  44.157  14.298
79699W        W51228  27.604  25.739   1.779
79700W        W51229  39.820  30.633   1.919
79701W        W51230  11.395   2.772  14.829
79702W        W51231  38.021   0.492   3.359
79703W        W51232  39.014   8.362   3.193
79704W        W51233  22.922  30.906   1.716
79705W        W51234  41.527   7.633   0.266
79706W        W51235   2.530  20.644   3.240
79707W        W51236  26.910  37.856   1.481
79708W        W51237  38.027  19.189  14.208
79709W        W51238  39.336   2.695  11.654
79710W        W51239  13.814  30.549  12.235
79711W        W51240   7.575   4.796  14.430
79712W        W51241  42.790  31.640   2.716
79713W        W51242  13.627  16.790   4.250
79714W        W51243  10.679  40.081  14.437
79715W        W51244  38.450  42.116   2.870
79716W        W51245  35.812  27.161   1.372
79717W        W51246  38.307  24.952  14.096
79718W        W51247  35.075  24.909   0.388
79719W        W51248  38.461  15.395   3.412
79720W        W51249   0.349   0.697   2.344
79721W        W51250  34.857  14.807  10.607
79722W        W51251  20.281   7.543  10.376
79723W        W51252  21.642   0.353  10.649
79724W        W51253  17.856   5.426   2.795
79725W        W51254  11.366   1.839   3.689
79726W        W51255  43.247  35.133   4.726
79727W        W51256  42.523  30.932   1.012
79728W        W51257  29.107  28.507  14.083
79729W        W51258   7.375  37.975  10.492
79730W        W51259  41.373  27.155  14.962
79731W        W51260  23.241  42.932  10.305
79732W        W51261  12.912  37.010  13.824
79733W        W51262  30.597  28.726  10.648
79734W        W51263  27.527  26.476  12.419
79735W        W51264  36.925  33.914  12.968
79736W        W51265  18.202   1.753  13.179
79737W        W51266  31.743  30.973   2.042
79738W        W51267   1.683  12.865  13.507
79739W        W51268  41.164  16.544   2.325
79740W        W51269   8.482  12.581  12.949
79741W        W51270  36.871  35.028   4.560
79742W        W51271  42.859  13.705   2.726
79743W        W51272  12.575  18.663  14.431
79744W        W51273  38.587   2.401  12.741
79745W        W51274  22.135  31.164  13.450
79746W        W51275  22.499  14.861  11.818
79747W        W51276  24.623   1.631  11.812
79748W        W51277  15.364  17.080  14.377
79749W        W51278  25.719  13.536  14.412
79750W        W51279  25.940   5.367  12.400
79751W        W51280  40.425  39.318   4.723
79752W        W51281   1.828   9.017   4.180
79753W        W51282  41.303  18.856  10.667
79754W        W51283  41.556  32.346  11.150
79755W        W51284  44.151  18.673  12.018
79756W        W51285  33.619  33.055   2.691
79757W        W51286  42.866  23.242  14.350
79758W        W51287  16.626  14.231  13.840
79759W        W51288  42.404  42.963   2.476
79760W        W51289  31.944  11.864   1.896
79761W        W51290  21.107  12.640  14.791
79762W        W51291  27.843  10.333   1.811
79763W        W51292  33.007   3.352   1.541
79764W        W51293  28.006  24.672  13.645
79765W        W51294  35.302   2.896  13.986
79766W        W51295  16.968  43.721   2.042
79767W        W51296   1.887  39.875   1.698
79768W        W51297  31.618  24.237  12.550
79769W        W51298  18.725  26.585   3.726
79770W        W51299   0.865  36.103   2.396
79771W        W51300  34.025  10.327  13.391
79772W        W51301  30.023  40.051   4.295
79773W        W51302  17.272  37.595  11.105
79774W        W51303   7.101   7.703  12.990
79775W        W51304  43.330  34.879   1.270
79776W        W51305  18.562  43.441  10.779
79777W        W51306  27.426  37.804   1.346
79778W        W51307  34.020  34.912  13.361
79779W        W51308   6.982   0.302  11.993
79780W        W51309  42.171  38.993   4.193
79781W        W51310  22.459  40.726  11.672
79782W        W51311  24.106   4.451  13.803
79783W        W51312  24.541  23.142  12.848
79784W        W51313   7.919  19.745  11.894
79785W        W51314  44.392   7.625   3.746
79786W        W51315  30.663  41.315  11.781
79787W        W51316   8.521  36.160  14.023
79788W        W51317  11.300  21.102  12.771
79789W        W51318  16.600  28.364   0.208
79790W        W51319  37.198  42.360  13.979
79791W        W51320  18.791  13.816   3.280
79792W        W51321  25.759  35.946   3.244
79793W        W51322  13.409  15.333  11.734
79794W        W51323  26.903  38.609  13.818
79795W        W51324   2.033  27.000  11.958
79796W        W51325  43.330  22.109   3.258
79797W        W51326   1.950  24.965  14.490
79798W        W51327  28.943  10.233  14.854
79799W        W51328  17.714  22.012   3.384
79800W        W51329  22.455  26.106   0.080
79801W        W51330  20.248  34.321   0.829
79802W        W51331   6.181  40.367   3.610
79803W        W51332  26.047  41.868   0.417
79804W        W51333  10.882  30.707   3.146
79805W        W51334  12.155  44.984  12.490
79806W        W51335  19.570   4.424   1.228
79807W        W51336  15.741  33.195   1.292
79808W        W51337  43.311  23.166   1.744
79809W        W51338  28.799   1.824  13.197
79810W        W51339  22.024  26.913  10.812
79811W        W51340  29.928  27.957  11.994
79812W        W51341   1.371  33.375  12.129
79813W        W51342  14.148  18.298   4.380
79814W        W51343   3.572   2.318   3.885
79815W        W51344  17.816  14.859   0.343
79816W        W51345  29.006  31.678  12.930
79817W        W51346   7.401  23.417   0.377
79818W        W51347  31.368   1.456   4.293
79819W        W51348  22.990  18.313   0.823
79820W        W51349  35.045  31.880   0.569
79821W        W51350  15.633  16.646  10.783
79822W        W51351   9.155  14.233  14.943
79823W        W51352  15.139  29.634   3.218
79824W        W51353  41.907  27.198  14.247
79825W        W51354  21.830  40.077   2.716
79826W        W51355  11.825   2.773  14.511
79827W        W51356   4.497   9.859   1.113
79828W        W51357  43.656  32.507   3.613
79829W        W51358  44.352   6.631  13.461
79830W        W51359  22.186  31.944   0.263
79831W        W51360  12.830  11.375   3.666
79832W        W51361  32.698  32.504  14.367
79833W        W51362  12.841  40.086   0.943
79834W        W51363   0.204  40.288   4.248
79835W        W51364   9.765  33.693  12.692
79836W        W51365  26.200   6.929   1.913
79837W        W51366  13.165  30.907  13.793
79838W        W51367  22.063  34.278  11.238
79839W        W51368  11.904  32.568  14.933
79840W        W51369  22.582  37.050  12.046
79841W        W51370   0.730   5.848   0.700
79842W        W51371   0.303  38.964  13.799
79843W        W51372   9.724  33.153   2.963
79844W        W51373  37.120  37.611   3.651
79845W        W51374   2.963  39.588  12.679
79846W        W51375  44.262  14.270  10.883
79847W        W51376  26.411  20.753   1.288
79848W        W51377   1.719   4.579  14.613
79849W        W51378  15.699  42.483   4.758
79850W        W51379  13.349  20.618  13.551
79851W        W51380  27.011  27.270   0.912
79852W        W51381  42.798  16.261  12.901
79853W        W51382  36.857   0.842   4.602
79854W        W51383  35.239  27.985  12.272
79855W        W51384  40.720  35.092  14.359
79856W        W51385  24.072  24.370  10.770
79857W        W51386  41.043   4.044  13.599
79858W        W51387  17.564   6.408   0.349
79859W        W51388   0.014  16.126   0.864
79860W        W51389   3.333  38.860   2.856
79861W        W51390   8.556  27.473   3.710
79862W        W51391  32.600  41.154  12.166
79863W        W51392  35.001  31.010  11.025
79864W        W51393  27.537  28.378  13.956
79865W        W51394  20.015   5.376   4.059
79866W        W51395  41.947  39.641  13.412
79867W        W51396  15.181  39.989  12.514
79868W        W51397   2.377  41.906   1.036
79869W        W51398  27.190  13.004   4.670
79870W        W51399  11.740  31.497   1.476
79871W        W51400  28.893  22.743   1.275
79872W        W51401  40.127  28.719  12.450
79873W        W51402  28.629  34.252  11.597
79874W        W51403  15.781  18.044  13.336
79875W        W51404   9.714  15.690   1.925
79876W        W51405  41.397  28.794  11.603
79877W        W51406  11.497   6.479  12.594
79878W        W51407   5.606  27.718  13.814
79879W        W51408  22.941  18.612  14.017
79880W        W51409  21.449  21.570  11.072
79881W        W51410  42.813  35.024   1.291
79882W        W51411  30.053  35.851   0.912
79883W        W51412  18.181  38.393   1.200
79884W        W51413   9.360   8.641   1.449
79885W        W51414  26.110  37.789   4.683
79886W        W51415   8.677  23.071   2.755
79887W        W51416  12.321  40.711  12.324
79888W        W51417  22.131  23.065  14.100
79889W        W51418  25.575  20.973  14.734
79890W        W51419  15.292  34.723  12.084
79891W        W51420  38.287  23.358   1.674
79892W        W51421  43.748  19.287  11.689
79893W        W51422  32.444  13.620  14.264
79894W        W51423  14.456   2.142  12.901
79895W        W51424  18.706  21.626   4.366
79896W        W51425  28.887  10.124   0.818
79897W        W51426   9.832   1.963   4.781
79898W        W51427  39.770  35.372   3.728
79899W        W51428  23.727  20.365   2.753
79900W        W51429  29.998  40.040   1.402
79901W        W51430  33.299  33.756   3.897
79902W        W51431  20.659  27.338   4.962
79903W        W51432  44.564  16.701  14.803
79904W        W51433   8.165   7.924  14.835
79905W        W51434   1.745  18.145   3.341
79906W        W51435   9.742   5.736  12.079
79907W        W51436  28.419  29.514  10.652
79908W        W51437   1.184  15.262   1.422
79909W        W51438   3.183   2.274   4.837
79910W        W51439  15.474  11.852   4.409
79911W        W51440   8.780  16.042  11.536
79912W        W51441  43.344   1.923  10.418
79913W        W51442   7.101   8.655  12.708
79914W        W51443   3.735  36.368   4.090
79915W        W51444  33.977   6.601   1.377
79916W        W51445  15.114  32.586   1.004
79917W        W51446  26.148  38.598   3.630
79918W        W51447  17.631  11.875  11.219
79919W        W51448   7.714   6.765   4.012
79920W        W51449  28.226  13.912   0.048
79921W        W51450   2.932   2.838  14.549
79922W        W51451   4.384  43.981   1.952
79923W        W51452  41.907   3.496  12.240
79924W        W51453  25.484  14.021  14.532
79925W        W51454  26.018  33.664   1.723
79926W        W51455  18.084  27.238  11.184
79927W        W51456  37.466  22.178   0.954
79928W        W51457  23.611   1.234   1.260
79929W        W51458   1.910   4.561  11.894
79930W        W51459  26.741  31.687   1.926
79931W        W51460  23.151   0.500  14.826
79932W        W51461  28.586   1.770   3.541
79933W        W51462  26.425   9.360   2.398
79934W        W51463  21.564   7.957   4.508
79935W        W51464  18.787  30.450  11.703
79936W        W51465  16.082  30.826  13.296
79937W        W51466  10.472  42.341   3.223
79938W        W51467  35.835  10.582   2.379
79939W        W51468  42.947  20.741  13.285
79940W        W51469  22.542  24.707  14.007
79941W        W51470  31.896   9.699  14.950
79942W        W51471  34.065   8.675  10.839
79943W        W51472  44.853  30.950  11.521
79944W        W51473  23.616   4.755   2.809
79945W        W51474  43.208  29.601  14.347
79946W        W51475  19.109  31.791  12.354
79947W        W51476  40.839  23.997  11.211
79948W        W51477  35.823  23.077  11.866
79949W        W51478  14.841  16.669  14.092
79950W        W51479   2.841  29.930   0.329
79951W        W51480  27.736   8.350   1.306
79952W        W51481  18.751   1.472  12.904
79953W        W51482   4.836  42.748  14.686
79954W        W51483  21.046  41.424  12.485
79955W        W51484  15.236   5.313  14.713
79956W        W51485  22.444  10.891   2.344
79957W        W51486  24.670  28.902   4.540
79958W        W51487   1.922  27.457  12.402
79959W        W51488  33.702  11.371  10.035
79960W        W51489   0.433  15.340  14.467
79961W        W51490  14.652  37.501  14.012
79962W        W51491  23.075   3.056   2.225
79963W        W51492   4.714  15.118  12.483
79964W        W51493  18.035   3.183   4.161
79965W        W51494  28.075  19.255   2.257
79966W        W51495  13.852  10.170   4.502
79967W        W51496  32.862   7.920   3.692
79968W        W51497  12.382  10.315  13.338
79969W        W51498  29.685  13.780   3.327
79970W        W51499  33.680  43.405  13.944
79971W        W51500  37.934   9.290  13.981
79972W        W51501  43.236  28.921  12.005
79973W        W51502   4.372  13.633   0.015
79974W        W51503  24.192  14.501  10.462
79975W        W51504  39.904  15.081   4.537
79976W        W51505  28.710  43.268  10.838
79977W        W51506  43.188   6.624  10.772
79978W        W51507  42.335  40.074  11.372
79979W        W51508  38.748  30.480   3.727
79980W        W51509  23.120   2.881   3.938
79981W        W51510  20.228  16.097   2.359
79982W        W51511   9.120  13.265   2.368
79983W        W51512  43.045  30.389   4.906
79984W        W51513  30.978  23.593  13.985
79985W        W51514  36.948  15.601  13.013
79986W        W51515  41.186  35.091   4.605
79987W        W51516  17.868   0.409  13.033
79988W        W51517   7.181  32.385  13.487
79989W        W51518  21.827  35.169  13.244
79990W        W51519  36.144  43.848   4.110
79991W        W51520  41.789   2.202  13.903
79992W        W51521  28.972  25.798   1.451
79993W        W51522  25.373  42.597  14.459
79994W        W51523  21.052  11.189   4.071
79995W        W51524   2.788  17.283   2.122
79996W        W51525  30.994   2.604   2.387
79997W        W51526  14.552  25.913  13.725
79998W        W51527  39.813  26.227  12.883
79999W        W51528   7.296  44.776   1.895
80000W        W51529  31.582  25.208  11.713
80001W        W51530   0.186  17.197   1.159
80002W        W51531  26.115   5.835   2.657
80003W        W51532   1.233  21.569   0.427
80004W        W51533   9.551   8.455   1.918
80005W        W51534  32.060  33.698   4.765
80006W        W51535  11.941  19.165   3.491
80007W        W51536   2.925  31.167  13.770
80008W        W51537  32.803  35.048   0.354
80009W        W51538  18.849  28.962   2.782
80010W        W51539  23.884   6.370  14.791
80011W        W51540  20.581  16.832  11.559
80012W        W51541   9.892   1.996   2.188
80013W        W51542  40.994  38.102  12.402
80014W        W51543  29.524   9.088   4.094
80015W        W51544  17.813  19.531  10.285
80016W        W51545  35.424  26.501   0.617
80017W        W51546  20.509  44.787   4.744
80018W        W51547  25.024  19.611   4.101
80019W        W51548  20.055  38.744   9.968
80020W        W51549   1.208  16.312   0.347
80021W        W51550  41.863   3.337   4.151
80022W        W51551  24.906  38.778  14.680
80023W        W51552  26.391  31.050  10.404
80024W        W51553  14.514   5.458  14.512
80025W        W51554  31.402  42.524  12.555
80026W        W51555  19.258   6.005   1.746
80027W        W51556  18.066   3.753  11.984
80028W        W51557  33.214  15.360   2.257
80029W        W51558  28.181  14.713   2.356
80030W        W51559  29.017  27.432   0.513
80031W        W51560  23.465  28.723   2.209
80032W        W51561  22.646  40.517   4.947
80033W        W51562  38.854  17.308   0.232
80034W        W51563   2.307  33.515   0.978
80035W        W51564  28.892  37.227   3.207
80036W        W51565   2.347   2.947   4.410
80037W        W51566   7.298   0.112  11.636
80038W        W51567  11.158  23.165  11.183
80039W        W51568   6.156  32.538   1.273
80040W        W51569  20.025  38.570  11.563
80041W        W51570   2.933  38.486   0.856
80042W        W51571  24.264  44.187   4.200
80043W        W51572  19.059  27.254  11.114
80044W        W51573  22.154  33.970  11.653
80045W        W51574  22.686  34.285  12.512
80046W        W51575  32.867  14.333  10.947
80047W        W51576  39.445   8.357  13.377
80048W        W51577  30.271   4.292   4.305
80049W        W51578  40.447  18.184   2.828
80050W        W51579  17.607   3.648  13.399
80051W        W51580  25.681   2.767   3.130
80052W        W51581  17.210  38.313   4.177
80053W        W51582  33.870  34.385  11.487
80054W        W51583  36.589  20.546  13.939
80055W        W51584  38.526  34.078   3.013
80056W        W51585  28.947  21.318  12.953
80057W        W51586  38.742  42.014   2.317
80058W        W51587  23.912  10.770  13.473
80059W        W51588  17.362  34.508  12.183
80060W        W51589  41.255  16.008   1.303
80061W        W51590  18.081   8.122   0.882
80062W        W51591   1.488  12.869   1.855
80063W        W51592  22.414  38.414   2.189
80064W        W51593  13.780   1.127   0.506
80065W        W51594  13.730  36.430  10.683
80066W        W51595  22.825  26.304  12.814
80067W        W51596  44.071   5.738   0.172
80068W        W51597   0.300   7.114  11.590
80069W        W51598  15.050   8.800  11.883
80070W        W51599  10.157  26.050   1.156
80071W        W51600  31.991  31.484   4.280
80072W        W51601  22.283  31.564  13.050
80073W        W51602   8.730  26.943  11.095
80074W        W51603   4.297  39.124   0.862
80075W        W51604  40.890  30.036  11.703
80076W        W51605  24.071  14.736   1.710
80077W        W51606  31.671  39.597   0.485
80078W        W51607   2.335  38.361  10.766
80079W        W51608  23.759  21.181   2.250
80080W        W51609   9.590  33.804   0.298
80081W        W51610  10.794  33.447   0.373
80082W        W51611  25.665  13.757  13.550
80083W        W51612  30.559  22.462   1.976
80084W        W51613  27.352  10.288  14.828
80085W        W51614   1.382  30.596  12.014
80086W        W51615  25.552   7.672  14.320
80087W        W51616  39.464  33.715   4.494
80088W        W51617  30.392  14.862   3.691
80089W        W51618  35.929  17.354   2.188
80090W        W51619  29.674   8.266  11.335
80091W        W51620  15.596   5.859   4.578
80092W        W51621  39.096  18.505  11.219
80093W        W51622   1.299  16.335  13.997
80094W        W51623  23.543  21.753  11.641
80095W        W51624  10.240  12.415   0.379
80096W        W51625   3.678  33.465  14.104
80097W        W51626  30.219  14.323  11.204
80098W        W51627  13.410  31.412  13.152
80099W        W51628  13.363  12.986   1.878
80100W        W51629  12.678  32.509  14.491
80101W        W51630   5.784  28.071   3.230
80102W        W51631   5.218   4.904  13.947
80103W        W51632  15.090   4.215   0.553
80104W        W51633  10.383  42.742   3.599
80105W        W51634  28.405  24.920  14.354
80106W        W51635  25.488  24.434  12.408
80107W        W51636  19.751  20.881   1.906
80108W        W51637  38.343  22.529  13.938
80109W        W51638  13.356  40.053  10.492
80110W        W51639  30.985   2.882  11.161
80111W        W51640  16.593  32.544  10.456
80112W        W51641  39.323   0.702  13.445
80113W        W51642  19.096  10.199  11.630
80114W        W51643  35.817  12.771  14.805
80115W        W51644  44.820  40.973  13.566
80116W        W51645  18.958  33.434  14.516
80117W        W51646  33.885   0.294  10.918
80118W        W51647  24.777  37.914  13.706
80119W        W51648  23.916  23.099  11.031
80120W        W51649   3.240  31.634  11.937
80121W        W51650  27.030  27.506  12.162
80122W        W51651  37.677   3.850  14.368
80123W        W51652  41.208   6.827   4.525
80124W        W51653  28.264  14.178   2.251
80125W        W51654  43.516  39.612   2.061
80126W        W51655   6.233  24.143   1.802
80127W        W51656  11.260  24.348   1.826
80128W        W51657  34.401  24.852  13.955
80129W        W51658   0.025  15.034  12.143
80130W        W51659  33.512  35.167  14.533
80131W        W51660  30.662  38.312   0.387
80132W        W51661   3.377  42.040  10.647
80133W        W51662  38.134  18.183  11.219
80134W        W51663  30.967  35.861  11.540
80135W        W51664  40.590   1.147   2.311
80136W        W51665  26.216  33.513   3.047
80137W        W51666  29.736  32.898   4.040
80138W        W51667   2.800  17.566  13.368
80139W        W51668  40.287   0.880   1.382
80140W        W51669  32.570  10.185  11.120
80141W        W51670  30.462  21.255   1.256
80142W        W51671  20.478  14.665   3.610
80143W        W51672  25.496  19.152   3.254
80144W        W51673  37.509  44.583   1.759
80145W        W51674  38.465  28.016   0.992
80146W        W51675  16.178  35.283   1.806
80147W        W51676   2.234  22.466   4.944
80148W        W51677  17.132  20.115  12.582
80149W        W51678  21.123  24.126  10.974
80150W        W51679  36.099   8.392  13.332
80151W        W51680  20.703  40.073   1.229
80152W        W51681  37.912   5.798  12.226
80153W        W51682  29.764  22.307   5.158
80154W        W51683  36.548  28.976  13.912
80155W        W51684  44.847  41.168  14.044
80156W        W51685  32.862   2.389   0.754
80157W        W51686   0.494  31.893   1.493
80158W        W51687  43.423   0.198   2.191
80159W        W51688  17.787  40.840  13.341
80160W        W51689  44.339  23.679  13.498
80161W        W51690   6.630  19.748   2.337
80162W        W51691  24.667  11.213   1.972
80163W        W51692  21.820  15.276  10.623
80164W        W51693  30.896  27.142  11.567
80165W        W51694   1.404  38.626  13.356
80166W        W51695  22.199   8.235  14.322
80167W        W51696  38.282   9.473  12.465
80168W        W51697  13.168   8.671   2.805
80169W        W51698  16.036  40.885   2.927
80170W        W51699  25.455  31.244   4.799
80171W        W51700  11.637   1.668  14.439
80172W        W51701  40.289   7.581   5.083
80173W        W51702  20.002  31.278  11.275
80174W        W51703  32.680  40.301   2.680
80175W        W51704  35.156  30.094   1.707
80176W        W51705  31.829   9.344   1.376
80177W        W51706   7.269  29.684   1.659
80178W        W51707  27.050   0.926  10.769
80179W        W51708  39.802  25.217   2.741
80180W        W51709  44.980  25.517  13.824
80181W        W51710   8.875   8.427   4.334
80182W        W51711  13.969   6.417   0.308
80183W        W51712  38.019  30.810  14.424
80184W        W51713  18.828  11.323   4.582
80185W        W51714  34.809   8.806  13.342
80186W        W51715  26.663  27.527   2.731
80187W        W51716  23.751  34.123   3.597
80188W        W51717  28.408   3.721  14.399
80189W        W51718  37.452  18.075  14.317
80190W        W51719  10.178  14.143  11.130
80191W        W51720  15.743  38.431  14.543
80192W        W51721  15.203   0.009   1.167
80193W        W51722  16.054   6.435  12.917
80194W        W51723  10.117  29.133   3.716
80195W        W51724   8.707  27.008   0.395
80196W        W51725   4.932  28.732   1.845
80197W        W51726   1.259   9.143   1.282
80198W        W51727  24.663  13.140   1.850
80199W        W51728   6.786  37.600   2.210
80200W        W51729   9.665  29.278   4.311
80201W        W51730  12.345  39.339   3.635
80202W        W51731  34.104  39.531   2.959
80203W        W51732  39.538  35.496   3.227
80204W        W51733  12.648   9.895   2.885
80205W        W51734  35.531  17.742   2.252
80206W        W51735  40.259  37.055   2.332
80207W        W51736  43.819  43.846  13.371
80208W        W51737  21.647  28.725   3.700
80209W        W51738  11.565  41.900   4.837
80210W        W51739  17.374   9.982   2.768
80211W        W51740  32.005  25.595  10.910
80212W        W51741  38.835   7.502   2.897
80213W        W51742   0.811  15.428  12.682
80214W        W51743  24.696  19.478   2.295
80215W        W51744   8.250  30.905  11.629
80216W        W51745  31.964  34.150   3.388
80217W        W51746  14.179  31.703  14.433
80218W        W51747  13.262   3.387  14.519
80219W        W51748  23.653  27.756   4.623
80220W        W51749   3.230   1.338  11.687
80221W        W51750  10.730   0.390  13.659
80222W        W51751  41.486   4.591   4.612
80223W        W51752  23.922   7.104  14.474
80224W        W51753  18.676  41.567   1.759
80225W        W51754  27.407  22.496   0.809
80226W        W51755  30.298  35.496  14.759
80227W        W51756  32.466   6.732   3.360
80228W        W51757  12.591  40.246   3.371
80229W        W51758  28.879   6.205   2.209
80230W        W51759  31.862  16.408  13.859
80231W        W51760   4.364   5.753  10.628
80232W        W51761  27.839  27.824  12.630
80233W        W51762  11.280  33.545   1.744
80234W        W51763  36.163   9.317   0.962
80235W        W51764   7.188  36.281   1.426
80236W        W51765  33.964  27.569  11.993
80237W        W51766  35.572  13.156   3.185
80238W        W51767   2.515  24.141  12.118
80239W        W51768  29.052  39.057  11.457
80240W        W51769  18.498   8.400  14.571
80241W        W51770  28.093  34.030  12.287
80242W        W51771  34.894  21.469   3.304
80243W        W51772  26.194  39.589   2.799
80244W        W51773   6.617   8.475   3.279
80245W        W51774  33.907  25.581   4.103
80246W        W51775  35.119  19.777  11.025
80247W        W51776  28.679  27.667   1.336
80248W        W51777  21.926  21.204   1.649
80249W        W51778  15.259  39.934  13.021
80250W        W51779  38.319  41.143   0.294
80251W        W51780  28.727   0.517   1.318
80252W        W51781  43.069  32.040  13.426
80253W        W51782   7.145  17.030   4.030
80254W        W51783  38.073  21.604   4.193
80255W        W51784  14.186  37.315  10.531
80256W        W51785  33.124   0.809  11.544
80257W        W51786  43.235  29.641  13.020
80258W        W51787  35.756   6.061  12.494
80259W        W51788   6.192  22.149   0.740
80260W        W51789  25.984  33.698  14.365
80261W        W51790  27.561  25.559   3.066
80262W        W51791  33.114  21.791  14.743
80263W        W51792  14.462  39.800   1.025
80264W        W51793  42.975  36.467   1.160
80265W        W51794   1.644  23.928  12.478
80266W        W51795  35.689   1.980  12.058
80267W        W51796  19.670   8.739   1.303
80268W        W51797  40.610  37.822  11.491
80269W        W51798  31.459   2.770  14.404
80270W        W51799  37.505  42.096   3.248
80271W        W51800  16.799  33.140   0.312
80272W        W51801  20.047   8.682   4.277
80273W        W51802  33.158  26.063  13.297
80274W        W51803  20.331   6.202  12.416
80275W        W51804  30.342  28.937   1.925
80276W        W51805  20.261   6.832   0.216
80277W        W51806  13.077  18.803  12.144
80278W        W51807  11.160  38.240   4.653
80279W        W51808  21.067  12.382  13.407
80280W        W51809  18.052  37.621   2.532
80281W        W51810  33.245  37.367   1.211
80282W        W51811  30.540  13.201   3.173
80283W        W51812  37.658  37.448   4.976
80284W        W51813  29.656  22.063  13.742
80285W        W51814  43.747  27.001  13.965
80286W        W51815  42.109   9.277  13.726
80287W        W51816   4.410  36.374  14.277
80288W        W51817  34.831  35.966   0.445
80289W        W51818  13.342  31.686  11.106
80290W        W51819  26.435   4.956  12.011
80291W        W51820  35.593  44.956  13.316
80292W        W51821   6.320  23.050  13.457
80293W        W51822  13.386   6.721  10.560
80294W        W51823  44.507  39.633  13.017
80295W        W51824  20.535   7.453   3.269
80296W        W51825  23.179  35.791   1.413
80297W        W51826  11.661  41.068  14.018
80298W        W51827   2.226  19.788  10.752
80299W        W51828  31.956  21.586  14.307
80300W        W51829  34.674  37.083   1.361
80301W        W51830   5.181   9.309   3.843
80302W        W51831  33.580   1.958   3.058
80303W        W51832   8.812  17.701   4.139
80304W        W51833   7.404  16.508  13.357
80305W        W51834  34.522  43.416   0.030
80306W        W51835  18.544   2.425   1.789
80307W        W51836  16.500  32.366  14.839
80308W        W51837  25.100   6.914   0.988
80309W        W51838  24.020  35.977  12.896
80310W        W51839  27.739  12.353   1.642
80311W        W51840  28.674  31.152   2.806
80312W        W51841  43.566  16.128   2.921
80313W        W51842  14.434  35.383   4.730
80314W        W51843  30.946  18.278  14.829
80315W        W51844  20.392   3.402   3.769
80316W        W51845   3.462  19.203   3.609
80317W        W51846   0.256   1.962  13.083
80318W        W51847  16.143  14.545   4.650
80319W        W51848  13.613  19.382   2.832
80320W        W51849  25.901  36.015   0.954
80321W        W51850  14.282  29.138  14.457
80322W        W51851   5.681   7.360  12.955
80323W        W51852  39.346   6.107  13.068
80324W        W51853  11.893  42.939   0.001
80325W        W51854  30.281   5.175   3.241
80326W        W51855  37.029  44.492   9.997
80327W        W51856  11.263   9.598   2.702
80328W        W51857  27.023  34.720   4.715
80329W        W51858  43.419  13.191   1.302
80330W        W51859  23.799  33.967  10.727
80331W        W51860   2.802   1.732  12.515
80332W        W51861   3.848  41.472   2.562
80333W        W51862  10.491   8.813  10.955
80334W        W51863  24.053  23.693   1.392
80335W        W51864  43.243   5.149  13.426
80336W        W51865  31.346  33.021   0.293
80337W        W51866  31.113  24.163  12.853
80338W        W51867  16.541  34.814  12.222
80339W        W51868   7.560   4.219  14.991
80340W        W51869  24.217  42.520   3.596
80341W        W51870  40.053  12.102  14.458
80342W        W51871   0.121  22.747   2.714
80343W        W51872  26.619  17.566   2.697
80344W        W51873  22.595  44.280   1.906
80345W        W51874  41.884   8.183  14.470
80346W        W51875  35.924   4.023   2.327
80347W        W51876  24.853  32.990  12.004
80348W        W51877  14.338   6.202   1.419
80349W        W51878  29.574   4.736  13.023
80350W        W51879  32.673  44.257  11.577
80351W        W51880   9.389   7.358   0.793
80352W        W51881   2.516  12.582  13.113
80353W        W51882  32.986   3.813  13.598
80354W        W51883  36.717  25.048   0.758
80355W        W51884  22.644  38.899   3.679
80356W        W51885  27.190  16.543  13.773
80357W        W51886  30.050  39.833   1.864
80358W        W51887   4.813  33.398   4.702
80359W        W51888  23.587  18.246   4.760
80360W        W51889  11.120  16.646   2.760
80361W        W51890  16.624  20.099  10.496
80362W        W51891   6.833  22.965  14.898
80363W        W51892  17.644   6.898  14.435
80364W        W51893  28.005  31.612  14.240
80365W        W51894  25.623   1.462   3.232
80366W        W51895  42.233  43.432   3.178
80367W        W51896   2.166  21.821  11.991
80368W        W51897  15.308  15.564   1.945
80369W        W51898   4.257   6.853  12.956
80370W        W51899  43.368   8.597  13.519
80371W        W51900  40.178  26.112   2.816
80372W        W51901  35.150  11.602   2.695
80373W        W51902  35.914  24.645   1.295
80374W        W51903  13.817  15.645  12.442
80375W        W51904  26.622  14.182  13.752
80376W        W51905  17.990  11.869   2.357
80377W        W51906  35.074   3.968  13.416
80378W        W51907  25.177   3.358  11.542
80379W        W51908  21.234  40.965   4.036
80380W        W51909  10.674  24.670  10.692
80381W        W51910  37.289  35.825  11.599
80382W        W51911  34.752  15.123  13.453
80383W        W51912  24.708  40.378   4.005
80384W        W51913  41.329  19.942   4.742
80385W        W51914  28.733  14.059  14.990
80386W        W51915  41.291  12.807   0.910
80387W        W51916  16.351  37.489  11.483
80388W        W51917  32.933   4.582   2.295
80389W        W51918  34.154  31.039   0.423
80390W        W51919  23.695  15.922   1.329
80391W        W51920  28.506   1.738   3.040
80392W        W51921  16.054  14.670   2.048
80393W        W51922   1.223  31.556   1.476
80394W        W51923  24.230  25.942   1.376
80395W        W51924  26.305  32.425  12.501
80396W        W51925  32.623  30.841  13.956
80397W        W51926  30.696   7.418  14.616
80398W        W51927  18.973   5.976   2.306
80399W        W51928  29.535  30.658   3.282
80400W        W51929  32.375   2.431   1.735
80401W        W51930  18.469  44.963   4.566
80402W        W51931   9.311  38.388   2.152
80403W        W51932  40.897  22.639   1.240
80404W        W51933   6.899   6.724   3.754
80405W        W51934   8.923  43.004  14.883
80406W        W51935  15.582  19.684   0.464
80407W        W51936  33.393  15.780  13.403
80408W        W51937  35.370  14.265   0.944
80409W        W51938  40.799  33.551   3.748
80410W        W51939   6.963  34.350  12.781
80411W        W51940  29.459   7.920   1.865
80412W        W51941  20.705  32.905  11.921
80413W        W51942   5.502  15.232   1.853
80414W        W51943   8.567  13.121   3.242
80415W        W51944  16.710  31.177  11.806
80416W        W51945  25.637   2.487  12.961
80417W        W51946  42.466  30.718   1.482
80418W        W51947   2.139  26.215   2.729
80419W        W51948  14.584  44.413  12.595
80420W        W51949  38.002   5.399  11.191
80421W        W51950  16.231  29.353  11.563
80422W        W51951   3.405  15.390  12.549
80423W        W51952   5.762   6.784  11.175
80424W        W51953   1.947  39.991   0.702
80425W        W51954  18.676   9.902   4.224
80426W        W51955   0.254   0.828   0.781
80427W        W51956   8.233  34.820  14.597
80428W        W51957   4.960  22.769   3.589
80429W        W51958  28.009   4.975   4.541
80430W        W51959  33.257  38.884  10.105
80431W        W51960  15.638  34.223   1.262
80432W        W51961   4.284  37.520  13.804
80433W        W51962  34.958  15.272   4.682
80434W        W51963  19.455  37.989  10.634
80435W        W51964  18.082  35.336   1.327
80436W        W51965  41.288   6.877  11.193
80437W        W51966   9.059  27.596  14.966
80438W        W51967   6.363  17.081  13.529
80439W        W51968  33.616  31.153   2.932
80440W        W51969  14.735  37.254   0.272
80441W        W51970  26.101  17.298  14.310
80442W        W51971   9.644  14.480   4.818
80443W        W51972  25.662  42.415   3.887
80444W        W51973  42.937  42.563  14.012
80445W        W51974  19.829  37.192  11.585
80446W        W51975  21.682  42.964  13.308
80447W        W51976  32.451  44.575   5.135
80448W        W51977  35.955  28.011  12.992
80449W        W51978  21.537  41.767   1.798
80450W        W51979   5.911  17.831  12.915
80451W        W51980  10.119   0.896  12.507
80452W        W51981  20.142  29.766  11.506
80453W        W51982  26.064   4.728  14.953
80454W        W51983  36.393  22.661  10.853
80455W        W51984  44.975  28.795   3.671
80456W        W51985   9.868   6.708   0.386
80457W        W51986  37.275  34.177   4.631
80458W        W51987   7.884   2.560  13.122
80459W        W51988  36.801   0.448  13.870
80460W        W51989  31.613  35.464   2.814
80461W        W51990  41.857   0.059  11.288
80462W        W51991   0.421  23.402  11.484
80463W        W51992  43.997  19.839  12.575
80464W        W51993  25.685  44.893   0.871
80465W        W51994  31.653  14.109  13.813
80466W        W51995  10.813  26.568  14.562
80467W        W51996  14.848   0.606   0.743
80468W        W51997  15.728   2.405   0.298
80469W        W51998   2.045   7.290  12.021
80470W        W51999  29.886  18.107   0.245
80471W        W52000  38.823   5.473   0.871
80472W        W52001   5.978  31.759  14.918
80473W        W52002  31.152   7.353  10.533
80474W        W52003  34.064  19.496  12.897
80475W        W52004  21.206   3.837  13.645
80476W        W52005  38.298   7.665   2.687
80477W        W52006  33.457  18.069   0.958
80478W        W52007   1.645   5.100   3.690
80479W        W52008  40.226   1.886  13.391
80480W        W52009  17.267  27.593  12.521
80481W        W52010  23.745  33.082   4.042
80482W        W52011  28.397   8.346   1.852
80483W        W52012  17.301  10.683  10.713
80484W        W52013   5.866  15.714  10.715
80485W        W52014  33.034   4.058  14.972
80486W        W52015  18.729  30.321  14.014
80487W        W52016  19.082   7.229   3.625
80488W        W52017  15.646  26.372  12.724
80489W        W52018  22.998  23.001   0.359
80490W        W52019  18.808  39.732  11.577
80491W        W52020  41.054  44.968   1.968
80492W        W52021  42.768  16.048  12.438
80493W        W52022  10.387  35.169   0.317
80494W        W52023  18.234   8.475   2.204
80495W        W52024  13.594  31.261  11.935
80496W        W52025  33.834   5.634   0.445
80497W        W52026  21.573   1.146  13.179
80498W        W52027   4.274  35.576   2.451
80499W        W52028  44.460  20.781  13.539
80500W        W52029  21.255  17.578   2.309
80501W        W52030  14.506   4.197  11.820
80502W        W52031  27.202  30.089   1.394
80503W        W52032   6.315  15.409  10.747
80504W        W52033  42.918  29.697  13.937
80505W        W52034  36.640  26.518  12.989
80506W        W52035   3.932  25.365  10.552
80507W        W52036   3.860  33.430   2.841
80508W        W52037  38.962  38.441  11.112
80509W        W52038  29.050  23.212   2.314
80510W        W52039  19.232  31.876  14.355
80511W        W52040   2.326  12.215   4.566
80512W        W52041   4.038   0.184   2.371
80513W        W52042  42.054  13.848   2.329
80514W        W52043  12.639  17.130   4.065
80515W        W52044  25.934  31.111   3.391
80516W        W52045  37.037  25.473   3.099
80517W        W52046  26.471  42.836  12.938
80518W        W52047  16.976   5.680   2.593
80519W        W52048  27.941   7.169   0.126
80520W        W52049   6.168  36.027   1.690
80521W        W52050  12.679  44.593  12.660
80522W        W52051  34.569  27.989   4.946
80523W        W52052  23.523  37.885  13.788
80524W        W52053   6.632  22.105   3.619
80525W        W52054  12.314   2.746   1.385
80526W        W52055  22.552   0.862   9.827
80527W        W52056   4.780  13.668  14.427
80528W        W52057  33.962  14.171   1.244
80529W        W52058  34.596  40.537   0.412
80530W        W52059  29.427  41.945  14.273
80531W        W52060  26.914  12.354  10.536
80532W        W52061   0.309  36.349  11.470
80533W        W52062  14.704  17.388  12.122
80534W        W52063  32.139   1.436  13.379
80535W        W52064  32.098   7.950   1.418
80536W        W52065  36.774  11.090   4.817
80537W        W52066  14.238   4.593  13.556
80538W        W52067  29.638  34.403  14.533
80539W        W52068   5.203   6.690   2.157
80540W        W52069   5.657  44.319   0.873
80541W        W52070  19.128  41.870   1.041
80542W        W52071  22.097  28.401   4.387
80543W        W52072  15.860  20.143  13.004
80544W        W52073   3.830  23.113  11.567
80545W        W52074   6.627  38.673   4.491
80546W        W52075  33.409   1.240   2.202
80547W        W52076  36.918   3.398   3.269
80548W        W52077  43.044  41.834  11.627
80549W        W52078  28.210  20.652  12.485
80550W        W52079  28.714  12.403  13.466
80551W        W52080  39.778  37.437  14.399
80552W        W52081   1.884   0.748  11.537
80553W        W52082   9.061   0.144   3.610
80554W        W52083  10.034   5.863   4.962
80555W        W52084  44.807  22.187  10.055
80556W        W52085  35.600  44.221   2.830
80557W        W52086  34.200  10.570  12.551
80558W        W52087  22.756   1.275  13.440
80559W        W52088  28.383  40.069   1.433
80560W        W52089  21.715  38.472  14.715
80561W        W52090  32.912  20.194   3.668
80562W        W52091  39.497  17.644  11.979
80563W        W52092  25.098  38.571   1.971
80564W        W52093  26.276  40.405   3.719
80565W        W52094  29.096  26.030   2.925
80566W        W52095  19.141  25.583   4.667
80567W        W52096  35.839  29.542   4.687
80568W        W52097  33.726  34.595  14.566
80569W        W52098   8.240  27.439  14.739
80570W        W52099  24.556  42.883  11.379
80571W        W52100  27.046   8.691   4.805
80572W        W52101  27.660  42.326   2.871
80573W        W52102  28.776  41.479   0.387
80574W        W52103  19.419  33.940  13.444
80575W        W52104  25.903  27.767   2.347
80576W        W52105  34.722  24.182  12.639
80577W        W52106  11.036  19.321   1.261
80578W        W52107  43.815  43.057  12.017
80579W        W52108   9.792  13.353  12.858
80580W        W52109  22.982  27.040  13.963
80581W        W52110  38.360   8.691  13.780
80582W        W52111   7.783   6.677  14.762
80583W        W52112  35.557  37.527   1.253
80584W        W52113  31.835  42.299   2.912
80585W        W52114  13.691   1.659   2.719
80586W        W52115  13.606  28.056   1.617
80587W        W52116  27.138  23.515  12.551
80588W        W52117  34.002   4.154   2.181
80589W        W52118   7.275  26.181   1.218
80590W        W52119  10.882  41.884   4.047
80591W        W52120  30.166   6.226   2.397
80592W        W52121  16.632  40.521   3.794
80593W        W52122  36.430  28.184  13.130
80594W        W52123   7.521   5.180   1.745
80595W        W52124   0.265  34.300   1.790
80596W        W52125  14.115  36.350   1.612
80597W        W52126  34.277  20.129  11.079
80598W        W52127  26.768  22.499  12.565
80599W        W52128  17.488  12.373   2.749
80600W        W52129  16.240  41.527  14.934
80601W        W52130  22.513  34.588  12.131
80602W        W52131  14.862  39.408   1.096
80603W        W52132  17.164  32.520  13.095
80604W        W52133  27.112  38.933  11.543
80605W        W52134  27.617   2.874  14.497
80606W        W52135  38.159   9.203   4.747
80607W        W52136  38.377   7.081  13.001
80608W        W52137  37.529  16.295   4.494
80609W        W52138  17.249  38.711   2.480
80610W        W52139  38.910  44.134  14.490
80611W        W52140  24.057  15.799   4.517
80612W        W52141   9.368  37.389   4.631
80613W        W52142   7.682  18.774  11.085
80614W        W52143   5.659  32.673  13.374
80615W        W52144  30.560  23.593  11.726
80616W        W52145  37.944  39.475  12.192
80617W        W52146  27.190   0.879   3.083
80618W        W52147  11.906  22.718   2.356
80619W        W52148  35.271  26.474   3.295
80620W        W52149   0.230  18.570   0.818
80621W        W52150  28.268   8.683   2.251
80622W        W52151  15.683  31.507   0.675
80623W        W52152  22.576  34.798   0.423
80624W        W52153  12.386  28.463  11.928
80625W        W52154  18.531  37.116   4.395
80626W        W52155   0.535  41.890  11.439
80627W        W52156  29.016  31.519  11.601
80628W        W52157   6.680   0.143   3.591
80629W        W52158  25.039  39.063  12.370
80630W        W52159  21.286  30.451  11.059
80631W        W52160  42.219  41.515   0.245
80632W        W52161  27.438   7.872   4.611
80633W        W52162  21.263  15.192  12.182
80634W        W52163  22.199  27.533  11.941
80635W        W52164  43.373  42.839   4.510
80636W        W52165   4.539  34.108  13.135
80637W        W52166  35.336  38.906  10.948
80638W        W52167  12.661  26.180   4.619
80639W        W52168   4.154  25.328  11.007
80640W        W52169   9.153  11.264  11.088
80641W        W52170  28.676   1.389  13.946
80642W        W52171  29.219  15.669   0.026
80643W        W52172   0.683   2.810   1.786
80644W        W52173  35.294  15.982  11.996
80645W        W52174  28.987  11.740  11.096
80646W        W52175  42.034  29.754   2.370
80647W        W52176  10.507  34.491  12.069
80648W        W52177   9.621  39.731   0.815
80649W        W52178  23.215  23.253  13.527
80650W        W52179  19.218  10.181  10.222
80651W        W52180  10.495  11.981   4.575
80652W        W52181   0.129  22.886  12.089
80653W        W52182  39.157  30.421   1.283
80654W        W52183   8.612  18.759   2.776
80655W        W52184  11.326  43.097  13.794
80656W        W52185  18.280  36.458   0.327
80657W        W52186   3.746  37.466  10.958
80658W        W52187  34.352  42.940  11.648
80659W        W52188  27.909  42.503   3.560
80660W        W52189  14.256  15.462  11.242
80661W        W52190  20.716  16.034  13.275
80662W        W52191  31.785  24.643   0.906
80663W        W52192  30.641  30.007  10.463
80664W        W52193  41.027  39.339   1.790
80665W        W52194   0.675  20.684  14.459
80666W        W52195  22.499  25.959  11.960
80667W        W52196  26.247  26.500  10.878
80668W        W52197   7.405  41.830   3.545
80669W        W52198  32.698  11.235  11.951
80670W        W52199   6.041  40.201  14.767
80671W        W52200   2.302  21.192  13.289
80672W        W52201  19.949  42.181   1.871
80673W        W52202  31.924  32.604  14.730
80674W        W52203   1.757   1.565   1.140
80675W        W52204   5.786  44.530  11.138
80676W        W52205  18.999  37.966   2.249
80677W        W52206  29.471  39.166  11.191
80678W        W52207  20.864  17.308   1.234
80679W        W52208  15.628  31.673   0.183
80680W        W52209  10.940  18.270  10.831
80681W        W52210  34.495  38.459  14.660
80682W        W52211  17.708  10.273   0.642
80683W        W52212  31.923  22.658  13.520
80684W        W52213  28.306  39.812   3.692
80685W        W52214  16.635  43.985  14.638
80686W        W52215  40.553  43.713  11.219
80687W        W52216  22.027  26.461   4.127
80688W        W52217   6.836  20.995   4.460
80689W        W52218  26.617  17.858   0.320
80690W        W52219  31.638   6.876   1.892
80691W        W52220  19.109  10.394   3.189
80692W        W52221   6.700   5.821   4.127
80693W        W52222  26.133  32.034   4.630
80694W        W52223  40.068  18.046  14.925
80695W        W52224  16.564  12.153  14.334
80696W        W52225  39.477   1.953   1.129
80697W        W52226  20.284  37.289  14.054
80698W        W52227   2.464  30.678   0.423
80699W        W52228  39.401   2.370  14.232
80700W        W52229  20.023  37.916   0.906
80701W        W52230   3.134  26.970   1.458
80702W        W52231  33.312  30.213  11.581
80703W        W52232  28.403   2.303  11.934
80704W        W52233   3.288  40.195   0.814
80705W        W52234   4.451  24.495  10.706
80706W        W52235  17.011   0.028  11.317
80707W        W52236  43.969  33.913   3.087
80708W        W52237  34.433  32.034   1.202
80709W        W52238  34.562  44.630  13.132
80710W        W52239   1.505  11.302  12.831
80711W        W52240  33.032  24.183  13.270
80712W        W52241   3.910   6.866  11.982
80713W        W52242  32.088   9.904   0.381
80714W        W52243  44.435  14.474  14.992
80715W        W52244   0.915  43.773   2.108
80716W        W52245  44.554   5.714  14.252
80717W        W52246  11.585  27.178  12.024
80718W        W52247   5.399   7.511   3.761
80719W        W52248   7.239  37.087   3.741
80720W        W52249   5.929  12.734  12.601
80721W        W52250  36.010   2.200   0.926
80722W        W52251  44.772  38.879  11.208
80723W        W52252  28.074   4.213  14.223
80724W        W52253  18.009  32.435   1.218
80725W        W52254  42.976   6.742  12.509
80726W        W52255  36.244  35.455   2.807
80727W        W52256  43.357  22.510  12.480
80728W        W52257  24.624  40.246   0.775
80729W        W52258  44.882  29.765   0.470
80730W        W52259   1.324  21.623   2.200
80731W        W52260   8.121  11.977   0.705
80732W        W52261   5.603  26.650  13.218
80733W        W52262  30.715  44.985  14.008
80734W        W52263  35.149  38.333   1.451
80735W        W52264  37.988  10.881   0.849
80736W        W52265  34.711  32.844  12.433
80737W        W52266  26.863   9.124   1.413
80738W        W52267   6.171  30.967  12.079
80739W        W52268  10.854  13.882  11.561
80740W        W52269   9.122  24.256  11.132
80741W        W52270  13.605  35.469   0.996
80742W        W52271  43.666   1.014  14.621
80743W        W52272  25.976   0.072  10.736
80744W        W52273  20.302  41.570   1.360
80745W        W52274   5.185   9.400  11.051
80746W        W52275  23.007   1.536   2.923
80747W        W52276  18.331  42.511   4.172
80748W        W52277  22.762  26.077   0.477
80749W        W52278   4.049  16.108   2.474
80750W        W52279  21.506  31.477  12.682
80751W        W52280  39.089   2.010   0.444
80752W        W52281   7.060  20.248   3.156
80753W        W52282  34.577  40.991   3.408
80754W        W52283   8.322   5.592   3.959
80755W        W52284  33.486  25.051   4.650
80756W        W52285  28.017   3.758   0.408
80757W        W52286   2.254  37.740  12.568
80758W        W52287   8.163   1.240   2.248
80759W        W52288  41.441   0.508   2.659
80760W        W52289   7.672   5.139  14.806
80761W        W52290  18.607  16.617  10.754
80762W        W52291   6.245   9.125  12.145
80763W        W52292  17.949  24.035   4.407
80764W        W52293  14.253  40.635   2.828
80765W        W52294  36.119  13.652   0.224
80766W        W52295  23.527   2.729  11.157
80767W        W52296   0.840   8.875   4.481
80768W        W52297  41.909  16.062   4.950
80769W        W52298   9.913   0.368  14.194
80770W        W52299  11.391  10.333   2.197
80771W        W52300  30.879   9.900  12.004
80772W        W52301  34.080  12.866  14.548
80773W        W52302  24.302  37.914   4.334
80774W        W52303  26.425  29.106   4.580
80775W        W52304  23.235  44.758   0.878
80776W        W52305  13.254  33.053   4.417
80777W        W52306  18.608  34.352  14.941
80778W        W52307   6.120   3.443  14.829
80779W        W52308  24.173  13.393   1.850
80780W        W52309  21.627  20.651  13.066
80781W        W52310  36.829  18.804  14.320
80782W        W52311  11.059   8.366  11.921
80783W        W52312  19.262   5.746   1.252
80784W        W52313  33.002  28.076  12.805
80785W        W52314  42.081  28.953   1.300
80786W        W52315  30.356   9.834   0.381
80787W        W52316  17.793  23.097   1.818
80788W        W52317  10.813  14.710   4.099
80789W        W52318  29.515  20.018  11.588
80790W        W52319  27.735  27.310   1.603
80791W        W52320   8.922  14.378   1.009
80792W        W52321   2.779   5.736   2.722
80793W        W52322  25.676  23.056  13.511
80794W        W52323  36.929  19.261  13.053
80795W        W52324  41.859  41.150   3.272
80796W        W52325  15.633   5.158   3.310
80797W        W52326  18.523  23.104  11.868
80798W        W52327  15.290  41.399   0.062
80799W        W52328   2.311  14.333  12.605
80800W        W52329   3.289  33.378   3.401
80801W        W52330   1.390   6.165  11.946
80802W        W52331  44.714  21.181   1.794
80803W        W52332  25.097   6.215   1.753
80804W        W52333  15.053   6.205  14.441
80805W        W52334   4.661   5.372  12.815
80806W        W52335  28.119  20.487   2.696
80807W        W52336  36.158  18.107  11.480
80808W        W52337  34.691  43.141   4.191
80809W        W52338  43.905   9.748  10.745
80810W        W52339   4.532  26.201  14.898
80811W        W52340  22.506  15.280  13.441
80812W        W52341  14.194  23.810  12.592
80813W        W52342  19.640   5.432  11.429
80814W        W52343  10.125  29.683   4.607
80815W        W52344   5.679  37.095  13.572
80816W        W52345  16.187   5.658   0.970
80817W        W52346   5.867   0.703   1.953
80818W        W52347  23.806  26.188   1.182
80819W        W52348  43.837  44.379  14.458
80820W        W52349  15.778  17.017  13.840
80821W        W52350  36.557  33.918   1.278
80822W        W52351  20.126   6.640  13.539
80823W        W52352  40.550  18.211   0.069
80824W        W52353  33.981  40.022  10.658
80825W        W52354  25.394  42.487   4.875
80826W        W52355  20.636  22.623  12.966
80827W        W52356  42.223  26.130   4.588
80828W        W52357   2.622   8.551   0.697
80829W        W52358   9.596  32.171   4.539
80830W        W52359  26.526  42.313  11.553
80831W        W52360  10.458  10.216   4.269
80832W        W52361  28.688  32.429  12.112
80833W        W52362  19.833  34.353  14.315
80834W        W52363  18.619  27.780   0.614
80835W        W52364   5.358  12.159   0.825
80836W        W52365   2.267  44.211  11.934
80837W        W52366   8.146  44.717   1.274
80838W        W52367  29.898   3.419   4.136
80839W        W52368   1.002  18.229   1.309
80840W        W52369  28.775  21.253   3.614
80841W        W52370   7.251  38.990  14.804
80842W        W52371  17.851  34.453  12.366
80843W        W52372  33.660  31.140  13.401
80844W        W52373  17.252   5.427  13.011
80845W        W52374  19.740  35.036  10.598
80846W        W52375  30.018   0.787  14.795
80847W        W52376  41.232  42.385  10.682
80848W        W52377  33.417  39.183   3.566
80849W        W52378  14.346  31.430   4.620
80850W        W52379  16.183  40.801   3.848
80851W        W52380  24.971  18.419   0.955
80852W        W52381   2.995  16.864  13.007
80853W        W52382  16.573  13.223  12.805
80854W        W52383   3.522  36.347  13.358
80855W        W52384  27.695  14.098   2.304
80856W        W52385   3.953  34.792   2.679
80857W        W52386  26.078  32.580   4.562
80858W        W52387  22.034  16.814   0.547
80859W        W52388   5.537  25.730   0.826
80860W        W52389   4.372  20.024   2.298
80861W        W52390  24.996  10.478  13.124
80862W        W52391  26.522   8.909  12.902
80863W        W52392  38.482  26.143   1.323
80864W        W52393  16.399  27.405  14.895
80865W        W52394  27.465  34.555   4.474
80866W        W52395  15.600  37.947  14.437
80867W        W52396  26.069   5.011   4.940
80868W        W52397   9.344  35.396  10.570
80869W        W52398  33.096   0.442   4.222
80870W        W52399  38.563  31.138  13.549
80871W        W52400  32.571  40.121  12.347
80872W        W52401  18.630   6.847  14.796
80873W        W52402   3.825   3.339   2.892
80874W        W52403  43.753   1.239   0.568
80875W        W52404   0.441  23.965  10.713
80876W        W52405  33.486  29.882   2.795
80877W        W52406  11.761  38.288  10.341
80878W        W52407  24.485  43.322   1.920
80879W        W52408  26.589   8.792   0.722
80880W        W52409  11.369  37.444   4.811
80881W        W52410   4.473  20.857   3.237
80882W        W52411   4.264  44.185  10.567
80883W        W52412   9.964   0.486  13.028
80884W        W52413  14.195   3.117  13.057
80885W        W52414   2.893  37.428  11.506
80886W        W52415  11.015  19.614  10.676
80887W        W52416  31.889   9.391  12.630
80888W        W52417  29.749   4.105   4.599
80889W        W52418   9.114   3.865  11.873
80890W        W52419  27.736  30.930   2.827
80891W        W52420  41.985  18.281   1.243
80892W        W52421   1.700  41.074  11.112
80893W        W52422  23.438  34.498   2.321
80894W        W52423  18.219  16.315  14.461
80895W        W52424  14.302  32.020  10.330
80896W        W52425  25.120  44.246   2.513
80897W        W52426  40.218  42.578  11.464
80898W        W52427  18.721  23.300  14.811
80899W        W52428  38.123  19.827   4.703
80900W        W52429  24.256   3.015  11.615
80901W        W52430  13.903  26.437   3.240
80902W        W52431  11.583  25.805  12.390
80903W        W52432  32.187  17.200   2.798
80904W        W52433  42.490  23.713   1.851
80905W        W52434   4.225   2.757   4.237
80906W        W52435  30.527  16.375   3.690
80907W        W52436   4.631  29.406   3.079
80908W        W52437   8.719  26.310  13.371
80909W        W52438  29.054  43.436   0.596
80910W        W52439   4.197   1.626  13.814
80911W        W52440   7.365  17.392   4.833
80912W        W52441  23.688  19.591   2.281
80913W        W52442  13.026   0.270   3.720
80914W        W52443   3.898   8.214  13.543
80915W        W52444  28.028  12.107  13.476
80916W        W52445   9.114  33.031   3.615
80917W        W52446  13.421  13.206  14.372
80918W        W52447  16.729  36.801   2.262
80919W        W52448  20.646  14.094   0.798
80920W        W52449   6.285   2.697  14.460
80921W        W52450   0.326  14.245   4.429
80922W        W52451   4.739  34.388  11.644
80923W        W52452   4.859   9.601  14.571
80924W        W52453  19.991  19.203  13.930
80925W        W52454  32.954  28.874  13.917
80926W        W52455  32.261  25.508  12.122
80927W        W52456  44.349  17.794   4.639
80928W        W52457  28.890  11.170   3.791
80929W        W52458   1.845  20.537   3.710
80930W        W52459  20.795   6.708   3.760
80931W        W52460   9.136  19.042  12.211
80932W        W52461   9.565   5.916  11.615
80933W        W52462   9.996  29.108  11.954
80934W        W52463  23.045  19.692   0.457
80935W        W52464  37.089   8.848  11.041
80936W        W52465  32.133  30.722  12.732
80937W        W52466  18.322  31.369  12.088
80938W        W52467  26.641  42.476  13.804
80939W        W52468   2.446  35.841   3.131
80940W        W52469  14.688  43.328   2.206
80941W        W52470  30.840  20.092   1.306
80942W        W52471  11.324  35.407   0.470
80943W        W52472  11.538  26.298   3.185
80944W        W52473  22.662  14.806   4.499
80945W        W52474  41.807   3.240  13.876
80946W        W52475  24.127  23.243   3.424
80947W        W52476   3.866   7.571  10.624
80948W        W52477  36.660  33.418   2.479
80949W        W52478  17.782   5.473  12.684
80950W        W52479  14.084  43.904  13.265
80951W        W52480  29.648  18.568   0.424
80952W        W52481  10.733  29.035  10.681
80953W        W52482  34.430   6.425   4.252
80954W        W52483  12.716   3.360  11.414
80955W        W52484  26.949  14.262   0.845
80956W        W52485  28.670  21.130  11.548
80957W        W52486  44.170  29.537   1.079
80958W        W52487   0.781  20.402   1.791
80959W        W52488  17.159  29.318  14.552
80960W        W52489   2.198   6.699   2.607
80961W        W52490  35.755  23.529   0.783
80962W        W52491  30.659   7.167   4.161
80963W        W52492  12.162  20.311  11.879
80964W        W52493  26.284   3.701  13.043
80965W        W52494  20.298  15.234  14.009
80966W        W52495  14.569  26.474   3.996
80967W        W52496  14.585   6.546   3.225
80968W        W52497  44.040  34.316  10.732
80969W        W52498  32.571  20.082   0.279
80970W        W52499  28.520  19.701  11.682
80971W        W52500  24.864   6.009  14.922
80972W        W52501  31.038   4.004   4.378
80973W        W52502   5.175  25.193   3.743
80974W        W52503   0.211  24.184  14.797
80975W        W52504   6.177   3.427   1.789
80976W        W52505  25.769  43.441  11.019
80977W        W52506  40.413  33.584   4.108
80978W        W52507  19.992   9.898  10.420
80979W        W52508  16.035   7.362  13.723
80980W        W52509  23.975   2.047  14.325
80981W        W52510  36.416   8.085   4.767
80982W        W52511  43.393  23.654   0.980
80983W        W52512  23.597  19.038  14.398
80984W        W52513  32.618   2.385   2.190
80985W        W52514  21.285  30.444   4.241
80986W        W52515  44.767   6.767   2.517
80987W        W52516  27.140  23.201   3.743
80988W        W52517   0.942  35.559   0.976
80989W        W52518  24.675  17.746  12.543
80990W        W52519  15.971   4.555   4.641
80991W        W52520   5.688  20.094   1.672
80992W        W52521  38.359   7.232   2.960
80993W        W52522  33.074  41.909  12.413
80994W        W52523  40.539  30.601  14.398
80995W        W52524  20.528  40.037  13.996
80996W        W52525  41.514   9.192  13.535
80997W        W52526  33.606  35.485  10.806
80998W        W52527  11.442  44.780  14.510
80999W        W52528   4.829   9.126  14.777
81000W        W52529  21.088  29.811   2.831
81001W        W52530  20.942   3.362  11.670
81002W        W52531   2.281  29.453  11.536
81003W        W52532   2.539   0.504   4.430
81004W        W52533  16.739  18.887  10.114
81005W        W52534  22.108  36.379   0.859
81006W        W52535  30.662  14.653   2.842
81007W        W52536  20.460  22.140  13.065
81008W        W52537  26.774  31.150  12.898
81009W        W52538  11.613   2.073  10.535
81010W        W52539  13.177  11.389  12.542
81011W        W52540   0.709  22.145  10.532
81012W        W52541   6.250  44.661  12.528
81013W        W52542  12.171  32.390   0.381
81014W        W52543  12.934  27.044   3.573
81015W        W52544  13.145  43.752   2.900
81016W        W52545  39.632   7.761   0.019
81017W        W52546  36.897  20.354   3.049
81018W        W52547  43.961   7.500  14.155
81019W        W52548   3.020  29.939   1.291
81020W        W52549  37.912  28.477  12.906
81021W        W52550  19.281  18.774  13.509
81022W        W52551  27.554  21.179  10.477
81023W        W52552  34.434  21.599  11.523
81024W        W52553   5.221  25.753  14.398
81025W        W52554  22.093  42.453  11.493
81026W        W52555   3.908  18.850  11.518
81027W        W52556  41.341  15.094   4.744
81028W        W52557  23.657  43.725  14.664
81029W        W52558  43.076  42.450  11.073
81030W        W52559  38.849  28.158  13.583
81031W        W52560  31.966   8.631  11.953
81032W        W52561   2.833  37.906  11.950
81033W        W52562  12.047  42.255  14.517
81034W        W52563  25.420  12.172   0.408
81035W        W52564  42.525  17.905  12.492
81036W        W52565  25.455  13.216   2.854
81037W        W52566  33.046  37.785   4.555
81038W        W52567   4.799   5.442   2.201
81039W        W52568  17.389   1.133  10.308
81040W        W52569  21.185  40.021  12.872
81041W        W52570  32.666  43.202   0.828
81042W        W52571  34.855  14.300  10.487
81043W        W52572   0.436  33.873  11.567
81044W        W52573  23.994  39.326   0.230
81045W        W52574   7.274  16.797  11.510
81046W        W52575  18.270  20.843   3.288
81047W        W52576   7.154  17.457   3.760
81048W        W52577  43.522  37.916  12.600
81049W        W52578  24.016  36.171   4.846
81050W        W52579  10.848  25.565  13.036
81051W        W52580  15.810  34.055  14.199
81052W        W52581  44.865  16.501  14.433
81053W        W52582  18.303  18.660   1.832
81054W        W52583  25.104   8.679   1.377
81055W        W52584  38.037  25.570   2.218
81056W        W52585  11.271  37.225   2.600
81057W        W52586   0.785  28.306   4.989
81058W        W52587   0.940  24.095   0.984
81059W        W52588  25.045  32.623  14.283
81060W        W52589  27.063  23.145   2.793
81061W        W52590  13.886   4.297  11.034
81062W        W52591  10.221   0.723  11.555
81063W        W52592  22.272  13.692   1.741
81064W        W52593   0.354  32.070   3.638
81065W        W52594  24.467  30.692  14.515
81066W        W52595  23.521   0.536  11.145
81067W        W52596  33.578  26.533  12.287
81068W        W52597  23.289  29.004   1.805
81069W        W52598   7.883   8.203  13.592
81070W        W52599  31.816  24.465   3.207
81071W        W52600  33.460  41.262  14.839
81072W        W52601  20.786  23.039  10.679
81073W        W52602  20.091  23.255   3.769
81074W        W52603  13.798   0.016  13.770
81075W        W52604  34.535   0.573   0.174
81076W        W52605  13.640  43.423   2.620
81077W        W52606  34.444  26.114   1.464
81078W        W52607  19.043  26.044  12.894
81079W        W52608  22.483  11.941   4.034
81080W        W52609  23.014  18.471  13.105
81081W        W52610  23.647  33.353  13.146
81082W        W52611  36.789  31.257  13.930
81083W        W52612  43.267  28.722   3.294
81084W        W52613  23.526  14.383   3.639
81085W        W52614   7.411   1.153   0.574
81086W        W52615  12.388  18.404   3.915
81087W        W52616   9.706   7.178  14.523
81088W        W52617   2.246   1.363   0.272
81089W        W52618   0.853  10.136  14.905
81090W        W52619  33.112  34.013  11.101
81091W        W52620   1.936  17.791  10.754
81092W        W52621  39.467  24.730   2.320
81093W        W52622  41.000  38.747   4.764
81094W        W52623   9.986   7.822   4.635
81095W        W52624  23.261  42.395   0.767
81096W        W52625  25.141  29.134  12.162
81097W        W52626  14.190  14.432   4.217
81098W        W52627  26.366  38.140  12.043
81099W        W52628   4.258  31.034   4.199
81100W        W52629  14.051   5.727   4.073
81101W        W52630  30.465   8.921  12.857
81102W        W52631   2.893  27.148   1.894
81103W        W52632  37.504  15.321  13.957
81104W        W52633  39.481  16.725   4.877
81105W        W52634  25.821  33.737   0.299
81106W        W52635  38.561  42.860   3.361
81107W        W52636  13.671   7.922   0.836
81108W        W52637   7.736  32.509   2.893
81109W        W52638  37.330  38.955   1.181
81110W        W52639   8.863  43.923  10.376
81111W        W52640  24.081  28.097   0.398
81112W        W52641  19.979   6.598   2.173
81113W        W52642  36.947  29.650   0.856
81114W        W52643  22.778  13.344   2.558
81115W        W52644  42.820  12.635  14.821
81116W        W52645  30.090  15.262   3.561
81117W        W52646  33.434  38.359   3.192
81118W        W52647   8.096  29.923   4.989
81119W        W52648  37.947   6.658  12.077
81120W        W52649  41.491  10.278  10.786
81121W        W52650  34.119  13.763   4.548
81122W        W52651  37.943  18.296   4.498
81123W        W52652   5.974  13.782   0.250
81124W        W52653   6.011  27.903   4.556
81125W        W52654  15.845  28.195   4.898
81126W        W52655  13.501  36.510   0.019
81127W        W52656  38.255  11.414   3.231
81128W        W52657  43.198  10.754  11.201
81129W        W52658  39.803  31.007  14.617
81130W        W52659  39.839   4.512   1.400
81131W        W52660  21.189  44.433   3.352
81132W        W52661   9.495   5.841  12.843
81133W        W52662  14.262   6.286   0.894
81134W        W52663  20.996  40.908   2.624
81135W        W52664  30.430   6.800  13.948
81136W        W52665  15.574  29.474   4.298
81137W        W52666  29.896  29.003  14.037
81138W        W52667  32.151  16.396   2.802
81139W        W52668  41.893  16.581  13.325
81140W        W52669  44.366  13.282   4.945
81141W        W52670  29.537  30.542  14.235
81142W        W52671  44.009  35.338  10.576
81143W        W52672  20.475  42.496  13.427
81144W        W52673   0.196  35.664   3.303
81145W        W52674  30.797  14.996  14.804
81146W        W52675   5.282   2.949   2.840
81147W        W52676   7.866   2.200  13.998
81148W        W52677  37.389  39.319  11.077
81149W        W52678  15.153  32.343  14.340
81150W        W52679  34.310  38.883  14.893
81151W        W52680  32.128   8.481  12.434
81152W        W52681   2.892  41.828  13.439
81153W        W52682  29.457  22.274  12.295
81154W        W52683   5.705  36.294  14.952
81155W        W52684  12.129  23.212  12.975
81156W        W52685  38.408  42.451  10.554
81157W        W52686  40.087  41.646   2.410
81158W        W52687  43.782   5.778   2.608
81159W        W52688   5.216  27.202   4.557
81160W        W52689   4.896   7.972   5.077
81161W        W52690  38.316  41.514  12.896
81162W        W52691  44.751  12.676   0.930
81163W        W52692  30.970  34.540  11.196
81164W        W52693  39.433  34.245  13.327
81165W        W52694  37.008  36.980   4.558
81166W        W52695  34.013  36.832   4.557
81167W        W52696   0.977  24.979  11.221
81168W        W52697  39.544   5.262   2.292
81169W        W52698   1.850  29.494   1.057
81170W        W52699  12.722  35.365  14.941
81171W        W52700  29.183  44.728   4.517
81172W        W52701  14.236  26.142   4.217
81173W        W52702  19.448  42.457   0.633
81174W        W52703  40.352  12.274   4.168
81175W        W52704  13.798   2.751   3.400
81176W        W52705   7.314  16.690  14.265
81177W        W52706   9.142  32.500   4.371
81178W        W52707  10.672  25.401   0.455
81179W        W52708   3.578  26.169   3.125
81180W        W52709   1.900  13.695  14.307
81181W        W52710  12.250  11.206  10.302
81182W        W52711   4.828  39.511   5.070
81183W        W52712  24.181  12.365  13.574
81184W        W52713  39.854  18.313   0.813
81185W        W52714  30.312  10.400   2.266
81186W        W52715  43.271  42.266   0.490
81187W        W52716  10.587  23.047   0.013
81188W        W52717   2.470   9.227  12.856
81189W        W52718  25.398  40.059   0.309
81190W        W52719   4.257   0.184   3.247
81191W        W52720   2.458  37.954   3.399
81192W        W52721  42.802  44.272   3.311
81193W        W52722  17.534  22.658   1.740
81194W        W52723  32.673  23.172  10.163
81195W        W52724  40.730  43.980   4.745
81196W        W52725  36.607  28.030  12.238
81197W        W52726  44.768   3.835  10.358
81198W        W52727   6.765  24.443  10.879
81199W        W52728  35.781  39.164  12.410
81200W        W52729  36.464  19.200  14.383
81201W        W52730  13.284   3.276   1.525
81202W        W52731  42.386  42.815  10.394
81203W        W52732  11.646  32.113   4.764
81204W        W52733   3.688  38.732  10.666
81205W        W52734  23.167  36.610   1.802
81206W        W52735  41.144  23.896  12.911
81207W        W52736  19.542  44.166  11.478
81208W        W52737  36.823  27.920   4.273
81209W        W52738  26.976  42.679   0.016
81210W        W52739  32.789  12.172   0.710
81211W        W52740   1.714  32.622   0.905
81212W        W52741   2.541  24.061  14.020
81213W        W52742  17.567  43.238  10.434
81214W        W52743  34.175  19.972   1.768
81215W        W52744   4.238   2.399   4.729
81216W        W52745  35.599  19.049  10.747
81217W        W52746  39.783  27.249   3.740
81218W        W52747   6.232  34.846   4.856
81219W        W52748  39.542  16.100   3.265
81220W        W52749  36.995  22.260  14.970
81221W        W52750  42.091   6.405   4.423
81222W        W52751  29.530  27.422  13.474
81223W        W52752  10.301  32.888   4.574
81224W        W52753  12.071   5.847   4.096
81225W        W52754  35.074  35.615   1.323
81226W        W52755   7.778  24.252  11.125
81227W        W52756  18.643  43.071   1.925
81228W        W52757   5.717  30.122  10.491
81229W        W52758  29.640  35.332  11.101
81230W        W52759  10.367  28.299  14.307
81231W        W52760  25.583   4.856  14.095
81232W        W52761  22.581  20.480   2.301
81233W        W52762  15.712  21.496  12.395
81234W        W52763  44.380  18.385  10.711
81235W        W52764  33.034  27.897   0.495
81236W        W52765  10.825  38.023   1.803
81237W        W52766  35.674  31.630  12.641
81238W        W52767  43.019  16.554  11.270
81239W        W52768  15.359  29.167  10.605
81240W        W52769  23.585  26.738  13.014
81241W        W52770  39.058  42.953  10.600
81242W        W52771   3.926  42.278  10.512
81243W        W52772  11.639  31.326   3.219
81244W        W52773  16.209   5.244   2.034
81245W        W52774  18.474  10.053   1.889
81246W        W52775  34.547   9.883   0.638
81247W        W52776  22.708  25.174  10.676
81248W        W52777   7.697  37.108   0.323
81249W        W52778  38.542  39.228   4.648
81250W        W52779  36.040   5.902  11.519
81251W        W52780   7.685   3.249   1.761
81252W        W52781  16.023  39.823  14.514
81253W        W52782   3.327  40.299  13.411
81254W        W52783  40.275   9.308  11.977
81255W        W52784   0.991   2.754   0.787
81256W        W52785  11.855   4.402  11.144
81257W        W52786  44.321  38.904  11.507
81258W        W52787   6.921  28.023  13.736
81259W        W52788   1.781  26.704   4.137
81260W        W52789  37.007  32.820  11.045
81261W        W52790  43.047  34.835   1.768
81262W        W52791   5.726   5.729   3.154
81263W        W52792  34.815  14.968  12.558
81264W        W52793   3.869  44.273   0.578
81265W        W52794  31.272  21.045   4.471
81266W        W52795  25.100   5.592   0.087
81267W        W52796   8.572  33.085   1.851
81268W        W52797  36.814  33.145   1.291
81269W        W52798  25.448   2.140   4.229
81270W        W52799  14.817   2.388  13.889
81271W        W52800  33.047   7.258  14.538
81272W        W52801  44.236   8.391   4.181
81273W        W52802  35.862  13.920   2.293
81274W        W52803   8.612  16.167   3.568
81275W        W52804  27.188  19.089  11.188
81276W        W52805  17.011  40.884   1.410
81277W        W52806  13.702  23.651  14.509
81278W        W52807  33.916  29.938   2.529
81279W        W52808   0.737  15.568   0.946
81280W        W52809   6.301   5.333  12.767
81281W        W52810   4.868   8.962  12.153
81282W        W52811  40.826  43.440  14.751
81283W        W52812  26.703  43.002   3.254
81284W        W52813  33.758  26.984  13.973
81285W        W52814   7.200  30.607   2.676
81286W        W52815  10.680   3.710  14.460
81287W        W52816  35.490  37.743  12.783
81288W        W52817  18.327  44.378   1.310
81289W        W52818  13.016   3.282   4.486
81290W        W52819  33.888  37.721  13.588
81291W        W52820  23.780  32.414  14.867
81292W        W52821   4.288  35.867   1.554
81293W        W52822  41.995  11.634   0.934
81294W        W52823  25.933  31.553  14.886
81295W        W52824  10.452  18.470  10.631
81296W        W52825  11.746  37.060   1.972
81297W        W52826  16.403   4.420   1.171
81298W        W52827  32.936  17.581   0.302
81299W        W52828   7.322  20.082  11.323
81300W        W52829  34.437  31.914  14.428
81301W        W52830  22.225   2.179  11.121
81302W        W52831  26.726  24.646  12.805
81303W        W52832  39.806   9.177  12.731
81304W        W52833  26.170  30.665  12.229
81305W        W52834  37.494  21.271  13.578
81306W        W52835  42.723  38.377  12.481
81307W        W52836  26.743   5.672  10.763
81308W        W52837  39.826  10.578  13.405
81309W        W52838  43.447  44.372  11.542
81310W        W52839  16.315   3.652  14.386
81311W        W52840  37.130  20.612  11.488
81312W        W52841  29.426  38.034   2.320
81313W        W52842  13.220   6.601  12.351
81314W        W52843   5.688  26.196  13.432
81315W        W52844  13.879  31.520  11.519
81316W        W52845   7.320  24.731  13.271
81317W        W52846  13.166  13.570   1.188
81318W        W52847   8.449  15.249   3.242
81319W        W52848  13.241  14.849   1.697
81320W        W52849  13.679  23.739   4.161
81321W        W52850  13.282   9.447  12.523
81322W        W52851  18.172  18.241   0.701
81323W        W52852  35.932  41.839   0.913
81324W        W52853  42.037   6.824  10.722
81325W        W52854  37.977   6.125   3.234
81326W        W52855  15.414  38.339  14.957
81327W        W52856  44.771   2.373   4.083
81328W        W52857  20.256  32.592   2.662
81329W        W52858  21.083  15.822  12.673
81330W        W52859  17.459  11.208   4.194
81331W        W52860  26.758  39.146  10.319
81332W        W52861   8.196  23.147   4.147
81333W        W52862  30.610  37.072   4.938
81334W        W52863  25.667  16.205   4.590
81335W        W52864   3.263  29.921   3.311
81336W        W52865  26.048  12.753  13.915
81337W        W52866  42.986  14.793   2.796
81338W        W52867  17.536  41.750   1.891
81339W        W52868   3.824   4.934  10.767
81340W        W52869  11.361  43.553  10.907
81341W        W52870  29.485   8.271   0.646
81342W        W52871  30.601  12.921   1.366
81343W        W52872  37.811  11.152   4.689
81344W        W52873   8.253  24.405  10.928
81345W        W52874  11.710   2.872  10.222
81346W        W52875  16.180  35.994   2.892
81347W        W52876   5.328  10.072  11.569
81348W        W52877  33.430   2.952   4.271
81349W        W52878  22.742  35.077  11.142
81350W        W52879   0.896  35.333   2.844
81351W        W52880  21.799  15.788  13.809
81352W        W52881  41.791   5.157   3.675
81353W        W52882  18.596  32.714  11.023
81354W        W52883  43.981  14.004   4.927
81355W        W52884   9.579  30.569  12.156
81356W        W52885  38.411  17.090   4.776
81357W        W52886  43.952  10.267  10.996
81358W        W52887  29.572   0.963   0.936
81359W        W52888  25.201  40.763   4.517
81360W        W52889  11.644   4.492  14.536
81361W        W52890  35.025  40.745   1.806
81362W        W52891   7.434  42.083   3.987
81363W        W52892  13.796   0.511  13.786
81364W        W52893  18.931  38.198  11.696
81365W        W52894  36.241   4.888   0.203
81366W        W52895  34.536  16.182   4.971
81367W        W52896  34.060   8.997   4.605
81368W        W52897  23.532  37.459   1.591
81369W        W52898   1.979  38.987  11.362
81370W        W52899  23.749  35.524   4.371
81371W        W52900  42.873   5.198   1.832
81372W        W52901  26.956  35.335  14.817
81373W        W52902  35.158   7.213   2.264
81374W        W52903  37.544  10.085  12.397
81375W        W52904  10.150  39.026  10.980
81376W        W52905  29.249   5.597   4.444
81377W        W52906   5.458  26.003  11.640
81378W        W52907  38.372  24.215  13.497
81379W        W52908  36.369   4.261   2.189
81380W        W52909   2.227  37.508   3.163
81381W        W52910   6.162  19.120   1.830
81382W        W52911  11.652  38.866  12.424
81383W        W52912   6.224   4.413   3.655
81384W        W52913  10.040  29.482   3.193
81385W        W52914  37.779  20.932   1.400
81386W        W52915   6.163   4.943   2.777
81387W        W52916   2.853  33.372   3.129
81388W        W52917  42.901  39.488  11.829
81389W        W52918  41.686  27.304  10.765
81390W        W52919  14.245  20.969  11.114
81391W        W52920  35.386  13.122   1.743
81392W        W52921  36.555  42.595   1.815
81393W        W52922  43.004  38.097   2.898
81394W        W52923  11.352  22.659   1.667
81395W        W52924  37.920  33.667   3.314
81396W        W52925  43.450  13.405   1.765
81397W        W52926  17.571  37.444  14.751
81398W        W52927  14.367   8.375  13.438
81399W        W52928   8.679  33.952  10.634
81400W        W52929  17.894  39.818  12.721
81401W        W52930  10.637  37.161   0.170
81402W        W52931  17.527  44.754  12.989
81403W        W52932  36.513  17.511  14.889
81404W        W52933  29.403   1.270   3.896
81405W        W52934  37.150   3.293  13.130
81406W        W52935   1.850  34.569   3.050
81407W        W52936  24.515  37.933   3.833
81408W        W52937   7.934  27.936   1.193
81409W        W52938  11.308   3.799   1.772
81410W        W52939  12.225  10.789  11.881
81411W        W52940   6.178  23.996   3.738
81412W        W52941   5.340  12.659   2.779
81413W        W52942  15.083  21.569   1.840
81414W        W52943  30.498   2.994  10.433
81415W        W52944  25.245  20.027  13.826
81416W        W52945  13.264   6.666   1.685
81417W        W52946  36.900  44.251  12.499
81418W        W52947   9.915  33.879   2.164
81419W        W52948  21.766  17.189  13.053
81420W        W52949  12.628  11.013  14.852
81421W        W52950  40.672  14.652  13.016
81422W        W52951  31.462  32.175  10.824
81423W        W52952  27.738  41.050  13.072
81424W        W52953  10.594   4.504  10.538
81425W        W52954  39.956  12.121   3.857
81426W        W52955  27.164  39.613   0.906
81427W        W52956  41.067  14.746  14.668
81428W        W52957  18.728  16.103  14.429
81429W        W52958  13.243  18.837  11.307
81430W        W52959  43.544  31.905  10.660
81431W        W52960  35.435  17.818   1.390
81432W        W52961  14.215  38.483   4.551
81433W        W52962  41.670  44.811  13.608
81434W        W52963  36.040  26.660   4.834
81435W        W52964  11.116   2.414   0.979
81436W        W52965   7.902  36.270  14.951
81437W        W52966  24.633  19.356   3.201
81438W        W52967   9.822  44.544  13.921
81439W        W52968   6.794  10.669   2.209
81440W        W52969   6.388   8.700  11.277
81441W        W52970  16.357  22.786  13.719
81442W        W52971  35.217  23.438   5.031
81443W        W52972   3.327  13.558   0.438
81444W        W52973  13.469  41.356  10.179
81445W        W52974   0.961  12.946   4.929
81446W        W52975  30.562   2.589   3.331
81447W        W52976  40.658  16.311  10.790
81448W        W52977  20.012  30.754  10.491
81449W        W52978  31.568  40.371   1.927
81450W        W52979  22.444   7.486  11.761
81451W        W52980   0.739  15.623   2.481
81452W        W52981  25.182  24.624   3.177
81453W        W52982  28.290  44.347   0.404
81454W        W52983  15.720   1.537  11.166
81455W        W52984   8.608   3.868   3.613
81456W        W52985  37.910  21.549  11.999
81457W        W52986   6.974   8.210  13.499
81458W        W52987  18.631  36.943   1.896
81459W        W52988  34.830  35.588   0.841
81460W        W52989   1.398   5.773   3.122
81461W        W52990  21.658  26.219  12.347
81462W        W52991  33.046   9.156   1.279
81463W        W52992  25.191  31.080  11.167
81464W        W52993  31.100  21.036   2.795
81465W        W52994  41.590  16.199  10.423
81466W        W52995   6.291  26.995   1.279
81467W        W52996  34.332  38.784   0.707
81468W        W52997  16.402  37.969   1.991
81469W        W52998  41.920  40.077  13.129
81470W        W52999  38.963  35.855  10.776
81471W        W53000   1.065  29.079  13.080
81472W        W53001  36.274  29.910  12.492
81473W        W53002  13.410  38.702   2.776
81474W        W53003  36.939   7.716  14.834
81475W        W53004   1.018  27.271  11.990
81476W        W53005  17.276  29.568   3.282
81477W        W53006  30.905  43.685  14.774
81478W        W53007  39.376   2.957  14.434
81479W        W53008  10.757  26.453   1.906
81480W        W53009  34.973  15.494   3.251
81481W        W53010  44.518  43.205   2.022
81482W        W53011  24.425   8.191  13.925
81483W        W53012  38.941  28.092   1.921
81484W        W53013  23.152  14.078   3.476
81485W        W53014  17.522  41.278  13.563
81486W        W53015  32.370  29.582   3.555
81487W        W53016  42.545  36.904  11.128
81488W        W53017  40.353  17.357  11.343
81489W        W53018  33.523   6.891   4.186
81490W        W53019  40.914  25.560   0.849
81491W        W53020  13.627  42.408   3.670
81492W        W53021  19.421   9.372   3.858
81493W        W53022   4.860  26.879   1.574
81494W        W53023  36.296   5.770   2.409
81495W        W53024  12.376  28.438   3.161
81496W        W53025  39.384  26.440   4.646
81497W        W53026   4.290  14.129   0.874
81498W        W53027  16.215  13.565   0.975
81499W        W53028  20.034  21.618  14.895
81500W        W53029  42.648  33.637  11.592
81501W        W53030   5.338  35.786   3.766
81502W        W53031  30.395   8.613  12.041
81503W        W53032   6.058  33.516   2.577
81504W        W53033  12.014  15.567   3.112
81505W        W53034  43.999   0.419   4.529
81506W        W53035  18.688  14.246   1.355
81507W        W53036  22.066  25.884  14.399
81508W        W53037  24.631  32.844  11.251
81509W        W53038  41.380  33.081  10.689
81510W        W53039   0.573   5.998  13.073
81511W        W53040  19.823  41.596  13.111
81512W        W53041  36.467   7.404  12.404
81513W        W53042  35.850  26.383   0.892
81514W        W53043  33.085  43.660  12.477
81515W        W53044  43.340   4.189   2.754
81516W        W53045  25.524  32.789  14.153
81517W        W53046  22.718  12.120   0.746
81518W        W53047   2.783  26.116  11.045
81519W        W53048   7.794   7.427   1.354
81520W        W53049  31.324   0.810  11.873
81521W        W53050  29.815  21.657   1.947
81522W        W53051  10.171  15.288  13.559
81523W        W53052  33.402   8.862   0.948
81524W        W53053  21.109  12.776  13.782
81525W        W53054  13.653  21.543   4.618
81526W        W53055  12.353  29.895   3.165
81527W        W53056  22.837   0.765  13.454
81528W        W53057  12.750   9.979  14.868
81529W        W53058  35.348  37.510  14.044
81530W        W53059  42.782  16.751  12.108
81531W        W53060   7.852  21.475  14.279
81532W        W53061  39.007   9.815   0.725
81533W        W53062  33.157  35.509   3.818
81534W        W53063   3.213  10.845  10.365
81535W        W53064  40.064  32.093   0.448
81536W        W53065  17.531  15.263   4.172
81537W        W53066  37.701  16.100   0.700
81538W        W53067  26.604  29.929   1.684
81539W        W53068  19.279  17.838  11.167
81540W        W53069  21.785  26.713   2.259
81541W        W53070  17.148   4.339  11.656
81542W        W53071  28.101   9.109  14.592
81543W        W53072  28.067   5.708   1.764
81544W        W53073   6.182   8.657   0.858
81545W        W53074  30.993   6.420  10.721
81546W        W53075  31.703  33.678   4.134
81547W        W53076   1.532  37.406  14.390
81548W        W53077  19.862  39.053   0.864
81549W        W53078  14.655   0.880  11.063
81550W        W53079   0.316  27.585   3.680
81551W        W53080  19.545  15.366  13.771
81552W        W53081  27.688   5.907  13.296
81553W        W53082  38.833  32.904  12.015
81554W        W53083  25.242  42.045   4.146
81555W        W53084  22.555   1.455   1.764
81556W        W53085  16.386  23.055   0.947
81557W        W53086  17.302  31.265  12.062
81558W        W53087  31.658   2.606  12.591
81559W        W53088  15.571   0.775  13.181
81560W        W53089  18.468  23.272   0.258
81561W        W53090  18.383  21.319   4.088
81562W        W53091  12.858   9.823  11.128
81563W        W53092   2.359  10.726   1.177
81564W        W53093  30.713  44.247   5.120
81565W        W53094   4.860  24.522  14.219
81566W        W53095  29.331  17.282   3.197
81567W        W53096  36.341   1.865  11.551
81568W        W53097   5.356  30.685   5.060
81569W        W53098   1.860  17.821  14.237
81570W        W53099  11.809  30.642  12.634
81571W        W53100  33.374  33.069  14.891
81572W        W53101  30.740  37.515   3.129
81573W        W53102  16.975   7.242   0.670
81574W        W53103  32.013  20.303  12.538
81575W        W53104  41.349  15.107   1.331
81576W        W53105  44.808   3.213  11.648
81577W        W53106  33.099  17.850   4.149
81578W        W53107   2.667   9.672   4.154
81579W        W53108  35.072  24.960   4.103
81580W        W53109  39.563  14.854   3.678
81581W        W53110  20.273  10.412  12.484
81582W        W53111  33.142  23.809   0.864
81583W        W53112  26.428  22.289   4.569
81584W        W53113  24.109  29.062   2.724
81585W        W53114  31.661  12.244  10.641
81586W        W53115   4.659   9.179   0.892
81587W        W53116  31.701  23.254   3.740
81588W        W53117  24.499  11.646  13.249
81589W        W53118  17.105  42.987   3.906
81590W        W53119  15.241  39.768  11.554
81591W        W53120  44.511  44.326  11.126
81592W        W53121  36.982   4.665   3.243
81593W        W53122   6.944  39.269  11.207
81594W        W53123  36.182   4.984   4.261
81595W        W53124  19.599   4.130  11.705
81596W        W53125  19.560   0.450  11.112
81597W        W53126  32.791   6.311  13.500
81598W        W53127   1.996  18.298  12.070
81599W        W53128  13.132   7.736  14.793
81600W        W53129  40.311  33.127  11.601
81601W        W53130  32.130  17.117  11.250
81602W        W53131  17.083  23.738   2.821
81603W        W53132   0.804  19.270   0.657
81604W        W53133  11.397  17.761   2.149
81605W        W53134   7.104   3.935   2.755
81606W        W53135  32.181   1.941  13.516
81607W        W53136  37.208  42.750   3.230
81608W        W53137  23.207  43.046  11.627
81609W        W53138  26.497  19.970   5.151
81610W        W53139   6.623   1.914   4.122
81611W        W53140  12.079   1.725  11.088
81612W        W53141   8.083  13.367   3.177
81613W        W53142  19.309  11.402   1.042
81614W        W53143  19.803  36.619   1.339
81615W        W53144  40.010   9.810   0.212
81616W        W53145  18.662  25.711   1.705
81617W        W53146   1.829  23.966   0.720
81618W        W53147   9.891  24.476  10.771
81619W        W53148  32.426   6.263  14.991
81620W        W53149  16.782  25.695   0.786
81621W        W53150  44.410  36.995  11.512
81622W        W53151  24.051  12.179   4.604
81623W        W53152  18.472  20.128   2.696
81624W        W53153  41.708  21.532   2.208
81625W        W53154   9.540  14.622   3.297
81626W        W53155  38.321   2.855   0.536
81627W        W53156   7.605  34.736  13.388
81628W        W53157   0.958  27.945  11.607
81629W        W53158  20.322   6.677   4.008
81630W        W53159   2.391  20.034   0.368
81631W        W53160  27.482  32.664   3.676
81632W        W53161  10.401   4.465  13.363
81633W        W53162  39.323  44.497   0.968
81634W        W53163  22.023  15.841  11.413
81635W        W53164  11.852  44.601   2.757
81636W        W53165  39.098  33.627  12.002
81637W        W53166   6.664   7.632  11.639
81638W        W53167  39.292   6.095   1.783
81639W        W53168   4.352  27.035   3.701
81640W        W53169   0.091  14.649   4.656
81641W        W53170  38.847  24.065   1.605
81642W        W53171  33.763  32.913   4.983
81643W        W53172  31.614  22.220  11.585
81644W        W53173  35.623  27.231  13.424
81645W        W53174  22.659  30.924   3.748
81646W        W53175  28.558  10.216  13.040
81647W        W53176  15.992  23.216  12.547
81648W        W53177  10.368  41.806  11.497
81649W        W53178  40.074   4.839  10.833
81650W        W53179  38.229  43.488   2.620
81651W        W53180  22.074  12.712   0.700
81652W        W53181  16.690   9.272  12.101
81653W        W53182  32.986  17.624  12.580
81654W        W53183  11.181   0.970   4.161
81655W        W53184   1.935   8.323  14.513
81656W        W53185  36.079  22.980   4.543
81657W        W53186  10.636  41.978   3.608
81658W        W53187  28.003  26.557  12.207
81659W        W53188  35.916  35.396   1.874
81660W        W53189  13.621  28.119   0.304
81661W        W53190  35.578  22.206  12.835
81662W        W53191  14.144   6.419  14.238
81663W        W53192  36.088  14.661  14.719
81664W        W53193  33.367  22.576  14.893
81665W        W53194  39.443  15.662  11.927
81666W        W53195   0.988  35.156   3.653
81667W        W53196   8.193  29.472   3.652
81668W        W53197  44.519  33.714   2.828
81669W        W53198  23.140  35.840  13.422
81670W        W53199   8.404   9.996  10.476
81671W        W53200  19.101   7.919   0.324
81672W        W53201  44.713  28.457   0.869
81673W        W53202  32.075  16.150  10.526
81674W        W53203   2.441   1.237  13.008
81675W        W53204  16.701   8.349   2.029
81676W        W53205   0.920  24.432  11.163
81677W        W53206  41.885  33.928   1.607
81678W        W53207   4.094  12.740   4.530
81679W        W53208   0.243  23.140  12.857
81680W        W53209  23.419  18.175  10.595
81681W        W53210  18.806  17.256   0.219
81682W        W53211  39.480  25.514   4.016
81683W        W53212  44.404  16.228   3.471
81684W        W53213  20.532  12.178   3.837
81685W        W53214  25.490   3.989  10.896
81686W        W53215  12.768  29.651  13.877
81687W        W53216  23.440  12.723   4.118
81688W        W53217   0.628  36.588  12.887
81689W        W53218  34.974   7.659  14.856
81690W        W53219  15.809  36.778  13.981
81691W        W53220  23.535  34.723  14.238
81692W        W53221  10.297  22.267  10.474
81693W        W53222  26.681  41.875  14.924
81694W        W53223  41.791   9.538   0.940
81695W        W53224  32.015  28.119  14.276
81696W        W53225   2.812  30.014  11.218
81697W        W53226  30.288  33.454  10.975
81698W        W53227  34.030  15.257   3.622
81699W        W53228  26.320  41.060  13.842
81700W        W53229  15.290   7.404   3.181
81701W        W53230  14.406  18.210  12.058
81702W        W53231  42.635   3.876  14.721
81703W        W53232   7.761  21.067  11.138
81704W        W53233   3.004  17.658  11.631
81705W        W53234   6.604  19.914  13.880
81706W        W53235  19.808  20.475   4.856
81707W        W53236  35.132  27.470   4.387
81708W        W53237   6.347  37.430   4.593
81709W        W53238  44.229  13.882  11.221
81710W        W53239  34.334   3.289  14.771
81711W        W53240  14.524  43.557   3.691
81712W        W53241  14.161   9.767   0.960
81713W        W53242  12.663  17.291  10.709
81714W        W53243  23.538  12.887  12.940
81715W        W53244  32.782   5.815   2.384
81716W        W53245  28.472   3.339   4.775
81717W        W53246   5.210  10.876   0.402
81718W        W53247  11.278   4.874  14.581
81719W        W53248  15.407  38.404   4.878
81720W        W53249   9.477   4.268  13.619
81721W        W53250  12.109  29.432   3.208
81722W        W53251  38.943  13.303   4.162
81723W        W53252  31.576   3.274   2.612
81724W        W53253  16.955  35.246   0.125
81725W        W53254   2.425  34.037   0.525
81726W        W53255  18.283  13.793   3.141
81727W        W53256   9.263  10.531   1.144
81728W        W53257  13.336  28.672   0.912
81729W        W53258  11.810  26.645  11.065
81730W        W53259  17.326   2.935  10.634
81731W        W53260  16.213   0.385   3.629
81732W        W53261  13.068  17.119  14.910
81733W        W53262  27.542  26.773  12.885
81734W        W53263  22.157  11.095  13.385
81735W        W53264  34.980   9.205  14.535
81736W        W53265  15.514   4.469  13.408
81737W        W53266  22.162  29.171  11.220
81738W        W53267   1.546  21.627  13.478
81739W        W53268  22.287  24.289  11.472
81740W        W53269  27.644  21.101  13.612
81741W        W53270  44.522  44.002   2.353
81742W        W53271  25.916  26.682  13.842
81743W        W53272  35.447  24.918  14.923
81744W        W53273   7.838  24.101   3.262
81745W        W53274  23.277  28.487  12.444
81746W        W53275   6.120   5.007  14.519
81747W        W53276  20.196  44.516  10.808
81748W        W53277  20.410  33.632   4.130
81749W        W53278  21.137   7.175   4.479
81750W        W53279  23.153  24.005   0.492
81751W        W53280  23.225  35.541  11.622
81752W        W53281  38.568  22.637  14.381
81753W        W53282   2.250  10.725  10.564
81754W        W53283  28.153  39.586   1.460
81755W        W53284  34.191   4.372   1.193
81756W        W53285  22.707  42.431  13.128
81757W        W53286  11.332  23.126  14.334
81758W        W53287  28.175  24.240  13.055
81759W        W53288  14.569  22.534   4.661
81760W        W53289  21.620  10.266  13.015
81761W        W53290  40.556  43.941  12.536
81762W        W53291  32.636   6.663   1.730
81763W        W53292  11.227  19.263   1.768
81764W        W53293  36.576  13.132  11.959
81765W        W53294  29.994  22.699   3.398
81766W        W53295  34.157   8.421   1.907
81767W        W53296   0.956  23.124  12.594
81768W        W53297  40.966  22.563  10.444
81769W        W53298   1.972  41.916   0.245
81770W        W53299   2.932  20.184  12.473
81771W        W53300  27.652  11.757   2.784
81772W        W53301  28.344  22.203  14.179
81773W        W53302   9.947  42.800  10.142
81774W        W53303  39.817  42.567   4.172
81775W        W53304  37.770  44.973   3.168
81776W        W53305  44.873  23.486   3.181
81777W        W53306  40.309  27.138   3.834
81778W        W53307  26.748  39.379  12.479
81779W        W53308  18.810  42.720   3.225
81780W        W53309   4.716  38.630  14.596
81781W        W53310   8.671  12.073  12.967
81782W        W53311  39.720   7.320   4.072
81783W        W53312  36.859  22.940  11.140
81784W        W53313  31.920  22.736  14.872
81785W        W53314  32.253  10.407   0.390
81786W        W53315  38.004  24.437   3.632
81787W        W53316   4.282  22.951   4.219
81788W        W53317  34.779  26.882  10.929
81789W        W53318  26.855  44.383  11.988
81790W        W53319  39.925   1.271   3.247
81791W        W53320  26.224  13.229   1.733
81792W        W53321   4.112  21.772   2.226
81793W        W53322   8.820  44.483  14.030
81794W        W53323  42.264  28.696  12.555
81795W        W53324  18.742   2.099   4.626
81796W        W53325  35.969   0.560  11.996
81797W        W53326   2.349  31.158  11.858
81798W        W53327  39.626  35.846   2.233
81799W        W53328   9.575  15.727   0.955
81800W        W53329  32.832  28.027   0.982
81801W        W53330  44.978  29.617  14.933
81802W        W53331  38.002  39.068  11.585
81803W        W53332  31.015  32.150  14.577
81804W        W53333  25.501  41.603   3.170
81805W        W53334  17.361  22.587   2.292
81806W        W53335  27.676  23.617  12.483
81807W        W53336  37.677  29.399  12.138
81808W        W53337  28.170  13.559  13.108
81809W        W53338  35.058   1.487   3.745
81810W        W53339  12.209   5.361   4.293
81811W        W53340  16.508  22.630   4.690
81812W        W53341  38.590   8.824  14.774
81813W        W53342  30.122   5.107   1.909
81814W        W53343  28.550  32.845  12.537
81815W        W53344  12.288  32.985  13.140
81816W        W53345   6.639   5.285  10.547
81817W        W53346  40.115  26.594   1.109
81818W        W53347  27.573  22.279   1.669
81819W        W53348  29.831  27.712   4.083
81820W        W53349   2.250  44.739  11.989
81821W        W53350  20.839  40.428   4.505
81822W        W53351  40.002  16.159   0.521
81823W        W53352  14.194   3.693   2.465
81824W        W53353  25.496  33.664   0.974
81825W        W53354   1.551  14.712  11.990
81826W        W53355  24.378  32.204   3.159
81827W        W53356   7.967   5.953  14.057
81828W        W53357  11.374  12.730   4.026
81829W        W53358   1.952  20.943  14.592
81830W        W53359   6.887  39.278  14.570
81831W        W53360   3.944   7.803   2.777
81832W        W53361  34.287  37.108  14.621
81833W        W53362  42.413  40.966  11.320
81834W        W53363  13.104  15.480   2.348
81835W        W53364  21.673  17.185   3.201
81836W        W53365  31.944   7.942   3.627
81837W        W53366  21.743  22.382   2.263
81838W        W53367  30.884   9.666  10.570
81839W        W53368  20.282   5.300   4.503
81840W        W53369  38.363  37.287   3.163
81841W        W53370  31.949  33.268   5.563
81842W        W53371   2.556  20.579  12.080
81843W        W53372  14.826   1.805   4.940
81844W        W53373  13.343  23.233  12.407
81845W        W53374  12.700  26.975  13.036
81846W        W53375  30.039  31.657   3.291
81847W        W53376  38.880   3.089   0.838
81848W        W53377   8.126   6.632   0.794
81849W        W53378  13.286  38.113  12.460
81850W        W53379  32.224  15.036  12.674
81851W        W53380  27.004  19.136  11.957
81852W        W53381  32.853  30.086   1.266
81853W        W53382  12.523   8.771   4.153
81854W        W53383  28.956  10.843   1.444
81855W        W53384  27.120   2.654  11.174
81856W        W53385  32.406  38.657  10.030
81857W        W53386  27.575  31.418  10.586
81858W        W53387  21.985  24.679   3.715
81859W        W53388  38.875  40.434  12.646
81860W        W53389  27.349  28.977  12.890
81861W        W53390  12.902  41.433  10.944
81862W        W53391  30.263  27.949   2.471
81863W        W53392   4.704  22.125  13.252
81864W        W53393  27.607  15.000  10.261
81865W        W53394  41.960  26.582  13.378
81866W        W53395  26.962  25.324   2.363
81867W        W53396  33.557   8.787   4.653
81868W        W53397  44.928  38.058  12.918
81869W        W53398  29.455  35.894  12.445
81870W        W53399  27.549   6.324  14.478
81871W        W53400  10.074  13.256   2.414
81872W        W53401  31.859  29.449   4.088
81873W        W53402   9.194  28.598   1.244
81874W        W53403   4.833  11.241  10.913
81875W        W53404  41.570  18.780  11.092
81876W        W53405  17.149   0.395   3.142
81877W        W53406  39.589  22.659  14.442
81878W        W53407  20.637  34.041  13.129
81879W        W53408  28.170  30.408  12.391
81880W        W53409  32.487  30.447   0.243
81881W        W53410  21.231  35.799  13.006
81882W        W53411  21.127  19.460  14.263
81883W        W53412   3.239  19.158   0.914
81884W        W53413  20.978  24.247  11.535
81885W        W53414  33.507   0.791   4.152
81886W        W53415   2.496   6.931  10.366
81887W        W53416  27.154   7.846  12.327
81888W        W53417  15.768  38.503  13.802
81889W        W53418   2.214  34.915  11.580
81890W        W53419  17.028  15.774  14.810
81891W        W53420  42.080  21.153  14.133
81892W        W53421  33.042  26.462   3.267
81893W        W53422  26.591  39.797   1.002
81894W        W53423  13.597   2.429  14.967
81895W        W53424  27.526  27.199   3.440
81896W        W53425  16.033  36.480   1.285
81897W        W53426  44.973  13.414  11.147
81898W        W53427  32.901   7.036   2.576
81899W        W53428  26.277  22.413  13.764
81900W        W53429  23.314  34.308  14.023
81901W        W53430   4.353   5.198  14.281
81902W        W53431  39.029   4.264   1.813
81903W        W53432  26.685  32.896   3.130
81904W        W53433  44.436  38.263   0.616
81905W        W53434  26.565  43.265  14.478
81906W        W53435   6.696  23.703  11.190
81907W        W53436  11.840  26.063   2.757
81908W        W53437  39.451  25.084  13.479
81909W        W53438   0.430  35.559   2.850
81910W        W53439  43.526  35.605  12.468
81911W        W53440  14.288  13.836   4.505
81912W        W53441   6.701  44.758   4.034
81913W        W53442  20.058  10.554   1.347
81914W        W53443   5.057  40.200  10.432
81915W        W53444  35.387  40.513  12.222
81916W        W53445  44.286  12.888   1.714
81917W        W53446  41.781  28.644  12.307
81918W        W53447  32.494  29.090   0.048
81919W        W53448  24.699  34.573   3.670
81920W        W53449  30.859   8.208   1.838
81921W        W53450  36.130  39.028   0.475
81922W        W53451  24.219   8.837   2.941
81923W        W53452  42.319  43.872   2.885
81924W        W53453   1.287  32.743  13.362
81925W        W53454  11.143  11.576  11.615
81926W        W53455  44.608  22.687   2.749
81927W        W53456  39.860   2.981   4.174
81928W        W53457  44.897   8.221   4.900
81929W        W53458  24.091  18.616  11.686
81930W        W53459  25.117  17.521   3.193
81931W        W53460  16.217  18.608   2.178
81932W        W53461  34.715   9.559   4.384
81933W        W53462  16.779  12.716   3.138
81934W        W53463  16.575   9.568  14.334
81935W        W53464  17.522  35.050  10.234
81936W        W53465   9.100  27.587  14.028
81937W        W53466  44.808  36.082   1.897
81938W        W53467  20.757  27.940   3.717
81939W        W53468  31.135  19.802  13.404
81940W        W53469  42.295   2.220  13.955
81941W        W53470  13.970  19.297  14.074
81942W        W53471  21.882  32.078   2.295
81943W        W53472  25.023  19.812  14.233
81944W        W53473   0.281  41.548  12.878
81945W        W53474  44.842  30.577   0.927
81946W        W53475  27.491  41.780   3.570
81947W        W53476   9.733  23.619  14.054
81948W        W53477   5.251  13.812   3.602
81949W        W53478  36.586   3.836  14.292
81950W        W53479  21.781  39.423  14.824
81951W        W53480  27.681   5.885  14.232
81952W        W53481  34.543  42.640   4.251
81953W        W53482  18.140  43.087   1.781
81954W        W53483   3.319   5.935   4.577
81955W        W53484   7.749   2.501   0.305
81956W        W53485   9.746  41.930  11.132
81957W        W53486  41.746  39.096   2.773
81958W        W53487  40.273  44.014   2.818
81959W        W53488  36.803  19.809  14.400
81960W        W53489  27.359   0.435  14.376
81961W        W53490  14.703   1.935  14.661
81962W        W53491   4.351  19.624   1.983
81963W        W53492  24.541  41.610  12.107
81964W        W53493  12.173   0.466  14.555
81965W        W53494   3.857  11.211   1.955
81966W        W53495  25.411  26.462  11.627
81967W        W53496  19.854   1.141   4.704
81968W        W53497  22.023  31.322   2.633
81969W        W53498  14.829  38.119  14.747
81970W        W53499   3.686  22.846  11.119
81971W        W53500  14.055   9.590   1.424
81972W        W53501  36.138   6.748   0.009
81973W        W53502  19.696  30.615  11.602
81974W        W53503   4.373  13.420   2.314
81975W        W53504  27.414  22.627  10.597
81976W        W53505  33.900  25.295   4.922
81977W        W53506  37.540  38.890   4.662
81978W        W53507  39.091   4.400   3.114
81979W        W53508  19.136  31.107  11.203
81980W        W53509   2.314  12.831   2.577
81981W        W53510  28.049   9.894   1.907
81982W        W53511  41.293  41.420   0.599
81983W        W53512   3.171  12.541   0.329
81984W        W53513  28.937  24.869  12.005
81985W        W53514  21.003  10.670   4.162
81986W        W53515   4.743  42.986  11.724
81987W        W53516  24.658  17.839  10.756
81988W        W53517  16.780  17.253   4.447
81989W        W53518  15.099  31.530   2.830
81990W        W53519  32.034   4.850  13.417
81991W        W53520  27.593  19.793   4.563
81992W        W53521   4.345  14.724   0.204
81993W        W53522  11.856   3.325  13.074
81994W        W53523  23.073   2.376   3.129
81995W        W53524   6.851   4.490   3.189
81996W        W53525  35.897  36.998   4.398
81997W        W53526  26.502  19.545   1.977
81998W        W53527   0.870  10.153   2.419
81999W        W53528  12.086  42.272  12.930
82000W        W53529   1.976  27.890  14.605
82001W        W53530  29.815  19.084  14.393
82002W        W53531  34.617  11.779   3.126
82003W        W53532  43.003  25.124  13.514
82004W        W53533   7.900  25.101  10.257
82005W        W53534  44.379   3.381  10.045
82006W        W53535  18.077  29.904  13.056
82007W        W53536  18.658  27.896  10.612
82008W        W53537   8.381  25.044  12.402
82009W        W53538  21.099  27.396   2.678
82010W        W53539  14.632  39.521   3.145
82011W        W53540  22.156  30.850   3.566
82012W        W53541  25.620  22.617  10.678
82013W        W53542  36.967  10.194  10.510
82014W        W53543  11.931   2.307  10.866
82015W        W53544   3.934  15.243   1.248
82016W        W53545  34.403  21.250   0.837
82017W        W53546  19.028  25.604  12.646
82018W        W53547   5.460  40.521   0.542
82019W        W53548  13.655  27.010  11.948
82020W        W53549   5.835  42.202  13.599
82021W        W53550  37.823  37.262   4.107
82022W        W53551  41.283  22.443  11.643
82023W        W53552   1.329  19.202  13.708
82024W        W53553  12.265  36.144   4.752
82025W        W53554  27.203  25.584  13.490
82026W        W53555  15.387   4.814   3.636
82027W        W53556  20.636  34.920   4.412
82028W        W53557  42.804  25.935  11.787
82029W        W53558  41.366  16.957   4.741
82030W        W53559  32.488  21.523  12.476
82031W        W53560  40.664  30.650  11.459
82032W        W53561  23.008  27.509   0.669
82033W        W53562   3.670  39.013   4.039
82034W        W53563   1.173   0.054   2.342
82035W        W53564   7.889  43.447  14.299
82036W        W53565  29.393   1.734   4.130
82037W        W53566  16.209  29.281   3.744
82038W        W53567   0.438  26.738   1.873
82039W        W53568   2.353  15.133   4.845
82040W        W53569  17.114  26.037   2.844
82041W        W53570  33.463  11.044   0.993
82042W        W53571   7.937  32.081   2.665
82043W        W53572  32.205  28.436  13.789
82044W        W53573   2.681  35.538  13.870
82045W        W53574  14.734  10.001   3.173
82046W        W53575  27.662  14.212  13.455
82047W        W53576  15.275   9.442   1.825
82048W        W53577   2.376  25.127  10.343
82049W        W53578   3.528  20.615   2.352
82050W        W53579  14.933  44.825   2.215
82051W        W53580  23.950  13.728   3.203
82052W        W53581   3.792  27.195  11.888
82053W        W53582  37.925  31.900  12.536
82054W        W53583  30.966   9.658   2.380
82055W        W53584  43.463  25.111   0.101
82056W        W53585  29.943  22.205   0.265
82057W        W53586  11.662   1.456  11.245
82058W        W53587  19.076   4.783  13.421
82059W        W53588   3.112  39.934  13.898
82060W        W53589  43.359  23.052  12.347
82061W        W53590  12.756   7.739  11.738
82062W        W53591   1.248  43.868   3.517
82063W        W53592  22.324  43.534  10.977
82064W        W53593  41.436  38.814   1.955
82065W        W53594  23.838  28.586   0.492
82066W        W53595   6.569  43.700  12.509
82067W        W53596  22.280  18.531  11.029
82068W        W53597  15.557  44.445  14.842
82069W        W53598  26.559   7.939   3.210
82070W        W53599   3.281  19.388  13.418
82071W        W53600  34.602  21.289  11.935
82072W        W53601  25.482  29.650   0.910
82073W        W53602  37.087  29.892  14.385
82074W        W53603  22.184  30.759  10.753
82075W        W53604  33.369  30.631  13.555
82076W        W53605  25.794   3.180   3.428
82077W        W53606  21.995   8.044  14.805
82078W        W53607  34.010  33.976  11.089
82079W        W53608   6.562  12.581   3.668
82080W        W53609  21.571  38.941   0.451
82081W        W53610  10.336  23.433  12.605
82082W        W53611  28.952  39.990   2.610
82083W        W53612  22.803  32.222   0.669
82084W        W53613   3.436   6.292  13.056
82085W        W53614  26.593  23.710   1.574
82086W        W53615  21.509   6.140  14.522
82087W        W53616   9.252   5.505   4.390
82088W        W53617   1.406   5.068   0.462
82089W        W53618  33.410  29.375  10.331
82090W        W53619  19.272  42.919   0.835
82091W        W53620  19.561   1.810   3.158
82092W        W53621  43.427  39.947   4.795
82093W        W53622  20.795  38.496   4.584
82094W        W53623   4.396  18.229   4.157
82095W        W53624  38.502  25.192  12.370
82096W        W53625  13.425   4.451  14.771
82097W        W53626  32.086  24.508  12.410
82098W        W53627   6.175   9.387   0.313
82099W        W53628  34.620  40.939   1.515
82100W        W53629  13.734  13.137  12.166
82101W        W53630  10.694  15.736  11.593
82102W        W53631  41.594  16.261   4.129
82103W        W53632   1.862  24.996  11.171
82104W        W53633  41.519  25.114   2.337
82105W        W53634  36.355  32.978   1.124
82106W        W53635  37.047  23.997   4.297
82107W        W53636   8.668  37.793  11.612
82108W        W53637  11.080  38.071  10.880
82109W        W53638  13.327  42.365   4.817
82110W        W53639  28.515   7.439   3.412
82111W        W53640  26.351  22.958  13.408
82112W        W53641  11.033   6.413   4.647
82113W        W53642   1.994  29.970  12.314
82114W        W53643  20.097   8.724   0.982
82115W        W53644  22.343  18.002  10.711
82116W        W53645   5.619  15.526  13.543
82117W        W53646  42.549  16.695  11.127
82118W        W53647   5.685   7.153   0.878
82119W        W53648  24.578  37.297  11.148
82120W        W53649  44.507  41.874  14.390
82121W        W53650   5.809  42.379   2.459
82122W        W53651  38.372  23.711   0.879
82123W        W53652  32.161  18.546  13.155
82124W        W53653   5.143  19.631   2.681
82125W        W53654   0.295   8.251  10.789
82126W        W53655  21.873  40.086   1.793
82127W        W53656  19.475  43.308   0.390
82128W        W53657  21.725  10.289   4.641
82129W        W53658  36.163  16.400  13.236
82130W        W53659  10.820  42.218  12.323
82131W        W53660  17.864   7.804   5.126
82132W        W53661  30.028   7.899  11.101
82133W        W53662  19.716  29.594  11.755
82134W        W53663  32.513  21.954  11.061
82135W        W53664  34.552  13.328  11.342
82136W        W53665   6.800  12.848  14.295
82137W        W53666  39.512   4.812   2.669
82138W        W53667  30.449   4.993   3.715
82139W        W53668  43.426  19.407  10.525
82140W        W53669  12.868  23.272   4.095
82141W        W53670  36.060   7.748   3.935
82142W        W53671   8.761  25.159   4.383
82143W        W53672  16.101  28.159   0.271
82144W        W53673  37.417  12.355   2.064
82145W        W53674  37.255  41.272   4.146
82146W        W53675  31.212   3.085   2.924
82147W        W53676  35.216   9.855   2.209
82148W        W53677  22.946   0.445  14.320
82149W        W53678   0.669  23.737   3.114
82150W        W53679   2.505  37.052   4.491
82151W        W53680  14.999   0.965   4.776
82152W        W53681  43.909  11.433   4.871
82153W        W53682  34.616  36.981  10.702
82154W        W53683  38.818   2.113   3.751
82155W        W53684  40.629  43.187   4.314
82156W        W53685  14.918  16.721  14.858
82157W        W53686  13.320  20.610  10.932
82158W        W53687   0.875   3.762  11.245
82159W        W53688  26.659   6.134  14.423
82160W        W53689  16.224  32.174  10.772
82161W        W53690   0.953  17.689   1.325
82162W        W53691  32.512  40.406   1.421
82163W        W53692  41.507  26.859  11.482
82164W        W53693  42.044  12.368  14.460
82165W        W53694  10.213  13.717   4.752
82166W        W53695  12.154  37.360  10.772
82167W        W53696  24.916  32.150   4.527
82168W        W53697  41.633  33.502  10.825
82169W        W53698  15.030   8.809   3.167
82170W        W53699  25.617  15.239   3.137
82171W        W53700   2.900  34.762   1.680
82172W        W53701  26.121   2.064  10.599
82173W        W53702  37.313  41.699   0.916
82174W        W53703  20.626  10.844   1.339
82175W        W53704  31.856  36.537   4.140
82176W        W53705  40.539  32.012   2.652
82177W        W53706  43.401  37.279   1.777
82178W        W53707  16.138  10.440   5.001
82179W        W53708   0.711  33.082   3.228
82180W        W53709  15.070  43.424  11.330
82181W        W53710   9.131   8.246  13.791
82182W        W53711  35.458  22.602   3.807
82183W        W53712  43.362   7.959   0.143
82184W        W53713  28.212  16.034   4.675
82185W        W53714  41.210  32.833   3.383
82186W        W53715  26.790  23.714  12.223
82187W        W53716  16.753  44.911   4.480
82188W        W53717  42.818  19.238  14.963
82189W        W53718  30.370   9.272   2.917
82190W        W53719  10.389  38.798   1.684
82191W        W53720  10.603  21.050  10.585
82192W        W53721  14.259  23.494   3.788
82193W        W53722   0.966   5.746  12.375
82194W        W53723  39.557  37.401  14.884
82195W        W53724  40.830  34.574   1.872
82196W        W53725  32.305   0.297   0.062
82197W        W53726  34.903  19.392   0.836
82198W        W53727  27.890   6.437  14.858
82199W        W53728  40.055  20.657   2.739
82200W        W53729  36.281   9.430   1.771
82201W        W53730  12.092  27.633   0.813
82202W        W53731  40.952  13.778   0.325
82203W        W53732  20.487  23.936  14.389
82204W        W53733  30.157  30.086  14.500
82205W        W53734   8.724  24.228  12.028
82206W        W53735  21.941  20.819   2.690
82207W        W53736   6.414   7.412  12.537
82208W        W53737  42.367   3.834  14.176
82209W        W53738  41.944   2.213  11.162
82210W        W53739  13.347  26.441   3.347
82211W        W53740  32.042  27.588   1.329
82212W        W53741  15.708  11.127  12.567
82213W        W53742  17.022  24.515   3.206
82214W        W53743  24.694   9.844   2.886
82215W        W53744  11.007  40.527  11.969
82216W        W53745  12.792  10.335   3.774
82217W        W53746  41.956  28.509   0.509
82218W        W53747  28.542  18.611   3.104
82219W        W53748  24.728  39.969  13.256
82220W        W53749  26.507   6.733   1.550
82221W        W53750   5.404  12.255  13.840
82222W        W53751  17.885  23.997  13.949
82223W        W53752  36.108  19.156   3.300
82224W        W53753   8.298   0.209   2.173
82225W        W53754  31.396  16.817  12.357
82226W        W53755  11.346  28.944   4.246
82227W        W53756  19.749   0.468  12.914
82228W        W53757  30.516  13.516  12.231
82229W        W53758  25.468  10.322  12.924
82230W        W53759  37.515  32.273  11.877
82231W        W53760   0.439  19.504  11.544
82232W        W53761  11.931  27.678   9.844
82233W        W53762  13.694  26.599  10.617
82234W        W53763  37.979   7.960   0.017
82235W        W53764  14.598   3.791   2.842
82236W        W53765  44.892  12.655  11.458
82237W        W53766  31.960  20.903  11.562
82238W        W53767   3.527  17.166   0.818
82239W        W53768   8.161  13.341  11.045
82240W        W53769   0.526   4.709  14.001
82241W        W53770  28.666  13.698   3.113
82242W        W53771  43.728  18.079  13.009
82243W        W53772  40.502  27.949   1.738
82244W        W53773  17.882  16.466   2.264
82245W        W53774  29.942  17.188  11.365
82246W        W53775  30.973  36.671   1.469
82247W        W53776  13.881   6.258  14.825
82248W        W53777  15.746  10.831  13.025
82249W        W53778   6.397  44.290   1.362
82250W        W53779  42.809   2.292  13.907
82251W        W53780   6.749  31.981   0.733
82252W        W53781  25.103  24.783   4.225
82253W        W53782  23.120  16.258  11.127
82254W        W53783  33.511  29.011   4.665
82255W        W53784  35.817  13.566   1.281
82256W        W53785  43.894  13.172   1.916
82257W        W53786   3.787  31.880  11.138
82258W        W53787   3.089  20.665  11.179
82259W        W53788  37.528  38.589   0.308
82260W        W53789  35.854   7.955  12.024
82261W        W53790  41.520  11.832   1.015
82262W        W53791   9.840   5.141   3.224
82263W        W53792  30.382  21.411  11.920
82264W        W53793  35.134   3.329   0.078
82265W        W53794  35.501   7.833  13.967
82266W        W53795   5.664   7.371   2.304
82267W        W53796  12.274  43.542  13.448
82268W        W53797  10.965  34.599   4.112
82269W        W53798   4.787  32.123  13.518
82270W        W53799  16.651  11.924  10.642
82271W        W53800   1.367  15.153   0.951
82272W        W53801   0.002  12.392   3.208
82273W        W53802  19.764  24.357   3.705
82274W        W53803   7.039   8.078  10.750
82275W        W53804  36.068   9.808  11.960
82276W        W53805  32.782  15.417  14.443
82277W        W53806  28.482   7.694   2.664
82278W        W53807  32.446   4.204  11.544
82279W        W53808   7.572  41.238   1.358
82280W        W53809   2.809   9.157  12.449
82281W        W53810   6.458  27.563   2.943
82282W        W53811  31.602  10.769  12.571
82283W        W53812   2.240  44.080   1.262
82284W        W53813  39.765   3.303  10.698
82285W        W53814  14.813  44.307   4.239
82286W        W53815  12.694   3.718  12.124
82287W        W53816  40.092  27.984   0.395
82288W        W53817  42.420   9.262  11.385
82289W        W53818  41.892   0.198   3.867
82290W        W53819  28.066  27.553   0.930
82291W        W53820  31.848  26.093   4.003
82292W        W53821  41.580   1.720  12.493
82293W        W53822  14.725  14.166   0.066
82294W        W53823  27.642  38.308   2.791
82295W        W53824  32.533  44.640  11.923
82296W        W53825   8.479  20.153   4.225
82297W        W53826  33.842  26.570   0.519
82298W        W53827  17.703  14.426  13.123
82299W        W53828   3.313  32.536   0.864
82300W        W53829  12.793  10.432   1.245
82301W        W53830   8.379  42.735   1.848
82302W        W53831  44.939  10.899   3.599
82303W        W53832  24.322  32.785  11.976
82304W        W53833  18.157  43.160  14.650
82305W        W53834  20.750  12.869   3.671
82306W        W53835  43.507   4.256   3.498
82307W        W53836   3.694   2.876   3.113
82308W        W53837   3.206  19.653   3.645
82309W        W53838  32.005  13.790  14.039
82310W        W53839  15.462  33.449   2.699
82311W        W53840  37.235  27.468   0.806
82312W        W53841   3.467  22.307   0.366
82313W        W53842  39.510  39.538   1.059
82314W        W53843   0.282  21.245   4.653
82315W        W53844  28.494  18.155   4.514
82316W        W53845  39.253  20.053  12.968
82317W        W53846   7.826  40.814   2.715
82318W        W53847  21.094   4.616  11.238
82319W        W53848  30.172  11.287  13.947
82320W        W53849  38.287  11.587  11.053
82321W        W53850  32.893  36.505   3.201
82322W        W53851  32.140   2.467   2.428
82323W        W53852  30.212   6.676   3.312
82324W        W53853  21.229  31.448  11.918
82325W        W53854  12.675  40.920  12.618
82326W        W53855  19.269  39.280   2.748
82327W        W53856  14.291  41.366   0.836
82328W        W53857  24.610  33.464   4.438
82329W        W53858  19.633  36.097   0.719
82330W        W53859   9.872  33.142  13.423
82331W        W53860  26.078   4.942  13.990
82332W        W53861  19.715  38.829  14.754
82333W        W53862  31.494  17.544   3.079
82334W        W53863  36.533   0.694   3.227
82335W        W53864   0.141  13.835   3.542
82336W        W53865  31.057  31.888  14.112
82337W        W53866  38.918   8.715   3.688
82338W        W53867  40.951  43.995   3.786
82339W        W53868   4.863  20.252   4.402
82340W        W53869  22.149  31.986   4.576
82341W        W53870  19.727  16.516  13.485
82342W        W53871  26.981  34.845   1.521
82343W        W53872  17.237   3.722   2.066
82344W        W53873  15.739  17.852  14.822
82345W        W53874  20.635  29.481   3.700
82346W        W53875  11.721  16.085   1.395
82347W        W53876  27.589  38.865   4.464
82348W        W53877  22.456  29.376   4.594
82349W        W53878  38.328   4.673   3.490
82350W        W53879  31.132  22.243  10.848
82351W        W53880  14.799  21.989   0.249
82352W        W53881  14.248  37.783  13.429
82353W        W53882  20.964   4.325  14.380
82354W        W53883  24.033  29.064  12.802
82355W        W53884  25.579  24.836   1.681
82356W        W53885   6.552  32.832  13.410
82357W        W53886   5.197  19.082  11.591
82358W        W53887  33.556  40.874   1.369
82359W        W53888  34.443  35.519   4.127
82360W        W53889   3.767   0.926   2.104
82361W        W53890  44.424  22.585   0.919
82362W        W53891  39.987  25.639  13.931
82363W        W53892  16.063  26.580  13.496
82364W        W53893   1.021  39.874   3.816
82365W        W53894  40.437  39.574  11.052
82366W        W53895  31.435  20.329  13.910
82367W        W53896  33.190  11.088   3.679
82368W        W53897  38.075  31.993   4.621
82369W        W53898  15.454  27.687  13.131
82370W        W53899   6.383  40.347  12.569
82371W        W53900   3.332  43.792   1.340
82372W        W53901  23.009  28.686   3.355
82373W        W53902  34.892  14.115   1.453
82374W        W53903  44.368  12.351   0.712
82375W        W53904  35.766  37.395   3.604
82376W        W53905  26.248  21.395   4.963
82377W        W53906  23.602  25.137  10.704
82378W        W53907  42.734  34.156  11.592
82379W        W53908  26.976  40.819  13.531
82380W        W53909  44.934  31.345   2.294
82381W        W53910  24.738  43.542   1.289
82382W        W53911   5.275  32.761   1.763
82383W        W53912  22.521   2.470   0.467
82384W        W53913  27.188   3.492   0.442
82385W        W53914  34.421  19.757  13.551
82386W        W53915  11.707   6.232   4.083
82387W        W53916  41.831  26.899  11.057
82388W        W53917  21.007  41.849   0.909
82389W        W53918  18.110  38.600   2.190
82390W        W53919  12.335  38.996  10.499
82391W        W53920  17.239  14.320  11.683
82392W        W53921  33.140  17.039   1.690
82393W        W53922  39.030   6.253  10.144
82394W        W53923  14.799  19.739   5.043
82395W        W53924  10.894  43.450   0.874
82396W        W53925  18.218  35.397   2.317
82397W        W53926  35.079  36.992   0.329
82398W        W53927  37.519  28.174   0.231
82399W        W53928  37.031  21.183   1.609
82400W        W53929  32.907   2.268   1.766
82401W        W53930  38.899  42.366   1.572
82402W        W53931   4.516  16.726  10.256
82403W        W53932  20.911  32.647  13.476
82404W        W53933  17.165   2.707   4.138
82405W        W53934   8.549   3.300   5.344
82406W        W53935   8.819   2.518  14.063
82407W        W53936   5.239  38.895   0.898
82408W        W53937  28.782  17.136   0.414
82409W        W53938   3.265   5.496  13.624
82410W        W53939  32.535  40.050  10.626
82411W        W53940  15.782   4.155  11.537
82412W        W53941  24.627  29.343   3.376
82413W        W53942  43.607  11.711   4.499
82414W        W53943  38.419  11.297   1.865
82415W        W53944  10.434  42.556   0.516
82416W        W53945  35.058  31.126  14.400
82417W        W53946   7.299   2.218   0.337
82418W        W53947  43.766   9.961   4.869
82419W        W53948  43.066  37.711  14.515
82420W        W53949  35.400  27.179  13.969
82421W        W53950  18.888  15.332  12.237
82422W        W53951  35.582  26.446  13.246
82423W        W53952   0.977   0.070   0.428
82424W        W53953  15.663  11.881   3.339
82425W        W53954  25.057  36.475   4.160
82426W        W53955  31.590  29.490   0.360
82427W        W53956   8.385  22.779   0.120
82428W        W53957   5.131  26.477  11.214
82429W        W53958  34.086  32.105  12.108
82430W        W53959   5.476  44.823   2.184
82431W        W53960  36.857  41.779   1.900
82432W        W53961   2.457  11.340  12.847
82433W        W53962  25.201  39.492   0.926
82434W        W53963  44.477   7.138  14.343
82435W        W53964  40.059  27.005  11.653
82436W        W53965  10.321  35.953  14.742
82437W        W53966  28.529   5.968   0.473
82438W        W53967   5.208  27.704   4.599
82439W        W53968  29.696  42.099  11.483
82440W        W53969  26.382  33.345  10.670
82441W        W53970   0.306  18.971  13.996
82442W        W53971   4.489  17.221   3.274
82443W        W53972  39.235  36.966  13.828
82444W        W53973  39.202   7.244   3.234
82445W        W53974   8.468  31.014  11.179
82446W        W53975  41.769  43.644   4.588
82447W        W53976   6.377   2.650   2.169
82448W        W53977  25.473  33.416   0.512
82449W        W53978  27.713   7.845   4.182
82450W        W53979  43.301  26.068  12.664
82451W        W53980  42.808   4.135   2.707
82452W        W53981   1.638  16.658  12.551
82453W        W53982  43.756  23.763   1.404
82454W        W53983   4.451  32.265   1.333
82455W        W53984  10.834   4.148   3.228
82456W        W53985  18.877  21.607  14.351
82457W        W53986  28.838  15.147  10.346
82458W        W53987  19.201  32.173  11.521
82459W        W53988  31.506   9.607  11.631
82460W        W53989  35.956  43.909   4.593
82461W        W53990  24.434  38.880   4.138
82462W        W53991  36.557  37.812   1.228
82463W        W53992  34.906  24.025  10.732
82464W        W53993  28.363  24.440   1.737
82465W        W53994  15.630  37.810  12.190
82466W        W53995  15.180  41.271  12.587
82467W        W53996  43.958  37.718  14.313
82468W        W53997  28.949  25.538   2.891
82469W        W53998   3.298  21.923   0.016
82470W        W53999  29.857  31.954  12.488
82471W        W54000  36.187  38.348  13.607
82472W        W54001  24.984  21.603  11.087
82473W        W54002   0.684  35.615  11.880
82474W        W54003  33.769  22.458  13.351
82475W        W54004  41.358  27.924   4.096
82476W        W54005  20.038  13.533   4.533
82477W        W54006  10.968  15.220   3.250
82478W        W54007  35.534  20.547  13.261
82479W        W54008  35.119  29.067   3.699
82480W        W54009  25.753  34.338  13.934
82481W        W54010  19.915  24.543   1.928
82482W        W54011  16.221   4.437  11.719
82483W        W54012  30.623  14.055   3.333
82484W        W54013  29.683   9.939  14.911
82485W        W54014  21.674  23.961  13.916
82486W        W54015  26.915   6.251  12.332
82487W        W54016  23.018   8.083  14.877
82488W        W54017  23.101  41.835  11.343
82489W        W54018  36.422  20.234  12.209
82490W        W54019  39.299  28.499   2.757
82491W        W54020  16.784  22.624  12.459
82492W        W54021   7.686   9.173  14.360
82493W        W54022  22.507  19.854   0.340
82494W        W54023  31.244   1.000   4.550
82495W        W54024  26.502  40.630   0.587
82496W        W54025  23.132  26.171   3.853
82497W        W54026  15.863  38.425   1.253
82498W        W54027   4.105  26.878   2.667
82499W        W54028  40.594  43.977  13.419
82500W        W54029  24.714  29.860   3.254
82501W        W54030  43.925  20.522  11.702
82502W        W54031  16.923  33.887   1.506
82503W        W54032  18.806  24.159  12.465
82504W        W54033  38.892  13.729  13.056
82505W        W54034  26.980  11.009   0.449
82506W        W54035  43.221   7.376   0.861
82507W        W54036  27.968  11.658  11.277
82508W        W54037  10.725  13.118   0.411
82509W        W54038   8.381  28.927   2.602
82510W        W54039  21.212   0.316  14.093
82511W        W54040  43.689  40.378   1.225
82512W        W54041  27.944  39.658   2.310
82513W        W54042  25.243  14.465  14.376
82514W        W54043  16.736  31.051  14.575
82515W        W54044  17.991  12.217   1.954
82516W        W54045  36.348  13.648   2.248
82517W        W54046  29.046  27.023  11.669
82518W        W54047  18.058   4.266  11.210
82519W        W54048  25.687   5.264   1.302
82520W        W54049  21.535   4.757   3.305
82521W        W54050  16.290  42.781  12.298
82522W        W54051  41.313  43.473  13.106
82523W        W54052   1.004  24.029   3.332
82524W        W54053  12.711  28.703  14.068
82525W        W54054  10.731  12.189  10.536
82526W        W54055  21.206   8.752   5.102
82527W        W54056  13.119  38.075   0.483
82528W        W54057  14.526   2.398  14.455
82529W        W54058  13.124  40.474   0.709
82530W        W54059   7.736  25.612  11.996
82531W        W54060  19.447   6.715  12.054
82532W        W54061  26.916  22.763  10.360
82533W        W54062  43.771  24.069  12.397
82534W        W54063  28.875   5.794  12.059
82535W        W54064  11.867   3.805   4.040
82536W        W54065  25.382   5.774   3.959
82537W        W54066  15.731  34.333  12.783
82538W        W54067  36.807   7.842  13.489
82539W        W54068   4.853  22.214  14.662
82540W        W54069  37.046  43.275  12.417
82541W        W54070  30.400  11.860   1.336
82542W        W54071  36.759  26.622   3.352
82543W        W54072  32.501   6.221  12.501
82544W        W54073   6.261  39.103  13.870
82545W        W54074  13.245  24.318   2.789
82546W        W54075  32.030  26.938   0.440
82547W        W54076  24.965  18.593   1.995
82548W        W54077  31.864  26.207   1.363
82549W        W54078  37.014  31.452  12.519
82550W        W54079  35.680  30.105  11.479
82551W        W54080  31.036  20.974  11.543
82552W        W54081  22.654   4.899   1.804
82553W        W54082  42.531  33.986   3.348
82554W        W54083  37.079   0.937   0.102
82555W        W54084  34.452  17.451  11.700
82556W        W54085  22.205  35.211   2.321
82557W        W54086  15.566  16.618  12.485
82558W        W54087  41.779  13.698   1.920
82559W        W54088   2.706  25.452  11.570
82560W        W54089  21.812   4.633  14.436
82561W        W54090  28.595  22.774  12.053
82562W        W54091  28.157  33.456   3.758
82563W        W54092   3.205  15.818  11.161
82564W        W54093  19.753   5.040  12.940
82565W        W54094  37.767   4.385  11.156
82566W        W54095  16.605  37.072   1.837
82567W        W54096   9.798  10.711   3.394
82568W        W54097  12.831   7.189  13.344
82569W        W54098  10.794   4.413  13.024
82570W        W54099  38.332   1.845   1.442
82571W        W54100   1.288   8.156   1.384
82572W        W54101  34.889   8.393  10.472
82573W        W54102  41.688  22.081   0.027
82574W        W54103  22.314  23.824   1.504
82575W        W54104  39.363  37.315   3.187
82576W        W54105  10.727  31.230   0.519
82577W        W54106  35.931  41.234   1.703
82578W        W54107  15.639   4.117  13.769
82579W        W54108  24.520  31.179  14.915
82580W        W54109  39.290  34.117   4.216
82581W        W54110  43.982  37.481   3.196
82582W        W54111  23.158  31.910   0.930
82583W        W54112   6.704  27.793   1.136
82584W        W54113  11.469  41.997   3.371
82585W        W54114  20.003  17.186  11.391
82586W        W54115  29.879  28.472   0.751
82587W        W54116  40.502   4.648   1.182
82588W        W54117  29.524  42.418   1.210
82589W        W54118  25.971  16.041   0.375
82590W        W54119  18.957  24.191   4.520
82591W        W54120  44.503   8.754  11.597
82592W        W54121  34.983   2.992  13.557
82593W        W54122  27.668   5.367   0.368
82594W        W54123  32.430  34.238   0.007
82595W        W54124   5.044   7.644   4.657
82596W        W54125  26.271  36.515   1.722
82597W        W54126   6.144   9.088   4.779
82598W        W54127   3.415  26.738  12.593
82599W        W54128   7.897  40.050  11.040
82600W        W54129  36.878  10.112   1.806
82601W        W54130  42.043   0.407  10.937
82602W        W54131  22.037  37.553   1.495
82603W        W54132   6.383  24.325   4.085
82604W        W54133  26.803   1.840   1.148
82605W        W54134  34.950  35.072   0.752
82606W        W54135   2.064  14.702   0.463
82607W        W54136   4.249  31.399  14.440
82608W        W54137  20.190  31.883  11.528
82609W        W54138  34.007  18.263   0.863
82610W        W54139   4.801   4.511  13.038
82611W        W54140  42.964  22.497  12.124
82612W        W54141  35.687  27.726   4.186
82613W        W54142   8.342  25.449   4.200
82614W        W54143  22.097  15.773  10.900
82615W        W54144  17.201   1.996  13.583
82616W        W54145   9.739  23.090  12.892
82617W        W54146  29.574  33.296   0.429
82618W        W54147  29.448  42.917   1.768
82619W        W54148  35.130  22.639   1.395
82620W        W54149   1.264   5.217  10.406
82621W        W54150  23.956  30.127  13.059
82622W        W54151  37.649   5.690  13.120
82623W        W54152   4.433   8.860   2.123
82624W        W54153  30.755  23.665  11.239
82625W        W54154  19.236  39.249   0.262
82626W        W54155   3.182  27.649   0.322
82627W        W54156  28.568  36.844   1.203
82628W        W54157   6.774  22.625   0.636
82629W        W54158   5.789   5.840  14.790
82630W        W54159   6.794  43.883  11.702
82631W        W54160  30.647   2.809  13.937
82632W        W54161   2.331  35.151  10.696
82633W        W54162  35.391  30.480   4.823
82634W        W54163  34.783  18.604   3.270
82635W        W54164  24.569  44.442   0.125
82636W        W54165  15.827   5.144  11.501
82637W        W54166   0.809  35.152  11.665
82638W        W54167  32.212  33.371   0.775
82639W        W54168  44.887   2.307  11.951
82640W        W54169  17.036  34.139  11.050
82641W        W54170  28.722  32.485  11.120
82642W        W54171  35.696   6.076  14.222
82643W        W54172  33.256  40.375   0.613
82644W        W54173  33.171  43.248   0.569
82645W        W54174  13.214  28.920  14.451
82646W        W54175  19.070  38.895   1.430
82647W        W54176   4.131  40.389   0.647
82648W        W54177  12.624   8.091   3.279
82649W        W54178  43.644   3.568   2.761
82650W        W54179  32.909  13.528   3.162
82651W        W54180  11.658  38.450   4.692
82652W        W54181  19.621   7.883  12.823
82653W        W54182  12.329  28.672  14.844
82654W        W54183  28.885  11.155  13.441
82655W        W54184   5.406  13.324   3.408
82656W        W54185  20.714   1.607   4.902
82657W        W54186   3.203   2.516   1.771
82658W        W54187   3.203  36.352  12.473
82659W        W54188  25.941  40.906   2.265
82660W        W54189  43.044  36.161  10.826
82661W        W54190  36.458  12.837  13.513
82662W        W54191  41.127  18.797   2.342
82663W        W54192   7.824  36.639  11.869
82664W        W54193  24.260   4.486  11.137
82665W        W54194  26.117  14.541  12.063
82666W        W54195   3.435   4.174   0.418
82667W        W54196  28.689   1.232  13.078
82668W        W54197  12.202  40.314   4.332
82669W        W54198   4.694  19.445   0.416
82670W        W54199  20.278   5.863   1.013
82671W        W54200   3.942  40.821  14.471
82672W        W54201   6.521  37.281  11.107
82673W        W54202  14.224   9.823  10.738
82674W        W54203  32.420  42.944   0.434
82675W        W54204  22.919  18.963   2.862
82676W        W54205  19.339   0.922   2.211
82677W        W54206  10.775  17.691  11.671
82678W        W54207  10.756  42.529   1.839
82679W        W54208   7.490  44.411  14.832
82680W        W54209   7.676   9.335   0.362
82681W        W54210  11.572  15.177   2.201
82682W        W54211   7.148  37.382   4.227
82683W        W54212   0.899  24.595  14.438
82684W        W54213  31.923  22.316   0.900
82685W        W54214   7.940   1.541   1.013
82686W        W54215   0.855  25.983   4.781
82687W        W54216  34.576  12.644   2.598
82688W        W54217  43.964  25.443   3.119
82689W        W54218  35.613   1.985  14.342
82690W        W54219   8.346  36.953   2.835
82691W        W54220  31.400  36.696  11.519
82692W        W54221  18.835   3.216   2.705
82693W        W54222  19.798  12.201  11.810
82694W        W54223  36.535   7.528   0.297
82695W        W54224  39.434  22.184  13.599
82696W        W54225   2.445  44.249  11.039
82697W        W54226  38.006   5.128  11.629
82698W        W54227   2.045  15.386  13.297
82699W        W54228  18.404  24.242   3.589
82700W        W54229  19.580  13.832  10.813
82701W        W54230  39.034  15.271  11.243
82702W        W54231   0.529  34.824  14.416
82703W        W54232  33.634   6.360   2.380
82704W        W54233  12.763  10.683  11.703
82705W        W54234  39.804   0.383   2.698
82706W        W54235  44.560  18.790  11.048
82707W        W54236  13.781  15.210   4.646
82708W        W54237  23.226  11.984   0.885
82709W        W54238  38.639  34.675  12.412
82710W        W54239  29.785   3.265  12.469
82711W        W54240  22.007  23.663  14.759
82712W        W54241  37.090  43.981  12.057
82713W        W54242  43.803  41.660  13.081
82714W        W54243  40.124  11.794  14.028
82715W        W54244   2.317  20.587   4.362
82716W        W54245  15.270  13.659  12.828
82717W        W54246  21.168  21.129   0.624
82718W        W54247  17.305  16.066   3.668
82719W        W54248  29.645  42.871   3.033
82720W        W54249   0.657  27.671  11.240
82721W        W54250  22.151  28.903  14.425
82722W        W54251  11.157  25.793  12.105
82723W        W54252  43.443  29.051  14.437
82724W        W54253  24.439  29.419   0.782
82725W        W54254  13.160  25.574   0.809
82726W        W54255  33.480  38.420   2.302
82727W        W54256  13.108  39.515  11.654
82728W        W54257  37.293  33.943   1.117
82729W        W54258   6.788  28.976   3.800
82730W        W54259   4.666  18.560  12.692
82731W        W54260   3.168  19.561   4.548
82732W        W54261  23.056  20.519  10.670
82733W        W54262   4.357  22.530  11.237
82734W        W54263  26.813  28.581   3.776
82735W        W54264  42.309   8.666  12.716
82736W        W54265   3.585  29.183  11.709
82737W        W54266  30.204  12.154   5.116
82738W        W54267  16.822  12.283  14.818
82739W        W54268  31.084  12.317   0.880
82740W        W54269  39.380  21.689   3.788
82741W        W54270  44.928   0.352   3.602
82742W        W54271  12.996   0.874  11.609
82743W        W54272  37.432  44.674  13.866
82744W        W54273   1.352  11.290   0.226
82745W        W54274  30.098  36.190   2.349
82746W        W54275  14.307   0.378   3.794
82747W        W54276  17.901  38.750   4.617
82748W        W54277   4.245  19.803  13.956
82749W        W54278  38.466  32.933   0.277
82750W        W54279   7.943  33.796   2.739
82751W        W54280  37.892  25.734  10.607
82752W        W54281  24.446  42.790   0.564
82753W        W54282  39.123  33.557   2.449
82754W        W54283  17.223  34.891   0.438
82755W        W54284   2.372  40.002  11.131
82756W        W54285  35.910  12.747   0.338
82757W        W54286  23.527  26.205   0.753
82758W        W54287   4.681   7.380  14.387
82759W        W54288  22.209  16.849  11.783
82760W        W54289  30.383  29.924  14.948
82761W        W54290  28.001   1.772   3.293
82762W        W54291  13.350  29.582   3.622
82763W        W54292  14.395  44.401  13.078
82764W        W54293  13.810  18.682   4.286
82765W        W54294  40.096  12.518   0.429
82766W        W54295   0.227  28.464   0.937
82767W        W54296  39.091   3.883  11.968
82768W        W54297  12.885  44.359   3.936
82769W        W54298  24.373  16.236   4.676
82770W        W54299   8.446  10.749   4.036
82771W        W54300  24.149  34.639   4.134
82772W        W54301  15.566  20.150   0.220
82773W        W54302   9.083  39.067  11.142
82774W        W54303  44.212  18.685  13.428
82775W        W54304  26.039  31.092   1.160
82776W        W54305  28.138  42.060  11.243
82777W        W54306  28.531  27.626  11.139
82778W        W54307  36.465  37.669  12.561
82779W        W54308  18.600  30.660   3.676
82780W        W54309   7.179  15.564  12.919
82781W        W54310   2.439  24.402  11.419
82782W        W54311   6.854   4.412  14.270
82783W        W54312   8.167  42.537  11.527
82784W        W54313  23.153  42.021  14.387
82785W        W54314  29.511   7.315  12.989
82786W        W54315  24.751  36.399  14.840
82787W        W54316  33.272   2.933   1.357
82788W        W54317  15.009  38.792   0.478
82789W        W54318  36.027   3.285   2.676
82790W        W54319  20.808  31.692  11.469
82791W        W54320  43.019   2.408  13.014
82792W        W54321  17.153   5.704  10.751
82793W        W54322  44.270  19.768  13.964
82794W        W54323  42.956  33.537   0.509
82795W        W54324  22.143  13.800  12.863
82796W        W54325   4.710  18.735  13.718
82797W        W54326   7.450  42.931  14.722
82798W        W54327  11.410   6.821  13.606
82799W        W54328  38.086   0.830  11.092
82800W        W54329  33.091  42.202   2.692
82801W        W54330  10.720  24.373   1.832
82802W        W54331  10.470  11.199  11.943
82803W        W54332   3.865  17.572  11.910
82804W        W54333  31.834  16.496   1.036
82805W        W54334   9.792  12.664   4.281
82806W        W54335  14.813  28.009   1.296
82807W        W54336  44.547   6.013  11.846
82808W        W54337  44.177  18.153   2.286
82809W        W54338   4.962  10.242  12.902
82810W        W54339  21.491  20.736  14.954
82811W        W54340  11.429  19.917  13.963
82812W        W54341  38.656  19.640  13.766
82813W        W54342  31.348   9.829  11.203
82814W        W54343  41.957  40.879  14.230
82815W        W54344  27.414   5.789   3.123
82816W        W54345   9.457  12.343  14.908
82817W        W54346  43.804  43.817   1.116
82818W        W54347  15.344  28.684  11.441
82819W        W54348  31.347   3.305  14.318
82820W        W54349  19.423   5.521   3.185
82821W        W54350  11.895  32.141  10.566
82822W        W54351  32.848  35.676  12.127
82823W        W54352   9.684  12.293  12.948
82824W        W54353  13.250  40.466  10.204
82825W        W54354  44.786   6.620   4.272
82826W        W54355   1.323   2.917   2.646
82827W        W54356  21.643   3.062   3.681
82828W        W54357   8.954  16.814  13.436
82829W        W54358   3.337  14.856   0.886
82830W        W54359   4.208  29.746  11.661
82831W        W54360  18.020  42.691   1.449
82832W        W54361   9.724  20.976   4.510
82833W        W54362  11.259  43.602  13.075
82834W        W54363  41.523  13.902  12.404
82835W        W54364  32.819  12.671   4.478
82836W        W54365  35.031  17.846  12.557
82837W        W54366  20.120  17.636   0.835
82838W        W54367   8.044  31.730  13.325
82839W        W54368  15.319   5.124  10.807
82840W        W54369   3.232  39.914   1.475
82841W        W54370  10.704  40.119   3.730
82842W        W54371   8.108  19.691   5.065
82843W        W54372  16.181  42.430  14.455
82844W        W54373  37.556  14.838  13.385
82845W        W54374  18.720  44.467   4.601
82846W        W54375   8.927  14.326  14.066
82847W        W54376   2.399  33.939  11.335
82848W        W54377   5.961  32.962   4.208
82849W        W54378   5.267  15.229   3.660
82850W        W54379   4.013  41.019   0.873
82851W        W54380  20.807  10.673  12.018
82852W        W54381   4.921   8.571  13.460
82853W        W54382  11.116  18.112   2.423
82854W        W54383  33.581  16.584   3.618
82855W        W54384  19.953  27.950  13.097
82856W        W54385  32.188  14.343  12.080
82857W        W54386  21.041  43.668   3.695
82858W        W54387  18.831  31.415  12.089
82859W        W54388  39.022  29.692   1.812
82860W        W54389  13.907   6.881  11.275
82861W        W54390  31.403  40.825   1.701
82862W        W54391   7.007   2.433   1.344
82863W        W54392  22.048   0.412   4.686
82864W        W54393  39.013   9.283   0.050
82865W        W54394  42.610  22.698   1.790
82866W        W54395  43.896  27.742   1.685
82867W        W54396  40.905  32.919   0.814
82868W        W54397  29.619  23.456  14.332
82869W        W54398  32.164  22.945   3.808
82870W        W54399  15.868  35.075   5.114
82871W        W54400  26.990   4.386  11.473
82872W        W54401  37.062  20.535  12.497
82873W        W54402  35.985  14.240  14.403
82874W        W54403  33.571  33.408   0.419
82875W        W54404  27.164   4.255   2.652
82876W        W54405  10.728  31.092   2.834
82877W        W54406   6.107  20.492  10.943
82878W        W54407  25.480  18.940   0.843
82879W        W54408  18.195  10.257   0.216
82880W        W54409  36.148  28.138   1.283
82881W        W54410  40.441  25.145  10.365
82882W        W54411  39.615   0.502  12.991
82883W        W54412  14.121  41.711  13.438
82884W        W54413  27.066   6.543  13.378
82885W        W54414  10.130  14.238  11.970
82886W        W54415  25.253   6.221  13.358
82887W        W54416  42.355   0.997  11.596
82888W        W54417   2.044  38.067  14.002
82889W        W54418  32.134  33.663  12.878
82890W        W54419  15.555  38.218   3.702
82891W        W54420  10.072   2.276  13.543
82892W        W54421  43.084  15.074  12.008
82893W        W54422  21.096  42.500  14.438
82894W        W54423  29.928  38.121   4.514
82895W        W54424  43.001   6.255   4.193
82896W        W54425  40.583   3.170   3.807
82897W        W54426   6.122  33.878   1.690
82898W        W54427  13.350   6.124   2.768
82899W        W54428  42.758  33.110   2.206
82900W        W54429  17.959  26.965   5.075
82901W        W54430  34.746  12.186   4.270
82902W        W54431  20.508  40.991   0.177
82903W        W54432  42.666  17.475   3.044
82904W        W54433   8.933  37.352  13.510
82905W        W54434   0.699  12.879  13.510
82906W        W54435  25.282  38.468   1.048
82907W        W54436  21.766  41.762  10.779
82908W        W54437  38.839  37.409   2.328
82909W        W54438  16.230   6.252   4.946
82910W        W54439  36.529  13.654  12.006
82911W        W54440  27.975  15.843  12.553
82912W        W54441  17.864  38.892  10.640
82913W        W54442  15.380  44.979   2.038
82914W        W54443  38.743  25.529  12.011
82915W        W54444  33.272  41.739   3.389
82916W        W54445   1.389  19.302   2.666
82917W        W54446   3.138  40.038  12.896
82918W        W54447  23.952   2.225  12.940
82919W        W54448   5.882  29.554   4.916
82920W        W54449  21.495  24.932  11.260
82921W        W54450   9.357  10.421   0.017
82922W        W54451  27.231  40.274   1.309
82923W        W54452  31.465  31.467  14.417
82924W        W54453  17.045  32.957   3.192
82925W        W54454  34.839  31.995  12.566
82926W        W54455  32.647   5.875   3.287
82927W        W54456  28.983  19.909  13.287
82928W        W54457  12.639   9.852   3.824
82929W        W54458   3.308  22.370  11.493
82930W        W54459  26.742   0.580   4.081
82931W        W54460   4.799  36.146   9.720
82932W        W54461   9.524  26.263   2.185
82933W        W54462  10.263  12.177  14.425
82934W        W54463  40.991   4.334  12.155
82935W        W54464  44.987  12.582  10.569
82936W        W54465  31.457  11.159   1.649
82937W        W54466  26.632  22.922   1.112
82938W        W54467  16.707  23.381  11.099
82939W        W54468  17.411  33.781  11.124
82940W        W54469   9.676  42.029  13.447
82941W        W54470  20.762  26.148   1.434
82942W        W54471  27.626  23.191   1.396
82943W        W54472  42.050  38.381   0.196
82944W        W54473   3.400  44.272   3.104
82945W        W54474   4.770  22.689   5.116
82946W        W54475  34.847  15.804  11.337
82947W        W54476  42.558  36.566  14.482
82948W        W54477  31.429  26.998   3.155
82949W        W54478  22.427  30.046  10.695
82950W        W54479   2.514  33.889  12.593
82951W        W54480  31.984  19.926   5.025
82952W        W54481   7.594  30.633   3.531
82953W        W54482   4.698  13.786   0.411
82954W        W54483  31.894  41.774   1.980
82955W        W54484  10.465  34.055  13.733
82956W        W54485   8.934  18.556  11.487
82957W        W54486  28.145   9.114   3.838
82958W        W54487   2.919  11.091  13.575
82959W        W54488  12.892  11.714  11.166
82960W        W54489  40.635  40.435  14.575
82961W        W54490  29.607   8.214  10.512
82962W        W54491   9.637  10.818  14.853
82963W        W54492  41.018  30.982  11.161
82964W        W54493  38.924  44.741   4.094
82965W        W54494  17.096  23.666   3.359
82966W        W54495  27.674   1.109  13.981
82967W        W54496  19.601  15.448  12.338
82968W        W54497  11.599   1.913   0.221
82969W        W54498  39.000  43.141  11.479
82970W        W54499  40.422  43.891   3.841
82971W        W54500  23.243  11.895   3.638
82972W        W54501   8.623  43.153   3.246
82973W        W54502   3.695  10.713   4.185
82974W        W54503  15.228   9.596  14.484
82975W        W54504  30.353  14.215   1.239
82976W        W54505  14.089  26.388   3.770
82977W        W54506  40.218  28.864   0.751
82978W        W54507  21.707  12.505   3.288
82979W        W54508  22.231   3.356   0.679
82980W        W54509   8.374  28.692  12.960
82981W        W54510  33.304  39.758  14.858
82982W        W54511   8.069  33.099   1.998
82983W        W54512  16.618  15.316  10.588
82984W        W54513   8.311  13.800  14.909
82985W        W54514  10.058  23.013   1.734
82986W        W54515   8.359   0.490   4.095
82987W        W54516  29.987  32.096  10.810
82988W        W54517  10.179  36.991  10.720
82989W        W54518  30.503  24.627   3.130
82990W        W54519   2.851  39.113  12.518
82991W        W54520  39.957  42.267  13.030
82992W        W54521  37.850  36.476   4.231
82993W        W54522  29.118  23.252   1.269
82994W        W54523  39.486  33.509  14.516
82995W        W54524  17.295  10.357  12.802
82996W        W54525  33.478   8.719  12.996
82997W        W54526  12.608  42.219   1.489
82998W        W54527   8.163  13.919  11.921
82999W        W54528  44.243  27.662  12.513
83000W        W54529  11.181  15.609  12.376
83001W        W54530  18.381  37.275   2.345
83002W        W54531  14.092  37.323   1.284
83003W        W54532  39.688   0.468   0.232
83004W        W54533  28.030  10.459   2.740
83005W        W54534  23.571  12.377   0.757
83006W        W54535   3.784  18.581  13.810
83007W        W54536   8.653  20.816  14.374
83008W        W54537  43.028  34.110   4.130
83009W        W54538  42.647  16.667   2.062
83010W        W54539   1.489  18.219   2.276
83011W        W54540   4.056  43.232   1.331
83012W        W54541   0.406   7.790  12.114
83013W        W54542   4.317  41.299  11.851
83014W        W54543  24.523  34.842   3.233
83015W        W54544  41.921  18.032  13.167
83016W        W54545  25.913   3.223  14.325
83017W        W54546   3.854   4.459  14.427
83018W        W54547  29.323   2.194   1.191
83019W        W54548   5.834  15.541   1.219
83020W        W54549  33.917  12.809  10.647
83021W        W54550   8.198   6.417   1.984
83022W        W54551  11.092  41.315   2.768
83023W        W54552  21.373  43.509  11.105
83024W        W54553  31.381  11.173  14.317
83025W        W54554   0.677  43.346   0.241
83026W        W54555   8.207   3.324   3.000
83027W        W54556  29.191  33.487   0.711
83028W        W54557  32.006  21.505   0.309
83029W        W54558   8.643  30.111   2.313
83030W        W54559   7.371  12.980  11.219
83031W        W54560  24.923  23.122   3.135
83032W        W54561  14.682  41.298  14.321
83033W        W54562  26.904  36.145  11.536
83034W        W54563   0.249  27.865  11.623
83035W        W54564  13.766  35.775   0.196
83036W        W54565   5.158  20.555  14.709
83037W        W54566  38.371  26.415  13.896
83038W        W54567  42.643  32.104  14.368
83039W        W54568  28.475  26.426   3.729
83040W        W54569  14.667  12.091  14.352
83041W        W54570   1.964  39.880   4.842
83042W        W54571  26.074   0.167  13.955
83043W        W54572  20.703  36.136  11.732
83044W        W54573   2.614  23.356   4.061
83045W        W54574  18.939  39.058   2.442
83046W        W54575  21.221  15.065  14.451
83047W        W54576  43.017  10.342  14.799
83048W        W54577  19.216  39.780   4.061
83049W        W54578  32.893   1.771  12.404
83050W        W54579  26.568   4.269  14.201
83051W        W54580  18.065  40.376  14.421
83052W        W54581  13.578  12.759  13.000
83053W        W54582  42.410  16.091   2.402
83054W        W54583  36.018  38.063  14.459
83055W        W54584  28.048  23.339  12.978
83056W        W54585  20.096  22.410  13.349
83057W        W54586   1.343  35.311   2.302
83058W        W54587  34.599  10.211  12.552
83059W        W54588  24.742  15.605  14.807
83060W        W54589  14.429  31.863  11.148
83061W        W54590  33.980  26.022  12.949
83062W        W54591   2.150  21.146   4.240
83063W        W54592  18.757   7.795   0.804
83064W        W54593  36.414  11.246  10.657
83065W        W54594  14.332  19.645  13.961
83066W        W54595  14.930  34.972  11.218
83067W        W54596  39.744  37.393  12.183
83068W        W54597   5.482  23.036   2.257
83069W        W54598   8.221   4.005  10.703
83070W        W54599  12.888  34.538  14.387
83071W        W54600  14.857  42.815   0.769
83072W        W54601  26.665  38.158  11.197
83073W        W54602  21.485   4.513   2.260
83074W        W54603  39.023  33.456   4.624
83075W        W54604  28.198  43.265  12.963
83076W        W54605  30.024  42.802   4.208
83077W        W54606  41.388  18.008   2.900
83078W        W54607  24.580  22.501  11.679
83079W        W54608  26.843  11.427   1.747
83080W        W54609  40.164  20.821  10.986
83081W        W54610  34.631   8.283  11.813
83082W        W54611  24.741  19.132   3.766
83083W        W54612  25.246  40.286   4.753
83084W        W54613  34.125  23.533   4.338
83085W        W54614   2.252  22.101   2.716
83086W        W54615  37.802  42.888  13.137
83087W        W54616  21.970  34.847  13.889
83088W        W54617   8.904  37.648   3.893
83089W        W54618  35.107  33.104   3.814
83090W        W54619   0.514  26.223   3.240
83091W        W54620  10.128  13.097  11.997
83092W        W54621  11.178  16.689   0.906
83093W        W54622   8.794  41.546   4.691
83094W        W54623  15.651  32.376   0.960
83095W        W54624  36.558   6.953  13.324
83096W        W54625   3.444  40.418   3.853
83097W        W54626  40.988  28.952  13.945
83098W        W54627  14.840  38.652   4.084
83099W        W54628  11.380   3.384  14.126
83100W        W54629  16.362  27.014   2.874
83101W        W54630  26.981   9.709  12.191
83102W        W54631   4.482  41.338  14.008
83103W        W54632  13.832  29.765   3.685
83104W        W54633  18.710  33.071  10.650
83105W        W54634  11.323  40.040   0.885
83106W        W54635  39.721   8.250  10.564
83107W        W54636  27.408   9.151   0.884
83108W        W54637   6.737  24.982  12.930
83109W        W54638  33.398  16.560  11.970
83110W        W54639  36.367  38.352   3.071
83111W        W54640  21.517  14.771   4.484
83112W        W54641  23.284  10.429  11.391
83113W        W54642  15.811  44.212   4.051
83114W        W54643  16.910  43.595   2.882
83115W        W54644   7.740  18.472  12.483
83116W        W54645  43.036  25.557   3.168
83117W        W54646  30.072  36.369  12.973
83118W        W54647  28.633  13.309  12.402
83119W        W54648   4.247  24.280  11.654
83120W        W54649  35.667   3.716   3.401
83121W        W54650   2.488  29.278  12.837
83122W        W54651  36.396  31.122  14.221
83123W        W54652  15.744   6.318  12.456
83124W        W54653   2.309  16.622  10.486
83125W        W54654  35.563  31.378   2.373
83126W        W54655  23.021  31.704   9.856
83127W        W54656  36.456  44.672  11.210
83128W        W54657  12.670  37.598  12.075
83129W        W54658  23.619  19.759   4.098
83130W        W54659   8.664  41.358  13.014
83131W        W54660  19.527  25.529  12.599
83132W        W54661  28.689   2.923  11.236
83133W        W54662  12.907  20.998  14.487
83134W        W54663  22.320  36.690   1.279
83135W        W54664  25.391  37.544   0.104
83136W        W54665   2.618  20.328  12.871
83137W        W54666  11.340   5.363  12.386
83138W        W54667  42.281  39.910   0.782
83139W        W54668  26.750  21.576  12.477
83140W        W54669  12.602  14.746  12.051
83141W        W54670  43.597  39.628  14.877
83142W        W54671  29.898  12.709   1.819
83143W        W54672  37.211  30.988  10.664
83144W        W54673  10.780  28.021   1.716
83145W        W54674   0.387  17.676  13.086
83146W        W54675  22.613  15.959  14.542
83147W        W54676   6.554  11.529   4.105
83148W        W54677   4.797   5.946   0.303
83149W        W54678  12.751  37.807  14.903
83150W        W54679  41.373  18.698  13.582
83151W        W54680  24.463  27.045  10.405
83152W        W54681  40.393  32.369   4.838
83153W        W54682  42.469  43.193  10.032
83154W        W54683  32.143   9.685  13.613
83155W        W54684  18.194  15.881  11.256
83156W        W54685   5.312  12.665   0.767
83157W        W54686  41.977  18.685   4.527
83158W        W54687   0.558   4.312  11.892
83159W        W54688   6.903  42.041   0.426
83160W        W54689  17.263   7.944   2.762
83161W        W54690  28.657   5.228   3.147
83162W        W54691   9.809  30.981  11.949
83163W        W54692  10.292  42.852  14.502
83164W        W54693  36.138  25.211   0.625
83165W        W54694  32.248  14.043  14.481
83166W        W54695  13.958  10.107  13.339
83167W        W54696  36.503   6.835  11.118
83168W        W54697  12.380  13.811  12.052
83169W        W54698   2.729   0.010   4.404
83170W        W54699  35.400   9.752   1.706
83171W        W54700   1.298  19.577   1.337
83172W        W54701  28.848  25.446  11.617
83173W        W54702  28.984   7.582  11.078
83174W        W54703   0.053   1.100  12.138
83175W        W54704  34.552  19.696  14.420
83176W        W54705  20.606   5.688   3.572
83177W        W54706  14.679  43.371  14.337
83178W        W54707  19.091   0.259  13.556
83179W        W54708   9.637  31.091  11.483
83180W        W54709  41.995  33.821  13.585
83181W        W54710  21.981  44.946  14.843
83182W        W54711  41.415   5.601   3.223
83183W        W54712  37.109   1.283   3.690
83184W        W54713  22.223  21.588   0.589
83185W        W54714  35.485   3.907  14.304
83186W        W54715  40.391  13.762   4.006
83187W        W54716  17.447  40.711   4.291
83188W        W54717  37.971  24.432  13.812
83189W        W54718  14.487   6.393   0.416
83190W        W54719  32.562  42.750   4.922
83191W        W54720  16.111  26.122   2.982
83192W        W54721  36.547   4.385   4.236
83193W        W54722  34.066   5.274   0.726
83194W        W54723  31.835  37.268  13.145
83195W        W54724  24.581  29.155   2.891
83196W        W54725  28.405   8.124  13.122
83197W        W54726  10.722  26.905   3.645
83198W        W54727  26.545   9.695   0.771
83199W        W54728  16.023  26.636   3.097
83200W        W54729   5.948   5.837  12.152
83201W        W54730  14.782  42.561   1.747
83202W        W54731  15.738  11.357   2.374
83203W        W54732  29.921  43.659   0.254
83204W        W54733  36.700  29.431  12.461
83205W        W54734  12.711  28.553   3.732
83206W        W54735  28.867  16.611  13.219
83207W        W54736  19.812  13.747   1.503
83208W        W54737  23.457  28.375   3.155
83209W        W54738  40.475   1.257  11.201
83210W        W54739  38.115  28.743  13.299
83211W        W54740  36.400  31.176   4.091
83212W        W54741  12.415   8.644  14.961
83213W        W54742  41.497  39.933  13.401
83214W        W54743  18.943  20.203  11.552
83215W        W54744  43.005  44.456   4.518
83216W        W54745  21.974  23.154   0.411
83217W        W54746  24.158  36.696  13.936
83218W        W54747  37.477  30.115  14.090
83219W        W54748   9.879  43.933   3.122
83220W        W54749   8.578   5.722  10.714
83221W        W54750  15.768  22.187  11.098
83222W        W54751  32.915  39.585   3.430
83223W        W54752  14.690  16.710  10.451
83224W        W54753  17.662  12.885   3.828
83225W        W54754  16.886   8.391   0.270
83226W        W54755  19.105  30.557   3.638
83227W        W54756   6.175  13.083   2.799
83228W        W54757  19.985  14.804  10.815
83229W        W54758  31.537  24.236   1.767
83230W        W54759   1.335  17.335  13.892
83231W        W54760  13.254   2.966  14.196
83232W        W54761  40.439  22.973   1.234
83233W        W54762  36.556  20.575  12.557
83234W        W54763  24.043  28.100   4.641
83235W        W54764  34.160  20.990  12.797
83236W        W54765  39.892   3.236   5.205
83237W        W54766  10.083   7.323   2.956
83238W        W54767  10.199  20.282  14.441
83239W        W54768  42.290  17.659  11.997
83240W        W54769   1.797  17.191   0.526
83241W        W54770   3.643  44.254  13.357
83242W        W54771  37.808  30.528  13.985
83243W        W54772  16.874   8.638   4.079
83244W        W54773  30.118  40.443   0.212
83245W        W54774  13.046   9.387   3.286
83246W        W54775  30.582  33.964   2.625
83247W        W54776  27.299  23.467   1.125
83248W        W54777   8.430   0.188   3.253
83249W        W54778  33.570  19.637  14.615
83250W        W54779  15.745  12.358   1.017
83251W        W54780  43.459   9.686  12.550
83252W        W54781   4.747  40.846   1.742
83253W        W54782  12.807  15.237  13.024
83254W        W54783  32.140  42.984   3.625
83255W        W54784  12.722  29.009   0.585
83256W        W54785   8.683  22.527   1.000
83257W        W54786   6.863  41.984  12.395
83258W        W54787  20.524   1.659  13.895
83259W        W54788   9.609   2.402   1.829
83260W        W54789  19.816  31.093   3.913
83261W        W54790  32.915  15.209  10.395
83262W        W54791  23.502  10.744  10.976
83263W        W54792  17.211   2.036  11.222
83264W        W54793  23.287   9.797  12.125
83265W        W54794  27.204  38.014   2.868
83266W        W54795  15.132   5.943  12.854
83267W        W54796  22.633  27.557   0.215
83268W        W54797  31.017  21.817  12.414
83269W        W54798  44.546  28.649   3.341
83270W        W54799   8.276  41.800   0.341
83271W        W54800   1.464  11.791   2.445
83272W        W54801   1.887  19.761  11.141
83273W        W54802  26.759  33.135   0.774
83274W        W54803  24.951  12.364   1.324
83275W        W54804   6.216  43.813   4.643
83276W        W54805  33.821  13.061   0.557
83277W        W54806  28.593  13.076  12.846
83278W        W54807  23.915  12.740  14.864
83279W        W54808  44.500  18.630  12.974
83280W        W54809  33.354  43.999   0.294
83281W        W54810  20.317   5.972  10.361
83282W        W54811  18.839  18.236   4.377
83283W        W54812  11.066  23.574  14.268
83284W        W54813  17.627  28.469   0.292
83285W        W54814  44.105   2.100  10.131
83286W        W54815  31.353   2.267  11.652
83287W        W54816  32.874  42.010   0.350
83288W        W54817  36.933  21.290   4.088
83289W        W54818  15.808   4.961   4.316
83290W        W54819  32.798  27.473  10.600
83291W        W54820   8.453  16.500  12.412
83292W        W54821  22.633  12.026   1.251
83293W        W54822  18.722  15.792  12.097
83294W        W54823  21.511  43.766   0.691
83295W        W54824   9.132   0.243  11.476
83296W        W54825  35.724  16.206   1.704
83297W        W54826  13.779  29.418   4.479
83298W        W54827  30.633  35.163   0.041
83299W        W54828   9.364  22.651  14.934
83300W        W54829  20.170  34.734  10.112
83301W        W54830  43.827   5.928   4.206
83302W        W54831  10.297  23.550  11.112
83303W        W54832  37.526   7.734   1.652
83304W        W54833  40.784   1.878  14.709
83305W        W54834  25.222   7.464  12.013
83306W        W54835  32.133  28.636  14.295
83307W        W54836  17.314  29.595   4.117
83308W        W54837  24.101  37.535   3.697
83309W        W54838  38.298  40.148  12.139
83310W        W54839  21.010  18.102   0.984
83311W        W54840  38.962  29.154  14.963
83312W        W54841   0.377  33.856   1.564
83313W        W54842  21.683  17.310  13.544
83314W        W54843  16.699  18.842   2.180
83315W        W54844  40.808  31.671   0.497
83316W        W54845  12.566  24.583   1.402
83317W        W54846  34.917  10.402   3.174
83318W        W54847  25.649  21.729  13.547
83319W        W54848  37.929   4.038  12.426
83320W        W54849   9.150   2.110   4.369
83321W        W54850  27.056  11.071   3.332
83322W        W54851   7.901   4.498  14.154
83323W        W54852  28.518  29.889   2.818
83324W        W54853  44.297  31.070  14.263
83325W        W54854  32.564  36.481  13.986
83326W        W54855   4.237  20.957   1.891
83327W        W54856  31.180  12.877   2.730
83328W        W54857  14.397  32.515  11.642
83329W        W54858  32.476  38.544  11.456
83330W        W54859  12.309  29.448  12.969
83331W        W54860  36.410  18.581   4.405
83332W        W54861  28.690  35.437  10.838
83333W        W54862  30.089  11.378  14.744
83334W        W54863  34.918  38.329  14.901
83335W        W54864  31.150  14.201   2.438
83336W        W54865  41.513  33.469   0.704
83337W        W54866   8.621  44.223   3.710
83338W        W54867  43.497  19.832   2.892
83339W        W54868  22.832  19.637  14.964
83340W        W54869   3.641   8.902   0.981
83341W        W54870  32.084   2.077   1.296
83342W        W54871  42.622  41.377  12.407
83343W        W54872  20.703  27.625   2.448
83344W        W54873  16.170  39.050   0.497
83345W        W54874  42.594  17.618   0.671
83346W        W54875  42.897  41.622  11.178
83347W        W54876  25.918  35.955  11.932
83348W        W54877  27.520  38.228   3.774
83349W        W54878  15.618   9.892  13.765
83350W        W54879  34.626  31.528  13.466
83351W        W54880   8.875  34.386  14.223
83352W        W54881  23.437  17.864   3.650
83353W        W54882  36.043  38.782  11.961
83354W        W54883  34.795  16.340   2.196
83355W        W54884   9.934  14.691  12.935
83356W        W54885  42.258  16.204  14.044
83357W        W54886   6.654   3.189   2.758
83358W        W54887   3.781  17.805   2.668
83359W        W54888  32.898  33.494   3.727
83360W        W54889  40.315  22.624  12.469
83361W        W54890  37.826   5.732   2.142
83362W        W54891  35.447   9.364  12.165
83363W        W54892  33.679  25.071   4.082
83364W        W54893   7.345   1.455   1.575
83365W        W54894   3.181  15.860   4.129
83366W        W54895   9.002   3.152  12.025
83367W        W54896  43.389   3.682  11.589
83368W        W54897   2.742  16.664   4.518
83369W        W54898  14.185  26.029   4.748
83370W        W54899  13.500  40.889  12.020
83371W        W54900   8.063  15.891   2.363
83372W        W54901  43.314  31.044  12.211
83373W        W54902  36.014  29.042   2.626
83374W        W54903  19.202  19.279  10.274
83375W        W54904   2.982  28.066  12.938
83376W        W54905  13.602  42.249  13.964
83377W        W54906  28.950   5.136  11.265
83378W        W54907  24.119  21.465   4.919
83379W        W54908  20.080  42.018   1.398
83380W        W54909  44.694  33.062  10.799
83381W        W54910  31.112  29.660  12.982
83382W        W54911   7.724  13.098  13.935
83383W        W54912  34.783  10.720   0.433
83384W        W54913   7.623  44.554   2.791
83385W        W54914  36.533  22.268   2.346
83386W        W54915   8.040  15.561  13.956
83387W        W54916  10.148  11.879   4.084
83388W        W54917   5.042  36.755  14.991
83389W        W54918  26.399  40.884   2.643
83390W        W54919  18.258   5.202   1.428
83391W        W54920  20.604   7.177   3.732
83392W        W54921   8.570  41.799  13.420
83393W        W54922  41.082  11.760   2.813
83394W        W54923  40.336  12.943   0.953
83395W        W54924   0.004  18.598  12.841
83396W        W54925  33.056  22.077   3.242
83397W        W54926  44.023  15.778   4.686
83398W        W54927   1.385  35.260   4.496
83399W        W54928  15.367   2.896   4.926
83400W        W54929   1.247  29.597   0.714
83401W        W54930   2.799  35.100  14.146
83402W        W54931  32.934  22.758  13.431
83403W        W54932  25.060  34.032  12.618
83404W        W54933  37.552   4.191   4.188
83405W        W54934  35.950   5.901   4.720
83406W        W54935   3.544  43.117   5.049
83407W        W54936  25.577  10.916  13.467
83408W        W54937  36.388  41.434  12.810
83409W        W54938  19.001  25.099   4.603
83410W        W54939  10.644   2.096  14.952
83411W        W54940  17.022   2.819   2.716
83412W        W54941   7.172   5.868  13.569
83413W        W54942   3.842   2.514   1.247
83414W        W54943  14.215   5.700  14.956
83415W        W54944  30.650  22.132   0.759
83416W        W54945  25.661   2.786  10.700
83417W        W54946  15.753   7.513  13.317
83418W        W54947   9.322  32.154  10.328
83419W        W54948   6.293   0.957   0.759
83420W        W54949  24.255  12.229   4.130
83421W        W54950  30.982   6.280   2.792
83422W        W54951  40.701  10.742   1.380
83423W        W54952  36.301  40.420   0.729
83424W        W54953  25.923  42.071  10.775
83425W        W54954  19.487  11.925   4.467
83426W        W54955   7.652  26.713   2.336
83427W        W54956   8.325  43.071  12.777
83428W        W54957  29.680  36.565   2.391
83429W        W54958  25.672  30.017   2.669
83430W        W54959   7.413  25.189  10.366
83431W        W54960  31.381   8.687  14.297
83432W        W54961  26.656  11.211   3.607
83433W        W54962  30.502  12.375  12.914
83434W        W54963  15.280  38.534  13.096
83435W        W54964  32.467  31.421  12.114
83436W        W54965  27.017  25.561   1.021
83437W        W54966   2.798  35.073  13.131
83438W        W54967  16.649  31.614   0.272
83439W        W54968   1.512  44.012  11.438
83440W        W54969  14.622  41.271   2.358
83441W        W54970  38.377   6.812   3.260
83442W        W54971  30.521  30.431   2.345
83443W        W54972  38.137  18.733  11.217
83444W        W54973  38.783  26.955   2.713
83445W        W54974   6.081   6.452   2.173
83446W        W54975  25.310  23.025  10.674
83447W        W54976   8.978  30.465   3.201
83448W        W54977  39.778  28.902   2.406
83449W        W54978  30.166  44.564   3.694
83450W        W54979  19.050  12.947   2.763
83451W        W54980   0.973   8.731  10.809
83452W        W54981  29.689  34.814  11.015
83453W        W54982   3.514  28.430  13.767
83454W        W54983  34.974  42.724  14.322
83455W        W54984  42.056  23.699   4.306
83456W        W54985  11.336  20.459  13.983
83457W        W54986  36.217  21.136   2.253
83458W        W54987  22.619  14.582  11.418
83459W        W54988  31.497  36.866  13.101
83460W        W54989  39.793   5.772  11.489
83461W        W54990  38.985  11.858   4.710
83462W        W54991  24.430   0.467   3.260
83463W        W54992  34.504  34.034  10.928
83464W        W54993   2.321  17.664   2.773
83465W        W54994  18.176   6.471  11.674
83466W        W54995  42.284  42.042   2.399
83467W        W54996  29.121  28.094  10.757
83468W        W54997  32.103  39.369  11.604
83469W        W54998   9.699  38.046   2.268
83470W        W54999  38.521  15.487  14.239
83471W        W55000   4.491   8.286   4.952
83472W        W55001   4.282  29.633  11.167
83473W        W55002  12.191  22.652   3.735
83474W        W55003  11.723   1.380   3.239
83475W        W55004  21.911  32.119  14.749
83476W        W55005  11.352  32.527   4.885
83477W        W55006  24.553  22.681  10.802
83478W        W55007  23.739  30.461   1.764
83479W        W55008  14.968  13.340  13.436
83480W        W55009  23.148  26.705  12.661
83481W        W55010  32.371  27.314   5.168
83482W        W55011  33.903  27.663   2.355
83483W        W55012   3.902  24.991   5.092
83484W        W55013   2.219  30.017   3.910
83485W        W55014  36.466  19.356   0.405
83486W        W55015  36.821  18.670   1.013
83487W        W55016  30.115  24.073  11.921
83488W        W55017  19.555   9.145   2.173
83489W        W55018  29.926  19.468  14.030
83490W        W55019  19.538  16.034   3.262
83491W        W55020  16.116  12.655  13.572
83492W        W55021   1.510  33.081   0.808
83493W        W55022  28.383   9.251   3.317
83494W        W55023  30.841  42.505   3.623
83495W        W55024  13.334  33.540  10.938
83496W        W55025  32.707  18.366   1.997
83497W        W55026  18.210  21.660   5.529
83498W        W55027  30.401  25.094  13.087
83499W        W55028   9.917  25.731  14.499
83500W        W55029  20.562   9.846   4.100
83501W        W55030  11.634  40.440   2.203
83502W        W55031  40.724  14.975  14.261
83503W        W55032  39.140  22.470   1.732
83504W        W55033  29.011  20.285  10.663
83505W        W55034  13.134  17.146   2.670
83506W        W55035  38.795   1.759  11.274
83507W        W55036  24.936  23.063   4.519
83508W        W55037  26.093  31.492  10.904
83509W        W55038  22.053  18.864   0.819
83510W        W55039   1.399  33.885  14.371
83511W        W55040  28.767   0.238  14.504
83512W        W55041  41.074  16.446  13.328
83513W        W55042  40.789  18.834   1.262
83514W        W55043  26.521  31.936   2.318
83515W        W55044  14.375  28.124   2.300
83516W        W55045  19.499  11.159  12.660
83517W        W55046  35.557  17.837   0.293
83518W        W55047  15.151  40.732  13.468
83519W        W55048  17.192  16.796   2.908
83520W        W55049  33.643  15.615   3.161
83521W        W55050  18.493   0.497   0.384
83522W        W55051  24.818  14.730   3.682
83523W        W55052  38.059  26.527   2.209
83524W        W55053   6.085  27.667   0.646
83525W        W55054  22.842  11.624   0.852
83526W        W55055  37.434  10.388   1.298
83527W        W55056  13.583  43.009  12.470
83528W        W55057  34.292  44.762  11.614
83529W        W55058   9.839   3.705   2.681
83530W        W55059  30.693   6.715  12.319
83531W        W55060   9.355   4.097  11.085
83532W        W55061   4.241  34.453  11.747
83533W        W55062  24.670   5.327   3.373
83534W        W55063  20.957  26.192   2.279
83535W        W55064  25.277  23.717  14.293
83536W        W55065  26.999   4.729   4.818
83537W        W55066  21.174   7.928  14.390
83538W        W55067   3.650  28.695  11.156
83539W        W55068  21.919  30.967   4.527
83540W        W55069  16.097  14.182   5.070
83541W        W55070  43.784  37.006   0.796
83542W        W55071  17.138  20.175  13.474
83543W        W55072  43.001  21.582   0.330
83544W        W55073  25.551   9.182  14.968
83545W        W55074  31.738  29.192  12.560
83546W        W55075  22.203  27.606   2.186
83547W        W55076  15.082  25.039   4.964
83548W        W55077  15.610  14.297   3.656
83549W        W55078  28.437   9.407   2.361
83550W        W55079  34.169   0.108   2.313
83551W        W55080   2.510  26.177   1.179
83552W        W55081  11.102  41.718   3.606
83553W        W55082  10.714  13.613   4.223
83554W        W55083  12.665  27.134   1.382
83555W        W55084  21.543   8.675  12.906
83556W        W55085  41.725  34.013  12.457
83557W        W55086  42.310  42.923  14.014
83558W        W55087  17.072  28.136  12.463
83559W        W55088  39.518  12.242   0.326
83560W        W55089  32.377  30.362   5.033
83561W        W55090  11.399  12.878   3.141
83562W        W55091  10.120  33.076  13.859
83563W        W55092  25.045   1.270  13.492
83564W        W55093  15.064  18.549   3.072
83565W        W55094  19.344  23.645   4.100
83566W        W55095   8.325  23.181  10.539
83567W        W55096   3.660  34.007  14.021
83568W        W55097  41.416   9.173  12.582
83569W        W55098   0.697  33.401  14.885
83570W        W55099  34.201  19.633  14.024
83571W        W55100   9.556  32.722   2.669
83572W        W55101  12.879  12.002  12.037
83573W        W55102  42.276  22.374   2.050
83574W        W55103   3.047  32.061  13.968
83575W        W55104  30.481  13.891   1.853
83576W        W55105  13.110  14.099   0.955
83577W        W55106  38.328  31.680  11.570
83578W        W55107  24.080  11.114   1.325
83579W        W55108  23.537   2.703   3.065
83580W        W55109  11.637   3.846   2.178
83581W        W55110   3.208  28.670  13.008
83582W        W55111   9.619  25.726   0.386
83583W        W55112  32.016  29.583   3.166
83584W        W55113  40.773  37.891   0.884
83585W        W55114  12.959  16.135   0.788
83586W        W55115  40.662   1.774   2.154
83587W        W55116  21.893  40.376  12.260
83588W        W55117  30.980  20.764   4.103
83589W        W55118  36.629  42.412  12.481
83590W        W55119  19.631  11.584  14.437
83591W        W55120  36.179   9.149   2.740
83592W        W55121  39.223  28.197   2.341
83593W        W55122  25.473   8.235   0.465
83594W        W55123   7.816   2.893   2.356
83595W        W55124   8.313  35.655   3.717
83596W        W55125   2.462  27.638  13.778
83597W        W55126   1.831  32.650   3.344
83598W        W55127   0.878   2.523  12.552
83599W        W55128  22.631  40.860   4.033
83600W        W55129   0.810  42.422  10.445
83601W        W55130  33.567  23.042  14.797
83602W        W55131  38.459  13.252   4.727
83603W        W55132  32.510  42.778  14.940
83604W        W55133   1.179  41.177  11.159
83605W        W55134  37.911  22.602   2.352
83606W        W55135  28.554  29.004   0.099
83607W        W55136  20.498  41.827   1.788
83608W        W55137  25.630   5.002   3.508
83609W        W55138   9.185  22.012   3.846
83610W        W55139  11.952   1.261   5.406
83611W        W55140   0.111   9.290  13.743
83612W        W55141  20.234  27.502  13.062
83613W        W55142  41.993   0.817   0.385
83614W        W55143  12.149   6.864   0.840
83615W        W55144  33.267  42.515  13.851
83616W        W55145  15.677  39.310  11.231
83617W        W55146  10.827   4.782   0.748
83618W        W55147  21.041   4.955   3.188
83619W        W55148  12.655  23.292  13.928
83620W        W55149   0.983  21.774   4.947
83621W        W55150  31.951  27.225   2.271
83622W        W55151  43.792   6.211  10.612
83623W        W55152  28.031  38.336   0.393
83624W        W55153  30.292  33.296  13.409
83625W        W55154  33.449  34.438  14.141
83626W        W55155  32.909   9.714   4.019
83627W        W55156  32.225  41.759   0.954
83628W        W55157  24.467  44.976  14.433
83629W        W55158  40.355  13.396   2.454
83630W        W55159  33.058  29.997   4.590
83631W        W55160   3.746   9.022  10.863
83632W        W55161   0.466   5.380  14.354
83633W        W55162  19.673  31.175   2.644
83634W        W55163  29.635  11.479   4.305
83635W        W55164  18.640  23.268   4.315
83636W        W55165   1.317  21.619   1.306
83637W        W55166  20.484  11.653  12.894
83638W        W55167  39.018  10.852   3.704
83639W        W55168   2.997  21.876  10.435
83640W        W55169  36.426  14.247   1.478
83641W        W55170   8.095  32.542   4.741
83642W        W55171   4.937   0.112   3.796
83643W        W55172   7.478   3.776   0.923
83644W        W55173  38.699  36.463  12.141
83645W        W55174  26.742   7.266  13.797
83646W        W55175  32.296  21.635  12.008
83647W        W55176  42.112  22.108   1.441
83648W        W55177  15.461  44.782  11.153
83649W        W55178  14.258   6.904   4.809
83650W        W55179   9.832   8.522   2.864
83651W        W55180  43.689   3.815  12.011
83652W        W55181  44.965   0.862   4.364
83653W        W55182   7.859  24.419   1.267
83654W        W55183  41.774  32.010  11.827
83655W        W55184  43.858   3.505  12.418
83656W        W55185  16.119  24.165  13.433
83657W        W55186   5.715  25.696  13.578
83658W        W55187  24.591  25.142  12.808
83659W        W55188  26.457  23.403  12.473
83660W        W55189  42.853  39.776   0.334
83661W        W55190   5.957  26.459  14.399
83662W        W55191   9.103  34.899  14.351
83663W        W55192  41.392  41.614   1.874
83664W        W55193   7.245   4.492   4.515
83665W        W55194  30.767   7.199  13.865
83666W        W55195  15.404  43.027  13.531
83667W        W55196   7.965  10.782  12.387
83668W        W55197  10.273   6.884   2.742
83669W        W55198  24.291  16.160   0.496
83670W        W55199  21.216  36.648  14.017
83671W        W55200   8.917  40.472  14.532
83672W        W55201  19.248  41.262  10.728
83673W        W55202  35.412  35.336  14.993
83674W        W55203  16.352   9.443  12.526
83675W        W55204  26.601   9.701  10.892
83676W        W55205   1.891  16.377  13.357
83677W        W55206  14.073  38.946   0.229
83678W        W55207   5.447   6.387  11.167
83679W        W55208   5.956  23.784  12.819
83680W        W55209  20.568   6.242  14.558
83681W        W55210  43.529  11.533   3.178
83682W        W55211   0.313  27.584  13.194
83683W        W55212  15.356   4.551  12.033
83684W        W55213   9.391  33.002   4.407
83685W        W55214   4.340  44.558   0.784
83686W        W55215  42.347  31.403   1.934
83687W        W55216  42.392   5.665   2.278
83688W        W55217  39.429  26.873   0.352
83689W        W55218  32.949  22.985  12.859
83690W        W55219  16.596  15.220  13.399
83691W        W55220  29.437  27.998  11.170
83692W        W55221   5.537  20.003   0.820
83693W        W55222  40.308   8.246  14.422
83694W        W55223  44.484  43.851  14.530
83695W        W55224  32.526  27.202  10.248
83696W        W55225  13.474  27.583  14.676
83697W        W55226  40.344  23.284  13.060
83698W        W55227  31.422  11.094  11.709
83699W        W55228  24.595  26.248   0.493
83700W        W55229  17.840   2.255   4.601
83701W        W55230  10.304   4.419   0.616
83702W        W55231  19.136  35.511  14.335
83703W        W55232  44.857   2.759   4.444
83704W        W55233  12.801  38.579  12.458
83705W        W55234  31.966   1.239  12.382
83706W        W55235  29.046  12.384  12.888
83707W        W55236  33.416   2.917   2.263
83708W        W55237   9.220  11.187   2.266
83709W        W55238  28.832   6.342   0.233
83710W        W55239   8.351  33.873  12.475
83711W        W55240  25.297  14.894  12.426
83712W        W55241  29.841  40.320  14.738
83713W        W55242   3.825  12.136  12.041
83714W        W55243  34.883  26.698   2.975
83715W        W55244  42.768  24.698   4.280
83716W        W55245  16.021  36.139  11.783
83717W        W55246   9.773  14.217   5.248
83718W        W55247  25.045  33.136  11.128
83719W        W55248  32.465  13.063   0.338
83720W        W55249  33.816   0.546   3.657
83721W        W55250  30.298  24.745  13.456
83722W        W55251  18.052  42.982  13.891
83723W        W55252  42.324   3.841   2.626
83724W        W55253  12.806  37.788  13.538
83725W        W55254  42.022   0.378  12.748
83726W        W55255   0.226   2.245   0.886
83727W        W55256  36.867  27.707  14.889
83728W        W55257  28.549  30.747   4.345
83729W        W55258  10.326   9.178  11.593
83730W        W55259   4.328  13.803  12.604
83731W        W55260  28.493  12.852   2.646
83732W        W55261  29.860  40.306  13.401
83733W        W55262  35.026  26.576   1.980
83734W        W55263  22.491  11.798  11.038
83735W        W55264  42.067  22.346   0.951
83736W        W55265  40.555  34.316  13.448
83737W        W55266   0.757  16.463   4.108
83738W        W55267  26.598  28.261  13.883
83739W        W55268  20.849  27.063   1.248
83740W        W55269   0.741   3.240   1.494
83741W        W55270  28.051  23.754   4.292
83742W        W55271  27.888  33.465   0.415
83743W        W55272  28.415  10.688   4.052
83744W        W55273  26.013   2.423   2.904
83745W        W55274  21.999  42.450   1.439
83746W        W55275  43.722   3.016   0.875
83747W        W55276   0.007  19.297  14.463
83748W        W55277  40.411   6.224   2.191
83749W        W55278  43.794  27.484   4.536
83750W        W55279  11.667  21.496   3.073
83751W        W55280   9.364  11.250  14.820
83752W        W55281  39.837  38.280   0.270
83753W        W55282  26.403  14.459  10.761
83754W        W55283  10.586  23.111  11.596
83755W        W55284  15.413  23.905  10.547
83756W        W55285  44.597  33.292   0.715
83757W        W55286  24.716  20.574   4.474
83758W        W55287  11.261  43.677   2.190
83759W        W55288  36.496  27.105  11.623
83760W        W55289  20.458  43.300  12.090
83761W        W55290  12.168  17.703  13.106
83762W        W55291  15.984   8.627   3.343
83763W        W55292   8.911  32.161  13.464
83764W        W55293  13.148  26.181   4.861
83765W        W55294  29.649  35.959   1.235
83766W        W55295  41.877  25.062  10.013
83767W        W55296  30.521  35.127   1.791
83768W        W55297  33.100   4.248  14.272
83769W        W55298   6.258  39.911  11.172
83770W        W55299  38.680  24.095   0.740
83771W        W55300   8.150   9.680   1.226
83772W        W55301  13.308   0.281   9.693
83773W        W55302  38.820  40.016   4.156
83774W        W55303  21.454  11.404  12.889
83775W        W55304   9.831  42.921   4.840
83776W        W55305  34.656  21.705   0.769
83777W        W55306  43.425  14.344  10.754
83778W        W55307  16.531  37.089  11.157
83779W        W55308   4.876  25.924  13.984
83780W        W55309  27.372  38.860  13.995
83781W        W55310  27.599  32.210  14.054
83782W        W55311  25.572  12.582  11.145
83783W        W55312   3.736  14.667   2.766
83784W        W55313  17.945  20.155   2.687
83785W        W55314  34.678  40.748   4.712
83786W        W55315   4.465  23.557   1.256
83787W        W55316  25.686   9.847  11.377
83788W        W55317  30.290  29.673   2.694
83789W        W55318  22.187  33.885   1.338
83790W        W55319   0.224  27.571   0.761
83791W        W55320  38.526  14.365  14.880
83792W        W55321  12.173  24.074  11.604
83793W        W55322  24.463  26.711  12.981
83794W        W55323  40.502  25.517  12.463
83795W        W55324  42.969  17.131   4.170
83796W        W55325  22.557  38.738   4.160
83797W        W55326  42.657  15.632   2.321
83798W        W55327   3.727  34.662  12.374
83799W        W55328  11.183   5.562   0.287
83800W        W55329   7.746   4.771   2.073
83801W        W55330  14.636  43.758   0.540
83802W        W55331   5.956  42.292   0.354
83803W        W55332   6.928  38.569  13.416
83804W        W55333  43.061  18.473   0.372
83805W        W55334  15.238  27.641   1.299
83806W        W55335  22.409   8.879   0.459
83807W        W55336  16.138  27.642   1.767
83808W        W55337   4.281  20.459  11.149
83809W        W55338  40.416  27.581  14.294
83810W        W55339  18.123  32.474  10.243
83811W        W55340  33.532   3.995  13.494
83812W        W55341  13.959  11.998  11.137
83813W        W55342  27.866  40.405  12.987
83814W        W55343  12.179  10.609   2.831
83815W        W55344  42.510  40.839   0.892
83816W        W55345  19.295   8.124  14.888
83817W        W55346   8.626   2.581   3.163
83818W        W55347  24.661  16.303  10.863
83819W        W55348  33.598  27.521   1.755
83820W        W55349   2.412  23.465  10.581
83821W        W55350  33.042  29.732   2.151
83822W        W55351  13.778  41.373  14.316
83823W        W55352  33.075   6.335   4.636
83824W        W55353  23.326  44.499   4.590
83825W        W55354  29.650  29.069  12.481
83826W        W55355   3.526   3.216  14.526
83827W        W55356   4.324  12.416   4.879
83828W        W55357  28.455  39.127   4.184
83829W        W55358  38.060  30.506  11.419
83830W        W55359  37.594  17.654   3.784
83831W        W55360  20.405  20.513  12.277
83832W        W55361  31.953  27.473   0.390
83833W        W55362  17.674  37.496  10.748
83834W        W55363  20.089  28.450   1.757
83835W        W55364  30.662   8.822   3.682
83836W        W55365  26.173  41.937   0.942
83837W        W55366  13.113  35.624   4.174
83838W        W55367  20.749  26.215  10.541
83839W        W55368  43.514   6.884  11.773
83840W        W55369   9.850  17.049  12.058
83841W        W55370  41.031  25.997  11.263
83842W        W55371   8.868  20.696  10.855
83843W        W55372   9.608   1.956   4.225
83844W        W55373  26.495  16.031  11.548
83845W        W55374  21.791   3.646   2.409
83846W        W55375  31.186  34.837   3.145
83847W        W55376   5.004   5.612  14.929
83848W        W55377  20.167  24.105   2.131
83849W        W55378  14.004  24.739   0.326
83850W        W55379   2.222  35.399   2.126
83851W        W55380   7.317  26.463   3.176
83852W        W55381  12.980  19.991  13.660
83853W        W55382  23.620   3.712   2.725
83854W        W55383  31.542   4.273   3.608
83855W        W55384   2.233  22.029  10.827
83856W        W55385  16.010  22.962   2.680
83857W        W55386  43.502  34.275  13.511
83858W        W55387  10.272   5.419   4.783
83859W        W55388  39.917  44.305  11.174
83860W        W55389  22.168  41.059   3.896
83861W        W55390  13.113  29.584  12.521
83862W        W55391  32.288  29.976   1.961
83863W        W55392  25.099   3.454   2.783
83864W        W55393  31.492  43.942  14.032
83865W        W55394  10.873  38.225   0.004
83866W        W55395   5.491   5.050   3.812
83867W        W55396  27.599   1.475  12.624
83868W        W55397   4.320   2.506  11.131
83869W        W55398  38.560  28.382   4.116
83870W        W55399  34.809  41.332  12.387
83871W        W55400  37.007  33.127   4.279
83872W        W55401  32.621  38.055   4.720
83873W        W55402  14.910   1.763   0.654
83874W        W55403  37.065  30.697  11.989
83875W        W55404   2.401  22.507   3.658
83876W        W55405  44.290   2.358   3.914
83877W        W55406   7.834  39.205  10.788
83878W        W55407  35.969  27.495  11.192
83879W        W55408  35.088  11.387   0.853
83880W        W55409  32.641   6.631  11.204
83881W        W55410  25.819   6.305   4.913
83882W        W55411   4.316  15.292  13.094
83883W        W55412  34.986  30.902  13.051
83884W        W55413  26.719  41.078   0.709
83885W        W55414  14.698  41.987   0.265
83886W        W55415  38.605  42.330  12.013
83887W        W55416   5.190  29.436   0.772
83888W        W55417  39.508  21.645  13.272
83889W        W55418  41.238  37.348  13.564
83890W        W55419  31.652  36.005  11.986
83891W        W55420  34.529  27.422  11.698
83892W        W55421  12.712  31.451   1.802
83893W        W55422  11.884  38.192   0.789
83894W        W55423   7.313  34.320   2.491
83895W        W55424  25.098  41.788   4.585
83896W        W55425   2.357  29.354  10.652
83897W        W55426  15.362   3.338  10.692
83898W        W55427  31.151  19.995   4.475
83899W        W55428  18.034  10.822   1.449
83900W        W55429  30.795  34.158  13.488
83901W        W55430  39.055  36.610  12.485
83902W        W55431  38.950   9.744  11.155
83903W        W55432  16.462  33.744  11.225
83904W        W55433  39.214   9.748  14.940
83905W        W55434   5.961  35.055   4.413
83906W        W55435  40.086  35.030   1.683
83907W        W55436  12.733  43.566   0.505
83908W        W55437  13.322  26.141  14.538
83909W        W55438  18.624  13.399   0.934
83910W        W55439  12.734  18.152  11.592
83911W        W55440   2.981  12.651   3.635
83912W        W55441  10.212  18.296  14.232
83913W        W55442  43.915  11.114   2.923
83914W        W55443  11.511  10.485  12.416
83915W        W55444  21.813  31.905   3.678
83916W        W55445   5.578  32.616  10.809
83917W        W55446  14.604  41.319   1.288
83918W        W55447  19.389  20.172   5.068
83919W        W55448  18.008  25.214   2.756
83920W        W55449  11.177  28.118  13.087
83921W        W55450  24.174   5.794  13.578
83922W        W55451  26.600   9.521   4.862
83923W        W55452  15.260  17.594   3.730
83924W        W55453  33.795  27.154   2.252
83925W        W55454  27.918   5.533   4.349
83926W        W55455  44.151   1.862   4.556
83927W        W55456  25.314  42.328  13.379
83928W        W55457   4.710   7.477   5.166
83929W        W55458  17.658  43.940  11.593
83930W        W55459   1.423  40.079   2.392
83931W        W55460  27.731  25.768   2.279
83932W        W55461   5.777  22.293   4.895
83933W        W55462  31.639  34.700   1.855
83934W        W55463  19.608  27.562   3.807
83935W        W55464  19.333  33.505   2.498
83936W        W55465   1.285   8.469   2.319
83937W        W55466  35.542  13.447  14.443
83938W        W55467   8.221  22.605  13.353
83939W        W55468  23.594  15.735   0.819
83940W        W55469  42.903  30.134   0.743
83941W        W55470  21.038  14.240   2.127
83942W        W55471   0.540   8.897  12.465
83943W        W55472  23.354  19.620   4.538
83944W        W55473   4.087  26.132  12.917
83945W        W55474   4.564  18.568   3.275
83946W        W55475  42.908  38.385   2.464
83947W        W55476  36.083   1.508   4.541
83948W        W55477  39.272  10.278   0.800
83949W        W55478  19.129  21.029   2.601
83950W        W55479  34.515  21.694  12.905
83951W        W55480  18.986  30.355  10.725
83952W        W55481  39.824  30.903   0.708
83953W        W55482   5.684  33.859  14.825
83954W        W55483  15.524  33.377   0.839
83955W        W55484   2.434  33.145  13.476
83956W        W55485  27.463  17.300   0.045
83957W        W55486  24.780  10.091   0.872
83958W        W55487  26.659  27.645  14.797
83959W        W55488  24.007   2.287   3.623
83960W        W55489  24.008  23.961   1.841
83961W        W55490   0.275  13.871  11.191
83962W        W55491   3.175   0.024   1.795
83963W        W55492   3.566  42.511  10.825
83964W        W55493  12.274  37.177   3.780
83965W        W55494  16.348  42.349  13.958
83966W        W55495  43.925   4.269  14.904
83967W        W55496  15.272  36.489  12.235
83968W        W55497  31.366  33.016  12.844
83969W        W55498   5.037  44.261  12.921
83970W        W55499  35.456  31.698   0.301
83971W        W55500  17.816  32.123  13.654
83972W        W55501  40.776   9.464   1.841
83973W        W55502  14.395  18.079  13.019
83974W        W55503  12.730  14.178   0.575
83975W        W55504  41.056   5.234   3.342
83976W        W55505  17.975  14.912  10.600
83977W        W55506   1.618  43.875   3.972
83978W        W55507  10.899  43.195  10.284
83979W        W55508  39.062  36.726   3.636
83980W        W55509  38.913   5.422  10.624
83981W        W55510  18.092   2.739   4.464
83982W        W55511  31.951  27.024  14.924
83983W        W55512  35.761  12.992   1.365
83984W        W55513  32.521   6.728   3.886
83985W        W55514  44.132  23.281  12.181
83986W        W55515  21.582   6.446  13.680
83987W        W55516  31.715  10.796   3.661
83988W        W55517   9.153  13.032   0.506
83989W        W55518   2.290  24.616  14.258
83990W        W55519   2.669   8.274   3.895
83991W        W55520   5.200  37.974  11.642
83992W        W55521  31.990  13.811   0.428
83993W        W55522   0.812   2.520   3.116
83994W        W55523  37.528  39.872   0.668
83995W        W55524  27.015  23.358  13.029
83996W        W55525  30.106   2.361   2.105
83997W        W55526  37.310  18.535  12.660
83998W        W55527  44.350  19.567   4.374
83999W        W55528   5.893  38.583  11.330
84000W        W55529   1.504   8.641   4.310
84001W        W55530   0.421  20.760  13.523
84002W        W55531  14.941  27.487   3.290
84003W        W55532  37.921  33.390   2.878
84004W        W55533   4.862  22.093  11.472
84005W        W55534  29.609  18.804  12.909
84006W        W55535  30.370  16.256   0.362
84007W        W55536  44.221  21.518   4.562
84008W        W55537   2.797  12.581  14.337
84009W        W55538   3.849   2.851   2.604
84010W        W55539  20.626  43.721  12.981
84011W        W55540   7.167  22.017   0.943
84012W        W55541  26.560  15.101  14.042
84013W        W55542  21.890  42.737   5.026
84014W        W55543   9.724   7.152   1.430
84015W        W55544  14.278   5.537  13.632
84016W        W55545  35.846  20.339  13.605
84017W        W55546  35.610  44.838  14.678
84018W        W55547  25.273  30.526  14.607
84019W        W55548  15.131  39.861   3.869
84020W        W55549   7.862  25.204   0.880
84021W        W55550  34.861  31.559   2.669
84022W        W55551   1.767  18.573   3.771
84023W        W55552  33.913  15.622  12.170
84024W        W55553   2.799  24.605  12.075
84025W        W55554  28.003   0.259  13.787
84026W        W55555  41.646   6.105   1.805
84027W        W55556  30.884  21.126   2.180
84028W        W55557  25.966  37.883  14.983
84029W        W55558  15.887   2.930  12.515
84030W        W55559  13.312   8.782  10.809
84031W        W55560  28.524  44.594  15.000
84032W        W55561  20.306  25.993   3.212
84033W        W55562   1.981  44.338   3.322
84034W        W55563   6.952  25.968  14.874
84035W        W55564  35.544  22.105   3.655
84036W        W55565  13.813  25.457   2.970
84037W        W55566  44.850   3.051  13.443
84038W        W55567  28.244  31.914   1.691
84039W        W55568  23.669  26.682   3.821
84040W        W55569  35.777   6.782  10.434
84041W        W55570  18.062  42.392   0.349
84042W        W55571  38.751  39.550   5.009
84043W        W55572  34.950  19.046   1.808
84044W        W55573  18.668  30.911   1.719
84045W        W55574  44.073  43.430   1.899
84046W        W55575  17.753  10.977  12.908
84047W        W55576  40.255  37.377  12.131
84048W        W55577  27.513  32.075  11.868
84049W        W55578  24.441   3.861  12.491
84050W        W55579  13.780  34.656  12.099
84051W        W55580  24.093  44.099   1.803
84052W        W55581  13.114   3.033   4.923
84053W        W55582   3.913  13.076   0.768
84054W        W55583  19.981  10.878  12.885
84055W        W55584   0.873  23.968  13.638
84056W        W55585   9.358   7.939   1.944
84057W        W55586  13.497  21.214  13.909
84058W        W55587   3.821   4.473  10.534
84059W        W55588   9.284  42.348  14.196
84060W        W55589  20.600  28.631  12.021
84061W        W55590  20.715  20.923  14.011
84062W        W55591  16.619  33.922  12.488
84063W        W55592  42.000  12.545  10.715
84064W        W55593  24.917  18.492   1.487
84065W        W55594  24.502   4.395  12.407
84066W        W55595   2.960  12.749   1.885
84067W        W55596  40.542  43.838   3.311
84068W        W55597  41.858   7.170   0.991
84069W        W55598  19.719  15.873  11.991
84070W        W55599   3.845  39.087   0.155
84071W        W55600  20.882  13.142  14.050
84072W        W55601  21.332   8.215  13.065
84073W        W55602  24.701  10.571  14.791
84074W        W55603  13.912  37.265  14.588
84075W        W55604  35.128  22.652  12.525
84076W        W55605  14.858  26.328  13.865
84077W        W55606  22.754  32.104  10.904
84078W        W55607  20.939  42.727  13.982
84079W        W55608   8.470  33.651   1.365
84080W        W55609  28.698  41.326  13.340
84081W        W55610  34.343   3.840   1.893
84082W        W55611   8.379   5.757   0.199
84083W        W55612  31.422  18.851   1.799
84084W        W55613  13.550  32.049  12.830
84085W        W55614  43.087  44.287  11.184
84086W        W55615  20.254  25.104  12.502
84087W        W55616  34.392   5.701  11.541
84088W        W55617  39.085  24.425  12.501
84089W        W55618  12.299  22.216   2.774
84090W        W55619  16.630  19.781  11.461
84091W        W55620  22.622   8.678   1.477
84092W        W55621   0.691  27.240   1.417
84093W        W55622   9.728   8.796   0.529
84094W        W55623  17.347  31.489   1.281
84095W        W55624  38.331  19.300  12.019
84096W        W55625   7.700  24.554  14.457
84097W        W55626  17.615  36.184   3.215
84098W        W55627  28.768   7.668  10.625
84099W        W55628  29.246  31.955   4.447
84100W        W55629  41.855  28.869  10.711
84101W        W55630  18.329  24.244  12.604
84102W        W55631  28.495  35.970   2.694
84103W        W55632  13.777  44.985  14.279
84104W        W55633  44.297   6.638   4.474
84105W        W55634   7.456  32.448  14.501
84106W        W55635  36.217  21.297  14.276
84107W        W55636   2.863  36.561  11.463
84108W        W55637  37.256  29.470   1.319
84109W        W55638  18.690   0.947  12.873
84110W        W55639  26.308  33.657   5.058
84111W        W55640  43.687   0.779  10.613
84112W        W55641   6.661  33.094  10.553
84113W        W55642  33.325  14.637  13.464
84114W        W55643  38.353   1.429   3.082
84115W        W55644  38.615  26.456  11.130
84116W        W55645  37.356  39.851  12.878
84117W        W55646  39.359   7.896  13.793
84118W        W55647  16.956  44.663   4.876
84119W        W55648  35.053  16.755  13.076
84120W        W55649  30.000   3.755   2.905
84121W        W55650  34.051  12.452  13.471
84122W        W55651  34.665  21.654   1.298
84123W        W55652  29.495  39.556  13.994
84124W        W55653  36.817  15.534   3.706
84125W        W55654  28.488  44.624  12.684
84126W        W55655  24.443  25.208   2.732
84127W        W55656  43.079  25.489  12.656
84128W        W55657   7.376  14.724   0.039
84129W        W55658  23.106  16.526   4.190
84130W        W55659  41.659   6.785  11.569
84131W        W55660  25.668  43.557   2.787
84132W        W55661   5.766  22.157  10.966
84133W        W55662   6.426  28.920  12.214
84134W        W55663  40.397  28.357   2.067
84135W        W55664   3.416   0.131   0.378
84136W        W55665   8.899  29.636  14.374
84137W        W55666  40.585  13.835  12.405
84138W        W55667  44.681   7.115  11.016
84139W        W55668  16.348  38.589   0.326
84140W        W55669  43.412   0.363  10.823
84141W        W55670   5.457  29.667  12.324
84142W        W55671  22.457  12.787  14.728
84143W        W55672   8.184  19.228  11.654
84144W        W55673  12.145   5.102   2.800
84145W        W55674  20.303  10.916  13.314
84146W        W55675  21.168  18.744   2.853
84147W        W55676   5.633  12.296  12.570
84148W        W55677   5.749  16.675   0.444
84149W        W55678  20.263  19.003  12.471
84150W        W55679  16.842  22.720  11.573
84151W        W55680  31.001   9.401   0.687
84152W        W55681  32.530   4.162   4.568
84153W        W55682  33.945  26.402   2.886
84154W        W55683  11.938   3.751   0.368
84155W        W55684  20.568  43.712   1.011
84156W        W55685  37.096  25.407   1.659
84157W        W55686  24.440  27.117   3.690
84158W        W55687  37.939  36.750   1.997
84159W        W55688  15.267   5.908  13.917
84160W        W55689  38.817  20.148  13.918
84161W        W55690  30.046   8.124   2.105
84162W        W55691  29.032  30.408  14.376
84163W        W55692  42.397   6.775   0.774
84164W        W55693   7.087  11.319   0.439
84165W        W55694  25.981   3.889  11.059
84166W        W55695  24.434   1.716  13.098
84167W        W55696  18.106  28.677   4.021
84168W        W55697  30.459  30.932  11.939
84169W        W55698  20.769  32.827  14.612
84170W        W55699  42.999  35.961   1.756
84171W        W55700  33.342  44.896  11.543
84172W        W55701  24.765   3.352   4.099
84173W        W55702  10.306   1.877   2.471
84174W        W55703  33.439  31.788   0.279
84175W        W55704  16.826  10.589  10.412
84176W        W55705   1.788  39.980   4.343
84177W        W55706  42.078  25.959   0.777
84178W        W55707  39.063  24.809   1.955
84179W        W55708  13.067  28.652   0.450
84180W        W55709  15.180  14.101   4.388
84181W        W55710  14.665   7.254   4.747
84182W        W55711  10.727  37.973   2.302
84183W        W55712  19.326  33.953   2.739
84184W        W55713  24.988  23.630   1.898
84185W        W55714   7.524  31.713  14.545
84186W        W55715   4.527  13.756   1.461
84187W        W55716  15.301  11.573  11.101
84188W        W55717   2.521   8.808   4.334
84189W        W55718  12.607  24.065   0.861
84190W        W55719  26.220   8.426   0.763
84191W        W55720  11.139  27.673   0.868
84192W        W55721   4.921  39.062  13.968
84193W        W55722   8.282  22.145  11.621
84194W        W55723  35.985  27.669   1.435
84195W        W55724   1.672  19.510   3.690
84196W        W55725  44.336  36.298   1.870
84197W        W55726   2.169   1.668  12.116
84198W        W55727  32.645   8.476  13.104
84199W        W55728  13.078  43.953  13.388
84200W        W55729   6.712  42.965   1.511
84201W        W55730  29.462  20.199  12.486
84202W        W55731   7.689   1.345  13.604
84203W        W55732  34.840  16.062   0.430
84204W        W55733   7.791  10.977   2.371
84205W        W55734  26.160  36.969  13.941
84206W        W55735  34.930  11.217   4.153
84207W        W55736  26.572  38.839   4.585
84208W        W55737   2.163  42.379   1.014
84209W        W55738  42.448  12.136   3.342
84210W        W55739  28.541  30.755   2.410
84211W        W55740  31.886   5.364   1.264
84212W        W55741  21.254  30.202  13.411
84213W        W55742   9.336  29.552   2.214
84214W        W55743   4.395  36.637   2.957
84215W        W55744  11.100  14.572  14.458
84216W        W55745   5.271  29.392  10.756
84217W        W55746  28.238  10.936   2.803
84218W        W55747  15.149  26.193  11.119
84219W        W55748  42.294  27.192   1.203
84220W        W55749  15.921  37.964  13.622
84221W        W55750  38.326  33.397   0.450
84222W        W55751  38.481  44.194  10.553
84223W        W55752   9.737  22.150   1.616
84224W        W55753  11.575   9.208   1.438
84225W        W55754  36.217   3.712   2.926
84226W        W55755  32.527  31.100   1.276
84227W        W55756  44.969  44.030  10.993
84228W        W55757  11.797   1.664   1.931
84229W        W55758  17.678   8.685  14.930
84230W        W55759   3.691  44.950  14.951
84231W        W55760  18.056  26.390   1.929
84232W        W55761  23.773  29.059   1.932
84233W        W55762  13.273   6.385   0.473
84234W        W55763  22.357  35.910  10.685
84235W        W55764  11.865   6.408  11.091
84236W        W55765  38.111   4.837   4.645
84237W        W55766   8.178  28.221  14.315
84238W        W55767  36.448  39.900  10.625
84239W        W55768   7.767  24.667  14.983
84240W        W55769  23.341  33.469   0.729
84241W        W55770  42.240  11.566  13.796
84242W        W55771  13.652  26.670   1.007
84243W        W55772   4.958  24.897  11.860
84244W        W55773  15.682  15.055  14.130
84245W        W55774  21.314  42.810  13.645
84246W        W55775   3.216  17.185   1.234
84247W        W55776  28.903  39.596  13.204
84248W        W55777  18.813  32.667   3.221
84249W        W55778  41.289  18.712  11.530
84250W        W55779  15.191  22.219   4.588
84251W        W55780  44.955  26.650   2.762
84252W        W55781  17.103  13.675  14.983
84253W        W55782   5.871  10.752  11.705
84254W        W55783  40.338  26.192   2.135
84255W        W55784  37.492  34.938  11.677
84256W        W55785  26.888  16.196  14.046
84257W        W55786   7.436  22.244  10.680
84258W        W55787  13.842  37.546   4.750
84259W        W55788  20.146  13.308  14.494
84260W        W55789  41.293  44.535   1.701
84261W        W55790  32.967  43.427   1.991
84262W        W55791  43.281  31.063   4.481
84263W        W55792  34.818  38.355  13.797
84264W        W55793  13.640  42.435   1.269
84265W        W55794  39.742  36.500  11.923
84266W        W55795  44.777  25.730   2.707
84267W        W55796  28.488  17.045  14.064
84268W        W55797   8.205  27.956   4.497
84269W        W55798  30.156  19.071   1.786
84270W        W55799  34.467  15.897  11.022
84271W        W55800  14.346   9.395   1.805
84272W        W55801   1.943  13.174  11.369
84273W        W55802  27.933  38.935  10.268
84274W        W55803  43.063  15.585  12.128
84275W        W55804  36.851  25.962  12.892
84276W        W55805  35.546  33.014   2.849
84277W        W55806   8.431  18.414  11.412
84278W        W55807   7.882   5.774   2.165
84279W        W55808   7.134  15.626   0.837
84280W        W55809   1.973  16.790  11.630
84281W        W55810  29.963   8.564   0.430
84282W        W55811  20.210   0.983  10.517
84283W        W55812  18.703  11.849   0.962
84284W        W55813  37.061  17.646   0.014
84285W        W55814  33.609  11.367   4.438
84286W        W55815  33.868  23.516   4.831
84287W        W55816  27.555  15.340  10.651
84288W        W55817  25.161  27.243  13.453
84289W        W55818  36.041  23.501  14.398
84290W        W55819  11.774  43.074   2.877
84291W        W55820   0.107  21.506  12.383
84292W        W55821  21.843  12.819   1.691
84293W        W55822  17.561  22.134   2.478
84294W        W55823  32.401  20.987   4.758
84295W        W55824  34.879  37.286   2.982
84296W        W55825  31.911  13.355  10.732
84297W        W55826  13.644  28.998   4.798
84298W        W55827  33.016  22.305   1.335
84299W        W55828  19.027  14.808   2.783
84300W        W55829   7.802   3.938   2.333
84301W        W55830  20.778  27.065   4.086
84302W        W55831  43.278  43.310  11.409
84303W        W55832   0.838  41.332  14.223
84304W        W55833  25.440  17.756  14.372
84305W        W55834  24.465  31.906  12.847
84306W        W55835  39.048  43.404   1.769
84307W        W55836  27.689  39.356   1.319
84308W        W55837   8.943  33.671  10.999
84309W        W55838  21.683   8.413  13.405
84310W        W55839  44.005   7.140  14.543
84311W        W55840  27.429   2.024   1.914
84312W        W55841  34.839   1.508  14.845
84313W        W55842  25.705   1.026   0.515
84314W        W55843   2.759  20.693  12.540
84315W        W55844  10.802   4.712  14.363
84316W        W55845  13.313  16.506  13.692
84317W        W55846  18.941  22.388   0.564
84318W        W55847  20.958  11.930  13.626
84319W        W55848  42.417  40.106  10.872
84320W        W55849  35.310  40.054  11.947
84321W        W55850  26.626   8.958   4.603
84322W        W55851  25.756  28.982  12.640
84323W        W55852  38.934  41.910  13.650
84324W        W55853  14.278  44.530   3.765
84325W        W55854   2.929  37.393  12.027
84326W        W55855  15.623   7.204  12.936
84327W        W55856   2.245   4.255  12.136
84328W        W55857  22.526  27.726   0.742
84329W        W55858  42.625  25.607   5.058
84330W        W55859   6.346   9.781  10.336
84331W        W55860  42.604  18.808  14.766
84332W        W55861  40.369  22.293   2.301
84333W        W55862  24.763   5.262   1.776
84334W        W55863  44.158  38.059  11.286
84335W        W55864  41.362  41.537   4.405
84336W        W55865  37.892   3.846   2.811
84337W        W55866  25.639  39.666   4.072
84338W        W55867  14.901   5.360  11.622
84339W        W55868   5.864   0.716   0.590
84340W        W55869  33.954  25.093  13.969
84341W        W55870  18.239  44.969  11.870
84342W        W55871  23.019   9.931  11.565
84343W        W55872  27.859  36.495   3.768
84344W        W55873   1.463  15.640   0.778
84345W        W55874  43.954   7.255   2.867
84346W        W55875   9.281  14.798   0.671
84347W        W55876   3.361  31.392  10.689
84348W        W55877  16.530  19.211  12.003
84349W        W55878  22.509  18.586  13.094
84350W        W55879  13.871  22.622  12.984
84351W        W55880   5.601   6.458   2.404
84352W        W55881  44.542  10.424   3.138
84353W        W55882  10.874   2.209  12.981
84354W        W55883  43.815  20.568  10.662
84355W        W55884  43.982  42.385  13.598
84356W        W55885  31.552  42.158   3.370
84357W        W55886  33.694  27.569  12.879
84358W        W55887   9.293  33.128   4.926
84359W        W55888  16.229   6.329  14.421
84360W        W55889   2.289  15.324   2.789
84361W        W55890  39.892  12.760   1.810
84362W        W55891  36.845   5.721  12.035
84363W        W55892  44.278  35.467  14.566
84364W        W55893  14.778   6.137   1.148
84365W        W55894  33.555  12.377   3.747
84366W        W55895  12.756  31.612  14.283
84367W        W55896  35.333  32.003  12.463
84368W        W55897  36.973   9.658   0.083
84369W        W55898  14.589   3.048   0.836
84370W        W55899   3.031  41.545   2.591
84371W        W55900  23.716  15.148   0.776
84372W        W55901  37.808  36.915   4.531
84373W        W55902  36.344  39.814   3.182
84374W        W55903  13.900  14.383   2.361
84375W        W55904  39.332   2.815  13.287
84376W        W55905   1.882  32.112   1.729
84377W        W55906  22.585  28.476  11.383
84378W        W55907  29.672   4.615  12.180
84379W        W55908  16.280  22.198   4.494
84380W        W55909  27.079  37.922  12.519
84381W        W55910  38.848  19.848   1.323
84382W        W55911   5.198   7.637   1.295
84383W        W55912  30.509  27.158  10.501
84384W        W55913   2.702  19.852   1.000
84385W        W55914  21.430   7.966  13.555
84386W        W55915  32.433   7.263  12.110
84387W        W55916  30.586  36.606  14.261
84388W        W55917   4.009  16.593  11.103
84389W        W55918  31.769  10.808  14.330
84390W        W55919  44.916   6.163  12.466
84391W        W55920  21.757   0.569  10.183
84392W        W55921  20.774  31.021   3.643
84393W        W55922  11.216  27.727   1.752
84394W        W55923  32.637  18.039  12.638
84395W        W55924  11.667  11.983   4.968
84396W        W55925  14.456   7.876  14.394
84397W        W55926  38.285  27.890  11.183
84398W        W55927  31.433  11.651   4.407
84399W        W55928  31.595   2.365   0.051
84400W        W55929  10.174   6.456  11.110
84401W        W55930  24.428  11.668  10.546
84402W        W55931  12.469  26.794  11.103
84403W        W55932  40.245  39.566   2.396
84404W        W55933  28.632  34.331  13.540
84405W        W55934  31.485  44.368  14.956
84406W        W55935  35.345   6.694   4.263
84407W        W55936   5.154  22.802   1.928
84408W        W55937  35.946   8.667   0.828
84409W        W55938  44.007  28.557   0.237
84410W        W55939  43.379  12.157   1.474
84411W        W55940  41.192  22.042  13.008
84412W        W55941  12.029  26.224   3.239
84413W        W55942   5.189  42.488   4.816
84414W        W55943  25.663  11.749   0.633
84415W        W55944  37.777  24.098   0.335
84416W        W55945  25.186  42.419   1.209
84417W        W55946  38.441   1.490  14.338
84418W        W55947  15.319  15.502   4.635
84419W        W55948  32.929  43.070   2.967
84420W        W55949  33.398  18.577   0.354
84421W        W55950  25.957  24.698  13.540
84422W        W55951  30.324  31.277   0.894
84423W        W55952  34.387  28.594   2.189
84424W        W55953   2.704   9.917  11.182
84425W        W55954  37.118   4.925  14.954
84426W        W55955  10.297  35.468   3.640
84427W        W55956  27.730   3.387  12.837
84428W        W55957   9.279   7.200  12.814
84429W        W55958  33.564   1.572   5.414
84430W        W55959  10.812   8.301   3.512
84431W        W55960  16.744  24.846  10.634
84432W        W55961  21.967  29.015  11.680
84433W        W55962  24.099  40.970  13.613
84434W        W55963  29.437  35.073   4.711
84435W        W55964  24.782  35.687  14.392
84436W        W55965  29.383   2.611   4.053
84437W        W55966   8.855  36.480   1.397
84438W        W55967   9.613  16.864  10.809
84439W        W55968  25.539  32.306   3.688
84440W        W55969  21.665  30.713  14.877
84441W        W55970   0.228  25.996  11.527
84442W        W55971   1.978  22.495  13.316
84443W        W55972  32.944  17.063   0.248
84444W        W55973   1.782  14.390  13.371
84445W        W55974   1.572  18.760  13.586
84446W        W55975  40.026  28.446   4.325
84447W        W55976  20.673   8.200   3.621
84448W        W55977  23.463  17.317   0.932
84449W        W55978  35.886  28.185   1.737
84450W        W55979  35.028  17.465  11.185
84451W        W55980  38.444   2.847  10.703
84452W        W55981   2.815  14.678  13.291
84453W        W55982  12.909  15.038   0.858
84454W        W55983   2.993  10.196  10.702
84455W        W55984  31.640  41.324   4.700
84456W        W55985  17.020  37.855  11.472
84457W        W55986  22.650  25.992  13.631
84458W        W55987  27.824  22.572  10.914
84459W        W55988  39.892  23.563  14.986
84460W        W55989  29.616  24.658   2.252
84461W        W55990   3.129  21.005   3.245
84462W        W55991  10.187   3.046  10.659
84463W        W55992  38.836  29.562   3.701
84464W        W55993   5.624  23.426   4.823
84465W        W55994  43.211   5.238  10.546
84466W        W55995   9.387   1.961   2.009
84467W        W55996  18.820   6.881   2.810
84468W        W55997  17.206  22.784   3.182
84469W        W55998  42.594  10.810   4.878
84470W        W55999  17.264  33.358   2.333
84471W        W56000  26.740   3.463  12.944
84472W        W56001   8.517  34.445  10.613
84473W        W56002  34.021   4.424   4.721
84474W        W56003  42.851  11.213   4.674
84475W        W56004  36.464  35.795   0.938
84476W        W56005  27.723  14.962   5.509
84477W        W56006   5.941  19.702   2.918
84478W        W56007   6.174  33.903   3.468
84479W        W56008  44.392  19.245  11.484
84480W        W56009  10.821   8.835  13.360
84481W        W56010  29.628   3.404   1.939
84482W        W56011  28.577  30.014  12.516
84483W        W56012  30.465  28.386  12.849
84484W        W56013  16.319  14.221  12.466
84485W        W56014  19.627   0.244   4.357
84486W        W56015  22.600  38.280  10.653
84487W        W56016   1.067  41.890   0.192
84488W        W56017  37.908  25.464   0.327
84489W        W56018  44.839  43.514   4.132
84490W        W56019  34.930  26.629   0.378
84491W        W56020  37.054  41.406  11.650
84492W        W56021  35.123   2.300   3.236
84493W        W56022  18.369  14.857  11.956
84494W        W56023  25.694  26.228  13.896
84495W        W56024  28.341  36.361   3.678
84496W        W56025  22.936  10.721   0.730
84497W        W56026  31.990  14.083  11.238
84498W        W56027   8.529  33.499   0.452
84499W        W56028  27.927  42.025   3.408
84500W        W56029  44.252  44.498   4.064
84501W        W56030  17.686   5.634  13.584
84502W        W56031  22.198  39.093  12.463
84503W        W56032  11.168   2.777  12.414
84504W        W56033  35.134  23.184   4.208
84505W        W56034  17.795  36.999  10.639
84506W        W56035  10.563  17.252   2.560
84507W        W56036   4.519   7.790   4.775
84508W        W56037  36.942   5.460   4.564
84509W        W56038  15.222  29.613  11.365
84510W        W56039  18.302   2.233  14.071
84511W        W56040  42.902   3.355  13.924
84512W        W56041  42.081  34.841   0.727
84513W        W56042  34.332   7.451   1.442
84514W        W56043  16.868  31.094   3.713
84515W        W56044  25.929  27.760   4.034
84516W        W56045  22.753  19.676  12.108
84517W        W56046  43.937  11.746   4.070
84518W        W56047  12.167   2.813   3.143
84519W        W56048  42.368   7.352   1.045
84520W        W56049   7.763  16.073  13.062
84521W        W56050   2.574  29.151   3.642
84522W        W56051  37.270  17.502  12.578
84523W        W56052  10.450  11.681  14.391
84524W        W56053  28.600  19.388   2.574
84525W        W56054   8.445  40.955  12.769
84526W        W56055   9.594  12.592  13.741
84527W        W56056  34.634   7.924   0.863
84528W        W56057  21.166  11.288   4.584
84529W        W56058   0.473  24.064   2.582
84530W        W56059  44.284  12.055  11.627
84531W        W56060  15.162   5.757   0.016
84532W        W56061  13.434  18.909  12.550
84533W        W56062  34.535   3.213   4.195
84534W        W56063  29.140  39.455   3.389
84535W        W56064  39.910  11.842  13.160
84536W        W56065   8.813   3.491  11.693
84537W        W56066  34.349  44.188   3.289
84538W        W56067  29.599  26.957  12.602
84539W        W56068  38.548  16.247  14.786
84540W        W56069   5.782  27.053  12.910
84541W        W56070  24.193   0.065   1.955
84542W        W56071  19.978  25.469   1.826
84543W        W56072  24.056   8.087  11.119
84544W        W56073  16.872   5.310   4.190
84545W        W56074  40.470  35.617   0.879
84546W        W56075  18.552  20.473  10.682
84547W        W56076   9.890  43.668   1.814
84548W        W56077  24.484   3.717   4.355
84549W        W56078   3.759  11.368   2.853
84550W        W56079  17.702   2.892  14.477
84551W        W56080   0.030  35.938   0.231
84552W        W56081  23.652   5.103   1.765
84553W        W56082  36.155   0.909   1.789
84554W        W56083  35.158  39.058   3.396
84555W        W56084  36.288   6.246   4.540
84556W        W56085   4.783  38.215  13.509
84557W        W56086  42.074   0.471   1.244
84558W        W56087  11.741  18.224  10.258
84559W        W56088  20.751   5.076   4.438
84560W        W56089   9.290   6.405  13.768
84561W        W56090  42.968  35.356  13.056
84562W        W56091   4.640  30.004   0.731
84563W        W56092  44.713  10.770  12.367
84564W        W56093  38.894  14.817   2.227
84565W        W56094  15.580  27.598   0.863
84566W        W56095  44.350  20.179  11.701
84567W        W56096  21.164  17.310   0.348
84568W        W56097  17.139   8.117  10.743
84569W        W56098  16.745  41.889   4.625
84570W        W56099  28.207  14.529  12.037
84571W        W56100  30.392  20.959  12.124
84572W        W56101  16.183   2.863   4.937
84573W        W56102  31.120  22.905  11.609
84574W        W56103   7.549   8.616  12.958
84575W        W56104  34.068  22.058  12.922
84576W        W56105  27.573   5.151   4.343
84577W        W56106  38.003  21.607   0.910
84578W        W56107   7.842  25.337  13.895
84579W        W56108  15.382  43.280  12.340
84580W        W56109  15.617  21.726  13.290
84581W        W56110  23.629   7.693   2.079
84582W        W56111  15.262   3.467   2.836
84583W        W56112  16.647  21.953   5.141
84584W        W56113  37.377   7.875  11.280
84585W        W56114  28.126  10.194  12.767
84586W        W56115   5.411   7.222   0.408
84587W        W56116  14.250  39.098   1.197
84588W        W56117  26.161  13.557   4.540
84589W        W56118  44.748  38.401   3.321
84590W        W56119  39.343  42.583   2.817
84591W        W56120  32.130  40.924  13.502
84592W        W56121  14.423  42.612   0.503
84593W        W56122  39.983  25.272  12.026
84594W        W56123  24.280  30.165   1.346
84595W        W56124  39.459  20.790   9.831
84596W        W56125  34.495  32.926   2.810
84597W        W56126  29.546   2.415  11.906
84598W        W56127  14.850  17.803   1.900
84599W        W56128  30.666  15.913  13.821
84600W        W56129  42.460   5.843   1.348
84601W        W56130  23.414  17.214   2.705
84602W        W56131  35.435  17.675  14.346
84603W        W56132  25.132   7.148  13.613
84604W        W56133  35.296  18.673   3.190
84605W        W56134  34.755  33.404  10.218
84606W        W56135   6.795  39.551   4.321
84607W        W56136  35.480  23.437  12.024
84608W        W56137  41.793  37.387  10.913
84609W        W56138  26.448   9.399   5.358
84610W        W56139  23.011   3.554   2.335
84611W        W56140  19.185  27.697   1.663
84612W        W56141  42.550  28.084   1.862
84613W        W56142  13.783  43.360  10.744
84614W        W56143   4.671  11.799   2.654
84615W        W56144  38.821  10.458  14.967
84616W        W56145  43.336  38.104   1.511
84617W        W56146  35.578  11.231   4.393
84618W        W56147  33.892   7.179   1.383
84619W        W56148  29.416  23.228  13.893
84620W        W56149  13.333  43.496  13.378
84621W        W56150  30.466  38.263  14.001
84622W        W56151  40.437   9.232  14.426
84623W        W56152  22.641  20.619   3.352
84624W        W56153  16.713  36.284   2.250
84625W        W56154  20.305  35.926   0.983
84626W        W56155  33.217  41.396  14.378
84627W        W56156  26.484  30.890   3.313
84628W        W56157  14.760  24.278  12.057
84629W        W56158  28.425  24.689   4.951
84630W        W56159  40.233  25.714  12.047
84631W        W56160  31.523  27.632  12.132
84632W        W56161  29.471  21.541  13.051
84633W        W56162  42.488  16.793  14.471
84634W        W56163  11.349  33.499   3.811
84635W        W56164  36.379  41.507   4.159
84636W        W56165  33.792   0.466   3.102
84637W        W56166   2.050  21.637  13.280
84638W        W56167  15.667  20.116   3.806
84639W        W56168   9.885  39.782  13.702
84640W        W56169  40.721  25.371   0.388
84641W        W56170  11.204  18.517  13.952
84642W        W56171  17.865  12.736  14.293
84643W        W56172  21.454  13.724   1.024
84644W        W56173   5.391  27.903   0.032
84645W        W56174  35.642  38.197  11.564
84646W        W56175   0.185  44.350   1.928
84647W        W56176  24.462  26.189  10.751
84648W        W56177  24.067  41.948   2.971
84649W        W56178  42.821  39.746  13.503
84650W        W56179  28.604  29.314  13.254
84651W        W56180  22.625  44.416   3.121
84652W        W56181  13.184  31.405  13.610
84653W        W56182  39.034  33.580  14.303
84654W        W56183  41.488   1.732   0.429
84655W        W56184  19.262  40.769  12.277
84656W        W56185  36.154   0.866   0.511
84657W        W56186   6.445  28.665   2.899
84658W        W56187  39.486  44.030   1.866
84659W        W56188   3.765  22.071  11.546
84660W        W56189  11.896  28.860   4.746
84661W        W56190  17.560   4.723  12.531
84662W        W56191   0.861  11.306   2.031
84663W        W56192  17.839  43.924   3.254
84664W        W56193   2.339   3.332  11.582
84665W        W56194  35.194  35.547  12.690
84666W        W56195  40.943  29.489  11.665
84667W        W56196   9.678  17.324   2.766
84668W        W56197   1.462   3.311   3.286
84669W        W56198  24.563   9.339   2.897
84670W        W56199   3.933  13.911  12.922
84671W        W56200   2.792  15.478  11.087
84672W        W56201  20.716  30.563  12.491
84673W        W56202  19.701   9.489  10.628
84674W        W56203  17.968  10.569  11.068
84675W        W56204   7.400  44.554   1.402
84676W        W56205  15.251  28.992  13.679
84677W        W56206  42.206  13.588  11.464
84678W        W56207  32.109  34.634  11.185
84679W        W56208  17.553  16.521   2.654
84680W        W56209  34.918  44.622  12.394
84681W        W56210  17.105   7.544   0.237
84682W        W56211  27.758  22.232  10.501
84683W        W56212  34.881  21.425   2.460
84684W        W56213  35.949  40.061  10.786
84685W        W56214  26.652  10.171  10.612
84686W        W56215  11.339  10.561   1.745
84687W        W56216  28.747  25.553  10.692
84688W        W56217  42.315   7.941  13.833
84689W        W56218   0.679  15.147   1.636
84690W        W56219  37.246   4.594   5.066
84691W        W56220  29.963  39.513   1.422
84692W        W56221   0.308  19.514  10.650
84693W        W56222  15.470  31.905   4.158
84694W        W56223  27.553  29.661   2.202
84695W        W56224  16.305   1.315  11.922
84696W        W56225  18.830  31.905   3.686
84697W        W56226  27.029   5.159  14.526
84698W        W56227  41.895  43.495   0.378
84699W        W56228   3.169   9.718  14.165
84700W        W56229   1.961  11.909  14.851
84701W        W56230  25.464  20.289   1.825
84702W        W56231  26.919  39.395   4.114
84703W        W56232  13.774  26.030  14.363
84704W        W56233   1.549   5.229   4.517
84705W        W56234  27.680  19.281  11.219
84706W        W56235  30.926  21.788  11.181
84707W        W56236  22.114  24.906  14.513
84708W        W56237  35.902  30.594  10.744
84709W        W56238  39.296  20.535   4.945
84710W        W56239   7.814  10.690   0.522
84711W        W56240  13.318  34.004   1.892
84712W        W56241  34.125  37.610   1.545
84713W        W56242  24.653   9.591  14.813
84714W        W56243  15.630   8.572   2.705
84715W        W56244   9.307  26.962  13.807
84716W        W56245  32.593  41.847   3.722
84717W        W56246  41.016  27.120   2.009
84718W        W56247  11.213   5.398   4.487
84719W        W56248  33.836  33.932   4.206
84720W        W56249  23.585  12.834  11.525
84721W        W56250  16.068   6.733  13.464
84722W        W56251  39.320  40.692  12.594
84723W        W56252   2.966  27.556   0.809
84724W        W56253  23.944  29.875   0.906
84725W        W56254  21.734  19.357  14.961
84726W        W56255  27.915   7.240  12.342
84727W        W56256  33.976   6.691   4.278
84728W        W56257  21.763   1.721  10.728
84729W        W56258   2.487  42.800  12.349
84730W        W56259  17.309   2.214   3.267
84731W        W56260  23.197  42.874   2.485
84732W        W56261  15.305   0.242   4.138
84733W        W56262  25.222  36.208  13.686
84734W        W56263  33.652  19.586  11.125
84735W        W56264   1.866   6.711   3.601
84736W        W56265  33.951  41.877   2.647
84737W        W56266  19.968  12.047   4.666
84738W        W56267  27.587  24.493   4.390
84739W        W56268   3.710   5.748   4.004
84740W        W56269   5.938   4.229   1.814
84741W        W56270  20.020  43.276   0.337
84742W        W56271  43.912  21.583   0.212
84743W        W56272  28.523  23.229  11.024
84744W        W56273  43.249  43.335   1.369
84745W        W56274   9.174  29.522  13.901
84746W        W56275  14.766   1.846   2.188
84747W        W56276  22.625  17.362  13.495
84748W        W56277  15.305  12.097  10.253
84749W        W56278  33.988  30.750   1.395
84750W        W56279  20.549  15.036  14.806
84751W        W56280  32.140  25.467   4.390
84752W        W56281   8.802  12.070  10.618
84753W        W56282  37.507   8.203   0.813
84754W        W56283   2.872  21.640   0.455
84755W        W56284  25.565  24.050   4.786
84756W        W56285  27.023  37.600  13.918
84757W        W56286   8.123  40.888   3.635
84758W        W56287  34.286   2.676   2.150
84759W        W56288  25.987  24.008   0.867
84760W        W56289  24.530  43.052  14.053
84761W        W56290  28.586  21.956   4.825
84762W        W56291  20.844   0.767  11.770
84763W        W56292  31.410  31.086   1.637
84764W        W56293  10.971  36.342  13.879
84765W        W56294   3.172  16.172  11.962
84766W        W56295  15.773   2.262  12.029
84767W        W56296  42.967   4.774  10.378
84768W        W56297   6.710  34.904   0.887
84769W        W56298   1.209   4.236   3.588
84770W        W56299  13.300  29.703   4.562
84771W        W56300   0.026  27.457  11.410
84772W        W56301  20.161   6.200   5.091
84773W        W56302  16.502  23.984   0.947
84774W        W56303   6.895  11.270  13.257
84775W        W56304  37.496  25.648  11.154
84776W        W56305  12.827  36.022  12.955
84777W        W56306  14.136   3.182  13.577
84778W        W56307   6.709  26.565  12.939
84779W        W56308   5.916  14.335   0.768
84780W        W56309   7.319  12.176   3.256
84781W        W56310  16.430  23.984   4.639
84782W        W56311   7.387  32.965  11.174
84783W        W56312  11.902   5.959   0.752
84784W        W56313  22.535   2.037  13.789
84785W        W56314  26.115  41.036   1.268
84786W        W56315  43.693   5.296  11.773
84787W        W56316   0.529  18.583  12.939
84788W        W56317  33.040  41.088  10.897
84789W        W56318  11.754  40.832   3.292
84790W        W56319   4.769   4.938  14.443
84791W        W56320  30.155  19.537   0.370
84792W        W56321  35.808  26.041  12.945
84793W        W56322  17.513  20.767   0.337
84794W        W56323  33.298   1.945   0.327
84795W        W56324  28.891  14.750  13.561
84796W        W56325  17.020  18.096   1.222
84797W        W56326  27.580  41.749  12.465
84798W        W56327  17.538  17.755  11.594
84799W        W56328  22.497   7.013   0.586
84800W        W56329   7.424   5.930   2.386
84801W        W56330  11.867   7.257  14.974
84802W        W56331  15.626  37.516   1.716
84803W        W56332  19.095  41.231   1.611
84804W        W56333  34.015   7.284  14.124
84805W        W56334  20.982  13.330   3.780
84806W        W56335   0.819  27.523  13.302
84807W        W56336  31.400  37.933  12.510
84808W        W56337   9.375   1.034  11.013
84809W        W56338  10.206  40.275  14.386
84810W        W56339  10.316  38.945   2.175
84811W        W56340  23.316  37.505  14.339
84812W        W56341  22.987   1.700  12.882
84813W        W56342  36.581  10.344  10.188
84814W        W56343  19.980  41.768  10.567
84815W        W56344   4.374  30.808   2.381
84816W        W56345  27.994  10.933   3.301
84817W        W56346  14.192  27.910   3.627
84818W        W56347  12.095  23.590  10.426
84819W        W56348  44.263  26.970  14.007
84820W        W56349  35.330  21.085  10.724
84821W        W56350  14.362  36.953  11.194
84822W        W56351  10.871  43.680   3.212
84823W        W56352  19.172  20.573   4.196
84824W        W56353  36.877   5.854   4.214
84825W        W56354   2.982  15.031  14.998
84826W        W56355  42.996  14.613  13.248
84827W        W56356  20.137  15.688   2.723
84828W        W56357   6.446  10.072  13.382
84829W        W56358   4.842  29.076  12.569
84830W        W56359  34.802  25.688   0.396
84831W        W56360   1.500  33.922   3.193
84832W        W56361  27.010  35.995  12.027
84833W        W56362  40.866   3.724  14.912
84834W        W56363  36.415  17.025  14.095
84835W        W56364  10.919  22.066   3.218
84836W        W56365  43.199  42.014   4.250
84837W        W56366  24.028   3.375  13.899
84838W        W56367   6.552  35.647   5.017
84839W        W56368  24.759   4.800   1.313
84840W        W56369  25.399  25.185  11.969
84841W        W56370  26.947  17.587   1.238
84842W        W56371  31.659  10.743  13.457
84843W        W56372   9.791  39.991  14.430
84844W        W56373  23.913  35.547  11.081
84845W        W56374  38.311  16.007  11.591
84846W        W56375   6.190  12.641  13.029
84847W        W56376  28.658   7.157  14.854
84848W        W56377  22.478   4.464   4.182
84849W        W56378  25.983  22.668   2.326
84850W        W56379  41.419  43.328  14.107
84851W        W56380   6.148  10.893   0.432
84852W        W56381  24.203  25.959  12.839
84853W        W56382  22.646  26.578  14.341
84854W        W56383  12.802  12.847  10.470
84855W        W56384   2.521   1.295   1.811
84856W        W56385   8.370   9.793   0.224
84857W        W56386  12.218  31.641   1.679
84858W        W56387  41.748  37.888   0.791
84859W        W56388  18.260  16.013   0.315
84860W        W56389  18.168  27.254  12.515
84861W        W56390  35.770   7.988   4.880
84862W        W56391   0.840  27.674  14.496
84863W        W56392  32.365  29.443   2.734
84864W        W56393  12.307  44.822   2.808
84865W        W56394   0.969  13.251   2.655
84866W        W56395  23.043   3.456  11.192
84867W        W56396  25.096  26.740   4.524
84868W        W56397  17.767  22.501  14.849
84869W        W56398  25.899  22.081  13.954
84870W        W56399  30.658  23.126  11.500
84871W        W56400  22.090   9.936   1.345
84872W        W56401  38.509   0.882   4.490
84873W        W56402  23.047  21.763   2.809
84874W        W56403   2.871   0.873   4.293
84875W        W56404  23.453  32.835   3.220
84876W        W56405  32.348  44.468   2.838
84877W        W56406  10.762  26.931   1.695
84878W        W56407  37.949  43.334   4.865
84879W        W56408  10.173  39.333  11.378
84880W        W56409  21.200  23.759  12.497
84881W        W56410  39.876  40.505  14.807
84882W        W56411  34.080  17.110  10.705
84883W        W56412  23.686  36.866   3.197
84884W        W56413  22.066   4.038   3.134
84885W        W56414   3.557  37.325  14.576
84886W        W56415  40.931   4.524   0.365
84887W        W56416   3.011   1.813   0.436
84888W        W56417  22.084  26.391   0.303
84889W        W56418  40.887   0.918  12.607
84890W        W56419  40.387   4.626   0.339
84891W        W56420   4.922   1.739   4.642
84892W        W56421  23.882   6.033  12.740
84893W        W56422   7.866  30.211   1.088
84894W        W56423  20.382  16.210  14.074
84895W        W56424  15.708   8.328   2.258
84896W        W56425  22.166  12.618   3.546
84897W        W56426  33.536  28.386   2.719
84898W        W56427  17.817   1.341  11.863
84899W        W56428   5.629  19.595   2.543
84900W        W56429  37.535  14.611   1.639
84901W        W56430  29.023  27.678   0.054
84902W        W56431  31.406  22.719  14.910
84903W        W56432  43.607  31.388  10.773
84904W        W56433  42.276   1.252   0.300
84905W        W56434   0.768  44.145  14.850
84906W        W56435   1.480  30.101  12.230
84907W        W56436  37.818   8.193  12.130
84908W        W56437  40.545  18.604   1.755
84909W        W56438  34.358   5.181   1.426
84910W        W56439  36.438  27.553   3.760
84911W        W56440  38.872  29.117  12.434
84912W        W56441   7.912  42.286  14.925
84913W        W56442  19.927  31.948   1.997
84914W        W56443  13.191  15.126   3.643
84915W        W56444  26.554  18.246  12.624
84916W        W56445  44.100   6.745   3.793
84917W        W56446  22.614  13.935  13.470
84918W        W56447  44.805   7.513  13.611
84919W        W56448  39.108  44.754   3.610
84920W        W56449   0.963  13.719   3.497
84921W        W56450   3.989  10.050   4.427
84922W        W56451  24.637   0.008   1.674
84923W        W56452   2.504  37.249  10.094
84924W        W56453  32.077   0.464  12.833
84925W        W56454  44.102  19.608   0.765
84926W        W56455  39.253  15.227  10.284
84927W        W56456  43.813  36.603   1.747
84928W        W56457  12.939  27.277  10.776
84929W        W56458  14.394  26.906  12.550
84930W        W56459  27.487   0.293   4.698
84931W        W56460  28.802   2.912   2.711
84932W        W56461  25.191  30.588  12.065
84933W        W56462  42.980  43.338  13.238
84934W        W56463  20.103  28.664   1.260
84935W        W56464  18.415  37.482   2.822
84936W        W56465  22.737  32.727   4.764
84937W        W56466  22.936  40.031  14.281
84938W        W56467  14.305  30.376   1.248
84939W        W56468  22.166  21.382   2.495
84940W        W56469  20.857  19.172   1.292
84941W        W56470  20.861   8.812  14.363
84942W        W56471  38.892   7.416   2.392
84943W        W56472   2.776   8.922  14.334
84944W        W56473  33.868  19.735  12.430
84945W        W56474   8.175  24.412  14.785
84946W        W56475   8.896   3.715   2.015
84947W        W56476  39.328   6.004   3.808
84948W        W56477  32.556  32.319  13.904
84949W        W56478  28.302   2.810   2.797
84950W        W56479  39.404  29.617  13.367
84951W        W56480  32.715   6.522   0.868
84952W        W56481  37.465  13.241   3.288
84953W        W56482  19.531  34.392   3.685
84954W        W56483  10.494  15.894   3.726
84955W        W56484  37.924  40.992  11.346
84956W        W56485  39.334  38.915  13.253
84957W        W56486  26.343  24.598  10.756
84958W        W56487  24.102   6.607   0.221
84959W        W56488   4.934  34.340  12.895
84960W        W56489  44.783   2.070   3.192
84961W        W56490  28.564  33.709  11.625
84962W        W56491   2.506  43.177  10.734
84963W        W56492   7.958  35.563  13.546
84964W        W56493  40.306  10.164   1.847
84965W        W56494  20.954  16.286  12.885
84966W        W56495  30.675  38.478   2.773
84967W        W56496  15.952  24.838  12.329
84968W        W56497   3.925  23.569  10.627
84969W        W56498  21.963  44.448  13.462
84970W        W56499  43.400  33.593   1.766
84971W        W56500   4.249   6.664   1.729
84972W        W56501  28.151  38.464  13.455
84973W        W56502  22.987   0.893   3.834
84974W        W56503  36.526  18.656   3.909
84975W        W56504  21.646  43.030  14.753
84976W        W56505  27.567  29.030  12.432
84977W        W56506  42.452  25.997  14.233
84978W        W56507  40.263  24.313   1.758
84979W        W56508  35.014  42.255  13.316
84980W        W56509  12.555  37.842   1.318
84981W        W56510  14.128  35.954   1.938
84982W        W56511  13.129  37.930   4.359
84983W        W56512  27.954   3.756  12.030
84984W        W56513  20.478   1.183   3.624
84985W        W56514   8.343  13.940   4.745
84986W        W56515  13.069  43.127  11.584
84987W        W56516  21.823  28.969  13.694
84988W        W56517   8.636   9.336  14.044
84989W        W56518  14.687  22.285   2.298
84990W        W56519  40.016  18.392  12.051
84991W        W56520   0.499  30.585  14.028
84992W        W56521  16.283  28.897  13.102
84993W        W56522  42.836  15.632  11.667
84994W        W56523  27.222   2.273   2.340
84995W        W56524  20.642  29.475  12.637
84996W        W56525  36.430  13.464   3.410
84997W        W56526  36.968  17.135  12.855
84998W        W56527  43.960  44.854   4.416
84999W        W56528  36.917  31.156  14.867
85000W        W56529  18.570   1.665  10.195
85001W        W56530  23.744  21.983   3.197
85002W        W56531   5.260  21.183  10.718
85003W        W56532  10.904  34.074   2.292
85004W        W56533   8.298   6.769  11.613
85005W        W56534  18.368  20.884  11.134
85006W        W56535  32.610   6.298   3.595
85007W        W56536  17.763  40.585   3.389
85008W        W56537  27.421  18.039   3.716
85009W        W56538   0.863  42.858  10.698
85010W        W56539   8.737  33.466   4.313
85011W        W56540  19.126  32.791  12.618
85012W        W56541   5.654  18.416  14.094
85013W        W56542   5.778  25.491  13.102
85014W        W56543   0.817  44.713   1.785
85015W        W56544  41.358  26.367  11.616
85016W        W56545  14.627  43.309  12.975
85017W        W56546   5.470  28.933  14.772
85018W        W56547  18.149  40.018   4.264
85019W        W56548   0.437  36.414   2.420
85020W        W56549  32.015  24.172   5.509
85021W        W56550  33.525  36.866  11.068
85022W        W56551  35.359  25.101   2.266
85023W        W56552   7.123  21.999   3.659
85024W        W56553  26.223  41.356   2.300
85025W        W56554  20.493  12.908  10.114
85026W        W56555   7.260   5.744   1.000
85027W        W56556  10.771   8.114  12.541
85028W        W56557  10.742  13.613  12.017
85029W        W56558  21.221  18.715   3.837
85030W        W56559  18.400  27.706  12.564
85031W        W56560  33.208  36.063  14.652
85032W        W56561  37.459  29.601   4.319
85033W        W56562  37.065  17.834   1.568
85034W        W56563   5.858  30.712   3.663
85035W        W56564  14.233   9.187  11.906
85036W        W56565   8.497  14.828   1.866
85037W        W56566  11.692   2.259  11.834
85038W        W56567   7.358  25.572  13.986
85039W        W56568  17.192  19.428   2.599
85040W        W56569  28.424   5.765   3.119
85041W        W56570  19.008  12.237   3.654
85042W        W56571  19.527   5.939  11.520
85043W        W56572  34.359  29.089   4.041
85044W        W56573  42.609  17.413  12.561
85045W        W56574  24.045  26.516   4.177
85046W        W56575  27.498  40.347  11.154
85047W        W56576  16.341  11.950   4.068
85048W        W56577  22.279  18.521  12.581
85049W        W56578  32.495  38.908   3.243
85050W        W56579   2.305  41.003   4.144
85051W        W56580  35.607  43.870  14.337
85052W        W56581   4.816  12.852   1.782
85053W        W56582  31.647  41.810   2.491
85054W        W56583  24.565  20.268   1.728
85055W        W56584   4.272  27.202  14.918
85056W        W56585   4.887  31.730   3.951
85057W        W56586  34.142  28.057   0.043
85058W        W56587   6.876  17.539   2.357
85059W        W56588  42.081  11.152   3.208
85060W        W56589   4.705  43.565   3.626
85061W        W56590  43.478  17.081   0.821
85062W        W56591  12.760  31.677   1.338
85063W        W56592  36.126  13.672  13.404
85064W        W56593  38.104  34.401   1.335
85065W        W56594  33.028  23.469   0.442
85066W        W56595  30.826  39.027  14.289
85067W        W56596  19.524  19.530  14.489
85068W        W56597  21.588  37.848  14.228
85069W        W56598  10.847  38.601  11.934
85070W        W56599  26.776  24.751   2.956
85071W        W56600  17.535  17.628  14.080
85072W        W56601  37.337   4.201  14.199
85073W        W56602   4.613  39.439   2.173
85074W        W56603  31.617  36.876  12.488
85075W        W56604  17.604  39.421  13.552
85076W        W56605   6.283  37.932   3.899
85077W        W56606  14.693  10.684   1.833
85078W        W56607  36.353  11.704  13.415
85079W        W56608  18.335  27.705   3.195
85080W        W56609  14.473  25.552  11.013
85081W        W56610  15.985  22.964  14.420
85082W        W56611  13.216  30.438  14.062
85083W        W56612  10.125  31.696  12.325
85084W        W56613   3.336  27.951   1.168
85085W        W56614  16.120  28.329   0.778
85086W        W56615   3.502   1.730   2.290
85087W        W56616  24.616  44.103  10.730
85088W        W56617  37.130  30.960   0.341
85089W        W56618   7.359  35.359  14.318
85090W        W56619  42.772  28.676   2.247
85091W        W56620  30.252  37.430   3.134
85092W        W56621   0.498  39.043   3.445
85093W        W56622  29.520  17.822  13.970
85094W        W56623  43.846  38.560   4.673
85095W        W56624  34.969  37.933  10.503
85096W        W56625   5.003  10.822   1.846
85097W        W56626   6.456  40.865  12.526
85098W        W56627  40.129   0.448  12.262
85099W        W56628  40.825  40.369  12.923
85100W        W56629   0.839  43.296   1.859
85101W        W56630  10.028  17.117   5.027
85102W        W56631  25.478  10.143   3.138
85103W        W56632  13.241  17.065  11.342
85104W        W56633  23.623   2.739   4.100
85105W        W56634  34.516  26.469   3.775
85106W        W56635  28.377  19.404  12.575
85107W        W56636   2.160  40.417  11.569
85108W        W56637   4.038  29.909   1.690
85109W        W56638  23.668  21.776   4.926
85110W        W56639  12.710  22.645  12.056
85111W        W56640  43.816  27.441  11.370
85112W        W56641  30.631  32.188  10.289
85113W        W56642  11.807  36.054   4.117
85114W        W56643  31.956  23.498  11.467
85115W        W56644  33.164   9.563   3.582
85116W        W56645  22.518  14.633  14.093
85117W        W56646  37.765  30.423   3.745
85118W        W56647  26.227  18.949   3.546
85119W        W56648   4.885  27.565   3.295
85120W        W56649  42.221  22.711   4.102
85121W        W56650  29.696  22.100  11.867
85122W        W56651  24.533  31.062  13.138
85123W        W56652  28.626  34.353   1.359
85124W        W56653  44.737   3.747   2.666
85125W        W56654  20.308   4.112  13.959
85126W        W56655  40.385   6.711   0.743
85127W        W56656  16.607   0.405   1.976
85128W        W56657  13.241   8.122   3.740
85129W        W56658  23.069  33.978  13.214
85130W        W56659   6.663  11.576   2.674
85131W        W56660  29.608   5.220   3.272
85132W        W56661   7.863  14.552   0.051
85133W        W56662  30.006  11.856  13.327
85134W        W56663  17.532  11.382  14.062
85135W        W56664   9.815   2.358   1.341
85136W        W56665  40.051  18.177  11.109
85137W        W56666   7.379   3.478   4.561
85138W        W56667  34.935  39.749  12.455
85139W        W56668  36.026  18.819  13.263
85140W        W56669   1.680  27.938   2.002
85141W        W56670  20.611  14.011  11.085
85142W        W56671  42.331   5.571  11.599
85143W        W56672  39.666  44.413   4.173
85144W        W56673  37.279  30.314   3.692
85145W        W56674  16.138  17.140   1.443
85146W        W56675  44.016  10.134  11.531
85147W        W56676  28.887  29.048   3.871
85148W        W56677  20.546   5.279  10.975
85149W        W56678   3.356  21.188  14.351
85150W        W56679  43.177  42.343  10.570
85151W        W56680  16.615  17.895   5.001
85152W        W56681  42.416  34.544  11.387
85153W        W56682  34.080  16.528   1.414
85154W        W56683  31.572  40.140  14.310
85155W        W56684   1.691  15.528  12.428
85156W        W56685  22.660  35.737  14.292
85157W        W56686  26.060   0.007   3.237
85158W        W56687  38.243  10.230  11.298
85159W        W56688  25.573  41.998  11.142
85160W        W56689  40.702  13.297  13.095
85161W        W56690  10.895  23.108  14.062
85162W        W56691   1.316   5.793  10.632
85163W        W56692   6.882  20.240   1.411
85164W        W56693  44.039  37.989  13.868
85165W        W56694  26.408  14.811  12.385
85166W        W56695  14.637  31.974  13.023
85167W        W56696   2.999  26.902   4.740
85168W        W56697  25.170  25.078  11.535
85169W        W56698  42.374  22.685   3.093
85170W        W56699  33.800  28.736   3.411
85171W        W56700  10.791   1.314  12.954
85172W        W56701  17.826  42.443   2.391
85173W        W56702  38.998  25.295   4.178
85174W        W56703  28.419  36.008  11.525
85175W        W56704   4.416  37.755   2.152
85176W        W56705  34.258  25.764   5.596
85177W        W56706   2.941  41.252  13.434
85178W        W56707  37.681  36.433   0.932
85179W        W56708  18.977  31.716   0.555
85180W        W56709  34.337  40.361  14.944
85181W        W56710  14.832  44.520   3.748
85182W        W56711   8.181  12.175   3.076
85183W        W56712   6.747   0.757  10.695
85184W        W56713  22.124  39.478   4.227
85185W        W56714   7.705  15.721  14.323
85186W        W56715  29.966  30.954   3.870
85187W        W56716   3.404  37.736  13.333
85188W        W56717  18.702  26.335   1.047
85189W        W56718  37.402  36.358   3.287
85190W        W56719  27.759  26.900  13.542
85191W        W56720   4.811  23.862  13.665
85192W        W56721  37.075  10.699   0.469
85193W        W56722  40.353  40.693  14.959
85194W        W56723  30.677  38.288   3.817
85195W        W56724  23.250   9.726  13.067
85196W        W56725   4.161  20.134   3.864
85197W        W56726  10.190  22.762  14.853
85198W        W56727  30.487  27.969   1.779
85199W        W56728   9.509   7.715   3.918
85200W        W56729   2.316  18.665   4.570
85201W        W56730  19.244  23.138  10.808
85202W        W56731  20.097  16.560   3.764
85203W        W56732  18.531   8.866   3.424
85204W        W56733   3.923  11.130   1.449
85205W        W56734  36.887  16.035   3.644
85206W        W56735  32.393  41.070  13.057
85207W        W56736  23.800  40.529   4.499
85208W        W56737  13.474   5.618   0.949
85209W        W56738   9.312  37.436   3.655
85210W        W56739  26.249  14.711   3.220
85211W        W56740   8.475   5.449  11.156
85212W        W56741  31.995   3.873  14.118
85213W        W56742  17.218  32.116   0.915
85214W        W56743  33.394   3.010   3.225
85215W        W56744  15.005  11.324   4.968
85216W        W56745  13.318  42.564  13.345
85217W        W56746  37.933   3.349   1.883
85218W        W56747  29.133  37.487  10.881
85219W        W56748   1.878  17.935   1.035
85220W        W56749  26.560  39.749  14.632
85221W        W56750  24.411  19.657   0.533
85222W        W56751  43.875   5.699   1.149
85223W        W56752   5.413  23.579   2.323
85224W        W56753  14.620  22.366   4.169
85225W        W56754  13.888  20.008   0.342
85226W        W56755  26.096  22.033   4.231
85227W        W56756  41.493  43.782  10.789
85228W        W56757  36.508  38.602  12.108
85229W        W56758   8.741  34.366   2.561
85230W        W56759  35.431  28.863  14.772
85231W        W56760  38.327  39.848  13.121
85232W        W56761   7.917  28.237   4.113
85233W        W56762  36.633  26.201  11.914
85234W        W56763  29.711  19.653  13.548
85235W        W56764   5.157  39.665  11.164
85236W        W56765  25.015  33.520   2.182
85237W        W56766  21.056  36.971   0.376
85238W        W56767  30.802  43.057  11.526
85239W        W56768  42.483  36.582   4.802
85240W        W56769  25.316  32.542   0.836
85241W        W56770  23.304  36.335   1.367
85242W        W56771  21.484   6.402  14.960
85243W        W56772   6.310  19.351   4.576
85244W        W56773  41.761   0.148  14.019
85245W        W56774  29.016  14.934  12.069
85246W        W56775  32.425  36.449  14.474
85247W        W56776   0.329  15.117   4.536
85248W        W56777  39.461  44.438  14.047
85249W        W56778   5.996  39.361   0.872
85250W        W56779  22.260  28.150   0.880
85251W        W56780  22.800  41.377  14.802
85252W        W56781  43.618  24.996   4.225
85253W        W56782  11.876  23.525   1.287
85254W        W56783  38.552  42.891  11.285
85255W        W56784  34.764   2.677   3.122
85256W        W56785   6.368  21.226   1.293
85257W        W56786  32.645  17.304  10.533
85258W        W56787  10.386  22.676  10.897
85259W        W56788  36.352  38.282   4.536
85260W        W56789  21.508  20.149   1.691
85261W        W56790  33.998  18.250  11.912
85262W        W56791  19.700  31.681  12.105
85263W        W56792  32.364   7.888  11.557
85264W        W56793  31.988   5.802   0.739
85265W        W56794   7.261   0.714  10.799
85266W        W56795  13.368  23.559   4.542
85267W        W56796  27.647  16.020  12.109
85268W        W56797  25.846  11.349  14.958
85269W        W56798  34.639  10.259  13.540
85270W        W56799   8.715  36.611   1.898
85271W        W56800   3.308  10.964  14.726
85272W        W56801  24.217  29.667   1.417
85273W        W56802  18.052  19.207  10.662
85274W        W56803   2.656  10.734  11.508
85275W        W56804  23.660  38.485   4.707
85276W        W56805   3.231  42.367  13.043
85277W        W56806   1.921  24.344   4.493
85278W        W56807  27.501  18.578  13.865
85279W        W56808  11.807   9.713  12.156
85280W        W56809  43.909  11.349  14.370
85281W        W56810  25.972  31.056  14.790
85282W        W56811  37.072  43.235   3.342
85283W        W56812  16.010   8.718  12.875
85284W        W56813   0.071  36.778   0.511
85285W        W56814  25.260  36.560  11.272
85286W        W56815  15.333  22.672   3.936
85287W        W56816  42.272  44.830   3.285
85288W        W56817  40.415  14.591  11.443
85289W        W56818  40.219  32.205   4.022
85290W        W56819  33.038  31.040  11.723
85291W        W56820   1.993   8.204   0.009
85292W        W56821   8.899  36.537  10.681
85293W        W56822  29.372   5.363  11.511
85294W        W56823   3.893  18.311   4.064
85295W        W56824   5.206  33.563   0.750
85296W        W56825  30.050  32.633   2.388
85297W        W56826  20.372  18.242  13.547
85298W        W56827  19.716  33.912   3.722
85299W        W56828   9.384  27.608  12.607
85300W        W56829  32.591  22.607  12.042
85301W        W56830  16.983  31.158   2.294
85302W        W56831  29.676  27.115   0.818
85303W        W56832  42.673  20.226  11.567
85304W        W56833  12.368  36.173  11.510
85305W        W56834  24.699  14.740  12.071
85306W        W56835  22.412  21.802   2.352
85307W        W56836  23.500  36.622   0.373
85308W        W56837  23.949  17.947   3.579
85309W        W56838  14.476  20.962  14.303
85310W        W56839  36.934  15.606  10.750
85311W        W56840  19.594  14.845   1.241
85312W        W56841   1.883  24.464  11.257
85313W        W56842  13.907   7.891  13.937
85314W        W56843  31.109  40.577   3.667
85315W        W56844   8.802  14.686  11.221
85316W        W56845  25.042  10.221   4.517
85317W        W56846  15.320  30.498  14.027
85318W        W56847  35.933  25.639  11.527
85319W        W56848  34.910  11.830  13.263
85320W        W56849  36.267   6.910   3.295
85321W        W56850  11.105  33.867   2.719
85322W        W56851  29.608  16.638   2.968
85323W        W56852  27.836  36.503   2.862
85324W        W56853  19.340  32.879  13.444
85325W        W56854  27.886  21.524  14.332
85326W        W56855  39.389   2.888  10.650
85327W        W56856  37.017   8.738  13.467
85328W        W56857  11.933  16.304  13.447
85329W        W56858  32.080  31.350   1.178
85330W        W56859  19.232  18.539   4.580
85331W        W56860  16.776  10.435  13.512
85332W        W56861  20.962   0.137  11.177
85333W        W56862  24.028  16.300   1.416
85334W        W56863  19.418   4.886   9.959
85335W        W56864  38.865  20.281  10.603
85336W        W56865  35.062  13.532   1.910
85337W        W56866  19.812  38.874  12.537
85338W        W56867  38.877  34.175   0.437
85339W        W56868  17.462   4.258  14.970
85340W        W56869  38.914   4.104  13.924
85341W        W56870  27.601  24.403  11.336
85342W        W56871  23.245   0.708  12.060
85343W        W56872  43.305  16.557   2.817
85344W        W56873  16.274  31.909  14.906
85345W        W56874  14.797   5.683   3.178
85346W        W56875  29.956  26.572  10.184
85347W        W56876  33.373  24.616  13.237
85348W        W56877  39.858  42.589  10.777
85349W        W56878   9.609  16.732   1.899
85350W        W56879  23.983   1.281   0.824
85351W        W56880  13.227  34.709  11.556
85352W        W56881  43.252  31.802   3.371
85353W        W56882  34.932   3.705  11.227
85354W        W56883  31.062  36.443  14.061
85355W        W56884  41.333  20.498  11.454
85356W        W56885  17.133  14.168   2.900
85357W        W56886   5.712  16.028   4.610
85358W        W56887   9.367  21.748   0.872
85359W        W56888  20.194   1.380  11.815
85360W        W56889  22.328  14.850   3.872
85361W        W56890  40.516  38.560  14.802
85362W        W56891   3.930  44.227  11.190
85363W        W56892  31.057  32.634  14.963
85364W        W56893  16.530  32.054  13.031
85365W        W56894  41.509  44.717   2.218
85366W        W56895  32.531   3.254   1.742
85367W        W56896  36.097  37.955   2.848
85368W        W56897   0.949   3.191  13.024
85369W        W56898   8.371  38.036   0.718
85370W        W56899  32.980   2.268  12.462
85371W        W56900  27.619   3.483   1.799
85372W        W56901  29.189  27.538   2.854
85373W        W56902  33.644  13.080  14.313
85374W        W56903  24.501   9.094   3.326
85375W        W56904  44.681  11.705  12.479
85376W        W56905   3.409  10.562   0.535
85377W        W56906  22.723  18.129   2.237
85378W        W56907  35.511  25.006   1.763
85379W        W56908  33.800   2.939  13.852
85380W        W56909   5.239   4.183  10.679
85381W        W56910  17.300   4.813   3.658
85382W        W56911  41.672  21.227   0.385
85383W        W56912  43.823  13.077  12.125
85384W        W56913  23.152   3.216  14.330
85385W        W56914  26.277  34.428  11.177
85386W        W56915  12.239  40.028  14.847
85387W        W56916  33.469   8.180  12.307
85388W        W56917  27.484  33.696  12.164
85389W        W56918  25.017  22.131   4.867
85390W        W56919   9.344  20.202   4.158
85391W        W56920  33.615  37.945  14.397
85392W        W56921  26.027  27.997   0.128
85393W        W56922  12.794  41.061   1.824
85394W        W56923  30.309  23.753   2.160
85395W        W56924   0.290  29.692   3.664
85396W        W56925  20.508   5.226  11.528
85397W        W56926  39.413  39.180   1.463
85398W        W56927   7.342   3.508   0.479
85399W        W56928  23.381   8.381   2.818
85400W        W56929   8.736  42.022   0.201
85401W        W56930  36.898  42.865  11.181
85402W        W56931  17.727  43.569   1.406
85403W        W56932  25.232  18.972  12.421
85404W        W56933  15.572  42.289   1.296
85405W        W56934  15.223  22.325   1.208
85406W        W56935  42.269  37.035  12.897
85407W        W56936   6.711  44.934   3.114
85408W        W56937   4.608  29.240   2.271
85409W        W56938   0.276  34.080  13.401
85410W        W56939  25.081  13.681  10.724
85411W        W56940  10.400  18.849   3.184
85412W        W56941   7.868  18.991   3.561
85413W        W56942  40.450  39.431  13.318
85414W        W56943  26.064  21.087   0.232
85415W        W56944  26.924  27.477  13.049
85416W        W56945  44.781  13.795   3.162
85417W        W56946  12.645  13.752   0.280
85418W        W56947   1.953  39.791   0.227
85419W        W56948   0.056  36.349   1.544
85420W        W56949  31.590  22.122  12.525
85421W        W56950   3.643  31.962   0.884
85422W        W56951  13.101   7.050   1.227
85423W        W56952  38.967  29.626   3.189
85424W        W56953  32.070   8.914  10.191
85425W        W56954  38.491  35.876   3.854
85426W        W56955  26.646  26.716  12.083
85427W        W56956  11.369  41.302  12.285
85428W        W56957  19.496   6.751  11.177
85429W        W56958  14.617  18.222  11.158
85430W        W56959   0.220  43.274  10.751
85431W        W56960   6.362  23.728   2.377
85432W        W56961  17.085  33.155   1.876
85433W        W56962  19.692  28.189  10.689
85434W        W56963  21.188  36.903   1.794
85435W        W56964  43.386   5.887   1.819
85436W        W56965  37.983  14.270  11.403
85437W        W56966   4.373   6.280   0.939
85438W        W56967  26.611  15.741   3.231
85439W        W56968   1.748  35.085   3.209
85440W        W56969  18.145  29.520   1.219
85441W        W56970   7.951  38.886  12.043
85442W        W56971  25.192  37.366   1.886
85443W        W56972  26.669  19.245   0.679
85444W        W56973  41.087   7.442   3.637
85445W        W56974  23.079   9.070  14.909
85446W        W56975   8.879  13.892  13.109
85447W        W56976  10.229  21.153  14.472
85448W        W56977  19.574   3.673   2.295
85449W        W56978  15.387  18.598   0.677
85450W        W56979  19.313  36.959  13.364
85451W        W56980  11.327  40.560  13.007
85452W        W56981  23.155   7.700   2.309
85453W        W56982  22.690  32.495   0.229
85454W        W56983   1.464   6.203   4.048
85455W        W56984  33.406  27.600   0.191
85456W        W56985  16.356   1.055   4.135
85457W        W56986   7.131   7.370   3.448
85458W        W56987   7.905  42.260   4.190
85459W        W56988  32.576  29.963  11.198
85460W        W56989  39.653  23.971   1.173
85461W        W56990   4.562  40.433  13.892
85462W        W56991  10.442  12.244  10.961
85463W        W56992  16.118  16.567  12.422
85464W        W56993   5.865  21.058  12.522
85465W        W56994   0.041  26.289  14.254
85466W        W56995  43.866  34.470   4.606
85467W        W56996  39.120   9.420   2.947
85468W        W56997  42.675   4.351  14.900
85469W        W56998  22.491  29.172   4.113
85470W        W56999  38.676   5.911   9.976
85471W        W57000  27.573  41.852   3.070
85472W        W57001  43.732  13.881  13.443
85473W        W57002  30.981   2.280   1.995
85474W        W57003  38.533   0.081  12.366
85475W        W57004   2.964   4.896  12.554
85476W        W57005   5.064  16.246  14.463
85477W        W57006  44.798  34.578  11.480
85478W        W57007  14.144  10.240  11.051
85479W        W57008  41.415  13.747   3.135
85480W        W57009  41.940  43.827   1.446
85481W        W57010  35.539  28.111   3.783
85482W        W57011  42.369  27.422  14.341
85483W        W57012  40.297  39.491  11.935
85484W        W57013  33.017  44.071   2.144
85485W        W57014  31.655  21.182   3.656
85486W        W57015  39.639   2.958  11.083
85487W        W57016  26.685   3.353  14.709
85488W        W57017   4.741  11.812  11.669
85489W        W57018  32.207  43.469  14.365
85490W        W57019  11.497   0.246  14.230
85491W        W57020  36.684  25.389   5.375
85492W        W57021  24.717  20.632   3.706
85493W        W57022  16.690   0.402   4.410
85494W        W57023  41.789  35.172  10.804
85495W        W57024   5.342   7.485  13.925
85496W        W57025  41.953  27.289  12.528
85497W        W57026  25.175  18.697  14.498
85498W        W57027   0.247  40.519  10.504
85499W        W57028  41.952   8.691   2.276
85500W        W57029  34.602   9.807  12.898
85501W        W57030  28.723  20.324   3.845
85502W        W57031  20.232  14.174   2.770
85503W        W57032  24.755  12.296   4.108
85504W        W57033  26.525  40.255  14.612
85505W        W57034  16.693  42.840   1.747
85506W        W57035  20.501  28.475  10.988
85507W        W57036  33.494   4.174   0.788
85508W        W57037  39.312  21.345  11.915
85509W        W57038  42.516  18.676   4.651
85510W        W57039  21.023  28.752   0.738
85511W        W57040   9.402  18.662   4.610
85512W        W57041   3.799   2.235  13.680
85513W        W57042  38.025  22.367  12.340
85514W        W57043  20.911  34.314  10.369
85515W        W57044  27.641  14.672   2.426
85516W        W57045  39.984  20.287   2.367
85517W        W57046  33.956  20.589   2.949
85518W        W57047  30.587   4.237   0.479
85519W        W57048  32.043  22.007   0.219
85520W        W57049   1.522  12.096  13.526
85521W        W57050  18.454  35.093   3.754
85522W        W57051  16.741  34.111  14.396
85523W        W57052   3.338  20.848   0.876
85524W        W57053   3.323   7.278   2.256
85525W        W57054   3.395  33.768   4.656
85526W        W57055  34.914  19.604  13.437
85527W        W57056  25.602   3.059   3.897
85528W        W57057   6.929  19.209   2.253
85529W        W57058   4.409  22.010  11.178
85530W        W57059   0.143  23.189  13.368
85531W        W57060  30.074  16.709  14.106
85532W        W57061  37.314  26.107   0.385
85533W        W57062  26.593  14.432  13.299
85534W        W57063   9.708   2.500   3.178
85535W        W57064  24.567  44.976   4.196
85536W        W57065  13.796  41.798   2.314
85537W        W57066  38.870   6.308  13.069
85538W        W57067  40.964  29.400   0.344
85539W        W57068   4.341  37.097  13.036
85540W        W57069  25.291  43.959  14.880
85541W        W57070   5.304  32.885  11.572
85542W        W57071  35.587  35.840  14.943
85543W        W57072   1.470  28.031   0.949
85544W        W57073  29.955  44.005  12.011
85545W        W57074   9.911  32.229  13.394
85546W        W57075  28.799  17.815   0.892
85547W        W57076  24.542  16.190  13.378
85548W        W57077  44.689  37.548  14.921
85549W        W57078  13.198  18.079   4.890
85550W        W57079  17.607  18.997   0.925
85551W        W57080   3.915  10.034   3.349
85552W        W57081  35.163  27.693  10.578
85553W        W57082   6.836  18.067   4.274
85554W        W57083  20.776   5.177   2.648
85555W        W57084  12.638   0.752  14.445
85556W        W57085  19.512  37.038   4.125
85557W        W57086  17.033  31.246   3.104
85558W        W57087  39.451  41.539  10.677
85559W        W57088  33.882  23.535   2.905
85560W        W57089  43.149  19.842  12.847
85561W        W57090  43.771  22.474   1.670
85562W        W57091  13.913  25.139   4.255
85563W        W57092  15.164  16.008   4.607
85564W        W57093   0.635  19.254   4.177
85565W        W57094  33.303  34.518   9.950
85566W        W57095   2.231  27.202  11.530
85567W        W57096   0.051  36.422   2.811
85568W        W57097  24.952  21.175   4.930
85569W        W57098  34.098  28.848  14.919
85570W        W57099  42.130   2.365   1.223
85571W        W57100  21.061  13.162  11.687
85572W        W57101  44.178  29.065   0.858
85573W        W57102   2.869  13.295   0.438
85574W        W57103  21.608  25.083  14.423
85575W        W57104  23.429   0.478   1.879
85576W        W57105   3.481   4.637   3.810
85577W        W57106  30.697  33.478   3.555
85578W        W57107   9.637   8.898   4.157
85579W        W57108   9.266  34.489  10.190
85580W        W57109  37.276  16.092   4.105
85581W        W57110   9.966  24.671  13.037
85582W        W57111  38.076  27.439   3.189
85583W        W57112   4.886   2.948   9.949
85584W        W57113  29.628   5.977   4.520
85585W        W57114   4.366   9.266  13.518
85586W        W57115  25.522  11.109   2.820
85587W        W57116  37.367  37.512   4.068
85588W        W57117   9.927  15.038   4.144
85589W        W57118  36.820  22.689   2.361
85590W        W57119  15.784  39.279   0.272
85591W        W57120  22.076  43.030  11.624
85592W        W57121  38.972   9.310   0.559
85593W        W57122  35.512  15.735   1.634
85594W        W57123  35.494  25.744  14.511
85595W        W57124  23.485   1.012   3.818
85596W        W57125  39.354  19.015   3.882
85597W        W57126  10.197   6.008  12.068
85598W        W57127  29.239  38.534   1.349
85599W        W57128  38.041  36.987  11.465
85600W        W57129   9.444   1.652  14.556
85601W        W57130  10.278  30.451  13.433
85602W        W57131  18.353  39.542  13.798
85603W        W57132  13.359  12.563   2.812
85604W        W57133  42.833  18.264  12.736
85605W        W57134  10.212  34.430   1.356
85606W        W57135  21.997  29.627   4.656
85607W        W57136  14.330  19.165   0.262
85608W        W57137  27.518   4.880   4.793
85609W        W57138  11.787  39.706   2.577
85610W        W57139  20.688   5.735  11.445
85611W        W57140  17.432  13.104  10.779
85612W        W57141  36.828  11.259  12.475
85613W        W57142   6.597  39.366  14.998
85614W        W57143  10.338  26.467  14.782
85615W        W57144  14.507  18.158  13.839
85616W        W57145  23.123  13.817   0.276
85617W        W57146  23.028   5.329  11.211
85618W        W57147   4.782  25.483   4.187
85619W        W57148  33.839  44.994  11.526
85620W        W57149  19.067   7.244   0.767
85621W        W57150  21.067  43.930   0.976
85622W        W57151  37.786  25.716  12.856
85623W        W57152  12.318   4.021  10.529
85624W        W57153  31.874  35.856   4.603
85625W        W57154  38.470  32.174  14.439
85626W        W57155  36.681   8.686   3.234
85627W        W57156   6.388  19.489   5.495
85628W        W57157  38.776   7.425  11.343
85629W        W57158  11.822  35.438  12.084
85630W        W57159  17.598  39.344  10.560
85631W        W57160  27.105  32.776  10.262
85632W        W57161  33.914   9.069  10.538
85633W        W57162  32.007  28.983  12.081
85634W        W57163   2.055  41.405  11.308
85635W        W57164  22.470  28.945  11.607
85636W        W57165   1.977   4.204   4.275
85637W        W57166  42.600   9.899  10.279
85638W        W57167   1.114  27.992   1.347
85639W        W57168  21.193  26.004  12.161
85640W        W57169  17.707  32.799   0.659
85641W        W57170  38.523  35.445  13.382
85642W        W57171  44.985  39.290   1.851
85643W        W57172  37.596  14.154   1.888
85644W        W57173   7.178  43.007   0.695
85645W        W57174  30.133   1.774  13.075
85646W        W57175  33.923  21.163  13.899
85647W        W57176  19.636  36.501   4.149
85648W        W57177  19.267   0.892  14.394
85649W        W57178  15.155  41.033  14.374
85650W        W57179  11.426  44.762   0.957
85651W        W57180   2.986  11.128   3.286
85652W        W57181  16.774   1.331  12.158
85653W        W57182  17.341   6.160  14.917
85654W        W57183  36.946  34.597   1.731
85655W        W57184  37.336   7.744   4.543
85656W        W57185   4.906  28.082   3.082
85657W        W57186   6.436  24.170  14.216
85658W        W57187  17.434   0.796  11.028
85659W        W57188   4.015   1.994  14.125
85660W        W57189   7.768  20.962  14.337
85661W        W57190  16.593  33.895  14.885
85662W        W57191  19.613  18.307  12.213
85663W        W57192   4.731  30.275   1.165
85664W        W57193  33.422  28.655   3.738
85665W        W57194  31.855  16.038  11.200
85666W        W57195   3.400  34.879  10.502
85667W        W57196   3.988   3.763   2.609
85668W        W57197  37.562  20.744   3.799
85669W        W57198   2.912  38.119   1.234
85670W        W57199  42.264   5.222  10.922
85671W        W57200  37.464   6.383   0.532
85672W        W57201  23.646   6.110   3.766
85673W        W57202  42.794  36.918  12.013
85674W        W57203  23.700   6.543  13.870
85675W        W57204  21.554  24.217   4.569
85676W        W57205  36.605  22.203   4.633
85677W        W57206  19.670  42.104  13.045
85678W        W57207  22.073  34.035   4.020
85679W        W57208   4.667  19.946  12.978
85680W        W57209  37.136   0.977  12.054
85681W        W57210  28.930   0.850  12.801
85682W        W57211   3.739   1.053   1.214
85683W        W57212   1.865  35.409   4.345
85684W        W57213  42.778  35.309   4.928
85685W        W57214  32.947  24.384  11.091
85686W        W57215  24.753  27.063  14.414
85687W        W57216  24.413  26.165  14.507
85688W        W57217   3.368   8.523   4.230
85689W        W57218  29.250  35.014  11.189
85690W        W57219  13.857  27.577  14.317
85691W        W57220   6.991  37.540   3.763
85692W        W57221  39.958  37.288   3.804
85693W        W57222  17.362  38.703  12.537
85694W        W57223  38.352  14.869   3.963
85695W        W57224  14.670  32.213  11.991
85696W        W57225  15.933  40.140   0.829
85697W        W57226  13.649  27.762  13.850
85698W        W57227   5.266  39.884   5.141
85699W        W57228   6.587  37.594  11.546
85700W        W57229  22.719   4.187   3.780
85701W        W57230  27.648  20.550  14.408
85702W        W57231   3.246  44.508   1.711
85703W        W57232  31.781  40.597  14.439
85704W        W57233   4.361  17.810   0.667
85705W        W57234  42.025  40.386  10.334
85706W        W57235   3.947  20.276   0.028
85707W        W57236   5.688   3.665   2.700
85708W        W57237  12.384  18.205  13.090
85709W        W57238  12.787  24.142  10.681
85710W        W57239   0.655  18.002   1.620
85711W        W57240   0.227   2.317   4.982
85712W        W57241  36.024  39.458   4.598
85713W        W57242  28.959  31.175   1.689
85714W        W57243  33.024   9.868  11.540
85715W        W57244  16.932   3.254  10.809
85716W        W57245   0.374  19.917   4.723
85717W        W57246  23.026  12.432   1.054
85718W        W57247  35.159  31.544  12.579
85719W        W57248   7.624   5.047   0.318
85720W        W57249  12.933  26.925   0.038
85721W        W57250  32.582  37.629  13.518
85722W        W57251  23.081  26.806  11.161
85723W        W57252  33.129  13.853  10.951
85724W        W57253  10.334  23.487   3.598
85725W        W57254   6.796   3.666   3.662
85726W        W57255  44.756  25.058  13.847
85727W        W57256  29.689  33.621   0.050
85728W        W57257   0.785  36.545  11.475
85729W        W57258   3.719   1.265  12.690
85730W        W57259  11.136  19.401   0.323
85731W        W57260  34.868  18.640  11.574
85732W        W57261  24.727  12.188  11.199
85733W        W57262   1.927  43.089   1.346
85734W        W57263  21.738   4.153  11.146
85735W        W57264  42.284  21.269  13.299
85736W        W57265  15.145  44.740  14.863
85737W        W57266  31.512  13.128   0.525
85738W        W57267  10.076  42.324   0.816
85739W        W57268  37.483   4.719   3.385
85740W        W57269  32.013   6.846   3.786
85741W        W57270  23.272   5.729   0.745
85742W        W57271  16.864  20.968   3.263
85743W        W57272  30.579  24.087  11.624
85744W        W57273   6.398  10.754   3.468
85745W        W57274   9.128   9.709   2.340
85746W        W57275   0.328  30.619   1.840
85747W        W57276  13.798  41.276  12.499
85748W        W57277  19.433  15.113   2.242
85749W        W57278   4.713   6.772   2.898
85750W        W57279  29.059   8.457  14.264
85751W        W57280  29.642   6.331  14.764
85752W        W57281  14.527  36.860  12.390
85753W        W57282  44.883  13.366  13.092
85754W        W57283  42.837  32.932  12.910
85755W        W57284  18.191  14.670   3.122
85756W        W57285  38.826   2.740  14.833
85757W        W57286  19.651  16.852  12.042
85758W        W57287  15.687  17.382   3.120
85759W        W57288   9.639  37.105   4.953
85760W        W57289  40.399  20.685   3.550
85761W        W57290  14.709  24.734   4.096
85762W        W57291  40.445  24.109  12.455
85763W        W57292  26.396  21.169  14.329
85764W        W57293  26.946  22.453  10.766
85765W        W57294   3.175  40.819   4.053
85766W        W57295  42.872  28.120   3.200
85767W        W57296  18.383  20.686  13.811
85768W        W57297   7.474  20.255   2.245
85769W        W57298  30.346  32.798   0.317
85770W        W57299  41.081  40.821   3.729
85771W        W57300  31.122   2.274  13.381
85772W        W57301   3.646  20.208   3.955
85773W        W57302  14.196   3.770  10.492
85774W        W57303  22.688  36.160   0.217
85775W        W57304  16.246  28.398  11.182
85776W        W57305  39.299  22.501   4.034
85777W        W57306  19.149   8.865   2.231
85778W        W57307  11.077  20.836   0.318
85779W        W57308  13.575  11.920   4.980
85780W        W57309   6.804   1.689  12.129
85781W        W57310  13.333  12.681   0.501
85782W        W57311   4.888  10.037   1.384
85783W        W57312  17.153  36.512   0.239
85784W        W57313  36.078  11.264  13.632
85785W        W57314  21.677  16.740   4.225
85786W        W57315  34.789  23.168   1.185
85787W        W57316  18.210  20.410  11.071
85788W        W57317  14.499  28.029  10.708
85789W        W57318  41.008  36.904   0.649
85790W        W57319   3.911  15.171   2.155
85791W        W57320  17.004  37.017   0.450
85792W        W57321  34.602  31.110   1.810
85793W        W57322  22.269   6.145   0.505
85794W        W57323  37.080  44.495  12.047
85795W        W57324   0.229  37.348  14.979
85796W        W57325  44.392   8.214  13.488
85797W        W57326  30.053  40.342  14.256
85798W        W57327  31.008  32.648  13.347
85799W        W57328  31.169  29.047  14.304
85800W        W57329   9.282  17.230  10.605
85801W        W57330  21.669  41.465  10.350
85802W        W57331   4.499   4.635   4.238
85803W        W57332  33.792  14.866  13.416
85804W        W57333  31.169  43.199   1.010
85805W        W57334   0.267   5.319   3.915
85806W        W57335  12.383   6.267  13.877
85807W        W57336  24.474  10.909  10.951
85808W        W57337  12.806   8.843   2.332
85809W        W57338  34.510  33.567   3.257
85810W        W57339  31.372  41.964  12.534
85811W        W57340  28.216  34.622  13.435
85812W        W57341  35.253   8.872  12.192
85813W        W57342   0.446  40.238   3.126
85814W        W57343   7.450   6.173   0.255
85815W        W57344  33.048  11.721   1.423
85816W        W57345  26.746  26.747   2.312
85817W        W57346  16.293  19.307   2.865
85818W        W57347   8.940  24.124   0.826
85819W        W57348  44.351  24.130   3.410
85820W        W57349  15.723  14.490  10.814
85821W        W57350  27.487   4.250   3.147
85822W        W57351  36.400  34.586  13.987
85823W        W57352  24.667   6.229  11.564
85824W        W57353   6.335  26.826  14.910
85825W        W57354  39.494  14.699  10.799
85826W        W57355  44.823  35.161  11.561
85827W        W57356  13.210  11.216   0.446
85828W        W57357  26.111   9.941  12.545
85829W        W57358  15.530  26.265   4.738
85830W        W57359  40.312  31.021   1.676
85831W        W57360  38.843  20.183  11.813
85832W        W57361  22.860  26.099   1.207
85833W        W57362  22.316  40.439   0.016
85834W        W57363  32.648  34.562   4.650
85835W        W57364  36.636  42.952  11.603
85836W        W57365  22.651  30.668   4.187
85837W        W57366  35.114  33.964   3.843
85838W        W57367   9.189  30.123   1.338
85839W        W57368  42.983  12.871  13.456
85840W        W57369  41.327   1.517   2.691
85841W        W57370  38.257  13.116   3.710
85842W        W57371  42.942  23.638  10.855
85843W        W57372  42.907  27.426  12.878
85844W        W57373  26.641  16.320   2.212
85845W        W57374  42.304   7.831   0.735
85846W        W57375  24.906  26.147  14.331
85847W        W57376  21.303  14.566  14.429
85848W        W57377   5.448  12.873  11.171
85849W        W57378  29.468  13.166  12.978
85850W        W57379  22.769   1.254  14.726
85851W        W57380  22.710   1.466   0.230
85852W        W57381  19.493  29.310  11.362
85853W        W57382  20.145  18.739   1.926
85854W        W57383  36.810  43.095   3.904
85855W        W57384   1.726   4.751   2.768
85856W        W57385  42.615   0.284   4.232
85857W        W57386   0.443   1.693   2.278
85858W        W57387  14.854  12.143   0.447
85859W        W57388  36.314  27.835   4.181
85860W        W57389  12.835  15.797   4.763
85861W        W57390   9.682  44.491   1.393
85862W        W57391   4.643  15.383  14.724
85863W        W57392  10.957  30.006  14.022
85864W        W57393  20.755  16.050  11.100
85865W        W57394  37.547  18.313  14.772
85866W        W57395  17.079  14.138   2.006
85867W        W57396  12.109  32.418  12.084
85868W        W57397  33.138  37.275   4.517
85869W        W57398   0.821  14.953   3.336
85870W        W57399  21.524  28.966   0.775
85871W        W57400  12.445  20.178   4.205
85872W        W57401  13.064   7.394   0.233
85873W        W57402  13.228  15.562   4.502
85874W        W57403  15.665  39.049  12.112
85875W        W57404  18.066   7.202  12.806
85876W        W57405  37.499   0.761  13.851
85877W        W57406   1.498   8.329  14.776
85878W        W57407  32.763  10.205   4.095
85879W        W57408   5.998  43.716   3.304
85880W        W57409  23.155  35.574   2.689
85881W        W57410  24.452   7.210  11.525
85882W        W57411  41.296   6.358   4.325
85883W        W57412  19.260  23.153  14.790
85884W        W57413  44.424  41.359  12.493
85885W        W57414   4.007  36.498  13.359
85886W        W57415  34.028  18.772   0.684
85887W        W57416  35.763   5.774   0.384
85888W        W57417  41.322  15.107   3.341
85889W        W57418  40.481  16.627  11.186
85890W        W57419  34.598   8.764   0.241
85891W        W57420  21.055   0.646   4.129
85892W        W57421   8.689  13.798  11.357
85893W        W57422  17.677   5.316  10.809
85894W        W57423  27.957  11.589  13.477
85895W        W57424  43.120  19.142  14.549
85896W        W57425  36.562  34.937  11.219
85897W        W57426  26.989  24.171  13.016
85898W        W57427  13.022  35.471  13.918
85899W        W57428  35.523  18.941  13.403
85900W        W57429  19.101  22.345   3.705
85901W        W57430  18.746  27.023  14.483
85902W        W57431  31.596   8.614   5.185
85903W        W57432  25.380  20.550   1.398
85904W        W57433  13.658  44.443   2.689
85905W        W57434  18.522  28.265   2.318
85906W        W57435  33.232   2.441   2.729
85907W        W57436  44.766  40.777  11.144
85908W        W57437  41.995   8.765  13.093
85909W        W57438   4.478   0.409  14.752
85910W        W57439  38.560   8.449  11.462
85911W        W57440  16.827   1.427  14.103
85912W        W57441  41.221  39.532  13.918
85913W        W57442  22.921   8.840   0.408
85914W        W57443  35.392   5.516  11.717
85915W        W57444   0.056  11.875   3.227
85916W        W57445  12.119   1.026   3.161
85917W        W57446  19.111  28.740   1.629
85918W        W57447  15.521   3.882  11.930
85919W        W57448  43.015  41.416  12.726
85920W        W57449  27.716  40.353   3.656
85921W        W57450  21.664  40.148  10.668
85922W        W57451  41.996  42.297  11.198
85923W        W57452   5.205  20.127  10.707
85924W        W57453  34.594  29.923   3.339
85925W        W57454   4.714  10.693   5.086
85926W        W57455  21.239  28.404  14.461
85927W        W57456  20.008  19.096   4.097
85928W        W57457  30.174  16.022  14.394
85929W        W57458   5.701  29.652  12.801
85930W        W57459  12.822  16.192  11.076
85931W        W57460  27.510  32.716  13.983
85932W        W57461  42.921  42.585   0.834
85933W        W57462   5.888  11.576  13.872
85934W        W57463  40.913  32.358  14.941
85935W        W57464  33.266  22.365  13.526
85936W        W57465   6.477   4.256   1.760
85937W        W57466   7.865  16.231  14.790
85938W        W57467   3.774  16.026  11.158
85939W        W57468  37.320   1.917  13.007
85940W        W57469   2.282  35.858  14.964
85941W        W57470  25.025  16.265  12.497
85942W        W57471  35.563  20.532   3.215
85943W        W57472  40.218  16.145  12.100
85944W        W57473   2.263  18.636   3.742
85945W        W57474   7.337  31.484  12.713
85946W        W57475  31.454  43.950  11.181
85947W        W57476  16.932  15.039   2.765
85948W        W57477  10.899   1.005   4.633
85949W        W57478  32.533  29.474  14.218
85950W        W57479  23.119  10.085  13.427
85951W        W57480   4.808  23.497   4.566
85952W        W57481  32.507  39.098  13.519
85953W        W57482   8.397  24.005  11.678
85954W        W57483  29.111  41.496  10.421
85955W        W57484  16.673  13.727  13.077
85956W        W57485  20.628   3.209   2.539
85957W        W57486  23.154  34.001  11.676
85958W        W57487  38.976  14.954   2.743
85959W        W57488   7.197  39.985   2.809
85960W        W57489  11.755  42.331   0.832
85961W        W57490  17.231  32.051   2.820
85962W        W57491   6.470  18.997   2.713
85963W        W57492   3.209  27.457   1.271
85964W        W57493  33.590  33.646   1.453
85965W        W57494  39.045  23.509  14.393
85966W        W57495  28.454   4.981  11.117
85967W        W57496  11.124  11.787   2.398
85968W        W57497  14.939  31.875  11.128
85969W        W57498  35.979  16.261   1.238
85970W        W57499  39.748  25.490  11.607
85971W        W57500  21.649  34.621   2.699
85972W        W57501   7.830  28.964  11.131
85973W        W57502  17.311  35.287  12.617
85974W        W57503   6.914  21.555   3.817
85975W        W57504  13.862   7.181   5.097
85976W        W57505  10.350  20.196  11.830
85977W        W57506  14.098  33.573   0.971
85978W        W57507  38.549  30.510   2.893
85979W        W57508   3.717  18.423  11.304
85980W        W57509  19.802   4.909   4.162
85981W        W57510  19.982  36.929  14.356
85982W        W57511  31.119  21.637  13.887
85983W        W57512  36.703  13.780   4.204
85984W        W57513  16.941  25.412   2.231
85985W        W57514  30.712   2.447  13.096
85986W        W57515  44.156  27.025   2.953
85987W        W57516  21.331  34.624  10.252
85988W        W57517  21.597   7.730   2.660
85989W        W57518  31.174   2.249  12.864
85990W        W57519  19.437   4.450  14.311
85991W        W57520  18.599  43.944  14.606
85992W        W57521  10.920  43.446   2.526
85993W        W57522  26.633   1.922  10.023
85994W        W57523  21.593   1.280  10.907
85995W        W57524  27.212  31.115   1.379
85996W        W57525  25.186   2.952   2.722
85997W        W57526   5.231  41.771  12.474
85998W        W57527   0.208  31.025  12.892
85999W        W57528   1.348  35.598   2.729
86000W        W57529  15.471   1.982  11.151
86001W        W57530  30.928  39.422   0.432
86002W        W57531  44.988  28.444  10.566
86003W        W57532  18.184  25.506   4.598
86004W        W57533  12.744  22.530   2.740
86005W        W57534  38.214  36.406   0.804
86006W        W57535  17.851   3.265  11.952
86007W        W57536  22.077  24.057  12.348
86008W        W57537  34.176  29.041  14.385
86009W        W57538  10.399  24.625   1.512
86010W        W57539  29.204   0.943   3.163
86011W        W57540  21.176  41.967  13.344
86012W        W57541   2.765  35.463   2.345
86013W        W57542   9.201  21.539  14.291
86014W        W57543  33.338   8.247  14.325
86015W        W57544  12.836   8.813  11.043
86016W        W57545  25.254  10.812   4.632
86017W        W57546  35.797   4.030   4.282
86018W        W57547  35.533   0.644   1.914
86019W        W57548   4.215  34.162   4.041
86020W        W57549  39.468   5.266  11.370
86021W        W57550  29.275   7.306   0.512
86022W        W57551   2.191  14.683  14.444
86023W        W57552  32.157  13.076   1.327
86024W        W57553  33.856  14.131   5.062
86025W        W57554  28.355  18.655   4.396
86026W        W57555   6.338  33.451   3.106
86027W        W57556   5.467  15.752   4.143
86028W        W57557   5.357  30.428  10.694
86029W        W57558   1.848  34.491   3.573
86030W        W57559   7.329  23.825   0.066
86031W        W57560  30.096  24.934  14.322
86032W        W57561   2.474  10.744   0.139
86033W        W57562  15.220  41.806   4.424
86034W        W57563  37.416  31.231  14.999
86035W        W57564  21.990  30.056  14.357
86036W        W57565  29.100  24.051   0.730
86037W        W57566  31.843  40.056   0.623
86038W        W57567  15.259  40.786   1.651
86039W        W57568  41.608  25.711   2.623
86040W        W57569  16.319  16.238  11.433
86041W        W57570  38.557   4.247   0.278
86042W        W57571  25.845  40.198  12.500
86043W        W57572  42.846  34.846   2.672
86044W        W57573  36.367  33.175  14.329
86045W        W57574  22.025  12.462  11.139
86046W        W57575   3.789  36.689  14.846
86047W        W57576  32.593  27.462   1.738
86048W        W57577  42.319  26.901  14.010
86049W        W57578  32.321   9.553   1.764
86050W        W57579  30.799  37.288   2.228
86051W        W57580  10.321  27.938  12.874
86052W        W57581  29.738  38.414   1.398
86053W        W57582  25.035   0.972   4.576
86054W        W57583  18.678  41.341   2.617
86055W        W57584  29.543  11.747  11.149
86056W        W57585  42.293  36.525  13.646
86057W        W57586  32.211   7.239   4.125
86058W        W57587  35.303   3.713   1.871
86059W        W57588  32.655  13.732  12.958
86060W        W57589  26.689   7.395  14.316
86061W        W57590   0.945  16.365  14.874
86062W        W57591  11.755  18.607  11.027
86063W        W57592  16.051  19.487   4.989
86064W        W57593  39.333  20.008  11.763
86065W        W57594  26.166  18.185   1.479
86066W        W57595  20.673  13.078  12.418
86067W        W57596   5.396  23.114  13.016
86068W        W57597  42.882  39.259  13.353
86069W        W57598   5.354  11.643   3.825
86070W        W57599  19.268   0.616  14.869
86071W        W57600   7.988   5.902  13.135
86072W        W57601   6.846   1.048  14.909
86073W        W57602  19.529  36.925   0.428
86074W        W57603  35.775  14.173   2.740
86075W        W57604  35.046  33.314  14.435
86076W        W57605  27.551  22.930  14.508
86077W        W57606  41.254  42.064   3.234
86078W        W57607   5.905  32.728   2.906
86079W        W57608  25.543  43.283  14.814
86080W        W57609  43.904  24.198   1.169
86081W        W57610   3.444  36.021  11.021
86082W        W57611  41.309   7.838   0.666
86083W        W57612   0.681  24.379  13.321
86084W        W57613   9.843  44.047  14.643
86085W        W57614  13.547  19.656   0.266
86086W        W57615  11.217  28.742  14.938
86087W        W57616  40.485  10.753   3.341
86088W        W57617  43.965  27.403   1.298
86089W        W57618  26.577  32.234   1.898
86090W        W57619  33.035  25.237  12.138
86091W        W57620  41.055  24.261  11.606
86092W        W57621   9.747   0.276  13.449
86093W        W57622  44.053   8.116  12.017
86094W        W57623  31.984   1.785   2.691
86095W        W57624  14.340  18.657  11.002
86096W        W57625  41.394   3.003  14.053
86097W        W57626  20.724  42.204  13.080
86098W        W57627  24.500   0.916   4.637
86099W        W57628  35.775  30.167  14.839
86100W        W57629  41.840   1.401   2.657
86101W        W57630   1.781  42.992  11.217
86102W        W57631  25.532   3.275  14.727
86103W        W57632  30.012  32.061  12.014
86104W        W57633   2.955  18.244   1.687
86105W        W57634  42.945  22.094  10.666
86106W        W57635   6.646   1.806   0.827
86107W        W57636   0.867  26.019  14.895
86108W        W57637  19.006   6.433   0.518
86109W        W57638  33.228  18.368  14.450
86110W        W57639  38.896   1.565   5.116
86111W        W57640  25.634   9.238  10.994
86112W        W57641   7.798  13.609  13.997
86113W        W57642  24.750  17.779  14.842
86114W        W57643  21.803  17.698   3.224
86115W        W57644  29.421  33.322  13.599
86116W        W57645  15.142  41.933  10.994
86117W        W57646  44.499  36.962  13.308
86118W        W57647   1.344  42.260  12.368
86119W        W57648  39.374   2.541  14.758
86120W        W57649  16.043  12.451  12.003
86121W        W57650  28.179  29.972  10.811
86122W        W57651  41.897  37.085  12.365
86123W        W57652  26.193   6.394   1.803
86124W        W57653  36.680  37.403   2.330
86125W        W57654   8.383  32.058  11.102
86126W        W57655  35.469  23.404   0.348
86127W        W57656  29.172  39.647   0.875
86128W        W57657  23.623  30.502  10.669
86129W        W57658  40.979  24.078  13.353
86130W        W57659   3.798  33.813  14.486
86131W        W57660  23.108  31.805   1.446
86132W        W57661  37.638  27.309  12.267
86133W        W57662   2.495  12.975   1.750
86134W        W57663  18.974  24.768   0.015
86135W        W57664  30.567  14.381   3.824
86136W        W57665  44.550  28.941  13.438
86137W        W57666  41.471  24.734  12.643
86138W        W57667  44.850  42.371   2.298
86139W        W57668   6.728  13.176  12.485
86140W        W57669  35.514   7.385  12.710
86141W        W57670   8.222   8.140   0.295
86142W        W57671  22.077  20.147   0.487
86143W        W57672  35.111  30.600  13.499
86144W        W57673  18.664   4.443   3.175
86145W        W57674  19.533  28.424   2.879
86146W        W57675  17.784  18.154   3.253
86147W        W57676  22.472  16.693  12.975
86148W        W57677  43.268  26.255  10.637
86149W        W57678  34.986  16.317  12.269
86150W        W57679  28.862   3.786   0.033
86151W        W57680  39.817  38.824   1.477
86152W        W57681  24.109  26.307  12.421
86153W        W57682  12.279  38.169  11.554
86154W        W57683  17.758  25.643   3.413
86155W        W57684  38.462  41.528  10.939
86156W        W57685  24.270  40.349  11.658
86157W        W57686   4.336  30.207   3.248
86158W        W57687  19.879  11.049   1.804
86159W        W57688  26.923  10.915  13.933
86160W        W57689  15.771   5.769  10.014
86161W        W57690  43.964  31.090   0.161
86162W        W57691  43.784  27.420  12.450
86163W        W57692  40.062  14.948  11.535
86164W        W57693  38.748   1.882  12.644
86165W        W57694  11.833   8.660  10.825
86166W        W57695   2.229  18.085  11.619
86167W        W57696  13.970  27.107  13.447
86168W        W57697  16.295   4.907  13.886
86169W        W57698   9.309  15.976  11.461
86170W        W57699   6.736   1.593  14.959
86171W        W57700  18.263   7.966   2.306
86172W        W57701  32.458  21.006  12.532
86173W        W57702  32.989  25.833  13.711
86174W        W57703  38.934  13.109   0.231
86175W        W57704  33.418   8.329  14.823
86176W        W57705  24.076  35.648   3.128
86177W        W57706  33.435   2.027   2.537
86178W        W57707  17.622  40.398  12.967
86179W        W57708  10.671  42.456  14.633
86180W        W57709  21.999  27.514   3.938
86181W        W57710   6.794   2.875  14.711
86182W        W57711  13.389  10.498  12.406
86183W        W57712  35.083  17.347  12.605
86184W        W57713   9.620  35.053   1.814
86185W        W57714  36.809  16.147  12.876
86186W        W57715  42.132  21.801   2.725
86187W        W57716  12.584  26.127  13.046
86188W        W57717  43.468  29.270   4.537
86189W        W57718  39.802   4.388   4.315
86190W        W57719  35.206  17.539   1.784
86191W        W57720  41.282  12.900  12.952
86192W        W57721   9.710  19.649   2.839
86193W        W57722  32.072  20.571  11.946
86194W        W57723  36.783  36.477  12.939
86195W        W57724  30.264  13.405   3.764
86196W        W57725  20.805  16.606   0.994
86197W        W57726  34.029  36.632  12.847
86198W        W57727  17.669  17.020   0.971
86199W        W57728   1.688  39.170   4.126
86200W        W57729  26.382  18.497  11.191
86201W        W57730  15.729  30.564  10.593
86202W        W57731   3.040  22.737   4.482
86203W        W57732  34.326   0.510   3.712
86204W        W57733  37.138  13.614   0.470
86205W        W57734   8.263   7.265  10.767
86206W        W57735   6.413  38.042  11.711
86207W        W57736  24.890   8.415  13.995
86208W        W57737  13.693  19.006  14.558
86209W        W57738   6.773   1.377  14.509
86210W        W57739  32.430  14.850  13.467
86211W        W57740  35.476  20.840   2.794
86212W        W57741  35.562  36.766  12.638
86213W        W57742  15.132   6.781  12.325
86214W        W57743  32.431  16.982  14.305
86215W        W57744   0.542  10.166  11.420
86216W        W57745  15.047  14.286   1.297
86217W        W57746  30.482  42.854  14.353
86218W        W57747   7.627  11.974  12.999
86219W        W57748  14.092   7.217   3.858
86220W        W57749  37.533  16.972   1.760
86221W        W57750   7.411  27.525   2.814
86222W        W57751  19.567  42.311   0.141
86223W        W57752  38.870  28.963  11.957
86224W        W57753   9.370  16.788  12.309
86225W        W57754  19.987  13.817  11.610
86226W        W57755  39.335  26.182  14.931
86227W        W57756  31.761   7.447  14.714
86228W        W57757  30.842   6.131  11.112
86229W        W57758  23.237  34.501  11.529
86230W        W57759  21.503  28.918  11.942
86231W        W57760  31.502  26.435   2.313
86232W        W57761  42.865  29.416   2.855
86233W        W57762  41.276   9.838   3.724
86234W        W57763  11.636   8.376   0.322
86235W        W57764  20.522  35.451   3.161
86236W        W57765  29.645   8.142   1.130
86237W        W57766  26.972  18.665   0.392
86238W        W57767   1.964  30.113  10.330
86239W        W57768  27.244  33.823  14.005
86240W        W57769   0.440  10.125  14.259
86241W        W57770  35.645  42.953   0.915
86242W        W57771   2.815  13.744  13.967
86243W        W57772  13.174  23.336   1.323
86244W        W57773  15.129  20.782   2.727
86245W        W57774  29.988  33.837  11.644
86246W        W57775   9.374   3.941   3.230
86247W        W57776  25.612   4.133   1.424
86248W        W57777  23.026   7.576   3.598
86249W        W57778   1.567  43.874   2.649
86250W        W57779  31.799  35.525  12.095
86251W        W57780   6.409  27.441  13.009
86252W        W57781   4.518  20.596  14.517
86253W        W57782  20.219  32.906  14.474
86254W        W57783  17.382  22.583   4.172
86255W        W57784  40.090  17.803   0.474
86256W        W57785  39.104  25.752   0.816
86257W        W57786  21.287  14.991   3.889
86258W        W57787   4.841   7.906  12.130
86259W        W57788  43.418  24.290   2.828
86260W        W57789  21.764   5.382  12.341
86261W        W57790   7.483  14.777  10.846
86262W        W57791  20.134  21.587   3.440
86263W        W57792  21.091  10.436   2.776
86264W        W57793  32.660  19.006   3.428
86265W        W57794  27.958  30.181   3.498
86266W        W57795  36.610   4.708  10.355
86267W        W57796  11.351  20.697  13.528
86268W        W57797  12.262   0.314  11.259
86269W        W57798   0.161  30.939  13.882
86270W        W57799   6.595  20.048   0.975
86271W        W57800  43.032   3.507   3.749
86272W        W57801  27.069  22.053   3.194
86273W        W57802   7.939  27.099   2.116
86274W        W57803  11.070  26.437  11.570
86275W        W57804  35.496  11.240   2.863
86276W        W57805  41.288  25.096  13.996
86277W        W57806   2.842  41.408  12.577
86278W        W57807   8.607   3.863  11.973
86279W        W57808  13.936  28.990  12.884
86280W        W57809  18.870   4.118   1.017
86281W        W57810  12.202  37.668   3.630
86282W        W57811  12.714  17.627  11.112
86283W        W57812  40.294  17.225   3.055
86284W        W57813   6.298   6.276  12.547
86285W        W57814  42.113  24.009  10.845
86286W        W57815  30.729  29.379  14.332
86287W        W57816  39.605   5.047   4.455
86288W        W57817  37.532  37.743   0.765
86289W        W57818   3.896  28.063   4.538
86290W        W57819  32.605  26.711   1.415
86291W        W57820  10.650  30.088  13.151
86292W        W57821   4.801  37.315  12.106
86293W        W57822   5.963  23.136   3.505
86294W        W57823  20.615  23.713   0.874
86295W        W57824   5.219  41.909   3.742
86296W        W57825   2.975  22.119   3.295
86297W        W57826  29.308  35.948   4.951
86298W        W57827  18.681   9.579  10.081
86299W        W57828  37.853  19.585  14.559
86300W        W57829  44.614  37.804  13.859
86301W        W57830   8.739  43.728  13.549
86302W        W57831  32.983  35.182  14.405
86303W        W57832  25.658  17.582   3.146
86304W        W57833  20.456  10.666  12.899
86305W        W57834  18.652  42.018   0.921
86306W        W57835  34.196  11.102   0.506
86307W        W57836  40.791  25.095  12.492
86308W        W57837  14.858  20.095  11.579
86309W        W57838  41.920  14.580   0.817
86310W        W57839  38.239  28.870  11.171
86311W        W57840   8.003  32.596   0.224
86312W        W57841  20.480  41.966  12.101
86313W        W57842   4.189  24.250   4.699
86314W        W57843  41.894  11.804  10.100
86315W        W57844   9.332  28.043  14.382
86316W        W57845   5.956  15.035   0.247
86317W        W57846  38.915  26.211   0.985
86318W        W57847  23.202  26.935   3.130
86319W        W57848   5.444  24.365  13.502
86320W        W57849  27.852  34.384   0.869
86321W        W57850  29.783  25.601  10.808
86322W        W57851   4.363  18.730   1.417
86323W        W57852  23.715   1.809   1.885
86324W        W57853  20.520  30.440   0.448
86325W        W57854   0.614   1.870   5.228
86326W        W57855  17.046  13.274  14.281
86327W        W57856  26.456  23.694   3.846
86328W        W57857  19.664  27.173  14.401
86329W        W57858  30.540   2.500   1.817
86330W        W57859  34.395  24.409   3.766
86331W        W57860  17.968  15.661   2.117
86332W        W57861  17.105  12.074   3.818
86333W        W57862  17.080   9.063   1.773
86334W        W57863  18.769   7.658   3.569
86335W        W57864  20.136   9.119   2.819
86336W        W57865  40.602  25.083  12.988
86337W        W57866  39.584  36.068  13.031
86338W        W57867  22.091  13.748   2.942
86339W        W57868   3.377  22.625  13.780
86340W        W57869  19.202  39.456  12.934
86341W        W57870   9.314  21.256  12.624
86342W        W57871  22.936  40.815  12.512
86343W        W57872  30.991  23.582   3.778
86344W        W57873   8.861  39.968   3.840
86345W        W57874   3.847  12.803  11.115
86346W        W57875  41.137   5.921   1.764
86347W        W57876  27.652  35.298   1.808
86348W        W57877  12.126  36.823   0.678
86349W        W57878   6.671  15.267   2.599
86350W        W57879  33.756  34.035   3.229
86351W        W57880  20.854  18.639   4.604
86352W        W57881  10.743  22.510  10.560
86353W        W57882  37.987   2.995  14.253
86354W        W57883  12.961  36.983  11.544
86355W        W57884   5.781  31.914   1.872
86356W        W57885  38.517   4.858   1.416
86357W        W57886  11.924  17.966  12.179
86358W        W57887  30.589  27.191  12.249
86359W        W57888  38.384  32.397   4.416
86360W        W57889  41.461  33.024  14.953
86361W        W57890  43.831  23.981  11.524
86362W        W57891   6.839  15.242  10.792
86363W        W57892  23.664   3.637   1.843
86364W        W57893   4.018  44.922   3.641
86365W        W57894   6.934  13.739   4.066
86366W        W57895  30.891  15.267  11.555
86367W        W57896  21.782  42.094   0.146
86368W        W57897  39.880  40.387   1.259
86369W        W57898  30.133  13.034   0.858
86370W        W57899  17.100  34.455  10.627
86371W        W57900  28.058  21.088  10.637
86372W        W57901  18.756  13.710  11.030
86373W        W57902   6.591   4.394  14.739
86374W        W57903  29.036  26.700  14.843
86375W        W57904  25.934  35.122   0.891
86376W        W57905  33.560   9.818  11.567
86377W        W57906  14.074  12.028   5.062
86378W        W57907  11.402   3.924   1.269
86379W        W57908  19.680  12.694  11.036
86380W        W57909   7.464  21.655   3.791
86381W        W57910   2.201  10.764  13.511
86382W        W57911   6.185   2.288   3.810
86383W        W57912  23.265  41.560   3.840
86384W        W57913  14.900  37.055   4.228
86385W        W57914  26.469  35.512   4.590
86386W        W57915  26.102  24.245  11.616
86387W        W57916   5.028   8.848  11.197
86388W        W57917  44.304  41.971  14.877
86389W        W57918   4.270  19.382   5.025
86390W        W57919  42.507   9.817   2.377
86391W        W57920  18.913  28.559   0.256
86392W        W57921  42.420  24.947   4.583
86393W        W57922  36.074  33.011   2.783
86394W        W57923  39.505  11.005   3.651
86395W        W57924  11.407   1.542  13.997
86396W        W57925  41.437  40.483  14.122
86397W        W57926  31.854   8.187   2.200
86398W        W57927  39.396  35.030   4.204
86399W        W57928  22.200  34.104   4.573
86400W        W57929   0.850   8.258  14.338
86401W        W57930  39.550  15.037   4.906
86402W        W57931  35.647  21.878  14.930
86403W        W57932  38.046  25.097  12.114
86404W        W57933  29.237  13.402   4.485
86405W        W57934  38.906  14.204  12.432
86406W        W57935   1.433  13.601   1.350
86407W        W57936  26.625  43.197   2.206
86408W        W57937  30.704  29.043   2.284
86409W        W57938   1.349  17.224  12.892
86410W        W57939  25.559  11.055   2.310
86411W        W57940   9.834  39.539   3.299
86412W        W57941   2.522  18.257  12.009
86413W        W57942   2.486  39.234  10.715
86414W        W57943   2.614  20.112  10.696
86415W        W57944  19.480  35.968   4.475
86416W        W57945   7.159  30.393   3.671
86417W        W57946  39.951  40.302  13.474
86418W        W57947  17.936  25.143  11.153
86419W        W57948   9.715  22.132   3.677
86420W        W57949   7.613  23.618   4.100
86421W        W57950  18.362  21.496  14.362
86422W        W57951   2.285  13.582   4.629
86423W        W57952   3.200  26.206   1.907
86424W        W57953   9.290  21.168  14.968
86425W        W57954   7.804  33.676   3.596
86426W        W57955  41.455  25.543  13.084
86427W        W57956  27.496  20.552   4.421
86428W        W57957  14.236  16.474  13.507
86429W        W57958  19.130  21.349   0.775
86430W        W57959  32.190  37.821  13.803
86431W        W57960  28.838  39.786   3.693
86432W        W57961   8.892  42.580  12.409
86433W        W57962   2.625   5.356  10.569
86434W        W57963   3.901  22.100   1.353
86435W        W57964  19.008  31.305  12.551
86436W        W57965  13.616  13.784   0.278
86437W        W57966  18.751   5.450  12.958
86438W        W57967  15.832  10.341   0.892
86439W        W57968  29.149  30.983  11.656
86440W        W57969  11.891  35.540  14.355
86441W        W57970  18.637  22.197  13.900
86442W        W57971  38.769  44.171  13.457
86443W        W57972  38.260  32.198  11.623
86444W        W57973  44.284  15.361  10.720
86445W        W57974   0.019  44.890   4.399
86446W        W57975  13.038   1.471   2.342
86447W        W57976   4.496  19.892   4.257
86448W        W57977   5.298   8.216   0.392
86449W        W57978  26.031  33.410  12.948
86450W        W57979  23.033  43.370  14.877
86451W        W57980  26.604  14.235  14.283
86452W        W57981  32.132  36.456   3.693
86453W        W57982  41.164   8.251  13.972
86454W        W57983  31.455  41.097  12.834
86455W        W57984  12.866  14.804   2.809
86456W        W57985  13.711  39.311   0.281
86457W        W57986  38.912   0.732  14.510
86458W        W57987  29.490   8.514  12.198
86459W        W57988  21.282  30.955   3.771
86460W        W57989  10.686  33.130   3.342
86461W        W57990  40.772   7.299   1.781
86462W        W57991   4.228   8.251  13.992
86463W        W57992  27.065  30.932   0.351
86464W        W57993  36.096   9.057   0.001
86465W        W57994  18.633  38.120   3.198
86466W        W57995   1.460  18.303   2.897
86467W        W57996  24.260   0.430   0.488
86468W        W57997   4.702  15.198   2.405
86469W        W57998  44.908  28.481   4.084
86470W        W57999  27.111   7.623   3.754
86471W        W58000  43.306  38.916   4.133
86472W        W58001   3.411  28.653  11.643
86473W        W58002  11.205   5.244   1.729
86474W        W58003  28.915   5.674   2.167
86475W        W58004  33.259  42.869  12.397
86476W        W58005  20.305   2.155  13.789
86477W        W58006  43.075  30.633  12.488
86478W        W58007  43.545  28.931   2.870
86479W        W58008   9.080  22.187  12.034
86480W        W58009   2.678  15.138   4.428
86481W        W58010  17.206   2.341   1.857
86482W        W58011  34.069  26.180  13.418
86483W        W58012   6.657   8.147   4.903
86484W        W58013   8.232  35.414  11.411
86485W        W58014  18.258  40.142  12.581
86486W        W58015  16.645  19.063  10.603
86487W        W58016  17.688  44.492  10.035
86488W        W58017  19.211  13.009  10.804
86489W        W58018  42.131  36.288  11.719
86490W        W58019   1.931  22.595  13.815
86491W        W58020  28.585  38.871   4.805
86492W        W58021   6.010  42.047  12.129
86493W        W58022   7.251  33.220  14.784
86494W        W58023   1.663   0.362  12.588
86495W        W58024   3.141  24.774   4.390
86496W        W58025  44.696  18.623   3.743
86497W        W58026   9.268  42.470  10.656
86498W        W58027  38.803   7.889  11.137
86499W        W58028   0.799  24.554   4.593
86500W        W58029  41.855  29.939   1.488
86501W        W58030  16.382  17.336   0.339
86502W        W58031   6.282   2.874  13.950
86503W        W58032  16.635  12.445  10.698
86504W        W58033  17.994  28.262  11.106
86505W        W58034   6.782  24.188   4.832
86506W        W58035  14.923  19.178   2.628
86507W        W58036  33.450  32.563  14.912
86508W        W58037  10.852   1.795  13.323
86509W        W58038  38.494  40.063   3.740
86510W        W58039  41.997  34.788   3.607
86511W        W58040  26.069  31.553  11.443
86512W        W58041  16.000  40.659  14.735
86513W        W58042  24.718  14.404   0.406
86514W        W58043  25.309  15.641   3.336
86515W        W58044  32.613  36.118   2.482
86516W        W58045  21.456   7.915   3.147
86517W        W58046  10.102  24.189   0.326
86518W        W58047  28.831  11.113   2.767
86519W        W58048  15.530   1.844   4.995
86520W        W58049  11.920  17.529  13.942
86521W        W58050  20.375  26.141  10.924
86522W        W58051  13.144  29.998  13.738
86523W        W58052  32.608  29.953   2.361
86524W        W58053  18.285  32.720  12.116
86525W        W58054  28.425  34.639  13.906
86526W        W58055  29.721  23.630   4.675
86527W        W58056  21.182  32.654   2.277
86528W        W58057  29.259  11.733   2.475
86529W        W58058  24.237  14.679   1.196
86530W        W58059  12.114   7.700   0.027
86531W        W58060  30.939  30.634   0.771
86532W        W58061  18.901   3.740   2.801
86533W        W58062  22.218  36.266  13.789
86534W        W58063  18.144  30.717  13.457
86535W        W58064   3.800   3.065   0.005
86536W        W58065   9.600  25.163   3.858
86537W        W58066   7.868  19.279  11.206
86538W        W58067   9.890   4.867   1.877
86539W        W58068  35.402  44.334   4.577
86540W        W58069  12.768  25.648  13.090
86541W        W58070   3.296  30.208  13.371
86542W        W58071  18.974  19.659  12.648
86543W        W58072  19.508  32.586  11.609
86544W        W58073  36.413  29.423  11.605
86545W        W58074   0.353  15.413  11.979
86546W        W58075  10.120  32.364   1.828
86547W        W58076  24.748   8.952   2.401
86548W        W58077   4.601  24.599  13.380
86549W        W58078  40.063  19.587  14.764
86550W        W58079  44.238  22.748   5.008
86551W        W58080  10.613  21.975   4.130
86552W        W58081  34.544   7.965   3.157
86553W        W58082  42.934   9.722  12.558
86554W        W58083  28.837  12.176  10.762
86555W        W58084  38.983  17.388  12.929
86556W        W58085  15.650  17.790   3.471
86557W        W58086   9.796   7.192   2.492
86558W        W58087  23.641  32.361   3.341
86559W        W58088   9.870  39.986   2.818
86560W        W58089  32.624  35.328   3.066
86561W        W58090  10.452   9.829   0.551
86562W        W58091  43.370  14.755   2.431
86563W        W58092  21.615   2.297  10.492
86564W        W58093  25.085  41.413  10.685
86565W        W58094  12.910  16.712  11.571
86566W        W58095  41.710  26.687   4.190
86567W        W58096   5.539  24.615  13.006
86568W        W58097  43.257  16.111  13.827
86569W        W58098  40.581  12.275   2.230
86570W        W58099  12.625   7.683   2.192
86571W        W58100   7.870  29.148   3.902
86572W        W58101   4.374  20.717   0.807
86573W        W58102  30.673  34.790  10.289
86574W        W58103  43.275  18.630  13.614
86575W        W58104  11.108   9.861  14.902
86576W        W58105  37.829  22.863  13.389
86577W        W58106  42.072  37.832  10.739
86578W        W58107  19.490  32.933  11.120
86579W        W58108  36.059  40.004   1.047
86580W        W58109  31.382  21.975  13.567
86581W        W58110  37.952  29.583  14.949
86582W        W58111  23.229   3.332   2.769
86583W        W58112  19.894   9.201   1.302
86584W        W58113  33.508  39.384   3.109
86585W        W58114  27.999  41.026  13.583
86586W        W58115  26.856  25.133  13.228
86587W        W58116  39.038  28.198   3.646
86588W        W58117   8.545  12.419   2.319
86589W        W58118  42.791  28.027   4.058
86590W        W58119  38.903   4.262   1.296
86591W        W58120   3.169  20.516   0.517
86592W        W58121  19.171  13.226   1.219
86593W        W58122  41.323   2.558  13.786
86594W        W58123  39.398  14.757  11.300
86595W        W58124  37.863  34.118   2.275
86596W        W58125  32.969  12.074  14.275
86597W        W58126  22.147  42.962   0.413
86598W        W58127  43.488  35.807  13.483
86599W        W58128  37.054  38.005  12.357
86600W        W58129  15.886  15.031  11.549
86601W        W58130   3.580  27.438  13.112
86602W        W58131  25.323  17.214  14.486
86603W        W58132  40.582   3.663  12.030
86604W        W58133  25.994  44.066   3.608
86605W        W58134  14.990  13.602  11.473
86606W        W58135   4.764  27.751  12.099
86607W        W58136  36.816   5.655   0.479
86608W        W58137  21.249  44.418   0.076
86609W        W58138  22.546  30.672   3.261
86610W        W58139  30.996  26.242  14.718
86611W        W58140   1.954  29.874  13.503
86612W        W58141   0.885  10.189  13.988
86613W        W58142   9.725   9.782   4.043
86614W        W58143  37.309  13.355  11.652
86615W        W58144  14.584  28.713   3.778
86616W        W58145  41.972  37.879   1.285
86617W        W58146  21.656  28.143  10.626
86618W        W58147   2.526  27.078   4.576
86619W        W58148  25.663  11.455   3.820
86620W        W58149   7.332   8.408   3.633
86621W        W58150  35.097  13.953   3.261
86622W        W58151  44.885   8.472  14.406
86623W        W58152   0.141  36.398  13.750
86624W        W58153  22.781  43.396  13.351
86625W        W58154  27.144  33.142   3.171
86626W        W58155  16.577  28.547  12.107
86627W        W58156   9.230  25.963   4.348
86628W        W58157  40.389  20.700   2.210
86629W        W58158   7.762   2.416   3.107
86630W        W58159  42.758   9.805  11.040
86631W        W58160   8.395   6.238   4.760
86632W        W58161  17.227  30.493   1.192
86633W        W58162   4.309  35.889  10.703
86634W        W58163  44.426   0.301  12.354
86635W        W58164  33.948   3.502   3.699
86636W        W58165  30.600  16.584   9.768
86637W        W58166   1.373  33.477  11.627
86638W        W58167   2.121  32.634  11.201
86639W        W58168   6.501  32.392  14.286
86640W        W58169   3.800  44.029   2.904
86641W        W58170  28.061  26.099   1.157
86642W        W58171  12.243  33.378   3.955
86643W        W58172  23.008  11.736  12.590
86644W        W58173  17.553  41.976   2.822
86645W        W58174  37.272  12.202   0.377
86646W        W58175  11.635   2.021  14.035
86647W        W58176  30.656  31.290   4.862
86648W        W58177  15.902  29.419  13.481
86649W        W58178   6.642  31.506   2.856
86650W        W58179  14.182  23.488  10.968
86651W        W58180  37.365  40.689   2.887
86652W        W58181   5.294  43.060   1.806
86653W        W58182  30.144  43.704   1.198
86654W        W58183  33.904  13.338  13.280
86655W        W58184  14.332  14.419   2.779
86656W        W58185  13.070  24.145  13.507
86657W        W58186  22.623  35.421  10.750
86658W        W58187  32.098  42.569   5.009
86659W        W58188  13.070   4.341   0.772
86660W        W58189  28.960  40.936   1.333
86661W        W58190  40.346  31.020   2.672
86662W        W58191  21.308  23.560   4.117
86663W        W58192  40.310  36.009   3.309
86664W        W58193  18.950  21.010  12.372
86665W        W58194  12.762  23.624   1.151
86666W        W58195   5.638  38.502   3.701
86667W        W58196  13.536  22.272  13.134
86668W        W58197  28.149  36.894   2.692
86669W        W58198  22.957  29.747   4.553
86670W        W58199  38.150  11.259  13.535
86671W        W58200   4.015  16.261  11.584
86672W        W58201  16.826  30.452   4.088
86673W        W58202  16.598  40.333  13.939
86674W        W58203  10.314   8.842   1.342
86675W        W58204  25.209  22.248   1.247
86676W        W58205   5.009  11.618   2.305
86677W        W58206  26.480  39.694   4.294
86678W        W58207  13.327  13.864  13.221
86679W        W58208   8.830  33.842   0.184
86680W        W58209  44.766  15.851   3.347
86681W        W58210  25.380   5.165  11.481
86682W        W58211  34.840   2.529  14.784
86683W        W58212  41.023  41.436  14.717
86684W        W58213  42.470   6.702  13.282
86685W        W58214  40.031  32.101  13.957
86686W        W58215   3.239  26.048   4.570
86687W        W58216  30.139  36.594  13.441
86688W        W58217  42.735  22.839   2.661
86689W        W58218  39.793   4.357   3.783
86690W        W58219   1.288  20.665   3.796
86691W        W58220   7.848   5.392  11.645
86692W        W58221  29.356  10.657  11.573
86693W        W58222  27.117  26.484  12.117
86694W        W58223  15.173  39.509   4.543
86695W        W58224  16.600  32.507  11.450
86696W        W58225  15.218  26.104   3.425
86697W        W58226   5.258   3.994   3.743
86698W        W58227   4.329   1.176   2.376
86699W        W58228  15.148  13.196   4.298
86700W        W58229   8.636  23.104   1.869
86701W        W58230  38.106  23.956  13.080
86702W        W58231  12.660   1.100   0.445
86703W        W58232   3.961   3.738   1.268
86704W        W58233   8.937   7.678   4.577
86705W        W58234  39.056  16.639   4.567
86706W        W58235  20.519  26.422  14.908
86707W        W58236  43.537  18.712  11.177
86708W        W58237  40.520  21.511   3.372
86709W        W58238  40.826   6.721  13.913
86710W        W58239  10.123   0.033   0.363
86711W        W58240  39.246   8.092   4.520
86712W        W58241   6.262  39.017   3.162
86713W        W58242  43.148  10.813   0.002
86714W        W58243   1.540  42.004   1.679
86715W        W58244  22.123  14.848   1.389
86716W        W58245  31.126   3.109   2.384
86717W        W58246  23.733   4.813  13.805
86718W        W58247  22.154  36.008  13.340
86719W        W58248  44.534  14.423   0.774
86720W        W58249  23.194  33.667   4.156
86721W        W58250   6.773  11.136  11.102
86722W        W58251  37.422  34.027   4.126
86723W        W58252  16.286  10.405  14.488
86724W        W58253   8.867   3.895  12.409
86725W        W58254   2.282  33.711  12.160
86726W        W58255   0.007  42.843  13.415
86727W        W58256   0.019   6.339   3.757
86728W        W58257  19.825  35.870   1.934
86729W        W58258  30.720  32.439   0.352
86730W        W58259   6.462   3.795  13.506
86731W        W58260  25.639  41.266   1.384
86732W        W58261   6.843  30.748  10.635
86733W        W58262  37.251  41.875  11.840
86734W        W58263  32.894  18.550  12.491
86735W        W58264  33.304   9.132   9.797
86736W        W58265   9.760  44.451   0.493
86737W        W58266  31.068  34.943  13.838
86738W        W58267   2.492  35.335  11.646
86739W        W58268  34.476  33.966  10.409
86740W        W58269  15.313   2.811   4.406
86741W        W58270  28.862  43.457   4.212
86742W        W58271  30.956  11.320  10.539
86743W        W58272  38.083  39.575  11.692
86744W        W58273   4.385  29.716   2.365
86745W        W58274  16.679  37.064  14.079
86746W        W58275  33.899  17.041   3.180
86747W        W58276  13.390  14.325   2.286
86748W        W58277  42.945  10.642   0.711
86749W        W58278  34.443   1.451  12.902
86750W        W58279  44.273  18.702   2.299
86751W        W58280  43.445  12.308   0.975
86752W        W58281  21.652  26.658   0.295
86753W        W58282  14.521  43.904  10.888
86754W        W58283   1.494  27.190   3.295
86755W        W58284  18.297  25.770  11.676
86756W        W58285  27.100   7.881   0.937
86757W        W58286  19.268  31.287  10.680
86758W        W58287  10.946  27.448  11.416
86759W        W58288  19.535  16.754  10.575
86760W        W58289   6.254  24.786   4.492
86761W        W58290  12.039  41.785   1.854
86762W        W58291  23.538  31.578  12.392
86763W        W58292   9.322  41.058  14.964
86764W        W58293  14.172  26.653  13.463
86765W        W58294  10.732  18.616   2.350
86766W        W58295  26.714  20.729   2.894
86767W        W58296  43.068  13.614   3.193
86768W        W58297  33.455  20.546   0.705
86769W        W58298   8.681  32.522   2.850
86770W        W58299  16.758   1.888  11.355
86771W        W58300  34.415  38.524  13.229
86772W        W58301  11.673   3.263  11.616
86773W        W58302  41.483  13.371   0.241
86774W        W58303  39.257  33.780   1.275
86775W        W58304   8.828  18.218   4.117
86776W        W58305   7.571  43.041  14.222
86777W        W58306  11.861  28.677   4.255
86778W        W58307  21.366  42.256  14.860
86779W        W58308  33.565   1.642  11.194
86780W        W58309  41.907  35.726   2.349
86781W        W58310  37.240  11.173   3.382
86782W        W58311  34.687  19.704   2.725
86783W        W58312  33.666  23.134  13.909
86784W        W58313  21.504  42.553   4.736
86785W        W58314  11.347  21.840   3.402
86786W        W58315  19.498  11.852  10.732
86787W        W58316  18.254  19.115  12.391
86788W        W58317  18.946  24.974  11.019
86789W        W58318  25.600  43.859  10.747
86790W        W58319   2.972  25.058  13.902
86791W        W58320  41.045  12.986  11.681
86792W        W58321   6.243  42.914   2.494
86793W        W58322   4.700  14.110  11.494
86794W        W58323   1.988   6.874  12.343
86795W        W58324  11.626  28.591   1.202
86796W        W58325  41.284   1.382  11.571
86797W        W58326  34.955  27.602   0.346
86798W        W58327  22.893   0.007   0.310
86799W        W58328  15.571  15.160   1.274
86800W        W58329   0.911  44.058  13.495
86801W        W58330   1.214  17.693  14.907
86802W        W58331  33.775   8.305   2.260
86803W        W58332  36.223  24.601  11.023
86804W        W58333   2.903  11.190  11.523
86805W        W58334  31.644  12.403   4.547
86806W        W58335  43.253  24.608   4.523
86807W        W58336   2.388  44.930  12.495
86808W        W58337  27.546  33.855  14.421
86809W        W58338  12.699  23.235   2.441
86810W        W58339  12.383  36.904   1.453
86811W        W58340  16.029  13.195   2.321
86812W        W58341   0.081   9.205   2.667
86813W        W58342  23.445  19.466  13.927
86814W        W58343  32.064   0.969  12.803
86815W        W58344  14.888  15.873  14.063
86816W        W58345  38.143  37.165   3.716
86817W        W58346  38.362   9.615  14.067
86818W        W58347  28.466  19.074   1.250
86819W        W58348  31.477   5.205  13.422
86820W        W58349  24.714  40.408   1.410
86821W        W58350  18.377  21.781   2.135
86822W        W58351  31.695  13.775   1.324
86823W        W58352  37.511  11.570  10.671
86824W        W58353  36.380   4.153   3.724
86825W        W58354   3.301  26.695  10.711
86826W        W58355  43.775  39.291  11.648
86827W        W58356  25.897   6.699   2.260
86828W        W58357  41.442  26.546  13.525
86829W        W58358  32.690  39.795   0.353
86830W        W58359  18.023   3.478  14.865
86831W        W58360   3.007  44.399   2.372
86832W        W58361  35.358  21.578   2.356
86833W        W58362  17.282   2.450  10.846
86834W        W58363  44.031  36.016  12.412
86835W        W58364   7.405  22.006   3.186
86836W        W58365  17.724  10.011   2.390
86837W        W58366  13.905   3.811   0.458
86838W        W58367  11.179   2.260  10.726
86839W        W58368  35.481  21.394   1.868
86840W        W58369  22.547   3.397  10.670
86841W        W58370   0.217  32.850  13.003
86842W        W58371  27.414  39.346   0.482
86843W        W58372   9.717  39.792  14.884
86844W        W58373  29.579  21.212   4.397
86845W        W58374   3.868  19.261   2.369
86846W        W58375  34.124  20.682  13.971
86847W        W58376  22.091  34.471   1.863
86848W        W58377  39.921  26.752  12.971
86849W        W58378   0.172  14.701   2.179
86850W        W58379  43.626  17.391  10.457
86851W        W58380  10.744  19.722   0.998
86852W        W58381  18.537  17.364   1.070
86853W        W58382  22.785  43.677   3.412
86854W        W58383  23.746  13.546  13.774
86855W        W58384  17.287  23.578  13.326
86856W        W58385  40.961  42.043   2.803
86857W        W58386  44.290  24.684   4.653
86858W        W58387  39.001  36.826  13.390
86859W        W58388   7.231  40.816  11.630
86860W        W58389  41.532  38.104  13.936
86861W        W58390  10.376  26.630   0.438
86862W        W58391   2.699  43.242  13.523
86863W        W58392  21.736  11.251   2.012
86864W        W58393  17.210  28.040   3.754
86865W        W58394  28.530  41.565  11.554
86866W        W58395  11.874  40.437  11.619
86867W        W58396  11.527  16.638  14.253
86868W        W58397  33.850  23.275   1.922
86869W        W58398  35.469  15.632  12.362
86870W        W58399   2.342  25.167  12.596
86871W        W58400  35.539  43.218  11.436
86872W        W58401  18.561   8.254   0.983
86873W        W58402  41.372   8.704  12.385
86874W        W58403  15.037  28.151  14.000
86875W        W58404  27.481  36.555  14.250
86876W        W58405  39.942  10.433   0.266
86877W        W58406  14.946   0.826  11.913
86878W        W58407  41.502   2.742   2.447
86879W        W58408   3.906   8.923   4.477
86880W        W58409   5.836  34.186  11.188
86881W        W58410  33.650  26.168   1.825
86882W        W58411  13.293  25.602   3.180
86883W        W58412  44.311  12.807   3.120
86884W        W58413  33.366  24.611  13.752
86885W        W58414  15.518  18.389   2.836
86886W        W58415  19.721  36.110   3.199
86887W        W58416  31.553  19.952   0.798
86888W        W58417  34.794  22.567   1.822
86889W        W58418  32.862   1.437   4.223
86890W        W58419  44.761  27.915  11.400
86891W        W58420  29.423  17.566   2.753
86892W        W58421  15.853   7.605   4.981
86893W        W58422  35.531   5.646   4.481
86894W        W58423   0.505  13.071   0.028
86895W        W58424  20.563  12.830   4.562
86896W        W58425  13.171  24.418  10.449
86897W        W58426  31.524  28.993   2.842
86898W        W58427  12.761   6.735  12.547
86899W        W58428  41.514   8.141   0.281
86900W        W58429   8.416  19.546  13.131
86901W        W58430   7.768  28.169   3.004
86902W        W58431   3.344  22.010  13.121
86903W        W58432  24.610   1.515  12.637
86904W        W58433  40.660  40.989  10.664
86905W        W58434  30.708  37.414   3.623
86906W        W58435  15.107   3.203  11.135
86907W        W58436  30.671  36.404  11.171
86908W        W58437  15.357  24.104   2.290
86909W        W58438  29.289  25.191  12.997
86910W        W58439  31.923  26.028   0.108
86911W        W58440  26.958  31.950   4.132
86912W        W58441  15.199  30.985   4.599
86913W        W58442  29.128   8.323  11.416
86914W        W58443  39.559   8.628   0.027
86915W        W58444  40.489  41.498   2.149
86916W        W58445  11.542  18.850  14.204
86917W        W58446   5.170  24.735   0.922
86918W        W58447   8.733  30.688   0.924
86919W        W58448  40.360  10.325   1.357
86920W        W58449  35.982  29.947  12.057
86921W        W58450   1.723  23.806   3.965
86922W        W58451  18.823  17.815   1.898
86923W        W58452  26.094  37.035   3.781
86924W        W58453   3.213  16.636  10.715
86925W        W58454  20.229   6.349  12.888
86926W        W58455  10.664  34.458   4.508
86927W        W58456  44.899  36.812   1.349
86928W        W58457  24.569  33.605   0.103
86929W        W58458  39.086  23.306   1.362
86930W        W58459  24.238  19.026   3.871
86931W        W58460  39.107  41.585   0.324
86932W        W58461  13.377  35.858   2.300
86933W        W58462  26.108  32.053  11.205
86934W        W58463  20.869   5.310  12.583
86935W        W58464  32.189  42.392  12.154
86936W        W58465  16.826  10.548  13.019
86937W        W58466  29.457  41.821  12.317
86938W        W58467  34.554  35.847  13.671
86939W        W58468  14.670   3.991   4.102
86940W        W58469  15.247  17.649   3.173
86941W        W58470  10.064  31.707   2.752
86942W        W58471  35.530  34.660  14.278
86943W        W58472   1.247  35.617  14.860
86944W        W58473   1.972  29.102   4.323
86945W        W58474  10.147  30.661  13.914
86946W        W58475   1.199  25.377   3.214
86947W        W58476  32.963   7.465  13.093
86948W        W58477  44.560  11.258  12.811
86949W        W58478  42.723  32.338   4.066
86950W        W58479  35.572  34.766   1.407
86951W        W58480  41.731   9.250  14.323
86952W        W58481   9.669  30.125   1.685
86953W        W58482  28.917  28.979  13.976
86954W        W58483  14.706  20.516   1.790
86955W        W58484  43.580  42.484  13.218
86956W        W58485  20.615  14.326  13.782
86957W        W58486   7.929  20.164   2.767
86958W        W58487  18.075  40.939   2.200
86959W        W58488   2.777  35.551   2.876
86960W        W58489  37.057  39.924   0.854
86961W        W58490   0.368  30.764  12.486
86962W        W58491  17.189  39.889   4.555
86963W        W58492  40.567  17.560  14.067
86964W        W58493   0.015  23.798  14.217
86965W        W58494  12.181  44.820   0.423
86966W        W58495   6.918  32.186  13.899
86967W        W58496  10.220  38.150   2.389
86968W        W58497  25.948  15.134  11.318
86969W        W58498   8.711  22.892  14.241
86970W        W58499  23.759   2.268   1.294
86971W        W58500  26.020  18.339  10.873
86972W        W58501  21.761  34.785  12.416
86973W        W58502  37.315   4.323  13.029
86974W        W58503   4.711  41.793  12.524
86975W        W58504   1.904  37.112   0.970
86976W        W58505  38.006   2.846   4.340
86977W        W58506  16.277   8.853   1.413
86978W        W58507  39.333  25.768   2.176
86979W        W58508  30.570   5.707   0.397
86980W        W58509  11.325  11.586   2.840
86981W        W58510  25.796  35.476  11.826
86982W        W58511   1.307  11.586  10.569
86983W        W58512  19.701  30.396   0.025
86984W        W58513  32.512  19.318   2.045
86985W        W58514   9.859  38.687  11.241
86986W        W58515  11.326  28.482   4.039
86987W        W58516  31.154  34.241   1.443
86988W        W58517  40.290   5.365   0.972
86989W        W58518  16.295   2.392  11.191
86990W        W58519  39.945  20.801  11.793
86991W        W58520  12.287  35.074  14.895
86992W        W58521  13.690  22.703  11.018
86993W        W58522  38.503  14.124  11.567
86994W        W58523  35.974  22.733  14.031
86995W        W58524   3.057  30.881   2.486
86996W        W58525  13.887  32.500  14.996
86997W        W58526  10.920  13.264  12.386
86998W        W58527   2.777  17.479   1.227
86999W        W58528  32.435   1.944   1.930
87000W        W58529   3.292   8.292   1.799
87001W        W58530   8.876   5.119  14.235
87002W        W58531  32.905  13.346   0.352
87003W        W58532  22.976  14.852  11.018
87004W        W58533   1.001  22.765   2.879
87005W        W58534  30.475  32.643  11.615
87006W        W58535  32.199  16.172   3.717
87007W        W58536  42.269  13.859   0.734
87008W        W58537  13.850  40.765  11.650
87009W        W58538   5.581  18.523   0.783
87010W        W58539  19.599  29.986  13.544
87011W        W58540  26.083  31.568   2.467
87012W        W58541  11.262  41.860   2.917
87013W        W58542   2.890  22.115  12.866
87014W        W58543  16.682  26.190   2.609
87015W        W58544   1.834  39.050   1.041
87016W        W58545   7.815  14.250  12.457
87017W        W58546   9.267  30.194   0.094
87018W        W58547  27.402  11.428   1.751
87019W        W58548  44.037  32.118   2.859
87020W        W58549   6.161  26.214   2.742
87021W        W58550  14.087   7.358   1.197
87022W        W58551  32.051  15.907   2.683
87023W        W58552  42.441   1.542  12.922
87024W        W58553  17.947  31.923  11.097
87025W        W58554  36.907  15.553   4.995
87026W        W58555  42.910  38.529  14.140
87027W        W58556  34.509  10.937  14.542
87028W        W58557   7.989  15.021   0.258
87029W        W58558  18.160   2.044  14.551
87030W        W58559  10.738  28.497  10.741
87031W        W58560  41.826  18.172  14.046
87032W        W58561   3.810   3.450  11.298
87033W        W58562  30.223   1.311   1.551
87034W        W58563  10.493  13.105   2.004
87035W        W58564  10.387   7.565   4.399
87036W        W58565  11.866  39.370   3.405
87037W        W58566  29.851   6.295   0.216
87038W        W58567  38.425   9.985   1.108
87039W        W58568  31.691  10.303   3.931
87040W        W58569  26.437  14.787   5.040
87041W        W58570  37.572  25.534   1.948
87042W        W58571  22.271  22.457   0.921
87043W        W58572   9.899  20.083  14.795
87044W        W58573  33.595  35.617  12.778
87045W        W58574  19.157   4.205   1.440
87046W        W58575  42.021   7.781   0.304
87047W        W58576  38.988  33.914   0.843
87048W        W58577  37.574  23.395  14.627
87049W        W58578   5.279  19.615   2.163
87050W        W58579   4.881  26.519  13.937
87051W        W58580  18.677  12.810  14.839
87052W        W58581  15.519  24.576  11.549
87053W        W58582  28.136  13.599   1.839
87054W        W58583  34.857  27.037   1.720
87055W        W58584  16.373  41.560  12.201
87056W        W58585  33.814  27.877  10.673
87057W        W58586  25.733  15.188  14.638
87058W        W58587  28.506  29.225   4.164
87059W        W58588  22.623   2.228  12.156
87060W        W58589  22.432  21.625  11.518
87061W        W58590   4.904  17.524  12.900
87062W        W58591  11.059  21.638  13.882
87063W        W58592  11.931  17.725   1.202
87064W        W58593  15.315  12.655   2.155
87065W        W58594  20.510  28.456  12.509
87066W        W58595  44.213  25.610   0.364
87067W        W58596  40.257  26.094  13.937
87068W        W58597  44.680   0.799   0.882
87069W        W58598   5.199  35.489   2.424
87070W        W58599  40.450  33.902  11.155
87071W        W58600  29.574  43.397   3.194
87072W        W58601  40.364  10.403   0.840
87073W        W58602   1.633   3.860   1.918
87074W        W58603  35.112  12.682   5.080
87075W        W58604  23.083   2.983  12.014
87076W        W58605  15.340  23.417   1.686
87077W        W58606   0.450  28.896  13.708
87078W        W58607  14.904  15.135  11.535
87079W        W58608  20.288   8.745  11.640
87080W        W58609  14.046  43.128   2.761
87081W        W58610  35.076  21.343   4.104
87082W        W58611   0.902  36.000  12.159
87083W        W58612  42.750  13.336  14.344
87084W        W58613  25.894   1.475   1.433
87085W        W58614  24.679  34.044   3.672
87086W        W58615  35.027  36.426  11.483
87087W        W58616  21.820  21.693  13.121
87088W        W58617  41.973  31.467  11.848
87089W        W58618  36.960  24.560  11.695
87090W        W58619  37.429  33.374  13.736
87091W        W58620  38.956  28.763   0.372
87092W        W58621  42.840  42.015   1.710
87093W        W58622  10.219  20.354   0.402
87094W        W58623   5.305   2.362  12.974
87095W        W58624  39.536   0.382   0.845
87096W        W58625  29.166  10.402  10.736
87097W        W58626   7.195  35.199  11.175
87098W        W58627  40.510   8.242  14.909
87099W        W58628  15.124  16.063   0.263
87100W        W58629  19.646  25.076  11.217
87101W        W58630  17.344  14.122   3.376
87102W        W58631  37.033  14.772   4.340
87103W        W58632  30.972  42.805  14.547
87104W        W58633   7.395   4.723  14.952
87105W        W58634   5.248  28.691  12.634
87106W        W58635  32.484   1.549   1.410
87107W        W58636  19.500  26.895  14.804
87108W        W58637  23.678  31.243  13.388
87109W        W58638  40.973  34.484  12.625
87110W        W58639  39.359  27.103  14.026
87111W        W58640   8.275  24.909   0.768
87112W        W58641  27.477  36.313   2.181
87113W        W58642  22.484  33.562  14.347
87114W        W58643  40.925   6.664   0.841
87115W        W58644  39.674  26.619   0.817
87116W        W58645  34.151  40.778   0.254
87117W        W58646  14.491  12.826  14.810
87118W        W58647  30.369  16.294  13.995
87119W        W58648  21.802   8.693   0.865
87120W        W58649  44.597  22.079  12.494
87121W        W58650  10.578  29.535  11.532
87122W        W58651  38.079  39.578   3.463
87123W        W58652   8.500   4.206   2.854
87124W        W58653  22.972  42.829   0.810
87125W        W58654  24.233  20.055  13.956
87126W        W58655  33.514  44.044   2.804
87127W        W58656  34.590  20.227  13.227
87128W        W58657  10.849  19.773   2.763
87129W        W58658  35.922  28.971   0.681
87130W        W58659  33.866   5.814  14.090
87131W        W58660  40.662   2.254   2.924
87132W        W58661  34.889  38.176  10.942
87133W        W58662   4.003  24.479  13.465
87134W        W58663  11.132  24.755  12.056
87135W        W58664  14.378  34.459  14.221
87136W        W58665  15.622  30.192  12.957
87137W        W58666  13.769  42.951   2.351
87138W        W58667   1.775  10.681   3.864
87139W        W58668  44.575   5.436   2.242
87140W        W58669  44.954  33.487   0.375
87141W        W58670  17.565   2.778  11.882
87142W        W58671  39.810  39.484   0.181
87143W        W58672  30.446  44.511  14.986
87144W        W58673  25.562  14.920   0.068
87145W        W58674  38.037   3.814  11.967
87146W        W58675  14.085  18.350  11.696
87147W        W58676   4.788  42.752   5.025
87148W        W58677  34.613  42.548   2.743
87149W        W58678  20.429  33.848  13.559
87150W        W58679  31.032   9.221   4.127
87151W        W58680  19.097  15.121   3.178
87152W        W58681  17.103  39.075   2.801
87153W        W58682  18.786   8.248   4.818
87154W        W58683  23.510  26.729   0.755
87155W        W58684  19.726  26.149  12.123
87156W        W58685  21.002   7.892   1.381
87157W        W58686   4.796  42.392  11.597
87158W        W58687  31.404  27.553  12.639
87159W        W58688   6.737  15.296   3.125
87160W        W58689  16.408  20.058  13.068
87161W        W58690  43.237  27.013  14.057
87162W        W58691  44.479  31.855  12.593
87163W        W58692  37.334  24.387   4.133
87164W        W58693   6.103  43.673  12.320
87165W        W58694  28.863  13.213   1.192
87166W        W58695  19.259  38.510   1.742
87167W        W58696  40.566  21.099   5.279
87168W        W58697  26.281  38.468   2.833
87169W        W58698  21.645  17.507   0.356
87170W        W58699  29.674   5.329   1.765
87171W        W58700  38.070  44.780   3.806
87172W        W58701  23.568  23.704   4.611
87173W        W58702  18.760  33.871  11.860
87174W        W58703  15.371  39.487   1.119
87175W        W58704  37.457  30.114   0.107
87176W        W58705   2.055  42.456  10.723
87177W        W58706  32.181  16.709   1.681
87178W        W58707  38.547  11.443  11.488
87179W        W58708  38.085  44.396  11.133
87180W        W58709  31.340   3.706  14.939
87181W        W58710  36.286  28.153  14.474
87182W        W58711  44.484  30.871   4.255
87183W        W58712  30.025  38.542  13.842
87184W        W58713  24.008  15.019  12.142
87185W        W58714  20.570  16.837  10.742
87186W        W58715  17.869  21.906  13.513
87187W        W58716  19.304  24.069  13.528
87188W        W58717  43.414  28.362  11.142
87189W        W58718  23.957  34.040  12.928
87190W        W58719  41.071  40.470  10.661
87191W        W58720  29.969  17.537   4.864
87192W        W58721  37.222  36.277  13.907
87193W        W58722  43.542   0.779   0.476
87194W        W58723  34.024  36.214  11.470
87195W        W58724  15.518  27.623   2.783
87196W        W58725  36.358  33.609  13.007
87197W        W58726  38.963  10.100  10.110
87198W        W58727   2.224  44.380   1.845
87199W        W58728  25.226   2.700  10.974
87200W        W58729  10.658  14.882   0.807
87201W        W58730  21.593  36.388   3.829
87202W        W58731  19.135   2.957  13.047
87203W        W58732  28.268   2.566  12.497
87204W        W58733  16.804  11.161   0.877
87205W        W58734  15.928  39.084  12.932
87206W        W58735  33.091  20.283  10.354
87207W        W58736   8.926  11.577  12.986
87208W        W58737  39.314  10.083   4.627
87209W        W58738  32.788   4.310  13.836
87210W        W58739   8.013   8.430  10.581
87211W        W58740   9.154  17.691  11.873
87212W        W58741  20.414  18.511  12.296
87213W        W58742  40.403   6.285   0.438
87214W        W58743   5.664  42.650   3.429
87215W        W58744  30.401  20.583  13.418
87216W        W58745  42.733  32.149   1.534
87217W        W58746  12.577   6.334  13.313
87218W        W58747  30.822  43.646  13.528
87219W        W58748  43.272  15.726  11.246
87220W        W58749  13.182  43.013   3.208
87221W        W58750  44.696   7.307   1.335
87222W        W58751   3.265  27.235  12.622
87223W        W58752   1.012   7.456  12.095
87224W        W58753  21.097  40.509   3.300
87225W        W58754  18.064  37.536  13.969
87226W        W58755  11.927   7.985  11.412
87227W        W58756  17.352  17.965   4.562
87228W        W58757  43.495  37.089  13.847
87229W        W58758  28.540   5.370  12.575
87230W        W58759  36.428  37.366  11.601
87231W        W58760   5.060  26.409  14.793
87232W        W58761  16.344  28.516  13.951
87233W        W58762   8.599   7.520  12.100
87234W        W58763  14.318  19.719   0.475
87235W        W58764  17.168  13.660   2.211
87236W        W58765  15.999   2.431   2.802
87237W        W58766  38.273   2.714   3.868
87238W        W58767   5.370   3.765  14.733
87239W        W58768  26.862  44.538  11.024
87240W        W58769  18.154   3.690   4.334
87241W        W58770   6.108  33.442  11.649
87242W        W58771  32.593  31.785  14.943
87243W        W58772  40.076  15.332  13.887
87244W        W58773  36.082  40.916   3.714
87245W        W58774  30.865  17.049   2.164
87246W        W58775  14.314  13.538  14.544
87247W        W58776  32.084  15.623   0.989
87248W        W58777  39.905  21.562   3.800
87249W        W58778  40.290  10.706  11.684
87250W        W58779  30.942  33.938  14.943
87251W        W58780  44.214  18.197   3.231
87252W        W58781  24.622  37.173  14.335
87253W        W58782  39.095  42.338  13.869
87254W        W58783   7.427   5.692   4.027
87255W        W58784   7.775  34.520   0.735
87256W        W58785  17.792  24.025  11.393
87257W        W58786  38.405   1.454  12.063
87258W        W58787  14.343  15.076  12.991
87259W        W58788  25.192  37.602  12.372
87260W        W58789   3.233  26.356  11.109
87261W        W58790  20.112  16.123  14.509
87262W        W58791  15.110  34.810   4.730
87263W        W58792  29.545  13.681  12.833
87264W        W58793   3.243  39.432  13.950
87265W        W58794   2.078   7.096   1.855
87266W        W58795   3.054  29.572   1.895
87267W        W58796  10.932   5.726   1.240
87268W        W58797  10.952  16.622   2.250
87269W        W58798   5.104  30.140  14.454
87270W        W58799  15.027  20.092   4.121
87271W        W58800  15.797   7.250  14.554
87272W        W58801   5.300  13.229  13.040
87273W        W58802   3.448  30.655   3.701
87274W        W58803  14.199  32.560  11.148
87275W        W58804  29.084   4.468  12.528
87276W        W58805  24.545  10.728   2.223
87277W        W58806  28.807  35.549  12.083
87278W        W58807  27.086  22.942  10.813
87279W        W58808   8.437  25.408  13.748
87280W        W58809  34.993  20.096   3.592
87281W        W58810  12.751   9.128   0.971
87282W        W58811  31.463  23.017  10.869
87283W        W58812   8.568  15.331  11.908
87284W        W58813   9.151  35.855  10.752
87285W        W58814  43.437  40.690  12.947
87286W        W58815  15.307  11.086  12.934
87287W        W58816  14.654  35.531  12.976
87288W        W58817  19.438  33.386   0.333
87289W        W58818  32.030  40.080   1.096
87290W        W58819  35.645  17.908  11.916
87291W        W58820  20.410  32.007   2.169
87292W        W58821  26.982  19.113   1.139
87293W        W58822  24.887  13.818   0.909
87294W        W58823  24.545  17.563   1.282
87295W        W58824   1.346   4.669   0.046
87296W        W58825  11.635  42.344  14.226
87297W        W58826  44.868  43.039  11.214
87298W        W58827  27.193   0.383  11.981
87299W        W58828  38.651   0.965   1.021
87300W        W58829  42.529  39.625   1.381
87301W        W58830   9.658  24.250  12.894
87302W        W58831   4.437   6.299  11.612
87303W        W58832  25.448  20.945  10.738
87304W        W58833  18.708  19.340   1.648
87305W        W58834  35.812  37.610   0.777
87306W        W58835  35.634  38.264  12.634
87307W        W58836  41.972  41.716  12.005
87308W        W58837  40.260  37.858   0.830
87309W        W58838   8.704  15.049  10.884
87310W        W58839  26.780  35.047  10.381
87311W        W58840  39.356  39.470  12.030
87312W        W58841  34.557  15.723  13.799
87313W        W58842   4.359  42.593  14.886
87314W        W58843  40.957  34.968  14.833
87315W        W58844   2.904  42.542   1.833
87316W        W58845   3.350  22.415  12.799
87317W        W58846  40.531   1.592  11.583
87318W        W58847  33.163   2.416   3.591
87319W        W58848  31.853  29.922   1.720
87320W        W58849  12.714  41.577   4.623
87321W        W58850  25.770  43.871   3.193
87322W        W58851  25.012   6.730  10.492
87323W        W58852  15.261  40.569  10.968
87324W        W58853  30.575   4.721   0.314
87325W        W58854  11.815   3.531   5.070
87326W        W58855  23.682  34.424   0.810
87327W        W58856   9.600  26.141  13.074
87328W        W58857  39.144  17.225  14.191
87329W        W58858  43.313   1.958   3.127
87330W        W58859  29.304  24.330  11.198
87331W        W58860   5.632   5.343  10.733
87332W        W58861  18.228  11.308   2.727
87333W        W58862  36.033  20.530  12.373
87334W        W58863  33.184  17.230  12.840
87335W        W58864  38.999  21.043   4.438
87336W        W58865  29.976   6.361   0.703
87337W        W58866   1.209  36.043   4.334
87338W        W58867  39.068  17.648  13.857
87339W        W58868   0.725  41.905   2.134
87340W        W58869  38.954  30.738  11.076
87341W        W58870  39.609   6.234  12.378
87342W        W58871  16.786   6.880   3.734
87343W        W58872  25.538   8.804   2.950
87344W        W58873  39.616  28.905   0.519
87345W        W58874  29.087  37.925   1.886
87346W        W58875  29.114   2.715   0.681
87347W        W58876  36.630   5.670   1.398
87348W        W58877  21.039   4.179   4.319
87349W        W58878  16.031  19.303  11.958
87350W        W58879   3.719   2.752   1.700
87351W        W58880  21.126  11.196   3.219
87352W        W58881  32.439  13.992   4.685
87353W        W58882   3.498   4.974   2.283
87354W        W58883  22.829  44.734  14.886
87355W        W58884  42.035  16.537  12.479
87356W        W58885  10.585  11.607   4.098
87357W        W58886  39.558  23.545  14.343
87358W        W58887  14.307  26.173   2.946
87359W        W58888  14.523  31.795   1.875
87360W        W58889  27.671  20.111   0.382
87361W        W58890   9.072  24.566   0.557
87362W        W58891  18.109  10.837  14.489
87363W        W58892  20.736   7.464   4.170
87364W        W58893  36.953  14.744  11.056
87365W        W58894  22.305  24.030  14.556
87366W        W58895   0.139  44.679   2.341
87367W        W58896   7.901  24.704  11.956
87368W        W58897  38.794  26.123   0.007
87369W        W58898  36.624   8.351  13.412
87370W        W58899  33.373  43.261  12.076
87371W        W58900  21.282  17.222  12.876
87372W        W58901  44.593  32.847   9.788
87373W        W58902  15.666  16.281   4.574
87374W        W58903  36.384  20.141   4.723
87375W        W58904  21.011   9.694   1.258
87376W        W58905  12.590  29.495   4.077
87377W        W58906  13.111  40.445   0.160
87378W        W58907  25.787   9.105   0.445
87379W        W58908  19.245  37.068   0.836
87380W        W58909  15.264   1.689   1.016
87381W        W58910   0.987  43.820   4.523
87382W        W58911  44.496  29.126   4.615
87383W        W58912  42.315   5.479   0.465
87384W        W58913  18.234  10.746   4.459
87385W        W58914  11.834  43.540   0.284
87386W        W58915   0.193   1.325   0.501
87387W        W58916   7.477   4.294  11.944
87388W        W58917   8.724   9.603   2.051
87389W        W58918  44.522  32.415  14.438
87390W        W58919  10.091  30.089   1.351
87391W        W58920  22.284  20.092   0.963
87392W        W58921   6.802  20.180  13.477
87393W        W58922  25.124   5.586  14.537
87394W        W58923  41.594  24.983   4.571
87395W        W58924   0.880  35.205   9.930
87396W        W58925  21.261  23.671   2.642
87397W        W58926  10.571  44.859  11.279
87398W        W58927   3.713  26.501   4.667
87399W        W58928  11.236   5.306   0.725
87400W        W58929  38.022  33.451   3.763
87401W        W58930  37.544  37.354   3.034
87402W        W58931  17.689  26.225   1.615
87403W        W58932  41.886   4.490  12.675
87404W        W58933   4.481  34.418   1.313
87405W        W58934   7.280  34.481   1.976
87406W        W58935  15.087  29.951  13.683
87407W        W58936   8.841  16.741   2.384
87408W        W58937   0.719  31.048  12.730
87409W        W58938   1.997   0.990   3.141
87410W        W58939  30.915  13.179  12.395
87411W        W58940  40.825  30.974   1.832
87412W        W58941  42.949  32.333  11.123
87413W        W58942  39.331  41.409  14.173
87414W        W58943  21.623  20.309   2.191
87415W        W58944  32.726  41.779   1.836
87416W        W58945  43.262  30.764   3.206
87417W        W58946  10.040   6.154   1.271
87418W        W58947  11.032  10.153   1.873
87419W        W58948  31.346  30.709  14.869
87420W        W58949  33.609   1.022   0.371
87421W        W58950  30.013  18.146  10.809
87422W        W58951  19.922  30.151   0.482
87423W        W58952   5.883  35.290  12.874
87424W        W58953  14.109  35.524  13.874
87425W        W58954   6.302   9.029  13.462
87426W        W58955  18.752  17.784   0.890
87427W        W58956  19.439   1.012  12.082
87428W        W58957  23.638  26.498  12.556
87429W        W58958  16.398  37.977  13.363
87430W        W58959  33.141   3.687   2.201
87431W        W58960  32.918  32.544   1.188
87432W        W58961   5.426   9.905  11.104
87433W        W58962   4.340  27.710  10.989
87434W        W58963   2.460  32.340   1.235
87435W        W58964  28.067  19.286  13.883
87436W        W58965  31.134   4.925   1.648
87437W        W58966  24.778  37.660   1.761
87438W        W58967  17.339  15.837  10.742
87439W        W58968  25.246   9.742   2.885
87440W        W58969   0.258  34.807  11.573
87441W        W58970   1.299  26.570  12.083
87442W        W58971  16.746  31.750   2.883
87443W        W58972  19.175  26.868   2.725
87444W        W58973   0.873   4.826  10.314
87445W        W58974  22.621   4.554   5.106
87446W        W58975   6.786   1.209  10.937
87447W        W58976   9.803  22.471  14.736
87448W        W58977  19.053   2.838   3.806
87449W        W58978  22.145  12.782   1.276
87450W        W58979   1.762  40.724   1.693
87451W        W58980   7.010   5.369  10.883
87452W        W58981  32.191  27.177  14.490
87453W        W58982  25.680  39.895   2.087
87454W        W58983   5.824  34.172  14.443
87455W        W58984  34.469   2.995  10.596
87456W        W58985  23.157   7.703  12.769
87457W        W58986  39.851  34.500   1.818
87458W        W58987   6.814  22.173  12.159
87459W        W58988   2.744  24.495   3.196
87460W        W58989   9.044  27.763   0.827
87461W        W58990   9.752  42.545  11.879
87462W        W58991  27.573  43.732  13.772
87463W        W58992  18.323  12.044  13.725
87464W        W58993   7.528  32.104   5.026
87465W        W58994  23.489   1.469   2.716
87466W        W58995  14.824  42.397  11.649
87467W        W58996   0.664  36.327   4.257
87468W        W58997  39.336  22.196  14.508
87469W        W58998  32.505  28.023  12.985
87470W        W58999   7.710  22.255  12.022
87471W        W59000  41.929  15.686   3.632
87472W        W59001  14.619  24.109  12.562
87473W        W59002   6.827  38.248  14.750
87474W        W59003  36.603  33.928   1.798
87475W        W59004  32.096  14.085   2.248
87476W        W59005  30.045  29.049   3.825
87477W        W59006  44.531  19.528   1.299
87478W        W59007  13.707  24.451  12.958
87479W        W59008  13.862  14.096  14.932
87480W        W59009  33.928   4.948  12.579
87481W        W59010   7.236   7.596  12.075
87482W        W59011  30.457  14.542  12.002
87483W        W59012   3.497  32.784  10.119
87484W        W59013  21.952  10.694  13.132
87485W        W59014  44.014  17.823  13.395
87486W        W59015   3.988  12.294   4.026
87487W        W59016  37.922  30.052  11.206
87488W        W59017  32.782   9.384   0.894
87489W        W59018  28.484  19.081  14.967
87490W        W59019  16.728  44.119   4.729
87491W        W59020  24.617  23.686  10.513
87492W        W59021  39.897  32.579  14.517
87493W        W59022  39.327  32.370   3.192
87494W        W59023   3.341  30.630  14.437
87495W        W59024  14.660  19.228   4.141
87496W        W59025  23.521  25.935  13.446
87497W        W59026   4.982   3.710   0.457
87498W        W59027  35.182   3.794   3.222
87499W        W59028  24.269  35.103  14.805
87500W        W59029  36.803  34.376  13.242
87501W        W59030  10.830   0.228   1.383
87502W        W59031  21.057  37.881   0.321
87503W        W59032  33.421  20.814  14.354
87504W        W59033  34.787  20.219   2.735
87505W        W59034  22.532   7.127   1.938
87506W        W59035   7.961   6.445  12.450
87507W        W59036  33.960  34.331   4.856
87508W        W59037   0.485  33.346  12.340
87509W        W59038   9.267  28.584   4.785
87510W        W59039  24.635  36.003  12.165
87511W        W59040  13.690  43.484  14.764
87512W        W59041  10.254  11.542   4.496
87513W        W59042  37.618  30.979  11.105
87514W        W59043  18.750  42.575   1.853
87515W        W59044   1.402  33.488   2.899
87516W        W59045   3.707  22.011   2.677
87517W        W59046  20.955  25.044   2.443
87518W        W59047  17.242  25.205  11.650
87519W        W59048  15.938  34.116  13.666
87520W        W59049  32.136  37.331  13.579
87521W        W59050  30.490   4.489  11.592
87522W        W59051  39.500  20.873  12.048
87523W        W59052  17.013  31.477  14.800
87524W        W59053  15.591  11.962   9.863
87525W        W59054   6.745   0.163  10.494
87526W        W59055  15.784  23.278  13.006
87527W        W59056  10.813  41.883  10.196
87528W        W59057  22.712  16.249  13.105
87529W        W59058   9.078   8.171  14.840
87530W        W59059  31.406  17.314   3.949
87531W        W59060  39.913   0.501   3.875
87532W        W59061  35.871   1.964   1.375
87533W        W59062  44.985  31.555  10.829
87534W        W59063   0.959  37.889  11.009
87535W        W59064  26.680  15.850  13.410
87536W        W59065  44.990  30.939   4.116
87537W        W59066  36.101  10.850  10.712
87538W        W59067  35.354  30.414  13.994
87539W        W59068  26.513  36.055  13.349
87540W        W59069  21.231  42.877   5.119
87541W        W59070   1.492  24.654   0.730
87542W        W59071  27.364  35.932  11.428
87543W        W59072  20.273  27.015   4.131
87544W        W59073  42.123   9.777   4.154
87545W        W59074   8.303  19.881   1.149
87546W        W59075  43.433  10.949  12.596
87547W        W59076  17.258  32.518   2.622
87548W        W59077  36.043  18.384   2.751
87549W        W59078  40.099  12.152   2.315
87550W        W59079  10.148  27.955  13.952
87551W        W59080  23.031  42.833  13.454
87552W        W59081  19.235  21.922  10.076
87553W        W59082  41.903  16.779   4.761
87554W        W59083  36.872   1.419  12.072
87555W        W59084  20.777   0.806  13.393
87556W        W59085   7.458  38.086  14.052
87557W        W59086  19.491  17.129  11.450
87558W        W59087   4.414   2.172  13.084
87559W        W59088  19.201  43.718  12.899
87560W        W59089   6.352  25.976   3.156
87561W        W59090  24.441  38.343   3.109
87562W        W59091  26.645  20.917   1.730
87563W        W59092  41.042  44.184  14.143
87564W        W59093  27.532  28.355   2.495
87565W        W59094   3.699  15.131   3.634
87566W        W59095  21.096   5.157   1.335
87567W        W59096  14.778  38.037   2.336
87568W        W59097  35.840  39.750   3.269
87569W        W59098  29.626  40.451  13.873
87570W        W59099  29.196  39.544  12.299
87571W        W59100  13.702  24.063   0.348
87572W        W59101  31.039   1.813   1.776
87573W        W59102  35.594  29.945   3.521
87574W        W59103   2.059   5.772   1.367
87575W        W59104  37.324  31.536   4.119
87576W        W59105  32.528   1.771  14.783
87577W        W59106  29.566  24.164   0.388
87578W        W59107  31.468  41.054  13.751
87579W        W59108  32.086  38.422   0.490
87580W        W59109  40.674  26.499  11.077
87581W        W59110  31.051   4.325  12.816
87582W        W59111  17.495  42.703  11.228
87583W        W59112  11.262   8.875   4.261
87584W        W59113  22.664  19.730  10.646
87585W        W59114  42.456  19.754  12.394
87586W        W59115  15.738  11.614   0.334
87587W        W59116  23.528  25.230  12.107
87588W        W59117  11.380  18.086   3.776
87589W        W59118  37.064  14.883  12.580
87590W        W59119  23.787  31.041   0.472
87591W        W59120   8.429  35.116   5.203
87592W        W59121  24.036  15.939  10.767
87593W        W59122  10.609  36.379  12.034
87594W        W59123   0.334  30.593  13.527
87595W        W59124  26.195  15.890  13.199
87596W        W59125  41.935   6.464  12.587
87597W        W59126  44.407  26.550   1.693
87598W        W59127   1.416  20.361   0.513
87599W        W59128  20.851  42.335  11.203
87600W        W59129  35.272  43.273  10.465
87601W        W59130   4.766  11.946   5.207
87602W        W59131  11.306  20.106   0.899
87603W        W59132  32.162  21.151   3.613
87604W        W59133  44.952  44.707  14.943
87605W        W59134   5.140  38.522   3.552
87606W        W59135  20.496  40.612   4.164
87607W        W59136   8.172  15.699   3.234
87608W        W59137  38.399  41.076   3.642
87609W        W59138  41.323  44.594  14.351
87610W        W59139   6.431  26.639   4.708
87611W        W59140   9.404  32.410   3.426
87612W        W59141  30.491  28.072  14.713
87613W        W59142  17.186  10.172   0.706
87614W        W59143  23.627  39.224   1.009
87615W        W59144   8.915  16.316  11.068
87616W        W59145   9.210  31.364  11.522
87617W        W59146  33.360  21.460   1.071
87618W        W59147  19.477  43.899   4.620
87619W        W59148  15.332   4.795   1.862
87620W        W59149  34.379  39.330   4.830
87621W        W59150   4.481  44.856   2.469
87622W        W59151  18.169  29.831   2.504
87623W        W59152   1.467  20.769  13.416
87624W        W59153  26.945  11.800  14.293
87625W        W59154   1.453  38.626  12.629
87626W        W59155  29.451   2.725  14.380
87627W        W59156  32.738  25.931  11.583
87628W        W59157  23.118   4.601   2.194
87629W        W59158   4.179   6.189  14.412
87630W        W59159  20.460  29.142  11.968
87631W        W59160  21.953  22.132  12.830
87632W        W59161  42.619  37.997  14.447
87633W        W59162  22.558  35.938  11.538
87634W        W59163  33.553  37.753  11.941
87635W        W59164  12.704   3.949   0.910
87636W        W59165  15.728  17.671   3.972
87637W        W59166   6.298   7.179   0.248
87638W        W59167  41.509  38.269   4.104
87639W        W59168  40.610  10.804  12.668
87640W        W59169  26.328  21.503   4.226
87641W        W59170  18.232  23.309  13.423
87642W        W59171  17.300   7.399  12.493
87643W        W59172   2.869  37.304   1.836
87644W        W59173  17.613  15.198  13.980
87645W        W59174   4.314  11.461   0.334
87646W        W59175  21.163   1.448   2.934
87647W        W59176  16.398  40.611   0.100
87648W        W59177  41.101   4.885   2.928
87649W        W59178  11.153  14.596   1.860
87650W        W59179  37.362  20.015   0.535
87651W        W59180   0.890  24.697  10.735
87652W        W59181   3.185  25.276   3.739
87653W        W59182  12.383  12.563  11.269
87654W        W59183   7.639   0.038   2.625
87655W        W59184  34.871  15.786  12.262
87656W        W59185  14.839  40.713  13.031
87657W        W59186  36.605  12.111  10.793
87658W        W59187  27.563  12.530  14.249
87659W        W59188  43.380  42.394   0.974
87660W        W59189  37.251  20.098  13.075
87661W        W59190  22.683  12.620  10.750
87662W        W59191   9.127  13.204   1.452
87663W        W59192  43.337  30.574  12.039
87664W        W59193  36.274  11.336   1.699
87665W        W59194  38.817  28.984   0.889
87666W        W59195  40.598   4.818   2.757
87667W        W59196  23.242  20.441  13.510
87668W        W59197  28.991  22.518  13.529
87669W        W59198   8.914   5.306   1.396
87670W        W59199  35.083   9.726  12.006
87671W        W59200  21.714   6.296  12.709
87672W        W59201  22.875   8.732   5.111
87673W        W59202  20.124  24.366  14.043
87674W        W59203  33.374  26.518  11.810
87675W        W59204   4.378  18.624  14.435
87676W        W59205   0.936  17.596   4.162
87677W        W59206  43.348  12.060  14.516
87678W        W59207  44.467  19.628   3.248
87679W        W59208  33.546  12.396   4.659
87680W        W59209  15.704   1.333   3.060
87681W        W59210  29.452  35.196   3.168
87682W        W59211  33.448  38.039   1.836
87683W        W59212  27.821   5.695  10.682
87684W        W59213  40.335  33.394  10.200
87685W        W59214  28.658  19.167   4.514
87686W        W59215  39.907  16.597  13.362
87687W        W59216  16.668  42.427  10.998
87688W        W59217  40.782  17.590  14.546
87689W        W59218  25.369  11.054  14.886
87690W        W59219  40.377  26.862  14.886
87691W        W59220  19.496   8.764  13.822
87692W        W59221   4.442  35.969  12.051
87693W        W59222  23.356  12.505  14.397
87694W        W59223  20.909   1.829   0.730
87695W        W59224  38.717   7.726  12.058
87696W        W59225  32.587  38.314  12.935
87697W        W59226  42.979  28.842   3.709
87698W        W59227   2.827  13.443   3.580
87699W        W59228  39.540  14.141   4.145
87700W        W59229  43.988  30.693  13.383
87701W        W59230   4.492  12.182  13.937
87702W        W59231  10.296  36.608   1.212
87703W        W59232  34.944  17.559   1.327
87704W        W59233  15.173   2.300  13.433
87705W        W59234  22.665  16.606   1.922
87706W        W59235   7.308  38.847  12.386
87707W        W59236  34.079  23.755   2.031
87708W        W59237  27.565  33.466  13.463
87709W        W59238  38.505  15.548   1.062
87710W        W59239   7.810  13.867   3.119
87711W        W59240   1.946   0.785   2.671
87712W        W59241  24.187  41.251   0.228
87713W        W59242  34.044   4.320   3.198
87714W        W59243  10.491  20.003   1.350
87715W        W59244  26.972  42.530  10.435
87716W        W59245  28.108   9.804  13.575
87717W        W59246  25.951  39.517   2.338
87718W        W59247   4.497  42.037  12.924
87719W        W59248  31.350  13.143   0.999
87720W        W59249  41.967  25.010  11.047
87721W        W59250  18.658  11.082  11.597
87722W        W59251  43.734  12.634  11.023
87723W        W59252  11.719  11.758   0.322
87724W        W59253  36.975  21.797   4.075
87725W        W59254  44.701  44.481   2.159
87726W        W59255  40.909  20.689   1.945
87727W        W59256  22.303  41.396  13.013
87728W        W59257  12.294   7.535  14.554
87729W        W59258   7.891   0.990  14.923
87730W        W59259  18.732  41.230   0.169
87731W        W59260  20.181   3.907   0.731
87732W        W59261  30.003  12.421  11.486
87733W        W59262  12.639  40.958  13.140
87734W        W59263  34.473  35.773   2.574
87735W        W59264  27.934  26.537  14.959
87736W        W59265   6.226  34.049  12.804
87737W        W59266  41.982  23.545  10.666
87738W        W59267  29.107  24.012  11.542
87739W        W59268   4.935  17.472   1.494
87740W        W59269  16.134  20.145  13.493
87741W        W59270  13.872  42.336  10.755
87742W        W59271  31.535  16.540   3.357
87743W        W59272  21.241   9.183  14.967
87744W        W59273  17.647  43.353  13.846
87745W        W59274  11.600  35.616  13.913
87746W        W59275  42.159  18.615  12.003
87747W        W59276   1.354  22.957  10.721
87748W        W59277  12.059  24.737  11.961
87749W        W59278   6.419  23.184  12.107
87750W        W59279   4.646   9.169   4.755
87751W        W59280  24.294  23.881  12.968
87752W        W59281  22.571  12.296  11.125
87753W        W59282  32.742  31.964  11.635
87754W        W59283  38.336  19.648   0.389
87755W        W59284  37.518   3.111  13.453
87756W        W59285  26.904  23.156  11.643
87757W        W59286  14.568  10.932   4.171
87758W        W59287  14.957  20.417  13.398
87759W        W59288   4.068  23.319   0.864
87760W        W59289  41.495  42.944  10.367
87761W        W59290  29.763  31.872   0.464
87762W        W59291  38.785  26.160  13.643
87763W        W59292  32.208  24.271   0.933
87764W        W59293   3.701  28.154   3.655
87765W        W59294  41.346  11.179  14.526
87766W        W59295  15.139   0.181  12.092
87767W        W59296  11.634   8.886   0.214
87768W        W59297  12.951  44.461   5.004
87769W        W59298  14.137  27.399  12.631
87770W        W59299  13.642  44.811   3.060
87771W        W59300  40.746   9.520   1.141
87772W        W59301  38.719  37.920  14.981
87773W        W59302   4.299  33.175  10.694
87774W        W59303  20.804  14.772  14.431
87775W        W59304  40.166  41.839   5.060
87776W        W59305  25.644  33.889   1.443
87777W        W59306  36.866  11.861   3.366
87778W        W59307  27.705  23.553  10.685
87779W        W59308  37.878  29.380   4.562
87780W        W59309  23.935   0.242   4.184
87781W        W59310  14.793   0.414   2.679
87782W        W59311  41.286  30.503   3.777
87783W        W59312  31.160  43.503   4.279
87784W        W59313  44.569  25.241  14.328
87785W        W59314  11.270  26.053   3.932
87786W        W59315   4.481  16.171   4.141
87787W        W59316  11.185  31.489   0.159
87788W        W59317   1.798  35.383   4.863
87789W        W59318   7.172   2.300  12.152
87790W        W59319   4.963  34.187  13.398
87791W        W59320  21.262  43.923   0.264
87792W        W59321  43.228  22.028   0.434
87793W        W59322  26.678   7.367   3.666
87794W        W59323  22.071   4.245   0.410
87795W        W59324  13.558  40.816  12.563
87796W        W59325  43.995   0.878   2.304
87797W        W59326   0.954  40.354   3.082
87798W        W59327   3.987  28.722   3.223
87799W        W59328  17.008  19.544   0.137
87800W        W59329   6.240  41.403  13.422
87801W        W59330  27.169  32.938  14.317
87802W        W59331   3.736  29.382   4.302
87803W        W59332  12.394  28.711   4.537
87804W        W59333  33.911  14.744  14.266
87805W        W59334  17.064   2.328  11.649
87806W        W59335  39.007  32.182   1.862
87807W        W59336   9.093   0.561  13.614
87808W        W59337  36.632  31.549  12.862
87809W        W59338  25.147   0.341  10.267
87810W        W59339  35.567  44.167  12.879
87811W        W59340  21.778  42.414  11.105
87812W        W59341  10.754  16.092  10.998
87813W        W59342  21.285  39.631   2.369
87814W        W59343  31.308  33.082   2.823
87815W        W59344   0.390  14.405   0.444
87816W        W59345   6.884  14.637  13.365
87817W        W59346   4.963  39.491  11.609
87818W        W59347  21.549  38.238  11.526
87819W        W59348  34.942  15.953  10.827
87820W        W59349  10.774  31.523   1.919
87821W        W59350   8.169  43.797   1.208
87822W        W59351  22.197   6.152   4.222
87823W        W59352  25.502  22.041  12.616
87824W        W59353  19.331  10.719  13.462
87825W        W59354  13.457  30.873  14.222
87826W        W59355   3.211  22.909  12.858
87827W        W59356   6.127  13.922  14.280
87828W        W59357  43.891  31.518   1.440
87829W        W59358  11.850  33.014  11.418
87830W        W59359  29.901  30.146  11.226
87831W        W59360  34.254  33.436  11.720
87832W        W59361   7.476   0.126  12.565
87833W        W59362   5.092  31.958   3.469
87834W        W59363  27.474   1.738  11.628
87835W        W59364   9.942   9.387  14.344
87836W        W59365  11.694  23.016   2.709
87837W        W59366  15.742  15.431   1.690
87838W        W59367   7.702   8.452  11.259
87839W        W59368  36.428  38.410  14.133
87840W        W59369  13.708   5.545  11.583
87841W        W59370  42.906  32.435  13.081
87842W        W59371   4.857   0.085  12.564
87843W        W59372   9.312  42.460  11.566
87844W        W59373  27.577  12.321  12.956
87845W        W59374  44.699  20.804   4.740
87846W        W59375  37.992  24.728   4.631
87847W        W59376   3.828  24.055   1.889
87848W        W59377  28.881  12.655  10.947
87849W        W59378  18.133  18.713   4.774
87850W        W59379  20.694  28.561   2.390
87851W        W59380  30.174  16.549  13.128
87852W        W59381  26.423   8.275  12.068
87853W        W59382  20.055  44.346   4.101
87854W        W59383  36.774  28.520   3.682
87855W        W59384   4.832  21.873  12.408
87856W        W59385  14.324  18.597   3.778
87857W        W59386  25.117  30.541  12.673
87858W        W59387  37.572   2.864  11.999
87859W        W59388  22.779  27.262   4.652
87860W        W59389   2.214  43.236  11.144
87861W        W59390  22.042  36.012  14.476
87862W        W59391  37.099  12.858   4.204
87863W        W59392  23.085  35.422  14.367
87864W        W59393  34.806   9.439  14.083
87865W        W59394  20.777   3.405  14.372
87866W        W59395  41.024  30.755   3.382
87867W        W59396  34.499  39.517   0.300
87868W        W59397  31.588  40.460  10.733
87869W        W59398  12.285  10.106   2.044
87870W        W59399   0.061  37.600   0.964
87871W        W59400  24.574  44.423  13.593
87872W        W59401  23.582  43.020  13.913
87873W        W59402  13.789  22.083  12.140
87874W        W59403  30.186   9.348  14.812
87875W        W59404  23.436  37.561   4.988
87876W        W59405  44.276   1.285   0.689
87877W        W59406  44.509  12.589   2.083
87878W        W59407  29.477  31.397  12.985
87879W        W59408  22.264  29.129   3.553
87880W        W59409  18.601  29.473  13.830
87881W        W59410  18.880  41.864  14.349
87882W        W59411   3.973  24.782  12.612
87883W        W59412  43.779  21.376  14.732
87884W        W59413   9.133  34.885   1.761
87885W        W59414  34.609  22.660   1.332
87886W        W59415  23.677  29.135   2.441
87887W        W59416  29.093  14.460  12.264
87888W        W59417   4.505  31.977  13.932
87889W        W59418   7.767  43.041   5.297
87890W        W59419  15.361  39.268  13.429
87891W        W59420  37.971  18.154   0.685
87892W        W59421  13.186  34.936   4.779
87893W        W59422  37.050  42.726  12.494
87894W        W59423  40.764  14.834  11.754
87895W        W59424  11.942  11.667  12.930
87896W        W59425   5.846   3.754   4.325
87897W        W59426  40.862   1.824  13.790
87898W        W59427  16.361   2.214  14.622
87899W        W59428   7.847  14.925   3.824
87900W        W59429  27.565  40.372   2.297
87901W        W59430  39.089  25.542   3.687
87902W        W59431  21.063   9.455  14.520
87903W        W59432  30.298  32.124   3.127
87904W        W59433  35.965  40.910   0.755
87905W        W59434  29.105   5.736  12.921
87906W        W59435   6.343  30.857   2.900
87907W        W59436   9.539  29.515   3.127
87908W        W59437  14.204   9.809  11.616
87909W        W59438  26.624  21.188   2.166
87910W        W59439  32.605  42.264   4.734
87911W        W59440  29.825   6.439  13.908
87912W        W59441  40.695  25.443  11.997
87913W        W59442   0.703   1.781   4.715
87914W        W59443   1.807  44.678   1.918
87915W        W59444  32.908  38.058   0.966
87916W        W59445  33.670  15.538  10.975
87917W        W59446  29.922   9.594  11.205
87918W        W59447  32.082  12.449  11.473
87919W        W59448  12.277   4.906   1.863
87920W        W59449  15.153  13.170  12.957
87921W        W59450  32.342  10.930   0.502
87922W        W59451   3.277  18.516   3.238
87923W        W59452  43.916   0.443   0.869
87924W        W59453  15.104  27.400   0.843
87925W        W59454  44.715   7.687   2.627
87926W        W59455  27.155   2.541   1.916
87927W        W59456  23.585  42.821   3.232
87928W        W59457   3.797  25.682  13.514
87929W        W59458   1.306   7.873  12.134
87930W        W59459   2.797  39.614  14.198
87931W        W59460  37.761  13.808   2.247
87932W        W59461  28.632  17.156  10.152
87933W        W59462  39.991   6.428   4.118
87934W        W59463  33.976  28.966  13.915
87935W        W59464  29.910  29.502  12.484
87936W        W59465   3.228  42.028   5.091
87937W        W59466  38.629  22.994  13.983
87938W        W59467  18.218   3.218   0.302
87939W        W59468  27.958   8.695  12.427
87940W        W59469  39.437   2.677   4.098
87941W        W59470   6.181  14.248   4.561
87942W        W59471  25.244  31.916   2.629
87943W        W59472  37.536  23.085   0.969
87944W        W59473  16.244  24.935   2.422
87945W        W59474   9.630  41.607  14.297
87946W        W59475  10.348  42.714  14.998
87947W        W59476  33.818  16.753  10.439
87948W        W59477  30.984  40.601   2.710
87949W        W59478   2.846  10.588   0.927
87950W        W59479  18.883  44.951   1.851
87951W        W59480  35.510  28.407   3.283
87952W        W59481  40.648  20.009   0.394
87953W        W59482  35.855  31.122  10.809
87954W        W59483  29.811  29.628   0.671
87955W        W59484  22.098  15.336  14.529
87956W        W59485  12.351  19.149   4.939
87957W        W59486  34.437  14.166  11.981
87958W        W59487  44.543  32.287  11.284
87959W        W59488  35.403  21.118   1.039
87960W        W59489  21.210  24.736  14.280
87961W        W59490  43.771   6.755   2.892
87962W        W59491  38.607  31.729  14.655
87963W        W59492  38.316  13.315  14.538
87964W        W59493  16.272  28.357  13.074
87965W        W59494  20.984  17.359   3.992
87966W        W59495  22.723  11.787  13.863
87967W        W59496   7.808  36.332   3.287
87968W        W59497   4.396  13.372  13.603
87969W        W59498  32.915   5.194   1.233
87970W        W59499  34.663  43.508   3.787
87971W        W59500  20.933  25.637   1.641
87972W        W59501  30.649  32.317  11.963
87973W        W59502  29.547  22.214  10.605
87974W        W59503  28.159  40.768  13.168
87975W        W59504  24.974  36.652  13.498
87976W        W59505   9.905   2.881  14.815
87977W        W59506  43.744   7.501   0.946
87978W        W59507   5.150  42.793  12.476
87979W        W59508   8.412   5.921  12.844
87980W        W59509  43.967  24.993  12.670
87981W        W59510  23.993  18.634   1.316
87982W        W59511  23.480  30.582   4.587
87983W        W59512  25.039   3.872   4.254
87984W        W59513   4.471  30.135  11.082
87985W        W59514   3.721  23.333   3.296
87986W        W59515  36.484  41.088   0.385
87987W        W59516  32.898   1.108   3.317
87988W        W59517   5.195   7.206   2.206
87989W        W59518  20.508  41.525   4.017
87990W        W59519  18.732   9.783  11.929
87991W        W59520  19.615  25.503  13.465
87992W        W59521  16.329  18.376  12.089
87993W        W59522  37.150  38.041   2.800
87994W        W59523  19.149  40.824   3.837
87995W        W59524  19.828  34.130  10.590
87996W        W59525   9.405  10.294   4.407
87997W        W59526  10.184  28.396  13.034
87998W        W59527   3.844  14.168   2.144
87999W        W59528  27.625  22.804   0.016
88000W        W59529  13.286  11.215  10.363
88001W        W59530  40.703  38.378   4.509
88002W        W59531   0.656  19.029   3.144
88003W        W59532  20.633  10.089  10.659
88004W        W59533  17.763  17.126   4.827
88005W        W59534   3.001   6.157   2.919
88006W        W59535  40.800  41.337   0.684
88007W        W59536   9.127  40.175   3.158
88008W        W59537  20.854  25.915  10.945
88009W        W59538   4.342   4.390   1.390
88010W        W59539  18.341  24.952   4.248
88011W        W59540  28.989  16.216   3.686
88012W        W59541   2.316  22.807   1.467
88013W        W59542   4.232  34.960  11.045
88014W        W59543  29.017  41.356  14.941
88015W        W59544  37.503  43.584   1.840
88016W        W59545  14.979  40.466  14.839
88017W        W59546  17.237  20.382   4.023
88018W        W59547  12.378  31.164   3.062
88019W        W59548   2.964  11.505   4.604
88020W        W59549  28.539   4.222  14.461
88021W        W59550  42.505   1.509   1.236
88022W        W59551  30.041   1.552  12.617
88023W        W59552  41.363  19.544   4.133
88024W        W59553  15.063  42.897  10.077
88025W        W59554  43.555   0.353  10.313
88026W        W59555   4.630   2.464  14.831
88027W        W59556  25.998  40.416  11.179
88028W        W59557  11.099  10.226  11.189
88029W        W59558  33.406  25.704   1.792
88030W        W59559  18.621  35.327  11.096
88031W        W59560  15.844   2.646   3.689
88032W        W59561   0.902  22.382  14.698
88033W        W59562  25.195   0.884  12.553
88034W        W59563   9.406  13.611   1.239
88035W        W59564  39.829  13.280   0.375
88036W        W59565   6.698  13.436   3.231
88037W        W59566  41.362  44.910  13.109
88038W        W59567   6.025  19.787  10.653
88039W        W59568  31.424  19.704  10.578
88040W        W59569  43.657  24.582  12.540
88041W        W59570  14.795   0.563  14.888
88042W        W59571  16.066   5.249  13.538
88043W        W59572  36.594   8.963   4.767
88044W        W59573  19.412  44.215   0.201
88045W        W59574  26.612  38.724  14.730
88046W        W59575  21.804  15.755  14.764
88047W        W59576  18.193  27.178   4.089
88048W        W59577   2.832  44.701   4.871
88049W        W59578  42.861   4.189  13.500
88050W        W59579  16.549  21.091   3.671
88051W        W59580  30.643  25.970   3.824
88052W        W59581   3.000  19.660  12.560
88053W        W59582   7.303   8.561   4.519
88054W        W59583  26.485  44.011   0.359
88055W        W59584  24.302   9.138   0.248
88056W        W59585   8.851  16.178   0.714
88057W        W59586  27.062   3.376  10.625
88058W        W59587  19.509  19.606  11.225
88059W        W59588  26.383  20.672   0.780
88060W        W59589  31.318  12.657  11.637
88061W        W59590  34.533   3.733   4.181
88062W        W59591   3.875  19.756   2.153
88063W        W59592  16.781  14.537  11.602
88064W        W59593   0.393  38.783  14.715
88065W        W59594  25.634  30.133  13.846
88066W        W59595  16.515  41.085  13.478
88067W        W59596  18.876   5.546   0.207
88068W        W59597   2.628  12.779  10.290
88069W        W59598  17.772  31.932   3.717
88070W        W59599  14.344   4.418   2.860
88071W        W59600  43.023  25.145   0.461
88072W        W59601  28.376  16.323   2.689
88073W        W59602  22.705   9.149   3.064
88074W        W59603  41.429  19.539   1.700
88075W        W59604  37.131  37.697   2.376
88076W        W59605   6.376   4.288   0.216
88077W        W59606  43.794  28.779   3.300
88078W        W59607  42.119  37.644  11.549
88079W        W59608  12.882   7.615  12.595
88080W        W59609  38.936  37.651  12.703
88081W        W59610  17.865   6.041  14.923
88082W        W59611  10.702  12.855  14.306
88083W        W59612  25.011  36.001  12.919
88084W        W59613  16.154  16.975   3.784
88085W        W59614   5.162  36.907   4.510
88086W        W59615  30.297  26.151   4.180
88087W        W59616   2.316   9.768   1.685
88088W        W59617   2.896  37.861   3.060
88089W        W59618  14.672  26.403   1.373
88090W        W59619   6.220  23.045   1.705
88091W        W59620  12.856   1.286  11.935
88092W        W59621  13.057  37.823  11.233
88093W        W59622  36.061  43.365  14.980
88094W        W59623  38.442  19.114   0.415
88095W        W59624  35.316  44.295   2.341
88096W        W59625   5.698  38.135  13.547
88097W        W59626  24.176  31.422   3.847
88098W        W59627  22.101  28.856   1.273
88099W        W59628  29.147  21.019   4.176
88100W        W59629   2.506  39.509  12.428
88101W        W59630  23.275  15.695  13.771
88102W        W59631  12.034  23.148  11.615
88103W        W59632  30.519  37.599  12.718
88104W        W59633  40.775  16.509  12.915
88105W        W59634  15.157  35.027   2.557
88106W        W59635  13.372  13.750  10.588
88107W        W59636  23.236  26.166   0.325
88108W        W59637   9.715  21.477  10.535
88109W        W59638  25.694   2.370   0.282
88110W        W59639  28.590   3.861   4.540
88111W        W59640  43.465  35.408   3.768
88112W        W59641  22.774  28.263   0.931
88113W        W59642  35.019  12.484   2.786
88114W        W59643  30.587  23.459  13.199
88115W        W59644  43.259  43.847   1.709
88116W        W59645  39.336  38.780  12.757
88117W        W59646  35.685  24.832  11.886
88118W        W59647   9.176  19.232   5.608
88119W        W59648  20.361   0.938  12.548
88120W        W59649  26.267  12.295  14.801
88121W        W59650  13.560   5.330   1.863
88122W        W59651  22.353   0.941  13.454
88123W        W59652  27.508  37.354  12.147
88124W        W59653  29.094  44.157  14.467
88125W        W59654  20.198  26.980  12.400
88126W        W59655  30.571  15.680  13.016
88127W        W59656  39.932  35.159  12.198
88128W        W59657  22.007  38.231   1.885
88129W        W59658  12.609  24.428  11.080
88130W        W59659  41.488  43.859  12.815
88131W        W59660  36.035  27.383  14.232
88132W        W59661   7.945  21.957   1.426
88133W        W59662  11.326  40.540   0.809
88134W        W59663  31.411  28.238   4.617
88135W        W59664  11.341  42.049  13.945
88136W        W59665  38.839  17.286   1.834
88137W        W59666   4.589   3.433   0.664
88138W        W59667  22.668  24.065   3.856
88139W        W59668  36.857  35.087   1.852
88140W        W59669  22.797   6.752   1.667
88141W        W59670  20.716  31.170   2.625
88142W        W59671  16.259  15.528   4.706
88143W        W59672  15.595   5.362   0.818
88144W        W59673  37.481  26.568  13.577
88145W        W59674  12.272  19.310   2.810
88146W        W59675  13.352   3.562   1.969
88147W        W59676  12.172   7.792   3.323
88148W        W59677  22.233  10.638   4.508
88149W        W59678   6.282   2.481  11.887
88150W        W59679   6.571  36.505   2.763
88151W        W59680  30.492  25.844  12.283
88152W        W59681  15.180   8.205   1.370
88153W        W59682   4.811  42.191   5.023
88154W        W59683  34.575  30.843  12.292
88155W        W59684   1.353  31.641  11.193
88156W        W59685  15.392  34.910  13.479
88157W        W59686  28.672   2.727  10.644
88158W        W59687   1.184  21.224  13.432
88159W        W59688  35.417  34.566   0.545
88160W        W59689  15.045  16.460  12.419
88161W        W59690  42.361  35.523   2.162
88162W        W59691  20.437   6.025  13.807
88163W        W59692  43.737  33.574   2.239
88164W        W59693  11.968  20.545   0.541
88165W        W59694  38.287   1.998  12.844
88166W        W59695  26.679  33.747   2.926
88167W        W59696  22.233  24.544  12.408
88168W        W59697  24.996  21.078  10.924
88169W        W59698  16.054   9.641  12.920
88170W        W59699   8.856  33.352  10.603
88171W        W59700  33.240  10.868   4.511
88172W        W59701  21.118   4.449   3.178
88173W        W59702   5.651   5.753   4.152
88174W        W59703  22.461  28.260  13.010
88175W        W59704  33.490  35.063  10.512
88176W        W59705  14.218   7.414  14.321
88177W        W59706  32.422  22.324   4.201
88178W        W59707  13.277   1.224  13.943
88179W        W59708  18.653   9.560   1.109
88180W        W59709  12.338  17.138  12.049
88181W        W59710  43.380  44.441  12.041
88182W        W59711  25.478  14.837  10.638
88183W        W59712  12.696  23.154   1.414
88184W        W59713   7.891  42.552   3.399
88185W        W59714  32.273  18.887  13.523
88186W        W59715  14.202  17.495  13.267
88187W        W59716   8.950  19.531  10.741
88188W        W59717  11.119  33.620   0.752
88189W        W59718   0.306  27.921   2.436
88190W        W59719  30.134   1.661  14.906
88191W        W59720  13.197   5.637   3.692
88192W        W59721  36.284  36.889   0.900
88193W        W59722  44.896  33.696   2.365
88194W        W59723   7.200   0.735  13.403
88195W        W59724  27.673  29.566  11.631
88196W        W59725  41.945  36.762   3.542
88197W        W59726  21.429  30.215  10.622
88198W        W59727  40.609  11.439   1.658
88199W        W59728   8.326   8.928   0.705
88200W        W59729  15.717  34.454   4.322
88201W        W59730  15.898  20.701   4.313
88202W        W59731  36.760   6.877   3.148
88203W        W59732  41.013  32.713  12.901
88204W        W59733  14.665  32.344  11.004
88205W        W59734  34.037  24.193  12.049
88206W        W59735  34.905  22.847  12.094
88207W        W59736  19.074  43.878   1.963
88208W        W59737  13.368   2.357  13.965
88209W        W59738  25.176  25.478  13.851
88210W        W59739   1.524  15.796   4.071
88211W        W59740  28.665  13.268  10.163
88212W        W59741  29.209  22.229  13.970
88213W        W59742  16.376   9.224   1.053
88214W        W59743  27.145   2.205   0.323
88215W        W59744  22.379  25.623   1.922
88216W        W59745  29.967  25.561   2.895
88217W        W59746  27.993  28.515   2.277
88218W        W59747  39.114   7.308   0.956
88219W        W59748   0.685  25.998  10.736
88220W        W59749  30.670  13.577   3.487
88221W        W59750   3.787  13.594   0.737
88222W        W59751   1.175  44.010  11.871
88223W        W59752  32.433  19.779  10.589
88224W        W59753  16.073  31.772  10.470
88225W        W59754  16.223   0.574   2.757
88226W        W59755  15.777  22.226  13.051
88227W        W59756  28.904  25.067   4.181
88228W        W59757  33.596  38.134  13.898
88229W        W59758   8.279  28.034  11.656
88230W        W59759  12.895  14.014   4.312
88231W        W59760  29.454  38.331   4.106
88232W        W59761   4.955  11.178   4.290
88233W        W59762  11.347   9.571  13.436
88234W        W59763   3.940  42.114  14.270
88235W        W59764  36.893  13.915  14.521
88236W        W59765  30.019  27.130  11.344
88237W        W59766  17.101  42.976  13.932
88238W        W59767  14.575  18.789  13.404
88239W        W59768  37.777  31.039  14.017
88240W        W59769  16.072  17.980   3.706
88241W        W59770   2.188  20.675   2.719
88242W        W59771  38.930  26.642  14.670
88243W        W59772  22.399  30.465   1.273
88244W        W59773  29.569  12.769  10.294
88245W        W59774  35.176  28.014   2.346
88246W        W59775  12.062  43.805  12.133
88247W        W59776   2.281   6.470  12.219
88248W        W59777  23.246  23.672   2.831
88249W        W59778  26.977  24.900  11.903
88250W        W59779  39.905  32.974  13.347
88251W        W59780  42.499  20.757  14.723
88252W        W59781   9.768  12.723  12.010
88253W        W59782  32.978   7.654   0.433
88254W        W59783   6.847  14.354   0.924
88255W        W59784  40.984  24.768  14.322
88256W        W59785  24.670  18.948   2.254
88257W        W59786   1.433  30.612   3.965
88258W        W59787   6.054  26.608   4.377
88259W        W59788  24.103  31.915   3.970
88260W        W59789  42.223  43.809  13.908
88261W        W59790  35.173  36.970  13.587
88262W        W59791   4.802   8.245   0.260
88263W        W59792  16.106   4.878   1.453
88264W        W59793  30.821  16.623   2.438
88265W        W59794  11.723  37.508   1.689
88266W        W59795  11.191  34.585  11.417
88267W        W59796  27.503  27.742  13.353
88268W        W59797  33.929  31.615   0.373
88269W        W59798  10.297   7.972   0.545
88270W        W59799  25.527   4.199   2.874
88271W        W59800  26.740  39.926  12.633
88272W        W59801  24.576  21.588   2.274
88273W        W59802   6.197  14.823  14.513
88274W        W59803  15.754   3.731   1.017
88275W        W59804  20.273  34.611   4.177
88276W        W59805  36.081  30.616  12.020
88277W        W59806   9.190   7.354  13.814
88278W        W59807  32.934  24.574   3.941
88279W        W59808  38.047  27.130  11.583
88280W        W59809  13.562  19.255  11.264
88281W        W59810  44.407   2.751  13.990
88282W        W59811  41.792  19.138   0.039
88283W        W59812   1.029   4.475   0.997
88284W        W59813  14.201  31.901   5.011
88285W        W59814  17.628   3.605   2.385
88286W        W59815  27.217  42.149   4.754
88287W        W59816   2.268  44.505  13.839
88288W        W59817  36.954  21.692   1.635
88289W        W59818  36.061  13.788   1.828
88290W        W59819  44.299  14.831  13.608
88291W        W59820  16.191  40.713   0.651
88292W        W59821   8.317  24.183   1.291
88293W        W59822  26.870  44.712   4.322
88294W        W59823  35.138  14.628  12.362
88295W        W59824  22.188  39.598   3.720
88296W        W59825   8.377   7.782   3.290
88297W        W59826  26.479  10.272   1.605
88298W        W59827  44.008  31.417   4.667
88299W        W59828   4.518  32.455   3.012
88300W        W59829  36.620  11.695  10.481
88301W        W59830  27.398   3.209   1.368
88302W        W59831   6.115   6.365  12.088
88303W        W59832  21.082  19.757   0.499
88304W        W59833  44.350  12.762   5.042
88305W        W59834  43.574  44.579  10.186
88306W        W59835   0.663  21.946  13.875
88307W        W59836  38.863  20.989   2.404
88308W        W59837  36.718  12.234   3.704
88309W        W59838  20.272   6.765   3.081
88310W        W59839  39.372  15.151   4.407
88311W        W59840  34.126   5.381  11.178
88312W        W59841  36.900  21.590  11.590
88313W        W59842  37.645  35.997   4.089
88314W        W59843  40.271   2.286  12.030
88315W        W59844  30.203  33.693   2.375
88316W        W59845  43.319  26.739   3.304
88317W        W59846  19.773  40.262   0.360
88318W        W59847   2.756  24.250  10.681
88319W        W59848   7.854  16.503   4.114
88320W        W59849  38.495  34.529  13.599
88321W        W59850  27.098  13.917   2.392
88322W        W59851  25.709  26.278  12.972
88323W        W59852  23.713   8.582  11.617
88324W        W59853  30.046  42.565   4.663
88325W        W59854  10.819   0.331  11.216
88326W        W59855  17.652  40.854   2.921
88327W        W59856  18.452  13.331  11.185
88328W        W59857  14.803  17.188  10.287
88329W        W59858  26.150  44.228   4.411
88330W        W59859  30.573  25.113  14.407
88331W        W59860   1.356  43.255  11.290
88332W        W59861  43.344  19.948  13.305
88333W        W59862  12.836  31.144   0.418
88334W        W59863  33.133  41.530  13.452
88335W        W59864  30.440  27.209   3.265
88336W        W59865  42.032  27.952  12.954
88337W        W59866   9.987  39.064   5.082
88338W        W59867  34.223  19.788   2.942
88339W        W59868  24.544  24.171  10.670
88340W        W59869  30.160  24.055   1.628
88341W        W59870  42.723  33.092  11.579
88342W        W59871  44.811  12.890   3.256
88343W        W59872   0.747  28.986   1.653
88344W        W59873  26.610  11.867   4.059
88345W        W59874  15.930  30.704   0.911
88346W        W59875   4.464  23.635  10.643
88347W        W59876   3.532  28.873   0.055
88348W        W59877  26.683  37.488   4.922
88349W        W59878  40.296  14.185   3.643
88350W        W59879  24.198  20.971   0.814
88351W        W59880  25.886  42.853   1.344
88352W        W59881  38.670  44.185  12.385
88353W        W59882  36.305  35.364   4.121
88354W        W59883  37.929  28.960  12.723
88355W        W59884  24.109   7.367   1.989
88356W        W59885   3.121  24.129   0.161
88357W        W59886  22.583  38.269  14.483
88358W        W59887  23.649  30.100   2.789
88359W        W59888  28.766  28.080  12.320
88360W        W59889   9.821   8.420   0.033
88361W        W59890  21.077   0.426  13.148
88362W        W59891  37.531   4.344   1.741
88363W        W59892   3.627  33.149  11.033
88364W        W59893  23.258  30.132   0.314
88365W        W59894  32.174  22.771   5.124
88366W        W59895  35.566   0.230  11.887
88367W        W59896  43.863  31.140   0.654
88368W        W59897  32.172  43.823  12.392
88369W        W59898  16.762  40.023  12.567
88370W        W59899  18.979  10.256  13.922
88371W        W59900  43.486  35.446  10.630
88372W        W59901  31.912  17.258   3.219
88373W        W59902  30.037  37.509   0.484
88374W        W59903  10.791  44.547   3.610
88375W        W59904  17.672  13.298   2.668
88376W        W59905  14.606  40.234   0.114
88377W        W59906  43.456  10.381  12.933
88378W        W59907  18.046  20.794   1.154
88379W        W59908  21.077   8.747  13.090
88380W        W59909   9.291  31.870  11.612
88381W        W59910  13.354  41.066  13.309
88382W        W59911  32.637   3.268  11.649
88383W        W59912   7.748  28.385   2.482
88384W        W59913   8.225   2.225  13.423
88385W        W59914  38.829  14.771  14.029
88386W        W59915  37.252  22.556  10.679
88387W        W59916   2.913  44.795  12.592
88388W        W59917   4.902   9.692   4.616
88389W        W59918  32.420  23.952   1.318
88390W        W59919  23.612   5.674  12.984
88391W        W59920  22.140   8.510   3.352
88392W        W59921  27.603  15.881   1.697
88393W        W59922  24.344   2.749  14.097
88394W        W59923  36.064  10.889   1.835
88395W        W59924  15.459  27.535  12.621
88396W        W59925   4.795   1.746   2.736
88397W        W59926  15.808   6.695  10.740
88398W        W59927  12.640  17.780  11.974
88399W        W59928  33.016  16.089   1.345
88400W        W59929  26.157  16.790  14.321
88401W        W59930  16.967  34.855  14.795
88402W        W59931   3.230   8.446  10.832
88403W        W59932  21.276  39.785  14.428
88404W        W59933  17.715  42.324  12.170
88405W        W59934  42.471   9.867  14.488
88406W        W59935  17.676   1.250   4.824
88407W        W59936  15.577  22.243   3.720
88408W        W59937  24.564  23.680  11.027
88409W        W59938  43.354   7.110  10.816
88410W        W59939  20.810  26.429  11.026
88411W        W59940  31.773  35.871   0.536
88412W        W59941  25.702  40.735   1.266
88413W        W59942  28.556  37.007   1.707
88414W        W59943  33.275  13.181  10.309
88415W        W59944  25.141  24.704   3.713
88416W        W59945  17.175  15.580   3.644
88417W        W59946   2.713   4.191  11.173
88418W        W59947  24.930   4.244  14.052
88419W        W59948  18.100  13.082   1.716
88420W        W59949  29.466  22.666  14.888
88421W        W59950  37.019   6.399   3.847
88422W        W59951  20.495   9.901   3.230
88423W        W59952  24.524   9.787  11.196
88424W        W59953  16.810  35.794  14.888
88425W        W59954  27.282  39.406  11.446
88426W        W59955  41.282   5.397   4.537
88427W        W59956  22.376   1.001  11.767
88428W        W59957   0.886   7.734   2.378
88429W        W59958   6.175  11.323   0.729
88430W        W59959  28.272  37.446   1.303
88431W        W59960  23.722  21.035  11.151
88432W        W59961   1.261  42.795   3.092
88433W        W59962  23.800  44.269   2.186
88434W        W59963   5.667  44.724  13.430
88435W        W59964  44.382  22.007   0.763
88436W        W59965  36.882  35.133   1.329
88437W        W59966  44.870  40.813   4.913
88438W        W59967  18.292   5.139   2.728
88439W        W59968  17.027   8.700  12.773
88440W        W59969  23.039  15.596  11.954
88441W        W59970   2.743  14.103   4.865
88442W        W59971  36.793  40.342   0.985
88443W        W59972  12.357  29.710   3.656
88444W        W59973  37.247  26.607   0.573
88445W        W59974  43.946  15.729   3.794
88446W        W59975  11.781  24.005  12.958
88447W        W59976  31.113  36.647  11.068
88448W        W59977   0.368  38.861   2.964
88449W        W59978  11.896  27.207  14.319
88450W        W59979  21.163  36.889  12.111
88451W        W59980  33.447  25.054  14.016
88452W        W59981  36.785  26.907  11.177
88453W        W59982  42.336  19.497   0.838
88454W        W59983  43.448  36.198   4.172
88455W        W59984  29.127  27.680  12.390
88456W        W59985  37.459  16.532  14.462
88457W        W59986  29.449  16.449   3.918
88458W        W59987  14.528  12.109  13.843
88459W        W59988  40.895   4.520  14.477
88460W        W59989  37.666  43.917   4.750
88461W        W59990  44.387  24.284  11.589
88462W        W59991  30.081  36.640  10.993
88463W        W59992  31.762  43.332  13.066
88464W        W59993  35.618   2.143  14.878
88465W        W59994  43.820  11.176  10.434
88466W        W59995  20.157  28.364  11.969
88467W        W59996  34.013  15.284   1.612
88468W        W59997   7.257  12.008  11.981
88469W        W59998  44.814  26.524   1.315
88470W        W59999  31.266  14.923   0.035
88471W        W60000  41.995  20.563  13.374
88472W        W60001  38.423  28.638  14.225
88473W        W60002   0.349  36.122  12.102
88474W        W60003  17.034  16.753  14.986
88475W        W60004  40.031  21.839  12.893
88476W        W60005  31.786   1.974  11.998
88477W        W60006  40.542   1.913   0.206
88478W        W60007   4.149  13.979  12.154
88479W        W60008  40.195  23.663   3.507
88480W        W60009   3.442  14.912   2.392
88481W        W60010  15.281  30.836  13.604
88482W        W60011  10.892  17.049  13.446
88483W        W60012  25.927   7.334  12.437
88484W        W60013   9.952  33.071   0.629
88485W        W60014  22.066  22.809   2.298
88486W        W60015   3.869  15.700   2.208
88487W        W60016  34.121   6.162   2.297
88488W        W60017  21.638   4.143  11.659
88489W        W60018   6.391  44.886  14.584
88490W        W60019   8.533   4.290  12.364
88491W        W60020   0.855  41.006   2.704
88492W        W60021  38.107  19.611   0.849
88493W        W60022   7.278  15.781   0.291
88494W        W60023   2.179  41.863  12.524
88495W        W60024  21.012  25.526   3.682
88496W        W60025  29.146  44.002  11.385
88497W        W60026  11.951   2.418  10.359
88498W        W60027  30.725  27.351   2.827
88499W        W60028  10.468  10.328   3.740
88500W        W60029  41.789  37.446   0.520
88501W        W60030  10.264  43.967  11.054
88502W        W60031  26.496   6.407  14.010
88503W        W60032  25.135  39.857  12.769
88504W        W60033  26.545  25.543   4.083
88505W        W60034  41.841  24.905  14.835
88506W        W60035  12.462  34.835   1.552
88507W        W60036  21.547  40.829  14.755
88508W        W60037  42.325  20.810   4.174
88509W        W60038  41.231   6.674   0.390
88510W        W60039  44.641  41.349  11.136
88511W        W60040   3.302  29.901   2.792
88512W        W60041   8.442   8.520  10.850
88513W        W60042  41.268  38.530   5.259
88514W        W60043   1.867  35.578   3.336
88515W        W60044  30.188  11.356   1.674
88516W        W60045  37.018   2.318   1.221
88517W        W60046  44.627   8.384  14.860
88518W        W60047  24.461   6.435  12.409
88519W        W60048   7.942  10.874   4.167
88520W        W60049  19.966  12.847   4.210
88521W        W60050  39.072  36.903   4.749
88522W        W60051  11.101  34.920   1.705
88523W        W60052  20.459  18.204  10.692
88524W        W60053  13.687  28.987   3.347
88525W        W60054  38.122  35.441   1.849
88526W        W60055   4.288  16.162  11.146
88527W        W60056  31.851  28.692  12.534
88528W        W60057  18.680   7.618  12.581
88529W        W60058  29.048  13.422   9.837
88530W        W60059  23.737   5.146  13.119
88531W        W60060  17.910  30.971   2.893
88532W        W60061  39.071  38.407  13.908
88533W        W60062   7.639  26.059  13.990
88534W        W60063   6.805  37.409   3.271
88535W        W60064  21.049  30.463  12.093
88536W        W60065  10.408  10.240  14.783
88537W        W60066  26.643  34.998   3.822
88538W        W60067   5.654  39.005   9.839
88539W        W60068  26.457  13.955  14.700
88540W        W60069   1.746  27.609  13.070
88541W        W60070  20.325  21.530   0.319
88542W        W60071  28.040  34.407   1.734
88543W        W60072  36.376  20.523   2.767
88544W        W60073  13.352  12.412   3.300
88545W        W60074  29.227  35.042  13.888
88546W        W60075  28.643  34.560  11.167
88547W        W60076   7.176  11.664  13.833
88548W        W60077  36.310   3.385  12.196
88549W        W60078  31.937  40.775   1.862
88550W        W60079   8.136  43.824   3.114
88551W        W60080  30.023  23.423   4.295
88552W        W60081  35.837  20.368  11.902
88553W        W60082   6.125  39.888   0.756
88554W        W60083  29.613  10.085  10.761
88555W        W60084  24.009  34.627  12.060
88556W        W60085  31.555  40.447  11.688
88557W        W60086  14.658  14.770  11.851
88558W        W60087  13.481   1.387   1.389
88559W        W60088   6.477  34.079  10.301
88560W        W60089   7.814  37.617   0.375
88561W        W60090  32.818  43.795  14.933
88562W        W60091  33.966  40.770  11.140
88563W        W60092   5.968   1.600   4.607
88564W        W60093  23.496   3.777   4.518
88565W        W60094  34.372  17.689  14.093
88566W        W60095   9.556  25.684   3.963
88567W        W60096  38.498   1.908  11.853
88568W        W60097  24.519   4.129  13.770
88569W        W60098  10.202  32.567  10.772
88570W        W60099  44.076  13.148   3.428
88571W        W60100  41.709  32.416   4.126
88572W        W60101  39.336  14.760  11.807
88573W        W60102   9.797  26.489   4.735
88574W        W60103   8.668  20.206  12.726
88575W        W60104  38.129  28.333  13.765
88576W        W60105  15.337  19.086  11.544
88577W        W60106  36.500  35.666  12.980
88578W        W60107  43.678  12.628  13.826
88579W        W60108  12.950   5.759   0.970
88580W        W60109   5.897  27.364  13.563
88581W        W60110   0.760  14.912  14.787
88582W        W60111  44.069   3.510  14.152
88583W        W60112   7.950   5.869   3.452
88584W        W60113  18.084   6.831   1.520
88585W        W60114   4.331   5.982   2.830
88586W        W60115  27.464  17.712   2.369
88587W        W60116  32.048   4.777   3.116
88588W        W60117  30.055  13.616  12.006
88589W        W60118  24.727  41.362  10.293
88590W        W60119  41.367  28.860   1.788
88591W        W60120  30.971  40.854   1.984
88592W        W60121   8.093  28.778  10.712
88593W        W60122  22.701  10.255  12.142
88594W        W60123  19.586  35.409   2.084
88595W        W60124  36.158  30.365   2.044
88596W        W60125  16.167  30.369   0.036
88597W        W60126  28.497  17.341  13.638
88598W        W60127  18.152   6.921   3.260
88599W        W60128  26.545   8.635   5.002
88600W        W60129  36.467  12.789  11.020
88601W        W60130  22.107  22.020   4.133
88602W        W60131  21.578  17.052   4.623
88603W        W60132  40.701   3.137   5.336
88604W        W60133  35.545  21.352   2.783
88605W        W60134   3.682  15.398   1.721
88606W        W60135  26.131  44.453   4.904
88607W        W60136  35.183  25.634  11.426
88608W        W60137  33.376   1.136  14.875
88609W        W60138  14.134  27.690  10.799
88610W        W60139  39.287   7.553   0.484
88611W        W60140  13.128  29.185   3.031
88612W        W60141  41.027   2.802  12.882
88613W        W60142  29.403  36.147  10.707
88614W        W60143   4.050  31.881   1.423
88615W        W60144  26.077  26.946  12.080
88616W        W60145  12.150  43.284   3.749
88617W        W60146  44.832  12.218  12.510
88618W        W60147  33.315   0.507   3.753
88619W        W60148   1.915  22.502  12.362
88620W        W60149  41.343  25.990  12.850
88621W        W60150  23.171  17.544   3.350
88622W        W60151   8.773  35.286   2.124
88623W        W60152   2.239  13.975   1.801
88624W        W60153  18.535  40.784   1.934
88625W        W60154  31.936   7.772   1.880
88626W        W60155  19.489  18.253  10.430
88627W        W60156  37.654   4.858   0.788
88628W        W60157  41.023   9.710   2.289
88629W        W60158  44.742  18.179   3.234
88630W        W60159  31.777  37.156  14.438
88631W        W60160  21.458  11.164  11.914
88632W        W60161   8.403   2.991  12.822
88633W        W60162   5.169  39.895  14.888
88634W        W60163  18.975  18.264  10.398
88635W        W60164   1.170  20.791  11.500
88636W        W60165  31.462   9.222   0.473
88637W        W60166  29.765  17.759  10.384
88638W        W60167  33.408  23.586   3.659
88639W        W60168  34.577   9.837   1.151
88640W        W60169  30.272   7.203   0.543
88641W        W60170  18.466  33.987   3.183
88642W        W60171  23.708   5.883   1.291
88643W        W60172  40.473  22.058   3.317
88644W        W60173  40.750   8.905  11.571
88645W        W60174  15.280  25.447  13.390
88646W        W60175  13.916  40.576  12.951
88647W        W60176  38.035  32.640   3.351
88648W        W60177  40.884   9.364   4.608
88649W        W60178   2.739  39.706  11.510
88650W        W60179   9.174  18.524   2.101
88651W        W60180  30.947  24.184  13.857
88652W        W60181  35.490  42.882   0.148
88653W        W60182   1.794  32.443  12.548
88654W        W60183  31.410  33.120  10.377
88655W        W60184  34.304   2.768   4.092
88656W        W60185  28.746  36.572   1.989
88657W        W60186  26.072  22.062  11.178
88658W        W60187  21.717  39.422   3.587
88659W        W60188   6.616  40.282   3.297
88660W        W60189  42.518  41.573  14.409
88661W        W60190  24.465  26.232   4.044
88662W        W60191  44.466  33.018  13.759
88663W        W60192  38.864  41.975  14.381
88664W        W60193  29.559  16.118   0.927
88665W        W60194  39.002   8.858   1.819
88666W        W60195  33.187  35.268   1.376
88667W        W60196  36.215  15.992   4.100
88668W        W60197  16.204  24.520   2.143
88669W        W60198   2.224  29.092   3.259
88670W        W60199  40.401  30.429  14.866
88671W        W60200  40.373   4.429  10.971
88672W        W60201   0.761  28.399  13.371
88673W        W60202   2.391  20.221  14.342
88674W        W60203  43.052  28.853  14.083
88675W        W60204  41.483  29.968  13.288
88676W        W60205   7.194  29.252   1.977
88677W        W60206  29.530   5.640   1.366
88678W        W60207  24.135   7.284  14.958
88679W        W60208  42.526  11.178  10.717
88680W        W60209  10.818  36.833  13.873
88681W        W60210  34.896   0.354   2.635
88682W        W60211  19.860  35.500  14.017
88683W        W60212   8.052  36.797   1.425
88684W        W60213  31.801  35.052  12.859
88685W        W60214  16.889  28.951  14.283
88686W        W60215  39.277  25.951   1.309
88687W        W60216  29.363   4.206  12.960
88688W        W60217  20.698  32.982   4.624
88689W        W60218  38.493  25.547   4.951
88690W        W60219  16.671  32.641   4.669
88691W        W60220  33.644  34.092   3.741
88692W        W60221  25.652  17.563  10.497
88693W        W60222  20.241  21.315  12.801
88694W        W60223  13.433   8.963   4.142
88695W        W60224  44.961  27.144   0.966
88696W        W60225  19.965   1.793   0.018
88697W        W60226  28.457  15.261   0.430
88698W        W60227  23.661  24.694   3.820
88699W        W60228  31.552  36.358   3.124
88700W        W60229  40.490   9.487  11.120
88701W        W60230   9.672  44.094  14.139
88702W        W60231  20.645  44.795   2.219
88703W        W60232  11.248  33.601   4.312
88704W        W60233   4.238  23.428   0.017
88705W        W60234  20.195  14.519  13.060
88706W        W60235  32.325  20.646   4.371
88707W        W60236  43.685  22.377  13.005
88708W        W60237  16.887   1.246  13.097
88709W        W60238  30.617  38.819   3.875
88710W        W60239  16.412  19.195   1.420
88711W        W60240  43.531  15.788   0.310
88712W        W60241  40.794  23.852  14.773
88713W        W60242  10.642  26.985   4.542
88714W        W60243  17.283  39.890   1.818
88715W        W60244  17.810  37.468   0.504
88716W        W60245  34.503  19.507   4.073
88717W        W60246  33.422  42.303  14.724
88718W        W60247  17.344  23.149  10.936
88719W        W60248  25.474  34.536   0.186
88720W        W60249  33.356   6.720   3.174
88721W        W60250  36.805  14.877   2.282
88722W        W60251   0.663  14.174   2.345
88723W        W60252  31.516  13.625   0.847
88724W        W60253   1.402  39.722  12.012
88725W        W60254   3.945  42.036   2.766
88726W        W60255  14.875  29.011   5.091
88727W        W60256  27.937  29.211  13.743
88728W        W60257  20.816  18.626   1.282
88729W        W60258  30.612  10.227  12.365
88730W        W60259  24.792  44.384  13.123
88731W        W60260  38.851  21.220   1.287
88732W        W60261  35.712  43.791   2.160
88733W        W60262  35.007  10.740   4.373
88734W        W60263  20.314  15.106   3.841
88735W        W60264  10.052  27.366  14.794
88736W        W60265  44.484  17.501   4.219
88737W        W60266  32.396   3.250  14.654
88738W        W60267   9.315  33.694   2.787
88739W        W60268  37.885  29.565  10.493
88740W        W60269  28.208  37.557  14.980
88741W        W60270  44.910  21.492  13.231
88742W        W60271  41.288  10.918  14.054
88743W        W60272  32.857  20.087  13.000
88744W        W60273  40.525  26.221   3.638
88745W        W60274   7.008  25.168   4.455
88746W        W60275  12.822   2.044  13.007
88747W        W60276   4.689  22.531  11.651
88748W        W60277  12.081   1.421   1.309
88749W        W60278  29.771  28.037   2.332
88750W        W60279  25.124  23.312   3.698
88751W        W60280  32.160  23.443   1.872
88752W        W60281  44.448  32.408  12.882
88753W        W60282  28.108  18.520   2.796
88754W        W60283  12.903  25.643  11.625
88755W        W60284  11.670   3.847   3.563
88756W        W60285  17.256   3.694  14.290
88757W        W60286   8.111  23.126   1.899
88758W        W60287  21.109  15.840  14.103
88759W        W60288  39.830  44.277  14.382
88760W        W60289  21.893  38.066  12.619
88761W        W60290  25.728  20.011  10.378
88762W        W60291   9.618  34.056   3.054
88763W        W60292  25.666  28.732  14.875
88764W        W60293  17.491  37.384   2.019
88765W        W60294  37.882  27.473   4.586
88766W        W60295  13.777  38.329  12.460
88767W        W60296  22.068   1.288  11.108
88768W        W60297  31.378  15.173  12.887
88769W        W60298  30.980   4.238   3.640
88770W        W60299   1.491   3.340  12.972
88771W        W60300  11.819  23.223  13.406
88772W        W60301  39.433  19.827   4.301
88773W        W60302   5.197   7.260  11.565
88774W        W60303  20.143  16.558   1.451
88775W        W60304  32.556  11.920   1.414
88776W        W60305   6.357  19.297  10.183
88777W        W60306  15.131  23.739  12.845
88778W        W60307   5.372  27.623  11.357
88779W        W60308  38.563  20.866   0.878
88780W        W60309   4.226  16.188  12.078
88781W        W60310   5.924  39.355  12.850
88782W        W60311  20.220   9.225  11.458
88783W        W60312  27.092  26.603   3.600
88784W        W60313  43.550  38.575  14.806
88785W        W60314  44.337  10.566   4.263
88786W        W60315  30.454  13.207  12.645
88787W        W60316  11.881  23.908  11.217
88788W        W60317  27.353  40.462  13.531
88789W        W60318  11.246  35.020   0.857
88790W        W60319   3.753   1.984  14.761
88791W        W60320  10.774   6.618   4.260
88792W        W60321  36.542  33.228  11.548
88793W        W60322   4.706  34.370  13.908
88794W        W60323  24.791   1.009   0.853
88795W        W60324  13.344  30.167   4.257
88796W        W60325   6.812  16.711   1.447
88797W        W60326  40.090   0.306   2.226
88798W        W60327  24.658  39.328  12.584
88799W        W60328  36.739  31.151  10.528
88800W        W60329  40.355  22.764   3.496
88801W        W60330  37.750  11.194   3.324
88802W        W60331  25.975  29.004  13.105
88803W        W60332  28.705  37.591   4.156
88804W        W60333  16.229   5.487  11.661
88805W        W60334  37.810   8.273  10.772
88806W        W60335   2.188  23.011  14.282
88807W        W60336  19.162  40.075  12.842
88808W        W60337   9.140  25.956   0.348
88809W        W60338  23.718  28.823  14.032
88810W        W60339  37.707   1.698  10.491
88811W        W60340   5.750  31.742  11.861
88812W        W60341  37.344   1.043  11.485
88813W        W60342   3.604  11.756  14.505
88814W        W60343  15.295  42.320   4.486
88815W        W60344  20.963  29.687   0.210
88816W        W60345  33.010  23.157   1.892
88817W        W60346  16.813  39.407  12.015
88818W        W60347  43.347  29.185  12.807
88819W        W60348  23.511   3.470  13.319
88820W        W60349  25.930   3.310   1.156
88821W        W60350  36.491   6.553   1.189
88822W        W60351   1.697  25.659   4.317
88823W        W60352   5.889  15.921  12.833
88824W        W60353  33.497   7.736   1.802
88825W        W60354   2.968  44.277   3.379
88826W        W60355  35.383   6.371  13.880
88827W        W60356  34.401   8.498  13.405
88828W        W60357   2.116  11.856   1.033
88829W        W60358  29.015   7.146   4.657
88830W        W60359  29.993  14.815  14.946
88831W        W60360   5.795  21.754  11.298
88832W        W60361   9.601   6.869   0.796
88833W        W60362  44.892  30.647  14.843
88834W        W60363  29.096  36.961   1.844
88835W        W60364  41.590  17.667  13.986
88836W        W60365   5.658  12.855   3.291
88837W        W60366   9.241  32.961   0.286
88838W        W60367  18.587  37.011  11.182
88839W        W60368   1.664   5.471   2.233
88840W        W60369  36.601  28.403   2.781
88841W        W60370   7.879  15.795   3.650
88842W        W60371  10.806  44.937  10.822
88843W        W60372   8.307  13.408  13.211
88844W        W60373  13.092  32.789   0.267
88845W        W60374  43.879   4.988  13.975
88846W        W60375   0.190  10.925  11.131
88847W        W60376  30.480  14.981   1.001
88848W        W60377  35.252   6.429  11.649
88849W        W60378   3.476  25.716   3.690
88850W        W60379  35.134  23.706  11.059
88851W        W60380  44.200  33.455   3.192
88852W        W60381  10.791  43.829   1.703
88853W        W60382  30.038  37.022   1.702
88854W        W60383  13.750  21.398  14.333
88855W        W60384  21.957  34.757   2.292
88856W        W60385  27.525  38.964   2.606
88857W        W60386  12.336  39.403   1.018
88858W        W60387  38.117  15.197   2.073
88859W        W60388   6.785  29.023  11.855
88860W        W60389   5.336  43.905  12.014
88861W        W60390  28.532  17.448   3.207
88862W        W60391  41.215   4.726   2.103
88863W        W60392  35.664  41.957   0.333
88864W        W60393  42.803  21.589  12.503
88865W        W60394   4.393  34.487  11.268
88866W        W60395  14.396  10.231  14.337
88867W        W60396  14.732  31.331   0.932
88868W        W60397  34.620   9.401  10.727
88869W        W60398   6.777   2.737  13.839
88870W        W60399   2.276  21.365  12.803
88871W        W60400  16.575  23.554   2.270
88872W        W60401  28.215   8.767   3.160
88873W        W60402  20.864  23.459  11.478
88874W        W60403  36.281  23.543   0.810
88875W        W60404   4.783  32.642  13.560
88876W        W60405   6.225   5.036   5.198
88877W        W60406  11.905  16.681  10.377
88878W        W60407  39.437  42.043  13.553
88879W        W60408  30.246  33.935   1.698
88880W        W60409  13.523  18.229   1.770
88881W        W60410  14.341  19.975   0.945
88882W        W60411  36.858  22.453  10.995
88883W        W60412  42.250   5.102  11.410
88884W        W60413  25.155  21.399   3.115
88885W        W60414  38.516   8.865  12.403
88886W        W60415  13.200   3.998  13.942
88887W        W60416  35.896  40.331  13.051
88888W        W60417  13.706  18.135   4.160
88889W        W60418  27.804  16.256  14.920
88890W        W60419  23.998  16.355  11.578
88891W        W60420  18.628   8.347  13.114
88892W        W60421  26.118  20.485   4.279
88893W        W60422  43.025   9.449   2.743
88894W        W60423  38.869  19.208  14.833
88895W        W60424  41.020  20.655  13.311
88896W        W60425  41.355  20.573   3.335
88897W        W60426  37.884   9.672   0.354
88898W        W60427  23.759  21.413  13.854
88899W        W60428  26.068  18.146  11.998
88900W        W60429  17.477  12.417   3.795
88901W        W60430  29.001  34.506   0.707
88902W        W60431  30.928  31.424   1.290
88903W        W60432  41.683  37.060   2.604
88904W        W60433   2.274  18.575  14.299
88905W        W60434   2.477  42.447   0.248
88906W        W60435   4.704  37.245   2.786
88907W        W60436   5.112  15.842  12.103
88908W        W60437  32.585  31.990   1.646
88909W        W60438  14.142  18.111   3.892
88910W        W60439  33.111   1.453   2.567
88911W        W60440  36.731  26.505  14.781
88912W        W60441   9.455  11.677   4.806
88913W        W60442  16.820  18.946   1.103
88914W        W60443  41.250  20.186  13.452
88915W        W60444  42.066  34.004   3.955
88916W        W60445   7.937   7.721  13.352
88917W        W60446  14.652   5.842   0.217
88918W        W60447  41.111  12.471   0.515
88919W        W60448  10.593  13.583  11.210
88920W        W60449   1.892  40.571  13.095
88921W        W60450  43.159  29.444  12.027
88922W        W60451  42.023  33.526  10.471
88923W        W60452  13.036   5.162   3.706
88924W        W60453   2.394  16.235  12.536
88925W        W60454  21.548  12.124  14.211
88926W        W60455  15.139  37.903   3.595
88927W        W60456  41.343  36.350   1.436
88928W        W60457  19.506  23.746  11.594
88929W        W60458   2.908   7.354   0.852
88930W        W60459  43.703  29.492  14.250
88931W        W60460   4.732  24.671   1.244
88932W        W60461   1.889   1.195  14.784
88933W        W60462  25.019  23.631   3.301
88934W        W60463  40.042   5.315   2.383
88935W        W60464  21.432  28.452   0.814
88936W        W60465  37.894  26.771  10.698
88937W        W60466   7.945  43.356  12.070
88938W        W60467  30.328   5.723   2.466
88939W        W60468  31.636  41.121   3.199
88940W        W60469  19.965  41.937   2.920
88941W        W60470  21.896   3.342  13.846
88942W        W60471  30.537  14.223   0.266
88943W        W60472  11.126   7.772  12.707
88944W        W60473   7.651  32.669  11.572
88945W        W60474  42.469  34.565  14.270
88946W        W60475  42.406   6.404  12.847
88947W        W60476  15.382  36.818   3.320
88948W        W60477   3.158   5.954  11.167
88949W        W60478   8.147  35.344   3.300
88950W        W60479  23.985  30.370   3.104
88951W        W60480   3.483   3.762  10.505
88952W        W60481  11.237  17.780  14.740
88953W        W60482   7.827  32.886  12.999
88954W        W60483   9.364  37.592   4.145
88955W        W60484   9.657  38.236  11.092
88956W        W60485  25.216  30.997   0.893
88957W        W60486  32.326   8.151  11.121
88958W        W60487   5.865  39.572   2.958
88959W        W60488  10.633  12.492   4.545
88960W        W60489   8.915  26.110  11.199
88961W        W60490  30.945  37.843  11.302
88962W        W60491  23.199   4.188   4.594
88963W        W60492  20.990  15.288  14.942
88964W        W60493   7.827  23.589   0.071
88965W        W60494  10.235  10.232  13.456
88966W        W60495  36.252  40.216  12.415
88967W        W60496  17.961  11.080   4.121
88968W        W60497  18.015  10.232  12.201
88969W        W60498   5.204  13.357  11.191
88970W        W60499   8.473  11.657  12.728
88971W        W60500  26.147  44.714  11.682
88972W        W60501  13.630   2.662  10.946
88973W        W60502  42.526  12.207   1.490
88974W        W60503   3.242  26.274  13.471
88975W        W60504  44.257  32.932   3.259
88976W        W60505  43.470  33.715  11.928
88977W        W60506  16.748  27.310  14.400
88978W        W60507  38.959  27.678  13.411
88979W        W60508  20.422  36.250  12.154
88980W        W60509  40.609  39.671  12.397
88981W        W60510  36.322   4.920  13.423
88982W        W60511  43.813  30.978   4.492
88983W        W60512  23.881  29.331  11.556
88984W        W60513   6.196  28.784   1.346
88985W        W60514  10.718  34.134   0.690
88986W        W60515  41.561  26.136   1.733
88987W        W60516  14.123   3.914   4.841
88988W        W60517  40.529  16.359  12.484
88989W        W60518  34.058  23.054  14.991
88990W        W60519  24.390  15.216  11.815
88991W        W60520   5.446  26.087  10.512
88992W        W60521  26.164  14.429  11.205
88993W        W60522  42.085   1.421   2.168
88994W        W60523  34.140  30.962  14.036
88995W        W60524  17.215   1.792  14.064
88996W        W60525  29.564  25.493  13.298
88997W        W60526  12.158  21.267   0.925
88998W        W60527  14.038  25.060  13.573
88999W        W60528   2.722  38.898   4.135
89000W        W60529  31.857  41.822   3.108
89001W        W60530  28.932  25.028   3.656
89002W        W60531  40.270  30.378   3.898
89003W        W60532  43.983  42.339  11.643
89004W        W60533  33.048  31.007  13.694
89005W        W60534  27.093   4.648  12.961
89006W        W60535  14.986  38.875  12.407
89007W        W60536   1.736  30.378   3.040
89008W        W60537  28.278  10.725  14.619
89009W        W60538   9.436  31.124   3.636
89010W        W60539  16.691   4.241   3.464
89011W        W60540  25.204  40.521   2.349
89012W        W60541  42.097  40.744   3.051
89013W        W60542   4.908  22.255   3.672
89014W        W60543  15.192  37.888  10.865
89015W        W60544  21.541   1.123   0.256
89016W        W60545  40.255   2.831   0.688
89017W        W60546   0.825  43.701   0.737
89018W        W60547  23.750  29.453  10.683
89019W        W60548  40.061  34.021   1.648
89020W        W60549   4.689  42.742  10.761
89021W        W60550   0.392  39.298  14.780
89022W        W60551  22.656  31.448   3.760
89023W        W60552  34.836  36.117   1.262
89024W        W60553  41.030  33.870  14.038
89025W        W60554   7.676  24.611   1.723
89026W        W60555   0.541  27.081  13.298
89027W        W60556   4.846  43.268  14.253
89028W        W60557   3.220   2.366   2.286
89029W        W60558  11.311  12.703  12.955
89030W        W60559  16.622   8.022  10.725
89031W        W60560  38.829  13.691  14.627
89032W        W60561  19.080  21.301   1.748
89033W        W60562  35.092  13.027  12.678
89034W        W60563   7.700  37.957  13.285
89035W        W60564  37.069  20.208  12.094
89036W        W60565   7.751  38.064  11.860
89037W        W60566  38.434  32.571   0.641
89038W        W60567  26.295  43.032  12.052
89039W        W60568  37.821  22.130  14.333
89040W        W60569  44.969  42.611  10.960
89041W        W60570  43.951  36.944   4.559
89042W        W60571  23.658  23.287  11.483
89043W        W60572  29.950  40.280   0.963
89044W        W60573  16.223  35.509   2.300
89045W        W60574  39.522  10.682  11.242
89046W        W60575  13.672   3.810  14.034
89047W        W60576   8.675  43.419   0.442
89048W        W60577  40.350  15.351  12.547
89049W        W60578   4.292   9.940   0.622
89050W        W60579  22.511  31.285  13.856
89051W        W60580  12.595  11.387   2.706
89052W        W60581  43.535  31.125   4.020
89053W        W60582  17.617  30.940  12.368
89054W        W60583  33.581  28.362   1.100
89055W        W60584  18.244  15.070  13.389
89056W        W60585   7.699  23.304   2.828
89057W        W60586   7.898  42.854   4.789
89058W        W60587   9.176  26.107  14.308
89059W        W60588   4.052  42.538  10.936
89060W        W60589   5.915  44.202   0.397
89061W        W60590  36.644  32.627   1.365
89062W        W60591  13.080   2.823  12.755
89063W        W60592  24.409  27.428   3.290
89064W        W60593   8.736  35.762   2.509
89065W        W60594  41.441  40.589  11.016
89066W        W60595   9.231  26.237  10.812
89067W        W60596  20.515  16.640   3.422
89068W        W60597   4.213   5.249   0.979
89069W        W60598  13.706  27.107   1.360
89070W        W60599  42.226  31.332  14.372
89071W        W60600   5.894   2.926   0.190
89072W        W60601  11.306  19.520  11.113
89073W        W60602  12.665  39.389  10.492
89074W        W60603   6.836   6.984   2.862
89075W        W60604   9.560   2.008  11.008
89076W        W60605  23.139  42.353  12.883
89077W        W60606  37.934  12.887  13.768
89078W        W60607  34.138  34.119  12.984
89079W        W60608   3.976  29.555   3.649
89080W        W60609  10.947  30.199   0.718
89081W        W60610  25.238  26.142   1.277
89082W        W60611  11.840  37.462   2.688
89083W        W60612  41.460  28.113  10.488
89084W        W60613  27.442  27.271  11.922
89085W        W60614  11.928  40.467  12.129
89086W        W60615   9.402  25.639   1.332
89087W        W60616  23.459   4.558  14.960
89088W        W60617  27.911   5.467   3.156
89089W        W60618  26.692  15.802   0.897
89090W        W60619  36.328  31.201  13.136
89091W        W60620  28.383  27.920  12.000
89092W        W60621  17.588  11.379  11.132
89093W        W60622  13.603  21.460  13.445
89094W        W60623   6.566  26.983  10.502
89095W        W60624   7.400  38.462  11.102
89096W        W60625  42.558  44.786  13.874
89097W        W60626  26.067  10.354   1.265
89098W        W60627  44.556  32.388  12.365
89099W        W60628  20.646  12.623  12.636
89100W        W60629   2.466  18.121   1.278
89101W        W60630  30.640  37.448  14.838
89102W        W60631  15.253  37.452   4.403
89103W        W60632  25.705  37.873  14.068
89104W        W60633   9.284   5.720   0.184
89105W        W60634   6.715  23.107  13.121
89106W        W60635  38.171  35.882   1.557
89107W        W60636  18.052  11.891  11.637
89108W        W60637  39.430  10.343  10.554
89109W        W60638  10.806  28.090   1.186
89110W        W60639   6.047  41.624  10.472
89111W        W60640   6.995  31.040  11.048
89112W        W60641  14.632  27.923   3.222
89113W        W60642  17.211  33.026   2.715
89114W        W60643  31.571  23.729  14.834
89115W        W60644  39.330  39.821   3.332
89116W        W60645   7.741  31.434  11.183
89117W        W60646  30.354   6.071  10.998
89118W        W60647  37.000  16.284   4.588
89119W        W60648  44.759  25.801  13.466
89120W        W60649  21.935  33.986   0.283
89121W        W60650  12.607  29.062   1.499
89122W        W60651   2.075  15.765   1.429
89123W        W60652  24.441   1.467   0.637
89124W        W60653   4.108   1.109  12.985
89125W        W60654   2.408  10.305  11.372
89126W        W60655  30.070  12.126   2.372
89127W        W60656   1.464  31.401  13.046
89128W        W60657   2.928  31.122  10.697
89129W        W60658  42.269  34.060   2.210
89130W        W60659  41.006  41.007  13.075
89131W        W60660  34.920  42.931   9.846
89132W        W60661  27.470  28.442   4.367
89133W        W60662  11.678  23.995   1.338
89134W        W60663  17.315  13.089   5.208
89135W        W60664   3.447   1.200   2.911
89136W        W60665  29.664  13.980   0.711
89137W        W60666   2.386  15.137  10.938
89138W        W60667  20.713  35.830  12.192
89139W        W60668  24.596   6.914   3.903
89140W        W60669  29.739  30.370   1.399
89141W        W60670  40.068  11.049  13.444
89142W        W60671  22.836  28.975  12.664
89143W        W60672   2.819  16.230   2.765
89144W        W60673   3.202  41.460  13.022
89145W        W60674  41.356  41.910  10.806
89146W        W60675  38.455   4.766  14.353
89147W        W60676  19.923  37.788   4.215
89148W        W60677   7.956  35.163  12.487
89149W        W60678  37.343  13.133   0.434
89150W        W60679  26.124  12.376  11.024
89151W        W60680   9.325   4.588   4.025
89152W        W60681  33.173  18.250   2.801
89153W        W60682  30.050  24.114  13.321
89154W        W60683  23.157  41.082   4.414
89155W        W60684  44.840  20.133  11.542
89156W        W60685  17.997  37.444   3.675
89157W        W60686   2.800  32.423   0.865
89158W        W60687  16.048  29.446   3.111
89159W        W60688   6.783  33.228  12.613
89160W        W60689  10.907   1.955   9.791
89161W        W60690  15.788  12.394   3.320
89162W        W60691  26.554  21.897   0.258
89163W        W60692  16.110  31.103   3.314
89164W        W60693  27.673  17.795   3.342
89165W        W60694  11.757  16.240   4.391
89166W        W60695  26.331  19.544   2.491
89167W        W60696   1.411  11.403   2.068
89168W        W60697   9.368   9.288   2.128
89169W        W60698  10.131  26.884   0.018
89170W        W60699  22.989  22.278   2.809
89171W        W60700  20.939   5.844  13.860
89172W        W60701  23.618  18.198   1.951
89173W        W60702  40.950  34.132   4.613
89174W        W60703   8.338  41.889  11.050
89175W        W60704   5.304  38.844   3.188
89176W        W60705  34.434  40.181  13.336
89177W        W60706  12.671  20.333   1.229
89178W        W60707   8.331  33.476   3.456
89179W        W60708  40.552  41.281  13.068
89180W        W60709  19.069  19.966  13.831
89181W        W60710   5.968  41.126  11.699
89182W        W60711  16.129  34.569  11.998
89183W        W60712  44.017  21.045   0.041
89184W        W60713  20.516   3.077  13.893
89185W        W60714  40.243  19.267   1.515
89186W        W60715  14.267  22.047  11.499
89187W        W60716  34.647  11.174  11.969
89188W        W60717  24.974  41.587   4.100
89189W        W60718   4.947  27.092  13.391
89190W        W60719  38.354   8.940  10.599
89191W        W60720   0.486  10.330  11.925
89192W        W60721  20.050  40.785  13.851
89193W        W60722  39.656  40.532   3.689
89194W        W60723  11.038   7.090   2.575
89195W        W60724   6.310  33.302  14.341
89196W        W60725  37.332  29.463   2.182
89197W        W60726   2.846  39.432   4.115
89198W        W60727   8.648   5.466  12.842
89199W        W60728   4.324   6.596  12.042
89200W        W60729   3.033  28.475  12.181
89201W        W60730  11.399   0.988   1.732
89202W        W60731  20.702  36.662   3.359
89203W        W60732  28.347   5.583   2.191
89204W        W60733   7.925  38.412  11.132
89205W        W60734  13.428   1.499   0.386
89206W        W60735   8.984  43.156   2.876
89207W        W60736  18.943  24.621  11.770
89208W        W60737  13.894  21.500   1.312
89209W        W60738  24.016  39.639   3.450
89210W        W60739  32.168  37.850   1.210
89211W        W60740  23.127  43.156  12.499
89212W        W60741  21.277   0.881  10.943
89213W        W60742  25.694  16.039  14.876
89214W        W60743  26.970  26.943   4.681
89215W        W60744  17.620   9.629  12.460
89216W        W60745   2.934  31.304   2.754
89217W        W60746  18.882   9.740   4.671
89218W        W60747  25.216  27.625  10.522
89219W        W60748  42.058  41.919  11.542
89220W        W60749   1.976   4.037   2.270
89221W        W60750   5.925  32.573   2.416
89222W        W60751  39.907  34.646   0.398
89223W        W60752  33.116  32.377   2.871
89224W        W60753   3.286  18.469  12.058
89225W        W60754   8.456  32.902  11.322
89226W        W60755   8.336  39.255   1.859
89227W        W60756  14.259  29.831   1.341
89228W        W60757   7.433  13.872   2.722
89229W        W60758   7.607  41.463   1.859
89230W        W60759   9.229  23.590  14.227
89231W        W60760   8.362   4.364   4.463
89232W        W60761  35.641  25.929   3.601
89233W        W60762  16.896  20.230  13.031
89234W        W60763  27.412  41.456  13.476
89235W        W60764  30.519  38.595  14.418
89236W        W60765  25.483   7.423  14.944
89237W        W60766  18.751   6.378  13.899
89238W        W60767  18.011  39.265   4.655
89239W        W60768   2.294  19.561   1.754
89240W        W60769  32.062  19.016   4.115
89241W        W60770  38.040  15.465  14.005
89242W        W60771  19.574  17.328  12.368
89243W        W60772  11.680  24.270  12.526
89244W        W60773  16.068  12.631  13.045
89245W        W60774  31.694  11.769   0.329
89246W        W60775  21.480  16.578  12.044
89247W        W60776  18.462  44.633   5.025
89248W        W60777   6.876  39.615  13.390
89249W        W60778   5.135  32.228  10.714
89250W        W60779  10.191  26.514  11.250
89251W        W60780   7.746  12.850   4.093
89252W        W60781  26.001  24.584   5.013
89253W        W60782   3.045  21.559  14.728
89254W        W60783  22.881   3.977  14.314
89255W        W60784   5.228  31.375  13.538
89256W        W60785  25.634  37.418   4.958
89257W        W60786   5.627  37.278  12.645
89258W        W60787  23.956  14.333   3.876
89259W        W60788  42.481  37.333  12.018
89260W        W60789  10.404  41.566  13.944
89261W        W60790  21.709   4.289   3.628
89262W        W60791  35.718  30.861   3.788
89263W        W60792  22.103  31.588  11.367
89264W        W60793   4.046  20.798  11.921
89265W        W60794  12.201  11.131   0.891
89266W        W60795  22.093  32.093   1.339
89267W        W60796  18.980   2.250  12.363
89268W        W60797  12.254   6.113  10.430
89269W        W60798  44.835   7.957  14.322
89270W        W60799  12.118  30.173  13.479
89271W        W60800  14.287  20.267   0.490
89272W        W60801  43.278  11.208   1.467
89273W        W60802   6.400  24.447  13.612
89274W        W60803  12.557  13.784  13.826
89275W        W60804   7.334   2.137   3.269
89276W        W60805   8.057  36.109   3.735
89277W        W60806  24.282  38.397   3.953
89278W        W60807   9.612   9.442  14.918
89279W        W60808   9.273  22.035   1.888
89280W        W60809  24.215   6.714  10.863
89281W        W60810  18.711  26.809   0.831
89282W        W60811  29.018  26.543   2.884
89283W        W60812  14.696  15.287  12.013
89284W        W60813   2.719  41.915   2.348
89285W        W60814  16.675  24.507  11.131
89286W        W60815  22.959  12.175   2.332
89287W        W60816   9.766  43.976   1.410
89288W        W60817  39.968  37.810   4.340
89289W        W60818  36.577   8.319   4.036
89290W        W60819   8.409  30.259   0.946
89291W        W60820  17.419  35.718   5.094
89292W        W60821   7.432   6.108  11.081
89293W        W60822  28.598  17.392  11.505
89294W        W60823  25.931  25.677  14.324
89295W        W60824  22.735  19.665   5.179
89296W        W60825   7.511  42.653   5.058
89297W        W60826  31.440  10.066   0.758
89298W        W60827   5.235   5.801   3.346
89299W        W60828  32.971  39.748   4.085
89300W        W60829  12.299   1.801   4.647
89301W        W60830   1.378  11.571   5.093
89302W        W60831  14.418  10.554   2.270
89303W        W60832  14.689  31.525  13.317
89304W        W60833  24.845   9.670  10.795
89305W        W60834  19.121  18.000   2.258
89306W        W60835  28.125  32.625   3.223
89307W        W60836  30.713  20.154   2.197
89308W        W60837  35.938  25.184   1.984
89309W        W60838  16.075  11.024  13.383
89310W        W60839  24.140   7.619   2.859
89311W        W60840  21.711  16.831   1.953
89312W        W60841  39.821  31.689   3.232
89313W        W60842  22.725  40.280  11.669
89314W        W60843   9.416  27.471  13.629
89315W        W60844  11.810  18.705   3.248
89316W        W60845  30.389  38.401   3.213
89317W        W60846   3.388  33.854   3.643
89318W        W60847   6.425  16.448  12.049
89319W        W60848   7.387  38.344  13.405
89320W        W60849  15.080  19.563  12.889
89321W        W60850   4.777  19.418  12.948
89322W        W60851   5.233   6.915   0.930
89323W        W60852  41.237  34.550  13.059
89324W        W60853   5.927  13.822   2.937
89325W        W60854  12.225  35.604  14.833
89326W        W60855  41.467  14.214   1.317
89327W        W60856  37.612  22.574   3.306
89328W        W60857  24.555  22.141   4.604
89329W        W60858  12.444  30.694   4.664
89330W        W60859  19.841  33.841   2.599
89331W        W60860  22.959  19.890   3.602
89332W        W60861  26.649  29.198   0.029
89333W        W60862  18.334  39.040  14.021
89334W        W60863   9.372   4.481   1.895
89335W        W60864  22.678  10.283   0.534
89336W        W60865  14.338  42.378   4.857
89337W        W60866  38.626  23.977  13.098
89338W        W60867  13.286  42.244  11.015
89339W        W60868  14.598  13.582  13.715
89340W        W60869  37.021   6.982  11.156
89341W        W60870  33.327   9.722  11.106
89342W        W60871  28.697  33.325   0.276
89343W        W60872  22.595   3.975   4.260
89344W        W60873  35.519  30.912  11.153
89345W        W60874  24.001  12.246   2.369
89346W        W60875  44.361  34.912   1.370
89347W        W60876  25.222  43.309   4.129
89348W        W60877  30.070  14.148  13.937
89349W        W60878  13.046   7.348   4.050
89350W        W60879  17.475  26.263  14.913
89351W        W60880  18.411  19.973  12.658
89352W        W60881  32.206  22.404   0.486
89353W        W60882  33.902  19.017  12.983
89354W        W60883   9.335   7.369  12.326
89355W        W60884  33.711  36.472   3.565
89356W        W60885   8.906  26.532   2.761
89357W        W60886  29.588  34.437   1.413
89358W        W60887  37.010  10.656  11.703
89359W        W60888   7.819  39.716  12.005
89360W        W60889  27.492   3.326   3.842
89361W        W60890  44.008  18.205  10.394
89362W        W60891  37.608  34.537  10.616
89363W        W60892  16.539  26.950  11.047
89364W        W60893  28.117  25.713  13.947
89365W        W60894  31.580  28.641  10.327
89366W        W60895  18.176   4.987   1.909
89367W        W60896  26.896  41.930  12.999
89368W        W60897  41.304  12.185  14.683
89369W        W60898  15.352  42.762   0.474
89370W        W60899   6.313  35.981  12.536
89371W        W60900  42.868  18.567  13.943
89372W        W60901  25.374  26.183   3.335
89373W        W60902  16.783   0.418  11.608
89374W        W60903  11.665  22.207   0.428
89375W        W60904  30.479  36.398   2.757
89376W        W60905  30.717  18.023  11.705
89377W        W60906  17.123   3.807  10.847
89378W        W60907  18.051  41.432   3.708
89379W        W60908  29.005  25.991  10.587
89380W        W60909  40.340  28.556   3.564
89381W        W60910  39.241  20.924  13.357
89382W        W60911  39.091  18.740  12.905
89383W        W60912   1.938   3.189  14.302
89384W        W60913  17.601  10.168   3.177
89385W        W60914   2.442  13.942  14.293
89386W        W60915  12.408   4.023  13.463
89387W        W60916   4.731  22.610   4.031
89388W        W60917  31.361  35.073   1.625
89389W        W60918  23.416  44.878   0.395
89390W        W60919  33.868   4.874  14.461
89391W        W60920  23.566  22.537   2.190
89392W        W60921  27.506  39.402   2.264
89393W        W60922  39.617  38.865  10.112
89394W        W60923   0.490  17.712  12.015
89395W        W60924  29.015  17.526  12.639
89396W        W60925  34.510  44.978  13.510
89397W        W60926  10.104  27.115  14.346
89398W        W60927  20.354  32.936  10.669
89399W        W60928  30.546  22.731  11.190
89400W        W60929  24.074  36.914   1.876
89401W        W60930   7.244  18.141  13.090
89402W        W60931   2.250   7.285  12.526
89403W        W60932  23.025   8.451   1.865
89404W        W60933  37.130  15.171   3.542
89405W        W60934   9.008   4.166   2.756
89406W        W60935  14.152  44.836  13.430
89407W        W60936  31.490  37.509   4.764
89408W        W60937  36.515  33.577   0.531
89409W        W60938  11.125  41.495   1.482
89410W        W60939   3.947   2.310   4.284
89411W        W60940  17.680  26.544  12.844
89412W        W60941  15.116  44.456  12.546
89413W        W60942   6.159   0.317  13.932
89414W        W60943  11.511   0.462   1.751
89415W        W60944  31.449  27.692   4.722
89416W        W60945  23.489  23.792  13.887
89417W        W60946  35.987  25.253  11.926
89418W        W60947   2.101  35.809   1.057
89419W        W60948  30.037  21.486   1.472
89420W        W60949   9.305  18.997   1.945
89421W        W60950  14.158  43.291   3.952
89422W        W60951  11.219  27.591  13.102
89423W        W60952  29.019   8.024   0.467
89424W        W60953  22.507  23.462   1.152
89425W        W60954  27.888  33.573   1.337
89426W        W60955  38.295  31.442  14.948
89427W        W60956  20.754   1.893  10.723
89428W        W60957  12.624   6.287   2.213
89429W        W60958  42.397  13.083  12.529
89430W        W60959  11.845  22.395   2.943
89431W        W60960   9.913  25.123   0.785
89432W        W60961  29.565   0.549   0.103
89433W        W60962  37.362  31.621   3.241
89434W        W60963  29.823  37.387   4.947
89435W        W60964   4.118  20.120   1.857
89436W        W60965  19.204   0.369   4.641
89437W        W60966  37.864  39.304   2.334
89438W        W60967  15.722  40.143  13.118
89439W        W60968   7.642  15.658   3.212
89440W        W60969  26.030  19.711  14.851
89441W        W60970  18.607  21.682  13.072
89442W        W60971  26.506  30.988   0.926
89443W        W60972  37.578  33.056  12.526
89444W        W60973  29.617  33.442  12.756
89445W        W60974   3.602  18.724  14.407
89446W        W60975  40.501   4.814  14.333
89447W        W60976  38.879  43.260  11.000
89448W        W60977  43.710  30.530   3.183
89449W        W60978  21.212  32.494  14.355
89450W        W60979  25.153  32.982   4.464
89451W        W60980   9.404   1.273   3.668
89452W        W60981  19.951  34.397   3.247
89453W        W60982  13.168   3.910  12.083
89454W        W60983   8.661   7.921   0.479
89455W        W60984  19.974   6.354  12.022
89456W        W60985  25.372  44.278  11.091
89457W        W60986  12.335  10.218  14.651
89458W        W60987   3.975   9.222   1.366
89459W        W60988  18.249  37.898   3.729
89460W        W60989  42.591   0.522  11.619
89461W        W60990  15.814  22.842   2.187
89462W        W60991  40.790  38.079  14.969
89463W        W60992  23.824  13.382   5.154
89464W        W60993  15.043  22.123  12.499
89465W        W60994   8.404  41.387   0.033
89466W        W60995  18.037  23.819   0.791
89467W        W60996   5.876  25.202   3.263
89468W        W60997   5.347  12.131   1.719
89469W        W60998  36.887  40.426  10.717
89470W        W60999  17.104  35.345   3.665
89471W        W61000  42.861  21.367   3.742
89472W        W61001  27.897  15.287  14.015
89473W        W61002  14.219  37.625   2.106
89474W        W61003  21.575  26.496   0.789
89475W        W61004  32.009  36.321  13.128
89476W        W61005  40.893   8.394  11.671
89477W        W61006   5.882  17.377   4.835
89478W        W61007  26.616  19.272  12.638
89479W        W61008  31.583   4.298  10.952
89480W        W61009  28.646  14.865   2.704
89481W        W61010  40.544   2.923   2.133
89482W        W61011  33.290  10.880   0.315
89483W        W61012  38.035  20.915  12.088
89484W        W61013   0.461  23.914  13.936
89485W        W61014  17.717  34.031  14.564
89486W        W61015  29.631  35.950  10.286
89487W        W61016   2.381  34.941  13.889
89488W        W61017   8.790  12.644   0.767
89489W        W61018  21.264  26.455   3.687
89490W        W61019  42.852  19.474  11.126
89491W        W61020   6.547  10.738   1.753
89492W        W61021  21.925  34.601   1.388
89493W        W61022  17.628  39.858  11.932
89494W        W61023  16.352   3.715  13.386
89495W        W61024  12.332   3.318  10.609
89496W        W61025  11.596  21.451  11.643
89497W        W61026  31.151  31.988   4.566
89498W        W61027   7.907  39.916   2.454
89499W        W61028  18.249   1.649   1.433
89500W        W61029  12.673  21.248  12.364
89501W        W61030  17.048  16.046  11.131
89502W        W61031  12.189  35.969   2.398
89503W        W61032  30.150  12.086  11.929
89504W        W61033  28.510   4.507   0.442
89505W        W61034  35.442  13.176   0.761
89506W        W61035  23.030  37.510   0.879
89507W        W61036  11.600  28.937  12.051
89508W        W61037  35.676  12.393  11.198
89509W        W61038  22.977  25.560   1.223
89510W        W61039  39.351   5.289  10.337
89511W        W61040  22.036  13.361  12.574
89512W        W61041   2.934  12.533  12.014
89513W        W61042  33.872  20.614   4.752
89514W        W61043  34.867   7.863   0.378
89515W        W61044  32.408  34.737   0.143
89516W        W61045  17.630   7.266  12.095
89517W        W61046  23.411  20.023   3.341
89518W        W61047   9.712  22.965  10.525
89519W        W61048  27.969   9.614  14.447
89520W        W61049  35.934  44.048   0.282
89521W        W61050  27.045   1.574   1.896
89522W        W61051  19.667  17.888   2.535
89523W        W61052  35.845   6.784   0.986
89524W        W61053  17.368   8.067   4.515
89525W        W61054  17.722  27.695   1.340
89526W        W61055   6.003  19.226   2.663
89527W        W61056  42.932   0.407  13.336
89528W        W61057  14.085   9.887  14.595
89529W        W61058   6.397  22.561   3.681
89530W        W61059   8.675   0.475   1.335
89531W        W61060  38.371  12.339   2.276
89532W        W61061  15.108   2.791   2.941
89533W        W61062  34.400  39.035  12.569
89534W        W61063  20.699  16.025  11.972
89535W        W61064  27.991  18.258   4.584
89536W        W61065  25.154  18.019   1.309
89537W        W61066  33.533  44.697  14.039
89538W        W61067  14.235  33.923   2.250
89539W        W61068   3.715  12.999  14.892
89540W        W61069  40.382  31.430  13.993
89541W        W61070  37.792   1.230  11.291
89542W        W61071  35.492  37.768  14.520
89543W        W61072  20.994  31.937   2.834
89544W        W61073  29.718   4.850   0.824
89545W        W61074  10.109  14.388   4.570
89546W        W61075  33.025  11.071  10.996
89547W        W61076  17.182   9.859  12.610
89548W        W61077  44.890  42.253  12.441
89549W        W61078   8.074  25.902   1.780
89550W        W61079   0.351  28.464   4.314
89551W        W61080  42.997  34.903   3.163
89552W        W61081   9.205  12.010   1.652
89553W        W61082  26.083   1.301  11.700
89554W        W61083  27.975  42.129  14.329
89555W        W61084  19.062  28.517   2.630
89556W        W61085  31.931  20.324   0.807
89557W        W61086   8.157  33.431  14.487
89558W        W61087  35.865   8.636   4.233
89559W        W61088  41.142  22.454   0.806
89560W        W61089  37.835   9.683  14.286
89561W        W61090   1.824  35.302  10.484
89562W        W61091  32.889  11.800  12.189
89563W        W61092  33.620   2.525  14.148
89564W        W61093  31.864  44.749  11.445
89565W        W61094  29.603  39.758   2.994
89566W        W61095  23.743  39.503  11.585
89567W        W61096  22.603   0.457  11.490
89568W        W61097  24.716  18.120   1.789
89569W        W61098  41.084  20.239   0.627
89570W        W61099  29.419   7.314  14.965
89571W        W61100  43.967  11.091  11.442
89572W        W61101  10.199  19.343   0.201
89573W        W61102  44.575  36.174   2.791
89574W        W61103  32.307  36.426  11.631
89575W        W61104  27.738  12.037  11.580
89576W        W61105  31.821  25.813   3.134
89577W        W61106  28.108  42.016   2.924
89578W        W61107  31.415  14.285   3.689
89579W        W61108   4.004  40.300   0.162
89580W        W61109   4.890  10.119  14.413
89581W        W61110  36.886  43.443   2.778
89582W        W61111  39.572  37.167  11.599
89583W        W61112  30.070  31.674  11.668
89584W        W61113  41.070  11.246  11.652
89585W        W61114  29.955  30.808   1.829
89586W        W61115  40.704  22.732   0.778
89587W        W61116   9.556   2.882  13.884
89588W        W61117  39.725  36.970   2.317
89589W        W61118  41.986   0.459  14.817
89590W        W61119  42.790  15.101  10.724
89591W        W61120  34.049   3.411   1.208
89592W        W61121  15.191   7.534   0.725
89593W        W61122  36.057  39.312  13.266
89594W        W61123  24.079  22.617  11.757
89595W        W61124  15.579  17.588  13.541
89596W        W61125  34.974   7.301   2.774
89597W        W61126   1.817  17.587   1.509
89598W        W61127   1.753  23.296   3.866
89599W        W61128  26.113  17.415   2.564
89600W        W61129  24.830   8.426   2.307
89601W        W61130  41.927   9.730  14.425
89602W        W61131  38.933  16.539  13.499
89603W        W61132  11.342  43.171   2.136
89604W        W61133  26.059  20.420   3.367
89605W        W61134   6.793  41.500   3.398
89606W        W61135  21.185  23.541  12.013
89607W        W61136  23.199  35.053  11.430
89608W        W61137   5.644  12.394  11.244
89609W        W61138  41.933  28.758  10.179
89610W        W61139  28.082  21.540  13.423
89611W        W61140  41.646  15.724   4.074
89612W        W61141  44.452  24.933   3.852
89613W        W61142  19.098  37.099   1.744
89614W        W61143  29.497  25.346  13.822
89615W        W61144  15.119  32.174  12.943
89616W        W61145   2.211  26.420   0.821
89617W        W61146  37.498  31.859  10.694
89618W        W61147  44.493  44.540  12.446
89619W        W61148   5.194  37.044   2.648
89620W        W61149  11.600  36.306  13.119
89621W        W61150  15.560  25.036  12.608
89622W        W61151  40.144  26.608   0.523
89623W        W61152  18.772   6.384   1.092
89624W        W61153  15.918  19.041  14.403
89625W        W61154  32.236  11.804   0.270
89626W        W61155  34.646   8.268   2.728
89627W        W61156  24.879   8.331  11.581
89628W        W61157  35.880   0.253   3.162
89629W        W61158  11.850  32.475   3.052
89630W        W61159   2.996  40.640   1.146
89631W        W61160   0.308  35.331  11.650
89632W        W61161   3.332  41.026   3.606
89633W        W61162  27.075  25.922  11.280
89634W        W61163  36.289  40.153  11.173
89635W        W61164  37.979  37.232   2.218
89636W        W61165   4.440  25.735  12.989
89637W        W61166  34.015  35.942   4.803
89638W        W61167  37.857   6.702  10.728
89639W        W61168  42.042  41.281  14.523
89640W        W61169  15.024  36.773  12.579
89641W        W61170   7.117   8.654   4.034
89642W        W61171   4.115  26.580   3.612
89643W        W61172   3.693  38.613   1.527
89644W        W61173  41.592   1.889  14.259
89645W        W61174  23.124  10.448   0.269
89646W        W61175  12.476   6.042  14.365
89647W        W61176  34.528  39.357   2.729
89648W        W61177   1.624  34.488  12.997
89649W        W61178  19.331  29.695   3.161
89650W        W61179  39.561  42.004  10.441
89651W        W61180  38.212  16.357  14.010
89652W        W61181  12.576  26.709   3.748
89653W        W61182  37.530  14.672  12.478
89654W        W61183  24.118  33.578  10.927
89655W        W61184  11.865   7.786   1.267
89656W        W61185  20.662  29.455   2.848
89657W        W61186  22.204   8.785  13.565
89658W        W61187  39.246   6.276   1.257
89659W        W61188  21.732  33.117  14.269
89660W        W61189  19.622  22.999   2.887
89661W        W61190  37.043   7.234   0.565
89662W        W61191  38.305  20.717  11.117
89663W        W61192   8.238  11.318   3.288
89664W        W61193  23.003  21.013   0.698
89665W        W61194  29.924   5.386  11.478
89666W        W61195  29.720   6.479   3.242
89667W        W61196  25.941  12.574  11.504
89668W        W61197  39.992  44.314   4.656
89669W        W61198  12.229  17.275   2.381
89670W        W61199  23.523   6.941  12.487
89671W        W61200  16.769  17.736  11.450
89672W        W61201   6.795   9.814  11.166
89673W        W61202   0.638  37.427  13.047
89674W        W61203   3.623  23.844   3.229
89675W        W61204  27.593  41.426  10.747
89676W        W61205  24.288  14.104  13.451
89677W        W61206  15.680  14.694   2.861
89678W        W61207  14.051  42.168  12.458
89679W        W61208  24.026   3.502   1.476
89680W        W61209   7.675   6.801  14.251
89681W        W61210   6.282  20.077   9.807
89682W        W61211  13.308   1.250   3.633
89683W        W61212  25.985  22.566   1.820
89684W        W61213  28.499  39.493  12.842
89685W        W61214  18.282  10.264   4.709
89686W        W61215  22.611  30.421   4.650
89687W        W61216  12.849   4.195  13.068
89688W        W61217  18.645  42.090  13.936
89689W        W61218  33.036  40.070   3.670
89690W        W61219   8.458  25.533  13.102
89691W        W61220  37.258  38.937  12.880
89692W        W61221   6.062  16.358  12.647
89693W        W61222  40.530  12.775  10.831
89694W        W61223  43.818   5.558  12.762
89695W        W61224   1.772  20.329  13.405
89696W        W61225  10.762  35.082   1.091
89697W        W61226  28.531   7.819   0.381
89698W        W61227  39.541  43.035   2.621
89699W        W61228  33.366  16.303  11.526
89700W        W61229  27.062  36.083   4.832
89701W        W61230   9.316   7.817  14.016
89702W        W61231  32.124   1.937   4.140
89703W        W61232  20.648   9.269   3.343
89704W        W61233  31.689  13.324   1.911
89705W        W61234  31.524  10.211  12.789
89706W        W61235  36.562  22.702   3.409
89707W        W61236  19.123  10.315  12.998
89708W        W61237  24.651  24.473   1.368
89709W        W61238   6.246  43.803   3.764
89710W        W61239   8.411  19.752  13.929
89711W        W61240  37.963  33.957  10.850
89712W        W61241  32.601  15.685  13.182
89713W        W61242  32.371  32.407   3.300
89714W        W61243  29.445  35.344   1.942
89715W        W61244  31.543  36.456  13.851
89716W        W61245   4.556  25.552   0.099
89717W        W61246  40.210  42.302   3.929
89718W        W61247  44.156  16.158   5.018
89719W        W61248   1.535  42.118   0.473
89720W        W61249  31.209  32.585   1.708
89721W        W61250  37.448  27.211   1.709
89722W        W61251   3.862  22.740   2.115
89723W        W61252  26.593  43.784  12.625
89724W        W61253  23.078   8.204  13.649
89725W        W61254  22.167  32.843   0.323
89726W        W61255  24.678  36.878  11.981
89727W        W61256  41.284   8.735  11.551
89728W        W61257  38.278  14.285  10.580
89729W        W61258  11.823  30.451  13.125
89730W        W61259  36.403  41.941  11.306
89731W        W61260  28.979  33.771   0.280
89732W        W61261  34.504  34.038   1.749
89733W        W61262   5.264  18.580  11.488
89734W        W61263  13.167  31.675   1.937
89735W        W61264  18.510  19.614  14.976
89736W        W61265  10.261  37.127  12.273
89737W        W61266  14.832  12.808  14.422
89738W        W61267  22.434  40.481   3.670
89739W        W61268  25.930   4.858  11.125
89740W        W61269  22.737   3.196   4.086
89741W        W61270  39.811  21.053   1.346
89742W        W61271  36.250  35.095  13.931
89743W        W61272   0.146  11.663   2.165
89744W        W61273  11.903  22.507  14.269
89745W        W61274  31.255  28.466  13.125
89746W        W61275  40.357   0.583   3.567
89747W        W61276   6.226  11.571  11.215
89748W        W61277  35.611  17.536  14.843
89749W        W61278  44.363  28.459  14.836
89750W        W61279  16.075  30.839   2.500
89751W        W61280  13.738  16.698  13.354
89752W        W61281  26.414  40.387  14.078
89753W        W61282  12.789  43.433   1.502
89754W        W61283  22.381  34.366   1.434
89755W        W61284   8.525  30.159   4.772
89756W        W61285  28.894  37.074   2.310
89757W        W61286  35.788  35.157  10.811
89758W        W61287  41.150  17.097  10.921
89759W        W61288  41.293   4.976   3.740
89760W        W61289  37.476   4.318   0.184
89761W        W61290  36.417   7.700  14.761
89762W        W61291  15.563   2.946  11.090
89763W        W61292   3.303  32.245   1.782
89764W        W61293  33.088   9.650   2.268
89765W        W61294   7.755   1.983   0.435
89766W        W61295  16.114  18.236  11.090
89767W        W61296   2.267  13.329   3.524
89768W        W61297  16.084   9.139   9.912
89769W        W61298  20.589  37.411  10.360
89770W        W61299  18.780  24.871   1.465
89771W        W61300  26.652  36.319   4.107
89772W        W61301  24.932  25.545  11.624
89773W        W61302  33.666  12.173   4.202
89774W        W61303  27.607  43.697   2.867
89775W        W61304  34.653   7.756  10.747
89776W        W61305  33.645   4.528   2.107
89777W        W61306  40.261  40.631  12.477
89778W        W61307  37.998  14.250  14.878
89779W        W61308  13.824  40.057  12.973
89780W        W61309  11.663  29.608   0.794
89781W        W61310  41.441   0.350   3.668
89782W        W61311  37.039  35.422   3.105
89783W        W61312   0.984  38.300   2.833
89784W        W61313  14.121  31.301  13.701
89785W        W61314   8.090   2.211  11.332
89786W        W61315  17.853  44.801  11.139
89787W        W61316  33.555   4.905   3.167
89788W        W61317   4.950   2.190   3.859
89789W        W61318  15.572  32.866   0.930
89790W        W61319  33.472   6.758   4.871
89791W        W61320  17.159  43.049   1.757
89792W        W61321  11.579  33.382  14.323
89793W        W61322  22.718   4.195   2.815
89794W        W61323  13.732  29.126  14.418
89795W        W61324  36.557  23.146   4.546
89796W        W61325  24.471   0.177  13.078
89797W        W61326  17.889  27.989  14.469
89798W        W61327  24.956  10.747  11.182
89799W        W61328  32.949   1.296  13.286
89800W        W61329   7.614   9.251  13.848
89801W        W61330  14.614   1.728   4.098
89802W        W61331  27.266   1.464  13.933
89803W        W61332  28.699  31.160   4.089
89804W        W61333   0.036  32.406  11.183
89805W        W61334  36.481  27.684  10.906
89806W        W61335   5.751  16.049  10.322
89807W        W61336  33.591  41.572  13.975
89808W        W61337  20.799   8.765   1.133
89809W        W61338  44.109  35.162   1.780
89810W        W61339  30.924  25.896   1.829
89811W        W61340   5.787  27.258   0.375
89812W        W61341  16.239  26.312   3.439
89813W        W61342  37.328  15.358  11.521
89814W        W61343  22.964  42.414   3.791
89815W        W61344  30.081  12.909   1.360
89816W        W61345  26.810  31.912   2.733
89817W        W61346  41.078  31.391   2.675
89818W        W61347  14.181  34.813  14.536
89819W        W61348   7.637  38.716  10.713
89820W        W61349  19.185   9.732  13.972
89821W        W61350   1.282  10.409  10.233
89822W        W61351  23.624  41.740   1.827
89823W        W61352  39.393  10.056  13.935
89824W        W61353  38.254  15.158  10.533
89825W        W61354  24.507  33.095  14.911
89826W        W61355  12.843   8.920   1.467
89827W        W61356  12.802  41.922  12.269
89828W        W61357   3.717  39.671  14.073
89829W        W61358  17.123  17.404  11.632
89830W        W61359  43.787   6.507  11.504
89831W        W61360  29.523   6.167   2.859
89832W        W61361  30.254   2.880  14.309
89833W        W61362  43.287  41.978  11.187
89834W        W61363  28.188  23.107   1.312
89835W        W61364   0.322  38.564  14.225
89836W        W61365  32.270   3.933   2.373
89837W        W61366  36.493  42.089  14.097
89838W        W61367  30.222  11.050  12.795
89839W        W61368  35.332   6.764   2.033
89840W        W61369   7.220  34.260  11.608
89841W        W61370  19.359  44.734   1.828
89842W        W61371  21.280  37.591   2.388
89843W        W61372  29.696  13.147  13.939
89844W        W61373  27.991  30.894  14.956
89845W        W61374  15.668  33.084   4.874
89846W        W61375  13.353   2.903  14.739
89847W        W61376  28.305  21.083   3.749
89848W        W61377  15.666  21.652   3.816
89849W        W61378  26.760  29.457   1.890
89850W        W61379  22.191  34.531  12.516
89851W        W61380  29.342  24.241   1.323
89852W        W61381   5.360  40.502   1.711
89853W        W61382   4.501   4.903  13.438
89854W        W61383  30.443   5.181  10.787
89855W        W61384  35.212  21.578  14.799
89856W        W61385   5.991  23.559   3.912
89857W        W61386  23.953   0.742   0.913
89858W        W61387  10.207  33.496  14.157
89859W        W61388  24.457  24.320   0.894
89860W        W61389  17.134  20.302   1.787
89861W        W61390  38.447  14.138   1.194
89862W        W61391  13.475  13.389  13.892
89863W        W61392  13.237  16.214   0.319
89864W        W61393  36.433  43.380  13.632
89865W        W61394  21.211  31.171   2.409
89866W        W61395  10.631  15.728  14.916
89867W        W61396  16.174   9.524   3.284
89868W        W61397  29.499   4.767  10.182
89869W        W61398  34.435  18.775  14.812
89870W        W61399  18.186  41.005  13.047
89871W        W61400  25.975   2.930   2.282
89872W        W61401  41.986  36.376   2.993
89873W        W61402  38.263  27.107   3.534
89874W        W61403  38.884  16.802   1.526
89875W        W61404  31.401  12.118   3.565
89876W        W61405  44.102  27.604  14.773
89877W        W61406  38.295  25.970   1.782
89878W        W61407   7.333  37.863  11.597
89879W        W61408  14.049  40.014  12.160
89880W        W61409  12.592  40.745  14.472
89881W        W61410  23.109  19.084  14.251
89882W        W61411   7.832  14.857   1.850
89883W        W61412  17.375  10.229   0.226
89884W        W61413   9.778  33.644  13.243
89885W        W61414  41.849  19.121   3.299
89886W        W61415  16.663  25.165  14.705
89887W        W61416  18.178  39.046  11.657
89888W        W61417  10.867   2.010   3.663
89889W        W61418  39.946  27.631  14.506
89890W        W61419  19.172  15.341  13.039
89891W        W61420  43.793  19.445   4.588
89892W        W61421   0.465  32.385  12.975
89893W        W61422   0.474  23.464  10.595
89894W        W61423  34.570   0.826  12.249
89895W        W61424  16.227  18.833  11.826
89896W        W61425  31.893  25.558   1.734
89897W        W61426  41.741  12.710  12.162
89898W        W61427  11.186  44.509  13.430
89899W        W61428   1.521   1.828   0.522
89900W        W61429   2.733  32.510   3.326
89901W        W61430  38.489  11.381  10.633
89902W        W61431  33.855   0.503  13.832
89903W        W61432  34.459  34.912  14.257
89904W        W61433   8.275  12.216  12.627
89905W        W61434  23.276  30.170  14.428
89906W        W61435  27.672   2.511   1.891
89907W        W61436  27.207  43.861  14.596
89908W        W61437  40.225  44.839   4.849
89909W        W61438  15.832  37.555   4.964
89910W        W61439  31.354  22.950  13.677
89911W        W61440  19.621   2.705   1.791
89912W        W61441  26.853  21.914  13.073
89913W        W61442   7.712  33.487  11.277
89914W        W61443  11.381  22.282   3.146
89915W        W61444  32.003   4.375   0.261
89916W        W61445  36.026  17.786  14.616
89917W        W61446  29.892  38.442  12.947
89918W        W61447  34.925  18.881   0.859
89919W        W61448  27.210   6.184   1.867
89920W        W61449  41.011  22.976  13.634
89921W        W61450  17.626  33.555  10.728
89922W        W61451  27.174  33.175  13.267
89923W        W61452   2.007  11.222  13.645
89924W        W61453  33.666  24.952   3.507
89925W        W61454  38.390  27.464   4.498
89926W        W61455   0.759  10.691  12.979
89927W        W61456  38.407  33.899  12.268
89928W        W61457  34.823  23.488  14.731
89929W        W61458   6.676  12.201   1.915
89930W        W61459   2.203  24.703   1.293
89931W        W61460  35.397  14.721  10.743
89932W        W61461   9.269  43.220  13.742
89933W        W61462   0.436  10.202   2.683
89934W        W61463  13.826  24.423  11.608
89935W        W61464  12.651  25.177  12.898
89936W        W61465  18.030  21.494   1.779
89937W        W61466  16.229  14.111   0.803
89938W        W61467  13.712  22.281   2.612
89939W        W61468  31.132  24.811   4.036
89940W        W61469   1.820  15.715   3.650
89941W        W61470  27.149  30.603   1.294
89942W        W61471  37.097  24.128  12.054
89943W        W61472  24.673  17.228  12.489
89944W        W61473  33.483  40.792  12.058
89945W        W61474  24.645  23.046  13.843
89946W        W61475  21.051  20.223   3.655
89947W        W61476   4.086  24.843  10.796
89948W        W61477  32.607  20.694   1.489
89949W        W61478  43.392  31.288   3.375
89950W        W61479   4.321  18.285   0.848
89951W        W61480  33.721  19.239  12.510
89952W        W61481   2.544   4.045  12.509
89953W        W61482  41.679  10.310   2.905
89954W        W61483  32.635  44.823  13.376
89955W        W61484  37.777  15.846   4.625
89956W        W61485  19.699  25.326   2.458
89957W        W61486  13.045  35.643   3.570
89958W        W61487  14.049   9.926   4.005
89959W        W61488  11.733  34.503   2.668
89960W        W61489  30.609  14.664  14.410
89961W        W61490   7.489  20.461   0.424
89962W        W61491  44.984  11.282   0.439
89963W        W61492  42.480  37.511  10.699
89964W        W61493  19.431  12.795   4.174
89965W        W61494  23.672   2.246  11.104
89966W        W61495  12.700  44.876   3.927
89967W        W61496  42.990   9.931  13.523
89968W        W61497  16.907   4.198   4.304
89969W        W61498  42.225  10.269  12.424
89970W        W61499   1.095   2.974   3.093
89971W        W61500  32.634  19.013  11.598
89972W        W61501  11.290   7.087  11.514
89973W        W61502  36.038   0.052  12.016
89974W        W61503  41.872  39.878   3.334
89975W        W61504  17.194  15.308  14.971
89976W        W61505  24.541  27.976  12.352
89977W        W61506  34.090  21.188   1.783
89978W        W61507  37.408   9.358  12.016
89979W        W61508  30.014  32.608  14.969
89980W        W61509   4.517  16.316   1.285
89981W        W61510  31.608  23.233   4.561
89982W        W61511   5.689  15.569  14.038
89983W        W61512   6.285   0.842  10.487
89984W        W61513  35.117  30.655  12.413
89985W        W61514  24.195  33.784  10.455
89986W        W61515   8.527  30.901   1.536
89987W        W61516  18.050  10.645  13.988
89988W        W61517  37.016  17.076  11.965
89989W        W61518  25.668  19.689   1.295
89990W        W61519   1.542  29.321   4.143
89991W        W61520  23.462  36.348  14.869
89992W        W61521  26.820  19.769  11.235
89993W        W61522   6.072  28.847  14.479
89994W        W61523  31.558   3.330   2.111
89995W        W61524  41.603  10.832  14.938
89996W        W61525  39.554   6.260   0.795
89997W        W61526   6.560  25.165  14.397
89998W        W61527  30.726  43.388   1.144
89999W        W61528  44.284   5.741   4.327
90000W        W61529  25.685  29.835  12.317
90001W        W61530  10.768   9.908  14.510
90002W        W61531  14.229   9.391   2.679
90003W        W61532  39.536  31.896  13.822
90004W        W61533   3.240  23.013   4.100
90005W        W61534  24.955   2.912   3.182
90006W        W61535   0.785  28.531  11.052
90007W        W61536  27.943  33.904   1.738
90008W        W61537  25.129   3.246   0.049
90009W        W61538  39.086  38.608   0.942
90010W        W61539  39.542  18.593   4.258
90011W        W61540   6.059  36.293  11.618
90012W        W61541  44.443   4.999   0.917
90013W        W61542   9.260  25.833  13.349
90014W        W61543  12.312  33.122   2.004
90015W        W61544  24.472   7.621   0.955
90016W        W61545  38.851  41.577  14.046
90017W        W61546   2.746  18.097  11.503
90018W        W61547  21.685  26.132  10.471
90019W        W61548  28.670   4.374   4.410
90020W        W61549  31.496  35.859   3.258
90021W        W61550   6.262   0.071   0.484
90022W        W61551  12.386  20.072   2.065
90023W        W61552  36.318  39.985   4.134
90024W        W61553   5.535   8.715  11.511
90025W        W61554   9.692  27.616   3.361
90026W        W61555  12.298  42.979   4.172
90027W        W61556  33.832  27.919   1.012
90028W        W61557  37.335  16.612  13.549
90029W        W61558   7.663  29.262   2.215
90030W        W61559  25.891  19.677  14.344
90031W        W61560   4.811  26.765   2.385
90032W        W61561   7.796  11.750  11.652
90033W        W61562   2.328   2.382   1.009
90034W        W61563  26.903  10.331   4.815
90035W        W61564  12.822  36.682   2.310
90036W        W61565  34.154  41.927   3.328
90037W        W61566  16.153  16.579   2.437
90038W        W61567  26.491  35.871  10.741
90039W        W61568   7.327   6.373   3.256
90040W        W61569  43.756  32.491  13.632
90041W        W61570  28.524  14.365  13.487
90042W        W61571  19.553   8.804  12.913
90043W        W61572   1.381  35.307   0.862
90044W        W61573  15.644   5.430   2.831
90045W        W61574   0.738  36.886   1.882
90046W        W61575   2.199  25.418  14.102
90047W        W61576  42.240   9.410  12.375
90048W        W61577  29.231  41.461   4.738
90049W        W61578   1.789  21.657   3.090
90050W        W61579   2.643  35.202  12.120
90051W        W61580  28.861   8.799   4.487
90052W        W61581   9.989  18.290  12.351
90053W        W61582  33.096   1.845   2.895
90054W        W61583  24.581  17.442   2.457
90055W        W61584   2.720  40.247   3.135
90056W        W61585   2.376  32.169   3.892
90057W        W61586  35.164   1.295   0.220
90058W        W61587  40.402  26.362   4.498
90059W        W61588   4.388   9.689  11.889
90060W        W61589  44.615  32.883  14.256
90061W        W61590  32.126  42.210   3.336
90062W        W61591  20.196  42.286  12.934
90063W        W61592  42.008  17.516   0.805
90064W        W61593  22.115  29.190  13.320
90065W        W61594  44.770  17.251   2.358
90066W        W61595  26.715  30.497   4.582
90067W        W61596  40.913  16.049   0.610
90068W        W61597  30.153  18.047   2.988
90069W        W61598  33.436  18.758  14.836
90070W        W61599  39.483  27.605  10.678
90071W        W61600  35.215  23.589  13.004
90072W        W61601  11.301  43.827  14.736
90073W        W61602  34.743   2.361  11.207
90074W        W61603  31.246  13.850  11.857
90075W        W61604  35.635  21.768  11.214
90076W        W61605  36.517  27.588   1.418
90077W        W61606  44.305  33.151  12.126
90078W        W61607  27.937  40.665  11.112
90079W        W61608   6.419   4.206   3.194
90080W        W61609  32.997  16.312  14.139
90081W        W61610  36.050  11.645   2.329
90082W        W61611  40.146  29.080  14.452
90083W        W61612  40.554  41.720  14.829
90084W        W61613  22.254  22.483  12.098
90085W        W61614  10.232  30.428   0.063
90086W        W61615  22.629   4.045  11.575
90087W        W61616  25.086  25.776   1.582
90088W        W61617  11.411  11.728  12.851
90089W        W61618  38.111   1.032   1.896
90090W        W61619  22.394  25.562  13.453
90091W        W61620   2.405   5.163   1.033
90092W        W61621   6.485   2.925   4.920
90093W        W61622   2.428  18.922   1.501
90094W        W61623  23.099  34.877   2.471
90095W        W61624  34.818  31.916   2.292
90096W        W61625  36.990   7.925  10.760
90097W        W61626  31.771  44.084   3.191
90098W        W61627  35.075   7.496  11.149
90099W        W61628  15.751  12.666  10.404
90100W        W61629   5.842  44.310   1.392
90101W        W61630  12.040   9.212   1.693
90102W        W61631  29.565  36.211   5.359
90103W        W61632   8.969  40.648   1.860
90104W        W61633  31.582  44.079  10.707
90105W        W61634  22.674   1.361   0.788
90106W        W61635  26.526  32.660   3.656
90107W        W61636  17.179  13.135   3.818
90108W        W61637  15.075  12.824   2.984
90109W        W61638  42.971   9.460   3.654
90110W        W61639  38.550   5.726   1.292
90111W        W61640  22.118  28.445  10.681
90112W        W61641  28.539  24.682   2.954
90113W        W61642  34.810   7.646   2.228
90114W        W61643   1.816  14.105  11.063
90115W        W61644   3.270  15.695  11.737
90116W        W61645  11.131  44.118  12.929
90117W        W61646  14.712   4.028  13.030
90118W        W61647  15.245  21.031   1.072
90119W        W61648   6.625  42.089  13.746
90120W        W61649  37.514  16.546   3.973
90121W        W61650  10.168  10.858   1.307
90122W        W61651  11.171  27.578  10.533
90123W        W61652  29.245  32.140   3.114
90124W        W61653  27.485   5.778   2.073
90125W        W61654  13.675   3.018   0.866
90126W        W61655   1.698  31.423   3.783
90127W        W61656  37.570  30.298   2.424
90128W        W61657  44.895  18.460   1.551
90129W        W61658   7.483   4.281   2.675
90130W        W61659  42.366  13.825   3.595
90131W        W61660  38.975  41.059   4.448
90132W        W61661   5.695  10.644   1.338
90133W        W61662  44.335  11.734   4.994
90134W        W61663  44.776   6.359   0.332
90135W        W61664  19.283  44.204  13.017
90136W        W61665  37.458  15.663   0.845
90137W        W61666  14.152  33.900  12.112
90138W        W61667   1.741  44.412   2.820
90139W        W61668   5.155   4.144  13.044
90140W        W61669  10.271  36.774   4.630
90141W        W61670  10.693  37.609   3.629
90142W        W61671  29.877  38.390   3.170
90143W        W61672  36.344   9.121  14.076
90144W        W61673  34.640  42.340  14.159
90145W        W61674  44.324  26.129   0.326
90146W        W61675  16.727  26.453  11.916
90147W        W61676  10.235  27.944   2.435
90148W        W61677  23.218  13.241   3.377
90149W        W61678  27.990  26.697  13.957
90150W        W61679   7.752   7.599  14.934
90151W        W61680  21.597  41.534   5.528
90152W        W61681   8.593  44.912   4.446
90153W        W61682  38.552  12.217  11.692
90154W        W61683  38.554   2.756   3.428
90155W        W61684  17.093  33.236   3.628
90156W        W61685  38.540  19.251   4.716
90157W        W61686  19.756   9.580   4.505
90158W        W61687  34.388   8.607   4.357
90159W        W61688  42.138  22.415  13.926
90160W        W61689  38.873  32.916  13.007
90161W        W61690  26.195  27.727   2.774
90162W        W61691   9.324  37.495   2.355
90163W        W61692  19.354  22.654  14.966
90164W        W61693  19.553  37.301   3.688
90165W        W61694  38.215  44.988  11.070
90166W        W61695  10.680   1.208  11.225
90167W        W61696  40.239  31.039   1.163
90168W        W61697  36.877  11.069   0.984
90169W        W61698  26.109   3.444  12.515
90170W        W61699  22.038   0.926   0.799
90171W        W61700  16.759  31.523  10.446
90172W        W61701  29.411  31.987  13.563
90173W        W61702   3.158  10.884  14.176
90174W        W61703   4.388  26.679  14.011
90175W        W61704  16.745  17.360   2.246
90176W        W61705  33.463   2.460   3.180
90177W        W61706   7.307  32.929  14.356
90178W        W61707  39.397  36.408  11.016
90179W        W61708  33.510  14.491   2.694
90180W        W61709  27.430  40.522  10.688
90181W        W61710  25.733  32.570   3.214
90182W        W61711  39.423  23.770   0.756
90183W        W61712  26.460  10.024   9.947
90184W        W61713   6.865  13.547  11.961
90185W        W61714  42.663  34.456   4.025
90186W        W61715  35.063  30.568   2.900
90187W        W61716  35.805  42.006   4.601
90188W        W61717   4.256  23.166  10.689
90189W        W61718  14.030  42.826  14.565
90190W        W61719  29.516  39.959  12.434
90191W        W61720   2.836  30.535   2.164
90192W        W61721  27.677  43.884  11.044
90193W        W61722  44.458  14.182   3.286
90194W        W61723   0.790   0.317  13.922
90195W        W61724  33.191  35.468   4.741
90196W        W61725  32.638   1.189   4.605
90197W        W61726   7.198  42.980   2.272
90198W        W61727  31.792   3.826   2.142
90199W        W61728  15.755  29.740   5.258
90200W        W61729  22.457  19.014  11.062
90201W        W61730  28.596  27.861   4.785
90202W        W61731  15.833  30.214   0.833
90203W        W61732   3.962  35.503  13.515
90204W        W61733  29.019   2.125   4.095
90205W        W61734   3.874  37.891  13.559
90206W        W61735  14.802  41.740   2.352
90207W        W61736  27.417  20.789  11.174
90208W        W61737  23.466  25.972  14.868
90209W        W61738  14.802  35.343  12.493
90210W        W61739  34.350   1.322   0.877
90211W        W61740   3.844  43.355  14.837
90212W        W61741  11.712  37.430   3.738
90213W        W61742  26.488  12.806  10.386
90214W        W61743  44.315  35.933  10.611
90215W        W61744   6.703  37.408  12.432
90216W        W61745  42.933  39.736  14.371
90217W        W61746  32.622   9.151   1.835
90218W        W61747  32.227   1.364   2.890
90219W        W61748  36.051  13.034   4.852
90220W        W61749  31.324  27.786   2.001
90221W        W61750   0.777  22.611   0.712
90222W        W61751  13.775  24.446   0.683
90223W        W61752  42.204  10.165  11.583
90224W        W61753  32.553  25.043  13.508
90225W        W61754  36.721  36.141  13.744
90226W        W61755  40.255   9.156  13.954
90227W        W61756  29.998  23.360   0.921
90228W        W61757  12.307   6.181   0.266
90229W        W61758   2.631  25.607   2.320
90230W        W61759  34.457  39.338  10.811
90231W        W61760  43.391  44.532  13.878
90232W        W61761  23.723  22.246  11.673
90233W        W61762  37.968  23.937   3.785
90234W        W61763  37.912  30.962   1.241
90235W        W61764  29.917  11.094  14.360
90236W        W61765  17.001  16.797   1.411
90237W        W61766  35.058  33.894   4.802
90238W        W61767  24.459   6.113  12.029
90239W        W61768  28.513  30.346   3.278
90240W        W61769  42.512  32.195   2.303
90241W        W61770  21.820   1.688   0.285
90242W        W61771   9.778   9.035   2.835
90243W        W61772  29.304  20.083   2.009
90244W        W61773  12.257   6.509  14.450
90245W        W61774  17.225   5.270   0.195
90246W        W61775   7.305  38.848   0.318
90247W        W61776  30.941  18.714  11.151
90248W        W61777  41.817   0.146  13.197
90249W        W61778  16.615  34.796  12.736
90250W        W61779  34.260  29.372   2.518
90251W        W61780  37.578  11.640  13.999
90252W        W61781  40.851  15.866   4.768
90253W        W61782   6.119   7.155   2.224
90254W        W61783  37.453  36.020  12.550
90255W        W61784  44.056  32.797   3.696
90256W        W61785  17.356  44.964   1.923
90257W        W61786  28.268   1.706  14.224
90258W        W61787  42.500  23.492  14.952
90259W        W61788  35.478  37.499  10.713
90260W        W61789   5.367  38.863  14.876
90261W        W61790   9.714  26.485  14.923
90262W        W61791   7.711  40.137  13.339
90263W        W61792  20.153  20.855  13.783
90264W        W61793  34.021  36.256   3.925
90265W        W61794  29.527  12.206  11.396
90266W        W61795  44.555  36.467  14.486
90267W        W61796  39.220  42.933  11.895
90268W        W61797   9.127  18.639   1.178
90269W        W61798  41.216  42.393  11.591
90270W        W61799   4.887   0.402   4.228
90271W        W61800   3.123   3.462   4.546
90272W        W61801  25.035   9.981  13.017
90273W        W61802   7.717  38.560   0.375
90274W        W61803  33.975   6.725  13.610
90275W        W61804  31.642  30.233   3.701
90276W        W61805  15.338  19.180  13.135
90277W        W61806  11.343  44.451  11.207
90278W        W61807   7.893   0.302   1.838
90279W        W61808  14.821  23.015  11.740
90280W        W61809  35.439  20.725  11.901
90281W        W61810  20.054  10.728  10.475
90282W        W61811  23.262  23.429   2.366
90283W        W61812  44.833  35.915   3.877
90284W        W61813   1.830  29.550   5.107
90285W        W61814  25.126  43.474   0.895
90286W        W61815  34.595   2.699  12.153
90287W        W61816  27.733   1.953  13.520
90288W        W61817  30.508  16.855  13.369
90289W        W61818  26.890  22.032  13.990
90290W        W61819  26.186  16.742   4.090
90291W        W61820  44.752  25.194  12.954
90292W        W61821  34.511  32.170  14.887
90293W        W61822  30.225  27.526   2.818
90294W        W61823  22.104   2.085  10.581
90295W        W61824  31.004  30.569   2.533
90296W        W61825  42.330  43.516   1.294
90297W        W61826   6.143  44.458   0.943
90298W        W61827   0.815  42.769  13.005
90299W        W61828   4.826   4.722   3.572
90300W        W61829  33.038   6.683  13.787
90301W        W61830   5.066  35.127  14.057
90302W        W61831  29.556  36.384  14.372
90303W        W61832  13.121  18.496   0.196
90304W        W61833  21.036  23.657  14.929
90305W        W61834  35.523  34.080   0.434
90306W        W61835  43.241  31.938  10.221
90307W        W61836  20.307  30.174   0.860
90308W        W61837  27.989  20.168   2.300
90309W        W61838  24.517  35.937  13.082
90310W        W61839  29.117  17.753   3.360
90311W        W61840  18.341  38.283  11.567
90312W        W61841  33.087   0.045   3.837
90313W        W61842  28.151  26.979  11.135
90314W        W61843  24.607  28.951  14.958
90315W        W61844   4.745  29.159  13.968
90316W        W61845  44.473  13.380  11.889
90317W        W61846  13.734  29.510  14.837
90318W        W61847  37.715  17.081   5.133
90319W        W61848  34.280   2.170  11.236
90320W        W61849   6.956  18.822  12.197
90321W        W61850  30.073   2.281  11.133
90322W        W61851  41.098  22.768  11.975
90323W        W61852   2.450   7.805   3.729
90324W        W61853  32.151  35.987   4.172
90325W        W61854  26.697  39.484   1.874
90326W        W61855  44.719  20.710  10.526
90327W        W61856  29.226  27.477  11.903
90328W        W61857  38.401  43.990  13.147
90329W        W61858  24.934  28.120   1.006
90330W        W61859  12.070  43.109  13.236
90331W        W61860  11.258  12.238  13.283
90332W        W61861   0.149   4.883   0.343
90333W        W61862  24.925  27.393   3.231
90334W        W61863  10.678   3.194   4.049
90335W        W61864  24.465  24.799   4.451
90336W        W61865   2.361   1.810   1.762
90337W        W61866  13.466   6.829  11.547
90338W        W61867  44.536  19.831  12.573
90339W        W61868  30.352  18.503   4.730
90340W        W61869  43.503  19.774   4.886
90341W        W61870  19.844  30.594   4.028
90342W        W61871  14.124  41.492  11.608
90343W        W61872  26.420   9.685   4.155
90344W        W61873  33.487   6.434   0.489
90345W        W61874  32.830   8.436   3.707
90346W        W61875  11.787  36.508   1.963
90347W        W61876  27.881  35.051  12.246
90348W        W61877  28.135  30.136   0.458
90349W        W61878   5.142  11.931   1.287
90350W        W61879   3.503  23.315   3.753
90351W        W61880  22.087   7.101  11.856
90352W        W61881  33.103  43.705   3.726
90353W        W61882  20.734   3.888  10.489
90354W        W61883  19.814  16.770   4.460
90355W        W61884   7.770  24.304  14.000
90356W        W61885  10.197  24.090  14.766
90357W        W61886  42.249  17.341   3.866
90358W        W61887   1.354  29.555   3.702
90359W        W61888  39.948   2.420   4.103
90360W        W61889  31.264  16.303   4.978
90361W        W61890  12.807  32.155  14.118
90362W        W61891   3.858   9.113   0.090
90363W        W61892   3.963  11.589  13.580
90364W        W61893  26.359  32.934  13.095
90365W        W61894   6.796  15.965   4.198
90366W        W61895  18.660  21.499  11.261
90367W        W61896  31.024  25.206   1.265
90368W        W61897  25.879  26.186   3.277
90369W        W61898  41.313  36.812   0.244
90370W        W61899  36.624  18.031   1.745
90371W        W61900  13.186  30.946  13.269
90372W        W61901  37.608  13.236   0.859
90373W        W61902  40.351  19.023   3.396
90374W        W61903  12.658  17.977   4.124
90375W        W61904  14.053  41.034   4.067
90376W        W61905  25.657  37.975  12.550
90377W        W61906  16.023  43.670   4.760
90378W        W61907  20.699   3.678   4.651
90379W        W61908  24.693  26.436   2.276
90380W        W61909   7.492  38.292   4.107
90381W        W61910  21.528   7.009  12.613
90382W        W61911   7.816   1.957  11.727
90383W        W61912   6.432  13.476   0.184
90384W        W61913   5.574  14.207   3.577
90385W        W61914  40.311  36.882  12.337
90386W        W61915  39.847  29.234   0.872
90387W        W61916  22.922  31.134  12.878
90388W        W61917  17.354  44.567   2.917
90389W        W61918  21.050  25.105  14.780
90390W        W61919  15.647  15.664  12.567
90391W        W61920  12.779  30.414   0.923
90392W        W61921   1.303  35.516   4.947
90393W        W61922  15.836  23.480  13.479
90394W        W61923  22.122   0.053   1.546
90395W        W61924  19.524  21.920  10.747
90396W        W61925  22.137  10.904   1.159
90397W        W61926   8.585  15.130   0.086
90398W        W61927  26.643  35.605   3.584
90399W        W61928  11.870  38.531  14.827
90400W        W61929  27.748  43.783   1.819
90401W        W61930  35.582   2.870   3.347
90402W        W61931  13.945  20.937  14.396
90403W        W61932  28.359   3.951   4.076
90404W        W61933  13.624  31.145  13.792
90405W        W61934  32.625  15.582  11.736
90406W        W61935  23.607  26.240   4.080
90407W        W61936  31.469  16.880   2.979
90408W        W61937   1.405  44.234  10.961
90409W        W61938  27.292  29.371   1.841
90410W        W61939  29.556  25.653  12.250
90411W        W61940  42.496  20.559   1.221
90412W        W61941  39.676   8.304  13.836
90413W        W61942  28.262  31.580  13.784
90414W        W61943  27.786   8.963  12.866
90415W        W61944   1.382  19.092  12.627
90416W        W61945  21.202  26.333  12.577
90417W        W61946  11.395  36.755   1.712
90418W        W61947  11.153   3.323  11.565
90419W        W61948  31.908   2.181   4.554
90420W        W61949  21.319   4.892   2.742
90421W        W61950   8.514  20.731   4.416
90422W        W61951   6.150  30.125   1.208
90423W        W61952  21.707  11.629  11.977
90424W        W61953  19.149  36.487  12.605
90425W        W61954  30.528  19.726  11.859
90426W        W61955  11.300  42.678   2.294
90427W        W61956  24.947  25.916   3.246
90428W        W61957  28.665  34.202  14.097
90429W        W61958   9.910  11.431   2.789
90430W        W61959  38.609  42.878   4.187
90431W        W61960   6.274  15.430  11.576
90432W        W61961  36.738  27.711   2.171
90433W        W61962  21.093  29.986  11.002
90434W        W61963  37.911   0.762  13.529
90435W        W61964  39.583  14.807   0.964
90436W        W61965   6.884  11.159   2.880
90437W        W61966  31.823  22.153  12.045
90438W        W61967  31.941  38.948  14.409
90439W        W61968  37.531   8.958   3.565
90440W        W61969  41.638  11.155  13.736
90441W        W61970  21.101   1.525   2.356
90442W        W61971  14.227  15.676  12.737
90443W        W61972  23.524   5.549  14.917
90444W        W61973  34.372  43.724   1.938
90445W        W61974  17.720  32.430   2.903
90446W        W61975  20.407   0.933  11.561
90447W        W61976  24.637  15.271  12.797
90448W        W61977   4.161  23.902  14.831
90449W        W61978  19.075  35.371  10.851
90450W        W61979  40.727  10.492   2.676
90451W        W61980  25.437   2.300  14.322
90452W        W61981   0.515   2.705   2.277
90453W        W61982   7.210  12.005  14.223
90454W        W61983  22.181  40.860   2.362
90455W        W61984  11.721  40.437   1.329
90456W        W61985   3.791  12.705  14.460
90457W        W61986  35.653  35.582  12.438
90458W        W61987  10.181  32.968  14.347
90459W        W61988  28.822  25.185  14.539
90460W        W61989  25.445  15.351   2.163
90461W        W61990  38.861  20.747   1.611
90462W        W61991  40.651  21.345   2.664
90463W        W61992  37.039  32.909   0.442
90464W        W61993  32.332  35.514  12.154
90465W        W61994  10.920   5.651  13.276
90466W        W61995  41.737  17.225  12.537
90467W        W61996  42.531  18.634   1.973
90468W        W61997  18.259   1.298  12.772
90469W        W61998   9.331  34.673   3.079
90470W        W61999  43.034  27.506   2.388
90471W        W62000  15.314   0.455   2.720
90472W        W62001  15.594  10.872  11.616
90473W        W62002  24.915  22.479  14.780
90474W        W62003  33.637   7.241  10.038
90475W        W62004  16.720  36.177  13.511
90476W        W62005   7.726  21.125  10.122
90477W        W62006   6.727  13.152  14.898
90478W        W62007  14.561  39.819   2.690
90479W        W62008  26.553   4.685   3.636
90480W        W62009  30.745  14.681  11.556
90481W        W62010  14.130   5.166  10.677
90482W        W62011  24.627  42.474  11.677
90483W        W62012  26.165  32.100  10.198
90484W        W62013   7.308  11.346   2.205
90485W        W62014   1.606   9.795  13.497
90486W        W62015  28.628  31.037  14.554
90487W        W62016   6.562  15.760  10.100
90488W        W62017  37.512  40.220  12.508
90489W        W62018  10.791  36.515  12.496
90490W        W62019  40.562  11.201   1.207
90491W        W62020  42.062  23.695  13.151
90492W        W62021  32.813  26.276  12.979
90493W        W62022  34.614   1.324  12.421
90494W        W62023   6.292   1.736  12.955
90495W        W62024   5.395  38.009   1.292
90496W        W62025  43.309  11.704  13.064
90497W        W62026  40.822  35.794  11.212
90498W        W62027  11.070   3.360   4.350
90499W        W62028  37.899   2.320  13.516
90500W        W62029  18.316   6.113   1.102
90501W        W62030  37.568  29.655   2.957
90502W        W62031   6.508   6.093  10.247
90503W        W62032  13.827  26.365  11.908
90504W        W62033  12.297  15.061   1.229
90505W        W62034  17.721  42.273   1.297
90506W        W62035  11.676  20.007  12.144
90507W        W62036  27.568  26.389   4.285
90508W        W62037  44.412  42.828   1.663
90509W        W62038  15.108  33.351  13.397
90510W        W62039   5.201  34.840  13.351
90511W        W62040  17.743  14.741  14.466
90512W        W62041  18.160  20.636  11.556
90513W        W62042  28.574  39.296   1.325
90514W        W62043  16.424  39.862   2.304
90515W        W62044  31.383  17.715   1.184
90516W        W62045   9.202  19.559   0.720
90517W        W62046  24.037  31.074   4.217
90518W        W62047  34.114  24.052  13.426
90519W        W62048   0.343  30.915  14.972
90520W        W62049  27.175  28.721   0.767
90521W        W62050  21.270   4.698  11.713
90522W        W62051  43.305  20.567   1.018
90523W        W62052  11.187  41.718   1.943
90524W        W62053   3.584  20.385  13.849
90525W        W62054   0.530   6.306   4.544
90526W        W62055  43.947  25.199   1.734
90527W        W62056  37.752  43.301   0.541
90528W        W62057  13.213  25.647  13.788
90529W        W62058  31.619  33.371  14.497
90530W        W62059   5.459  21.169   2.693
90531W        W62060  39.455  15.258   0.756
90532W        W62061   5.923  34.868   1.238
90533W        W62062   8.213  15.077  13.882
90534W        W62063   2.915   4.281   2.169
90535W        W62064  25.552  32.847  12.930
90536W        W62065  39.943  29.073  10.939
90537W        W62066  27.087  16.377   1.940
90538W        W62067  23.712  32.928   1.412
90539W        W62068  13.269  11.055   3.672
90540W        W62069   5.018  19.781   0.681
90541W        W62070   3.914   1.435   2.179
90542W        W62071  26.210  39.068   3.371
90543W        W62072  16.069  36.496  12.574
90544W        W62073  24.697  35.334  13.933
90545W        W62074   0.820  31.252  11.714
90546W        W62075  34.042   9.364  12.561
90547W        W62076  10.551  15.164  11.900
90548W        W62077  29.426  21.975   2.727
90549W        W62078  12.137  26.474   4.167
90550W        W62079  23.783  22.744   5.075
90551W        W62080  26.600  26.248  11.184
90552W        W62081  21.274  31.857  14.048
90553W        W62082  20.541  32.349  12.597
90554W        W62083  30.836   7.438  13.417
90555W        W62084  12.734  12.207  11.131
90556W        W62085  10.388   9.215  10.646
90557W        W62086  25.004  27.157   0.487
90558W        W62087   2.679  13.686  12.103
90559W        W62088   9.625  21.976  14.686
90560W        W62089  18.671  33.454  11.541
90561W        W62090  11.139  40.419  14.343
90562W        W62091  37.334   8.308  11.006
90563W        W62092  43.656   8.927   1.891
90564W        W62093  32.851  24.213  11.954
90565W        W62094  10.668  38.502   0.399
90566W        W62095  38.803  18.652   2.384
90567W        W62096   6.126  40.040   3.196
90568W        W62097  33.446   6.648  12.969
90569W        W62098   2.724  12.818   0.331
90570W        W62099  14.494  29.222  10.974
90571W        W62100  32.949   8.204   4.173
90572W        W62101  25.674  21.028  10.281
90573W        W62102  37.318   7.675  13.411
90574W        W62103  30.592  42.862   0.417
90575W        W62104  38.408  18.747  12.083
90576W        W62105  11.565   2.932  13.974
90577W        W62106   7.792  39.373  11.618
90578W        W62107  31.376   5.505  13.829
90579W        W62108  44.688   7.910   0.746
90580W        W62109  44.159  31.948   1.486
90581W        W62110  28.842  10.917  12.994
90582W        W62111  38.914  23.660  14.872
90583W        W62112  14.293  29.965   4.650
90584W        W62113  14.848  22.796  13.922
90585W        W62114  39.425  27.182  12.487
90586W        W62115   5.232  33.406   3.727
90587W        W62116   2.310  26.196   4.676
90588W        W62117  32.839  41.613  11.577
90589W        W62118  11.602  34.602  14.721
90590W        W62119  24.130  12.646  14.037
90591W        W62120  18.552   5.885  12.631
90592W        W62121  11.128  15.824  14.293
90593W        W62122  43.464  25.729  14.830
90594W        W62123  40.504   0.279  13.467
90595W        W62124  22.745   0.096  11.087
90596W        W62125  14.132  27.176  12.175
90597W        W62126  15.113  17.057  13.482
90598W        W62127   6.415  35.965   0.843
90599W        W62128  22.735   7.079  14.398
90600W        W62129  43.813  17.467  14.003
90601W        W62130  34.433  30.383   2.208
90602W        W62131   1.352  13.190  13.018
90603W        W62132  41.726  39.659  13.877
90604W        W62133   4.774  21.163   4.470
90605W        W62134  28.597  17.648   4.531
90606W        W62135  17.632   9.870  10.875
90607W        W62136  23.123  25.008   2.112
90608W        W62137  41.233  29.582   3.649
90609W        W62138  35.872  32.101   1.353
90610W        W62139  43.897  22.236  13.785
90611W        W62140  34.385  11.221   2.280
90612W        W62141  42.731  14.805  11.156
90613W        W62142  31.575  20.304  10.555
90614W        W62143   6.339   9.542   4.625
90615W        W62144  17.519  16.185   4.640
90616W        W62145  21.024  30.340   1.198
90617W        W62146   0.873  12.811   3.908
90618W        W62147  33.877  32.470   0.674
90619W        W62148  30.221  31.589   4.701
90620W        W62149  26.559  19.005  12.194
90621W        W62150  30.665  20.837   0.712
90622W        W62151   5.810  43.428   0.966
90623W        W62152  29.153   6.260   4.567
90624W        W62153  32.390   7.686   3.745
90625W        W62154   2.769  19.848  12.980
90626W        W62155  19.236  26.548  10.573
90627W        W62156  42.027  30.541  11.619
90628W        W62157   0.919  29.395  13.470
90629W        W62158   7.795  40.218   4.023
90630W        W62159  33.571  38.421   4.620
90631W        W62160  12.684  18.695  11.445
90632W        W62161  31.128  10.659   4.637
90633W        W62162  23.760  21.512   3.447
90634W        W62163  10.183  33.558  13.636
90635W        W62164  14.090  30.426  13.139
90636W        W62165  32.809  25.505   3.224
90637W        W62166  24.590  31.711  14.993
90638W        W62167  37.127  30.766  11.132
90639W        W62168  36.892  29.612  12.930
90640W        W62169  30.514  12.216  11.542
90641W        W62170  32.491  14.504  13.829
90642W        W62171  21.125   3.368   2.595
90643W        W62172  19.782  38.073  11.912
90644W        W62173  28.964  32.114  13.875
90645W        W62174  33.334  42.870  11.456
90646W        W62175  14.609  41.477  13.398
90647W        W62176  26.728  12.772   1.405
90648W        W62177  23.635  29.185  11.122
90649W        W62178  22.264  14.224   3.118
90650W        W62179  41.442  23.442  11.572
90651W        W62180  42.016  18.799   3.680
90652W        W62181  27.521  29.423  13.971
90653W        W62182  38.761   4.939  13.933
90654W        W62183  14.122  14.168   0.942
90655W        W62184  17.689  14.284   1.164
90656W        W62185  18.793  26.998  11.468
90657W        W62186  19.795  28.354  11.597
90658W        W62187   7.271   2.935  14.947
90659W        W62188  12.616  40.254   0.504
90660W        W62189  15.051   7.874   3.449
90661W        W62190  32.878  41.214   2.704
90662W        W62191  13.435  17.692   2.553
90663W        W62192   2.961   5.157  11.407
90664W        W62193  33.452   0.708  10.194
90665W        W62194  35.607   7.209   0.424
90666W        W62195   7.720  44.268  11.595
90667W        W62196   2.476   7.224   9.898
90668W        W62197  16.927  24.026   4.542
90669W        W62198  37.535  27.811  12.131
90670W        W62199  17.273  29.271   2.425
90671W        W62200  16.689  21.054  12.854
90672W        W62201   2.975   2.934  13.159
90673W        W62202  22.191  23.442   4.396
90674W        W62203   1.035  39.325   0.461
90675W        W62204  14.699  25.988  12.860
90676W        W62205  14.222   9.388  14.353
90677W        W62206  24.469  30.124  13.089
90678W        W62207  25.028  24.283   4.064
90679W        W62208   3.828  43.681   1.227
90680W        W62209   7.947  33.636   1.344
90681W        W62210  27.997   3.213   4.043
90682W        W62211  12.908   0.800  14.888
90683W        W62212  17.592  41.896  14.887
90684W        W62213  33.997   8.198  13.555
90685W        W62214  19.215  42.457   1.629
90686W        W62215  32.361  44.421  13.560
90687W        W62216  20.932  27.664   0.590
90688W        W62217  36.824  40.520   3.406
90689W        W62218  41.738  18.617   4.072
90690W        W62219  33.635   6.730   1.766
90691W        W62220   4.461  42.390   2.409
90692W        W62221   8.179  16.167   3.864
90693W        W62222  21.502   9.752  12.441
90694W        W62223   0.341  12.226  12.928
90695W        W62224  26.767  42.868   0.965
90696W        W62225  31.986  25.235   1.320
90697W        W62226  26.168  40.511  11.660
90698W        W62227   6.710  23.593  12.445
90699W        W62228   4.681  17.123  13.556
90700W        W62229  15.142  41.443   3.219
90701W        W62230   6.671  19.768   1.454
90702W        W62231  11.843   6.261  10.116
90703W        W62232  14.704  37.833  11.104
90704W        W62233  28.363   3.742  14.971
90705W        W62234  42.565  14.840   4.813
90706W        W62235  28.360  25.067   3.554
90707W        W62236  19.227  37.553  12.176
90708W        W62237   6.861  37.969  10.585
90709W        W62238  43.194   5.908  13.928
90710W        W62239  33.893  31.635   4.383
90711W        W62240  19.646  27.484  13.562
90712W        W62241  33.972   8.425  14.911
90713W        W62242  10.605  29.015   1.902
90714W        W62243  27.924   5.139   2.728
90715W        W62244  30.460  33.286   0.228
90716W        W62245   5.364  21.286   1.377
90717W        W62246  18.366  43.496   2.046
90718W        W62247  24.513  20.552   0.814
90719W        W62248  19.014  17.307  11.493
90720W        W62249   5.647  34.865  13.063
90721W        W62250  26.564  22.800  10.788
90722W        W62251  22.330  25.249   2.315
90723W        W62252  10.765  12.315   1.728
90724W        W62253  32.930   1.314  10.717
90725W        W62254   0.975   2.185  14.730
90726W        W62255  13.925  35.164  12.111
90727W        W62256   3.853  34.363  13.282
90728W        W62257   4.919  31.624  13.891
90729W        W62258  21.168  41.985  14.425
90730W        W62259  13.043  26.131  11.915
90731W        W62260  19.461  17.609  13.618
90732W        W62261  28.393  38.513  11.701
90733W        W62262  38.285  40.941  14.422
90734W        W62263   3.741  11.710   2.102
90735W        W62264  30.610  15.299   1.390
90736W        W62265  39.639  29.990  12.538
90737W        W62266  12.147  38.185   3.756
90738W        W62267   9.411  44.935  12.887
90739W        W62268  42.252  37.779   0.843
90740W        W62269  23.326  33.792  10.800
90741W        W62270  16.853  27.179   0.730
90742W        W62271  31.483  36.278   0.393
90743W        W62272   7.785  25.523   0.264
90744W        W62273  41.274  23.673   4.261
90745W        W62274  15.158  31.616  12.997
90746W        W62275  19.835  24.062  12.425
90747W        W62276  26.560   4.737  14.863
90748W        W62277  44.823  37.521   3.654
90749W        W62278  12.038   4.810   2.377
90750W        W62279  11.566  11.155   3.235
90751W        W62280  12.763  30.991  11.698
90752W        W62281  31.882   5.643   4.608
90753W        W62282  22.534  20.693  14.955
90754W        W62283  44.723  10.703  10.425
90755W        W62284   7.211   2.683  13.561
90756W        W62285  13.621  19.033   2.423
90757W        W62286  15.549  33.399   5.276
90758W        W62287   6.395  36.837   2.391
90759W        W62288  22.718  17.690  11.505
90760W        W62289  31.547  26.014  12.981
90761W        W62290  38.786  11.975  12.527
90762W        W62291  26.177  28.133   3.124
90763W        W62292  17.873  27.066   0.500
90764W        W62293  37.961  33.926  12.535
90765W        W62294  35.069   7.743  11.650
90766W        W62295  26.488   8.189   1.973
90767W        W62296  24.310  44.532  11.410
90768W        W62297  18.570   3.983  12.066
90769W        W62298  20.372  25.077   0.794
90770W        W62299   2.796  31.134   2.092
90771W        W62300  31.008  33.366  11.464
90772W        W62301   6.350  30.107   3.347
90773W        W62302  41.252  33.347   0.288
90774W        W62303  30.235   7.242  13.696
90775W        W62304   0.508   3.342  12.062
90776W        W62305  32.411  41.586  13.036
90777W        W62306  17.483  33.627  14.918
90778W        W62307  18.563   8.686   1.275
90779W        W62308  10.750  15.588  11.100
90780W        W62309  13.620  21.538  10.499
90781W        W62310  25.904  12.685  12.860
90782W        W62311  40.835   6.086  13.083
90783W        W62312  44.047  28.722   4.061
90784W        W62313  18.312  32.183   4.553
90785W        W62314  32.959  25.216   2.161
90786W        W62315  18.349  30.093  11.649
90787W        W62316  25.713  32.738  11.892
90788W        W62317  26.025  23.298  13.216
90789W        W62318   7.723  39.023   3.102
90790W        W62319  16.064  15.222  13.425
90791W        W62320  34.329  42.827   1.802
90792W        W62321  35.475  18.044  13.246
90793W        W62322  19.156  42.760  10.695
90794W        W62323  36.566  30.725  12.186
90795W        W62324  13.262  26.272   4.344
90796W        W62325   4.882   4.940   4.027
90797W        W62326  16.920   6.866   1.029
90798W        W62327  25.548   0.376  11.998
90799W        W62328  44.280   9.261   1.176
90800W        W62329  12.571  20.835   1.356
90801W        W62330  30.427  39.291   0.309
90802W        W62331   8.091   3.717  14.381
90803W        W62332   4.022  43.857   4.162
90804W        W62333  38.841  11.676  10.371
90805W        W62334  25.060   9.724  12.521
90806W        W62335  10.005   8.796  12.899
90807W        W62336  20.195  42.377   3.549
90808W        W62337  43.163  30.927   3.692
90809W        W62338  28.993   7.830  13.470
90810W        W62339  17.009  40.520  12.615
90811W        W62340  22.817  36.833  12.464
90812W        W62341  27.413   3.071  11.622
90813W        W62342   4.170  34.098   1.667
90814W        W62343  41.845  29.491   0.305
90815W        W62344  33.896  23.563   0.911
90816W        W62345  44.847  39.848  14.415
90817W        W62346  36.523  44.570  13.710
90818W        W62347  32.959  29.411  10.629
90819W        W62348  41.502   5.778   2.675
90820W        W62349  30.110   3.858  11.315
90821W        W62350  14.499  43.923   2.896
90822W        W62351  35.960  11.583   4.414
90823W        W62352  26.257   7.336   0.921
90824W        W62353   8.625  20.781   2.640
90825W        W62354  16.102   5.841  10.450
90826W        W62355  21.313   9.479   0.385
90827W        W62356  20.724   7.658   1.878
90828W        W62357  32.459   7.537  13.049
90829W        W62358  38.920   4.012  10.641
90830W        W62359  27.587  28.986   1.657
90831W        W62360  42.885  37.693  10.106
90832W        W62361  26.964  20.640   3.690
90833W        W62362  27.213  20.716  13.504
90834W        W62363   2.784  39.140  14.006
90835W        W62364  17.421  11.187  10.680
90836W        W62365  35.724   4.988   2.897
90837W        W62366  31.623  22.606  13.961
90838W        W62367  36.004  18.014   0.503
90839W        W62368  15.148  35.699  13.047
90840W        W62369  22.289   9.757  12.908
90841W        W62370  19.717  30.325  11.179
90842W        W62371  25.589  22.693  13.016
90843W        W62372  25.692  43.926   1.255
90844W        W62373  41.572  21.638   0.781
90845W        W62374  23.956  31.575  11.477
90846W        W62375  29.124  38.802  11.003
90847W        W62376  39.819  33.114  11.811
90848W        W62377  18.170  33.264   1.924
90849W        W62378   8.264  15.457   0.323
90850W        W62379  17.038  11.557  10.618
90851W        W62380  16.117  40.451  14.218
90852W        W62381   8.768   4.714   3.695
90853W        W62382  39.929  33.473   4.367
90854W        W62383  40.809  26.173  14.434
90855W        W62384  17.697  32.170  10.277
90856W        W62385  37.182  21.848  13.880
90857W        W62386  33.226   5.784  12.189
90858W        W62387  39.835  40.795  11.170
90859W        W62388  44.098  37.161  11.069
90860W        W62389  26.187  17.030   0.284
90861W        W62390  38.697  19.356  10.648
90862W        W62391  39.460  39.044   2.863
90863W        W62392  20.005  43.902   3.712
90864W        W62393  23.237  43.883   3.238
90865W        W62394  28.542  31.213  11.866
90866W        W62395  43.520  33.213  11.837
90867W        W62396  26.778  43.984   3.235
90868W        W62397  34.997  10.776  11.926
90869W        W62398  40.805  17.506  11.040
90870W        W62399  35.981   0.769   3.166
90871W        W62400  18.357  32.683  14.396
90872W        W62401  22.558  15.799  13.338
90873W        W62402  30.446  11.298   3.601
90874W        W62403   2.816  10.664   2.372
90875W        W62404   9.464  17.644  10.325
90876W        W62405  42.529  44.001   0.345
90877W        W62406  44.428  31.507   1.312
90878W        W62407  35.913  15.814   1.976
90879W        W62408  39.848  16.187  13.966
90880W        W62409  12.023  11.332   4.073
90881W        W62410  16.546  14.179   0.246
90882W        W62411  20.988  32.633  12.578
90883W        W62412  19.722  17.018  10.993
90884W        W62413  36.434  35.159  13.046
90885W        W62414   7.048   8.960  12.310
90886W        W62415  10.275  19.416  13.345
90887W        W62416  23.486  41.809  12.581
90888W        W62417  32.952  34.105   2.490
90889W        W62418  22.267  32.095  10.645
90890W        W62419   5.778  30.125   2.257
90891W        W62420   1.071  23.668  14.324
90892W        W62421  24.254  35.474   1.180
90893W        W62422   3.663   6.420   4.672
90894W        W62423   6.841  24.949   0.913
90895W        W62424  35.902  34.743   0.739
90896W        W62425  20.448  35.758  14.984
90897W        W62426  14.828  29.864  11.536
90898W        W62427  14.274  16.748   3.658
90899W        W62428  28.895  15.796   0.446
90900W        W62429  44.425   7.942  12.528
90901W        W62430  37.150  23.841  11.190
90902W        W62431  35.136  15.612   0.329
90903W        W62432   4.681  39.466  11.127
90904W        W62433  41.792  13.824   2.769
90905W        W62434  38.963  22.876   4.088
90906W        W62435  27.931   2.754   2.427
90907W        W62436  35.356  36.763   2.666
90908W        W62437  36.499   0.159  11.381
90909W        W62438  12.529  23.475  12.169
90910W        W62439  26.046  16.298   0.816
90911W        W62440  29.871  30.588  13.037
90912W        W62441  28.396  23.723  13.019
90913W        W62442  43.899   3.476  10.232
90914W        W62443  41.859   6.141   3.634
90915W        W62444   2.269  41.993  10.845
90916W        W62445  11.837  30.971   0.768
90917W        W62446  26.709  37.871  10.769
90918W        W62447  14.290  32.899   1.340
90919W        W62448  36.232  42.259  11.694
90920W        W62449   0.810  36.085  10.232
90921W        W62450  41.012  35.200  13.827
90922W        W62451   9.384   8.716  13.787
90923W        W62452  31.651  14.279   1.491
90924W        W62453   8.817   0.704  12.084
90925W        W62454   3.254  34.608   3.095
90926W        W62455  42.281  42.969   1.967
90927W        W62456   7.264  13.019  14.502
90928W        W62457  20.240  31.054  12.876
90929W        W62458  10.913  34.884  14.133
90930W        W62459  16.603  36.160  12.987
90931W        W62460  42.994  40.762  14.339
90932W        W62461  17.984  25.045  12.055
90933W        W62462  27.206  23.430  10.794
90934W        W62463  20.044  16.728  10.701
90935W        W62464  38.077  15.262  12.804
90936W        W62465  41.537  34.987  13.000
90937W        W62466  44.221  39.924  10.692
90938W        W62467  12.735   1.770   2.725
90939W        W62468  25.489  16.775   0.318
90940W        W62469  42.229  43.014   1.449
90941W        W62470  13.634  43.021  11.190
90942W        W62471  18.054   8.896   1.285
90943W        W62472  16.291  24.612  10.737
90944W        W62473   1.635  24.758   4.141
90945W        W62474  35.448   4.310   1.167
90946W        W62475  13.115  25.291   1.428
90947W        W62476  17.782  18.908  12.363
90948W        W62477  11.798  15.894  12.571
90949W        W62478  32.396  43.835  10.589
90950W        W62479  39.610  39.991   4.557
90951W        W62480  17.581  32.430   1.691
90952W        W62481  16.237   8.773  11.143
90953W        W62482  36.983  15.278  11.140
90954W        W62483  27.041   4.672   3.875
90955W        W62484  32.652  35.566   3.813
90956W        W62485  34.091  42.858   0.751
90957W        W62486  16.971  17.253  12.470
90958W        W62487  11.912  13.204  10.794
90959W        W62488  15.629  15.273   4.138
90960W        W62489  35.312  15.068  12.581
90961W        W62490  37.348  25.690  13.659
90962W        W62491  14.271  33.925  10.999
90963W        W62492  34.164  43.520  13.753
90964W        W62493  37.060   4.786  12.974
90965W        W62494  32.380   4.308  12.528
90966W        W62495  42.748  41.580   3.073
90967W        W62496  13.517  43.796   3.779
90968W        W62497  32.204  19.790  14.171
90969W        W62498  12.056  44.232  10.056
90970W        W62499   5.404   2.695   1.348
90971W        W62500  13.224  30.660   3.433
90972W        W62501   4.977  11.144   3.167
90973W        W62502   2.655  12.433   2.684
90974W        W62503  27.718  32.510   5.013
90975W        W62504  19.254  15.802   3.879
90976W        W62505  29.803  25.228  12.084
90977W        W62506   9.610  16.866  13.888
90978W        W62507  42.505  14.704   3.759
90979W        W62508  15.110   6.759   1.123
90980W        W62509  24.606  13.241   0.765
90981W        W62510  17.299  27.427   3.091
90982W        W62511   7.303  32.501   2.099
90983W        W62512  10.204  26.830   3.761
90984W        W62513  24.179  31.014   2.712
90985W        W62514  43.896  35.404  14.913
90986W        W62515  10.212  21.361   0.162
90987W        W62516   2.790   4.482  13.507
90988W        W62517  14.730  30.609   0.352
90989W        W62518  11.362  27.444   1.286
90990W        W62519  37.478  42.467  12.517
90991W        W62520  16.187  12.879   2.731
90992W        W62521  22.585  33.768   2.795
90993W        W62522   8.198  12.196   4.549
90994W        W62523  22.123  28.651   2.390
90995W        W62524  20.925  43.758  11.163
90996W        W62525   2.101  13.752   0.763
90997W        W62526  29.193   6.073  12.538
90998W        W62527  24.921  29.963   2.109
90999W        W62528  12.971  38.819   4.904
91000W        W62529  11.902  33.822   2.296
91001W        W62530  19.024   6.202  13.484
91002W        W62531  28.512  15.915   1.846
91003W        W62532  38.647  16.793  14.828
91004W        W62533  39.471  34.953  12.256
91005W        W62534  21.038  41.464   3.917
91006W        W62535   1.525  30.194  13.560
91007W        W62536  30.518  28.618   4.232
91008W        W62537  33.089   9.574   4.928
91009W        W62538  15.010  10.682   1.409
91010W        W62539  26.982  25.554   3.819
91011W        W62540   9.842  10.212   4.693
91012W        W62541  22.552  36.512   3.305
91013W        W62542  30.868  13.292   2.799
91014W        W62543  25.356   4.429  14.816
91015W        W62544  11.165   1.989  10.269
91016W        W62545  24.845  11.727   4.885
91017W        W62546  17.632  14.303   2.932
91018W        W62547  17.773  38.979  12.776
91019W        W62548  10.342   8.649  14.193
91020W        W62549  12.535  24.020   4.513
91021W        W62550  27.550  14.970   4.094
91022W        W62551  15.791  19.234  12.855
91023W        W62552   3.445  14.928  11.551
91024W        W62553  10.922   3.620   0.345
91025W        W62554  39.404   1.360   0.515
91026W        W62555  27.924  18.251   0.320
91027W        W62556  28.875   7.943  12.971
91028W        W62557  37.009  29.588   1.763
91029W        W62558  27.605   2.376  13.807
91030W        W62559  19.324   5.768  13.532
91031W        W62560  42.555  15.136  12.049
91032W        W62561  37.023   6.108   2.221
91033W        W62562   0.743   0.964  14.383
91034W        W62563  16.692   2.438  13.129
91035W        W62564  10.763  34.556   2.826
91036W        W62565  41.053   2.966  10.564
91037W        W62566  44.323  12.887  12.004
91038W        W62567  31.074   8.866  14.710
91039W        W62568  13.482  27.270   2.995
91040W        W62569  28.938  27.698  10.393
91041W        W62570   8.801  19.807  11.754
91042W        W62571  35.848   7.203  10.703
91043W        W62572  13.567   7.318   1.218
91044W        W62573   1.506  12.055  10.743
91045W        W62574  25.645  28.139   2.622
91046W        W62575  33.170  11.432  13.027
91047W        W62576   5.819  29.929  13.627
91048W        W62577  31.428  12.284  12.449
91049W        W62578  30.271  35.301   0.370
91050W        W62579  20.567  28.112  12.143
91051W        W62580   6.718  16.612   1.943
91052W        W62581  43.537   7.629   3.618
91053W        W62582  15.399   3.445  14.538
91054W        W62583  14.599   8.720  13.106
91055W        W62584  25.027  21.683   4.565
91056W        W62585  25.168  35.124   2.278
91057W        W62586  33.453  27.579   4.504
91058W        W62587  11.424  10.172   4.663
91059W        W62588  14.674   1.481  13.953
91060W        W62589  35.046  33.840  14.438
91061W        W62590   0.351   4.378  14.971
91062W        W62591  37.432  32.126   1.174
91063W        W62592  25.620  19.139  10.936
91064W        W62593  37.463  20.637   4.677
91065W        W62594   4.722  44.501  11.707
91066W        W62595  44.264  10.891  12.585
91067W        W62596   1.389   8.209  11.135
91068W        W62597  35.176  31.379   3.677
91069W        W62598  37.331  44.369   0.690
91070W        W62599  44.206  10.724  11.127
91071W        W62600  43.407  39.624   2.563
91072W        W62601  26.525  35.012  14.905
91073W        W62602  34.284  35.079  12.940
91074W        W62603   0.201   1.423   1.360
91075W        W62604   7.871  25.170  14.885
91076W        W62605  13.366  13.539  12.805
91077W        W62606  34.989  25.067  10.652
91078W        W62607  22.669  26.145   3.631
91079W        W62608  37.510   0.358   4.095
91080W        W62609   2.625  35.746  11.391
91081W        W62610  42.000   4.357   2.192
91082W        W62611  30.563  44.622   1.360
91083W        W62612  27.286  28.177  13.515
91084W        W62613  37.786   7.652  12.029
91085W        W62614   9.205  34.081   0.427
91086W        W62615  31.572   8.840   2.769
91087W        W62616  36.456  33.479   1.514
91088W        W62617  42.472  23.207   1.808
91089W        W62618  15.683  26.364  11.250
91090W        W62619  43.612   7.084  13.080
91091W        W62620  43.291  10.573   3.407
91092W        W62621   5.386  25.983  13.894
91093W        W62622   8.846  39.970  13.428
91094W        W62623  40.821  18.301  13.788
91095W        W62624  31.425  14.803   3.780
91096W        W62625  39.966  18.265   2.650
91097W        W62626   9.405  38.363   0.773
91098W        W62627   1.549  15.973  10.092
91099W        W62628  29.555   4.544  11.690
91100W        W62629   6.081  41.589   4.076
91101W        W62630  37.041  37.583   4.524
91102W        W62631  27.623  42.948  12.607
91103W        W62632   0.264  27.803  12.581
91104W        W62633  32.538   1.834   0.979
91105W        W62634  37.443  30.010   3.314
91106W        W62635  32.589  15.140   4.367
91107W        W62636   9.908  15.890  11.569
91108W        W62637  29.563  22.392  11.085
91109W        W62638  30.081  14.289   0.802
91110W        W62639  40.088  37.686   1.849
91111W        W62640  44.013  39.582   1.894
91112W        W62641  10.915  21.706   0.831
91113W        W62642   9.549  43.694   0.293
91114W        W62643  13.889  31.794  11.072
91115W        W62644   5.844   7.737  11.203
91116W        W62645  30.207  28.138  12.407
91117W        W62646   1.180  41.050   3.096
91118W        W62647  34.950   4.727  12.010
91119W        W62648  32.549  27.523  11.050
91120W        W62649   2.289  26.692  13.483
91121W        W62650  29.157   1.494   4.814
91122W        W62651  41.548  11.394  11.587
91123W        W62652  18.869  12.178  10.720
91124W        W62653  37.593  12.670   0.384
91125W        W62654  29.601  11.430   3.327
91126W        W62655   5.501  35.449  10.734
91127W        W62656  43.336  40.477   0.369
91128W        W62657  11.846  31.950  12.027
91129W        W62658  31.117  25.998   0.947
91130W        W62659  43.555   0.036  13.927
91131W        W62660   5.856  21.952  12.410
91132W        W62661  34.459  29.417  12.091
91133W        W62662   7.425  19.348   1.562
91134W        W62663  42.043  24.620  11.414
91135W        W62664  39.538  42.567   0.930
91136W        W62665  44.448  29.363   2.837
91137W        W62666  20.193  21.180  14.669
91138W        W62667  12.580  33.791   3.845
91139W        W62668  15.262  17.171   3.363
91140W        W62669  28.048   1.798   2.356
91141W        W62670  23.104  28.545  11.405
91142W        W62671  12.840  34.129   2.167
91143W        W62672  36.949  21.806  12.102
91144W        W62673   2.685   0.323   1.692
91145W        W62674  44.002  42.842  10.259
91146W        W62675  36.152   8.164  14.754
91147W        W62676   4.987  11.030  13.953
91148W        W62677  12.728  17.050   3.570
91149W        W62678   4.828  13.201  14.697
91150W        W62679  31.669  14.729  14.758
91151W        W62680  23.538  34.519   3.362
91152W        W62681  37.809  10.441  11.417
91153W        W62682  11.852   9.345   0.410
91154W        W62683  43.813  38.166  10.923
91155W        W62684  21.364  19.720  14.986
91156W        W62685  19.766   2.705  14.703
91157W        W62686   1.545  28.961  12.977
91158W        W62687  37.544  29.277   2.617
91159W        W62688  19.284   6.402  13.902
91160W        W62689   8.676   7.427   1.310
91161W        W62690   3.285  38.101   3.294
91162W        W62691  44.516  22.041   1.458
91163W        W62692  22.601  26.261   3.107
91164W        W62693  19.718  32.140  10.729
91165W        W62694  35.580  28.415  13.502
91166W        W62695  40.476   2.402  12.491
91167W        W62696  30.963   4.413  12.309
91168W        W62697  42.249  25.665   0.392
91169W        W62698   2.429   4.895  12.765
91170W        W62699  31.023  22.002   4.589
91171W        W62700  14.758  28.203   0.745
91172W        W62701  27.808  15.163   2.724
91173W        W62702  17.339  10.530   4.613
91174W        W62703  36.520  31.164   2.336
91175W        W62704  36.069  29.926  14.012
91176W        W62705  16.911  22.244  13.492
91177W        W62706   3.346   6.819  11.490
91178W        W62707  37.001  20.861  13.898
91179W        W62708  24.196  11.380  12.491
91180W        W62709  37.508   3.789  11.903
91181W        W62710  44.282  25.631   1.424
91182W        W62711  28.486   7.767  11.059
91183W        W62712  10.362  15.676   1.397
91184W        W62713   2.886   4.057  14.380
91185W        W62714  23.467  24.478   3.350
91186W        W62715  34.368  27.198  14.425
91187W        W62716  42.547  36.106  10.945
91188W        W62717   2.777  38.660   3.694
91189W        W62718  16.042  27.924   3.969
91190W        W62719  31.357  20.094  14.377
91191W        W62720  42.405   8.165  10.669
91192W        W62721  13.282  36.920  14.720
91193W        W62722  26.563  25.663   4.571
91194W        W62723  16.064  42.830  14.803
91195W        W62724  19.895  33.165  12.878
91196W        W62725  41.767  24.498   3.070
91197W        W62726  39.488  23.446   2.806
91198W        W62727  19.697  28.919   0.808
91199W        W62728  38.637   1.833   1.029
91200W        W62729  29.686  15.300  14.077
91201W        W62730   4.192  41.137   1.340
91202W        W62731  20.962  39.229   1.487
91203W        W62732  37.503  20.659  13.863
91204W        W62733  38.960   6.236  11.159
91205W        W62734  40.053  33.711   2.899
91206W        W62735  10.169  30.027  12.009
91207W        W62736  42.770  25.160  11.418
91208W        W62737   3.123  36.846   3.836
91209W        W62738   4.015  31.684  14.072
91210W        W62739  22.568  41.039   4.918
91211W        W62740  14.095  34.628  12.828
91212W        W62741  18.592   5.582   4.489
91213W        W62742   3.828   4.252   1.286
91214W        W62743   9.835  42.552   1.240
91215W        W62744  17.681  43.461   3.387
91216W        W62745  31.055  37.127   1.225
91217W        W62746   7.073  22.729   4.451
91218W        W62747   1.855  32.387  11.615
91219W        W62748  12.061  14.784  12.908
91220W        W62749  43.217  25.591   4.218
91221W        W62750   3.753  38.891   2.502
91222W        W62751   7.035   8.776   0.154
91223W        W62752  40.572  38.252  12.681
91224W        W62753  32.618  44.279   3.241
91225W        W62754  32.148   3.416  13.816
91226W        W62755   5.610  22.209   2.692
91227W        W62756  39.929  18.009   3.132
91228W        W62757  27.937  17.042  12.203
91229W        W62758  12.871  28.503   4.695
91230W        W62759  25.199  30.533   3.317
91231W        W62760   1.919   4.926  12.901
91232W        W62761  10.259  11.203  12.431
91233W        W62762  27.586   0.517   2.265
91234W        W62763  19.182   4.611  14.742
91235W        W62764   9.278  23.069  13.553
91236W        W62765  24.061  16.515   3.218
91237W        W62766  40.560  34.191   1.639
91238W        W62767  22.220  24.891   1.226
91239W        W62768  31.227  19.966   3.707
91240W        W62769   0.373   1.244   4.416
91241W        W62770  40.255  41.300   1.741
91242W        W62771   0.744  19.495   4.609
91243W        W62772  31.974  10.405  10.365
91244W        W62773  38.031  13.328   4.171
91245W        W62774  22.049   2.191   2.224
91246W        W62775  17.374  14.586  13.527
91247W        W62776  40.299  21.927   4.696
91248W        W62777  13.196  17.848  11.169
91249W        W62778  28.133  23.946   2.597
91250W        W62779  19.736   6.924  11.626
91251W        W62780  23.754  36.809  11.647
91252W        W62781  39.602  20.128  14.317
91253W        W62782   8.629  24.977  14.498
91254W        W62783  14.631   3.627   1.773
91255W        W62784   0.500   8.278   1.824
91256W        W62785  31.205   7.964  12.300
91257W        W62786   1.132  38.901  12.312
91258W        W62787  25.162   0.229  13.745
91259W        W62788  43.439   3.445   3.236
91260W        W62789  26.691   8.354   0.491
91261W        W62790  26.966  13.787  13.738
91262W        W62791   4.090   7.808  13.241
91263W        W62792   6.579  43.842   1.116
91264W        W62793   5.203   1.389   4.404
91265W        W62794  15.768  23.988   3.211
91266W        W62795  15.784  36.622  11.007
91267W        W62796  42.793  22.901  13.954
91268W        W62797  18.411  31.037   9.667
91269W        W62798  11.561  19.704  14.424
91270W        W62799  19.787  26.023  14.322
91271W        W62800  32.066  28.693  13.353
91272W        W62801  28.260  13.102   4.594
91273W        W62802  35.368  27.805   0.049
91274W        W62803  26.595  31.368  14.585
91275W        W62804  44.456  27.141  14.456
91276W        W62805  11.935  14.669   1.331
91277W        W62806  34.663  25.168  14.281
91278W        W62807  34.030  25.958  11.153
91279W        W62808  39.391  43.010   1.840
91280W        W62809  37.369  30.644  14.959
91281W        W62810  39.311  17.713   1.362
91282W        W62811   0.340  30.726   4.513
91283W        W62812  32.665  36.475   3.659
91284W        W62813  27.222  30.981   2.732
91285W        W62814  24.350   2.753   4.774
91286W        W62815  34.706  21.183  12.682
91287W        W62816  19.736   3.789  13.128
91288W        W62817  38.463  24.706   1.710
91289W        W62818  18.440   6.764  11.077
91290W        W62819  37.063  18.358   1.730
91291W        W62820   5.354  20.979  12.494
91292W        W62821  27.956  31.927  11.577
91293W        W62822  12.773   6.275  12.829
91294W        W62823  18.365  32.075  14.977
91295W        W62824  12.472   9.781   2.406
91296W        W62825  37.143  24.986  11.955
91297W        W62826  11.072   3.261  13.606
91298W        W62827  22.207  15.788   2.724
91299W        W62828  42.696  20.902   1.764
91300W        W62829  44.571  32.060  14.836
91301W        W62830   5.301  35.375   0.304
91302W        W62831  38.833  21.131   3.432
91303W        W62832  39.324   1.694   0.102
91304W        W62833  26.554  15.544   2.726
91305W        W62834  32.500  20.417   3.913
91306W        W62835  41.460   3.641   5.070
91307W        W62836   7.552  16.655   0.932
91308W        W62837  40.014   2.060   4.600
91309W        W62838  41.484  27.019   2.231
91310W        W62839  10.010   4.204  11.718
91311W        W62840  13.087   7.889   2.307
91312W        W62841  16.741  22.001   1.183
91313W        W62842  21.681  23.314  14.986
91314W        W62843  35.956   0.727  13.881
91315W        W62844   3.769  15.306  11.774
91316W        W62845  32.513  19.296  13.367
91317W        W62846  42.069   0.359  10.391
91318W        W62847   7.766  27.561  13.514
91319W        W62848  32.864  11.685  13.452
91320W        W62849  34.144  10.206   4.122
91321W        W62850   6.598  25.093   2.271
91322W        W62851  34.111   3.358   2.722
91323W        W62852  36.629  23.838  14.942
91324W        W62853  43.491  43.655   0.423
91325W        W62854  37.564  38.408  11.254
91326W        W62855  38.171  42.947   5.097
91327W        W62856   7.283  30.192  14.466
91328W        W62857  24.991   3.047  11.920
91329W        W62858  24.878  24.081   1.669
91330W        W62859  13.079  29.050  13.941
91331W        W62860  22.603   8.395   0.348
91332W        W62861  18.540  10.743  11.227
91333W        W62862  19.160  26.573  12.912
91334W        W62863  28.126  41.012  11.480
91335W        W62864   1.478   4.916   1.417
91336W        W62865  21.797   0.000   4.404
91337W        W62866  12.597  27.084  12.088
91338W        W62867  10.214  15.550  14.565
91339W        W62868  28.556  23.091  14.857
91340W        W62869  37.915   4.393   0.972
91341W        W62870   2.179   0.672  11.987
91342W        W62871   0.628   0.444  12.333
91343W        W62872  41.373  26.057   2.221
91344W        W62873   9.775  33.074   0.136
91345W        W62874   5.112  12.782   4.610
91346W        W62875   1.461  16.690   0.032
91347W        W62876  26.412  18.255   3.674
91348W        W62877   3.619  35.587  13.889
91349W        W62878   2.394  20.874  11.688
91350W        W62879  36.989  30.618   2.777
91351W        W62880  20.525  33.874   1.945
91352W        W62881  37.629  44.643   4.097
91353W        W62882  34.118   7.171   3.303
91354W        W62883  26.499   8.650  13.367
91355W        W62884  18.576   7.603   4.058
91356W        W62885  10.659  44.473   0.819
91357W        W62886  38.569  15.181  10.978
91358W        W62887   0.957  28.149  12.937
91359W        W62888  34.940   9.552   2.965
91360W        W62889  34.959  43.490  14.772
91361W        W62890   4.974  44.755  14.528
91362W        W62891  29.883  36.291   4.186
91363W        W62892  44.721  26.645  13.405
91364W        W62893   5.841  26.122  11.325
91365W        W62894   2.524  37.895  13.978
91366W        W62895  12.132  28.931  11.993
91367W        W62896   5.986   0.344  12.927
91368W        W62897  38.084   2.471  11.520
91369W        W62898  16.337  18.206   4.584
91370W        W62899   5.292  15.682   2.696
91371W        W62900  16.753  36.147   0.285
91372W        W62901  10.748  29.643   3.765
91373W        W62902  20.110  31.071   1.467
91374W        W62903  22.690  15.777   2.164
91375W        W62904  11.220  36.036  10.889
91376W        W62905   1.626   2.718  11.740
91377W        W62906  30.536  32.745  13.506
91378W        W62907   3.830  42.473   1.766
91379W        W62908  32.443  10.154   3.264
91380W        W62909  44.020  37.871  10.547
91381W        W62910  36.776   1.310  14.277
91382W        W62911  15.314  28.925   3.646
91383W        W62912   1.970  31.849  11.561
91384W        W62913  18.109  16.692   1.858
91385W        W62914   2.696   0.338   2.663
91386W        W62915  33.913  21.611  11.540
91387W        W62916  19.858  30.861   4.771
91388W        W62917  35.808  14.180  13.310
91389W        W62918   4.435   1.134  12.007
91390W        W62919  27.884  13.729   3.310
91391W        W62920   8.755   4.309  14.691
91392W        W62921  39.817  39.547  12.958
91393W        W62922  18.146  33.042   4.423
91394W        W62923  23.715   1.211   4.235
91395W        W62924  34.828  25.946  10.579
91396W        W62925  19.173  15.632  12.575
91397W        W62926  42.086   8.159  14.959
91398W        W62927  42.929   6.093   2.723
91399W        W62928   2.172   3.700  12.403
91400W        W62929   4.282  41.663  11.481
91401W        W62930  35.110  35.521   0.391
91402W        W62931  32.838  33.892   1.766
91403W        W62932  27.949  43.929  13.447
91404W        W62933   1.943  28.079   1.108
91405W        W62934  16.866  24.203  11.533
91406W        W62935  15.686   2.317  13.320
91407W        W62936  24.556  13.680  10.671
91408W        W62937  17.491  13.118   3.335
91409W        W62938  29.421  14.314   1.172
91410W        W62939  14.545  28.905   4.271
91411W        W62940   5.316  30.369  12.101
91412W        W62941   6.370  10.160   0.734
91413W        W62942  41.396   0.272   0.737
91414W        W62943  19.267  15.130  14.987
91415W        W62944  12.243  38.050   2.746
91416W        W62945  38.702  10.236  11.086
91417W        W62946  12.800   6.728   1.931
91418W        W62947  27.575  14.254   1.289
91419W        W62948   8.492  37.364   1.977
91420W        W62949  40.154  16.122   2.335
91421W        W62950  35.562  34.932   2.352
91422W        W62951  36.180   9.755  10.720
91423W        W62952  22.002   8.370  10.392
91424W        W62953  18.518  38.382   3.636
91425W        W62954  32.402  27.137  11.947
91426W        W62955   7.308  18.719  14.313
91427W        W62956   1.015  41.529   2.847
91428W        W62957  27.125  44.935   3.118
91429W        W62958  12.626  43.912  10.228
91430W        W62959  38.413   8.225   0.838
91431W        W62960  42.422  18.345  13.529
91432W        W62961  31.100   1.171  12.557
91433W        W62962  37.347  44.844   0.020
91434W        W62963  29.425   2.220  14.560
91435W        W62964  38.902  20.131  14.888
91436W        W62965  23.465  18.701  13.998
91437W        W62966  11.928   1.718   5.162
91438W        W62967  13.192  12.470  11.188
91439W        W62968   1.971  39.944   3.556
91440W        W62969  14.314   9.920   0.483
91441W        W62970  29.155   7.006  12.833
91442W        W62971   8.380  34.060   2.821
91443W        W62972   7.732  44.719  12.320
91444W        W62973  38.078   1.501  14.930
91445W        W62974   1.810  16.862  12.114
91446W        W62975   2.724  21.041   2.925
91447W        W62976  19.269  38.525   4.980
91448W        W62977  41.050   7.904  12.477
91449W        W62978  28.253  26.054   4.701
91450W        W62979  16.891  28.649  12.530
91451W        W62980   7.336  27.432  11.510
91452W        W62981  35.485  33.049  14.437
91453W        W62982   4.147  20.134  10.752
91454W        W62983  13.893  10.196  11.510
91455W        W62984  10.411  16.015  12.017
91456W        W62985  31.836  19.498   4.186
91457W        W62986  17.823   4.261  10.762
91458W        W62987  15.519  23.072  13.411
91459W        W62988  17.977   7.734  13.968
91460W        W62989  10.597  18.899   4.562
91461W        W62990   7.188  37.540  10.725
91462W        W62991  15.708  35.854   2.334
91463W        W62992  29.927  11.351  13.443
91464W        W62993  14.383  17.804   1.505
91465W        W62994  16.075   2.814  11.009
91466W        W62995   6.748  30.564  11.102
91467W        W62996  14.676  20.264   5.024
91468W        W62997   6.827  23.498  14.970
91469W        W62998  12.174  29.106   1.784
91470W        W62999  40.746  38.124   3.074
91471W        W63000  23.163  31.951  11.707
91472W        W63001   5.762   9.809  12.548
91473W        W63002   9.483  31.467  10.622
91474W        W63003  18.624  40.736  13.072
91475W        W63004  39.583  37.580   4.621
91476W        W63005  20.097   2.959   2.903
91477W        W63006  34.362   8.677   1.474
91478W        W63007  15.731  21.988   0.330
91479W        W63008  44.093  38.838   3.070
91480W        W63009  28.230  22.289   3.197
91481W        W63010  39.821   1.772   2.314
91482W        W63011  29.199  38.552  14.721
91483W        W63012   4.965  15.165   1.749
91484W        W63013  39.773  12.093  13.608
91485W        W63014   7.439  17.224  10.288
91486W        W63015  22.388  31.121  12.060
91487W        W63016  40.475   1.904   4.792
91488W        W63017  36.466  24.949   4.144
91489W        W63018   8.808  44.389   0.066
91490W        W63019  21.638  28.748   2.211
91491W        W63020  33.222  20.674  13.507
91492W        W63021  29.732  30.452   0.600
91493W        W63022  41.456  25.717  14.795
91494W        W63023  27.855  15.453  10.188
91495W        W63024  42.443  20.664   4.649
91496W        W63025  11.916  34.351   4.198
91497W        W63026  33.536  26.913  13.506
91498W        W63027   8.204  30.542   1.334
91499W        W63028   4.688   1.774   4.140
91500W        W63029  42.788  14.555  11.603
91501W        W63030  38.943  40.359  11.159
91502W        W63031  19.729  24.038   4.108
91503W        W63032  36.158  10.599  11.159
91504W        W63033   2.471  18.507   0.621
91505W        W63034  15.899  29.237   5.370
91506W        W63035  20.644  18.063  12.023
91507W        W63036  40.472  43.761  14.946
91508W        W63037  41.869   5.153   2.759
91509W        W63038  38.369   0.532  13.329
91510W        W63039  26.888  35.910   3.934
91511W        W63040  25.173  34.850   0.452
91512W        W63041  10.957  39.840   2.300
91513W        W63042  10.876   9.664   1.433
91514W        W63043  28.960  10.770   3.162
91515W        W63044   6.824  27.611   1.601
91516W        W63045  25.510   3.272   1.885
91517W        W63046  39.262  15.613  12.424
91518W        W63047  10.637   7.246   2.875
91519W        W63048   9.712  17.379  13.928
91520W        W63049  29.599  43.311  13.465
91521W        W63050  32.117   4.792  14.395
91522W        W63051  12.528  35.682  13.925
91523W        W63052  25.482  33.334   3.616
91524W        W63053  24.484  10.968  13.775
91525W        W63054  30.515  42.875   1.869
91526W        W63055  22.237  16.080  11.982
91527W        W63056  27.397   3.798   2.514
91528W        W63057  31.794   7.901  11.015
91529W        W63058  38.411  29.718  13.965
91530W        W63059  28.088   9.861   0.928
91531W        W63060  15.290  23.577   0.886
91532W        W63061  24.084  41.932   2.462
91533W        W63062  11.181  16.523  12.882
91534W        W63063  37.446  38.958   2.378
91535W        W63064  36.869  22.258  13.941
91536W        W63065  22.198   8.349  13.305
91537W        W63066  30.681  33.574   1.789
91538W        W63067  33.949  26.724   2.485
91539W        W63068  21.797   7.899  13.982
91540W        W63069  44.177  22.258   4.772
91541W        W63070  38.155  20.551   0.936
91542W        W63071  25.974   0.783  11.069
91543W        W63072  43.337  32.354   3.258
91544W        W63073  17.260   1.327  11.767
91545W        W63074   8.202   2.177   3.137
91546W        W63075   3.070  35.176   2.702
91547W        W63076  19.058  25.543  12.156
91548W        W63077  35.052   9.268  10.434
91549W        W63078  10.293  42.619  11.982
91550W        W63079  17.488  17.055  12.447
91551W        W63080  31.037  36.437   0.564
91552W        W63081  24.588   7.345   4.226
91553W        W63082   0.333  31.242  13.512
91554W        W63083   2.405  31.919  12.578
91555W        W63084  36.074  35.510  13.216
91556W        W63085  11.189   2.912  14.384
91557W        W63086  44.456  11.371  11.024
91558W        W63087  19.981  41.600   0.471
91559W        W63088  11.694  36.018  14.293
91560W        W63089  22.393   1.305   4.311
91561W        W63090  28.695  35.075  10.478
91562W        W63091   4.270  24.469   1.461
91563W        W63092   3.786   9.058  11.520
91564W        W63093  17.761   8.408  10.315
91565W        W63094  19.461   5.093   1.926
91566W        W63095  12.119  35.361   0.796
91567W        W63096  11.445  18.170  12.146
91568W        W63097   8.350  22.511   4.139
91569W        W63098   9.405  39.513   4.224
91570W        W63099   6.671  32.918   2.384
91571W        W63100  14.780   1.351  11.203
91572W        W63101  12.924  24.445  11.916
91573W        W63102  37.347  21.331  11.591
91574W        W63103  15.653  23.598  11.168
91575W        W63104  37.508  32.696   4.532
91576W        W63105  44.737  26.051  13.899
91577W        W63106  28.529  38.310   4.779
91578W        W63107  31.150  44.924   0.372
91579W        W63108  36.812  42.351   5.000
91580W        W63109  42.014  11.033   0.828
91581W        W63110  31.651  42.008  13.330
91582W        W63111  16.615  39.013   0.743
91583W        W63112   1.042  14.630   2.053
91584W        W63113   5.729  41.884   2.298
91585W        W63114  14.771  30.501   2.185
91586W        W63115   2.935   4.315   4.495
91587W        W63116  22.128  40.562   0.562
91588W        W63117  18.377   1.736   0.602
91589W        W63118  31.548  34.351  11.283
91590W        W63119  15.163  37.470  13.893
91591W        W63120  38.534   1.276   2.131
91592W        W63121   6.295  37.522   3.128
91593W        W63122   7.928  24.893   4.535
91594W        W63123   3.751  10.232   0.308
91595W        W63124  44.220  27.650   4.789
91596W        W63125   7.060  22.637  13.953
91597W        W63126   5.695   5.413   0.500
91598W        W63127  18.718  11.960  11.945
91599W        W63128   3.865   9.790  11.535
91600W        W63129   0.025   0.430  12.459
91601W        W63130   3.233  16.159   3.720
91602W        W63131  32.434  39.588  13.388
91603W        W63132  43.250  21.050   3.612
91604W        W63133   4.689  29.582   0.404
91605W        W63134  19.813  30.108   4.189
91606W        W63135   3.195   4.732  11.625
91607W        W63136   0.982   0.206  13.032
91608W        W63137   8.891  28.858  14.605
91609W        W63138   1.179  15.165  13.977
91610W        W63139  20.119  19.236  11.012
91611W        W63140  14.049  33.004  11.406
91612W        W63141  43.222  27.882  13.878
91613W        W63142   6.015   5.375   1.359
91614W        W63143  14.318  44.947  11.363
91615W        W63144  31.676   5.884   1.814
91616W        W63145  14.106  42.921   3.226
91617W        W63146  41.890   3.605   4.599
91618W        W63147  44.374  39.796   0.705
91619W        W63148  20.129  44.860  12.962
91620W        W63149  13.466  31.487  14.998
91621W        W63150   4.997  23.988   1.358
91622W        W63151  24.538  33.489  13.454
91623W        W63152  13.135  44.821  12.824
91624W        W63153  28.893  10.242   1.722
91625W        W63154   2.877  31.515   0.729
91626W        W63155  31.638  20.169  12.877
91627W        W63156  11.608   4.639  10.760
91628W        W63157  35.536  26.548  10.584
91629W        W63158  18.306  13.169  12.955
91630W        W63159   6.352  20.001   2.725
91631W        W63160  28.598  35.822  14.732
91632W        W63161  43.707  41.163  13.871
91633W        W63162  33.041  14.740  13.891
91634W        W63163   3.760  24.090   0.176
91635W        W63164  12.701   7.854   2.709
91636W        W63165  22.776  10.195   3.714
91637W        W63166  35.534  30.298   3.150
91638W        W63167   3.890  27.007   3.919
91639W        W63168  24.988  31.354  11.594
91640W        W63169  13.729  20.785   1.763
91641W        W63170  41.454  32.614   2.411
91642W        W63171  39.397   9.559  13.002
91643W        W63172  27.937  28.539   1.183
91644W        W63173  31.401  36.010  12.454
91645W        W63174  38.320  39.849  12.578
91646W        W63175  15.119  43.717  12.203
91647W        W63176  27.377  42.707   2.640
91648W        W63177  38.861   7.734   0.236
91649W        W63178   5.270  21.082  14.267
91650W        W63179  14.149  41.421   2.236
91651W        W63180  29.472   0.344  12.088
91652W        W63181  34.138   8.459   0.922
91653W        W63182  17.915  10.084  11.237
91654W        W63183  23.943  12.290   3.696
91655W        W63184  41.969  37.839   0.223
91656W        W63185  11.323  42.883  14.810
91657W        W63186  43.839  40.497   1.698
91658W        W63187   7.357  13.185   3.646
91659W        W63188  34.429   6.397  12.034
91660W        W63189  28.626   7.795  11.897
91661W        W63190  10.911  22.373   4.190
91662W        W63191  11.138  25.040  14.464
91663W        W63192  31.752  37.821   0.884
91664W        W63193   1.676  11.044  14.603
91665W        W63194  19.716  17.045  13.430
91666W        W63195  11.827  40.382  14.521
91667W        W63196  37.494  39.882   3.825
91668W        W63197  15.866  44.800   5.106
91669W        W63198  21.629  11.611  11.055
91670W        W63199  17.623  43.502   4.962
91671W        W63200  27.996   8.361  13.394
91672W        W63201  24.752  28.909   3.691
91673W        W63202  36.923   1.553  12.938
91674W        W63203  17.051  11.916   5.243
91675W        W63204   9.482   6.182   0.402
91676W        W63205  18.986  25.216  10.560
91677W        W63206  23.583  26.202  13.004
91678W        W63207   8.109  37.069  13.343
91679W        W63208   0.611  30.921  13.208
91680W        W63209  42.001  44.036  14.517
91681W        W63210   1.658  36.982   1.851
91682W        W63211  27.168  33.900  12.578
91683W        W63212  20.274   8.211  11.724
91684W        W63213  31.983   2.880  11.594
91685W        W63214   9.725  31.377   4.128
91686W        W63215  21.908  33.085  12.431
91687W        W63216  38.455  25.288   0.385
91688W        W63217   3.225  31.049   1.848
91689W        W63218  35.468  12.579   2.441
91690W        W63219   2.060  12.788  14.433
91691W        W63220  31.061  18.572  14.011
91692W        W63221  44.099  19.654  11.641
91693W        W63222   1.180  32.005  10.904
91694W        W63223  14.321  19.061  12.373
91695W        W63224  23.724   8.070   3.701
91696W        W63225  14.134  42.769   0.087
91697W        W63226   1.541  19.025  12.118
91698W        W63227  36.384  27.085   4.662
91699W        W63228  33.460  36.516  14.413
91700W        W63229  41.785  11.726  13.082
91701W        W63230  13.346  41.620   2.671
91702W        W63231  13.906  20.989   1.325
91703W        W63232  38.013  12.146   4.888
91704W        W63233  33.821  13.828  14.506
91705W        W63234  32.058  32.853   3.632
91706W        W63235   3.955  30.456   3.694
91707W        W63236  38.399  30.350   3.351
91708W        W63237  37.432  40.865   1.352
91709W        W63238  23.194  34.621   4.248
91710W        W63239   4.229  31.208   3.305
91711W        W63240   5.284  35.560  12.173
91712W        W63241  16.543   8.002  11.594
91713W        W63242  40.765  29.463  13.888
91714W        W63243  20.322  41.981   3.832
91715W        W63244  31.855  21.853  13.322
91716W        W63245  17.687  21.744  10.063
91717W        W63246  31.393  36.439   1.610
91718W        W63247  22.592   0.008  14.155
91719W        W63248  21.319   3.012  13.538
91720W        W63249   1.002  16.832  13.053
91721W        W63250  31.393  38.926  14.352
91722W        W63251  15.618  18.757  13.005
91723W        W63252  34.139   3.898   1.423
91724W        W63253  25.863   0.052   2.261
91725W        W63254  44.741  26.168  11.580
91726W        W63255  11.551  41.764  12.143
91727W        W63256  24.225  17.098   2.622
91728W        W63257  36.665   3.807  12.949
91729W        W63258   4.230  14.263  11.346
91730W        W63259  21.574  29.955   2.749
91731W        W63260  17.240  33.999  11.547
91732W        W63261  25.017  16.796  10.965
91733W        W63262  19.989  28.418  12.461
91734W        W63263  24.245  32.894   2.758
91735W        W63264  34.078  13.379   0.879
91736W        W63265   8.472  40.491   1.806
91737W        W63266  26.127  17.277   2.051
91738W        W63267  32.000  36.272   0.311
91739W        W63268  21.233   6.276  12.503
91740W        W63269  10.250  25.961  14.838
91741W        W63270  34.424  18.209  11.113
91742W        W63271  38.906  43.786  13.775
91743W        W63272  32.622  22.652  10.264
91744W        W63273  34.948  35.911  11.463
91745W        W63274  38.492  39.612   0.318
91746W        W63275  34.261   0.252   1.816
91747W        W63276  25.257  34.215   1.438
91748W        W63277  12.173  11.168  10.999
91749W        W63278  24.940   9.690  13.499
91750W        W63279  29.772   3.159   2.366
91751W        W63280  14.175  29.472   2.325
91752W        W63281  13.216  40.900   0.373
91753W        W63282  42.444  23.209  13.604
91754W        W63283  33.627  41.808   3.783
91755W        W63284  22.435   2.389   1.918
91756W        W63285  42.724  33.205   4.223
91757W        W63286   4.797  23.473  13.326
91758W        W63287  22.001  25.440  12.454
91759W        W63288  32.522  15.325  14.877
91760W        W63289  12.713  27.082   4.576
91761W        W63290  10.602  41.799   3.122
91762W        W63291   4.249  28.395  12.517
91763W        W63292  44.147  15.309   1.462
91764W        W63293  36.036  38.594  14.466
91765W        W63294   3.510  38.241  13.439
91766W        W63295  37.873  32.152   3.373
91767W        W63296  40.948  11.285   3.147
91768W        W63297  37.973   0.237  14.444
91769W        W63298  39.868  41.428   2.817
91770W        W63299  32.160  30.312   1.400
91771W        W63300  30.241  16.318   4.099
91772W        W63301  32.295  34.151   0.491
91773W        W63302  12.025  10.720  13.536
91774W        W63303  22.825   5.918   0.931
91775W        W63304  42.813  30.914  12.102
91776W        W63305  21.201  18.007  12.913
91777W        W63306   4.874  36.946  14.160
91778W        W63307  37.215  29.956   2.239
91779W        W63308  36.786  35.950   4.414
91780W        W63309  32.083  41.871  12.040
91781W        W63310  11.557  20.795   2.418
91782W        W63311  23.792   9.726  12.008
91783W        W63312  23.251  11.288  14.919
91784W        W63313  27.201  14.392   4.985
91785W        W63314  42.096  28.796  14.624
91786W        W63315  20.090  34.093  13.850
91787W        W63316  20.341  34.864  14.948
91788W        W63317  19.406  31.974   5.192
91789W        W63318  12.190   8.422  11.183
91790W        W63319  11.050  19.141  12.086
91791W        W63320  13.135  34.843   2.396
91792W        W63321   0.553   5.251   0.279
91793W        W63322  14.811   5.379   0.470
91794W        W63323  24.625  43.491   0.784
91795W        W63324  40.402  33.006   0.598
91796W        W63325  30.634   0.030  13.077
91797W        W63326  43.263  39.085  10.898
91798W        W63327  17.738  33.947  12.431
91799W        W63328  20.073  17.289  12.626
91800W        W63329  33.063  43.757   2.799
91801W        W63330  20.271  38.568   4.476
91802W        W63331  10.698  17.897  13.012
91803W        W63332  24.786  19.829   1.450
91804W        W63333   6.415  11.736   1.826
91805W        W63334   9.220  44.697   1.215
91806W        W63335   3.889  10.562   3.282
91807W        W63336  32.168  38.422   4.724
91808W        W63337  10.990   4.747   2.410
91809W        W63338  43.963  27.807  10.185
91810W        W63339   8.859  30.437  14.886
91811W        W63340  38.419  33.368   1.286
91812W        W63341  30.412  22.419  12.092
91813W        W63342  30.496   2.843   0.196
91814W        W63343  44.768   6.830   0.509
91815W        W63344  29.997  36.333  14.892
91816W        W63345  32.055  12.379   1.863
91817W        W63346  15.099   0.843  13.899
91818W        W63347   1.857  32.668   2.821
91819W        W63348  40.329  28.839  10.680
91820W        W63349  21.413  40.297  12.471
91821W        W63350  42.246  41.349  14.044
91822W        W63351  38.886  11.288  14.288
91823W        W63352  36.348   9.663   3.218
91824W        W63353  41.882  26.098   1.284
91825W        W63354  44.559  42.547   2.659
91826W        W63355  35.741  26.024   4.347
91827W        W63356  12.851  39.127  11.454
91828W        W63357  34.068   0.797  10.396
91829W        W63358  40.135  34.506   4.047
91830W        W63359  10.453  21.358   3.113
91831W        W63360   8.772  23.785  10.307
91832W        W63361  32.633  18.799   0.792
91833W        W63362  27.966  25.607   4.762
91834W        W63363  10.244  12.264   2.413
91835W        W63364  35.596  27.420   4.594
91836W        W63365  17.073  24.226   4.093
91837W        W63366  27.087  11.229   3.896
91838W        W63367   4.440  19.748   0.736
91839W        W63368   3.955   3.299   3.775
91840W        W63369  18.285  40.875   4.602
91841W        W63370   2.395  27.965   2.664
91842W        W63371  41.517  28.152   2.746
91843W        W63372  38.775  38.070   0.912
91844W        W63373  16.694  31.125   0.087
91845W        W63374  39.117  31.848   4.596
91846W        W63375  38.509  14.508  12.546
91847W        W63376  15.858  43.498  11.109
91848W        W63377  24.542  25.549   0.221
91849W        W63378  16.585  29.990  13.530
91850W        W63379  33.973  35.329   1.871
91851W        W63380  30.612  33.927  11.075
91852W        W63381  29.134  24.074   4.136
91853W        W63382   9.098  32.019   3.611
91854W        W63383  25.915  24.719  10.511
91855W        W63384  23.024  19.444   2.745
91856W        W63385  15.959  41.683   4.209
91857W        W63386   7.631  43.868   1.817
91858W        W63387   6.371   3.177   1.364
91859W        W63388  12.832  36.443  11.660
91860W        W63389  30.649   3.429   1.910
91861W        W63390  33.910  12.803   1.914
91862W        W63391   1.506  12.846  12.074
91863W        W63392   1.833  19.604   1.403
91864W        W63393  24.660  29.748  12.796
91865W        W63394  43.016   3.292   1.449
91866W        W63395  44.503  35.484  10.746
91867W        W63396  14.617  11.912   3.269
91868W        W63397  14.436  38.959  14.268
91869W        W63398  12.058  24.273   4.502
91870W        W63399   7.700   4.729   1.552
91871W        W63400  41.339  38.366  13.502
91872W        W63401   3.772  15.832  14.422
91873W        W63402  33.899  22.128   1.465
91874W        W63403   5.644   4.308  12.952
91875W        W63404  26.244  18.525   3.272
91876W        W63405  28.233   3.907  11.623
91877W        W63406  42.093  23.638   0.237
91878W        W63407  21.559  19.007  11.414
91879W        W63408   4.382  34.556   4.789
91880W        W63409  22.095   6.175  12.373
91881W        W63410  17.702  10.856  14.805
91882W        W63411   6.989  27.424   0.905
91883W        W63412   9.308  40.286   3.624
91884W        W63413   0.429  35.060  13.517
91885W        W63414  39.404  31.594  12.931
91886W        W63415  38.400  12.618   3.617
91887W        W63416  34.862  16.397   3.632
91888W        W63417   0.751  18.517   3.807
91889W        W63418  17.130  33.162  12.432
91890W        W63419  24.086  33.092  13.340
91891W        W63420  35.531  25.491   1.904
91892W        W63421  44.703   7.352   4.919
91893W        W63422  33.420  22.436  10.863
91894W        W63423  26.216  39.966   3.439
91895W        W63424  35.832  24.016  11.595
91896W        W63425  24.229  39.013   4.598
91897W        W63426  26.154   8.544  12.971
91898W        W63427  25.961  43.734  13.944
91899W        W63428  39.850  39.774   4.112
91900W        W63429  42.792  26.911  13.780
91901W        W63430   0.274  21.989   3.817
91902W        W63431  43.949  31.822   3.762
91903W        W63432  18.919   4.686  10.022
91904W        W63433  12.224  29.366   1.329
91905W        W63434  42.001  23.902   3.280
91906W        W63435  37.875  20.437  12.001
91907W        W63436  20.710   2.597  13.876
91908W        W63437  41.971  29.133  12.436
91909W        W63438   2.057  27.922  13.683
91910W        W63439  42.843   3.665  13.503
91911W        W63440   3.327  15.587  14.442
91912W        W63441   7.387  13.250   0.453
91913W        W63442  33.908  31.057   2.523
91914W        W63443  39.410   4.014  12.868
91915W        W63444   2.023  14.854  11.904
91916W        W63445   9.358  24.864  11.787
91917W        W63446  43.504  19.158   2.207
91918W        W63447  36.889  14.413   1.369
91919W        W63448   9.474  30.386   3.349
91920W        W63449  27.087  31.628  12.434
91921W        W63450  40.628  24.011   0.852
91922W        W63451  25.210  19.467   1.376
91923W        W63452   6.779  37.952  13.441
91924W        W63453  21.318  19.460  12.533
91925W        W63454  41.333  23.088  14.302
91926W        W63455  22.403  13.543  13.228
91927W        W63456  35.052  12.742  13.124
91928W        W63457  26.825   1.870   3.145
91929W        W63458   3.357  39.026   0.379
91930W        W63459  34.863  37.405  10.544
91931W        W63460  19.538  24.551   4.137
91932W        W63461  22.713  18.368   0.321
91933W        W63462  23.632  36.004  11.274
91934W        W63463  15.486   8.532   0.480
91935W        W63464  25.178   8.611  10.548
91936W        W63465  40.827   0.516   3.831
91937W        W63466  37.934  41.335   3.648
91938W        W63467  15.000  40.087  14.307
91939W        W63468   7.187  41.705   4.858
91940W        W63469   5.190  29.383  11.920
91941W        W63470  44.345  24.334   1.397
91942W        W63471   7.309  36.163  11.179
91943W        W63472  28.040  27.220  13.253
91944W        W63473  14.053  24.468  13.939
91945W        W63474  37.776  40.523   3.179
91946W        W63475  17.815  22.277   4.243
91947W        W63476   7.283  37.865  13.573
91948W        W63477  23.286   6.949   1.696
91949W        W63478  42.280  18.610   4.107
91950W        W63479   2.189   3.084  13.445
91951W        W63480   8.720  19.366   0.837
91952W        W63481  22.297  42.346  11.021
91953W        W63482  37.619   3.920  12.818
91954W        W63483  17.962  11.246  12.106
91955W        W63484  39.190  22.525  10.104
91956W        W63485  18.307  16.106  12.547
91957W        W63486  22.771  23.473  11.477
91958W        W63487  12.151  30.651   4.225
91959W        W63488   5.615  12.710  12.182
91960W        W63489  41.586  14.800  14.516
91961W        W63490  36.814  12.617  10.675
91962W        W63491  31.706  30.676   3.394
91963W        W63492  38.133  44.807   0.859
91964W        W63493   4.211  16.649  12.469
91965W        W63494   0.103  44.934  11.476
91966W        W63495   7.436  30.093   1.352
91967W        W63496  20.002  11.846  11.477
91968W        W63497  36.138   3.855  13.009
91969W        W63498  26.023  15.824   4.584
91970W        W63499  12.877  22.974   3.652
91971W        W63500  25.715   1.509   0.715
91972W        W63501  31.111   8.352  14.735
91973W        W63502  18.279   2.196   0.404
91974W        W63503  44.392  42.964   0.195
91975W        W63504  17.617   7.096  13.448
91976W        W63505  21.974  13.778   2.456
91977W        W63506  19.595   4.948  11.258
91978W        W63507  32.408  42.930   4.446
91979W        W63508  42.961  31.387  12.330
91980W        W63509  28.745  20.827   3.916
91981W        W63510  30.564   5.698  11.258
91982W        W63511  37.410  18.592   3.137
91983W        W63512   5.984  19.677   0.291
91984W        W63513  24.040  28.522  11.898
91985W        W63514  36.371   1.322   0.695
91986W        W63515   3.101   2.273   3.660
91987W        W63516  34.078  35.403   0.373
91988W        W63517   8.277  35.114   3.739
91989W        W63518  12.528  29.078   0.103
91990W        W63519  15.858  10.732   2.555
91991W        W63520  36.467  33.906  12.501
91992W        W63521  14.647  15.525   0.587
91993W        W63522  21.696  24.735   4.543
91994W        W63523   1.094  27.463  11.511
91995W        W63524  25.151  12.757  10.401
91996W        W63525  36.995   8.626   4.698
91997W        W63526  15.554  11.303   1.036
91998W        W63527  13.272  22.268  12.341
91999W        W63528  37.118  32.435  12.937
92000W        W63529  42.914  11.624  14.849
92001W        W63530   9.781  20.107   0.283
92002W        W63531  43.165  41.558  12.037
92003W        W63532   6.106  37.615  11.825
92004W        W63533  10.450   2.451   2.673
92005W        W63534  43.136  31.581  10.678
92006W        W63535  26.872   1.386   0.479
92007W        W63536  34.049  11.596  14.943
92008W        W63537  41.306  30.410   2.320
92009W        W63538  30.086  11.398  10.567
92010W        W63539  26.355  18.676   1.501
92011W        W63540  31.134  23.189   1.397
92012W        W63541   6.535  18.642   3.113
92013W        W63542  13.035  42.007   1.780
92014W        W63543  14.636  20.811  12.651
92015W        W63544  25.357  22.659  13.486
92016W        W63545   4.180   6.958  13.992
92017W        W63546  28.397  31.976   3.554
92018W        W63547  14.287   8.891   1.844
92019W        W63548   3.542   1.835  14.283
92020W        W63549  32.670  35.321  13.080
92021W        W63550  36.410   9.848   3.726
92022W        W63551  25.040  10.242   4.013
92023W        W63552  32.027   1.722   2.150
92024W        W63553  44.710  11.153   0.004
92025W        W63554  34.679   4.172  11.192
92026W        W63555  14.021   0.691   2.731
92027W        W63556   8.847  35.449  13.537
92028W        W63557  16.251  11.256   5.298
92029W        W63558  22.009   9.789  11.583
92030W        W63559  30.161  34.399   1.486
92031W        W63560   8.735  20.212  10.965
92032W        W63561  16.809  20.708   1.771
92033W        W63562  41.802   1.701   3.296
92034W        W63563  43.292   5.579  14.856
92035W        W63564  27.677  29.363   2.636
92036W        W63565  44.716  40.267  11.184
92037W        W63566  23.800  13.541  11.077
92038W        W63567  26.599  12.926  12.495
92039W        W63568   3.229  34.955  11.411
92040W        W63569   7.929  17.954  11.187
92041W        W63570   0.716   9.400   3.430
92042W        W63571   6.813  32.689  13.829
92043W        W63572   8.859  31.604   4.682
92044W        W63573  11.669  20.987   0.885
92045W        W63574   9.791  38.452   4.271
92046W        W63575  34.115  23.948   4.617
92047W        W63576  35.773  12.466  11.694
92048W        W63577  35.157  32.430   5.053
92049W        W63578  15.753   9.805   4.538
92050W        W63579   0.733  44.281  11.583
92051W        W63580  39.530   6.842   4.132
92052W        W63581  16.082  15.313   1.241
92053W        W63582  24.989  25.275   4.391
92054W        W63583   2.518  20.844   1.488
92055W        W63584  38.493  18.154   0.720
92056W        W63585  26.513  36.118  11.959
92057W        W63586  10.172  40.866  14.472
92058W        W63587  21.834  40.807   1.536
92059W        W63588  13.690  41.445  13.364
92060W        W63589   0.049   7.259   0.496
92061W        W63590  43.286  30.406   0.507
92062W        W63591  25.078  19.081   4.191
92063W        W63592  35.468  20.120   4.670
92064W        W63593  19.001  12.336   4.544
92065W        W63594  15.979  24.138   0.862
92066W        W63595  28.780  10.269   3.160
92067W        W63596  15.187  44.516   1.856
92068W        W63597  25.072  16.078  13.691
92069W        W63598  19.012  14.700  14.873
92070W        W63599  42.829  16.807   0.869
92071W        W63600   1.974  37.647   2.178
92072W        W63601  38.810  37.913  13.846
92073W        W63602   0.032  28.989   4.577
92074W        W63603  17.679  28.163  14.895
92075W        W63604  29.872  39.067   0.246
92076W        W63605  32.097  36.937   2.145
92077W        W63606  22.782  43.210   4.172
92078W        W63607  35.991  24.046   3.613
92079W        W63608  40.396  23.181   3.807
92080W        W63609  43.754  32.706   2.142
92081W        W63610  36.905   1.877  13.356
92082W        W63611   9.322  43.256  14.283
92083W        W63612  30.595   6.942  13.451
92084W        W63613  18.608   4.029   0.560
92085W        W63614  18.075   7.876  10.935
92086W        W63615  33.945  42.983  12.023
92087W        W63616  33.156   7.683   5.017
92088W        W63617  44.092   8.944   3.964
92089W        W63618  16.198  29.591   4.160
92090W        W63619   7.692  29.713  11.572
92091W        W63620   3.251  11.220  11.127
92092W        W63621  20.824  28.956   2.786
92093W        W63622  34.872  10.601  12.385
92094W        W63623  42.664   7.736  14.397
92095W        W63624  27.012  41.233  12.616
92096W        W63625  25.557  43.769   3.651
92097W        W63626  40.571  26.970   1.789
92098W        W63627  11.451  30.084  13.897
92099W        W63628  30.634  23.401   0.054
92100W        W63629   0.975  14.277   0.874
92101W        W63630   6.693  30.991   4.351
92102W        W63631  31.162   7.842  12.806
92103W        W63632  23.892  13.113  11.846
92104W        W63633   5.471  41.550   1.988
92105W        W63634  30.139   4.417  12.316
92106W        W63635   1.278  12.736   4.520
92107W        W63636  14.497  22.734  12.048
92108W        W63637  42.559  26.734  12.099
92109W        W63638  25.729  42.558   2.856
92110W        W63639   3.192  30.458  11.900
92111W        W63640  33.218   5.177  13.895
92112W        W63641  41.841  23.128   1.409
92113W        W63642   8.416  27.657  12.939
92114W        W63643  28.581  24.526   0.691
92115W        W63644  34.597   5.214  11.225
92116W        W63645   3.945  28.216  11.009
92117W        W63646  13.124   0.922  14.390
92118W        W63647  25.951  32.081   5.139
92119W        W63648  40.318  14.705  11.969
92120W        W63649  21.767   0.833  11.159
92121W        W63650   3.454  20.823  10.304
92122W        W63651   9.766  12.862   3.798
92123W        W63652   6.628  31.231  10.728
92124W        W63653  37.303  17.171  11.511
92125W        W63654   8.245   3.407   4.426
92126W        W63655  20.598   9.265  14.327
92127W        W63656   1.236  23.559   4.632
92128W        W63657  31.061  25.249  12.918
92129W        W63658  30.771   6.335   0.513
92130W        W63659   1.309   6.230   1.328
92131W        W63660   7.272  17.470   1.950
92132W        W63661  21.781  26.007   4.157
92133W        W63662  22.576  20.795   1.376
92134W        W63663  31.663  33.016   2.407
92135W        W63664  26.800  34.956  12.550
92136W        W63665  16.309  25.569   4.753
92137W        W63666  26.739  20.738  14.455
92138W        W63667  41.023  12.949   2.640
92139W        W63668  19.317  38.796  12.612
92140W        W63669  36.643  42.838  13.469
92141W        W63670  44.787  37.336  10.582
92142W        W63671  29.815   6.784   0.935
92143W        W63672  38.067   2.013   2.214
92144W        W63673  20.367  36.093  12.636
92145W        W63674  35.798   1.290   4.158
92146W        W63675  30.409  16.548  11.134
92147W        W63676  41.235  13.536   2.072
92148W        W63677  38.818  32.413  12.802
92149W        W63678  13.375  17.535  12.478
92150W        W63679   7.712  35.108  10.728
92151W        W63680  41.778  41.935  13.358
92152W        W63681  10.624  23.525   0.754
92153W        W63682   8.973   4.965   3.214
92154W        W63683  14.370  37.411  14.897
92155W        W63684  39.941  41.984   2.786
92156W        W63685   7.878  35.299   1.196
92157W        W63686  24.673  24.873  12.386
92158W        W63687  42.566  30.484  10.816
92159W        W63688   0.429  16.180  11.566
92160W        W63689  14.134  28.292  14.338
92161W        W63690  42.872  39.312  11.342
92162W        W63691  14.016   9.680   3.542
92163W        W63692  37.310  41.529  12.855
92164W        W63693  11.082  30.475   1.136
92165W        W63694  15.069   2.400   1.771
92166W        W63695   4.923  40.409   4.573
92167W        W63696  42.877  18.153   4.715
92168W        W63697  12.280   2.907  10.926
92169W        W63698   3.896   4.643   2.152
92170W        W63699  10.568  26.500  11.614
92171W        W63700   8.133  26.221   2.909
92172W        W63701   0.832  42.397  12.495
92173W        W63702  12.747  20.932   0.346
92174W        W63703   5.808  36.810  14.595
92175W        W63704  36.356  24.455   0.563
92176W        W63705   0.738  14.748   2.876
92177W        W63706  44.591  36.979   0.443
92178W        W63707  13.104  42.329  13.769
92179W        W63708   3.928   4.741   3.595
92180W        W63709   1.384   9.610  12.582
92181W        W63710  24.924  14.715  13.880
92182W        W63711  40.460  30.579  13.047
92183W        W63712  24.770   9.171   0.774
92184W        W63713  31.978  19.787  12.406
92185W        W63714   4.258  39.794   2.013
92186W        W63715  33.480  22.667   9.862
92187W        W63716  17.710  38.988   3.836
92188W        W63717  10.857  14.728  11.927
92189W        W63718  13.804  23.410  11.712
92190W        W63719  42.357   1.336   3.552
92191W        W63720  44.897   7.194  14.952
92192W        W63721  36.097  29.770   1.860
92193W        W63722  23.609   4.123  12.048
92194W        W63723   4.364  15.215  14.102
92195W        W63724   1.733   5.082  12.420
92196W        W63725  19.194  43.755   0.366
92197W        W63726   0.208  12.854  11.860
92198W        W63727  19.454  19.237  14.922
92199W        W63728  23.728  27.969   1.777
92200W        W63729   6.450  21.761  12.997
92201W        W63730  31.428   0.043  10.790
92202W        W63731   8.195  24.033   1.830
92203W        W63732  22.658  17.533  14.940
92204W        W63733  12.379   4.660   2.774
92205W        W63734  30.915  42.472  13.163
92206W        W63735  31.602   2.844  13.088
92207W        W63736  30.182  38.719   0.041
92208W        W63737  12.611   2.269  13.525
92209W        W63738  42.459   3.439  14.501
92210W        W63739  43.040   1.861   0.591
92211W        W63740  35.417  37.929  12.323
92212W        W63741  20.215  41.265  13.042
92213W        W63742  35.859  24.333  11.990
92214W        W63743   4.367  33.641   2.811
92215W        W63744  37.012  33.037  11.554
92216W        W63745   3.303  19.662  12.972
92217W        W63746  35.001  12.846   2.415
92218W        W63747  36.650  31.030   4.538
92219W        W63748  30.206  15.695  14.861
92220W        W63749  44.370  19.255  12.456
92221W        W63750  20.186  41.108  11.198
92222W        W63751  23.612  34.456   2.830
92223W        W63752  16.570  41.787   2.600
92224W        W63753  11.743  20.053   0.587
92225W        W63754  31.644   4.470   0.697
92226W        W63755  28.678  22.419  12.442
92227W        W63756  42.886  37.862   1.374
92228W        W63757   4.018  33.370  11.306
92229W        W63758  21.028  22.947   2.305
92230W        W63759  24.853  24.458   4.572
92231W        W63760  36.968  18.419  13.348
92232W        W63761  38.624  16.221   3.436
92233W        W63762  17.614  27.609   2.154
92234W        W63763  35.404  11.953  13.457
92235W        W63764  28.991  20.500   4.277
92236W        W63765  36.395  41.531   2.009
92237W        W63766   8.870  20.343  11.840
92238W        W63767  13.577   9.848   3.747
92239W        W63768  37.708  17.269  12.437
92240W        W63769   0.408  22.079   4.352
92241W        W63770  41.243  34.868  13.463
92242W        W63771  15.167  43.332  13.914
92243W        W63772  34.288  39.058  13.484
92244W        W63773  17.080   4.868  11.643
92245W        W63774  44.544  34.996  10.619
92246W        W63775   0.576   7.190   0.493
92247W        W63776  37.559  41.366  14.095
92248W        W63777  17.219  33.940   0.318
92249W        W63778  44.721  32.542   1.346
92250W        W63779  17.193  34.887  14.328
92251W        W63780  29.267  12.387  14.299
92252W        W63781   5.432  28.345  11.697
92253W        W63782  13.615  29.907  11.216
92254W        W63783  16.437   7.676  12.441
92255W        W63784  10.398  19.540  12.864
92256W        W63785  29.584  36.568  13.029
92257W        W63786  33.418  38.805  12.291
92258W        W63787  20.248  15.709  14.218
92259W        W63788  22.161  26.632  13.976
92260W        W63789  14.856  38.461  13.896
92261W        W63790  22.969  15.215   4.615
92262W        W63791  44.271   8.253  11.575
92263W        W63792  14.402  43.458   1.783
92264W        W63793  13.331  22.149  11.849
92265W        W63794  37.469  15.721  13.102
92266W        W63795  24.122  35.904  13.433
92267W        W63796  34.619   3.447   1.121
92268W        W63797   0.864  21.870  14.799
92269W        W63798  19.005  38.314  13.917
92270W        W63799  11.096  23.743   2.324
92271W        W63800   6.477  31.883  14.764
92272W        W63801  33.887  33.107  12.923
92273W        W63802  32.497   2.933   4.162
92274W        W63803  31.097  32.582  12.844
92275W        W63804   7.681  17.019   4.080
92276W        W63805  15.627  21.724  11.925
92277W        W63806  18.990  41.742  10.877
92278W        W63807   8.539  35.589   1.757
92279W        W63808   1.627  21.061  10.771
92280W        W63809  17.903  27.461  10.585
92281W        W63810  19.336  41.408   1.178
92282W        W63811  27.005  32.044  11.654
92283W        W63812  34.425  42.542  12.794
92284W        W63813  36.591   1.338   2.418
92285W        W63814  13.618  35.267  13.881
92286W        W63815  35.040  30.097   3.123
92287W        W63816  26.701  42.319  14.666
92288W        W63817  16.064  35.112  14.829
92289W        W63818  28.362  43.517  11.676
92290W        W63819  33.618  11.724   2.241
92291W        W63820   0.449   0.952   0.261
92292W        W63821   1.370  42.859  10.919
92293W        W63822  13.087  30.098   2.699
92294W        W63823   3.487   6.798   0.452
92295W        W63824   6.974   4.303  13.779
92296W        W63825  39.004  28.244  10.843
92297W        W63826   8.724  19.205  12.899
92298W        W63827  19.579   9.825  10.089
92299W        W63828   6.829  24.185   3.254
92300W        W63829  28.147  19.750   0.415
92301W        W63830  17.274  29.938   2.918
92302W        W63831  15.950  26.529   0.792
92303W        W63832  42.026  38.336   2.417
92304W        W63833  22.165  36.604   4.305
92305W        W63834  40.451  20.518   3.065
92306W        W63835  36.781   2.795  13.212
92307W        W63836  37.908   7.237   3.869
92308W        W63837  14.710   6.319  14.042
92309W        W63838   7.776  44.530  10.210
92310W        W63839  43.757  14.657   0.788
92311W        W63840  24.566  10.125   4.203
92312W        W63841  11.679  26.395   1.726
92313W        W63842  37.544   7.599   4.051
92314W        W63843  36.912   0.410   0.788
92315W        W63844   3.903  32.895   0.447
92316W        W63845  22.023   0.773  14.432
92317W        W63846  39.530  19.654  12.086
92318W        W63847  40.363  29.387   1.873
92319W        W63848  42.632  34.826   5.043
92320W        W63849  25.101   3.880  11.227
92321W        W63850   6.295  25.460   3.142
92322W        W63851  34.220   8.475  12.185
92323W        W63852  29.503  12.648  13.894
92324W        W63853  27.591   5.497  14.547
92325W        W63854   4.175   7.358  14.334
92326W        W63855  35.434  41.835  11.608
92327W        W63856  39.840   6.726   0.876
92328W        W63857  21.042  10.180   1.391
92329W        W63858  26.680  20.543  12.226
92330W        W63859  16.570  28.451  10.632
92331W        W63860   6.325  44.902   2.406
92332W        W63861  28.085  34.435   9.635
92333W        W63862  24.066  14.622   3.215
92334W        W63863  15.536  29.489  14.456
92335W        W63864  19.314  28.258  13.686
92336W        W63865  15.828   9.508  14.840
92337W        W63866   7.787   4.009  14.049
92338W        W63867  39.055  10.546   1.541
92339W        W63868   0.491   1.712   4.186
92340W        W63869  37.687  15.181   2.366
92341W        W63870   9.151   9.646  11.082
92342W        W63871  11.899   6.187  12.443
92343W        W63872  37.836  18.466  10.900
92344W        W63873   4.444  12.140  12.465
92345W        W63874  33.048   8.925  12.763
92346W        W63875  42.845  39.450   2.659
92347W        W63876   3.314  17.641   0.958
92348W        W63877  35.035  17.631   2.305
92349W        W63878  35.334  20.267  11.008
92350W        W63879  18.132  25.716  12.591
92351W        W63880  11.112  41.538  13.331
92352W        W63881  11.655  15.671  13.025
92353W        W63882  38.441   0.593   0.711
92354W        W63883  12.129  11.617  13.405
92355W        W63884  17.808  39.869  10.658
92356W        W63885  37.925  30.488  10.930
92357W        W63886  20.543  36.998   0.320
92358W        W63887  17.779  44.739  12.013
92359W        W63888  28.549  14.975  11.058
92360W        W63889   6.339   3.658  14.062
92361W        W63890  30.956  24.588   0.628
92362W        W63891  15.754  21.693   0.777
92363W        W63892  44.113  37.454   4.629
92364W        W63893  31.493   9.155  11.384
92365W        W63894  43.336  38.020  13.088
92366W        W63895  21.508  13.166  10.383
92367W        W63896  10.865  33.753   3.780
92368W        W63897  42.337   6.823  14.201
92369W        W63898  35.642  39.954   3.708
92370W        W63899  44.759  12.218   4.367
92371W        W63900  42.751  40.555  13.948
92372W        W63901  35.897  33.386  14.443
92373W        W63902  41.849  21.532  10.536
92374W        W63903   7.397  15.585   4.277
92375W        W63904  30.972  38.204  13.814
92376W        W63905  35.395  35.629  11.469
92377W        W63906  39.994  20.286  11.731
92378W        W63907  39.250   6.484   3.913
92379W        W63908  12.731  19.642  12.024
92380W        W63909  36.211  34.098  14.854
92381W        W63910   3.576  28.494   4.579
92382W        W63911   0.999  22.049   1.334
92383W        W63912  11.136   7.845   0.891
92384W        W63913  39.051  18.947   4.864
92385W        W63914  37.165   9.943   1.419
92386W        W63915   7.314   4.361  14.544
92387W        W63916  42.476  16.692  13.935
92388W        W63917  36.019   9.437   4.466
92389W        W63918  27.639   8.838  14.571
92390W        W63919   8.751   3.392   3.616
92391W        W63920  25.150   1.733   1.823
92392W        W63921  44.334  12.280   3.592
92393W        W63922  40.683  14.965  13.438
92394W        W63923   7.862  14.349  14.505
92395W        W63924   8.725   9.313   1.373
92396W        W63925  26.440   2.589   0.868
92397W        W63926   4.981  40.953  14.334
92398W        W63927  43.560  18.422   4.980
92399W        W63928  15.712  22.493   0.380
92400W        W63929  28.420  24.105  12.619
92401W        W63930  34.496  37.857   1.834
92402W        W63931   4.359  33.077   1.692
92403W        W63932   8.373  39.807  14.350
92404W        W63933  10.745   1.480  11.635
92405W        W63934  23.512  30.575   0.451
92406W        W63935  44.492  16.186   2.427
92407W        W63936   4.521  30.454   2.776
92408W        W63937  29.791  41.029  10.925
92409W        W63938  22.071  13.629   3.703
92410W        W63939  18.593  38.700  13.155
92411W        W63940   6.913  32.696  11.149
92412W        W63941  13.318  26.495  13.762
92413W        W63942  14.589  36.737  13.512
92414W        W63943  22.005  40.761  10.954
92415W        W63944   2.793  30.922  11.145
92416W        W63945  43.457   2.135   5.011
92417W        W63946  29.164  24.521   0.444
92418W        W63947  31.115  44.406   0.317
92419W        W63948  20.518  33.487   1.590
92420W        W63949  31.791  32.390   3.204
92421W        W63950  13.709  12.514   0.173
92422W        W63951  23.636   3.178   1.638
92423W        W63952   1.041  29.535  11.953
92424W        W63953  43.011  25.355  13.987
92425W        W63954  36.789  42.934   5.133
92426W        W63955  23.634  14.637  11.210
92427W        W63956  38.474  42.335  14.994
92428W        W63957  31.000   1.724   3.508
92429W        W63958  20.007  43.987   4.592
92430W        W63959   6.710  31.953   3.129
92431W        W63960  18.956  41.984  10.314
92432W        W63961   7.289  30.457   3.159
92433W        W63962  25.364  16.709   1.251
92434W        W63963  10.239  42.161  14.693
92435W        W63964  10.587  23.775  14.317
92436W        W63965  39.716  17.977   2.252
92437W        W63966  24.027  18.501   1.851
92438W        W63967  17.318  37.516   3.287
92439W        W63968  16.115  33.971   1.176
92440W        W63969  25.621  34.784  10.692
92441W        W63970   0.931  20.845   4.182
92442W        W63971  34.966  27.579  14.823
92443W        W63972   3.230  37.370   3.811
92444W        W63973   8.729   2.565   0.902
92445W        W63974  33.460   0.228  14.025
92446W        W63975  26.510  22.504  12.101
92447W        W63976  13.339  27.003   1.750
92448W        W63977  25.273  39.603   3.577
92449W        W63978  26.381  31.019   3.825
92450W        W63979  27.077  33.500  13.641
92451W        W63980   6.625   9.177  12.491
92452W        W63981   1.754   2.693  14.369
92453W        W63982  31.370  26.900   1.038
92454W        W63983  20.972  20.580  14.927
92455W        W63984  16.792   8.825   2.217
92456W        W63985  13.297  14.782   3.216
92457W        W63986  33.691  31.197  12.406
92458W        W63987   9.666  38.446   3.618
92459W        W63988  44.766   9.720  10.568
92460W        W63989  24.733  24.063   2.176
92461W        W63990  31.538  11.771  12.480
92462W        W63991  23.759  10.275   2.104
92463W        W63992  24.484  41.937  12.553
92464W        W63993   3.417  43.855  14.467
92465W        W63994  25.674  15.541  14.991
92466W        W63995  22.180  42.023   3.552
92467W        W63996  44.554  38.934   2.105
92468W        W63997  44.069  42.713  13.225
92469W        W63998  43.770  19.038  12.136
92470W        W63999  27.913  15.828  14.294
92471W        W64000   8.269  40.435  13.989
92472W        W64001   4.825  37.598   1.843
92473W        W64002   3.806  22.212   4.170
92474W        W64003  15.613  41.781  14.288
92475W        W64004  12.850  33.941   3.370
92476W        W64005  27.034  38.727   3.214
92477W        W64006  13.075  22.287   0.362
92478W        W64007   6.491  35.584   2.306
92479W        W64008  31.313  24.764   4.517
92480W        W64009  29.870  36.841   4.215
92481W        W64010   7.395  26.768  13.624
92482W        W64011  26.126  27.484  12.016
92483W        W64012   1.813   0.501  13.061
92484W        W64013  30.485  37.612   5.090
92485W        W64014  30.973  17.123   4.142
92486W        W64015  15.052   4.337   1.899
92487W        W64016  24.490   3.706   3.813
92488W        W64017  14.708  39.048   1.454
92489W        W64018  33.341  33.417   2.922
92490W        W64019  26.655   1.263  10.689
92491W        W64020  30.135   8.308  11.552
92492W        W64021  33.687  19.522  14.118
92493W        W64022  37.522  30.522  14.435
92494W        W64023  12.069  16.855  11.214
92495W        W64024  22.320   2.046  14.542
92496W        W64025  12.656  11.799  13.437
92497W        W64026  37.768  18.747  12.650
92498W        W64027  34.146   3.894  12.864
92499W        W64028  44.909  17.033   0.744
92500W        W64029  43.842  24.438   3.435
92501W        W64030  40.288  33.886   0.338
92502W        W64031  44.907  16.332   3.305
92503W        W64032  22.339  15.057   0.400
92504W        W64033  17.280   7.705   2.302
92505W        W64034  38.422  37.800   3.287
92506W        W64035  31.267   1.936   2.274
92507W        W64036  11.253  19.906   0.419
92508W        W64037  39.384  29.615  14.324
92509W        W64038  44.950  10.324   4.872
92510W        W64039  36.888  19.217   2.697
92511W        W64040  26.026  26.946   1.059
92512W        W64041  13.801  14.636  10.872
92513W        W64042  11.822   2.695  12.088
92514W        W64043  33.806  41.389   1.134
92515W        W64044  17.669   8.632  13.510
92516W        W64045  23.565  40.309   4.082
92517W        W64046  35.537  34.031   4.767
92518W        W64047  36.706  12.075  11.697
92519W        W64048  32.986  42.546  14.816
92520W        W64049  25.234  21.048  13.057
92521W        W64050  33.424  14.827  14.995
92522W        W64051   5.706  34.137  10.696
92523W        W64052  32.699  36.431   4.548
92524W        W64053  12.246   0.611  11.702
92525W        W64054  38.139  30.091   2.243
92526W        W64055  25.429  12.845  12.993
92527W        W64056   0.263  19.591  13.002
92528W        W64057  10.040  35.545   4.089
92529W        W64058  15.970  33.530   2.737
92530W        W64059  18.509  32.305  11.904
92531W        W64060   3.280  27.227  13.506
92532W        W64061  33.043  37.916  10.744
92533W        W64062  20.761  26.072  11.404
92534W        W64063  23.796   6.883  12.931
92535W        W64064  42.481  20.098   3.514
92536W        W64065   6.580  39.472  12.013
92537W        W64066  37.120   0.056  13.965
92538W        W64067  35.309  37.924   4.332
92539W        W64068  35.041  35.374   1.839
92540W        W64069   4.624  11.564  12.093
92541W        W64070   9.945  30.372   3.115
92542W        W64071  11.405  17.509  13.847
92543W        W64072  13.332  42.681   2.166
92544W        W64073  22.100   5.435   3.734
92545W        W64074  24.179  32.809   4.359
92546W        W64075  27.411  37.488   0.946
92547W        W64076  19.705   9.431   1.753
92548W        W64077  11.246  16.123   2.017
92549W        W64078  23.253  24.604   2.847
92550W        W64079  27.563   3.346  10.802
92551W        W64080  30.400  11.564  13.530
92552W        W64081  26.499  12.111  14.369
92553W        W64082   1.434  30.871   3.096
92554W        W64083  33.230  24.954  14.761
92555W        W64084   5.756  34.359   2.249
92556W        W64085   6.711  24.573   4.454
92557W        W64086  23.044  15.503   4.157
92558W        W64087  26.749  19.558  14.868
92559W        W64088  37.456  43.381   3.665
92560W        W64089  43.364   9.110  13.565
92561W        W64090  21.646   0.540   3.811
92562W        W64091  42.952  23.416   3.820
92563W        W64092  25.735  13.292  12.964
92564W        W64093   3.879  23.351  12.562
92565W        W64094  35.779   5.822   1.652
92566W        W64095   0.375  33.701   2.098
92567W        W64096  37.123  38.954  11.870
92568W        W64097   5.216  34.925   4.645
92569W        W64098   1.303  19.676  10.785
92570W        W64099  17.613  34.527  14.755
92571W        W64100  14.114  16.012  12.170
92572W        W64101  20.844   7.153   1.870
92573W        W64102   6.858  15.953   4.892
92574W        W64103  41.418  31.918  13.940
92575W        W64104  38.347   1.917  14.841
92576W        W64105  23.165   6.680   2.132
92577W        W64106  30.410  17.698   2.640
92578W        W64107  33.326  27.943   0.935
92579W        W64108  14.101  43.037   0.552
92580W        W64109  43.844  18.251   1.402
92581W        W64110  21.517  40.381   0.741
92582W        W64111  27.552  15.581  14.563
92583W        W64112  13.181  32.609  14.388
92584W        W64113  33.475  19.044  10.564
92585W        W64114  31.058  28.622   4.997
92586W        W64115  35.411  15.250   1.443
92587W        W64116  34.097  20.236  11.549
92588W        W64117  13.245  43.033   4.322
92589W        W64118  15.118  40.824  12.122
92590W        W64119  22.936   0.229  12.811
92591W        W64120   1.886  11.089   4.243
92592W        W64121   2.788  37.306   4.093
92593W        W64122  38.974  34.435   0.880
92594W        W64123  23.784  23.738   2.717
92595W        W64124  28.793   4.483  11.879
92596W        W64125   3.455   9.453  10.793
92597W        W64126   4.502  25.605   3.749
92598W        W64127  13.072  35.553   1.003
92599W        W64128   8.349  14.910   3.672
92600W        W64129   7.883  22.701   2.776
92601W        W64130  33.464  17.194  13.787
92602W        W64131  41.865  41.482   1.302
92603W        W64132   2.861  27.011  14.887
92604W        W64133  13.435  29.961  10.579
92605W        W64134  18.506  18.968   4.221
92606W        W64135  44.335  44.360  14.312
92607W        W64136  15.249   2.434  11.124
92608W        W64137  21.291  31.410  14.366
92609W        W64138  23.189  14.199  12.002
92610W        W64139   4.736   1.597  10.305
92611W        W64140  27.015   9.340   4.589
92612W        W64141  23.594  27.725   2.250
92613W        W64142  14.355  40.402  12.168
92614W        W64143  17.760  20.138   3.206
92615W        W64144  34.869  27.106   0.131
92616W        W64145  35.968  26.768  13.401
92617W        W64146  39.853   1.982  12.035
92618W        W64147  24.675  15.271  13.303
92619W        W64148   4.225  25.965  13.415
92620W        W64149  33.447  21.994  11.097
92621W        W64150  34.087   8.818   0.214
92622W        W64151  33.748  40.030  14.878
92623W        W64152  11.542  28.472  11.633
92624W        W64153  34.309  10.213  12.125
92625W        W64154  39.475  21.845   4.688
92626W        W64155  37.744  18.310  12.964
92627W        W64156   6.792  35.402   1.335
92628W        W64157  39.013  24.930  11.190
92629W        W64158  24.634   8.375   2.791
92630W        W64159  11.794   9.174   0.963
92631W        W64160  35.131  23.982   2.374
92632W        W64161  21.563  38.377  12.405
92633W        W64162  31.927  22.163  12.901
92634W        W64163  35.414  36.120  11.238
92635W        W64164  19.639  25.894   4.015
92636W        W64165  29.537   0.031   4.794
92637W        W64166   0.770   9.628  12.143
92638W        W64167   9.676  19.017   0.713
92639W        W64168  28.577   6.178   2.830
92640W        W64169  14.177  23.218   1.912
92641W        W64170   9.438  16.361  11.107
92642W        W64171  22.140  37.371  12.936
92643W        W64172  27.964   0.324   3.336
92644W        W64173  37.760  17.626   3.291
92645W        W64174  14.606  35.311   2.811
92646W        W64175  23.772  11.656   4.655
92647W        W64176  43.055  38.373   0.916
92648W        W64177  39.296  26.942   1.343
92649W        W64178  24.643  20.150   2.764
92650W        W64179   1.757  35.591  14.801
92651W        W64180  34.380  13.425   3.650
92652W        W64181  38.492  11.846   4.902
92653W        W64182  16.879  37.090  14.566
92654W        W64183  12.733  10.515  13.013
92655W        W64184  22.831   3.746   0.373
92656W        W64185  32.998   4.750   4.417
92657W        W64186   4.963  28.653  10.536
92658W        W64187  40.206  20.378   4.161
92659W        W64188  15.069  14.077  12.424
92660W        W64189  21.165  13.758   3.992
92661W        W64190   4.501  40.918   4.064
92662W        W64191  13.838  29.983  14.598
92663W        W64192  38.400  16.042  13.058
92664W        W64193  44.865  20.804  13.850
92665W        W64194   7.165  40.817   1.766
92666W        W64195  30.458  15.845   2.292
92667W        W64196  19.495   2.482  10.712
92668W        W64197  15.686  42.538   1.803
92669W        W64198   5.655  35.331   2.664
92670W        W64199  38.639  33.047  12.472
92671W        W64200  13.515  12.208   3.812
92672W        W64201   6.406  14.142   4.095
92673W        W64202  39.452  14.021   1.786
92674W        W64203  19.154   6.726  13.501
92675W        W64204  31.254  31.517   0.889
92676W        W64205  10.694  28.148   2.244
92677W        W64206  42.498  29.156  12.415
92678W        W64207   1.776  14.467  14.828
92679W        W64208  31.058  38.998  12.470
92680W        W64209   6.294  16.936   3.686
92681W        W64210  10.550   2.619  12.877
92682W        W64211  32.886   7.627  14.197
92683W        W64212   3.761  13.839   3.935
92684W        W64213  41.504  30.801   3.161
92685W        W64214  24.453  16.521  12.062
92686W        W64215  33.179  24.856  11.190
92687W        W64216  15.844   0.842   3.212
92688W        W64217  39.353  11.137  13.856
92689W        W64218  28.238  31.852  11.131
92690W        W64219  41.808   2.944  11.547
92691W        W64220   2.720  31.884  11.131
92692W        W64221  35.119  32.059   4.529
92693W        W64222  16.384  42.869   2.753
92694W        W64223  43.359  24.682  11.213
92695W        W64224  41.089  15.398   2.369
92696W        W64225  19.697  43.240   3.159
92697W        W64226   0.735  42.275   4.098
92698W        W64227  41.751   9.384  12.259
92699W        W64228  10.126  29.796   1.774
92700W        W64229  32.841   8.184  11.124
92701W        W64230  25.453   2.540   3.921
92702W        W64231  41.049   3.371   9.908
92703W        W64232  13.596  42.032   2.817
92704W        W64233  16.196  25.080   0.536
92705W        W64234   8.613  19.043  14.405
92706W        W64235  36.292   4.343  12.871
92707W        W64236  26.731  17.763   1.761
92708W        W64237  36.153  29.935   0.139
92709W        W64238  32.975  38.885  11.498
92710W        W64239   3.985  25.971  11.585
92711W        W64240   2.712   4.689  11.450
92712W        W64241   0.334  28.998   3.093
92713W        W64242  13.106   3.003   3.378
92714W        W64243  27.971  37.633   2.234
92715W        W64244  39.365  18.576  13.581
92716W        W64245  32.102  39.969  12.222
92717W        W64246  20.524  14.333   4.812
92718W        W64247  31.363  21.529  14.832
92719W        W64248  22.651   2.235   4.374
92720W        W64249  14.733  42.791  12.916
92721W        W64250  27.364  32.660   9.819
92722W        W64251  23.728  16.642  12.553
92723W        W64252  31.031  30.121  11.835
92724W        W64253  27.767  11.850  13.065
92725W        W64254  25.992  42.375   0.138
92726W        W64255   2.586  34.467   0.210
92727W        W64256  19.500  14.314   4.033
92728W        W64257  11.215  14.395  11.099
92729W        W64258  36.094  37.564   1.214
92730W        W64259  15.064  28.668   2.253
92731W        W64260  20.106   8.258   1.253
92732W        W64261   8.372  29.650   3.195
92733W        W64262  26.125   9.622   3.736
92734W        W64263  44.003  37.017  13.813
92735W        W64264  36.409   4.695   3.859
92736W        W64265   1.436  26.543   0.394
92737W        W64266  28.572  14.726  11.494
92738W        W64267  36.471  15.713  12.815
92739W        W64268  34.200  16.594  13.825
92740W        W64269  34.451  11.362   3.387
92741W        W64270   1.754  24.174   3.599
92742W        W64271  17.356  19.489  11.962
92743W        W64272   4.904  34.419  10.248
92744W        W64273  27.510  14.609  11.471
92745W        W64274   9.276  34.601  13.966
92746W        W64275  27.768  24.856   0.979
92747W        W64276  20.748  11.329   0.341
92748W        W64277  12.576  30.686   0.435
92749W        W64278  36.599  32.816   2.157
92750W        W64279  33.497   0.965  12.558
92751W        W64280   1.393   4.834   0.918
92752W        W64281  20.909  41.945  10.192
92753W        W64282   8.855  21.998   3.429
92754W        W64283  38.948  12.343  12.873
92755W        W64284  38.837  23.636  13.431
92756W        W64285  44.162  12.551   4.086
92757W        W64286  18.175  42.725  14.349
92758W        W64287  42.138   8.434  13.859
92759W        W64288  27.539  11.271   4.151
92760W        W64289   5.452  15.716  14.944
92761W        W64290  31.932  34.552   4.076
92762W        W64291  18.079  37.974   4.212
92763W        W64292  43.384  21.732   2.055
92764W        W64293  34.464  39.036  11.241
92765W        W64294  34.003  28.254   3.365
92766W        W64295  34.414  39.589   2.109
92767W        W64296  39.893  13.146   4.161
92768W        W64297  24.932  21.280  14.295
92769W        W64298  28.191   4.192   3.645
92770W        W64299  36.472  39.169  11.182
92771W        W64300  38.905  42.871   1.712
92772W        W64301  15.185  20.690   1.800
92773W        W64302  41.043  36.879   1.870
92774W        W64303  32.529   3.472   4.158
92775W        W64304  26.112  21.545  12.844
92776W        W64305   5.623  29.461  11.575
92777W        W64306  24.981  33.872  11.675
92778W        W64307  13.801  43.736  11.671
92779W        W64308  31.960   0.901   2.816
92780W        W64309  40.755  42.170   5.017
92781W        W64310  20.123  38.755   0.495
92782W        W64311  19.496  19.433   2.393
92783W        W64312  30.117   3.815   3.880
92784W        W64313  10.953  19.578   2.202
92785W        W64314   6.386  24.239   2.306
92786W        W64315  28.522  21.048   3.210
92787W        W64316  34.935   4.253   1.022
92788W        W64317  10.897   1.339  13.979
92789W        W64318  13.274  29.533  13.928
92790W        W64319  12.692   5.936   4.470
92791W        W64320  33.152  27.548  12.992
92792W        W64321  31.895  26.751   5.339
92793W        W64322   2.628  26.323  14.413
92794W        W64323   6.807  35.578   3.711
92795W        W64324  37.490   2.895   0.017
92796W        W64325  17.539  19.042   2.694
92797W        W64326   3.763  27.136  12.392
92798W        W64327  10.624  32.582  13.300
92799W        W64328   1.216  34.535   1.914
92800W        W64329  33.082  10.088   3.655
92801W        W64330   9.774   3.317  10.829
92802W        W64331  39.196  36.062   4.234
92803W        W64332  34.664   0.984  13.226
92804W        W64333  28.991  31.178  14.900
92805W        W64334  31.967  27.403  14.077
92806W        W64335  41.540   3.208   4.531
92807W        W64336  20.395  36.978  11.551
92808W        W64337  20.507  36.449   2.921
92809W        W64338   0.061  35.888  12.531
92810W        W64339  38.551   6.032  14.912
92811W        W64340  38.387  16.015   1.263
92812W        W64341   9.144  29.615   1.330
92813W        W64342  37.763  20.281   0.707
92814W        W64343   0.958  38.653   2.292
92815W        W64344  40.543  30.912   3.598
92816W        W64345  42.118  10.750   4.522
92817W        W64346  27.901  16.327   4.371
92818W        W64347  12.206  23.787  13.664
92819W        W64348  40.570  14.242   4.084
92820W        W64349  40.685  12.828  11.331
92821W        W64350  29.451  31.903  13.048
92822W        W64351  24.188  24.501   3.868
92823W        W64352  27.618   9.653  13.419
92824W        W64353  29.824  26.127  11.560
92825W        W64354  23.975  42.088   3.445
92826W        W64355   4.815  14.807   0.936
92827W        W64356   1.565   5.555   0.452
92828W        W64357  15.529   6.067  11.136
92829W        W64358  39.913   3.169   4.665
92830W        W64359  41.877   8.639   0.884
92831W        W64360  40.938  20.998  14.990
92832W        W64361  29.837  18.300  10.352
92833W        W64362  38.771   2.555   1.844
92834W        W64363  12.239  32.956  11.742
92835W        W64364   8.325   6.393  10.310
92836W        W64365  34.394  23.360  14.179
92837W        W64366  10.307   3.312   0.400
92838W        W64367  18.642  35.624   3.665
92839W        W64368  22.948   3.242  13.802
92840W        W64369  28.126  34.863  11.817
92841W        W64370   7.217  15.732  14.212
92842W        W64371  39.309  15.787  13.847
92843W        W64372   7.885   0.896   2.533
92844W        W64373  10.873  27.029  14.309
92845W        W64374  12.866  31.474  11.312
92846W        W64375   1.502  15.916  11.374
92847W        W64376   8.634  26.548  11.880
92848W        W64377  22.093  43.500   2.296
92849W        W64378  39.210  19.223  10.757
92850W        W64379  19.350   0.591  10.660
92851W        W64380   3.863   0.706   4.063
92852W        W64381  35.733  31.167   5.047
92853W        W64382   5.803  22.217   2.169
92854W        W64383  31.196   4.464   4.554
92855W        W64384  40.056  29.998  13.833
92856W        W64385  37.513  14.846   4.645
92857W        W64386   5.128  34.447   0.658
92858W        W64387  28.014  22.032   2.730
92859W        W64388  25.972  42.832   3.837
92860W        W64389   0.278  37.411  10.775
92861W        W64390  32.922  24.584  14.540
92862W        W64391   4.182  34.605  14.018
92863W        W64392  29.492   9.235  14.335
92864W        W64393  19.015   5.304  12.014
92865W        W64394  27.052   8.071  14.773
92866W        W64395  39.320  14.647  13.926
92867W        W64396  37.912  42.741  12.097
92868W        W64397  33.058   0.892   4.860
92869W        W64398  19.499  19.117  10.683
92870W        W64399  30.143   5.870   0.686
92871W        W64400  33.613  44.744  11.959
92872W        W64401  36.446  33.668   0.043
92873W        W64402  20.749   7.784   2.387
92874W        W64403   3.280  29.425   0.863
92875W        W64404  35.048  38.926  11.971
92876W        W64405  43.159   9.611  14.874
92877W        W64406  19.417  41.029   1.988
92878W        W64407  19.271  24.006  14.035
92879W        W64408  11.614   6.297  14.475
92880W        W64409  15.072  27.922   2.866
92881W        W64410  37.059  42.185  12.683
92882W        W64411   4.270   9.841  12.871
92883W        W64412  43.340  34.639   4.682
92884W        W64413  21.808  41.732   3.351
92885W        W64414  35.493   8.409   1.010
92886W        W64415  18.541  43.471   2.868
92887W        W64416   5.955  23.049   3.986
92888W        W64417  44.438  31.816   4.156
92889W        W64418  18.801  42.714   4.172
92890W        W64419  23.342   9.358   2.388
92891W        W64420  40.999  42.317   0.373
92892W        W64421  12.831  29.448   3.603
92893W        W64422  35.452  31.786  13.888
92894W        W64423   6.876  10.707   3.793
92895W        W64424   1.718   0.374   4.452
92896W        W64425  41.161  10.336   2.957
92897W        W64426  25.601   1.271   4.284
92898W        W64427   6.501   9.192   4.277
92899W        W64428  44.892   6.520  13.489
92900W        W64429   9.762  41.240   1.568
92901W        W64430  36.590   4.730   2.857
92902W        W64431  12.545   8.373  14.430
92903W        W64432  43.383  13.053   4.138
92904W        W64433  31.098  19.810   2.228
92905W        W64434  25.874   9.269   2.203
92906W        W64435   9.198  28.916   3.571
92907W        W64436  39.913  14.391  13.273
92908W        W64437  36.593  33.288  13.342
92909W        W64438   0.005  17.983  14.485
92910W        W64439  34.608  33.024   1.217
92911W        W64440  32.896  31.523  11.877
92912W        W64441   4.734  40.027   0.641
92913W        W64442  38.983  42.326  13.359
92914W        W64443  11.140  28.088   3.327
92915W        W64444  25.743  27.051  12.503
92916W        W64445  34.949  27.089  11.854
92917W        W64446  12.079  18.732   4.824
92918W        W64447  43.366  37.270  10.590
92919W        W64448   1.749  26.291   0.008
92920W        W64449  36.874  36.565   2.590
92921W        W64450   1.744   1.479   2.285
92922W        W64451  13.167  14.210  10.738
92923W        W64452  33.037  14.024  14.924
92924W        W64453  36.095  14.975  12.113
92925W        W64454   6.328  32.461   4.628
92926W        W64455  24.921  32.851   1.765
92927W        W64456  40.814  10.337  11.913
92928W        W64457  13.909  23.154   0.847
92929W        W64458   1.820  20.062  11.542
92930W        W64459  33.072  27.922   1.417
92931W        W64460   2.009  29.582   0.093
92932W        W64461  37.567  42.729  13.556
92933W        W64462  20.299  28.841  14.479
92934W        W64463  17.764  36.586   0.328
92935W        W64464  24.484   8.105   0.308
92936W        W64465  33.941   6.934   0.090
92937W        W64466   0.241  26.638  13.361
92938W        W64467  31.044  15.891  14.615
92939W        W64468  18.847  13.236   2.365
92940W        W64469  44.256  19.233  10.991
92941W        W64470   1.828  22.317   2.469
92942W        W64471   0.985   3.207  13.891
92943W        W64472  43.243  20.755  13.995
92944W        W64473  13.079  19.989  14.473
92945W        W64474   2.976  20.171   2.665
92946W        W64475  38.525  38.457  13.268
92947W        W64476   7.268  12.267   0.188
92948W        W64477  37.092  36.605   3.665
92949W        W64478  25.302  43.175  14.363
92950W        W64479   7.363  23.714   2.772
92951W        W64480  19.629  38.895   0.338
92952W        W64481  23.929  43.739  13.709
92953W        W64482  29.422  27.687  10.596
92954W        W64483  37.550  15.584   4.210
92955W        W64484  30.272  19.303  11.717
92956W        W64485  42.067   1.765   4.493
92957W        W64486   7.785  30.734  10.681
92958W        W64487   8.337   6.553  12.099
92959W        W64488  34.980  14.547   4.055
92960W        W64489  15.879  37.326  12.417
92961W        W64490  14.073  18.907  13.222
92962W        W64491   6.006  37.516   3.601
92963W        W64492   7.386  25.546  11.619
92964W        W64493   0.014  28.933   2.293
92965W        W64494  27.440  34.114  14.846
92966W        W64495  38.332   9.179  12.035
92967W        W64496  33.655  23.281   4.274
92968W        W64497  25.254  41.505   1.741
92969W        W64498   5.442   6.186  11.636
92970W        W64499  17.889   8.198  11.760
92971W        W64500  40.910  10.283   1.426
92972W        W64501  31.590   5.880  14.547
92973W        W64502  15.177  17.466  12.327
92974W        W64503  35.768   4.252  13.955
92975W        W64504   5.868  11.568   3.804
92976W        W64505  38.397  43.176   1.199
92977W        W64506  26.534   5.197  14.187
92978W        W64507  42.448   9.863   3.413
92979W        W64508   1.523  21.738  11.492
92980W        W64509  43.051  44.904  14.023
92981W        W64510  30.183   5.048   0.964
92982W        W64511  23.760  19.895  12.362
92983W        W64512  27.569  44.994   0.017
92984W        W64513   9.403  37.827   1.909
92985W        W64514   5.596   3.908  10.954
92986W        W64515  30.123  10.785   4.497
92987W        W64516   0.364   1.447  13.068
92988W        W64517  20.124  39.027  14.491
92989W        W64518  36.635  29.599   0.238
92990W        W64519  41.300  28.641  12.078
92991W        W64520  23.734  13.967   1.167
92992W        W64521  34.537  41.794   1.477
92993W        W64522   8.780  29.008   2.900
92994W        W64523  27.215  23.609   4.506
92995W        W64524  35.076   4.806   3.279
92996W        W64525  13.650  43.465  12.105
92997W        W64526  12.177  34.069   1.851
92998W        W64527  21.619  43.998   2.808
92999W        W64528   2.316  35.514   2.629
93000W        W64529  36.041   8.282   3.234
93001W        W64530   5.741   3.706   1.802
93002W        W64531   8.272  21.231  13.331
93003W        W64532  26.078  41.829  11.208
93004W        W64533  43.564  24.799  14.392
93005W        W64534  26.132  30.051   3.013
93006W        W64535  26.481  44.369   3.535
93007W        W64536  36.348   2.593   2.346
93008W        W64537  10.633  44.550  11.691
93009W        W64538  16.320  12.156  14.971
93010W        W64539  32.137  21.969  10.707
93011W        W64540  31.200   7.441   2.477
93012W        W64541   5.041  32.123  13.960
93013W        W64542  26.113  32.010  11.710
93014W        W64543  18.205   9.277  13.770
93015W        W64544  36.862  42.075   3.814
93016W        W64545  32.594   2.525  12.689
93017W        W64546   7.084   2.241  11.100
93018W        W64547  30.193  11.752   2.043
93019W        W64548  16.452  44.968  14.837
93020W        W64549  24.991   9.201   1.265
93021W        W64550  37.303  12.816  12.411
93022W        W64551  12.639  17.782  12.879
93023W        W64552  28.863  43.326  14.268
93024W        W64553  24.915  34.650   1.339
93025W        W64554  37.006   4.500  13.408
93026W        W64555  28.643  42.838   3.238
93027W        W64556  41.949  41.247  10.456
93028W        W64557  28.390   2.817  14.948
93029W        W64558  17.147   7.871  14.762
93030W        W64559  33.055  15.269  14.018
93031W        W64560   0.277   3.471   2.232
93032W        W64561  37.616   2.250   2.238
93033W        W64562  14.646  41.742   3.329
93034W        W64563  16.198  12.219   3.643
93035W        W64564  41.027  25.567   0.016
93036W        W64565   0.241  12.105   4.433
93037W        W64566  29.678  37.934  14.425
93038W        W64567   9.013   2.077  12.506
93039W        W64568  13.216   2.096  12.577
93040W        W64569  38.364   8.939   3.007
93041W        W64570  22.965   6.916  13.380
93042W        W64571  18.110  26.913   4.588
93043W        W64572  12.330  25.717  14.316
93044W        W64573  41.698   3.925  14.368
93045W        W64574   2.453  44.057   4.655
93046W        W64575  37.884  17.253   3.619
93047W        W64576  29.416  24.845   4.110
93048W        W64577  40.337   0.331   2.677
93049W        W64578  34.617   7.258   0.370
93050W        W64579   6.199   8.155   3.198
93051W        W64580  20.658  30.735  11.506
93052W        W64581  23.936  27.115   3.639
93053W        W64582  21.486   1.885  14.952
93054W        W64583  29.627  23.163  14.795
93055W        W64584  30.835  27.772  10.941
93056W        W64585   6.646  34.094  12.443
93057W        W64586  11.006  13.715  14.532
93058W        W64587  21.618  43.794  11.475
93059W        W64588  33.609  40.068  13.942
93060W        W64589  38.480  38.586   0.306
93061W        W64590  33.903  37.018   0.966
93062W        W64591  10.138   8.734  14.741
93063W        W64592   8.848  21.065   3.381
93064W        W64593  25.571  27.392   1.532
93065W        W64594  39.804  11.937   0.961
93066W        W64595  17.660  10.778   1.812
93067W        W64596   9.401  35.108  13.948
93068W        W64597   4.254  17.363   1.383
93069W        W64598  42.840  10.029  11.818
93070W        W64599  40.297   9.361   0.947
93071W        W64600  27.432  38.569   0.893
93072W        W64601   9.226  21.395   2.643
93073W        W64602  20.114  41.013  14.765
93074W        W64603  10.231   5.915  13.591
93075W        W64604  21.957  33.416   1.230
93076W        W64605   4.711  38.066  13.000
93077W        W64606   5.399  16.815  13.991
93078W        W64607  33.962  40.145  11.982
93079W        W64608  24.069  12.088  11.826
93080W        W64609   8.693  39.503  13.615
93081W        W64610  28.452   8.671  14.975
93082W        W64611  24.918  18.704  12.006
93083W        W64612   4.688  44.022  10.208
93084W        W64613   2.357  36.641  10.512
93085W        W64614  11.127  22.129  12.066
93086W        W64615  36.032  16.505   2.547
93087W        W64616  44.532   4.823   2.904
93088W        W64617  14.579   3.433  14.844
93089W        W64618  24.586  39.553  10.489
93090W        W64619  24.058   9.848  13.766
93091W        W64620  39.547  17.449  11.507
93092W        W64621  36.465  31.931  11.974
93093W        W64622  13.722  13.853  13.962
93094W        W64623   6.145  19.267   3.623
93095W        W64624  18.674   8.729   2.144
93096W        W64625  29.866  20.447   3.229
93097W        W64626   0.988   8.042   1.825
93098W        W64627  43.237   2.223  10.834
93099W        W64628  28.579   7.849  12.484
93100W        W64629   4.906  33.904   3.333
93101W        W64630  41.044   5.563   2.472
93102W        W64631  22.410  44.790  14.611
93103W        W64632  39.696  30.182   2.126
93104W        W64633  25.753  30.391   0.394
93105W        W64634  33.074   1.295  12.424
93106W        W64635  15.238  26.785  13.024
93107W        W64636   9.912  13.318  10.636
93108W        W64637   9.642  13.600   1.715
93109W        W64638  20.333  13.825  14.325
93110W        W64639   1.315  17.679   3.597
93111W        W64640  33.125  13.517  14.922
93112W        W64641  42.529   1.967   1.495
93113W        W64642  19.729  29.600   1.446
93114W        W64643   3.626  12.639   4.719
93115W        W64644  28.850  20.194   1.797
93116W        W64645  42.871  17.568   2.493
93117W        W64646  34.528  27.106   2.799
93118W        W64647  40.654  12.599   2.692
93119W        W64648   1.490   8.372  12.985
93120W        W64649   3.110  38.737  12.282
93121W        W64650   8.267  23.920   4.906
93122W        W64651  36.987  10.565   4.784
93123W        W64652  10.827  36.062  11.705
93124W        W64653  13.547  38.526  11.493
93125W        W64654  23.004  36.474  11.652
93126W        W64655  33.879  26.657   3.365
93127W        W64656   8.663  25.246   2.137
93128W        W64657  38.905   5.422   4.907
93129W        W64658  30.916  23.721   4.253
93130W        W64659  23.520  12.034  14.286
93131W        W64660   6.666  34.304  11.587
93132W        W64661   3.164   3.266   2.288
93133W        W64662   4.287   9.041   5.177
93134W        W64663  38.425  36.912   1.938
93135W        W64664   8.333   8.152   2.950
93136W        W64665  24.121  41.538   3.277
93137W        W64666  29.045   3.477   2.821
93138W        W64667  28.408   1.421  12.083
93139W        W64668  14.529  22.509   3.681
93140W        W64669  43.191  16.752  13.407
93141W        W64670   7.271  42.896  12.491
93142W        W64671  36.173   6.432   4.070
93143W        W64672   4.411  20.528   1.676
93144W        W64673  26.653  23.143  14.809
93145W        W64674  35.812  10.311  12.072
93146W        W64675  13.461  41.860   4.750
93147W        W64676  33.757  24.430   0.538
93148W        W64677  33.092  33.118  13.815
93149W        W64678  27.020  32.266  10.251
93150W        W64679  35.134   7.954  10.801
93151W        W64680  30.194   4.838   2.328
93152W        W64681  14.860  36.417   0.378
93153W        W64682  30.178   8.286   1.206
93154W        W64683  10.210  18.708  14.594
93155W        W64684  10.186  23.222  14.653
93156W        W64685  31.868  43.283   0.282
93157W        W64686   0.877  35.136   4.635
93158W        W64687  26.406   3.250  11.281
93159W        W64688  13.145  30.087  11.008
93160W        W64689  10.402  12.702   4.109
93161W        W64690  10.476  22.582  12.760
93162W        W64691   4.355   6.870  11.619
93163W        W64692   0.856  20.305   2.305
93164W        W64693   2.283  19.575  13.079
93165W        W64694   6.711  29.139   2.204
93166W        W64695  10.579  41.900  10.675
93167W        W64696  37.060  26.671  13.854
93168W        W64697  25.770   9.776   2.871
93169W        W64698  25.490  26.980   1.226
93170W        W64699  13.661  28.540  14.481
93171W        W64700  36.357   5.698   2.903
93172W        W64701  18.544  15.580   3.730
93173W        W64702  17.122  10.067   1.643
93174W        W64703  18.572  12.415  13.415
93175W        W64704  44.722  11.909   3.685
93176W        W64705  32.435  19.947   3.696
93177W        W64706  33.330  35.552  11.233
93178W        W64707  25.300  30.049  14.381
93179W        W64708  36.236  41.897  14.965
93180W        W64709  38.631  14.907  14.898
93181W        W64710  40.842   6.524   2.305
93182W        W64711  17.625  15.757   3.358
93183W        W64712  40.980   3.874   0.406
93184W        W64713  11.040  15.317   2.372
93185W        W64714  39.340  30.128  11.137
93186W        W64715  11.621   7.610  12.658
93187W        W64716  21.033  28.608   1.579
93188W        W64717  38.272  36.595  13.956
93189W        W64718   7.597  38.517  12.061
93190W        W64719  22.843  34.981   3.779
93191W        W64720  41.460  37.797  13.508
93192W        W64721  10.366  43.470  12.565
93193W        W64722  13.727  22.203   4.084
93194W        W64723  26.509  40.770   1.086
93195W        W64724  29.921  27.047  11.833
93196W        W64725   3.385  28.953   1.347
93197W        W64726  27.612  32.765   1.902
93198W        W64727  24.151  19.954  10.621
93199W        W64728  16.599  32.980   2.204
93200W        W64729   0.968  34.930  12.144
93201W        W64730   3.703  22.989  13.509
93202W        W64731  35.509   4.352   2.278
93203W        W64732  17.166  36.409  13.811
93204W        W64733  27.076  23.442  13.774
93205W        W64734  33.572  32.143   2.695
93206W        W64735  42.408  40.562  10.662
93207W        W64736  23.449  21.687  12.515
93208W        W64737  41.427  39.799  14.337
93209W        W64738  19.262  37.757   3.679
93210W        W64739  40.098  30.889   3.861
93211W        W64740  32.948   5.494   2.780
93212W        W64741  38.866  34.926  13.472
93213W        W64742  35.119  42.915   0.876
93214W        W64743   3.013  35.544  14.331
93215W        W64744  34.872  36.566   2.430
93216W        W64745  33.576   8.813   3.822
93217W        W64746  27.141  30.854   2.229
93218W        W64747   2.688  15.996   4.117
93219W        W64748   6.933   6.911   1.383
93220W        W64749  18.996  29.788  12.144
93221W        W64750   0.510  34.408   3.874
93222W        W64751  12.754  21.983   3.752
93223W        W64752  32.244  38.959   4.818
93224W        W64753  34.336   3.859   2.879
93225W        W64754  11.486  28.754   1.671
93226W        W64755  28.125  41.572   3.214
93227W        W64756  41.422  42.916   2.271
93228W        W64757  43.873  36.413   4.352
93229W        W64758  11.675  26.966   2.625
93230W        W64759  21.039  40.515   1.858
93231W        W64760   8.821   5.359  11.550
93232W        W64761  27.786   0.485   2.772
93233W        W64762  39.405   5.404   3.192
93234W        W64763  20.998   3.254   4.400
93235W        W64764  43.284  39.320   1.718
93236W        W64765   0.059  17.561  13.482
93237W        W64766  12.548   7.809  12.220
93238W        W64767   2.423  16.868   3.395
93239W        W64768  43.460   7.396   2.739
93240W        W64769  33.081  13.113   1.655
93241W        W64770  39.327   1.976  11.259
93242W        W64771  32.866  30.208  14.494
93243W        W64772  17.788  12.263  13.506
93244W        W64773  35.000  35.864   4.143
93245W        W64774   1.219   6.328  10.617
93246W        W64775  14.459  42.997  11.423
93247W        W64776  13.356  25.707  14.273
93248W        W64777  29.141  30.068  13.985
93249W        W64778  38.368  11.106  14.005
93250W        W64779  30.572   0.359   0.356
93251W        W64780  17.643   1.282   1.873
93252W        W64781  20.551  15.358   1.423
93253W        W64782   0.025  43.900   4.935
93254W        W64783  37.313  38.276  14.857
93255W        W64784  21.295  21.061  10.876
93256W        W64785  37.597  15.811  11.558
93257W        W64786  10.560  28.825   3.609
93258W        W64787  43.905  16.252   3.674
93259W        W64788  29.322  30.524   2.783
93260W        W64789  23.702  37.745   3.445
93261W        W64790  34.082  37.727   0.261
93262W        W64791  37.497   1.068  12.408
93263W        W64792  34.379  10.215   2.325
93264W        W64793  41.892   7.420  12.456
93265W        W64794   7.765  27.766   4.254
93266W        W64795   8.230  32.208  12.032
93267W        W64796  29.172  43.376  10.632
93268W        W64797  39.643  35.856   0.744
93269W        W64798   9.833  17.636  10.678
93270W        W64799  35.577   4.862  13.862
93271W        W64800  12.682  15.172   2.280
93272W        W64801   2.059  17.316  12.140
93273W        W64802   4.166  11.143  12.705
93274W        W64803  40.257  34.084  10.726
93275W        W64804  19.737  32.715  13.106
93276W        W64805  29.724   3.453  10.486
93277W        W64806  34.851  33.470   4.591
93278W        W64807  41.501  15.663  13.430
93279W        W64808  14.011   4.707  11.361
93280W        W64809  29.987  10.634   1.319
93281W        W64810  16.994  42.798  11.154
93282W        W64811  21.682  22.735   2.647
93283W        W64812   0.479  40.726   4.131
93284W        W64813  20.208   7.673   4.161
93285W        W64814  36.325  41.004   4.170
93286W        W64815  36.481  18.759  10.624
93287W        W64816   8.662   9.434  11.006
93288W        W64817  10.661  23.086  11.097
93289W        W64818  15.778  25.666   0.894
93290W        W64819  42.785  15.078  11.594
93291W        W64820  34.721  32.236   0.795
93292W        W64821  19.225   0.019   4.127
93293W        W64822  24.029  33.824   1.822
93294W        W64823  29.805  22.129   1.740
93295W        W64824  27.778  28.024   2.201
93296W        W64825   3.237  32.191   2.613
93297W        W64826  21.148  26.167   1.781
93298W        W64827  30.551  21.164  14.818
93299W        W64828  43.725   3.535  13.192
93300W        W64829   5.140  21.746   1.262
93301W        W64830  24.042  17.670  13.611
93302W        W64831  20.203   8.802  12.128
93303W        W64832  40.110  20.085   0.437
93304W        W64833   2.705  16.653  13.776
93305W        W64834  37.308  18.599  14.385
93306W        W64835  21.982  40.138   0.290
93307W        W64836  43.552  22.316  11.578
93308W        W64837  16.959   4.696   1.828
93309W        W64838  24.931  38.340  11.962
93310W        W64839  10.703  15.371   1.996
93311W        W64840  35.578  35.908  12.810
93312W        W64841  43.636  22.671  14.349
93313W        W64842  12.544  27.281  12.585
93314W        W64843   8.617  20.379   3.411
93315W        W64844   3.288  33.196  14.377
93316W        W64845   3.164  33.386   2.406
93317W        W64846  26.768  12.720  12.056
93318W        W64847   9.780  21.172   0.373
93319W        W64848  41.615   4.514  14.018
93320W        W64849  15.160   7.038  11.874
93321W        W64850  14.345   1.766   1.357
93322W        W64851  43.246   6.323  12.505
93323W        W64852  13.834  25.221  11.199
93324W        W64853  14.709   8.206  12.982
93325W        W64854  39.813  34.997  10.838
93326W        W64855  27.455  37.473  13.094
93327W        W64856  23.982  38.612   0.985
93328W        W64857  28.701  20.192   3.337
93329W        W64858   2.714  34.012  12.115
93330W        W64859  40.494  11.189   4.080
93331W        W64860  26.438   7.941   0.749
93332W        W64861  35.261   0.433  12.585
93333W        W64862   2.429  18.917  11.023
93334W        W64863  43.801  30.243   4.796
93335W        W64864  41.416   2.188   3.210
93336W        W64865  23.947   2.455  12.433
93337W        W64866  11.799  31.763   5.106
93338W        W64867  16.143  30.073   3.937
93339W        W64868   1.945   4.182  11.544
93340W        W64869   6.353  39.836  13.499
93341W        W64870  34.063  11.663  10.284
93342W        W64871  36.073   4.586   3.010
93343W        W64872   7.311  20.284  12.815
93344W        W64873  16.051  37.957  11.637
93345W        W64874   7.846  31.951  11.147
93346W        W64875   9.664  12.679  14.243
93347W        W64876  38.836  33.663  12.471
93348W        W64877  27.776  35.116  14.910
93349W        W64878  27.797   1.614  13.950
93350W        W64879  42.312   4.036   0.117
93351W        W64880  44.438   6.635  10.802
93352W        W64881   7.170  37.304   0.324
93353W        W64882  23.960  18.108  13.869
93354W        W64883  17.368   8.252  11.608
93355W        W64884  13.231   4.769   1.028
93356W        W64885  14.102  33.781  11.623
93357W        W64886  23.232  19.987  13.911
93358W        W64887  30.225  31.854  11.203
93359W        W64888  11.708  35.778  10.228
93360W        W64889  17.771   3.998  11.545
93361W        W64890  44.210   4.835  13.593
93362W        W64891  17.751  37.580   1.603
93363W        W64892   2.793  31.626   2.246
93364W        W64893   7.258  43.455   3.844
93365W        W64894  39.247  10.206   3.274
93366W        W64895   5.286  16.333   4.824
93367W        W64896  34.464  37.491  14.319
93368W        W64897  20.212   3.147  10.424
93369W        W64898  41.044  26.189   1.768
93370W        W64899  37.323  15.180  14.991
93371W        W64900  29.231  17.608   1.976
93372W        W64901  25.138  12.280   4.471
93373W        W64902  24.730  21.622   1.382
93374W        W64903  25.229  41.723  14.400
93375W        W64904  22.201   3.511  12.115
93376W        W64905  38.080  16.080  11.116
93377W        W64906  16.710  38.626   4.234
93378W        W64907  28.434  44.775  13.169
93379W        W64908  29.715  19.278   1.609
93380W        W64909  43.900  34.457   9.703
93381W        W64910   6.295   6.400   2.668
93382W        W64911   8.396  30.023  13.847
93383W        W64912  38.261  24.038   3.356
93384W        W64913  35.772   2.886   1.443
93385W        W64914  34.320  27.774   0.978
93386W        W64915   7.252  33.354   4.569
93387W        W64916  37.038  38.041  10.615
93388W        W64917   8.237   1.027   4.117
93389W        W64918  12.744  30.075   1.367
93390W        W64919  26.951   0.404   3.308
93391W        W64920  41.925  38.783   4.598
93392W        W64921  10.833  12.320  11.658
93393W        W64922  35.777  32.705  13.993
93394W        W64923  23.090  43.471  12.076
93395W        W64924   3.224  25.148  10.702
93396W        W64925  25.909  25.222  12.654
93397W        W64926  28.028  24.734  12.139
93398W        W64927   9.530  34.276  11.904
93399W        W64928  38.104  22.626  10.953
93400W        W64929   8.656   0.884   9.817
93401W        W64930  23.098  17.092  13.324
93402W        W64931  26.734   5.828  12.095
93403W        W64932  13.646   9.788  11.667
93404W        W64933   9.351  13.269  14.826
93405W        W64934  26.070  27.728  13.243
93406W        W64935  24.281   5.449   2.519
93407W        W64936  39.777   0.693  12.543
93408W        W64937   0.509  28.569   0.319
93409W        W64938   5.658  39.367  13.721
93410W        W64939   1.370  29.149   0.481
93411W        W64940  24.007  12.756  12.701
93412W        W64941  30.655  14.549   9.728
93413W        W64942  43.166   3.441   2.329
93414W        W64943  43.483  36.964  14.339
93415W        W64944   3.419  20.071   2.392
93416W        W64945  30.072  35.353   2.599
93417W        W64946  25.207  33.908  13.119
93418W        W64947   1.960  17.343   5.051
93419W        W64948   0.467  34.351  11.374
93420W        W64949   7.200   7.923   2.655
93421W        W64950  31.419  34.836  14.277
93422W        W64951  40.829  14.878   3.502
93423W        W64952  11.655   0.616  10.287
93424W        W64953  35.392  33.417   1.285
93425W        W64954  37.859  12.357  12.866
93426W        W64955   6.115  22.133   3.609
93427W        W64956  26.644  13.640   2.422
93428W        W64957  43.612   5.273   2.405
93429W        W64958  32.610  14.065   4.207
93430W        W64959  14.889  24.119  14.905
93431W        W64960  41.328  25.858   3.574
93432W        W64961  10.976   1.639   5.222
93433W        W64962  24.687  27.851   3.275
93434W        W64963  23.951  23.188  11.978
93435W        W64964  11.670  17.757   1.674
93436W        W64965  14.110  27.420   0.410
93437W        W64966   0.192  10.056   4.190
93438W        W64967  39.559  11.468   3.462
93439W        W64968  12.788   0.351   1.852
93440W        W64969  25.643  35.679   2.737
93441W        W64970  16.717  16.618  14.210
93442W        W64971  39.749  33.439  12.977
93443W        W64972   1.921  30.501  13.472
93444W        W64973  11.045  21.022  13.224
93445W        W64974  22.042  38.433   1.428
93446W        W64975  17.366   0.243  13.029
93447W        W64976  31.534   2.366  14.043
93448W        W64977  13.998  34.083  14.853
93449W        W64978  43.440   0.891  13.780
93450W        W64979  42.390  32.027  13.861
93451W        W64980   1.402  43.584  12.937
93452W        W64981   4.338   3.165  12.048
93453W        W64982   0.443   4.683   2.970
93454W        W64983   9.273   3.472   2.273
93455W        W64984  41.846  15.376  14.396
93456W        W64985  43.051  42.719  11.494
93457W        W64986   1.590  33.962   0.688
93458W        W64987  19.164  39.405   4.604
93459W        W64988  18.325  41.947   2.056
93460W        W64989  24.033  40.966   1.681
93461W        W64990  37.631   8.170   2.369
93462W        W64991   6.858  13.373  14.412
93463W        W64992  31.674  17.270   2.677
93464W        W64993  11.713  21.095  13.595
93465W        W64994  29.086  26.654   4.673
93466W        W64995  24.148   8.731  14.869
93467W        W64996  18.316  28.810   4.473
93468W        W64997  23.412  41.524   2.236
93469W        W64998   5.539  18.697   3.095
93470W        W64999   0.480  40.817  11.761
93471W        W65000  42.781  34.003   2.257
93472W        W65001  28.358   0.866   4.595
93473W        W65002   0.409  24.578   4.937
93474W        W65003   9.678  15.635  14.522
93475W        W65004  27.910  25.086   3.884
93476W        W65005   4.771  33.115   1.337
93477W        W65006   0.887   2.346  11.540
93478W        W65007  28.854  43.631  11.566
93479W        W65008  23.244  21.244   2.250
93480W        W65009  16.723  14.528  14.314
93481W        W65010  24.905  17.062  12.909
93482W        W65011  17.929  32.781   1.907
93483W        W65012  10.924   4.772  11.840
93484W        W65013  27.488  38.426   2.275
93485W        W65014  24.744  25.230  14.211
93486W        W65015  21.073   1.474  12.173
93487W        W65016   9.310   7.132  11.137
93488W        W65017  26.541  14.141   1.248
93489W        W65018  20.623  44.545  11.062
93490W        W65019  14.558  39.109   3.968
93491W        W65020  33.055  12.328   4.818
93492W        W65021  35.616  17.131  12.112
93493W        W65022  15.481   6.868  14.371
93494W        W65023  44.560  36.868  12.398
93495W        W65024   6.807   7.838   4.199
93496W        W65025   3.685  13.103  13.949
93497W        W65026  31.434  17.471   2.270
93498W        W65027  33.299  43.025   9.877
93499W        W65028   0.360   9.748  13.844
93500W        W65029  22.927  40.500  11.228
93501W        W65030  22.168  26.200  10.744
93502W        W65031  15.798   3.786   0.475
93503W        W65032   2.817  41.989   0.265
93504W        W65033  43.437  10.281  11.206
93505W        W65034  26.936  13.836  10.730
93506W        W65035   0.049  19.126   2.406
93507W        W65036  12.829  37.651   2.375
93508W        W65037  11.422  22.548   2.684
93509W        W65038  13.717  12.587  13.477
93510W        W65039  25.182  34.327   2.744
93511W        W65040  22.254  16.351   2.715
93512W        W65041  43.117  39.669  13.022
93513W        W65042  32.401  14.221  11.619
93514W        W65043   3.759  31.964  14.521
93515W        W65044  44.973  16.543   2.851
93516W        W65045  40.359  21.306   4.585
93517W        W65046   3.776  17.747   3.618
93518W        W65047  42.877   8.968  12.076
93519W        W65048  26.013  14.073   1.368
93520W        W65049  21.548  14.874   3.062
93521W        W65050  42.292  25.492   2.197
93522W        W65051  22.241  19.625  12.292
93523W        W65052  31.222  19.306   2.381
93524W        W65053  22.553   8.206   3.301
93525W        W65054   0.860   8.739   0.717
93526W        W65055  18.143  20.132  10.649
93527W        W65056  39.129  42.863   4.236
93528W        W65057   3.760   1.500   3.454
93529W        W65058   6.358  16.150  13.991
93530W        W65059  39.548  23.736  11.442
93531W        W65060  41.009  14.675   0.220
93532W        W65061  31.481  40.542  13.964
93533W        W65062   8.895  43.986  14.780
93534W        W65063   1.518   4.886  11.141
93535W        W65064  21.602  31.595   2.562
93536W        W65065  27.746  37.559  10.050
93537W        W65066  16.720  23.049  12.723
93538W        W65067  22.607  28.394  14.139
93539W        W65068  39.881  27.802  12.295
93540W        W65069  26.875  11.866   1.397
93541W        W65070  15.182  44.743   0.738
93542W        W65071   3.872   0.549   2.751
93543W        W65072   7.693   2.011  14.932
93544W        W65073  35.012  20.541  13.161
93545W        W65074  41.711   5.887  12.941
93546W        W65075  38.946  21.271   3.985
93547W        W65076  39.370  43.977  13.830
93548W        W65077   9.610  42.367   2.340
93549W        W65078  14.765  37.585   4.274
93550W        W65079  16.360  43.234   1.750
93551W        W65080  18.349  31.590   1.242
93552W        W65081   0.971  33.137   0.961
93553W        W65082  23.619  24.067  14.401
93554W        W65083  21.512  34.633  13.071
93555W        W65084  16.155  21.713  14.873
93556W        W65085  27.599  23.046  10.944
93557W        W65086   6.754   5.860  10.917
93558W        W65087  18.710  21.598   3.805
93559W        W65088  24.519  19.745   1.027
93560W        W65089  27.087   2.631   2.726
93561W        W65090  21.537  36.121  14.162
93562W        W65091   8.253   7.605   0.307
93563W        W65092  31.907  32.542   2.357
93564W        W65093   3.271  29.721  11.251
93565W        W65094   3.188   9.832  11.023
93566W        W65095  11.387   6.329   0.945
93567W        W65096  20.591   6.900  12.812
93568W        W65097  21.363  19.675   1.976
93569W        W65098  34.875  32.286   3.733
93570W        W65099   8.314  21.150  12.415
93571W        W65100  34.835  14.236   3.625
93572W        W65101  29.031   1.969  11.107
93573W        W65102  38.323  44.292   3.678
93574W        W65103  30.902  11.756  13.552
93575W        W65104  32.612   9.879   3.642
93576W        W65105  41.890  39.862  14.587
93577W        W65106  35.964  21.176  12.981
93578W        W65107  36.829   4.353   1.923
93579W        W65108   5.351  33.974   0.488
93580W        W65109  13.065  26.010  12.856
93581W        W65110  18.173  27.440   5.424
93582W        W65111  31.318  29.481   2.607
93583W        W65112   1.906   8.849  11.235
93584W        W65113  17.648  19.115   3.187
93585W        W65114  36.316  11.254  13.183
93586W        W65115  43.411   2.682   3.612
93587W        W65116  43.999  33.039  12.519
93588W        W65117  12.280  35.854  11.073
93589W        W65118  10.823   1.343   3.348
93590W        W65119  31.632  36.668  11.049
93591W        W65120  25.497  42.135  14.241
93592W        W65121   0.034  28.395   0.460
93593W        W65122  41.435  19.277  12.876
93594W        W65123  32.598  29.986   3.750
93595W        W65124  26.643  11.893   2.653
93596W        W65125  12.932   2.689   2.813
93597W        W65126  24.205   9.719   1.666
93598W        W65127  31.443  27.535   3.290
93599W        W65128  19.114  12.708  10.377
93600W        W65129  24.744  31.413  11.163
93601W        W65130  36.020  19.634  12.646
93602W        W65131   0.914  31.401  11.236
93603W        W65132  41.923   7.948  12.389
93604W        W65133  40.022  40.111   2.372
93605W        W65134  27.882  40.921  11.918
93606W        W65135  21.494  40.483   2.790
93607W        W65136  24.762  39.092   2.439
93608W        W65137  37.879   3.143  10.669
93609W        W65138   8.943  39.877   2.784
93610W        W65139  31.243   3.359  11.099
93611W        W65140  31.154   5.243  12.947
93612W        W65141  39.009   6.253   3.462
93613W        W65142  40.942   0.496   0.848
93614W        W65143  22.300  27.456   1.223
93615W        W65144   3.683   7.963   1.906
93616W        W65145  28.261  35.078  11.355
93617W        W65146  22.919   0.860   5.037
93618W        W65147  41.428   0.540  13.940
93619W        W65148  32.924  42.488  11.165
93620W        W65149  43.902   3.780  11.529
93621W        W65150  14.100  29.212   3.145
93622W        W65151   1.218   1.440   0.293
93623W        W65152  18.125  18.649  14.054
93624W        W65153  20.032   3.233  13.542
93625W        W65154  13.890   4.279   1.449
93626W        W65155   5.513   3.396   4.509
93627W        W65156  24.829  44.963   2.142
93628W        W65157  43.427  12.854  14.842
93629W        W65158  13.259  41.505   3.195
93630W        W65159  10.161  31.908   4.540
93631W        W65160  23.824   5.321   1.287
93632W        W65161  24.613  33.439  12.049
93633W        W65162  31.065  22.060   3.656
93634W        W65163  19.546  34.558  10.479
93635W        W65164  35.156  19.024  10.485
93636W        W65165  39.813  12.199  10.873
93637W        W65166  37.606  31.570  11.127
93638W        W65167  26.646  37.019   3.664
93639W        W65168  28.394  27.246   1.216
93640W        W65169   7.586  30.957   4.812
93641W        W65170  27.211  23.649   2.686
93642W        W65171  41.045  17.778  14.943
93643W        W65172  41.018  40.187  14.269
93644W        W65173  39.420  40.787   3.277
93645W        W65174  38.040  26.086   4.877
93646W        W65175  28.024  16.889   4.368
93647W        W65176  39.947   4.377   1.894
93648W        W65177  11.473  30.487  11.556
93649W        W65178  11.660  42.920  13.451
93650W        W65179  37.871  26.556   4.636
93651W        W65180  17.174  42.734  13.438
93652W        W65181  24.074  43.000   3.327
93653W        W65182  42.080  29.484  11.117
93654W        W65183  34.418  44.481  11.184
93655W        W65184  31.613  33.431  13.984
93656W        W65185  37.495  22.319  14.786
93657W        W65186  18.550  27.957  11.947
93658W        W65187  15.758  21.130  11.493
93659W        W65188  42.413  10.394  12.892
93660W        W65189  35.330  18.229   0.003
93661W        W65190   0.009  43.926   0.381
93662W        W65191  27.416  17.741  14.422
93663W        W65192  19.576  12.101   1.777
93664W        W65193  32.865  43.662   0.437
93665W        W65194  29.172   0.875   0.254
93666W        W65195  33.436  16.429  10.675
93667W        W65196  22.770  31.688  12.945
93668W        W65197  42.341  40.864  13.867
93669W        W65198  22.909  14.070   2.635
93670W        W65199  26.274  39.383   0.935
93671W        W65200  20.223   1.872  10.723
93672W        W65201  20.651  20.633   2.232
93673W        W65202  28.518  34.923   4.270
93674W        W65203  34.667  18.072   2.789
93675W        W65204  42.358   5.146  13.846
93676W        W65205   0.898  18.887  13.109
93677W        W65206  10.608  32.902  10.631
93678W        W65207  21.582  16.513   0.503
93679W        W65208   6.608  42.955   2.089
93680W        W65209  31.715   6.448   3.930
93681W        W65210  28.283  25.579  12.083
93682W        W65211  26.558  38.179   1.691
93683W        W65212   4.137  14.941  11.843
93684W        W65213  35.378  42.581   3.221
93685W        W65214  26.412  10.893  13.854
93686W        W65215  21.193  36.900   3.265
93687W        W65216  13.967  42.843  11.540
93688W        W65217  14.090  21.607  10.702
93689W        W65218   3.938  25.601  13.014
93690W        W65219   6.350  14.790   4.602
93691W        W65220  44.044  19.765   1.264
93692W        W65221   1.566  20.163  13.914
93693W        W65222  25.006   5.875   4.878
93694W        W65223  21.327   0.247  10.207
93695W        W65224  44.512  31.536  14.410
93696W        W65225  13.654   8.099   4.074
93697W        W65226  33.598  13.569  11.050
93698W        W65227  30.920  37.224  11.983
93699W        W65228  42.381   7.277   3.889
93700W        W65229  34.384   4.764  10.309
93701W        W65230  24.546  14.809   3.246
93702W        W65231  16.210  33.967  14.524
93703W        W65232   2.038  30.898  10.607
93704W        W65233  30.397   8.102  11.956
93705W        W65234  10.576  21.647  12.779
93706W        W65235  40.094  43.836  13.454
93707W        W65236   8.316  19.126   1.122
93708W        W65237  31.875  14.413   3.881
93709W        W65238  24.490  31.539  11.587
93710W        W65239  39.296  16.510  10.890
93711W        W65240  39.960  15.676  14.263
93712W        W65241  32.669   0.680   4.527
93713W        W65242  28.715  22.289  10.685
93714W        W65243  10.854  42.333   1.319
93715W        W65244  42.106   3.663  12.674
93716W        W65245  36.107   5.292   0.931
93717W        W65246  19.204  18.162  11.900
93718W        W65247  37.804   3.782  11.489
93719W        W65248  43.459  27.802   2.243
93720W        W65249  20.919  28.010  10.262
93721W        W65250  22.645   5.581  10.254
93722W        W65251  42.510  17.710   3.619
93723W        W65252  17.660   2.263   2.201
93724W        W65253  19.670  30.077   3.271
93725W        W65254  19.759  13.553  14.266
93726W        W65255  34.840  29.506   3.746
93727W        W65256  42.903  27.898  13.046
93728W        W65257  16.620  19.581  12.952
93729W        W65258  27.960  33.465   2.847
93730W        W65259  29.117  19.538   3.860
93731W        W65260  26.420  34.148   1.776
93732W        W65261  24.973  22.726  11.932
93733W        W65262  23.541   2.711  14.808
93734W        W65263  29.374  27.895   4.251
93735W        W65264   7.784   7.680   0.908
93736W        W65265  19.691  28.934  14.888
93737W        W65266  38.370  35.473   1.221
93738W        W65267  37.619  22.082   2.755
93739W        W65268   9.281   1.668   1.293
93740W        W65269   8.721  25.530   3.839
93741W        W65270  16.831  43.451   1.600
93742W        W65271  39.304  23.690   3.232
93743W        W65272  36.447  32.619   4.385
93744W        W65273   4.202  20.662   2.834
93745W        W65274  20.006   4.609   0.317
93746W        W65275  33.925   0.784   4.638
93747W        W65276   1.017  44.425  12.508
93748W        W65277   3.114  26.690   3.762
93749W        W65278   7.361  38.313   2.182
93750W        W65279   1.344  25.847   3.312
93751W        W65280  32.953  36.630  14.295
93752W        W65281   1.847  25.837  10.701
93753W        W65282  16.548  39.711   3.362
93754W        W65283   9.786  15.114   1.854
93755W        W65284  17.501  15.881   1.399
93756W        W65285  12.310   4.644  13.093
93757W        W65286  30.434  14.299   2.546
93758W        W65287  10.308   5.493   2.166
93759W        W65288  16.056  18.100   0.271
93760W        W65289   6.949  29.033   0.257
93761W        W65290  43.326  34.170  12.181
93762W        W65291  38.016  15.327   1.573
93763W        W65292  22.735  12.081  10.668
93764W        W65293  43.931  11.822   1.288
93765W        W65294  24.557   3.322  14.836
93766W        W65295   9.642  14.878  11.635
93767W        W65296  40.282  16.852  11.608
93768W        W65297  16.223   2.247   1.820
93769W        W65298  22.129  30.662  13.112
93770W        W65299   5.491  35.725   2.922
93771W        W65300  37.818  36.054   4.588
93772W        W65301  26.087   1.316   3.414
93773W        W65302  41.294  25.168  12.449
93774W        W65303  36.051  36.011  13.016
93775W        W65304  19.119   8.716   1.190
93776W        W65305  20.609  27.660   2.943
93777W        W65306  13.717  26.678  11.505
93778W        W65307  33.655  18.143   0.491
93779W        W65308  31.961  23.058   2.836
93780W        W65309  15.611   8.075   1.780
93781W        W65310  38.169  12.851   3.201
93782W        W65311  10.984  42.707  11.131
93783W        W65312  41.990  36.854  13.933
93784W        W65313  10.040  30.277   3.636
93785W        W65314   3.459  18.331   1.473
93786W        W65315   0.254  11.050   3.151
93787W        W65316  10.813  41.808   0.253
93788W        W65317  10.559   5.093  10.006
93789W        W65318  37.747  30.019  12.092
93790W        W65319  32.986  20.536  14.447
93791W        W65320  21.323  43.220  12.507
93792W        W65321  30.452  24.516  11.895
93793W        W65322   2.216   7.825   2.336
93794W        W65323   3.682   6.215   2.304
93795W        W65324   8.900   0.437   3.177
93796W        W65325   2.443  34.681   4.273
93797W        W65326   3.922  15.614   3.721
93798W        W65327  40.362  16.421  14.353
93799W        W65328  38.052  41.763  10.739
93800W        W65329   7.663  27.555   2.143
93801W        W65330  21.042  20.177  10.642
93802W        W65331  18.575  10.972   1.339
93803W        W65332  29.068  15.213  14.810
93804W        W65333  32.842  24.051   1.860
93805W        W65334  15.625  39.292  12.558
93806W        W65335  34.920  35.218  10.405
93807W        W65336  33.569  20.706  13.071
93808W        W65337  18.150  17.760   0.075
93809W        W65338  17.601   0.332   4.390
93810W        W65339   2.368  25.836  11.057
93811W        W65340  13.221  42.946  10.694
93812W        W65341  37.540   2.615  12.502
93813W        W65342  32.185  24.649  11.506
93814W        W65343  18.381  13.537   1.779
93815W        W65344   1.913   5.336   4.071
93816W        W65345  14.818  41.072   1.738
93817W        W65346  18.796  17.699   4.497
93818W        W65347   8.962  19.373   5.156
93819W        W65348  44.340  28.453  13.496
93820W        W65349  34.082   2.559   1.252
93821W        W65350  10.623  34.051   2.723
93822W        W65351  32.596   0.519  11.754
93823W        W65352  17.277   3.044  11.542
93824W        W65353  35.996   8.884  11.735
93825W        W65354  35.042  14.752   4.543
93826W        W65355  35.303  22.385   1.819
93827W        W65356   4.000  14.354   0.395
93828W        W65357  18.994  41.493  13.392
93829W        W65358   2.898  24.968  13.395
93830W        W65359   4.822  23.150  10.580
93831W        W65360  29.183  10.675   2.703
93832W        W65361  41.425  21.710   0.281
93833W        W65362  28.034  15.174  11.940
93834W        W65363  36.364  22.117  13.828
93835W        W65364  10.366   8.608   2.771
93836W        W65365   0.538  33.036  11.625
93837W        W65366   1.605   8.262  12.218
93838W        W65367  26.444  19.432  10.415
93839W        W65368  19.341  14.596  13.407
93840W        W65369  20.483   2.648   2.798
93841W        W65370  29.118  23.218  12.833
93842W        W65371  35.402  11.326   2.343
93843W        W65372  42.431  44.943   2.742
93844W        W65373  36.457  35.325  13.519
93845W        W65374  44.726  11.746  13.969
93846W        W65375  30.004  32.640  10.820
93847W        W65376  26.946  24.450  14.868
93848W        W65377  32.924  30.114  12.538
93849W        W65378  38.494  27.413  13.519
93850W        W65379  15.243  16.651   4.815
93851W        W65380   3.869  36.889  13.041
93852W        W65381  17.991   3.665  12.880
93853W        W65382  12.929  39.418   4.168
93854W        W65383  11.380  14.578  14.887
93855W        W65384   9.579  30.549   3.835
93856W        W65385  31.061  31.382   4.550
93857W        W65386  42.907  19.058  12.066
93858W        W65387  34.296   7.710   2.199
93859W        W65388  34.705  21.401   5.143
93860W        W65389  20.793  25.267   4.134
93861W        W65390  27.960  15.979  13.452
93862W        W65391  39.868  41.429  12.344
93863W        W65392  43.986  29.094   1.327
93864W        W65393   7.029  37.466  12.831
93865W        W65394  28.095  10.994  11.490
93866W        W65395   7.469  10.499  12.093
93867W        W65396   8.808  39.613  14.100
93868W        W65397  26.730  42.073  11.155
93869W        W65398   3.220   9.217   0.908
93870W        W65399  36.776  18.623   4.748
93871W        W65400   0.950  18.248  12.969
93872W        W65401   8.676   0.455  11.633
93873W        W65402  17.662  35.774   4.627
93874W        W65403   9.725  23.500   0.838
93875W        W65404  27.892   5.285  12.796
93876W        W65405  41.610  38.870  14.385
93877W        W65406  43.490   8.088  13.450
93878W        W65407  31.818   8.108  11.907
93879W        W65408  23.967  28.436  13.516
93880W        W65409  41.420  35.477  14.001
93881W        W65410  39.063  43.308   2.783
93882W        W65411  19.183  10.914   0.900
93883W        W65412  44.945   4.830  12.271
93884W        W65413  14.004  10.625  13.109
93885W        W65414  24.823   1.485   1.031
93886W        W65415  34.525   8.860  13.772
93887W        W65416  14.684  28.204  14.408
93888W        W65417   9.256   6.325   3.281
93889W        W65418   9.857  11.376  13.330
93890W        W65419  14.913  10.236   1.138
93891W        W65420  41.073  19.706  10.369
93892W        W65421  14.725  19.198   1.208
93893W        W65422  16.476  36.401  11.580
93894W        W65423  13.762   5.634   0.453
93895W        W65424  16.695  27.489  13.547
93896W        W65425  40.811   1.022   1.166
93897W        W65426   8.275  43.870  12.133
93898W        W65427  12.163   8.849  11.811
93899W        W65428  39.152  28.188   1.443
93900W        W65429  43.066  38.473   0.009
93901W        W65430  10.083  12.382   3.856
93902W        W65431  27.193  19.979  12.850
93903W        W65432  27.404  41.535   0.456
93904W        W65433  19.031  42.792   1.286
93905W        W65434  29.600  41.691  10.249
93906W        W65435  11.067  21.100   3.800
93907W        W65436  29.759  21.126   0.794
93908W        W65437  42.348   0.048   1.220
93909W        W65438   8.751  12.747  10.672
93910W        W65439  24.713   3.168  11.499
93911W        W65440  41.135  44.319   0.173
93912W        W65441  21.137  20.999  14.675
93913W        W65442  16.609  42.560  10.388
93914W        W65443  23.447   7.688  13.358
93915W        W65444  32.993  30.284   2.062
93916W        W65445  39.074   0.760   3.209
93917W        W65446   0.351   7.110  13.872
93918W        W65447  44.288  36.481  13.123
93919W        W65448  19.720   8.508  10.693
93920W        W65449   1.835  39.995  12.240
93921W        W65450  23.430  28.679   1.405
93922W        W65451  44.835  13.326   1.375
93923W        W65452  38.465  44.927  14.472
93924W        W65453  38.589   3.523  12.423
93925W        W65454   2.903  12.114  14.864
93926W        W65455  15.576  44.493   0.941
93927W        W65456   6.135  34.677  11.148
93928W        W65457   0.316  41.878   4.457
93929W        W65458  25.794  24.682  11.581
93930W        W65459  42.603  22.098  12.455
93931W        W65460  38.998  29.495  11.966
93932W        W65461  19.673   4.829   1.539
93933W        W65462  13.677   9.744   4.764
93934W        W65463  19.960  41.239  13.519
93935W        W65464  14.846  19.796  12.496
93936W        W65465  40.500  14.733   3.912
93937W        W65466   8.097  38.982  11.475
93938W        W65467  17.048  18.157   2.701
93939W        W65468  25.796  16.386  11.952
93940W        W65469  39.893  44.527  12.143
93941W        W65470  38.885  19.329   1.365
93942W        W65471  24.656   0.404   4.567
93943W        W65472   4.688  18.748  12.190
93944W        W65473   2.940  11.733   3.725
93945W        W65474  22.766  26.511   2.218
93946W        W65475   9.822  21.993  10.484
93947W        W65476  14.781  16.916   0.385
93948W        W65477  29.936  43.459  11.686
93949W        W65478  28.575  26.925   2.834
93950W        W65479  33.993  12.686  13.972
93951W        W65480  17.129  21.438   2.742
93952W        W65481  20.712  37.591   1.373
93953W        W65482   8.911  30.195  12.618
93954W        W65483  29.925  39.780  13.348
93955W        W65484   6.046  29.053  13.373
93956W        W65485  36.458  34.007  13.848
93957W        W65486   1.990  40.441   4.284
93958W        W65487  43.273  38.525  11.617
93959W        W65488  32.512   6.305   3.058
93960W        W65489  43.783  16.091  13.918
93961W        W65490  14.467  20.565  13.606
93962W        W65491  31.410  28.453  12.637
93963W        W65492  39.022  10.827  14.121
93964W        W65493  14.704  34.023  12.840
93965W        W65494  23.613  25.703   2.561
93966W        W65495  42.800  34.926   0.344
93967W        W65496  34.669  22.302   4.924
93968W        W65497  25.369  11.340   3.384
93969W        W65498  29.835  29.108   4.291
93970W        W65499   2.622  34.288  12.930
93971W        W65500  41.391  35.523   1.665
93972W        W65501  40.827  16.175   0.110
93973W        W65502  11.933  31.467   2.440
93974W        W65503  10.201  44.364   1.183
93975W        W65504  11.596  15.342  13.472
93976W        W65505  42.526  26.098   0.119
93977W        W65506  19.150  26.596  12.088
93978W        W65507  26.911  40.447  10.757
93979W        W65508   5.703   4.646   4.098
93980W        W65509  13.823  44.501  13.767
93981W        W65510   5.802   3.827  12.270
93982W        W65511  43.401  32.900   3.794
93983W        W65512   1.312  28.964   2.919
93984W        W65513  13.845  32.798  13.346
93985W        W65514  24.179  16.548  13.450
93986W        W65515   0.378  42.459  11.762
93987W        W65516  20.942   2.876   2.755
93988W        W65517  23.102  15.596   0.332
93989W        W65518  17.634  31.417   2.733
93990W        W65519  40.445  32.690  12.349
93991W        W65520   4.223  36.077   2.585
93992W        W65521  11.604  31.070   2.295
93993W        W65522  29.332   9.918   3.840
93994W        W65523  22.680  19.539  10.142
93995W        W65524  43.962  43.601   0.656
93996W        W65525  14.718  16.637   1.754
93997W        W65526   9.784  31.318  12.349
93998W        W65527  16.872  16.386   0.713
93999W        W65528  40.040  43.914   0.978
94000W        W65529  42.532  14.320   4.183
94001W        W65530  19.764  22.069   2.465
94002W        W65531  28.644  22.119  14.759
94003W        W65532  33.125  41.789  14.008
94004W        W65533   1.920   7.334   0.626
94005W        W65534  40.773   7.082   2.279
94006W        W65535   4.291   6.257  10.749
94007W        W65536  38.050  19.635   4.202
94008W        W65537   3.743  13.551   4.382
94009W        W65538  18.720  23.762   4.797
94010W        W65539  14.509   3.368   4.674
94011W        W65540  42.895  23.937   3.752
94012W        W65541  40.705  30.397  13.956
94013W        W65542   3.213  36.957  10.310
94014W        W65543  41.973   3.492  14.311
94015W        W65544   3.316  23.129  11.952
94016W        W65545  37.632  20.708   0.966
94017W        W65546   4.932  17.537  14.796
94018W        W65547  12.263   4.456  10.800
94019W        W65548  13.892  23.121   3.698
94020W        W65549  27.016   1.917  11.827
94021W        W65550  44.935  17.380  13.947
94022W        W65551   9.899  42.698   3.379
94023W        W65552  12.875  40.952  10.732
94024W        W65553  34.154  18.810   4.511
94025W        W65554  11.360  19.037  12.510
94026W        W65555   8.816  33.586  14.751
94027W        W65556  14.352  30.135   4.160
94028W        W65557  15.862  30.318  13.405
94029W        W65558  32.746  23.050   3.478
94030W        W65559  21.202  14.090   0.221
94031W        W65560  31.489  19.331  14.006
94032W        W65561  32.485   7.471   4.524
94033W        W65562  22.249   0.215  12.253
94034W        W65563  23.199   1.528  13.355
94035W        W65564   3.907   7.366  13.852
94036W        W65565  24.980  17.458  11.524
94037W        W65566  30.542  35.105  14.535
94038W        W65567  26.483   0.776   3.658
94039W        W65568  37.622  35.038   2.461
94040W        W65569   1.361   5.831   0.831
94041W        W65570   9.770   7.290   4.703
94042W        W65571  43.362  14.251   1.262
94043W        W65572  29.789  22.551  14.491
94044W        W65573  37.570  32.573  12.719
94045W        W65574  11.029  34.525  10.930
94046W        W65575  24.942  39.458  14.026
94047W        W65576  13.635   6.912   4.711
94048W        W65577  30.629  23.571  12.235
94049W        W65578  30.717  28.197  12.408
94050W        W65579   5.033   6.205   1.313
94051W        W65580  20.765  39.532   2.352
94052W        W65581  42.914  31.936   3.765
94053W        W65582  39.420   0.017   2.636
94054W        W65583  36.572  40.758   3.803
94055W        W65584   7.306  39.870  13.589
94056W        W65585  40.742   6.296  10.817
94057W        W65586   9.673  33.996  13.594
94058W        W65587  44.927  18.990   0.784
94059W        W65588  16.294  29.948  12.120
94060W        W65589  24.230  14.283   1.980
94061W        W65590  15.677   9.221   4.482
94062W        W65591  35.494  32.862   1.254
94063W        W65592  27.747   0.137   4.286
94064W        W65593  25.684  31.609   3.447
94065W        W65594  13.314  15.787  12.674
94066W        W65595  25.990  19.274   1.248
94067W        W65596  15.125  42.670   4.136
94068W        W65597  16.882  10.828   2.802
94069W        W65598  18.702  22.554  11.891
94070W        W65599  20.614   1.394  12.501
94071W        W65600  11.955  33.532   1.098
94072W        W65601  25.017   6.425  11.238
94073W        W65602  15.203  34.153   3.069
94074W        W65603   6.049  17.268   5.307
94075W        W65604  40.036  37.873  14.543
94076W        W65605  25.940  18.714  12.945
94077W        W65606  35.837  40.231   4.125
94078W        W65607   8.778  14.689   4.371
94079W        W65608   1.447  32.459   1.362
94080W        W65609  36.848  11.691  12.141
94081W        W65610  40.230  11.613  10.341
94082W        W65611  31.000  19.513   4.450
94083W        W65612  36.923  22.292  13.028
94084W        W65613  43.317  15.979  13.055
94085W        W65614   2.754  42.486  14.353
94086W        W65615  23.542  39.376  13.738
94087W        W65616  17.143  17.697   0.925
94088W        W65617  23.148  10.745  12.729
94089W        W65618  12.404  36.616  14.915
94090W        W65619  14.473  31.477   1.369
94091W        W65620  11.786  16.710   4.123
94092W        W65621  30.139  12.355  12.410
94093W        W65622  36.085  38.540   1.196
94094W        W65623  17.473  13.266  11.265
94095W        W65624   9.784  17.190  10.435
94096W        W65625  36.480   7.790   4.275
94097W        W65626  16.853  13.761  13.996
94098W        W65627  14.994   1.241   1.155
94099W        W65628  32.873   9.172   2.284
94100W        W65629  43.010  29.294  14.705
94101W        W65630  20.739  32.682   3.408
94102W        W65631  30.235   1.038  12.561
94103W        W65632  40.823  33.686   3.259
94104W        W65633  25.469   7.943  13.293
94105W        W65634   8.349  10.103   1.492
94106W        W65635   9.403  41.658   0.726
94107W        W65636   8.661  24.927  10.671
94108W        W65637  25.567  25.009   3.790
94109W        W65638  35.720  24.992   4.762
94110W        W65639  34.715   9.922   3.247
94111W        W65640  30.344  39.210  14.410
94112W        W65641  32.830   2.089  12.000
94113W        W65642   6.214   5.438  13.295
94114W        W65643  15.496  44.855   1.541
94115W        W65644  30.200  18.344  14.918
94116W        W65645   0.298  12.264  14.325
94117W        W65646  31.654   5.891  11.219
94118W        W65647  36.017  11.072   2.330
94119W        W65648   2.730  19.306  13.834
94120W        W65649  41.656  23.335   4.166
94121W        W65650  40.378  25.289   5.054
94122W        W65651   3.735  19.112  12.500
94123W        W65652   4.968  26.928  10.998
94124W        W65653   1.288   0.943   3.733
94125W        W65654  20.146  35.341   0.023
94126W        W65655  18.696  27.740   1.135
94127W        W65656  25.557  23.668   0.863
94128W        W65657  44.803  37.127   1.742
94129W        W65658  32.950  39.154  13.229
94130W        W65659   7.624  43.777   1.241
94131W        W65660  38.368  32.468  12.064
94132W        W65661  23.058  31.498  12.557
94133W        W65662  29.032   5.964  13.413
94134W        W65663  14.980  35.311   1.935
94135W        W65664  15.992   1.237  12.570
94136W        W65665  23.960  23.641   3.694
94137W        W65666  36.348   3.356  14.331
94138W        W65667  15.710   7.060  11.084
94139W        W65668  19.075  39.364   1.194
94140W        W65669  36.111   6.825   1.434
94141W        W65670   2.985  33.446  14.685
94142W        W65671   4.105   3.182   3.301
94143W        W65672   8.264  38.001  12.846
94144W        W65673  42.624  36.444   2.482
94145W        W65674   0.969  12.775   3.396
94146W        W65675  27.744  42.389  10.201
94147W        W65676  35.437  44.345  11.013
94148W        W65677   0.735  17.833  12.730
94149W        W65678  27.984   5.350  10.320
94150W        W65679  23.500  21.748  10.712
94151W        W65680   3.449  27.427  11.466
94152W        W65681  10.941  25.133  13.510
94153W        W65682  29.073  41.869   2.604
94154W        W65683   6.389   3.679  11.612
94155W        W65684  35.606  20.707  13.842
94156W        W65685  14.636  13.952  14.611
94157W        W65686  22.123  34.273   0.976
94158W        W65687  30.379  26.574   2.302
94159W        W65688  23.155  40.289  13.897
94160W        W65689  26.667  17.496  11.958
94161W        W65690  41.540  24.465   4.817
94162W        W65691  27.153  22.983  14.911
94163W        W65692  43.926  40.027   4.692
94164W        W65693  32.784  10.100   2.251
94165W        W65694  24.228  37.811  12.123
94166W        W65695  20.141  11.414   2.471
94167W        W65696  24.472  10.032  10.724
94168W        W65697   9.329  22.302   2.351
94169W        W65698  13.692  28.707   3.816
94170W        W65699  30.706  41.487   3.106
94171W        W65700  23.093  32.931  14.324
94172W        W65701  40.613  19.583  13.837
94173W        W65702  40.451   7.576   9.596
94174W        W65703   9.738  19.636  11.172
94175W        W65704   8.098  20.531   4.106
94176W        W65705  34.109  27.993   4.235
94177W        W65706  42.489  40.161   1.402
94178W        W65707  16.389  28.634  12.632
94179W        W65708  25.973  25.755  13.445
94180W        W65709  12.348  44.705  12.097
94181W        W65710   4.193  29.482   2.807
94182W        W65711  14.625   3.460   4.173
94183W        W65712   2.182  44.827  13.436
94184W        W65713  42.416  40.030   0.297
94185W        W65714  41.047   4.550   2.547
94186W        W65715  12.714  43.566  10.671
94187W        W65716   2.809   4.789   4.266
94188W        W65717  24.467  11.252  12.925
94189W        W65718   1.448  15.165   2.471
94190W        W65719  17.197  28.025   4.700
94191W        W65720  19.344   5.572  14.061
94192W        W65721  24.805   9.276   0.204
94193W        W65722  40.809  37.236   3.241
94194W        W65723   1.451  11.606  14.835
94195W        W65724  33.967   2.680  13.417
94196W        W65725  34.255  36.811  13.273
94197W        W65726  39.472  26.119   0.832
94198W        W65727  22.799  35.564   0.932
94199W        W65728  25.748  32.825  11.134
94200W        W65729  22.821  33.891  10.707
94201W        W65730  32.246  15.113   2.275
94202W        W65731   8.881   7.813   2.280
94203W        W65732  24.089  13.541   2.744
94204W        W65733   7.720  19.513   5.362
94205W        W65734  24.590  15.617  12.089
94206W        W65735  22.600  24.529   3.610
94207W        W65736   3.986  34.573   3.859
94208W        W65737  38.042  11.607   1.699
94209W        W65738   4.739  30.569   3.236
94210W        W65739  28.939  40.060  11.091
94211W        W65740   0.802  21.286   4.592
94212W        W65741  25.097  33.059  12.867
94213W        W65742  38.466  18.677   3.239
94214W        W65743  40.347  44.368   9.964
94215W        W65744  41.860  42.765   4.221
94216W        W65745  40.385   2.704   4.073
94217W        W65746  35.117  43.403   4.022
94218W        W65747  18.334  29.494   1.702
94219W        W65748  24.997  26.447   0.220
94220W        W65749  14.110  34.442   1.560
94221W        W65750  21.546  18.764   0.904
94222W        W65751  32.867   5.758   0.302
94223W        W65752  19.742   8.307  13.106
94224W        W65753  43.903  40.705  10.826
94225W        W65754  27.329   4.957   0.370
94226W        W65755  30.908  30.389  13.986
94227W        W65756  44.851  13.159  11.603
94228W        W65757  44.731  33.850  12.125
94229W        W65758  37.044  13.270  11.215
94230W        W65759   7.475  21.449   0.320
94231W        W65760  12.652  38.140   3.645
94232W        W65761  24.341  43.689  12.032
94233W        W65762  44.388  19.044   3.621
94234W        W65763  18.663  26.992   2.805
94235W        W65764   8.202  11.991   2.017
94236W        W65765   7.235  18.989   1.884
94237W        W65766  37.261  23.869  10.316
94238W        W65767  39.779   1.606   1.816
94239W        W65768  41.647  23.582   4.624
94240W        W65769  20.892  37.068  11.723
94241W        W65770  32.557  23.814   4.490
94242W        W65771   4.681  21.016   2.262
94243W        W65772  20.733   2.297   0.452
94244W        W65773  28.935  35.816  14.293
94245W        W65774  32.614   3.838  11.886
94246W        W65775  10.314  39.431  12.818
94247W        W65776   0.514  38.518   0.696
94248W        W65777  31.198  31.910   0.516
94249W        W65778  43.347  17.546   3.764
94250W        W65779  23.760  26.737   2.327
94251W        W65780  34.449  44.519   3.678
94252W        W65781  27.418  17.931  12.075
94253W        W65782   9.119   6.865  10.724
94254W        W65783   6.570  18.907   4.420
94255W        W65784  44.501  38.300  13.866
94256W        W65785   7.884   2.396   2.615
94257W        W65786  25.508  16.828   3.747
94258W        W65787  37.538  39.551  14.414
94259W        W65788  35.594  25.046  12.667
94260W        W65789  28.606  10.190   1.278
94261W        W65790  27.134   2.335   3.170
94262W        W65791  13.848  21.627  13.878
94263W        W65792  27.536  14.076  14.359
94264W        W65793  32.554  21.225  10.349
94265W        W65794  43.429   1.361   3.929
94266W        W65795  23.257   4.612  13.777
94267W        W65796  23.448  35.111  14.563
94268W        W65797  25.424  41.311   2.762
94269W        W65798  20.345  35.972   3.709
94270W        W65799  31.560  16.796  13.349
94271W        W65800  22.032  30.645   0.458
94272W        W65801  24.460  14.668  12.535
94273W        W65802   2.818   8.182  12.935
94274W        W65803  22.396  20.704  11.650
94275W        W65804  19.107  36.373   3.875
94276W        W65805  28.502  40.044   4.098
94277W        W65806  17.256  14.228  12.659
94278W        W65807  22.583   2.306   4.862
94279W        W65808   5.939  33.431   1.224
94280W        W65809  26.044  25.667   1.330
94281W        W65810  24.037  34.604   3.239
94282W        W65811   2.877  23.780   2.847
94283W        W65812  18.704  19.695   3.873
94284W        W65813  37.430  15.977  12.514
94285W        W65814  21.217  13.609  10.370
94286W        W65815  39.349  28.630  10.787
94287W        W65816  43.056  14.327   4.115
94288W        W65817  15.336  18.314  13.051
94289W        W65818  34.336  19.030   4.074
94290W        W65819  11.288  11.709  11.072
94291W        W65820  21.671  11.865  12.857
94292W        W65821  35.478  12.897  14.390
94293W        W65822   0.393  11.351   1.777
94294W        W65823  33.491   8.665   1.960
94295W        W65824  12.757   4.941  13.448
94296W        W65825  38.320   3.373  12.003
94297W        W65826   3.951   0.740  13.980
94298W        W65827  40.799  44.760   4.208
94299W        W65828  25.231  42.578  12.492
94300W        W65829   1.759  33.676   2.538
94301W        W65830  24.819  26.212   1.829
94302W        W65831  23.441   6.529  13.397
94303W        W65832  33.767  37.983   2.266
94304W        W65833   4.209   3.795  11.195
94305W        W65834  14.105  20.182  12.058
94306W        W65835  41.484  35.523  12.918
94307W        W65836  39.925  13.631  13.578
94308W        W65837   0.588  22.765  14.470
94309W        W65838   8.446  44.235   4.917
94310W        W65839  20.573  20.345   3.770
94311W        W65840  43.367  41.997  13.393
94312W        W65841  15.104  33.087  11.088
94313W        W65842  13.787   1.774   3.219
94314W        W65843  22.356  32.209  12.181
94315W        W65844  17.634  21.100  13.764
94316W        W65845  17.159  23.648  11.118
94317W        W65846  39.326  26.104  13.540
94318W        W65847  25.226   9.179   3.707
94319W        W65848  41.328  19.152   3.311
94320W        W65849  34.834   8.279  14.305
94321W        W65850   7.007   7.614  14.275
94322W        W65851  27.477   0.672   1.765
94323W        W65852  21.226   2.371   0.699
94324W        W65853   7.315   3.706   3.202
94325W        W65854  31.012  12.008   1.844
94326W        W65855  43.080  21.611  13.602
94327W        W65856  21.787  37.589   2.421
94328W        W65857  34.635  41.031  12.766
94329W        W65858  39.041   8.493  12.024
94330W        W65859  32.373  13.258  12.978
94331W        W65860  36.832  20.543   1.861
94332W        W65861  15.182  27.706   2.216
94333W        W65862  30.162  34.819   0.845
94334W        W65863   0.427  30.253  12.486
94335W        W65864   4.760  33.324  10.484
94336W        W65865  25.791  24.288   0.418
94337W        W65866   7.338  21.578   2.886
94338W        W65867  36.952   5.897   0.935
94339W        W65868  24.691  36.159   0.304
94340W        W65869  15.641  40.402  13.985
94341W        W65870  15.899  18.165   9.921
94342W        W65871  20.685  37.351  11.344
94343W        W65872  39.367  43.946  12.823
94344W        W65873  32.882  31.708   2.398
94345W        W65874   9.175  15.740   3.297
94346W        W65875  44.232  10.914  14.238
94347W        W65876  29.470  25.433   2.844
94348W        W65877  24.711  27.503  10.634
94349W        W65878  38.259  29.613  13.464
94350W        W65879  44.608   4.370  14.323
94351W        W65880  35.553  25.068   4.266
94352W        W65881  22.423  14.158   1.547
94353W        W65882  27.715  25.170   1.393
94354W        W65883  16.255  10.737   5.444
94355W        W65884  28.644   1.552   4.868
94356W        W65885  15.160  37.974  11.358
94357W        W65886  30.067   6.631  14.867
94358W        W65887  29.182   2.728  13.910
94359W        W65888  17.316  16.271  12.450
94360W        W65889  33.033  39.513  12.241
94361W        W65890  17.119  19.258  13.317
94362W        W65891  20.092  30.679   0.190
94363W        W65892   8.025  19.739   1.890
94364W        W65893  28.887  33.589   2.911
94365W        W65894  32.019  11.813   0.751
94366W        W65895   9.107   1.872  12.022
94367W        W65896   1.786   2.268  10.546
94368W        W65897  25.493   7.047   2.188
94369W        W65898  20.005  35.370   1.796
94370W        W65899  13.899   6.559  11.667
94371W        W65900  32.134  16.748  11.593
94372W        W65901  34.707  13.588  13.439
94373W        W65902  24.396  39.499   2.458
94374W        W65903  42.937  17.847  14.947
94375W        W65904  25.402   9.536  13.353
94376W        W65905  35.036  34.952   3.639
94377W        W65906  44.490  40.368  14.795
94378W        W65907  41.328   0.810   3.874
94379W        W65908   0.297  16.343   1.292
94380W        W65909  16.825   7.243   3.175
94381W        W65910  16.264   0.813   0.924
94382W        W65911  38.539  15.134   2.418
94383W        W65912   3.253  34.885  12.471
94384W        W65913  11.101   1.181  14.933
94385W        W65914   8.662  11.273  11.219
94386W        W65915  30.883   7.682  11.457
94387W        W65916   1.002  30.343   1.390
94388W        W65917   5.355  31.554  11.577
94389W        W65918  11.058  33.851  14.420
94390W        W65919  38.167  22.475  13.456
94391W        W65920  40.856  31.234  13.533
94392W        W65921  42.358  25.526   3.845
94393W        W65922  44.350  22.603  14.932
94394W        W65923  44.430  15.488  13.800
94395W        W65924  30.142  30.145   0.437
94396W        W65925  18.160  43.399   2.523
94397W        W65926  11.687  42.348   1.335
94398W        W65927  31.976  33.930   2.408
94399W        W65928  35.939   2.982  13.473
94400W        W65929  16.918  19.565  11.096
94401W        W65930  24.564  20.264  14.297
94402W        W65931  40.553  40.465  10.740
94403W        W65932  40.507  16.885   1.775
94404W        W65933  31.909  19.913  10.659
94405W        W65934  25.131  21.714  13.483
94406W        W65935  29.370  25.305  11.143
94407W        W65936  11.259   9.982  10.758
94408W        W65937  15.697   6.427   3.779
94409W        W65938  22.006   3.313  11.661
94410W        W65939  42.883  44.336  12.128
94411W        W65940   1.337   6.971  14.487
94412W        W65941  18.121  20.043   0.056
94413W        W65942  34.517  21.751   2.377
94414W        W65943  36.523  25.386  10.335
94415W        W65944  39.111  41.988  10.720
94416W        W65945  27.936  16.277   2.411
94417W        W65946  29.618  42.233   0.281
94418W        W65947  32.204  32.658  14.266
94419W        W65948   4.648  15.141   0.193
94420W        W65949   5.329  22.246  10.734
94421W        W65950  18.756  37.136   0.930
94422W        W65951   5.871   0.747  13.850
94423W        W65952  25.068   9.370   3.230
94424W        W65953   3.020  20.507   3.141
94425W        W65954  39.415  26.257   2.325
94426W        W65955   7.052  16.767   0.979
94427W        W65956   9.191  32.405  11.979
94428W        W65957  15.081   5.878   4.668
94429W        W65958   3.964  17.091  14.081
94430W        W65959  40.639  39.881  11.924
94431W        W65960  24.385   5.656   3.669
94432W        W65961   3.330  14.892  12.418
94433W        W65962  18.315   1.913   2.906
94434W        W65963  20.188  31.878   3.155
94435W        W65964  14.701  11.675   1.742
94436W        W65965  13.591  22.704   1.704
94437W        W65966  14.139  34.004   4.841
94438W        W65967  10.784  14.842  14.018
94439W        W65968  17.756  40.878  10.723
94440W        W65969  16.004   9.162   0.700
94441W        W65970  10.708  15.026   1.619
94442W        W65971   5.415  41.464  11.200
94443W        W65972  11.822   7.744  13.420
94444W        W65973  41.494  41.497   2.393
94445W        W65974  25.526   6.374   3.760
94446W        W65975   2.508  12.230   4.089
94447W        W65976  33.799  25.842   3.100
94448W        W65977  15.644  43.871  10.821
94449W        W65978  25.550  40.903  14.222
94450W        W65979  33.482  27.081  14.411
94451W        W65980   8.390  26.581   4.230
94452W        W65981  32.570  35.051  12.032
94453W        W65982  22.496   8.213  14.872
94454W        W65983  27.515  44.414   2.972
94455W        W65984  44.643  32.113   1.641
94456W        W65985  18.526  12.503   2.783
94457W        W65986  15.101  44.330  11.703
94458W        W65987  40.410  27.950  12.465
94459W        W65988  30.873   4.316  11.316
94460W        W65989  28.118  11.841   3.668
94461W        W65990  22.530  15.173   1.342
94462W        W65991   7.021  25.212   1.492
94463W        W65992  32.966  41.267   0.789
94464W        W65993  35.086  41.038   3.296
94465W        W65994  21.324  43.921   3.289
94466W        W65995  29.994   5.911   2.825
94467W        W65996  17.826  16.654  14.574
94468W        W65997  28.726   2.204  11.463
94469W        W65998  17.618  42.375  11.663
94470W        W65999  28.990  16.746   3.767
94471W        W66000   3.216  19.163  12.545
94472W        W66001  37.830  21.267   0.543
94473W        W66002  15.204   9.956   1.808
94474W        W66003  21.047  36.148  13.903
94475W        W66004  44.613   8.156   2.845
94476W        W66005  35.398  37.841   4.848
94477W        W66006  38.450  36.900  14.443
94478W        W66007  26.245  16.768   0.762
94479W        W66008   8.210   8.688  14.395
94480W        W66009  40.899  22.144  14.475
94481W        W66010   1.080  30.838   0.153
94482W        W66011  38.477   7.726   3.194
94483W        W66012  15.820  42.455  10.743
94484W        W66013  33.516  18.143  10.652
94485W        W66014  40.356  42.515  13.485
94486W        W66015   3.765  25.985   4.532
94487W        W66016  14.005  40.497  13.867
94488W        W66017   3.244  30.887  14.926
94489W        W66018  15.235  28.487  14.908
94490W        W66019  19.835  24.720  11.656
94491W        W66020  41.311  43.437  12.558
94492W        W66021  33.524   9.108   3.400
94493W        W66022   3.575  37.005   3.643
94494W        W66023   0.469  16.117  14.910
94495W        W66024  44.099  38.833  12.579
94496W        W66025  21.215   2.551  13.755
94497W        W66026  12.834  29.360  12.969
94498W        W66027   5.613  35.785   2.378
94499W        W66028  29.596  38.911  10.772
94500W        W66029  30.535   0.368  11.195
94501W        W66030  15.798   0.921  14.452
94502W        W66031  35.339  10.560  14.241
94503W        W66032  43.300   1.461  13.421
94504W        W66033   7.270   1.909  11.421
94505W        W66034  31.240  35.960   5.048
94506W        W66035   9.473   6.908  13.862
94507W        W66036  33.418  10.545   3.141
94508W        W66037  32.440  31.712   1.234
94509W        W66038  14.747  27.632  11.908
94510W        W66039  18.785  34.014   1.756
94511W        W66040  41.546   5.666  13.378
94512W        W66041  36.386   7.696  11.191
94513W        W66042  31.628   6.954  14.438
94514W        W66043  16.109  42.078   3.760
94515W        W66044  36.571  44.322  12.934
94516W        W66045   2.422  11.821  13.050
94517W        W66046   9.135   2.648   1.203
94518W        W66047   7.379  15.641   3.755
94519W        W66048  32.091   0.224  13.816
94520W        W66049  40.575   8.869   2.300
94521W        W66050  13.242  32.317   1.181
94522W        W66051  35.873   1.203   0.851
94523W        W66052   1.882  23.979  13.738
94524W        W66053  44.921   7.246   2.442
94525W        W66054  41.956   0.058  14.478
94526W        W66055   8.821  20.557   4.828
94527W        W66056  20.243   3.400  14.464
94528W        W66057   7.437  39.036   4.495
94529W        W66058  25.530  24.170   2.704
94530W        W66059   0.762  39.618  12.890
94531W        W66060  19.550  12.869   2.848
94532W        W66061  22.271  37.468   2.543
94533W        W66062  25.014  19.570  13.787
94534W        W66063  16.132  40.329  11.526
94535W        W66064   6.645  11.827  14.563
94536W        W66065  17.374  13.665   1.731
94537W        W66066  40.455  37.502  10.099
94538W        W66067  23.070  22.570  11.389
94539W        W66068  18.986   8.575  11.262
94540W        W66069  13.728  18.118   2.672
94541W        W66070  44.284  42.396   3.734
94542W        W66071  41.001   0.329  12.752
94543W        W66072  34.328  18.251  14.880
94544W        W66073  24.908  34.149  12.122
94545W        W66074  41.475  11.539  13.433
94546W        W66075  15.493  10.681   3.122
94547W        W66076  32.212  23.448   3.788
94548W        W66077  28.968   3.499   1.311
94549W        W66078  21.126  40.226   0.392
94550W        W66079  35.616   6.637   1.428
94551W        W66080  31.520   5.832   0.455
94552W        W66081   2.678   7.381   4.555
94553W        W66082  38.101  20.683  11.604
94554W        W66083  44.456  32.662  13.369
94555W        W66084  31.090  39.041   1.439
94556W        W66085  12.229  35.991  12.512
94557W        W66086  39.432   8.596   1.725
94558W        W66087  25.645  33.784  12.898
94559W        W66088  38.137   0.892  10.573
94560W        W66089  27.399  27.075   1.222
94561W        W66090  11.320  12.974  14.919
94562W        W66091  18.089  43.272   0.184
94563W        W66092  19.043  35.792   2.621
94564W        W66093   1.480  13.359   2.676
94565W        W66094  42.087  18.195  10.473
94566W        W66095   4.483  22.089   3.449
94567W        W66096  20.851   4.871   0.266
94568W        W66097  24.006  36.805   0.430
94569W        W66098  44.841   9.969   3.593
94570W        W66099  40.933  13.666   3.265
94571W        W66100  17.864  31.425   1.294
94572W        W66101  37.033  36.992   2.347
94573W        W66102  26.663   5.578   2.399
94574W        W66103   1.786   7.478  11.091
94575W        W66104  36.333  41.861  13.640
94576W        W66105  44.277  11.550   2.306
94577W        W66106  42.331  27.079  11.803
94578W        W66107   0.718   4.960  11.591
94579W        W66108  16.334  28.536   2.283
94580W        W66109  40.462  22.710   4.528
94581W        W66110  11.792  42.831  11.069
94582W        W66111  37.049  20.556   3.546
94583W        W66112  29.007  29.701   3.644
94584W        W66113  36.401  16.501  14.880
94585W        W66114  44.620  17.446  10.167
94586W        W66115  30.496  37.955  11.091
94587W        W66116  27.843  30.452  11.582
94588W        W66117  12.779  29.916   3.435
94589W        W66118  24.384  19.500   3.677
94590W        W66119  37.719  28.348   4.499
94591W        W66120   1.728   8.131   0.444
94592W        W66121  25.798  33.489  11.293
94593W        W66122  32.125  18.019   1.368
94594W        W66123  14.195   1.262  12.338
94595W        W66124  21.730  33.136   0.311
94596W        W66125   4.154  10.779  13.447
94597W        W66126   5.459   7.452  12.480
94598W        W66127  20.992  12.591   1.352
94599W        W66128  10.192  32.847  14.850
94600W        W66129   2.541  29.611   3.889
94601W        W66130  27.957   5.964   1.186
94602W        W66131  29.637  23.112   3.520
94603W        W66132   9.485  31.146   4.787
94604W        W66133  30.013   7.436   2.702
94605W        W66134  41.672   3.965   2.104
94606W        W66135   2.127  42.681   5.049
94607W        W66136  37.057   5.316  13.725
94608W        W66137  26.641   6.099   2.145
94609W        W66138  35.475  32.190  11.524
94610W        W66139  41.501  19.145  11.426
94611W        W66140  18.355  13.886   0.242
94612W        W66141   4.213  29.639  13.592
94613W        W66142   7.642  32.935   3.281
94614W        W66143  11.407   4.961  12.719
94615W        W66144  18.348   3.208  10.650
94616W        W66145  20.008  43.273  10.460
94617W        W66146  14.007  31.156   3.333
94618W        W66147  44.718  17.750   0.763
94619W        W66148   2.781  43.795   3.307
94620W        W66149  40.266  20.101   3.314
94621W        W66150  20.042  31.511   3.603
94622W        W66151  31.383  12.861  14.726
94623W        W66152   3.149  36.056  11.439
94624W        W66153  21.315  37.637  14.940
94625W        W66154   5.977  38.427   0.932
94626W        W66155  41.314   5.330  10.535
94627W        W66156  29.530   0.418   0.866
94628W        W66157  41.044  30.911   0.452
94629W        W66158  10.592  41.543   4.888
94630W        W66159   5.826   3.931   2.269
94631W        W66160  37.179   0.756   1.644
94632W        W66161  44.734  41.232   4.655
94633W        W66162  30.169   3.924   0.658
94634W        W66163  28.590  38.906  14.764
94635W        W66164  21.731  14.743   2.588
94636W        W66165  11.255  44.024   1.804
94637W        W66166  15.907   8.711  11.559
94638W        W66167   2.451  34.170   4.107
94639W        W66168  13.298  38.920   2.253
94640W        W66169  22.821  20.337   1.242
94641W        W66170  21.617  41.982  12.133
94642W        W66171  21.337  31.738  11.491
94643W        W66172   9.486  28.546  11.092
94644W        W66173  19.625  11.804  14.933
94645W        W66174  30.559  11.603  12.627
94646W        W66175  44.034  22.722  13.962
94647W        W66176  16.673  36.863  10.718
94648W        W66177  11.892  36.199   5.111
94649W        W66178  20.703  24.090  10.686
94650W        W66179  22.170  35.569   4.187
94651W        W66180  25.789  35.648  14.333
94652W        W66181  34.575  17.302  12.512
94653W        W66182   8.596  39.969   4.420
94654W        W66183  39.864  15.229   0.440
94655W        W66184  36.045  18.422   1.791
94656W        W66185   5.361  20.630  10.715
94657W        W66186  15.804  39.525   2.839
94658W        W66187  25.461   1.304  10.516
94659W        W66188  38.974  16.540   2.739
94660W        W66189  43.155   8.653   4.973
94661W        W66190  44.547  33.526   1.766
94662W        W66191  43.534   1.899   0.272
94663W        W66192  31.371   6.687  11.666
94664W        W66193  37.639  25.113  14.457
94665W        W66194  44.953  42.585  11.472
94666W        W66195  13.694  10.226  12.918
94667W        W66196  18.985  17.219   3.420
94668W        W66197  14.328  21.241   3.824
94669W        W66198   0.477  42.365  14.993
94670W        W66199  12.140   1.490  11.568
94671W        W66200   8.128  37.853   2.356
94672W        W66201  37.272  43.823   0.059
94673W        W66202   7.175  22.877  11.479
94674W        W66203  23.559   1.797  10.726
94675W        W66204  11.562   3.217  14.581
94676W        W66205  35.535   2.896  12.039
94677W        W66206   4.236  15.407   2.488
94678W        W66207   4.274  30.872  10.287
94679W        W66208  13.640  11.839  14.263
94680W        W66209  23.844  23.612  14.274
94681W        W66210  13.509  31.546   2.687
94682W        W66211  21.595   5.632  14.434
94683W        W66212  11.534  26.294  14.700
94684W        W66213  23.289  26.768  11.642
94685W        W66214  18.544  30.610  12.112
94686W        W66215  26.630   7.883   3.698
94687W        W66216   3.972  34.922   3.204
94688W        W66217  32.014  11.736   4.504
94689W        W66218  12.791  39.946  13.641
94690W        W66219   3.752  25.210   0.374
94691W        W66220   1.840   2.958  12.166
94692W        W66221   2.280  13.354  12.096
94693W        W66222   3.928   2.005   1.233
94694W        W66223   5.669  12.004   3.621
94695W        W66224  30.503  44.907  10.951
94696W        W66225  38.582  25.451  13.943
94697W        W66226  39.919  15.331   3.013
94698W        W66227   4.697   2.161  11.037
94699W        W66228  43.415  18.026   2.821
94700W        W66229  33.915  42.572   2.025
94701W        W66230  40.265  26.050  13.107
94702W        W66231  34.517  32.400  12.575
94703W        W66232  31.508  42.016  11.492
94704W        W66233  15.159  37.313  14.949
94705W        W66234   7.873  31.596   0.493
94706W        W66235  23.585  16.677   3.304
94707W        W66236   2.138  12.670   4.677
94708W        W66237   1.195  28.095   1.867
94709W        W66238  31.650   3.505  13.912
94710W        W66239  28.713   4.765  14.894
94711W        W66240  42.436  31.165  11.046
94712W        W66241   8.427  35.723   0.802
94713W        W66242  38.838  41.429  13.522
94714W        W66243  18.289  13.004   1.224
94715W        W66244   6.142  37.452   4.105
94716W        W66245   1.822  29.394  13.724
94717W        W66246   2.665  17.792   1.622
94718W        W66247  35.257   4.864  12.580
94719W        W66248   4.672  19.125   1.772
94720W        W66249  44.883  35.807  11.308
94721W        W66250  27.852   4.324  12.776
94722W        W66251   6.817  43.286   4.097
94723W        W66252   6.636  10.825  13.347
94724W        W66253  38.015  11.610  12.388
94725W        W66254  12.136  31.925  13.887
94726W        W66255  33.544  15.779   2.183
94727W        W66256   3.016   4.774   4.731
94728W        W66257  26.538  35.893  14.310
94729W        W66258  43.816  24.783  10.496
94730W        W66259  17.719   7.594  11.173
94731W        W66260  29.926  31.124  13.016
94732W        W66261  40.703  16.023   4.278
94733W        W66262  27.954  22.264   0.313
94734W        W66263  14.330  27.870  12.657
94735W        W66264  22.541  17.630   2.163
94736W        W66265   7.619  20.675   1.165
94737W        W66266  21.086  11.984   3.669
94738W        W66267  21.581  32.639  10.788
94739W        W66268  27.070  32.968   1.336
94740W        W66269  34.706  18.000  12.958
94741W        W66270  22.456  14.208  12.405
94742W        W66271  30.396  34.600  10.692
94743W        W66272  20.674  41.077  11.045
94744W        W66273  23.112  12.383   0.519
94745W        W66274   0.456  12.920   1.858
94746W        W66275  27.969  13.351  10.742
94747W        W66276  34.427  35.304  13.887
94748W        W66277   2.397  16.339  13.519
94749W        W66278   5.465  38.445   0.960
94750W        W66279  24.093  42.543  12.946
94751W        W66280  14.025  17.056   0.914
94752W        W66281  35.366  28.480   2.495
94753W        W66282   0.895   9.755  10.725
94754W        W66283  22.307   7.962  11.951
94755W        W66284  19.195  40.971   4.323
94756W        W66285   6.661  19.539  13.490
94757W        W66286  31.977   2.486  13.812
94758W        W66287   9.744   4.108   0.729
94759W        W66288   9.270  26.783   3.099
94760W        W66289   5.615   7.142   4.037
94761W        W66290  13.720  44.253  10.480
94762W        W66291   7.174  23.061  12.924
94763W        W66292   2.578  28.065   1.794
94764W        W66293  27.009   2.708   0.342
94765W        W66294   4.868  11.503  13.819
94766W        W66295  27.965  43.894  10.609
94767W        W66296  21.203  42.435   0.821
94768W        W66297  43.760   5.367   4.390
94769W        W66298  20.629  34.326   1.178
94770W        W66299  17.199  26.240  13.507
94771W        W66300  20.061  32.474  11.573
94772W        W66301  36.644  10.873  14.066
94773W        W66302  37.192   9.128   0.785
94774W        W66303  44.972   7.838  11.829
94775W        W66304  29.103  14.347   0.530
94776W        W66305  19.947  24.848  12.151
94777W        W66306  39.496  39.541   3.779
94778W        W66307  21.211   7.058  11.707
94779W        W66308   0.849   5.642  10.948
94780W        W66309  20.699   5.319  14.323
94781W        W66310  25.223  16.190   0.949
94782W        W66311  11.661  24.347  13.321
94783W        W66312   2.680  30.421  14.253
94784W        W66313  16.283  22.716   3.282
94785W        W66314   5.538  30.427  14.450
94786W        W66315   1.760  11.673   4.253
94787W        W66316   8.165  33.577  12.094
94788W        W66317  37.415  17.075   3.123
94789W        W66318  41.357  13.925  13.862
94790W        W66319  43.962  25.673   2.660
94791W        W66320  26.207   7.757  12.162
94792W        W66321  18.820   1.953  14.300
94793W        W66322  35.972  31.891  14.494
94794W        W66323   6.599  26.205  13.486
94795W        W66324  11.868  20.719   3.783
94796W        W66325  35.052  44.467   0.745
94797W        W66326  12.216  39.492  13.376
94798W        W66327  29.255  12.862   3.244
94799W        W66328   9.142  27.531  11.689
94800W        W66329  20.036  29.202  13.477
94801W        W66330   5.240   0.433   0.451
94802W        W66331  11.167  12.368   2.348
94803W        W66332  30.135   0.202  12.948
94804W        W66333  41.478  40.984  13.309
94805W        W66334   4.773  44.563  12.579
94806W        W66335  37.217  31.921   1.934
94807W        W66336  39.404  34.638   1.062
94808W        W66337   1.087  34.506  12.973
94809W        W66338   8.102  29.128  14.363
94810W        W66339  26.788  36.522   1.783
94811W        W66340  29.872  44.864   1.743
94812W        W66341   1.398   5.935  14.492
94813W        W66342   3.116   0.350  13.015
94814W        W66343   2.936   3.771   2.799
94815W        W66344   5.442   8.222   1.319
94816W        W66345  20.144  31.552   2.215
94817W        W66346  15.806  40.429   2.755
94818W        W66347  26.080  21.610   1.994
94819W        W66348  36.521   0.276  12.937
94820W        W66349  28.646   8.291  11.671
94821W        W66350  19.015  43.709   2.847
94822W        W66351  28.160  31.644  14.997
94823W        W66352  18.054  27.500  12.961
94824W        W66353   9.738  33.526  13.852
94825W        W66354  43.793  43.817   2.633
94826W        W66355  29.321   1.783  13.338
94827W        W66356  11.388  38.266   2.703
94828W        W66357   9.346   9.329  10.726
94829W        W66358  11.515   4.911  10.335
94830W        W66359  27.586  37.254   0.529
94831W        W66360  13.687  32.158   1.438
94832W        W66361  27.155  26.111   1.719
94833W        W66362  40.355  44.713  12.062
94834W        W66363  31.889   5.970   3.840
94835W        W66364  27.161  23.762   1.574
94836W        W66365  28.089   3.768  11.145
94837W        W66366  11.457  11.144   2.428
94838W        W66367  21.934  33.009  13.772
94839W        W66368  44.161  19.546   1.712
94840W        W66369   9.025   2.584   5.044
94841W        W66370  33.532  22.574   1.322
94842W        W66371  25.168   7.687   1.731
94843W        W66372  12.024   6.289  14.854
94844W        W66373  44.015   2.402  13.261
94845W        W66374  42.055  16.797  11.618
94846W        W66375  23.550  21.696   0.899
94847W        W66376   7.888  38.349  14.899
94848W        W66377  10.823  42.072   2.746
94849W        W66378  12.822  41.369  13.990
94850W        W66379  42.075   0.453   4.285
94851W        W66380  28.390  35.885   4.152
94852W        W66381  11.583  18.564  12.951
94853W        W66382   3.152  10.611   4.196
94854W        W66383  22.188  38.592  13.393
94855W        W66384  27.106   1.684  10.484
94856W        W66385  32.922  20.822  14.880
94857W        W66386  27.605   7.349   3.756
94858W        W66387  40.330  30.138  13.392
94859W        W66388   1.433  34.799   0.829
94860W        W66389  30.936  32.104   2.842
94861W        W66390  41.847  26.539   2.251
94862W        W66391  27.940  24.811   5.161
94863W        W66392  28.254   4.347  13.765
94864W        W66393  20.249  44.461   3.070
94865W        W66394  30.864   9.609  12.445
94866W        W66395  23.816  43.307   4.346
94867W        W66396  37.378  12.124  14.079
94868W        W66397  17.210  10.661  11.635
94869W        W66398   9.221  21.666  14.812
94870W        W66399  25.942  11.673  14.561
94871W        W66400  13.589  12.241  11.395
94872W        W66401  44.395  12.571  11.591
94873W        W66402   2.839  31.958   0.418
94874W        W66403  22.648  14.506  12.762
94875W        W66404  34.898  39.384   4.904
94876W        W66405   5.680  11.080   3.747
94877W        W66406  23.638  31.945   1.212
94878W        W66407  36.021  17.866   2.340
94879W        W66408  27.846   2.244  13.034
94880W        W66409  43.496  22.123   3.758
94881W        W66410  10.425   3.810   0.286
94882W        W66411   2.487  29.006   1.405
94883W        W66412  29.406  42.529  11.646
94884W        W66413  14.906   1.382   3.802
94885W        W66414  25.975  13.336  13.465
94886W        W66415  26.060  12.082  11.577
94887W        W66416  31.269  42.333  14.569
94888W        W66417  17.659  20.931  13.271
94889W        W66418  13.249   3.389  11.999
94890W        W66419  29.365   3.479   4.187
94891W        W66420  17.621  31.930   1.903
94892W        W66421  35.489  38.805   2.400
94893W        W66422  26.456   6.876   1.043
94894W        W66423  29.284  25.300  11.954
94895W        W66424  32.300  44.813  12.391
94896W        W66425  32.182  36.992   0.291
94897W        W66426  30.750  17.492  10.215
94898W        W66427  39.860  18.842   0.721
94899W        W66428  12.856  42.963   2.168
94900W        W66429  35.079  16.822  14.315
94901W        W66430  26.241   3.273   0.222
94902W        W66431  24.005  43.401   3.686
94903W        W66432   0.383   4.201  13.997
94904W        W66433  40.057  33.935  13.537
94905W        W66434  19.085  28.751   4.087
94906W        W66435  12.650  24.801   3.101
94907W        W66436  30.346  21.012  13.831
94908W        W66437  33.523  18.041   3.211
94909W        W66438  29.647  28.162  10.717
94910W        W66439  33.937  27.581   0.170
94911W        W66440   7.146  34.048   1.146
94912W        W66441  25.091  43.530  12.632
94913W        W66442  36.304   1.787  10.697
94914W        W66443  30.126   2.813   1.437
94915W        W66444   2.241   1.500   1.343
94916W        W66445  34.495  28.418  14.870
94917W        W66446  11.369  28.568   2.876
94918W        W66447  10.891  34.923   4.527
94919W        W66448  22.493  27.904  12.137
94920W        W66449  10.271  15.754  10.347
94921W        W66450  24.507   4.397   3.258
94922W        W66451  43.802  20.806   2.865
94923W        W66452  13.376  26.481  11.092
94924W        W66453  23.239   9.089  11.473
94925W        W66454  39.252  15.087   1.924
94926W        W66455   4.393  32.966  13.103
94927W        W66456  27.123  36.942   2.871
94928W        W66457  29.456  34.577  13.863
94929W        W66458  27.653  22.016   0.668
94930W        W66459  18.785  26.798  10.622
94931W        W66460  30.466  44.262   3.964
94932W        W66461  44.994   0.553  11.089
94933W        W66462  24.466   6.240   3.173
94934W        W66463   3.305  35.602   1.757
94935W        W66464   0.935  14.258   2.772
94936W        W66465  13.041  26.029   3.352
94937W        W66466  36.141  42.764   0.790
94938W        W66467  30.073  27.171   0.465
94939W        W66468  33.505  16.502   4.679
94940W        W66469  23.688   1.500   0.439
94941W        W66470  12.027  26.290  11.948
94942W        W66471  26.531  19.546  13.066
94943W        W66472  15.259  24.934   0.783
94944W        W66473  38.024   9.385  12.926
94945W        W66474  21.061   8.638  12.590
94946W        W66475   6.541  42.778   2.895
94947W        W66476  37.991   2.350   4.105
94948W        W66477  21.496   3.220  11.635
94949W        W66478  12.967  17.629   0.389
94950W        W66479  17.956  42.726   3.888
94951W        W66480  32.218  43.792   4.067
94952W        W66481  13.239  21.097   2.866
94953W        W66482   8.847  27.442  10.656
94954W        W66483  42.826  14.394   1.287
94955W        W66484  25.018   3.522   1.858
94956W        W66485   6.035  30.946   0.508
94957W        W66486  15.115   8.295   3.755
94958W        W66487   7.410  30.763  13.599
94959W        W66488   4.319  33.651  10.499
94960W        W66489  36.871  16.831   3.197
94961W        W66490  20.510  33.599  14.459
94962W        W66491   0.363   0.033  13.834
94963W        W66492  10.767  23.021  10.597
94964W        W66493  39.597  22.385   3.257
94965W        W66494  26.186   6.274   2.322
94966W        W66495  34.498   4.413   3.995
94967W        W66496  13.104  13.474  11.487
94968W        W66497  18.626   2.385  11.009
94969W        W66498  15.884  28.543   9.823
94970W        W66499  20.525  10.112   2.096
94971W        W66500   0.178  15.052  11.636
94972W        W66501  24.010  32.937  14.935
94973W        W66502  15.402  24.250   3.739
94974W        W66503  36.420  18.829   2.182
94975W        W66504  42.299  10.137   0.230
94976W        W66505  20.001  10.323  13.884
94977W        W66506  20.734  43.585   3.258
94978W        W66507   9.396  13.712   2.452
94979W        W66508  15.284   0.753  14.844
94980W        W66509   7.948  35.602   2.177
94981W        W66510  15.447   9.770   2.227
94982W        W66511  25.407  13.640   3.208
94983W        W66512   1.199  25.494   9.765
94984W        W66513   0.227  20.290  13.456
94985W        W66514  39.819  35.606   2.821
94986W        W66515  13.666   5.207  13.450
94987W        W66516  31.909  23.285  12.512
94988W        W66517  42.263  42.316   0.302
94989W        W66518  32.481   4.958   3.324
94990W        W66519   6.287  32.915   3.776
94991W        W66520  15.496  27.542  10.005
94992W        W66521   3.153   1.538  13.489
94993W        W66522  10.602  27.624   2.257
94994W        W66523   3.748  40.825   1.335
94995W        W66524  39.767  37.855  14.072
94996W        W66525  31.159  28.008  13.359
94997W        W66526   1.355   7.367  10.743
94998W        W66527  35.266   1.794  12.900
94999W        W66528  34.380  41.730   2.906
95000W        W66529  42.478  41.589   2.557
95001W        W66530   8.731   7.289  13.587
95002W        W66531  22.728  17.312   3.515
95003W        W66532  44.403  37.500  14.484
95004W        W66533   4.844   6.312  13.994
95005W        W66534   6.109  28.524  12.170
95006W        W66535  31.844  22.181  13.724
95007W        W66536  38.336  23.278   1.122
95008W        W66537  35.171  29.140  14.083
95009W        W66538   3.965  23.590   1.332
95010W        W66539  20.048  41.267  14.042
95011W        W66540  18.942  17.830  11.572
95012W        W66541  37.712  29.621  13.510
95013W        W66542   7.777   0.809   2.003
95014W        W66543  29.513  27.305  12.985
95015W        W66544  25.243  39.100   3.716
95016W        W66545  44.824  14.209  14.793
95017W        W66546  42.386  18.206   4.452
95018W        W66547  25.909   6.932   0.911
95019W        W66548   8.288  40.006   1.710
95020W        W66549   1.718  15.152   3.862
95021W        W66550  40.292  29.922  10.934
95022W        W66551   7.123  11.967  12.859
95023W        W66552  35.360  24.724  13.062
95024W        W66553  33.933  29.594   2.166
95025W        W66554   3.016   3.260  12.347
95026W        W66555  20.517   3.115   0.738
95027W        W66556  13.900  17.645   3.866
95028W        W66557   5.398  24.956  11.619
95029W        W66558  13.785   3.035  12.196
95030W        W66559  28.609  23.592  14.059
95031W        W66560  15.054  42.930  12.534
95032W        W66561  21.470   8.584   0.367
95033W        W66562   7.214  18.669   2.309
95034W        W66563   5.234  11.352  12.110
95035W        W66564  21.989   6.374  14.744
95036W        W66565  11.586  26.128  12.807
95037W        W66566  39.392  11.542  11.741
95038W        W66567   9.257  32.048   4.113
95039W        W66568  12.266   2.959  11.946
95040W        W66569  24.803   2.836  10.728
95041W        W66570  39.215  43.917  13.325
95042W        W66571   1.789  38.912  10.877
95043W        W66572  39.374   1.679   4.231
95044W        W66573  34.581  32.629  13.033
95045W        W66574   4.925   5.798   1.659
95046W        W66575  30.937  31.228   1.810
95047W        W66576  16.863  27.375   1.212
95048W        W66577  42.920  11.444   1.186
95049W        W66578   1.419  21.102   2.077
95050W        W66579  42.566  27.984  11.355
95051W        W66580   8.214  19.770  11.055
95052W        W66581   5.111   8.960   4.862
95053W        W66582   8.439  18.036  11.074
95054W        W66583   5.550   6.150   1.282
95055W        W66584  22.263   6.658  12.108
95056W        W66585   7.956   6.809  13.805
95057W        W66586  39.483   1.399   2.434
95058W        W66587  21.034  21.724  11.981
95059W        W66588  20.112  43.808   0.801
95060W        W66589  22.351  31.487  14.329
95061W        W66590  43.584  15.038  13.121
95062W        W66591  25.514  23.746  11.595
95063W        W66592  18.087   5.722  14.217
95064W        W66593   2.420   2.740  10.823
95065W        W66594   9.027  15.288   1.419
95066W        W66595  27.512  32.968  12.134
95067W        W66596  39.311  41.551  13.689
95068W        W66597  24.165  29.937  13.495
95069W        W66598   1.343   2.298  11.899
95070W        W66599  11.385  27.172  14.378
95071W        W66600  33.017  41.503  14.876
95072W        W66601  19.686  21.832   4.449
95073W        W66602  42.299  24.390   4.567
95074W        W66603  30.141  12.877  14.949
95075W        W66604  39.756  20.315  13.054
95076W        W66605   9.271  44.004   4.404
95077W        W66606  29.991  20.631  12.111
95078W        W66607  13.298  23.817   2.811
95079W        W66608  30.615  29.147   1.518
95080W        W66609  36.005  20.570  10.656
95081W        W66610  44.922  29.599   2.769
95082W        W66611  39.967  19.815   5.009
95083W        W66612  16.584  34.366   4.288
95084W        W66613  40.333  42.180  12.331
95085W        W66614   6.775  44.375  11.495
95086W        W66615  31.125  35.692   4.606
95087W        W66616   9.083  30.341  11.353
95088W        W66617  20.133  32.313   1.683
95089W        W66618  13.349  32.830   1.118
95090W        W66619  30.363  21.585   3.747
95091W        W66620  44.232  13.804  11.713
95092W        W66621  20.506  44.343   2.615
95093W        W66622  24.110   6.601   3.130
95094W        W66623  27.947  26.112  13.574
95095W        W66624  15.072   8.762  13.771
95096W        W66625  28.667  23.155   1.487
95097W        W66626  40.332  34.911   0.344
95098W        W66627  42.086  30.155  14.969
95099W        W66628  23.541  21.599  14.295
95100W        W66629  39.427   8.750   0.775
95101W        W66630  20.208  11.392   1.952
95102W        W66631  29.546  29.990   4.552
95103W        W66632   2.244  25.705  11.528
95104W        W66633  42.017  28.124   2.585
95105W        W66634   6.758   6.217   0.833
95106W        W66635   4.083  31.346   3.780
95107W        W66636  23.581  40.280   3.372
95108W        W66637   9.402  14.092  10.657
95109W        W66638  42.869  40.092   1.750
95110W        W66639  25.177  17.309   1.898
95111W        W66640  44.772  22.092  12.009
95112W        W66641   4.881   1.027   0.886
95113W        W66642  13.316  32.404   2.271
95114W        W66643  17.816  21.310   2.373
95115W        W66644   4.616  33.494   5.210
95116W        W66645  11.926   0.688   1.549
95117W        W66646  40.262   9.650   4.638
95118W        W66647  16.128   0.666  14.819
95119W        W66648  34.047  21.495  12.933
95120W        W66649  12.143   6.963  12.380
95121W        W66650  18.087  20.171  11.835
95122W        W66651  23.574  15.243   3.555
95123W        W66652   6.908  32.173   3.760
95124W        W66653  12.417  40.515  11.866
95125W        W66654  34.075  12.177  12.552
95126W        W66655  37.240  24.246   2.262
95127W        W66656   3.977  14.460  12.112
95128W        W66657  33.638  24.779   0.136
95129W        W66658  42.568  10.768  14.428
95130W        W66659  23.054  15.833   0.796
95131W        W66660   3.289  29.031   4.410
95132W        W66661   7.325  44.937  13.937
95133W        W66662  42.398  38.073  11.616
95134W        W66663  23.433  39.960  11.629
95135W        W66664  14.373  23.737  13.486
95136W        W66665   5.709  20.282   3.802
95137W        W66666  30.819  24.260   3.257
95138W        W66667   6.189  43.475  12.798
95139W        W66668   4.736  23.161  12.322
95140W        W66669  29.425  17.365   1.235
95141W        W66670  24.114  21.457   1.799
95142W        W66671  25.116  14.137   2.934
95143W        W66672  17.346  32.168  12.496
95144W        W66673  30.494   9.771  11.679
95145W        W66674   9.690  16.611   3.330
95146W        W66675   9.324  15.391   1.826
95147W        W66676  14.203  25.903  14.593
95148W        W66677   0.365  22.761  11.106
95149W        W66678   0.460  41.254   4.175
95150W        W66679   0.377  28.335  14.873
95151W        W66680  42.743  32.960  12.378
95152W        W66681  17.465  23.489  12.465
95153W        W66682  27.523  26.052  10.609
95154W        W66683  14.745  11.802   2.226
95155W        W66684   8.936  41.113   1.211
95156W        W66685  20.759  43.272  11.657
95157W        W66686  13.810  18.538   3.798
95158W        W66687  26.178   0.309  11.145
95159W        W66688  33.816  25.683   2.244
95160W        W66689  26.084  16.314  11.559
95161W        W66690   0.234  32.623  11.613
95162W        W66691  37.918  19.240  12.667
95163W        W66692  44.530   6.160  13.450
95164W        W66693   1.245  12.317  14.562
95165W        W66694  28.172  31.844   0.887
95166W        W66695  38.972  25.623   4.726
95167W        W66696  22.618   1.804   4.685
95168W        W66697   3.191  21.738  12.125
95169W        W66698  17.480  22.273  11.260
95170W        W66699  11.220  25.706   4.936
95171W        W66700  36.970  28.429  12.130
95172W        W66701   5.903  25.400  10.807
95173W        W66702  22.882  42.100  13.540
95174W        W66703  10.359   3.871   2.700
95175W        W66704  18.194  30.319   3.727
95176W        W66705  40.572  23.522  10.448
95177W        W66706  25.955   9.965   4.204
95178W        W66707  33.071  36.886   1.362
95179W        W66708   5.697  12.938   1.776
95180W        W66709  17.430  23.946   4.441
95181W        W66710   8.069  29.231   4.398
95182W        W66711  21.143  37.751   3.683
95183W        W66712  12.891  32.000   0.951
95184W        W66713  22.291  41.385  14.977
95185W        W66714  41.208  23.233   2.678
95186W        W66715  32.882  18.733  14.340
95187W        W66716  18.203   4.949  14.824
95188W        W66717  32.495  23.970  14.534
95189W        W66718  36.475  18.228  10.554
95190W        W66719   1.845  20.646   1.411
95191W        W66720  10.406  17.231   1.770
95192W        W66721   5.723  34.637  10.856
95193W        W66722  44.441  21.521   1.471
95194W        W66723  17.419  43.853  12.955
95195W        W66724  29.522  20.558   2.088
95196W        W66725   7.719   7.151   1.795
95197W        W66726  33.180  40.867   1.015
95198W        W66727  17.653  43.579  13.332
95199W        W66728   7.214  34.953   1.729
95200W        W66729  24.449  32.033   4.675
95201W        W66730  29.624   4.755  14.035
95202W        W66731  42.816  12.745   0.734
95203W        W66732  18.848  34.854   2.838
95204W        W66733  34.876  16.956  11.111
95205W        W66734  26.512   5.731  13.471
95206W        W66735  17.681  26.703   3.724
95207W        W66736  21.323  35.032  11.446
95208W        W66737   0.256  43.540   1.422
95209W        W66738   4.862  36.549  12.801
95210W        W66739  13.874   6.833  10.758
95211W        W66740  29.533  25.153  12.519
95212W        W66741  11.898  24.263   0.148
95213W        W66742  41.624  32.546  14.837
95214W        W66743  32.865  44.701   0.125
95215W        W66744   5.191  26.725   2.752
95216W        W66745  30.394  40.851   1.377
95217W        W66746  19.006  36.822   3.626
95218W        W66747  33.358  38.289   1.341
95219W        W66748  34.209  27.546  13.046
95220W        W66749  38.927  13.788  13.604
95221W        W66750  10.318  30.041  10.824
95222W        W66751  31.404  11.185  10.727
95223W        W66752  18.635   2.549   3.723
95224W        W66753  38.400  12.734   2.660
95225W        W66754  20.137  22.721   3.797
95226W        W66755   6.128  14.854  12.518
95227W        W66756   0.627   3.729  13.834
95228W        W66757   0.530  19.777  12.607
95229W        W66758  14.812  23.192  12.944
95230W        W66759  12.442  32.579  14.958
95231W        W66760  40.655   3.688  11.136
95232W        W66761  22.716  33.598   5.084
95233W        W66762  23.539  39.763   3.629
95234W        W66763  26.555   6.956  11.757
95235W        W66764  40.043   0.669   4.761
95236W        W66765   4.294  12.868  13.597
95237W        W66766  15.588  31.795  10.001
95238W        W66767   9.153   6.080   2.830
95239W        W66768  22.000   4.515   3.277
95240W        W66769   6.853  31.575  14.942
95241W        W66770   0.809  23.231  14.474
95242W        W66771  36.691  19.552   4.677
95243W        W66772   2.988  29.312  11.098
95244W        W66773  15.252  40.382   2.719
95245W        W66774   6.694  23.280  14.494
95246W        W66775  36.919  32.939   3.154
95247W        W66776  11.367  41.535  14.016
95248W        W66777   4.616  26.492   3.757
95249W        W66778  36.451  12.266   0.862
95250W        W66779  14.280  18.704   1.260
95251W        W66780  15.224  28.116  14.489
95252W        W66781  28.960  32.503   2.851
95253W        W66782  35.968  30.630  14.258
95254W        W66783  28.095  29.066  12.397
95255W        W66784   3.470  31.382  12.319
95256W        W66785  14.055   5.156  11.619
95257W        W66786  37.391  42.715   2.636
95258W        W66787  33.733  13.197   4.282
95259W        W66788  30.045   8.325  10.821
95260W        W66789  33.372  22.788   1.776
95261W        W66790   2.839  28.243   4.099
95262W        W66791  17.819   0.835  13.801
95263W        W66792  31.069  37.721  14.805
95264W        W66793   2.937  30.600  12.543
95265W        W66794  28.143  26.048   2.827
95266W        W66795   2.531  11.564   1.186
95267W        W66796   3.272  18.743  14.031
95268W        W66797  26.634   9.264  14.022
95269W        W66798   2.905   1.947  11.104
95270W        W66799   1.184  33.925   0.370
95271W        W66800  15.049   7.456   2.723
95272W        W66801  42.962   7.460  10.806
95273W        W66802  11.724  22.588   3.934
95274W        W66803  27.443   6.864  11.061
95275W        W66804  43.877  25.149   2.685
95276W        W66805  24.464  42.020  13.449
95277W        W66806   4.272  19.902  10.293
95278W        W66807  39.803  35.979   3.184
95279W        W66808  44.245   6.426  11.738
95280W        W66809   7.638  24.575  11.517
95281W        W66810  33.180  23.107   4.441
95282W        W66811  23.363  30.888   3.791
95283W        W66812  41.452  19.064   1.478
95284W        W66813  18.097  22.005   1.756
95285W        W66814   0.422  37.223  14.042
95286W        W66815  42.586  19.341   0.409
95287W        W66816  10.036  33.557   3.566
95288W        W66817  32.438  14.717   1.962
95289W        W66818  18.289  30.570  13.954
95290W        W66819   1.595  28.258  14.550
95291W        W66820  38.346  22.170   3.140
95292W        W66821  37.933  38.936  13.447
95293W        W66822  20.156  32.502  13.981
95294W        W66823  21.162  23.499   3.160
95295W        W66824   0.381   7.260  14.435
95296W        W66825  26.613  32.527  12.907
95297W        W66826  29.562  33.955  10.751
95298W        W66827  42.311  24.505   3.703
95299W        W66828   5.355  39.358   3.190
95300W        W66829  11.206  24.636   2.620
95301W        W66830  40.894  21.729  13.801
95302W        W66831   4.728  33.126   0.370
95303W        W66832  18.984  43.776   3.728
95304W        W66833  36.059  25.656  13.164
95305W        W66834  35.913   9.962  14.950
95306W        W66835  37.362  30.479   0.480
95307W        W66836  24.075  39.064   3.371
95308W        W66837   0.780  13.719  12.476
95309W        W66838  27.484  10.959  12.952
95310W        W66839  22.316  12.174  11.542
95311W        W66840  38.438   6.512  14.734
95312W        W66841  41.861  31.166   2.849
95313W        W66842  34.071  18.689   3.832
95314W        W66843  22.156  10.281   2.671
95315W        W66844  39.555  29.901  13.938
95316W        W66845  14.095  30.119  11.196
95317W        W66846  41.467  19.545   5.107
95318W        W66847  33.097  13.083   2.174
95319W        W66848  16.381  11.509  14.490
95320W        W66849  41.745  40.566   1.822
95321W        W66850  12.262   7.466  13.532
95322W        W66851  16.592  34.994  11.615
95323W        W66852   1.601  25.165  12.956
95324W        W66853   3.683  36.547  11.064
95325W        W66854   5.102  36.672   4.948
95326W        W66855  41.529  34.548   1.365
95327W        W66856  19.741  16.986   3.648
95328W        W66857  41.516  24.991   3.549
95329W        W66858  16.566  44.841  12.898
95330W        W66859  28.117   9.231  14.093
95331W        W66860  20.260  25.962  14.508
95332W        W66861  19.502  33.481  12.176
95333W        W66862  35.040  13.017   4.028
95334W        W66863  23.425  13.597   4.239
95335W        W66864  41.973  21.015  13.631
95336W        W66865  27.673  29.935   1.185
95337W        W66866  28.465  11.795  13.477
95338W        W66867   6.250  27.928  10.619
95339W        W66868  40.959   5.035  14.448
95340W        W66869  18.565   7.252  12.965
95341W        W66870  37.604   9.358   2.765
95342W        W66871  16.620  14.638  12.479
95343W        W66872  22.646  12.527   1.401
95344W        W66873   1.320  16.214  10.531
95345W        W66874   5.031  29.208   1.295
95346W        W66875  10.411  28.630   4.057
95347W        W66876  11.164   3.750  13.836
95348W        W66877   2.253  14.560  13.126
95349W        W66878  16.766  13.616   0.899
95350W        W66879   9.064  43.769   0.226
95351W        W66880  21.644  10.370  14.780
95352W        W66881  42.221  22.648   3.593
95353W        W66882  41.660  11.334  10.554
95354W        W66883  34.414  33.447  14.985
95355W        W66884  15.305   3.148   1.718
95356W        W66885  34.061  27.352   3.697
95357W        W66886  43.732  29.163   4.106
95358W        W66887   1.651  42.423   2.699
95359W        W66888  19.759  20.523   2.303
95360W        W66889  19.003   4.391  12.098
95361W        W66890  26.726  17.713   3.202
95362W        W66891  27.207  10.623  13.605
95363W        W66892   8.637  13.414   4.046
95364W        W66893  14.958   7.628  10.262
95365W        W66894   4.036  14.406  13.046
95366W        W66895  26.142  42.487   1.637
95367W        W66896  27.354  30.490   2.535
95368W        W66897  13.122   8.634   1.011
95369W        W66898   1.262  44.384   1.817
95370W        W66899   1.569   8.434   2.791
95371W        W66900  30.982  23.118   1.902
95372W        W66901  15.759   7.682   0.314
95373W        W66902  34.890  28.512   2.777
95374W        W66903  15.075   2.194   2.722
95375W        W66904  35.408  36.125   4.369
95376W        W66905  24.461  11.744  11.066
95377W        W66906  16.864  25.069  14.261
95378W        W66907  41.126   6.170   0.957
95379W        W66908  15.512  36.359   2.619
95380W        W66909  43.750  33.892  10.727
95381W        W66910   5.613   9.086   4.747
95382W        W66911  16.344  26.614   3.860
95383W        W66912  12.940   9.208  13.975
95384W        W66913  29.406   1.812  12.034
95385W        W66914  22.409  26.714   2.877
95386W        W66915  43.041  26.097   0.919
95387W        W66916  20.230  36.631  10.748
95388W        W66917  32.886   3.384  14.358
95389W        W66918   8.839  17.641   2.623
95390W        W66919  31.476   8.230   3.595
95391W        W66920  18.594  26.551  12.820
95392W        W66921  39.343  13.869   3.742
95393W        W66922  13.203  26.583   2.307
95394W        W66923   9.744  40.766  13.925
95395W        W66924  39.622  21.757  11.925
95396W        W66925  19.549  13.353  13.836
95397W        W66926  30.510  24.690   0.915
95398W        W66927  40.865  17.845   3.366
95399W        W66928  19.647   9.001  10.842
95400W        W66929  25.581  25.980  12.521
95401W        W66930  22.944  28.839   0.921
95402W        W66931  19.928  30.293  10.707
95403W        W66932  26.739  21.057   0.803
95404W        W66933  11.257  30.562   2.811
95405W        W66934   8.597   8.357   1.290
95406W        W66935  38.992   0.844   4.252
95407W        W66936  21.280  34.701   0.002
95408W        W66937  33.552   5.337   0.810
95409W        W66938   3.902  37.422  11.426
95410W        W66939   9.260  20.807   0.954
95411W        W66940   2.447   8.893   3.331
95412W        W66941   1.461  30.117   1.366
95413W        W66942  10.810  36.926   0.632
95414W        W66943  20.495  36.956  14.402
95415W        W66944  15.338  26.669  11.029
95416W        W66945  21.772  14.342   2.127
95417W        W66946   0.350  24.928  13.256
95418W        W66947  30.622  32.447  13.011
95419W        W66948   4.083  33.517   5.154
95420W        W66949  44.850  31.077  10.966
95421W        W66950  26.094  26.719   3.653
95422W        W66951  33.743  27.903  11.571
95423W        W66952  11.828  25.264   3.154
95424W        W66953  11.286   8.733  10.640
95425W        W66954  30.711  29.197  10.491
95426W        W66955   7.997   4.508   0.826
95427W        W66956  22.140  21.026  10.668
95428W        W66957  40.031   6.210  12.672
95429W        W66958  35.105  14.852  14.758
95430W        W66959  21.162  33.370  13.064
95431W        W66960  15.408  15.257  12.812
95432W        W66961  41.082  23.993   2.865
95433W        W66962  18.748   3.370  14.443
95434W        W66963   1.209   5.353   1.315
95435W        W66964   7.678   4.930  11.558
95436W        W66965   5.422  43.886  12.908
95437W        W66966   6.147   5.204  10.696
95438W        W66967  14.202   8.927   0.244
95439W        W66968  33.798  33.599   3.799
95440W        W66969  34.080   0.616   2.202
95441W        W66970  19.790  34.401  12.626
95442W        W66971  30.882   6.278   1.886
95443W        W66972  33.552   8.450   1.229
95444W        W66973   4.347   4.018  13.543
95445W        W66974  38.986  13.839   1.101
95446W        W66975  25.577  12.317  13.065
95447W        W66976  18.785  18.827   3.738
95448W        W66977  20.658  41.513  14.001
95449W        W66978  28.052  29.457   3.360
95450W        W66979  42.199   6.387   3.929
95451W        W66980   0.509  24.752  11.123
95452W        W66981  23.495  16.301   1.661
95453W        W66982  33.973  10.660  12.093
95454W        W66983  30.147  44.956   2.796
95455W        W66984   1.010  40.489  11.599
95456W        W66985  14.325  42.794   1.864
95457W        W66986  38.504  12.573   4.158
95458W        W66987  36.932  37.012   1.619
95459W        W66988  24.470   1.447  10.573
95460W        W66989  43.893  16.173  10.619
95461W        W66990  25.798  12.650  13.420
95462W        W66991  18.520  35.987  11.905
95463W        W66992  16.582  11.002   4.261
95464W        W66993  18.848  23.266  11.171
95465W        W66994  43.218   1.279   1.746
95466W        W66995  29.758   1.631   2.586
95467W        W66996  37.151  42.916  10.691
95468W        W66997   2.513  28.782   2.938
95469W        W66998  36.369   3.644   4.653
95470W        W66999  16.795  32.578  12.444
95471W        W67000  31.428  44.456   2.201
95472W        W67001  34.058   1.695   0.056
95473W        W67002  37.590  28.402  11.140
95474W        W67003  34.346  26.570   0.290
95475W        W67004  27.538   0.006   0.575
95476W        W67005  36.221  35.146  11.557
95477W        W67006  11.850   1.031   3.617
95478W        W67007  30.933   3.853   1.742
95479W        W67008  12.392  27.101  14.343
95480W        W67009  25.933   6.842  13.402
95481W        W67010  44.662   3.134  14.798
95482W        W67011  44.332  42.911   4.100
95483W        W67012  37.443  16.016  14.470
95484W        W67013  17.143  33.788  10.674
95485W        W67014  43.936  18.991   2.719
95486W        W67015   4.446  25.686  13.810
95487W        W67016  15.580   7.749  12.887
95488W        W67017  15.695  44.799   2.879
95489W        W67018  35.148   6.160   3.360
95490W        W67019   8.180  18.275   2.170
95491W        W67020  11.681   8.001  13.941
95492W        W67021  14.798  37.866  13.410
95493W        W67022  43.322  42.498   2.371
95494W        W67023   3.032  14.758   1.826
95495W        W67024  14.568  23.181   1.155
95496W        W67025  14.432   5.802   2.256
95497W        W67026  38.926   5.237  13.128
95498W        W67027  12.668  36.598   1.807
95499W        W67028  22.328  26.690  11.991
95500W        W67029  23.152   9.136   3.751
95501W        W67030   1.022  29.290  10.774
95502W        W67031  25.229  13.673   1.285
95503W        W67032  26.691   3.528  10.974
95504W        W67033  25.007  35.311  13.500
95505W        W67034  23.624  23.811   0.722
95506W        W67035  16.291  41.280   3.145
95507W        W67036  26.885  14.347  10.759
95508W        W67037   9.399   5.388  10.748
95509W        W67038   0.943  19.032   2.720
95510W        W67039  31.808  44.113   4.163
95511W        W67040   2.298  27.120  12.410
95512W        W67041  15.647  16.823   3.252
95513W        W67042  23.655  27.653   2.814
95514W        W67043  20.711  21.721  13.541
95515W        W67044  16.065   8.041   2.051
95516W        W67045  10.797   2.600   4.504
95517W        W67046  42.355  16.645   0.788
95518W        W67047  19.154   1.342  12.353
95519W        W67048   4.507  24.694   2.373
95520W        W67049  14.099  16.251  12.615
95521W        W67050   6.752   5.530   3.238
95522W        W67051  29.027  32.564   3.357
95523W        W67052  23.263  30.054  11.656
95524W        W67053  20.207  17.111   4.583
95525W        W67054  43.010  16.248  13.377
95526W        W67055  11.138   1.416  14.432
95527W        W67056  43.744   2.787  11.442
95528W        W67057  42.479  21.176   0.061
95529W        W67058   9.681  33.554   4.847
95530W        W67059  18.786  24.623   3.735
95531W        W67060   7.010  15.285   3.569
95532W        W67061  27.167  15.841  12.299
95533W        W67062  43.559   4.255  11.765
95534W        W67063   7.337  28.775  13.470
95535W        W67064  40.894   3.507  14.349
95536W        W67065  21.628   1.927   2.367
95537W        W67066  14.334  23.031  13.016
95538W        W67067  43.331   3.892  14.413
95539W        W67068   1.668  31.959   2.219
95540W        W67069  28.610  32.323  12.624
95541W        W67070  12.105  11.835   4.183
95542W        W67071  32.602  40.645  12.254
95543W        W67072  32.782  20.987  11.244
95544W        W67073   9.719  32.800  10.759
95545W        W67074  22.040  38.086  13.541
95546W        W67075  18.358  25.654   2.105
95547W        W67076  31.934  15.156   0.732
95548W        W67077  40.517  32.065  13.784
95549W        W67078   9.956  25.075  13.845
95550W        W67079  13.639  29.502   3.214
95551W        W67080  34.100   6.671  14.677
95552W        W67081  27.630  10.124  11.952
95553W        W67082  39.518  27.249  13.128
95554W        W67083  24.462   4.403  14.776
95555W        W67084   9.834  15.687   1.418
95556W        W67085   3.216   5.707   4.106
95557W        W67086  29.904  10.817  13.925
95558W        W67087  18.337  22.652  14.926
95559W        W67088  27.614  25.724  12.841
95560W        W67089  31.178  41.753   0.811
95561W        W67090  42.873  11.371  11.955
95562W        W67091  40.176  39.941  12.155
95563W        W67092  36.571   2.028  13.702
95564W        W67093  30.443  19.308  14.988
95565W        W67094   0.643  40.738  13.593
95566W        W67095  20.219  27.394   1.764
95567W        W67096  37.082  26.240   3.560
95568W        W67097   1.527  28.162  12.956
95569W        W67098   5.831  14.128   1.225
95570W        W67099  17.784   7.594   1.721
95571W        W67100   7.130  13.831  14.364
95572W        W67101  38.868  26.623   4.446
95573W        W67102  21.133   5.855  11.216
95574W        W67103  41.417  32.999   0.969
95575W        W67104   8.003   8.909   0.286
95576W        W67105   6.297  27.408  10.617
95577W        W67106  43.384  36.823   3.108
95578W        W67107   4.291  34.290  12.735
95579W        W67108  19.668  33.433   0.824
95580W        W67109  38.319  34.695  11.621
95581W        W67110   5.164  39.120   2.750
95582W        W67111  18.551   2.271  10.443
95583W        W67112   3.416   6.809  10.960
95584W        W67113   1.184  41.477   0.944
95585W        W67114   9.425  26.223  11.783
95586W        W67115  23.667  25.742  13.919
95587W        W67116  18.044   8.112   1.823
95588W        W67117  17.798  30.128   2.258
95589W        W67118  39.149  23.602   3.721
95590W        W67119  11.374   0.241   0.713
95591W        W67120  33.248  37.949   2.321
95592W        W67121   8.376  23.457   0.953
95593W        W67122  43.219  19.506  11.879
95594W        W67123   9.264   0.695  12.407
95595W        W67124  28.569  38.756  13.358
95596W        W67125  34.618  18.508   0.223
95597W        W67126  15.788  37.583  10.189
95598W        W67127  36.668  17.593   0.810
95599W        W67128  30.694  37.496   1.356
95600W        W67129  11.858  39.268  10.727
95601W        W67130  32.787   4.084   2.274
95602W        W67131  28.096  15.260  11.059
95603W        W67132  21.989  37.503  10.791
95604W        W67133  11.095  27.071  11.053
95605W        W67134  43.980  29.030   4.542
95606W        W67135  17.650  26.916   2.490
95607W        W67136  32.038  19.049   1.402
95608W        W67137   2.340  24.610   2.485
95609W        W67138  12.810  37.449   4.661
95610W        W67139  12.360  14.235   2.295
95611W        W67140  33.942  25.845   3.656
95612W        W67141  43.439  20.734  13.497
95613W        W67142   1.545  16.116  13.616
95614W        W67143  34.088  36.343   1.740
95615W        W67144  35.598   7.534  12.235
95616W        W67145  27.519  13.766   1.146
95617W        W67146  32.606  30.263   1.693
95618W        W67147  27.546   5.243  10.592
95619W        W67148  39.887  24.448   3.224
95620W        W67149  32.289   7.316  14.833
95621W        W67150  41.053   3.729   1.331
95622W        W67151  20.173  15.287  14.520
95623W        W67152  14.207  17.048  11.516
95624W        W67153  29.016  23.770  14.377
95625W        W67154  33.014  36.928   0.002
95626W        W67155  34.869  19.599   2.248
95627W        W67156   1.937   0.797  14.377
95628W        W67157   4.991  36.628  10.668
95629W        W67158  27.461  36.487  14.772
95630W        W67159  21.720  36.319  11.099
95631W        W67160  18.031  28.240  11.985
95632W        W67161  17.655  12.718   2.397
95633W        W67162  16.987  11.104  11.906
95634W        W67163   2.825  12.355   1.254
95635W        W67164  32.076   4.879   4.135
95636W        W67165  15.663  27.893   0.435
95637W        W67166   2.572  44.434  12.302
95638W        W67167  15.311  30.544  11.873
95639W        W67168   4.390  14.599   1.740
95640W        W67169  17.908   2.448  13.779
95641W        W67170  37.830  32.486   0.431
95642W        W67171  21.190   9.901  14.189
95643W        W67172  34.606  30.178   4.303
95644W        W67173  22.717   7.926   0.575
95645W        W67174  18.248   0.987  10.745
95646W        W67175  35.513  36.595  14.390
95647W        W67176  44.518  41.609   4.302
95648W        W67177   9.601  21.718   4.839
95649W        W67178  11.097  36.074  13.291
95650W        W67179  18.891  28.508  10.983
95651W        W67180  15.122  17.527  10.519
95652W        W67181  22.206   3.336  14.279
95653W        W67182  21.702  22.039  13.507
95654W        W67183  10.559  27.474   4.357
95655W        W67184  28.890  35.034  12.074
95656W        W67185  28.004  19.610   1.886
95657W        W67186  11.204  17.060  13.010
95658W        W67187  40.317  18.169  12.898
95659W        W67188  19.563   7.704   4.675
95660W        W67189  27.077  43.360   4.111
95661W        W67190   8.773  41.319  13.535
95662W        W67191   0.379  23.629  11.993
95663W        W67192  16.675  13.697  11.054
95664W        W67193  30.322  36.575   4.152
95665W        W67194  41.316  19.134  14.880
95666W        W67195  11.866  33.537  10.621
95667W        W67196  17.654  19.858  14.869
95668W        W67197   3.214  21.059  12.749
95669W        W67198  39.277  25.767  11.350
95670W        W67199  23.963   6.879   0.857
95671W        W67200  15.631  31.548   2.797
95672W        W67201   5.422   3.130  14.095
95673W        W67202   5.317  14.828  14.715
95674W        W67203  23.346  21.962  13.956
95675W        W67204   0.530  18.778  13.451
95676W        W67205  37.595   9.773   4.390
95677W        W67206  11.123  15.729  14.793
95678W        W67207  23.990   6.942   1.658
95679W        W67208  14.821  31.988   2.757
95680W        W67209  42.362   6.066  11.519
95681W        W67210  16.640  15.362   2.083
95682W        W67211   6.446  10.294   5.164
95683W        W67212  18.987   4.503   4.082
95684W        W67213  13.515  11.225  10.835
95685W        W67214  21.714  39.857   3.205
95686W        W67215  41.321  15.719   0.507
95687W        W67216  44.771  12.610  11.946
95688W        W67217  27.453  43.347  14.764
95689W        W67218  30.539   9.551   1.926
95690W        W67219  32.783  24.998   0.056
95691W        W67220  24.619  15.507   1.201
95692W        W67221  20.107   6.862  13.049
95693W        W67222   9.804  36.836   1.366
95694W        W67223  21.003  28.656  12.616
95695W        W67224  12.863  33.634   1.226
95696W        W67225  37.409  30.867   0.815
95697W        W67226  27.152  18.244  10.958
95698W        W67227  11.908  20.530   3.286
95699W        W67228  24.132  22.941  13.100
95700W        W67229  24.946  21.207  12.290
95701W        W67230  35.379  26.165   3.993
95702W        W67231   9.839  10.673   4.428
95703W        W67232   0.647  41.154  11.177
95704W        W67233  41.358  29.150  10.776
95705W        W67234  44.833  29.054   3.262
95706W        W67235  32.767  13.018   0.759
95707W        W67236  26.596  33.079  11.541
95708W        W67237  10.359  36.297   9.829
95709W        W67238  22.983  30.149  12.071
95710W        W67239  22.964   9.166  12.874
95711W        W67240  35.935  31.002   3.358
95712W        W67241  22.520  10.248  14.016
95713W        W67242  10.054  21.948  13.469
95714W        W67243   1.425  32.180   0.907
95715W        W67244  12.855  25.181  13.966
95716W        W67245  39.072   7.171  11.677
95717W        W67246  42.734  21.621   2.216
95718W        W67247   6.296   2.986  13.281
95719W        W67248  41.254  26.916   4.184
95720W        W67249  44.522  31.425   3.236
95721W        W67250  22.036  32.567  10.544
95722W        W67251   1.024  29.933   3.781
95723W        W67252  43.700   9.111  11.695
95724W        W67253  35.920  19.954   3.892
95725W        W67254  39.165  44.305   4.188
95726W        W67255  13.152  22.217  11.382
95727W        W67256   5.391   6.675   4.633
95728W        W67257  12.181  40.993   1.160
95729W        W67258  37.877   7.868   0.939
95730W        W67259  27.006  27.110  14.158
95731W        W67260  44.888  12.350   2.351
95732W        W67261   6.073  44.400  12.933
95733W        W67262   4.957  17.603   4.426
95734W        W67263  38.923  25.243  11.593
95735W        W67264   8.141  32.619   4.194
95736W        W67265   4.791  23.037   1.393
95737W        W67266  25.776  38.861   9.786
95738W        W67267  22.803  37.395   0.274
95739W        W67268  18.297  27.042  11.622
95740W        W67269   8.614  40.800   4.769
95741W        W67270  42.496  41.881   0.477
95742W        W67271  35.937  12.071   4.038
95743W        W67272  33.054  34.829  12.050
95744W        W67273  37.103  17.066  11.047
95745W        W67274  12.285  12.707   4.516
95746W        W67275  43.787  15.297   2.610
95747W        W67276  31.443  22.973   3.289
95748W        W67277  10.392  36.852   2.021
95749W        W67278  38.131  25.232  14.475
95750W        W67279  43.413   5.992   0.946
95751W        W67280  29.210  27.323  10.157
95752W        W67281  29.481  11.542   0.369
95753W        W67282  19.017  32.176   1.248
95754W        W67283  25.183  16.786  14.812
95755W        W67284  19.987  43.317  12.302
95756W        W67285   8.873  23.858  14.506
95757W        W67286  41.741  31.111  14.869
95758W        W67287  28.371  40.945  12.058
95759W        W67288  43.491  14.030   4.091
95760W        W67289   1.036   6.540   4.026
95761W        W67290  13.078  12.082  11.537
95762W        W67291  40.555  14.860   0.448
95763W        W67292  42.865   3.722  14.287
95764W        W67293  44.371  35.053  12.688
95765W        W67294  26.703  31.397   4.163
95766W        W67295  43.436  36.598   0.363
95767W        W67296   6.271  15.836   2.385
95768W        W67297   4.253   2.887   1.773
95769W        W67298  17.556  22.216   0.302
95770W        W67299   5.905  23.100   4.485
95771W        W67300  23.167  10.353  12.407
95772W        W67301  31.248   9.046   0.947
95773W        W67302  14.679  43.419  11.693
95774W        W67303  35.605  12.292   2.045
95775W        W67304  36.792  15.334  12.571
95776W        W67305  28.601  12.088   0.441
95777W        W67306  36.159  12.163  11.084
95778W        W67307   1.873  13.430  13.826
95779W        W67308  36.499  15.189  13.990
95780W        W67309  42.278  44.837  11.086
95781W        W67310  25.650  25.575   0.992
95782W        W67311  36.027   0.982   4.518
95783W        W67312  36.027  24.930  14.374
95784W        W67313  13.224  36.316  10.707
95785W        W67314  14.689   4.047   0.832
95786W        W67315  38.564  42.553   3.775
95787W        W67316  25.940   4.770   2.303
95788W        W67317  17.831  20.254  14.062
95789W        W67318  14.340  28.600   0.675
95790W        W67319  41.558  35.432  11.542
95791W        W67320  20.306  28.093  14.892
95792W        W67321  11.671  41.989  12.587
95793W        W67322  11.650   8.759  11.688
95794W        W67323  23.968   1.234  12.008
95795W        W67324   8.373  43.861   4.537
95796W        W67325  11.136  26.565   2.267
95797W        W67326   0.262  11.725  13.879
95798W        W67327   5.399   1.800  14.863
95799W        W67328  25.559   3.822   4.112
95800W        W67329  24.036  32.354  10.420
95801W        W67330  24.059  40.152   3.218
95802W        W67331  15.179  27.925   0.870
95803W        W67332  39.458  22.681   2.353
95804W        W67333  23.141  34.404  13.478
95805W        W67334  20.287   5.927  11.997
95806W        W67335  23.693  27.173   1.388
95807W        W67336   3.148  30.723   1.399
95808W        W67337  27.065  43.609   3.637
95809W        W67338  26.217  12.608   0.350
95810W        W67339   0.691  14.697   0.781
95811W        W67340  43.262   8.451   2.736
95812W        W67341  26.555  42.386   1.193
95813W        W67342  10.765  29.987  11.683
95814W        W67343   5.849   2.982  14.677
95815W        W67344  12.831   6.700   2.939
95816W        W67345  42.096  10.703  12.060
95817W        W67346   9.433  19.820  13.825
95818W        W67347   2.856  16.681   0.237
95819W        W67348  11.908   8.816  12.892
95820W        W67349  19.300  21.073  12.774
95821W        W67350  26.011  16.990  13.831
95822W        W67351  42.580  17.722  14.284
95823W        W67352  17.814  25.600  13.492
95824W        W67353  39.930  29.725   2.697
95825W        W67354  11.068  22.278   1.922
95826W        W67355  21.713   2.158  10.997
95827W        W67356  37.886  38.108   3.350
95828W        W67357  39.267   1.050   1.283
95829W        W67358  36.710  31.023  11.033
95830W        W67359  19.297  14.569  11.546
95831W        W67360  27.150  42.391   2.978
95832W        W67361  42.335  24.479  12.698
95833W        W67362  34.873  11.734  14.876
95834W        W67363  15.847  26.961   2.156
95835W        W67364   9.709  42.723   0.738
95836W        W67365  10.221   3.952  10.988
95837W        W67366  19.655   0.922   4.138
95838W        W67367  29.106  24.263  14.311
95839W        W67368   7.320   6.085   1.439
95840W        W67369  28.006  39.379   0.493
95841W        W67370  31.368  39.585   3.213
95842W        W67371  15.625  24.128  13.475
95843W        W67372   5.272  27.032  10.588
95844W        W67373  20.674  23.651   3.229
95845W        W67374  37.088  33.806   1.887
95846W        W67375  16.257   6.031   1.780
95847W        W67376  32.047  14.321  14.088
95848W        W67377  30.214  29.921  12.492
95849W        W67378  32.017  32.942  11.065
95850W        W67379  39.091  29.038   1.340
95851W        W67380   2.709   9.360   3.311
95852W        W67381  43.378  38.327   1.974
95853W        W67382  13.094  19.638   4.675
95854W        W67383  24.073   0.772  13.904
95855W        W67384  17.084  17.303   2.686
95856W        W67385  26.388  30.478   4.170
95857W        W67386  36.519  25.546   0.753
95858W        W67387   6.289  21.128   5.092
95859W        W67388  39.590  17.755  11.063
95860W        W67389  20.280  40.793  12.115
95861W        W67390  16.320  19.780  13.870
95862W        W67391  33.005  35.922   0.644
95863W        W67392   3.398   1.813  11.254
95864W        W67393  35.325  42.261   1.442
95865W        W67394  22.304   0.862   4.644
95866W        W67395  35.218  21.235  12.572
95867W        W67396  19.965  19.595   2.169
95868W        W67397  17.902  25.832   4.086
95869W        W67398  29.513  19.359   2.555
95870W        W67399  30.633   8.435  11.604
95871W        W67400  39.936   3.948   4.049
95872W        W67401  22.136  27.401  14.480
95873W        W67402  44.514  15.243   3.357
95874W        W67403  14.766  37.867  12.613
95875W        W67404   7.856  20.602   2.130
95876W        W67405  20.293  43.188   1.807
95877W        W67406  38.152  29.237  13.089
95878W        W67407   4.166  29.128   4.400
95879W        W67408  26.614  36.864  12.959
95880W        W67409  27.531   0.624   4.288
95881W        W67410  16.623  19.050   4.185
95882W        W67411  41.994  13.345   4.659
95883W        W67412   2.169  19.603   3.634
95884W        W67413   8.813   9.916  10.800
95885W        W67414  31.391  29.589   3.900
95886W        W67415  44.026   6.426  13.927
95887W        W67416  14.481   2.781   3.639
95888W        W67417  25.269  10.207  12.439
95889W        W67418  35.786  23.939  14.395
95890W        W67419  37.880   7.415  13.131
95891W        W67420   3.011  42.208  11.551
95892W        W67421  14.542  19.137   3.145
95893W        W67422   6.551  36.079  11.636
95894W        W67423  20.993  18.049   2.312
95895W        W67424  25.613   6.195  10.426
95896W        W67425  30.325  40.833   2.815
95897W        W67426  29.562  37.837   4.258
95898W        W67427  15.385  35.586   4.612
95899W        W67428  20.126   2.145   3.668
95900W        W67429  32.508  10.922   2.194
95901W        W67430  15.361  43.066  14.373
95902W        W67431   6.901  31.628  12.346
95903W        W67432  19.301  29.611   1.743
95904W        W67433   1.031  18.583   4.281
95905W        W67434  14.128  35.407   1.852
95906W        W67435  42.133  14.146   1.895
95907W        W67436  11.580   1.955   4.188
95908W        W67437  19.095  24.226   1.295
95909W        W67438  41.821  20.794   3.193
95910W        W67439  35.841  20.468   2.752
95911W        W67440   8.695  30.480  10.632
95912W        W67441  39.889  22.142   2.440
95913W        W67442  12.435  40.048  10.700
95914W        W67443  38.492  14.631  11.669
95915W        W67444   8.182  31.616   2.645
95916W        W67445  36.543   9.957  12.028
95917W        W67446   9.348  24.142  12.500
95918W        W67447  33.634  16.205   0.953
95919W        W67448  19.519  10.607   0.648
95920W        W67449  13.282  21.253  13.074
95921W        W67450  35.841  10.419  10.785
95922W        W67451  41.064  31.543  10.640
95923W        W67452  43.348  12.759  12.095
95924W        W67453  32.625   7.804  12.021
95925W        W67454  12.659  22.478   3.664
95926W        W67455  27.455  15.656   2.347
95927W        W67456  33.831   5.109  10.799
95928W        W67457  29.920  41.551   0.862
95929W        W67458  42.355  21.156  11.931
95930W        W67459  10.767  34.899   0.060
95931W        W67460  39.505  34.116   4.810
95932W        W67461  17.077   8.965   2.634
95933W        W67462  29.531   4.411   0.371
95934W        W67463   0.901  31.479   0.645
95935W        W67464  10.290   7.498  12.430
95936W        W67465   9.656  42.029   0.051
95937W        W67466   6.254  34.015   2.405
95938W        W67467  34.087  43.528   1.266
95939W        W67468  11.369  31.133   0.921
95940W        W67469  28.644  34.727   0.985
95941W        W67470  15.147  32.459  10.533
95942W        W67471  20.281  43.875   4.147
95943W        W67472   9.668  22.317  14.271
95944W        W67473  43.227  12.689  11.028
95945W        W67474  12.221   9.591   3.694
95946W        W67475   7.759  26.331  13.032
95947W        W67476  39.363  30.841   1.575
95948W        W67477  36.202  37.949  13.988
95949W        W67478   1.264  38.500  14.234
95950W        W67479  10.562  14.814  11.514
95951W        W67480  36.983  27.877   4.808
95952W        W67481  13.731   8.254   1.242
95953W        W67482  16.229  40.991   2.450
95954W        W67483  38.196  43.775   4.713
95955W        W67484  27.937  13.783  12.666
95956W        W67485  34.557   7.545  11.215
95957W        W67486  26.172  10.099   1.985
95958W        W67487  21.417  15.602   0.531
95959W        W67488  32.218   7.618  11.144
95960W        W67489  26.631  14.329  10.311
95961W        W67490  24.521  14.754   1.963
95962W        W67491  24.544  42.943  13.539
95963W        W67492  21.331  20.067   2.559
95964W        W67493  14.043   3.444  11.499
95965W        W67494   0.079   2.188  14.988
95966W        W67495  25.043  24.836   1.330
95967W        W67496  25.989   5.231  14.816
95968W        W67497   7.194  40.165  14.032
95969W        W67498  35.582  22.025  11.667
95970W        W67499  44.291   6.945   0.671
95971W        W67500  14.672  13.861   1.292
95972W        W67501  15.719  12.634  10.908
95973W        W67502   7.846  40.434   0.774
95974W        W67503  31.915  34.909  10.713
95975W        W67504  24.197   9.336   4.592
95976W        W67505  40.514   3.599   4.616
95977W        W67506   9.192  44.550  13.345
95978W        W67507   7.829  13.261  13.421
95979W        W67508  40.397  44.488   2.561
95980W        W67509  19.188  23.900   0.285
95981W        W67510  42.930  35.805   4.771
95982W        W67511   3.781  24.741  13.076
95983W        W67512  27.989  12.112  11.061
95984W        W67513  12.812  40.132  11.015
95985W        W67514   7.959  23.517  13.119
95986W        W67515  10.874  38.322   0.872
95987W        W67516  42.943  26.261   0.398
95988W        W67517  36.082  43.860  10.729
95989W        W67518  27.160  25.131   4.685
95990W        W67519  21.649  37.101  12.015
95991W        W67520   0.348  26.783  12.470
95992W        W67521   4.560   6.393   1.415
95993W        W67522  38.386   2.970   1.025
95994W        W67523  38.518  19.035  11.614
95995W        W67524  22.938  32.439  13.410
95996W        W67525  19.783  22.741  13.111
95997W        W67526  37.591  42.318  11.997
95998W        W67527  38.880  36.622  11.241
95999W        W67528   8.713  33.514  12.450
96000W        W67529  22.576  20.254  10.742
96001W        W67530  38.952  19.283  11.618
96002W        W67531   8.982  31.376  10.657
96003W        W67532  42.458  23.647   3.241
96004W        W67533  35.877   2.479  13.389
96005W        W67534  33.527  36.893  12.526
96006W        W67535  40.403  33.393  11.144
96007W        W67536  27.187  10.245  14.307
96008W        W67537  26.541  21.705  13.454
96009W        W67538   4.955  41.775   1.475
96010W        W67539  39.042  24.176  10.778
96011W        W67540  22.895  25.679   1.805
96012W        W67541   2.503   5.867   3.153
96013W        W67542  31.641   7.319  11.553
96014W        W67543  31.698  26.680  12.543
96015W        W67544  31.499  20.036   4.868
96016W        W67545  11.611  27.146   4.575
96017W        W67546  13.391  20.438   4.536
96018W        W67547   1.542   7.420  14.295
96019W        W67548   1.150   7.252  10.284
96020W        W67549  40.796  10.973   1.826
96021W        W67550   2.879  23.229  10.688
96022W        W67551  27.717  30.149   2.192
96023W        W67552  43.714   4.491   0.815
96024W        W67553  36.742   3.334  13.981
96025W        W67554  13.127  23.447   3.683
96026W        W67555  30.592   3.725   0.417
96027W        W67556   4.695  30.184  11.963
96028W        W67557  11.110   3.154   1.088
96029W        W67558  34.846  42.796   1.925
96030W        W67559  42.491  28.189  12.815
96031W        W67560  44.276   7.471  11.902
96032W        W67561  43.876  30.451   1.944
96033W        W67562  18.252  17.317  11.953
96034W        W67563  32.352   8.825  11.607
96035W        W67564  31.170  43.829  12.327
96036W        W67565   7.155   2.448  11.597
96037W        W67566  39.320   5.210   0.044
96038W        W67567   6.934  36.613  14.057
96039W        W67568   5.609  16.525  11.041
96040W        W67569  18.057  43.313  13.494
96041W        W67570  21.187   2.814  11.674
96042W        W67571  20.629  17.317  10.581
96043W        W67572  40.330  33.938   1.215
96044W        W67573  22.050   2.918  11.218
96045W        W67574   6.044  28.453   1.728
96046W        W67575  35.045  27.649   2.001
96047W        W67576  40.004   5.334  13.950
96048W        W67577  27.494  12.393  12.068
96049W        W67578  28.980   4.678   4.834
96050W        W67579  21.282   0.215  14.586
96051W        W67580  18.818  39.493  12.079
96052W        W67581   9.582  22.327  12.923
96053W        W67582  13.916  29.368   0.950
96054W        W67583  11.420   0.983  13.556
96055W        W67584   0.447   0.497  10.750
96056W        W67585  20.610  40.345  14.413
96057W        W67586  15.749  34.612  12.344
96058W        W67587  37.530   5.140   0.192
96059W        W67588  32.179  33.252  11.431
96060W        W67589  38.002  16.671  10.673
96061W        W67590  13.233  33.990   1.134
96062W        W67591   9.124   3.330  14.962
96063W        W67592  44.685   1.756   4.533
96064W        W67593   9.225  23.966  14.864
96065W        W67594  41.886  19.721   1.019
96066W        W67595  38.791  34.821   2.461
96067W        W67596  44.520  40.582  11.561
96068W        W67597   1.219  28.056  10.664
96069W        W67598  23.798  35.922  14.825
96070W        W67599   6.803  35.600  11.578
96071W        W67600   9.204  23.665  12.379
96072W        W67601  27.646  22.095   1.190
96073W        W67602  12.089  36.988  13.450
96074W        W67603  34.133  25.650  12.618
96075W        W67604  39.866  33.148   3.547
96076W        W67605  25.173  19.759   5.141
96077W        W67606  30.741  21.626  12.816
96078W        W67607  31.118  31.067   2.728
96079W        W67608   9.005  35.375   1.654
96080W        W67609  22.043  19.101  10.756
96081W        W67610  10.474   3.967  11.779
96082W        W67611  15.544  20.304  14.226
96083W        W67612  12.222  11.463   1.883
96084W        W67613  29.582  36.007   0.682
96085W        W67614  12.409  17.818   2.656
96086W        W67615   3.300  22.974  14.970
96087W        W67616  22.698  16.269   2.327
96088W        W67617  33.525  37.944  10.492
96089W        W67618   5.093  40.264   3.356
96090W        W67619   3.046  33.095  12.424
96091W        W67620  19.821  22.504   4.171
96092W        W67621   4.635  17.596  13.344
96093W        W67622  23.660  35.369   0.807
96094W        W67623  18.866   4.200  11.635
96095W        W67624   1.785  26.588  13.411
96096W        W67625  32.194  37.957  12.916
96097W        W67626  10.365  42.002   0.484
96098W        W67627  25.082  15.196   0.804
96099W        W67628  19.051  36.930  11.402
96100W        W67629   1.351  15.056  14.437
96101W        W67630  14.316  44.196  11.274
96102W        W67631  36.337  31.480   4.511
96103W        W67632  18.456   8.949   1.707
96104W        W67633  22.175  37.834  12.016
96105W        W67634  28.066  38.417  10.759
96106W        W67635  40.264  22.901   2.984
96107W        W67636  44.807  22.814   0.106
96108W        W67637  32.963   5.470  12.517
96109W        W67638   3.865  37.983  14.058
96110W        W67639   2.598  29.063  11.494
96111W        W67640  14.253  43.574   1.262
96112W        W67641  19.815  23.194  11.577
96113W        W67642  11.065   7.111   3.621
96114W        W67643   8.941  41.575   0.948
96115W        W67644  10.937  23.934  10.967
96116W        W67645   9.736  40.423   2.189
96117W        W67646  31.408  25.053  11.235
96118W        W67647  23.783  17.346  10.803
96119W        W67648  34.357  21.310  14.616
96120W        W67649  13.251  19.562  13.524
96121W        W67650   4.967  11.996  13.925
96122W        W67651  44.766  34.585   4.792
96123W        W67652  34.423  12.631  10.660
96124W        W67653  14.191  22.216   4.867
96125W        W67654   1.667  23.105  12.903
96126W        W67655   3.140   7.677  13.519
96127W        W67656  36.872   3.862  11.669
96128W        W67657  16.582  19.520   4.990
96129W        W67658   0.427  43.768   2.337
96130W        W67659  39.257   3.087  13.921
96131W        W67660  41.019  25.039  12.027
96132W        W67661  13.306  28.207   4.561
96133W        W67662  14.122  27.905  14.009
96134W        W67663  41.496  27.589  14.706
96135W        W67664  22.130  37.897  13.044
96136W        W67665  23.644  32.091  11.480
96137W        W67666  10.160  33.011   3.737
96138W        W67667  23.705  13.473   1.086
96139W        W67668  14.610  15.168  13.425
96140W        W67669  13.189   2.421  10.977
96141W        W67670   8.626  35.603  11.076
96142W        W67671  42.896  43.548  14.301
96143W        W67672   7.302  18.628   3.057
96144W        W67673  33.777  31.812   2.339
96145W        W67674  37.129  38.109   3.617
96146W        W67675  30.520   9.641   4.168
96147W        W67676  27.702  16.083  12.989
96148W        W67677   4.842  21.239  13.105
96149W        W67678  28.020  40.091  10.306
96150W        W67679  25.404  42.489   4.347
96151W        W67680  36.910  39.270   1.269
96152W        W67681  40.362  24.466  12.065
96153W        W67682   8.935  38.159   4.011
96154W        W67683   1.972  24.461   2.833
96155W        W67684   0.606  41.306   1.966
96156W        W67685   5.697  14.841  14.368
96157W        W67686   5.968  26.664   2.961
96158W        W67687  10.556  36.912  13.452
96159W        W67688  22.941  13.496  13.553
96160W        W67689  44.465  35.825  11.623
96161W        W67690  43.047  28.183   2.392
96162W        W67691  35.880  31.003  12.909
96163W        W67692  10.409  16.155  10.025
96164W        W67693   2.264   9.716  12.885
96165W        W67694  38.845   5.480   2.462
96166W        W67695   2.654  39.774  14.679
96167W        W67696  32.069   9.158   5.069
96168W        W67697  32.823  31.403  13.967
96169W        W67698   0.300  21.719  14.900
96170W        W67699  40.740  38.460  10.474
96171W        W67700   3.306  43.441  13.290
96172W        W67701  16.250  17.555   2.347
96173W        W67702   9.839  10.673   3.909
96174W        W67703  42.369  39.965  13.388
96175W        W67704   0.382   3.223  14.313
96176W        W67705  34.510  38.504   0.186
96177W        W67706  20.257  22.360  12.019
96178W        W67707  27.461  28.490   0.389
96179W        W67708   5.289   3.683  12.871
96180W        W67709  18.562  32.981   2.693
96181W        W67710  17.639   3.262   3.826
96182W        W67711  18.453   6.337  12.973
96183W        W67712  30.780  24.677   2.285
96184W        W67713  37.027  31.635  11.955
96185W        W67714   1.586  38.975  13.016
96186W        W67715   5.852  44.887   0.851
96187W        W67716   8.788  25.687   4.322
96188W        W67717  21.097  12.329   1.775
96189W        W67718   2.298  44.768  11.053
96190W        W67719  39.880  27.471  14.016
96191W        W67720  35.646   7.850  14.466
96192W        W67721  10.100  43.348  14.463
96193W        W67722  24.681  16.344   2.653
96194W        W67723  28.563  24.590  10.844
96195W        W67724  12.875  40.530   3.743
96196W        W67725   3.733  24.004   2.760
96197W        W67726   8.867  27.842   3.862
96198W        W67727  18.250  31.104   1.458
96199W        W67728   2.876  43.931  11.131
96200W        W67729  14.094  10.661  11.325
96201W        W67730   1.263  26.644  14.288
96202W        W67731  28.553  14.438  11.072
96203W        W67732  41.854   0.716   3.796
96204W        W67733   2.499  21.360   1.667
96205W        W67734  19.195  33.540   4.674
96206W        W67735   1.231  29.136  12.588
96207W        W67736  20.595  44.990   3.255
96208W        W67737   0.753  40.133  12.845
96209W        W67738   8.570   8.273  14.923
96210W        W67739   8.344  17.138  14.573
96211W        W67740  32.569  16.584   4.459
96212W        W67741  39.941  28.596   2.038
96213W        W67742   2.327   5.277   3.743
96214W        W67743  13.605  30.118   2.769
96215W        W67744   6.889  31.470   3.312
96216W        W67745  10.477  22.619   2.601
96217W        W67746  34.161  35.043   1.180
96218W        W67747  13.831   7.447   2.207
96219W        W67748  38.615  38.008  12.467
96220W        W67749  11.225  15.793  11.441
96221W        W67750  34.014  43.827   4.918
96222W        W67751  38.711   2.589   0.733
96223W        W67752  15.874   2.296   4.970
96224W        W67753  36.850   2.719   2.275
96225W        W67754  33.973  16.318   4.246
96226W        W67755  17.266  23.711  12.013
96227W        W67756  27.560  31.315   4.200
96228W        W67757  44.413  41.426   2.823
96229W        W67758  44.655  39.374  11.331
96230W        W67759  29.852   5.492   0.959
96231W        W67760  14.243  31.610  12.568
96232W        W67761   6.363  32.132  13.874
96233W        W67762   5.668   6.438  12.941
96234W        W67763  30.641  44.241   0.406
96235W        W67764  34.589  30.992  13.721
96236W        W67765  15.220   6.151   0.380
96237W        W67766  29.717  23.409  11.174
96238W        W67767  23.194   8.617   3.682
96239W        W67768  10.398  18.670   1.112
96240W        W67769  28.237  42.086   3.838
96241W        W67770  23.449  17.375  13.038
96242W        W67771  39.809  40.807  13.485
96243W        W67772  24.154  25.806  13.771
96244W        W67773  32.428  39.573  13.928
96245W        W67774  28.499  39.299   0.348
96246W        W67775  37.956  38.834  14.421
96247W        W67776  23.194  23.748   1.961
96248W        W67777   1.915  25.954  11.214
96249W        W67778  17.641  29.661   2.453
96250W        W67779  30.889  31.144  12.894
96251W        W67780  28.495   0.723  13.091
96252W        W67781   8.668  21.580   3.196
96253W        W67782  28.631  34.031  12.044
96254W        W67783  18.068   9.612  11.081
96255W        W67784  23.633  33.616  13.612
96256W        W67785  10.577  32.030  14.701
96257W        W67786   4.452  36.502  11.533
96258W        W67787  28.903   4.264  11.084
96259W        W67788  31.520  24.468   1.306
96260W        W67789  37.361  18.205  10.936
96261W        W67790   7.641  41.151  11.512
96262W        W67791  40.711  18.932  12.283
96263W        W67792  38.094  13.642  13.621
96264W        W67793   9.217  35.545   2.451
96265W        W67794  23.520  43.447  11.669
96266W        W67795  29.015  13.717  13.491
96267W        W67796  30.545  28.911   3.772
96268W        W67797  23.732  15.145   1.630
96269W        W67798  36.289   9.871   4.536
96270W        W67799  44.400   7.399  13.912
96271W        W67800   7.110   8.014   4.635
96272W        W67801  21.612  13.556   3.260
96273W        W67802  14.220  34.820  10.727
96274W        W67803   0.205  11.832  12.499
96275W        W67804  37.035  40.962   2.584
96276W        W67805  24.289  13.048  11.372
96277W        W67806  23.407  40.786  14.778
96278W        W67807  34.780  11.247  13.907
96279W        W67808  25.542  10.390   4.510
96280W        W67809  18.657  43.551  12.499
96281W        W67810  17.170  28.902  13.046
96282W        W67811  32.052  19.792   0.893
96283W        W67812  25.241   2.823  13.116
96284W        W67813  34.944   9.506   3.491
96285W        W67814  14.280   0.404  11.638
96286W        W67815   7.805   0.476   2.864
96287W        W67816  36.682  21.279  11.188
96288W        W67817  42.234   6.797   4.694
96289W        W67818  41.907  30.583  14.706
96290W        W67819  42.598  38.006  10.698
96291W        W67820  42.383  29.775   1.283
96292W        W67821  28.855  17.088  12.880
96293W        W67822  12.605  42.395   0.003
96294W        W67823  39.652   8.301  12.522
96295W        W67824  41.562  38.530  14.910
96296W        W67825  40.815   8.389  14.489
96297W        W67826  26.259   8.517   0.248
96298W        W67827  35.921   9.130  14.512
96299W        W67828  32.979  15.332  13.021
96300W        W67829  25.507   1.010   2.230
96301W        W67830  28.924  28.925   2.445
96302W        W67831  12.905   9.805   0.370
96303W        W67832   7.848  44.006  14.859
96304W        W67833   7.002  34.634  14.761
96305W        W67834  12.673   9.300  11.064
96306W        W67835   5.335  39.641   0.344
96307W        W67836   7.856  38.977  13.363
96308W        W67837  15.873   3.241  10.815
96309W        W67838  21.632  22.063   3.884
96310W        W67839  43.577  42.342   4.549
96311W        W67840   0.003  16.742  12.916
96312W        W67841   3.233  38.859   1.316
96313W        W67842   3.006   6.792   2.175
96314W        W67843   6.248  25.636  12.968
96315W        W67844  31.080  39.833  14.747
96316W        W67845  42.428  40.436   3.791
96317W        W67846  26.174  14.988  12.891
96318W        W67847   0.580   7.802   0.126
96319W        W67848  37.234  23.930   1.816
96320W        W67849   1.494  40.143   0.961
96321W        W67850  32.558  18.063   4.360
96322W        W67851  10.319  38.847  11.468
96323W        W67852  19.805  17.333  11.861
96324W        W67853  18.225  22.204  10.808
96325W        W67854  31.116  16.249  10.660
96326W        W67855  16.961  26.537   1.873
96327W        W67856   1.680  20.686   1.907
96328W        W67857   3.713  43.704  12.656
96329W        W67858   1.207   0.801   1.826
96330W        W67859   7.302  33.446  14.306
96331W        W67860  37.964  37.007  10.921
96332W        W67861   5.690  10.658   0.368
96333W        W67862  43.661  16.331  11.903
96334W        W67863   7.881  26.748   4.165
96335W        W67864  22.920  27.172  10.839
96336W        W67865  38.644   4.489  12.512
96337W        W67866  41.289   6.441  11.442
96338W        W67867   6.904  34.566   2.696
96339W        W67868  17.182   9.570   1.780
96340W        W67869  19.755  39.044  13.877
96341W        W67870  35.343  42.390  10.783
96342W        W67871  12.762  38.580  14.229
96343W        W67872  24.709  28.160   2.825
96344W        W67873   8.169   5.585   1.200
96345W        W67874  14.788  24.752  14.422
96346W        W67875   4.797  11.105   1.432
96347W        W67876  34.359   8.883   0.743
96348W        W67877  31.304  11.673   3.893
96349W        W67878  13.395  32.376   3.724
96350W        W67879  27.427   0.742   1.169
96351W        W67880   7.769  43.362   4.039
96352W        W67881  16.380  43.138   3.321
96353W        W67882  28.256  17.139  10.713
96354W        W67883  26.255   6.599  11.499
96355W        W67884  29.465   2.068   2.657
96356W        W67885  43.342  12.789   3.687
96357W        W67886  34.663  17.563  14.952
96358W        W67887   2.393  42.328  12.612
96359W        W67888  21.955  24.921   2.164
96360W        W67889  18.587  32.529  14.847
96361W        W67890  31.269  28.737   4.502
96362W        W67891  16.489  31.427   0.744
96363W        W67892  23.740  11.353  11.563
96364W        W67893  36.618  30.124   0.254
96365W        W67894  28.139  44.887   3.126
96366W        W67895  23.229  27.110   4.350
96367W        W67896  41.420  25.585   1.023
96368W        W67897  41.613  19.539   4.599
96369W        W67898   5.302  28.301   3.342
96370W        W67899  13.324  35.468  10.460
96371W        W67900  40.324  23.405   2.815
96372W        W67901  36.470  15.142   0.397
96373W        W67902   1.943  41.549  10.819
96374W        W67903  39.457  25.690  14.046
96375W        W67904  31.971  10.388  12.544
96376W        W67905   8.699  25.847   5.118
96377W        W67906   6.436  19.580   1.877
96378W        W67907  12.347  24.474   2.803
96379W        W67908  26.095  32.132   3.237
96380W        W67909   8.136  11.907  13.055
96381W        W67910  29.508  25.480   1.962
96382W        W67911  44.185   5.169   3.117
96383W        W67912  42.302  19.650   1.332
96384W        W67913  41.689  10.201  13.408
96385W        W67914  10.776   1.641   2.925
96386W        W67915   6.260  34.886  14.888
96387W        W67916   1.266  41.835  11.554
96388W        W67917  12.794  32.012  14.607
96389W        W67918   1.713  22.852   4.130
96390W        W67919   4.029   8.765  11.188
96391W        W67920   6.877  14.655   4.612
96392W        W67921  19.503  38.125   3.392
96393W        W67922   1.547  35.141   4.021
96394W        W67923  44.957  39.318   4.297
96395W        W67924  27.507   1.528  14.875
96396W        W67925  11.721  24.319  10.747
96397W        W67926  38.464  12.435   3.114
96398W        W67927  34.417  31.947   3.758
96399W        W67928   0.548  12.208   4.031
96400W        W67929  42.490  18.175   3.892
96401W        W67930   5.213  22.254  14.010
96402W        W67931  15.038   9.365   0.936
96403W        W67932  41.936   3.944  13.408
96404W        W67933  32.317  41.414   3.759
96405W        W67934  18.016   5.887   2.431
96406W        W67935  35.059  29.409   4.977
96407W        W67936  38.734  32.001  11.561
96408W        W67937  21.452  39.272  14.460
96409W        W67938  28.783   7.180   0.652
96410W        W67939  11.900  15.150  10.435
96411W        W67940  27.035  34.520  12.360
96412W        W67941   9.433  22.796   2.244
96413W        W67942  25.102   1.534  11.945
96414W        W67943  28.392   0.376   4.782
96415W        W67944  16.070  42.806   2.328
96416W        W67945  13.237  36.378   1.618
96417W        W67946  27.521  24.499  14.297
96418W        W67947  28.540  20.342   0.935
96419W        W67948   8.835  38.321  10.647
96420W        W67949  15.628  38.165   0.883
96421W        W67950  24.565  12.369  13.945
96422W        W67951  16.987  21.535   1.268
96423W        W67952  25.336  28.095  11.208
96424W        W67953  22.271  40.075  12.470
96425W        W67954  44.572  39.517  12.151
96426W        W67955  43.259  44.358   1.046
96427W        W67956   1.580  27.941  13.485
96428W        W67957   7.293  28.139  12.048
96429W        W67958  23.643  23.206   3.797
96430W        W67959  39.030  16.759  13.970
96431W        W67960  11.319  23.413  13.324
96432W        W67961  14.301   0.318   1.839
96433W        W67962   7.211  38.446  14.431
96434W        W67963  28.014   3.295   4.546
96435W        W67964   3.833  19.317   3.928
96436W        W67965  32.954  21.967   0.529
96437W        W67966  26.743  14.546   2.458
96438W        W67967  43.472  12.614   0.399
96439W        W67968  36.594  12.219  13.521
96440W        W67969   1.488  10.330  12.992
96441W        W67970  36.793  33.155  12.002
96442W        W67971  19.061  14.846  11.169
96443W        W67972  20.451   7.023  12.329
96444W        W67973  17.196   5.347   0.754
96445W        W67974  22.047  21.759  12.408
96446W        W67975  15.857  11.343  11.689
96447W        W67976  13.153  35.472  11.793
96448W        W67977  44.325  40.832  10.529
96449W        W67978  13.839  31.112  10.621
96450W        W67979   3.940  12.247   4.560
96451W        W67980   6.509  29.091   4.229
96452W        W67981  39.784  38.247   4.130
96453W        W67982   2.812  18.768   4.633
96454W        W67983  20.000  33.616  11.978
96455W        W67984  24.575  39.107  14.904
96456W        W67985   3.416  43.114  12.012
96457W        W67986  13.627  33.959  11.615
96458W        W67987  29.768  21.583  12.623
96459W        W67988  29.240  16.868   0.686
96460W        W67989   4.614  19.950   3.174
96461W        W67990  10.180  23.421  11.603
96462W        W67991  32.630  35.376  10.823
96463W        W67992  41.063  42.754  13.421
96464W        W67993  19.737  38.787   4.857
96465W        W67994  44.489  16.744  12.829
96466W        W67995   3.228  43.520  11.133
96467W        W67996  41.486  38.565  11.136
96468W        W67997  43.397  10.108  13.843
96469W        W67998   6.694  22.071  10.634
96470W        W67999   5.523   6.701   1.310
96471W        W68000  25.929  12.142   0.351
96472W        W68001   6.355  38.914   1.217
96473W        W68002  42.751  17.440  11.260
96474W        W68003  34.341   0.337  13.850
96475W        W68004  10.093   7.882   5.116
96476W        W68005  43.114  36.699  11.597
96477W        W68006   7.842  27.983   0.286
96478W        W68007  22.197  12.575   0.161
96479W        W68008  24.257  28.524   0.774
96480W        W68009   7.409  21.541  11.635
96481W        W68010  26.841  35.136  11.135
96482W        W68011  35.603   3.129  11.201
96483W        W68012  20.150  15.960   4.635
96484W        W68013  43.687  31.173  13.385
96485W        W68014   0.863  11.179  12.130
96486W        W68015  22.334  25.557  12.852
96487W        W68016  13.683  10.989  13.304
96488W        W68017  24.612   3.888   0.951
96489W        W68018  20.813  28.454   0.346
96490W        W68019  12.093  33.568   1.872
96491W        W68020   3.455   5.627  14.112
96492W        W68021  19.489  29.085  14.062
96493W        W68022   1.169   6.408   2.275
96494W        W68023  15.058  28.499  12.390
96495W        W68024  43.068  22.809   4.444
96496W        W68025  11.702  38.467   1.231
96497W        W68026  16.723  35.882   4.717
96498W        W68027  25.411  41.774  11.988
96499W        W68028  30.612  21.984  11.618
96500W        W68029   9.767  24.361  13.398
96501W        W68030  38.929  26.327   1.506
96502W        W68031  17.609   0.734  14.864
96503W        W68032  40.800   4.966  13.941
96504W        W68033  20.017  30.987   3.440
96505W        W68034  43.466   5.647  10.756
96506W        W68035   3.999  27.829  13.044
96507W        W68036  30.678  15.236   2.248
96508W        W68037   6.939  23.526  12.921
96509W        W68038  11.192  36.077   0.018
96510W        W68039  17.011  20.043  14.388
96511W        W68040  42.149  42.950   3.848
96512W        W68041  10.809   7.898   3.802
96513W        W68042  11.414  38.790  14.474
96514W        W68043  29.215  39.433   2.881
96515W        W68044  37.774  15.286  13.226
96516W        W68045  27.105  24.278  13.506
96517W        W68046  37.344  34.659   2.739
96518W        W68047  14.558  29.573   4.132
96519W        W68048   0.299  18.278   1.863
96520W        W68049  13.636  14.323   0.368
96521W        W68050  38.490  44.486   4.135
96522W        W68051  11.154  20.509   2.290
96523W        W68052   9.996  30.856  12.405
96524W        W68053  21.571   5.439   2.258
96525W        W68054  31.848  38.421  13.672
96526W        W68055  23.099  43.443  12.928
96527W        W68056   4.355   0.339  14.178
96528W        W68057  41.418   9.170   3.926
96529W        W68058  33.918  29.851  14.809
96530W        W68059  38.379  11.921   3.166
96531W        W68060   7.502  23.414  12.222
96532W        W68061  27.829  31.063   4.556
96533W        W68062  44.738  33.329  11.260
96534W        W68063  16.628  21.649   0.143
96535W        W68064  21.391  12.632   4.684
96536W        W68065  33.518  42.300   1.201
96537W        W68066  34.294  15.078  11.355
96538W        W68067  41.745  13.441   3.365
96539W        W68068  32.395   7.175   3.648
96540W        W68069  29.883  16.149  13.969
96541W        W68070   9.064   5.393   2.285
96542W        W68071  28.739  31.635  12.048
96543W        W68072  20.201  41.191   2.245
96544W        W68073  17.554  26.008   2.575
96545W        W68074  43.368  18.037   1.234
96546W        W68075  13.882  40.950   2.145
96547W        W68076  29.169  26.951  12.883
96548W        W68077  31.187  21.721  10.737
96549W        W68078   2.860  31.570  11.545
96550W        W68079  29.404  14.045  13.419
96551W        W68080  38.511  43.982   1.022
96552W        W68081  10.882  23.249   4.783
96553W        W68082  25.595  35.031  11.698
96554W        W68083  25.067  11.261   1.672
96555W        W68084  25.194   4.031   1.161
96556W        W68085  15.977  29.383  14.866
96557W        W68086  40.071  37.436  14.836
96558W        W68087   1.874  21.788  11.110
96559W        W68088  13.525  10.717  12.898
96560W        W68089  44.008   4.922   2.675
96561W        W68090  29.494  20.659  13.061
96562W        W68091  22.226  10.738  10.715
96563W        W68092  24.196   4.239  13.340
96564W        W68093  16.046  19.195   4.178
96565W        W68094  23.557  26.452  14.383
96566W        W68095  15.830   4.957   2.816
96567W        W68096   6.770   1.471  13.063
96568W        W68097  38.352  37.401   4.131
96569W        W68098   2.381  21.601  11.081
96570W        W68099   1.447  34.835   3.570
96571W        W68100  44.762  25.279  11.381
96572W        W68101  15.074  43.996   1.962
96573W        W68102   3.824   4.364  12.990
96574W        W68103   8.212   1.047  10.572
96575W        W68104   0.733  32.884  12.105
96576W        W68105  13.130   3.738  14.946
96577W        W68106  31.900  11.295  10.804
96578W        W68107   0.203  44.783   0.788
96579W        W68108  29.047  11.339  12.043
96580W        W68109  26.193  31.613   3.331
96581W        W68110  19.349  43.754   0.996
96582W        W68111   7.557  41.430   2.371
96583W        W68112  29.974  16.679  12.277
96584W        W68113  32.465  28.758   3.902
96585W        W68114   0.084  37.187   3.975
96586W        W68115   9.501  20.751  14.713
96587W        W68116   7.199  36.451  10.747
96588W        W68117  33.775  10.354  14.730
96589W        W68118  19.257  19.661   0.827
96590W        W68119  38.893   9.658  10.648
96591W        W68120  36.820  17.231   0.233
96592W        W68121  15.534  44.925  12.968
96593W        W68122   1.687  26.244   4.498
96594W        W68123  16.137   2.238   3.663
96595W        W68124  22.486  38.003   4.724
96596W        W68125  24.024  26.986  13.024
96597W        W68126  42.753  25.646   0.307
96598W        W68127   8.137  28.097   0.690
96599W        W68128  20.503  27.084   3.610
96600W        W68129  11.255  14.870   0.288
96601W        W68130  18.625  19.728   9.983
96602W        W68131  38.552   9.730   1.976
96603W        W68132  13.252  18.061  11.645
96604W        W68133   1.318  36.123   2.711
96605W        W68134  31.475   1.939   0.847
96606W        W68135  21.630   2.714   0.884
96607W        W68136  17.817   0.863  13.253
96608W        W68137  27.121  26.785   0.791
96609W        W68138  27.759  26.479  13.249
96610W        W68139  25.940  44.963  12.084
96611W        W68140  26.966  36.041   2.920
96612W        W68141  34.215  22.565   2.768
96613W        W68142  26.187   5.658   3.681
96614W        W68143  18.626  34.878  11.972
96615W        W68144   9.753  42.399  11.354
96616W        W68145  31.641  39.355  14.541
96617W        W68146   3.722  21.486   1.439
96618W        W68147  41.458  20.267  13.944
96619W        W68148   2.806   8.389  14.276
96620W        W68149  31.674  11.675   3.545
96621W        W68150  40.908  27.172  12.093
96622W        W68151  38.848  39.237  14.184
96623W        W68152  33.588  15.713  13.861
96624W        W68153  10.689  44.376  13.054
96625W        W68154  37.461  20.940   0.352
96626W        W68155  19.141  29.003  11.031
96627W        W68156  44.681   4.454   4.686
96628W        W68157  36.876   2.547   4.321
96629W        W68158  19.541  35.385  12.826
96630W        W68159  17.194  10.579   1.688
96631W        W68160  25.617  36.153  14.382
96632W        W68161   4.481   7.837   0.203
96633W        W68162  27.657  41.778   4.566
96634W        W68163  44.928   9.703  11.565
96635W        W68164  41.955  12.704  13.327
96636W        W68165  33.623  21.187  12.832
96637W        W68166   0.756  10.154   0.558
96638W        W68167  22.863  38.945   4.544
96639W        W68168  10.907  10.914  14.388
96640W        W68169  11.372  16.813   0.448
96641W        W68170  20.739  13.390   3.313
96642W        W68171  30.448  28.434  11.576
96643W        W68172  20.660   4.308  11.351
96644W        W68173  15.051  35.395   0.962
96645W        W68174   8.155   0.858   9.753
96646W        W68175  22.702  40.260   1.305
96647W        W68176  34.848  25.522   3.161
96648W        W68177  22.422  12.404  14.276
96649W        W68178  19.127  35.401   0.315
96650W        W68179   0.522  16.911  10.227
96651W        W68180  40.148  23.752  13.976
96652W        W68181  28.570   4.758  13.055
96653W        W68182   8.703  33.489   0.930
96654W        W68183  38.390  30.103   4.636
96655W        W68184   4.858  43.826  13.391
96656W        W68185  40.162   4.620  12.102
96657W        W68186  40.558  13.108  11.870
96658W        W68187   2.293  23.701  12.945
96659W        W68188  39.955  26.735  14.609
96660W        W68189  26.917  37.455   3.637
96661W        W68190   5.688  25.473   4.541
96662W        W68191  38.965  14.372  11.665
96663W        W68192  20.183   3.838  14.823
96664W        W68193  42.988  19.659  12.382
96665W        W68194  18.632  34.091   0.385
96666W        W68195  39.883   1.369   4.189
96667W        W68196  12.098  24.082   1.042
96668W        W68197   0.773  37.436   1.737
96669W        W68198  34.230  34.333   1.401
96670W        W68199  41.711  30.451   1.416
96671W        W68200  14.330   1.261  10.921
96672W        W68201  42.646   2.193   3.702
96673W        W68202  21.537  44.713   0.410
96674W        W68203  42.545  34.006   4.821
96675W        W68204   3.390  26.966  13.051
96676W        W68205  40.465   5.650   1.363
96677W        W68206  18.027  41.723   2.871
96678W        W68207   9.784  22.693   0.259
96679W        W68208  13.828   7.453   3.359
96680W        W68209  27.420  22.527   2.134
96681W        W68210  25.574  30.544   4.088
96682W        W68211   6.872  31.437   4.884
96683W        W68212  27.368  33.657  13.020
96684W        W68213  26.970   4.944   1.273
96685W        W68214  19.704  14.804   4.614
96686W        W68215  36.813   1.318   0.972
96687W        W68216  35.574  33.408  12.444
96688W        W68217  31.709  13.852  11.602
96689W        W68218   2.674  31.834  14.871
96690W        W68219  44.952  14.076  12.509
96691W        W68220  19.541  12.894   1.412
96692W        W68221  13.355  44.283   3.734
96693W        W68222  20.217  30.670  14.138
96694W        W68223   9.063   4.376  12.388
96695W        W68224  32.365   6.737   2.346
96696W        W68225  29.406  10.262   1.724
96697W        W68226   0.017  34.463  13.688
96698W        W68227  11.339  28.316  13.533
96699W        W68228  34.607   8.662   1.942
96700W        W68229  43.453   1.908   2.198
96701W        W68230  23.568  42.314  14.764
96702W        W68231   9.828  29.786   5.071
96703W        W68232  21.103   3.671   2.029
96704W        W68233  21.203  37.643  12.765
96705W        W68234  12.456  28.069  10.818
96706W        W68235   6.468  28.134   2.873
96707W        W68236   7.685  33.946  12.117
96708W        W68237  14.727   7.145  10.272
96709W        W68238   3.499  22.148  11.987
96710W        W68239  14.243  42.052   1.334
96711W        W68240  20.430  33.736   1.140
96712W        W68241  31.070  25.150  11.619
96713W        W68242  36.819  20.674  11.953
96714W        W68243  23.138  43.263  10.724
96715W        W68244  11.684   2.626   3.117
96716W        W68245  37.265  40.364   0.703
96717W        W68246  40.622  10.084  13.786
96718W        W68247  41.405  16.941   3.816
96719W        W68248  16.322  22.136  12.053
96720W        W68249  44.512  21.228  10.725
96721W        W68250  15.092  12.501   2.593
96722W        W68251  41.274  39.582   2.215
96723W        W68252  40.742  12.604   4.114
96724W        W68253  38.116  15.167  11.894
96725W        W68254   9.581  42.080  14.542
96726W        W68255   8.693  15.298   3.692
96727W        W68256  33.492  34.301  13.113
96728W        W68257  31.347   9.145  13.488
96729W        W68258  28.404  15.164   5.087
96730W        W68259  10.815  34.328  14.340
96731W        W68260   7.659  14.856   4.305
96732W        W68261  12.258  30.212   2.757
96733W        W68262  33.492  39.311  12.347
96734W        W68263   5.871  14.321  13.159
96735W        W68264   9.728  31.571  14.795
96736W        W68265  15.745   8.600   1.826
96737W        W68266  30.110  39.218   3.706
96738W        W68267   0.771  40.959  14.577
96739W        W68268  25.628  24.177  11.874
96740W        W68269  26.987  15.345   0.972
96741W        W68270  24.583  44.722  12.797
96742W        W68271  13.777   3.449  10.598
96743W        W68272  10.272   1.322   4.213
96744W        W68273  15.270  23.844  11.396
96745W        W68274  41.972  15.103   2.124
96746W        W68275  19.517  11.775   2.238
96747W        W68276   7.954  35.559  14.398
96748W        W68277  15.386  43.405   2.700
96749W        W68278  14.309   7.181  11.417
96750W        W68279  23.047  16.006   4.170
96751W        W68280  32.608  38.434   3.435
96752W        W68281  17.251  44.978   4.577
96753W        W68282   9.399  40.311  13.180
96754W        W68283   4.785   6.880   3.899
96755W        W68284  22.405   3.020  11.564
96756W        W68285  21.846  11.148   0.135
96757W        W68286   7.711  34.586   2.265
96758W        W68287  30.414   2.751   0.708
96759W        W68288  40.542  27.470  12.888
96760W        W68289   6.043  16.107   1.675
96761W        W68290  41.518  15.572   1.479
96762W        W68291  39.028  38.889  10.827
96763W        W68292  24.879  40.546  12.512
96764W        W68293  12.905  13.852   1.633
96765W        W68294  14.629   8.200   2.736
96766W        W68295  15.765  21.813   1.667
96767W        W68296   7.556   8.263   2.365
96768W        W68297  24.873  39.062  11.159
96769W        W68298  20.843   6.659  10.822
96770W        W68299  14.086  29.424  10.670
96771W        W68300  19.286   9.189   3.371
96772W        W68301  36.435  43.882   0.286
96773W        W68302  42.587  13.126   0.425
96774W        W68303  12.934   9.941   2.215
96775W        W68304  44.742  14.910   1.989
96776W        W68305  41.054  30.988  12.568
96777W        W68306  24.498  25.939   2.226
96778W        W68307  27.143  42.086   3.793
96779W        W68308  18.623  41.262  14.366
96780W        W68309  31.368  30.051   1.930
96781W        W68310  27.476  30.968  14.759
96782W        W68311   8.446  42.509  14.084
96783W        W68312   4.929  16.910   3.898
96784W        W68313  12.683  11.882   0.194
96785W        W68314  28.055  43.563   3.122
96786W        W68315  12.697   2.890  10.547
96787W        W68316   1.466  25.159   4.414
96788W        W68317  16.783   1.827  14.736
96789W        W68318  24.057  24.913   2.266
96790W        W68319  26.203   7.893  10.721
96791W        W68320   0.722  30.921  14.595
96792W        W68321  14.169   7.374   1.709
96793W        W68322  22.486  44.658   3.600
96794W        W68323  31.707  11.252  13.924
96795W        W68324  33.424  14.533   4.514
96796W        W68325  31.951   2.669   0.287
96797W        W68326   7.422  20.645   3.305
96798W        W68327  25.914  29.111  10.644
96799W        W68328  37.995  31.308  10.337
96800W        W68329  20.980  16.060   3.619
96801W        W68330   1.961  41.797  12.065
96802W        W68331   2.496  34.741   9.803
96803W        W68332  28.038   0.144   0.571
96804W        W68333  39.189  24.211   0.664
96805W        W68334   5.386  24.543  14.995
96806W        W68335  42.768  43.515   0.480
96807W        W68336  19.934  40.030  14.872
96808W        W68337  25.407   4.319  11.624
96809W        W68338   7.639  15.683  11.001
96810W        W68339  27.597  19.561  13.817
96811W        W68340  20.027  14.283   2.308
96812W        W68341  33.652  44.240  13.791
96813W        W68342  42.343  18.019  11.250
96814W        W68343  20.644   7.981   4.122
96815W        W68344  34.419  31.636  13.946
96816W        W68345  24.269  32.489   0.760
96817W        W68346   1.466  25.657  12.835
96818W        W68347  37.062  25.451   0.792
96819W        W68348   4.430  10.336  14.525
96820W        W68349  22.047  36.624   3.801
96821W        W68350   4.934  33.741  12.300
96822W        W68351  11.214   0.038  13.356
96823W        W68352  23.974  21.028   4.599
96824W        W68353   0.539  29.588  14.964
96825W        W68354   2.810  22.600  13.057
96826W        W68355  12.726  21.169   5.255
96827W        W68356  11.194  16.577   3.765
96828W        W68357   3.720   0.542   1.262
96829W        W68358  25.902   1.905   3.047
96830W        W68359  22.128  33.259  11.076
96831W        W68360  19.785  28.967  11.023
96832W        W68361   5.460  30.552   0.837
96833W        W68362  31.237  17.072   0.042
96834W        W68363  36.190  16.847   2.125
96835W        W68364  29.115  19.238  10.719
96836W        W68365  33.875  34.627   2.679
96837W        W68366  25.598   0.364  13.994
96838W        W68367  22.616  18.119  11.127
96839W        W68368  43.116  42.829  13.612
96840W        W68369  27.113  18.377   1.847
96841W        W68370  19.629  36.256   1.658
96842W        W68371  17.789  40.159  12.332
96843W        W68372  29.591  37.385  11.095
96844W        W68373  39.172   1.946   4.637
96845W        W68374  20.952  40.078  11.830
96846W        W68375  23.511  21.069   3.272
96847W        W68376  16.335  19.254  11.523
96848W        W68377   9.316  31.449   3.256
96849W        W68378  32.552  18.764  10.586
96850W        W68379  19.209  32.312  10.773
96851W        W68380  33.576  15.108  12.670
96852W        W68381  17.736  34.054   1.837
96853W        W68382  36.876  23.942   4.792
96854W        W68383  33.328  20.583  12.554
96855W        W68384   3.410  40.215  11.156
96856W        W68385   9.763  43.282  13.969
96857W        W68386  41.533  27.851  13.010
96858W        W68387   0.527  38.273  11.018
96859W        W68388  18.769  26.115  14.140
96860W        W68389  17.120  24.668   1.251
96861W        W68390  34.860  35.394  13.614
96862W        W68391   0.066  38.779   3.388
96863W        W68392  17.723   8.855  12.216
96864W        W68393  27.393  10.177   3.292
96865W        W68394  16.715  13.873   4.402
96866W        W68395  37.263  28.001  11.159
96867W        W68396  36.159  36.226   0.730
96868W        W68397  32.667   1.488   0.176
96869W        W68398  18.655  30.530   5.357
96870W        W68399   0.733  22.964  11.496
96871W        W68400  43.433  38.791   3.631
96872W        W68401  36.607  30.558  11.177
96873W        W68402  34.266  37.362  10.656
96874W        W68403  11.916  41.334  11.119
96875W        W68404  29.909   8.872   4.638
96876W        W68405   4.699  32.865  14.351
96877W        W68406  31.166  37.646   2.260
96878W        W68407  23.627  20.823   4.207
96879W        W68408  44.844   0.339   3.098
96880W        W68409  37.588  22.144   3.658
96881W        W68410  38.324  12.530   5.078
96882W        W68411  13.327  38.221   1.881
96883W        W68412  10.516   3.163  13.475
96884W        W68413  37.435   6.783  12.082
96885W        W68414  16.166  30.109   1.383
96886W        W68415  19.970  40.308   0.838
96887W        W68416  12.230  32.093   3.006
96888W        W68417   7.448  23.006  13.906
96889W        W68418   1.990  26.282   1.283
96890W        W68419   7.402  43.608   4.337
96891W        W68420   0.360  44.015   2.784
96892W        W68421  22.526  37.003  14.015
96893W        W68422  36.944  39.694  10.646
96894W        W68423  14.039  20.203  14.864
96895W        W68424  37.537  19.040   0.360
96896W        W68425  21.112  10.731  12.431
96897W        W68426   7.872   3.797  14.855
96898W        W68427  16.059  15.272   2.840
96899W        W68428  33.334  30.923  12.130
96900W        W68429  31.710   8.762  13.445
96901W        W68430  42.738  13.392   1.392
96902W        W68431   5.074  20.707   4.392
96903W        W68432  34.546  15.582  10.624
96904W        W68433  27.575  40.094  13.270
96905W        W68434   7.811  42.032  14.300
96906W        W68435  27.568   4.450  13.194
96907W        W68436  27.774  21.828  12.449
96908W        W68437  31.685  43.015  12.333
96909W        W68438  20.806  40.273  11.365
96910W        W68439  29.587  35.531   0.918
96911W        W68440  31.814  12.016  13.009
96912W        W68441  10.186  23.033  11.241
96913W        W68442  30.004   9.736   3.859
96914W        W68443   7.835  21.038   3.327
96915W        W68444  43.969  18.133   3.711
96916W        W68445  11.649  29.720   4.115
96917W        W68446   3.673  20.667   2.839
96918W        W68447  17.802  28.144   3.887
96919W        W68448   6.704  14.492   0.395
96920W        W68449  29.053  20.479  13.370
96921W        W68450  34.730  26.211   2.932
96922W        W68451  22.028  14.084   0.745
96923W        W68452  12.362  27.481  13.971
96924W        W68453  15.773  11.374   5.122
96925W        W68454  22.131  17.862  11.974
96926W        W68455   4.127  35.631  13.983
96927W        W68456  12.653   7.607  13.101
96928W        W68457  27.748  31.596  11.958
96929W        W68458   8.558  11.529  14.905
96930W        W68459  11.757  12.858  11.294
96931W        W68460  32.931  10.608  10.783
96932W        W68461  19.917  33.130   4.192
96933W        W68462  20.382  30.683   4.062
96934W        W68463  31.946  23.623   3.394
96935W        W68464  13.872  24.234   4.233
96936W        W68465  10.150  40.400  11.192
96937W        W68466  37.919   9.056  11.780
96938W        W68467  13.728   3.331  13.862
96939W        W68468  35.677  19.977   2.754
96940W        W68469   1.412  29.176   0.995
96941W        W68470   6.751  40.840  14.940
96942W        W68471  31.928  40.399  13.376
96943W        W68472  36.025  10.532  12.512
96944W        W68473  43.701  33.112  11.317
96945W        W68474  43.932  39.814  14.410
96946W        W68475  31.627  15.916  13.799
96947W        W68476  27.209  10.170  11.530
96948W        W68477   3.904  19.162  10.641
96949W        W68478   1.333   2.553  11.341
96950W        W68479  19.238  39.779   2.650
96951W        W68480  13.554  20.483  12.584
96952W        W68481  21.145  10.555  12.972
96953W        W68482  32.617  13.317   1.171
96954W        W68483  11.073  30.485  13.874
96955W        W68484  19.237  43.811  10.574
96956W        W68485  33.574  33.472   4.241
96957W        W68486  44.446   0.914   0.261
96958W        W68487  11.967  41.223  10.631
96959W        W68488  21.895  17.034  13.935
96960W        W68489  44.532  32.632   3.615
96961W        W68490  10.595   9.784   0.016
96962W        W68491  19.564  18.819   4.937
96963W        W68492   3.956  28.870   0.375
96964W        W68493  38.789   4.709   0.408
96965W        W68494  16.659  18.668  14.767
96966W        W68495   4.899  40.373  14.930
96967W        W68496   8.142  25.158   0.339
96968W        W68497  29.969   0.399   1.613
96969W        W68498  34.097  44.498  12.955
96970W        W68499  16.714  16.127  14.022
96971W        W68500  23.379  35.911  10.430
96972W        W68501  39.359  33.165  10.592
96973W        W68502  17.189  34.452   0.079
96974W        W68503  33.164   1.710  10.438
96975W        W68504   8.830  37.098   2.734
96976W        W68505  39.874  11.605  14.454
96977W        W68506  44.332   7.132   4.595
96978W        W68507   4.723  21.113  10.546
96979W        W68508  40.232   3.837   1.732
96980W        W68509  40.489  39.063  11.710
96981W        W68510   6.264  37.633   1.299
96982W        W68511  18.889  38.887   0.930
96983W        W68512  32.950  10.773  14.944
96984W        W68513  21.072  34.616   2.365
96985W        W68514  33.686  40.813  14.448
96986W        W68515  41.338  34.443  14.881
96987W        W68516   8.093  24.903  14.490
96988W        W68517  16.670  42.776   4.087
96989W        W68518  41.763  23.383  13.419
96990W        W68519  13.752   2.895   4.300
96991W        W68520  43.553  25.978   4.229
96992W        W68521   9.661  14.744   1.017
96993W        W68522  11.082  14.343   3.783
96994W        W68523  23.169   3.808  10.852
96995W        W68524  20.010  20.542   0.215
96996W        W68525  30.898  15.669  12.388
96997W        W68526  43.983   3.260   0.387
96998W        W68527  40.523  29.093  12.438
96999W        W68528  44.289  27.614  14.282
97000W        W68529   4.704  12.660  11.838
97001W        W68530  41.764  17.224   5.033
97002W        W68531  14.324  15.953  13.501
97003W        W68532  28.860  43.900   0.476
97004W        W68533   0.872  35.491  12.347
97005W        W68534  20.975  14.271  14.737
97006W        W68535  25.036  41.986  12.375
97007W        W68536   7.630  32.036   3.118
97008W        W68537  40.436  12.707   3.196
97009W        W68538  12.833  28.132  13.529
97010W        W68539  16.973   8.926   0.435
97011W        W68540   0.840  31.601  10.771
97012W        W68541  21.112  41.178   1.279
97013W        W68542  31.685  10.875   2.704
97014W        W68543  33.523  26.650   1.708
97015W        W68544  21.590   8.932   4.170
97016W        W68545  37.348  27.893  14.833
97017W        W68546  14.544  37.871  14.368
97018W        W68547  23.737   5.311   2.663
97019W        W68548  26.736  13.577   0.030
97020W        W68549   0.456  16.059   2.301
97021W        W68550  16.078  19.375   3.704
97022W        W68551  37.501   4.199  11.545
97023W        W68552  40.392  30.582  12.522
97024W        W68553  26.499  17.583  10.672
97025W        W68554  22.121   2.867   3.669
97026W        W68555  38.024  44.288   4.147
97027W        W68556  37.575  39.401   3.566
97028W        W68557  44.026   7.005  13.969
97029W        W68558  12.319  33.136  11.256
97030W        W68559  32.834  40.740   2.918
97031W        W68560  30.813  43.740   3.383
97032W        W68561  20.297   8.120  11.230
97033W        W68562  13.309  31.890  13.394
97034W        W68563  30.008  17.836  14.829
97035W        W68564  41.496   0.494  11.549
97036W        W68565  16.286  11.313  10.175
97037W        W68566  17.343  41.010  13.123
97038W        W68567  34.691  21.524   3.799
97039W        W68568  21.260  39.910  13.373
97040W        W68569  21.725  21.771  10.673
97041W        W68570  14.412   4.904   3.754
97042W        W68571  35.544   5.370   1.769
97043W        W68572  31.139  30.532  12.555
97044W        W68573  26.727   4.836  10.693
97045W        W68574   6.320  21.100   4.576
97046W        W68575  16.555  22.633  12.004
97047W        W68576  20.242  35.411   3.595
97048W        W68577  36.833   5.412   0.001
97049W        W68578  44.500  17.357  11.520
97050W        W68579  30.981   5.642  10.969
97051W        W68580  24.623  20.725   0.334
97052W        W68581  40.395  31.586  13.492
97053W        W68582   9.671  23.788  12.209
97054W        W68583  43.730  41.504   3.218
97055W        W68584  15.268  25.259  13.921
97056W        W68585  21.230   4.291   0.873
97057W        W68586  30.953  44.871  10.682
97058W        W68587  43.111   1.917   4.675
97059W        W68588  14.009  15.819   1.181
97060W        W68589  26.440  38.340  13.869
97061W        W68590  31.115   1.591   0.776
97062W        W68591  25.352  33.925   0.543
97063W        W68592  24.111  36.386  14.349
97064W        W68593   0.052   4.223  13.491
97065W        W68594  26.147   2.632  12.941
97066W        W68595   0.498  37.033   0.339
97067W        W68596  31.007   0.115   4.761
97068W        W68597   6.084  16.194  13.548
97069W        W68598  39.318  38.413   4.287
97070W        W68599  31.051  14.549  10.076
97071W        W68600  35.379  43.720  13.085
97072W        W68601  40.557  18.339   1.284
97073W        W68602  27.752   2.537  12.604
97074W        W68603  28.956   8.770  14.730
97075W        W68604   4.482  39.376   2.689
97076W        W68605   6.157  20.040   3.616
97077W        W68606  41.501  13.084  14.289
97078W        W68607  34.610   5.702  12.884
97079W        W68608  43.049  35.040  14.893
97080W        W68609  27.974  12.759  14.068
97081W        W68610  36.019  22.256   2.378
97082W        W68611  15.179   7.428  12.786
97083W        W68612  38.869  42.404   4.159
97084W        W68613  34.594  28.677   0.710
97085W        W68614  37.151  36.793  14.836
97086W        W68615  17.008  41.768  11.029
97087W        W68616  12.867  39.076   1.916
97088W        W68617   6.224  37.397  13.813
97089W        W68618  12.652  43.919   2.133
97090W        W68619  22.048  16.058   3.135
97091W        W68620  24.733  42.012   4.319
97092W        W68621  28.129  20.075   1.718
97093W        W68622  38.158  32.372   1.316
97094W        W68623  43.391  27.272   3.217
97095W        W68624  33.068  10.242   1.839
97096W        W68625  27.650  10.358   2.346
97097W        W68626  11.584  20.268   3.573
97098W        W68627   4.301   4.301   3.611
97099W        W68628  43.577  30.579  11.599
97100W        W68629  34.864  11.389   2.345
97101W        W68630  39.991  20.133   2.872
97102W        W68631   1.788  35.586   0.686
97103W        W68632  28.143  30.878  13.335
97104W        W68633  29.976  20.025   0.413
97105W        W68634  25.111  44.296  13.528
97106W        W68635  30.686   4.269  13.156
97107W        W68636  23.774  34.987   3.578
97108W        W68637  27.033  27.133   3.531
97109W        W68638  34.345  27.173   3.298
97110W        W68639  25.274   8.666   4.341
97111W        W68640  17.225   8.898   1.319
97112W        W68641  20.051  19.661  14.271
97113W        W68642  33.107   1.943   0.861
97114W        W68643  24.432  23.629   0.376
97115W        W68644  20.281  19.053   0.377
97116W        W68645  10.708   5.678  13.744
97117W        W68646  32.635  10.918   1.165
97118W        W68647  29.621  42.469   4.269
97119W        W68648  23.703  40.364   0.297
97120W        W68649  39.354  37.582  11.930
97121W        W68650  36.373   0.900  11.774
97122W        W68651  14.852   1.526   4.525
97123W        W68652  44.565  23.530  12.025
97124W        W68653  38.601  37.151   0.969
97125W        W68654  35.079  18.760  12.592
97126W        W68655   5.083  15.515  10.191
97127W        W68656  44.337  10.483  10.679
97128W        W68657  15.646  36.033  14.493
97129W        W68658  22.146  25.921   1.167
97130W        W68659  25.723  39.775  14.000
97131W        W68660   7.746   1.759   1.452
97132W        W68661  38.040  39.369   0.268
97133W        W68662   6.590  17.837  11.577
97134W        W68663  26.590   3.876  11.702
97135W        W68664  31.958   4.449   3.867
97136W        W68665   1.179  18.805  11.777
97137W        W68666  19.708  41.370  12.586
97138W        W68667  19.627  26.619  11.944
97139W        W68668  30.505  30.290  12.746
97140W        W68669  19.582   9.716   1.317
97141W        W68670  23.233  37.975   3.358
97142W        W68671  32.228   2.726   3.742
97143W        W68672  29.024  21.295   0.405
97144W        W68673  25.620  14.098   2.307
97145W        W68674  31.909  44.214   1.221
97146W        W68675  41.898  38.290   4.447
97147W        W68676  13.203  13.277  12.297
97148W        W68677  28.396  36.896   2.211
97149W        W68678  30.120   3.947  12.522
97150W        W68679  20.147   7.682  14.967
97151W        W68680  23.369  34.916  10.017
97152W        W68681  26.078  37.813  11.770
97153W        W68682  38.252  26.171   0.040
97154W        W68683  13.384  42.867   1.135
97155W        W68684  25.981  44.056   1.851
97156W        W68685  38.170  40.537   2.796
97157W        W68686   3.955  41.283  13.903
97158W        W68687   6.012   7.442   0.599
97159W        W68688   3.353  42.749   2.653
97160W        W68689  25.724  21.562   5.026
97161W        W68690  17.743  42.974   0.811
97162W        W68691  23.201  30.528   0.873
97163W        W68692  22.986  30.532  12.397
97164W        W68693  20.751  24.499   1.518
97165W        W68694  43.954  10.154  13.901
97166W        W68695   7.451  14.591   3.762
97167W        W68696  25.443  26.119   4.279
97168W        W68697  42.995  36.595   0.650
97169W        W68698  33.581  20.780   1.167
97170W        W68699  21.226  26.179  10.219
97171W        W68700  25.772   8.680  13.782
97172W        W68701  38.343  44.865  12.805
97173W        W68702  21.772   9.321  12.408
97174W        W68703  20.164  17.248  13.620
97175W        W68704  14.656  11.847  12.596
97176W        W68705  41.482  35.030   1.546
97177W        W68706  30.702   2.385   3.794
97178W        W68707   3.256  39.599  14.457
97179W        W68708   6.339  39.594  13.041
97180W        W68709  16.121  13.783  12.302
97181W        W68710  12.410  15.596  13.866
97182W        W68711  31.627  20.559   4.758
97183W        W68712  19.513   6.543  14.746
97184W        W68713  32.406   1.081  14.048
97185W        W68714  18.237  22.050   4.606
97186W        W68715  13.718  42.387  14.456
97187W        W68716  42.157  43.356  14.320
97188W        W68717  14.374  11.816   4.689
97189W        W68718  23.947   0.920  11.567
97190W        W68719  15.568  32.791  11.161
97191W        W68720  25.811   8.201   1.492
97192W        W68721   8.328  44.358  13.445
97193W        W68722  32.092  34.024  14.601
97194W        W68723  19.098  32.721  13.968
97195W        W68724  34.867  12.552  13.969
97196W        W68725  17.030  13.173  10.429
97197W        W68726  30.043   9.841   0.810
97198W        W68727  38.831  20.677  13.058
97199W        W68728  35.446   1.471  13.771
97200W        W68729  31.312  40.987   2.847
97201W        W68730  24.071  39.780   2.141
97202W        W68731  24.193  16.547   1.889
97203W        W68732  44.653   6.302   1.280
97204W        W68733  15.250   7.111  14.775
97205W        W68734  23.685   2.030   0.463
97206W        W68735  10.951  19.739  12.901
97207W        W68736  37.035  36.645   1.179
97208W        W68737  13.488  25.067  14.554
97209W        W68738  33.971  11.580  13.967
97210W        W68739  13.469  38.732   1.801
97211W        W68740  33.073  20.614   1.186
97212W        W68741  20.536  23.675  13.557
97213W        W68742  39.759  41.263  14.416
97214W        W68743   5.297   6.189   0.445
97215W        W68744   5.928  18.341   3.329
97216W        W68745  28.921   2.914   2.180
97217W        W68746  20.719  34.951  13.384
97218W        W68747   1.028  10.428  12.620
97219W        W68748  19.527  34.735  12.330
97220W        W68749  42.939   1.733  11.202
97221W        W68750  22.545  23.656  14.843
97222W        W68751   4.665  38.486   4.630
97223W        W68752  37.846  36.340   2.325
97224W        W68753   9.315   4.086  12.741
97225W        W68754  31.464  26.601  13.534
97226W        W68755   6.894  36.814  14.984
97227W        W68756  12.917  21.849  11.663
97228W        W68757  37.583  37.086  11.233
97229W        W68758  27.915  44.660   2.719
97230W        W68759   7.700  23.611   2.395
97231W        W68760  16.475  17.332  12.333
97232W        W68761  27.884  18.745  11.157
97233W        W68762   2.746  13.109   2.192
97234W        W68763  24.345  30.944  12.651
97235W        W68764  44.717  18.549   1.059
97236W        W68765  10.383  36.389   2.546
97237W        W68766  16.755  27.578  10.694
97238W        W68767  14.785   2.305   1.350
97239W        W68768  29.918  27.144   1.281
97240W        W68769  31.099   7.011  12.623
97241W        W68770  24.513   5.680   4.168
97242W        W68771   5.950   5.687  12.889
97243W        W68772  18.324  39.471  14.294
97244W        W68773  14.660  29.535   1.199
97245W        W68774   2.335  35.255  12.948
97246W        W68775  44.885  17.869  11.112
97247W        W68776  31.672   5.756   3.096
97248W        W68777  20.859  26.279   4.589
97249W        W68778  17.107  13.666  12.049
97250W        W68779  17.087  25.606   1.215
97251W        W68780  23.681   0.943   1.932
97252W        W68781  27.475   6.408  10.867
97253W        W68782  44.981  10.732  13.338
97254W        W68783  14.632  20.210  12.032
97255W        W68784   0.358   6.854  14.752
97256W        W68785  43.910   4.393  12.701
97257W        W68786  43.771  20.742   0.844
97258W        W68787  17.578  40.925   1.330
97259W        W68788  17.530  17.030   3.840
97260W        W68789  36.374  22.359   1.453
97261W        W68790  38.428  23.487  13.069
97262W        W68791  17.541  28.060   2.369
97263W        W68792  42.047   1.822   0.436
97264W        W68793  15.072  27.137   1.305
97265W        W68794  19.653  31.122   0.704
97266W        W68795  40.135  25.008  10.775
97267W        W68796  20.675  35.955   2.811
97268W        W68797  31.480  40.991  14.257
97269W        W68798  23.779   9.506  12.502
97270W        W68799   8.195   4.717   1.818
97271W        W68800  10.767  39.942  14.989
97272W        W68801  16.626  26.142   3.126
97273W        W68802   6.906  31.652   3.813
97274W        W68803  42.443  24.829  11.175
97275W        W68804  10.677  28.884  12.538
97276W        W68805  38.013  33.159   3.323
97277W        W68806  25.796  43.838   4.559
97278W        W68807  13.688  37.002   1.470
97279W        W68808   2.065  43.580   1.295
97280W        W68809  37.472  34.122  12.456
97281W        W68810  17.878  36.645   2.189
97282W        W68811  44.356   0.491   1.249
97283W        W68812   9.695  30.409  13.885
97284W        W68813   1.280  32.622   5.362
97285W        W68814  24.809  42.876  12.342
97286W        W68815  22.190  40.285   2.344
97287W        W68816  36.349  36.440  13.936
97288W        W68817   6.986  13.213   0.811
97289W        W68818   4.230  34.979   3.674
97290W        W68819   1.269  29.647  12.431
97291W        W68820  13.517  14.288  11.141
97292W        W68821  27.087  13.782  14.240
97293W        W68822  44.389  43.039   2.679
97294W        W68823  29.689  29.978  12.541
97295W        W68824  31.285  35.567  12.110
97296W        W68825  20.737  27.740  13.880
97297W        W68826  31.103  16.810   3.363
97298W        W68827  18.106  13.397   0.263
97299W        W68828  12.626  37.182   2.381
97300W        W68829  28.441  36.515  11.652
97301W        W68830  12.281  35.493  12.357
97302W        W68831  18.750  20.120   4.161
97303W        W68832  17.173  35.057   5.096
97304W        W68833   8.756   4.966   2.396
97305W        W68834  34.432  35.048   4.371
97306W        W68835  10.103  21.976  12.110
97307W        W68836  39.934  16.193  14.489
97308W        W68837  11.778  15.786   0.991
97309W        W68838  11.324  42.667   3.954
97310W        W68839  43.398  32.925   3.005
97311W        W68840  37.915   7.048  13.524
97312W        W68841  25.227  10.301  13.998
97313W        W68842   4.845   7.348  10.711
97314W        W68843  36.982  42.320   4.295
97315W        W68844  13.826  39.422   1.177
97316W        W68845  30.874  13.246  12.926
97317W        W68846  40.341  21.022  13.831
97318W        W68847  21.152   9.168  11.541
97319W        W68848  37.663  42.557   3.061
97320W        W68849  36.265  35.911   4.583
97321W        W68850  43.923  26.485   3.100
97322W        W68851  30.967   4.520  11.798
97323W        W68852  38.316  12.793  12.441
97324W        W68853  22.597  21.504   2.751
97325W        W68854   6.613  27.777   0.635
97326W        W68855  19.248  11.006   2.396
97327W        W68856  12.311  38.903   2.426
97328W        W68857  14.667  34.459  13.769
97329W        W68858   8.373  34.571   2.875
97330W        W68859  30.894  24.985  11.153
97331W        W68860  37.481  28.097   3.888
97332W        W68861   7.407   8.931   3.657
97333W        W68862  13.337  15.761  10.291
97334W        W68863  11.257  40.991   1.456
97335W        W68864  17.185  31.144  12.614
97336W        W68865  26.703  29.925  14.270
97337W        W68866  36.575  21.567  14.994
97338W        W68867  20.798  20.989  11.041
97339W        W68868  31.060   9.212  11.618
97340W        W68869  40.824  25.892  12.201
97341W        W68870  17.155   6.013   4.942
97342W        W68871   2.823  16.328   0.674
97343W        W68872  20.557  41.286   2.682
97344W        W68873   7.229  18.417   0.342
97345W        W68874  41.547  32.533   1.269
97346W        W68875  41.530  37.773  10.700
97347W        W68876   2.335   6.330   3.661
97348W        W68877  19.545  22.743  12.144
97349W        W68878  23.089  29.664   1.307
97350W        W68879   1.542   3.411  10.955
97351W        W68880  31.053  39.055  11.926
97352W        W68881  39.984  37.423  10.877
97353W        W68882   9.132   1.657  14.997
97354W        W68883  11.063  20.954  10.853
97355W        W68884  37.586  16.804  10.385
97356W        W68885   2.238  29.831   2.309
97357W        W68886   8.299  12.878  11.902
97358W        W68887  44.881   2.993   4.911
97359W        W68888  41.969  26.215   4.112
97360W        W68889   7.904  41.086  11.054
97361W        W68890  18.833  25.973  14.621
97362W        W68891  44.375  27.887   2.441
97363W        W68892  37.024  39.406  12.145
97364W        W68893   9.701  37.916  10.678
97365W        W68894   9.879  24.723   1.634
97366W        W68895  35.312  36.305  12.566
97367W        W68896  31.900  17.140  13.459
97368W        W68897  13.731   4.213  14.411
97369W        W68898  37.826  30.919   3.654
97370W        W68899  43.599   7.455  14.517
97371W        W68900  28.612  40.273  11.966
97372W        W68901  32.265  12.769  14.426
97373W        W68902   6.441  19.067  13.610
97374W        W68903  16.469  27.028  11.908
97375W        W68904  44.855   1.762   0.769
97376W        W68905  19.285  30.230  11.632
97377W        W68906  24.633   8.709  11.794
97378W        W68907  35.931  38.984   0.971
97379W        W68908   6.888  25.686  12.311
97380W        W68909   1.026  12.265   0.062
97381W        W68910  10.285  23.425   1.539
97382W        W68911  28.874  15.321   2.729
97383W        W68912  27.872  30.202   4.006
97384W        W68913  37.716  19.037  11.393
97385W        W68914  31.005   6.227  12.986
97386W        W68915  31.006  21.774   4.123
97387W        W68916  11.859  19.602   2.692
97388W        W68917  32.544  28.961   2.637
97389W        W68918   1.303  25.133  12.287
97390W        W68919  13.491  35.992  14.803
97391W        W68920  33.369  31.417  13.757
97392W        W68921   5.006   3.850  11.673
97393W        W68922  35.415  31.880   1.438
97394W        W68923   3.957   3.434  14.356
97395W        W68924  39.941  38.516   1.939
97396W        W68925  30.842  16.776   3.784
97397W        W68926  15.744   3.182  12.072
97398W        W68927  16.224  19.648  13.376
97399W        W68928  20.015   1.886   4.095
97400W        W68929  23.141  34.897  13.292
97401W        W68930  15.215  26.348  14.320
97402W        W68931  23.519  39.770   4.155
97403W        W68932  42.878  35.628   2.168
97404W        W68933   7.994  22.796  11.102
97405W        W68934  42.404   7.688  14.849
97406W        W68935  25.666  18.168  13.418
97407W        W68936  15.654  34.605  10.591
97408W        W68937   8.131  26.200   0.452
97409W        W68938  43.274  28.662   2.467
97410W        W68939  22.463  10.363   2.291
97411W        W68940  37.589  29.872   3.797
97412W        W68941  31.877  11.986  14.891
97413W        W68942  12.613  31.394   3.562
97414W        W68943  35.125  38.386  12.752
97415W        W68944  22.399  21.632   4.729
97416W        W68945  32.064   5.385   2.172
97417W        W68946  10.784   5.540   4.832
97418W        W68947   6.833  18.376  14.066
97419W        W68948   9.422  35.477  12.599
97420W        W68949   8.833  13.497  12.360
97421W        W68950  42.342  20.037   0.789
97422W        W68951   9.434  28.107   3.330
97423W        W68952  41.333  16.796  12.098
97424W        W68953  30.524  26.959   1.955
97425W        W68954  44.466  13.807  12.182
97426W        W68955   7.833  36.363   0.811
97427W        W68956  17.819  41.912   4.646
97428W        W68957   4.183  26.814  11.151
97429W        W68958  24.053  24.993   3.085
97430W        W68959   4.824  25.838  12.066
97431W        W68960  16.174  32.179   1.715
97432W        W68961  33.908   3.146   4.111
97433W        W68962   7.051   3.321   1.480
97434W        W68963  26.527  41.875   1.324
97435W        W68964   7.496   2.823  12.868
97436W        W68965  31.042  30.124   0.716
97437W        W68966  43.723  33.073   1.691
97438W        W68967  21.556  27.508   1.832
97439W        W68968  32.707  27.977   4.009
97440W        W68969   8.834  37.349  14.400
97441W        W68970   6.712  20.771  14.772
97442W        W68971  24.634  37.942  12.979
97443W        W68972  16.523   8.706  12.807
97444W        W68973  32.048  22.039   3.383
97445W        W68974  17.546   2.847  13.982
97446W        W68975   2.032  33.063   0.885
97447W        W68976  12.641  13.225   0.907
97448W        W68977  12.824  13.451   2.608
97449W        W68978  22.186  44.663   3.030
97450W        W68979  26.877  23.217   4.562
97451W        W68980  10.228  38.422  14.472
97452W        W68981   4.158  18.569  12.976
97453W        W68982  27.014  23.763  13.366
97454W        W68983  35.098  30.054   4.754
97455W        W68984  43.203  27.586   0.961
97456W        W68985   2.669  17.163   0.327
97457W        W68986  26.104  28.450  14.817
97458W        W68987  40.337   9.267   3.225
97459W        W68988  18.553  43.010  13.996
97460W        W68989  36.764  23.332  14.910
97461W        W68990  32.740  32.966   0.860
97462W        W68991  24.283  28.172  14.878
97463W        W68992   4.737   1.830  12.897
97464W        W68993   2.395   8.093  14.552
97465W        W68994  12.763  30.112  10.655
97466W        W68995   1.310  13.852   2.712
97467W        W68996  31.604  11.768  13.800
97468W        W68997  30.493  35.640   0.726
97469W        W68998  40.039  20.680  13.530
97470W        W68999   9.253  33.543  14.035
97471W        W69000  12.562   5.351   1.786
97472W        W69001  43.556   3.599  11.116
97473W        W69002  33.489  23.448  11.708
97474W        W69003  16.565  44.978  13.920
97475W        W69004   9.215   3.208   5.049
97476W        W69005  11.692  44.375  13.641
97477W        W69006  35.929  30.288  12.425
97478W        W69007  33.230  13.328  10.814
97479W        W69008  32.671  26.596  11.154
97480W        W69009  22.977   3.698   4.568
97481W        W69010  32.926  44.802   1.623
97482W        W69011  43.476  42.068  12.896
97483W        W69012   8.190  11.219  11.402
97484W        W69013  21.318  43.129   3.689
97485W        W69014  32.094   3.435   2.321
97486W        W69015  42.489  11.704  10.704
97487W        W69016  21.707   8.786  13.780
97488W        W69017   1.280  17.178  10.774
97489W        W69018  24.021  16.079  13.335
97490W        W69019   9.604   5.890  10.795
97491W        W69020  14.126  42.386   3.834
97492W        W69021   4.271  31.304   0.422
97493W        W69022  33.938   2.283  13.096
97494W        W69023   7.593  35.994  11.608
97495W        W69024   9.389  33.993  12.877
97496W        W69025  13.249  12.188  14.311
97497W        W69026  40.823   4.984   1.826
97498W        W69027  18.277   9.603   4.075
97499W        W69028  14.633   8.937   4.049
97500W        W69029  27.185  12.698  11.435
97501W        W69030   8.765   2.708  12.044
97502W        W69031  10.320  26.884  11.956
97503W        W69032  30.405  30.587  12.311
97504W        W69033   2.604  29.372  12.354
97505W        W69034  23.574  35.121   2.107
97506W        W69035  36.770  28.185  14.668
97507W        W69036  22.267  41.945   0.230
97508W        W69037  18.069  40.276   0.895
97509W        W69038  41.773  23.258   0.382
97510W        W69039  35.849  43.935   1.151
97511W        W69040   4.470  16.676  12.009
97512W        W69041  31.810  13.666  13.576
97513W        W69042  16.628  10.179  12.158
97514W        W69043  31.976   9.640   2.297
97515W        W69044   5.162  27.147  11.438
97516W        W69045   4.504  24.647   4.742
97517W        W69046  28.450  20.525   4.263
97518W        W69047  44.279  17.291  12.647
97519W        W69048  16.273  23.536   0.721
97520W        W69049   0.781  27.391  14.926
97521W        W69050  38.447   3.236  13.432
97522W        W69051  15.586  25.467  12.880
97523W        W69052   8.668  25.148  12.854
97524W        W69053  32.067  31.439  11.224
97525W        W69054  36.448   7.346   3.086
97526W        W69055  39.459  17.329  14.973
97527W        W69056  19.528   9.233  14.487
97528W        W69057  16.176  10.027  11.433
97529W        W69058  26.893   5.078   3.580
97530W        W69059   2.047  21.546  11.528
97531W        W69060   4.588  28.011  11.630
97532W        W69061   8.172   8.751  13.033
97533W        W69062   0.208  26.684   1.002
97534W        W69063   6.900  25.558  14.249
97535W        W69064  34.593  26.081   3.410
97536W        W69065   5.289   9.473  14.850
97537W        W69066   2.834  15.659   4.486
97538W        W69067   4.254  44.116  14.864
97539W        W69068   7.885  38.859  10.288
97540W        W69069  11.429  17.778   1.201
97541W        W69070  19.556   9.711   0.261
97542W        W69071  22.256  27.586  11.015
97543W        W69072   8.942  42.756   1.807
97544W        W69073  27.612  26.103   1.405
97545W        W69074  13.095   8.797  10.338
97546W        W69075   9.122  16.729   4.273
97547W        W69076  36.674  40.578   2.440
97548W        W69077  20.561  29.494  10.641
97549W        W69078  20.163  15.173   1.923
97550W        W69079  19.032  21.476   2.870
97551W        W69080  24.662  12.647  10.608
97552W        W69081   7.824  13.744   1.756
97553W        W69082  24.055  42.168   4.526
97554W        W69083   6.218   4.640   1.566
97555W        W69084  32.175  43.994  14.401
97556W        W69085  35.538  18.313   0.480
97557W        W69086   1.777  16.633   1.423
97558W        W69087  42.553  42.385  12.544
97559W        W69088   0.806  13.245   3.644
97560W        W69089  16.340  16.175   1.474
97561W        W69090  11.219  15.142   4.176
97562W        W69091  44.850   3.776   2.153
97563W        W69092   4.881  20.648  11.844
97564W        W69093  17.596  41.478   0.291
97565W        W69094  37.016   7.454   1.887
97566W        W69095   5.436  17.476   3.682
97567W        W69096  38.909   9.344   1.989
97568W        W69097  14.135  39.149  13.848
97569W        W69098   4.907  35.982  13.498
97570W        W69099   6.917   6.867   2.249
97571W        W69100   6.265  19.209  12.694
97572W        W69101   0.116   8.040   2.652
97573W        W69102  18.080  17.287  14.679
97574W        W69103  20.517  24.898   2.728
97575W        W69104  14.458   2.981   4.099
97576W        W69105  21.033  25.826  12.621
97577W        W69106  25.581  36.125  13.321
97578W        W69107   3.291   3.592  12.096
97579W        W69108  34.950  13.387   0.887
97580W        W69109  38.849   1.786  14.878
97581W        W69110   6.328  21.104  11.398
97582W        W69111  13.847  33.983   1.846
97583W        W69112  27.499  16.037   3.644
97584W        W69113  31.584   0.976   3.178
97585W        W69114  13.716   1.498  13.954
97586W        W69115  24.505  27.218  13.033
97587W        W69116  20.623   3.590   2.175
97588W        W69117  35.520  40.249   4.570
97589W        W69118  29.579   0.820   4.169
97590W        W69119  21.528  44.801   3.273
97591W        W69120  37.436   7.163  13.372
97592W        W69121  21.960  12.120   3.561
97593W        W69122  24.177  24.704   1.705
97594W        W69123  20.611  20.989  11.540
97595W        W69124  36.846   8.425  11.254
97596W        W69125  12.792  37.378   3.739
97597W        W69126  22.016   1.286   4.670
97598W        W69127  40.830  12.420  14.605
97599W        W69128   2.402  36.647   3.679
97600W        W69129   8.152  14.275   1.292
97601W        W69130  33.788  42.585  13.800
97602W        W69131  14.880  25.078   2.761
97603W        W69132  35.062  22.498   3.139
97604W        W69133   5.128  12.747  11.543
97605W        W69134   8.393  44.269   1.249
97606W        W69135   7.316  13.823  14.852
97607W        W69136  13.545  28.903  14.857
97608W        W69137  28.223  17.737   1.877
97609W        W69138   0.350  33.558   3.525
97610W        W69139  18.150   6.937  11.458
97611W        W69140  12.635   0.603   0.297
97612W        W69141  39.538   4.754   4.040
97613W        W69142  41.632  24.247  10.782
97614W        W69143   3.881  36.113   0.190
97615W        W69144  25.394  10.819  10.857
97616W        W69145  12.610  36.933  13.426
97617W        W69146  26.413  28.348   3.538
97618W        W69147  15.461   8.305   0.935
97619W        W69148   5.357  13.697  13.929
97620W        W69149  12.150  24.018  10.731
97621W        W69150   1.453  26.018  11.942
97622W        W69151   2.207  33.000  14.351
97623W        W69152  14.162  40.201  12.614
97624W        W69153  22.435   0.494  14.310
97625W        W69154   0.585   7.968  13.913
97626W        W69155  13.788  13.617  14.414
97627W        W69156   0.884   3.416   9.906
97628W        W69157  35.413  44.210   3.746
97629W        W69158   4.361  34.140   2.566
97630W        W69159  34.843  24.190  11.222
97631W        W69160  12.835  29.947  14.974
97632W        W69161  37.752  11.233   1.903
97633W        W69162  16.515  32.866  14.961
97634W        W69163  16.810  40.119  11.662
97635W        W69164  16.287  21.866   0.901
97636W        W69165  25.515  40.806   2.820
97637W        W69166  42.105  37.974  14.355
97638W        W69167  23.234  10.003  11.111
97639W        W69168  25.928  13.361   4.973
97640W        W69169   7.788  39.740   3.828
97641W        W69170  22.039  44.284   2.682
97642W        W69171  39.446  38.487  11.844
97643W        W69172  34.140  24.566   4.198
97644W        W69173  12.887  15.708  10.931
97645W        W69174  14.823  41.225  12.997
97646W        W69175  21.948  34.371  14.152
97647W        W69176  35.219  32.374   4.130
97648W        W69177   3.780   9.632  14.979
97649W        W69178  42.377  42.931  10.920
97650W        W69179  32.421   4.551  11.156
97651W        W69180  31.527  19.660  12.622
97652W        W69181  38.489   9.819  13.589
97653W        W69182  17.859  25.158   0.305
97654W        W69183  21.767  39.374  12.376
97655W        W69184  42.783  18.725  13.432
97656W        W69185  44.867  20.494   3.215
97657W        W69186  37.024   1.451  14.975
97658W        W69187  24.833  20.187  11.358
97659W        W69188  38.462  24.161   3.797
97660W        W69189  42.723  31.702   0.601
97661W        W69190   6.705  39.316   3.307
97662W        W69191  35.231  18.732  14.373
97663W        W69192  31.131  19.047   4.602
97664W        W69193  42.233   5.913  12.924
97665W        W69194  21.688  32.634  14.533
97666W        W69195   3.901  36.112   1.294
97667W        W69196  23.918  23.616  13.648
97668W        W69197  11.431  14.796   1.244
97669W        W69198  18.815  25.060   4.114
97670W        W69199  25.992   7.883  11.185
97671W        W69200  10.845  37.337  12.371
97672W        W69201  10.933  20.528  13.274
97673W        W69202  18.732  39.530   3.183
97674W        W69203  22.921  22.225  14.103
97675W        W69204  26.426  28.389  11.121
97676W        W69205  12.802  25.687  10.694
97677W        W69206  21.593  38.068   5.372
97678W        W69207  34.066   9.582  10.665
97679W        W69208  13.849  40.493  12.085
97680W        W69209  40.099  11.262   0.970
97681W        W69210  21.811  40.854   3.200
97682W        W69211  12.888  14.215   2.258
97683W        W69212  28.452  26.536  12.618
97684W        W69213  32.102   3.161  10.936
97685W        W69214  18.265   8.305  11.165
97686W        W69215  38.644  32.158  14.948
97687W        W69216  30.110  29.477   4.529
97688W        W69217   3.548  14.294  12.959
97689W        W69218  35.546  21.616   4.823
97690W        W69219  23.104   8.432  14.110
97691W        W69220  44.124  23.068  14.990
97692W        W69221  35.334  11.033   1.639
97693W        W69222  15.106  34.108   1.313
97694W        W69223   7.559  22.046  11.180
97695W        W69224  24.455  14.278  11.276
97696W        W69225   7.466  19.123  13.724
97697W        W69226  10.253  24.434  11.496
97698W        W69227  43.296  38.509  13.363
97699W        W69228  14.802   1.431   3.266
97700W        W69229  19.967  15.749   3.209
97701W        W69230  33.103   7.927   0.904
97702W        W69231   5.278  19.228  14.259
97703W        W69232  32.737  24.925   2.998
97704W        W69233  24.735  43.076   1.511
97705W        W69234  28.950   3.399  11.169
97706W        W69235  19.768  27.983   4.561
97707W        W69236  28.944  23.416   1.839
97708W        W69237  17.036   2.717  12.851
97709W        W69238  43.964  21.652   0.740
97710W        W69239  21.699  33.948  11.986
97711W        W69240  41.901  30.011  14.072
97712W        W69241  16.415  14.156  10.965
97713W        W69242   7.179  33.941  14.359
97714W        W69243  33.610  18.022   4.170
97715W        W69244  31.351  35.494  14.857
97716W        W69245  42.454   8.839  11.690
97717W        W69246  14.673  42.768   4.925
97718W        W69247  18.721  44.818   2.378
97719W        W69248  27.236  37.462   9.999
97720W        W69249  22.762  15.006  14.359
97721W        W69250   1.318  23.730  11.153
97722W        W69251  12.183  10.318  14.168
97723W        W69252  39.573  17.822  13.085
97724W        W69253   3.723   4.009   0.851
97725W        W69254   1.844  28.558  11.462
97726W        W69255  41.015   9.382   3.663
97727W        W69256  28.835  23.106   4.096
97728W        W69257   1.321  31.382  10.200
97729W        W69258   4.894   3.959   4.305
97730W        W69259  29.854  14.041   1.200
97731W        W69260   0.709  22.123  11.978
97732W        W69261   4.264  41.859   0.267
97733W        W69262  23.582  19.748   1.136
97734W        W69263  20.017   0.812   1.668
97735W        W69264  17.030  13.096   4.318
97736W        W69265  42.835  14.646  12.711
97737W        W69266  28.008  38.417   3.136
97738W        W69267  21.063  42.690   2.823
97739W        W69268  12.902  42.997   1.248
97740W        W69269  16.115  17.274  14.844
97741W        W69270   6.353  21.722   3.826
97742W        W69271  31.184  11.393  14.765
97743W        W69272  38.016  31.329  12.851
97744W        W69273   8.771  16.100   1.733
97745W        W69274  41.513  38.321   2.804
97746W        W69275  28.713  36.937  11.514
97747W        W69276   6.847   5.739  10.418
97748W        W69277  17.112  40.911   2.821
97749W        W69278   0.979  37.903  11.531
97750W        W69279  34.679  18.159  11.925
97751W        W69280  32.914   2.803   2.304
97752W        W69281   2.118  19.262   3.261
97753W        W69282  42.858  21.845   4.661
97754W        W69283  33.880   5.869  12.717
97755W        W69284  11.735  10.850   0.765
97756W        W69285  27.952  12.224   2.143
97757W        W69286  38.606   6.800   2.763
97758W        W69287   9.854   9.540   2.715
97759W        W69288  21.187  27.908   3.406
97760W        W69289  34.004  36.817  12.377
97761W        W69290  33.696  14.870   1.451
97762W        W69291   2.920  21.101  14.919
97763W        W69292  15.608   8.751   0.020
97764W        W69293  17.217  11.792  13.983
97765W        W69294   1.337  37.180   2.683
97766W        W69295   1.734  32.526  14.995
97767W        W69296  29.308  31.486   4.648
97768W        W69297  23.476  12.280   2.391
97769W        W69298  37.534  33.802  11.088
97770W        W69299  44.689  19.036  12.025
97771W        W69300  28.049  40.363   4.484
97772W        W69301  26.441   7.364   2.671
97773W        W69302  43.759  42.049  14.872
97774W        W69303  41.993  31.515  12.732
97775W        W69304  13.478  25.129   3.211
97776W        W69305   9.606   1.446   4.121
97777W        W69306  37.454  42.211   2.744
97778W        W69307  31.662  24.735  11.540
97779W        W69308   2.433  31.375  14.897
97780W        W69309  20.051  22.908   0.323
97781W        W69310  15.398  28.478  12.847
97782W        W69311  30.435   9.661  12.167
97783W        W69312  23.896  16.321   4.356
97784W        W69313  31.548   4.698  13.489
97785W        W69314  13.224  30.183   4.767
97786W        W69315  14.124  35.091   2.790
97787W        W69316  14.342  43.775  14.256
97788W        W69317  17.562  21.489  11.496
97789W        W69318  15.136  37.469  13.358
97790W        W69319  40.737  17.156  13.745
97791W        W69320  26.107   3.383   2.596
97792W        W69321  38.053  43.334   1.730
97793W        W69322   2.377   5.663   0.006
97794W        W69323  17.096  43.415   0.793
97795W        W69324  43.616  27.876  11.166
97796W        W69325  34.218  43.983   2.841
97797W        W69326   8.176   6.927  12.427
97798W        W69327  24.942  26.127  12.081
97799W        W69328  16.274  17.782  14.887
97800W        W69329  15.062  19.632   1.838
97801W        W69330  34.136  31.396  13.395
97802W        W69331  44.631  16.702   2.461
97803W        W69332  29.346  20.384   3.338
97804W        W69333  17.327  31.704  14.392
97805W        W69334  26.026  28.233   4.325
97806W        W69335   2.857  21.185  12.420
97807W        W69336  12.709  44.575   3.456
97808W        W69337  30.170  43.880  12.466
97809W        W69338   5.597  25.079   2.260
97810W        W69339  33.599  10.586   1.253
97811W        W69340   3.445  18.467   2.404
97812W        W69341  26.443  32.128   3.633
97813W        W69342   9.641  14.733  12.499
97814W        W69343  16.741  10.180   3.889
97815W        W69344  11.620  29.711   0.211
97816W        W69345  37.038   9.148   4.577
97817W        W69346  24.224  16.598  12.541
97818W        W69347  32.980  34.394   1.073
97819W        W69348  32.549  21.576   1.929
97820W        W69349  25.954  27.504   4.476
97821W        W69350  11.654  26.202   0.266
97822W        W69351   3.824   9.436  11.178
97823W        W69352  23.218   5.362   2.639
97824W        W69353   2.632   5.794   0.446
97825W        W69354  29.905  14.151   4.483
97826W        W69355   5.989  23.005   2.153
97827W        W69356   6.422   6.411  14.301
97828W        W69357  37.126  19.093   1.175
97829W        W69358  29.534  25.991   2.177
97830W        W69359  22.436  30.949   2.763
97831W        W69360  44.317  40.817   4.606
97832W        W69361  42.575  32.655  14.482
97833W        W69362   4.113  37.893   1.699
97834W        W69363  17.989  13.604  14.789
97835W        W69364  32.587  10.456   1.847
97836W        W69365  43.102  32.455   3.732
97837W        W69366  28.761  13.390  13.843
97838W        W69367  38.515  15.660  14.739
97839W        W69368  37.953   2.783  12.787
97840W        W69369  22.183  26.893   0.333
97841W        W69370   2.198  43.492  11.585
97842W        W69371  32.039  42.014  11.512
97843W        W69372  37.584  12.306   0.775
97844W        W69373  29.719  12.359   4.567
97845W        W69374  44.425   4.028   1.245
97846W        W69375  16.119   5.924   2.688
97847W        W69376  40.030  41.635  10.564
97848W        W69377  12.551  25.365  11.892
97849W        W69378  34.027  11.846   1.906
97850W        W69379  39.266  42.987   4.755
97851W        W69380  21.605  37.313   1.735
97852W        W69381  28.701  30.791   1.437
97853W        W69382  31.990   1.726   3.683
97854W        W69383  30.553  25.355  12.443
97855W        W69384  30.074  11.823  10.275
97856W        W69385  25.983   2.905   0.788
97857W        W69386   0.813   2.172  13.898
97858W        W69387   6.729  36.123  14.033
97859W        W69388  37.919  44.375   4.650
97860W        W69389  20.985  19.205  11.220
97861W        W69390  27.623  14.764   1.357
97862W        W69391  37.937  22.103   0.723
97863W        W69392   9.863  22.653   3.740
97864W        W69393  11.852  21.286  12.060
97865W        W69394  23.605   1.782  14.993
97866W        W69395  27.938  14.148   4.575
97867W        W69396  15.175  23.289   0.326
97868W        W69397  18.460   2.892   1.978
97869W        W69398   1.963  12.891   3.311
97870W        W69399   3.036  43.360   1.348
97871W        W69400  19.116  27.651   5.063
97872W        W69401  41.783  20.250  14.370
97873W        W69402   1.895  24.454   0.967
97874W        W69403  33.087  44.875  13.769
97875W        W69404  30.546  11.289  11.334
97876W        W69405  30.379  27.529  10.847
97877W        W69406   8.480  41.364   1.369
97878W        W69407  42.829  40.857  10.643
97879W        W69408   9.636   8.046   2.875
97880W        W69409  29.160   9.407   1.340
97881W        W69410  41.342  23.098  13.276
97882W        W69411  18.523   2.934  14.958
97883W        W69412  30.980  36.400   2.477
97884W        W69413  31.319  34.513  10.836
97885W        W69414  15.319  20.444   2.237
97886W        W69415   7.483  41.749  11.444
97887W        W69416  26.540  20.716  12.690
97888W        W69417  36.419  43.398   4.074
97889W        W69418  15.108  29.694   2.125
97890W        W69419  25.677  16.602   3.317
97891W        W69420  12.129  20.365   1.212
97892W        W69421  23.574   0.216   3.426
97893W        W69422  16.648  24.289   1.946
97894W        W69423  16.809  16.199  12.489
97895W        W69424  22.275  14.107   3.701
97896W        W69425  30.481  11.865  13.072
97897W        W69426  32.972  17.607  11.626
97898W        W69427  35.952  17.041  13.848
97899W        W69428  35.692  16.756   2.204
97900W        W69429  11.738  18.654   1.268
97901W        W69430   6.610  26.115   2.268
97902W        W69431   2.014  27.490  14.027
97903W        W69432  37.013  15.137  13.963
97904W        W69433  27.109   5.442   2.153
97905W        W69434   0.382  20.044  10.668
97906W        W69435  36.513  44.020  13.851
97907W        W69436  12.960  22.745   1.232
97908W        W69437  26.198  25.250   0.493
97909W        W69438  29.241  25.178  10.292
97910W        W69439   7.938  16.695   4.585
97911W        W69440  33.011  33.088  11.921
97912W        W69441  16.786  44.966  14.418
97913W        W69442  12.975   4.871   0.048
97914W        W69443  27.686  30.251   0.228
97915W        W69444  44.190  16.832  13.251
97916W        W69445  15.760  28.916   0.529
97917W        W69446  33.354   3.342  14.603
97918W        W69447  24.767  11.178  13.360
97919W        W69448   5.653  36.559   4.081
97920W        W69449   7.460  17.785   1.251
97921W        W69450  37.699  27.662  13.091
97922W        W69451  16.118  37.244   1.698
97923W        W69452  24.765  42.532  14.864
97924W        W69453   5.046   7.147  12.613
97925W        W69454   1.450  29.237  11.605
97926W        W69455  17.270  10.332  10.344
97927W        W69456   8.226  24.454  11.446
97928W        W69457  29.278  35.749   2.249
97929W        W69458  12.624  18.559  11.932
97930W        W69459  13.389  11.411  14.013
97931W        W69460  44.585  22.158   2.869
97932W        W69461  43.876  35.784  14.523
97933W        W69462  39.720  33.130  10.977
97934W        W69463   2.246  10.207   3.413
97935W        W69464  32.618  40.877   1.158
97936W        W69465  25.527  37.515  11.172
97937W        W69466   4.842  33.837  12.799
97938W        W69467  20.516   2.697   4.492
97939W        W69468   6.755  19.180  12.513
97940W        W69469   1.952  34.086   2.289
97941W        W69470   4.324  39.193   4.885
97942W        W69471  41.360  42.438  12.488
97943W        W69472  10.415   1.060   3.760
97944W        W69473  27.058  29.012   0.328
97945W        W69474  13.789   1.333  13.455
97946W        W69475  30.129  19.514   1.335
97947W        W69476   6.681   4.926   4.070
97948W        W69477  21.292  39.743  10.642
97949W        W69478  22.674  18.876  14.429
97950W        W69479  29.623  10.301  12.493
97951W        W69480  17.667   5.013   0.347
97952W        W69481  22.613  33.694   1.921
97953W        W69482  32.736  32.279  14.864
97954W        W69483   6.894   2.916   1.206
97955W        W69484  35.909   1.081  11.985
97956W        W69485  13.159  16.822   4.041
97957W        W69486  11.624  22.467  12.823
97958W        W69487  39.547  36.417   3.289
97959W        W69488  40.345  21.772   0.278
97960W        W69489  29.339  39.680   3.826
97961W        W69490  25.787  10.336  12.486
97962W        W69491  29.733  32.942   2.694
97963W        W69492  12.052  31.470  11.951
97964W        W69493  16.925   6.555   1.444
97965W        W69494  32.477   0.065   3.748
97966W        W69495  26.082  20.700  10.341
97967W        W69496  27.383  36.034  12.364
97968W        W69497  29.757  40.303   3.742
97969W        W69498  15.715  24.677   3.871
97970W        W69499  16.152   2.635   3.249
97971W        W69500  13.742   0.090   9.922
97972W        W69501  33.272  28.950   3.356
97973W        W69502  32.099  13.579   2.226
97974W        W69503  25.729  26.424  10.854
97975W        W69504  22.311  40.071   1.005
97976W        W69505  32.443   8.343  13.558
97977W        W69506  40.987   1.041  14.360
97978W        W69507  29.799  41.213   4.200
97979W        W69508  20.218  22.351  13.844
97980W        W69509  16.080  37.181  10.370
97981W        W69510   7.287  34.857   4.834
97982W        W69511  24.723  12.751  14.402
97983W        W69512  33.002  25.726  11.196
97984W        W69513  30.860  17.757   1.172
97985W        W69514   1.494  15.226  13.181
97986W        W69515  34.885  27.908   4.527
97987W        W69516   2.164  24.364  10.458
97988W        W69517  10.750  22.147  13.012
97989W        W69518  37.956   6.348  14.877
97990W        W69519  13.675   8.205   0.386
97991W        W69520  31.858  43.396   4.642
97992W        W69521  16.523   6.959  14.501
97993W        W69522  31.638   4.589   4.324
97994W        W69523  17.650  41.287   1.688
97995W        W69524  13.727  17.755  13.254
97996W        W69525   7.698  23.960  12.964
97997W        W69526  43.995  14.210   0.869
97998W        W69527  14.197  43.844  13.760
97999W        W69528  19.259   8.034   4.948
98000W        W69529  36.007  22.056  11.002
98001W        W69530  29.175   4.517  13.353
98002W        W69531  40.402  13.603  13.368
98003W        W69532  22.973  20.701   0.247
98004W        W69533  41.781  16.083  14.758
98005W        W69534  11.205  21.128  13.754
98006W        W69535   8.729  27.448  11.175
98007W        W69536  35.961  39.382   1.308
98008W        W69537  39.801  31.446   0.414
98009W        W69538  13.176  40.557   1.239
98010W        W69539  13.601  26.664   4.251
98011W        W69540  22.953  25.031  13.933
98012W        W69541  15.716  14.550  14.057
98013W        W69542  37.213   5.332  11.990
98014W        W69543  11.226   0.658  14.422
98015W        W69544   9.140  40.545  14.996
98016W        W69545   4.676  41.347   1.328
98017W        W69546  21.362  26.940   3.236
98018W        W69547  30.671  44.754   4.069
98019W        W69548  43.030  27.759  12.059
98020W        W69549  20.785   9.853   1.727
98021W        W69550  32.528  25.767  12.478
98022W        W69551  43.254  37.471  11.044
98023W        W69552   3.409   7.425  13.131
98024W        W69553  38.265  42.029  12.889
98025W        W69554  36.601  28.006  13.638
98026W        W69555  17.795  41.380   1.189
98027W        W69556  11.276  42.232   2.553
98028W        W69557  33.895  24.487   1.425
98029W        W69558  16.546  40.250   3.346
98030W        W69559  37.080  10.569  14.044
98031W        W69560  28.582   4.984   4.244
98032W        W69561   4.384  35.429   3.871
98033W        W69562   8.170  13.159   4.060
98034W        W69563  17.224  32.913   0.488
98035W        W69564  31.722   8.859   4.671
98036W        W69565   1.860  21.945  14.615
98037W        W69566  27.016  40.185  11.189
98038W        W69567  31.439  10.585   3.090
98039W        W69568  32.958  27.582   4.789
98040W        W69569  44.769  34.787  13.980
98041W        W69570  31.698  33.159   4.180
98042W        W69571   0.824   5.697   4.465
98043W        W69572   0.658  26.979   2.814
98044W        W69573   8.813   5.316   4.647
98045W        W69574  44.458   5.230   1.781
98046W        W69575  33.061   0.930   2.404
98047W        W69576   8.727   8.779   0.999
98048W        W69577  19.071  21.393  13.112
98049W        W69578   4.684  34.139   1.746
98050W        W69579  26.007  39.372   4.211
98051W        W69580  24.770  32.237  14.466
98052W        W69581  15.257  41.919   1.435
98053W        W69582  29.963   5.126  11.019
98054W        W69583  23.687  10.756   1.253
98055W        W69584   7.465  16.972   0.072
98056W        W69585  13.277  15.058   4.601
98057W        W69586  27.461   7.919  14.487
98058W        W69587  24.576   5.462  13.440
98059W        W69588   3.871  44.691   2.382
98060W        W69589  34.333   8.305  14.505
98061W        W69590  28.434  44.512   4.884
98062W        W69591  16.444   6.679   9.594
98063W        W69592   4.020  36.362   2.163
98064W        W69593  32.967  23.711   2.242
98065W        W69594  12.929  37.340  10.184
98066W        W69595  32.535  13.649   3.913
98067W        W69596  44.323  14.683  12.679
98068W        W69597  43.581   1.695  11.855
98069W        W69598  12.262  24.091   1.517
98070W        W69599  39.075  42.487   3.655
98071W        W69600  21.790   3.265   3.210
98072W        W69601  29.146  34.657   3.163
98073W        W69602  44.736  34.884  10.147
98074W        W69603  24.261  38.070  14.670
98075W        W69604  22.800   8.692  12.994
98076W        W69605  14.736  31.651   3.649
98077W        W69606  38.616  10.446   1.278
98078W        W69607   9.500  14.725  14.230
98079W        W69608  20.237  16.056   1.528
98080W        W69609   7.199  34.628  12.426
98081W        W69610   6.778  35.600  12.498
98082W        W69611  18.101   7.108  11.948
98083W        W69612  31.959  33.831  12.418
98084W        W69613   8.954   5.869   3.258
98085W        W69614   3.869  24.583   0.750
98086W        W69615  27.161  40.222  12.506
98087W        W69616  12.333   2.024  12.393
98088W        W69617  15.248  13.182   0.830
98089W        W69618  34.002  28.549   2.949
98090W        W69619  13.666  19.457   1.435
98091W        W69620   7.738  14.279   2.732
98092W        W69621  28.085  29.143   2.929
98093W        W69622   4.648  16.274  14.765
98094W        W69623  12.527   9.897  14.299
98095W        W69624  30.990  16.586   1.526
98096W        W69625   0.054  26.250  11.122
98097W        W69626  39.913  17.559   4.140
98098W        W69627  29.049  38.065   3.329
98099W        W69628  21.066  23.050  11.217
98100W        W69629  18.309   8.949   2.432
98101W        W69630  13.844  33.189   1.203
98102W        W69631  25.211  21.573  13.978
98103W        W69632  18.347  27.886  14.646
98104W        W69633  36.087  22.990  10.620
98105W        W69634   3.239   7.435  12.654
98106W        W69635  28.387   2.614  11.527
98107W        W69636  14.133  10.697   3.677
98108W        W69637  28.693  16.554  11.886
98109W        W69638  32.954  10.611  12.083
98110W        W69639  17.703   5.119  14.807
98111W        W69640  14.784  17.695   2.936
98112W        W69641  15.879  39.521  12.133
98113W        W69642  42.482   9.353   4.793
98114W        W69643   7.235  23.274   4.155
98115W        W69644  12.100  17.198  11.592
98116W        W69645  23.541  12.157  11.940
98117W        W69646   7.841  44.375  14.426
98118W        W69647  11.668  18.125  10.792
98119W        W69648  10.141  41.543   2.819
98120W        W69649  19.010  17.776  12.574
98121W        W69650  41.941  17.090  14.889
98122W        W69651  33.349  21.304   3.800
98123W        W69652  29.017  11.749   0.544
98124W        W69653   7.433   5.830   1.888
98125W        W69654  28.538   4.352   2.228
98126W        W69655  41.400  37.352  14.446
98127W        W69656  38.336  14.458  13.963
98128W        W69657   7.179  30.301  13.632
98129W        W69658  43.736  18.611   4.010
98130W        W69659  37.037  36.759  13.325
98131W        W69660  33.007  42.021  14.811
98132W        W69661  30.402  41.938   4.800
98133W        W69662  35.095  18.719   3.666
98134W        W69663  21.359  41.796   3.103
98135W        W69664  24.405  34.611   1.431
98136W        W69665   0.920   7.307   0.085
98137W        W69666  23.473   4.227  13.046
98138W        W69667  33.193  26.484  12.675
98139W        W69668  40.785  27.910  13.750
98140W        W69669  31.517  43.836  12.695
98141W        W69670  15.516  38.698   0.893
98142W        W69671  33.474   9.830  13.915
98143W        W69672  28.418  27.559  13.424
98144W        W69673  18.083  23.549   3.697
98145W        W69674  34.053  37.579  11.953
98146W        W69675  18.274  37.689   4.582
98147W        W69676  21.051  28.414  12.141
98148W        W69677  29.467  13.096   9.796
98149W        W69678  29.957   9.311   2.613
98150W        W69679  10.352  15.314   0.734
98151W        W69680  27.122  32.979   0.450
98152W        W69681   6.597  24.124   2.774
98153W        W69682  40.459  14.124  11.214
98154W        W69683  12.950  18.016   0.056
98155W        W69684  38.744  19.598  12.413
98156W        W69685  39.827  32.582   4.192
98157W        W69686  44.177  44.824  14.515
98158W        W69687   7.117  24.610  11.434
98159W        W69688   1.800  21.090  12.179
98160W        W69689  16.880  40.515   1.051
98161W        W69690  20.960  38.955  10.758
98162W        W69691  24.512  41.098  14.812
98163W        W69692  32.357  42.301   3.803
98164W        W69693  39.463  38.521   2.836
98165W        W69694   5.518  39.333  10.968
98166W        W69695   8.157  15.786   0.883
98167W        W69696   3.378   9.186  11.214
98168W        W69697  42.217  27.294   0.718
98169W        W69698   4.783  18.053  12.505
98170W        W69699  28.134   1.594   3.739
98171W        W69700  34.154   5.646   2.214
98172W        W69701  26.481  28.233   4.978
98173W        W69702   4.975  27.903   1.397
98174W        W69703  15.071  44.244  14.923
98175W        W69704   7.367  11.759   0.385
98176W        W69705  15.922  27.444  10.298
98177W        W69706   6.071  15.751   3.313
98178W        W69707  22.985  16.264   3.742
98179W        W69708  11.822   2.496  14.973
98180W        W69709  29.972  42.828  14.533
98181W        W69710  16.534  42.269   2.778
98182W        W69711   3.030  18.904  12.123
98183W        W69712  28.444  18.239   3.590
98184W        W69713  37.581  35.903  13.983
98185W        W69714  39.425  15.256   2.746
98186W        W69715  37.005   3.439   0.819
98187W        W69716  15.945  10.900   5.025
98188W        W69717  23.724  23.150  12.875
98189W        W69718  33.162   6.760  14.683
98190W        W69719  15.692  15.969  13.979
98191W        W69720  17.721  11.518  11.601
98192W        W69721  17.239  10.297   3.555
98193W        W69722  37.997   7.683  10.694
98194W        W69723  26.289  29.580  14.275
98195W        W69724  13.967  25.576   4.979
98196W        W69725  21.284  32.383  12.901
98197W        W69726  37.014  16.097  12.040
98198W        W69727   3.639  37.209   3.184
98199W        W69728  37.548  20.321  13.458
98200W        W69729  38.444  36.897  11.136
98201W        W69730   7.820  27.133  12.738
98202W        W69731  44.762  16.604  13.347
98203W        W69732  38.762  35.536   2.700
98204W        W69733  38.858  29.496  14.108
98205W        W69734  44.476   6.307   2.832
98206W        W69735  20.263  41.298   4.970
98207W        W69736  34.112  40.882  12.490
98208W        W69737  30.917  36.889  13.801
98209W        W69738  35.796  12.114   0.286
98210W        W69739  37.761  36.025  11.652
98211W        W69740  43.417  15.113   4.184
98212W        W69741  37.123  37.274   0.615
98213W        W69742   0.337  42.348  11.222
98214W        W69743   4.803  35.117  13.090
98215W        W69744  22.577   6.287   1.784
98216W        W69745  28.314  28.907  14.625
98217W        W69746  17.148   3.550  11.679
98218W        W69747  23.545  18.278  13.078
98219W        W69748  31.535  25.585  11.136
98220W        W69749  24.388  40.276   3.625
98221W        W69750  29.162  44.881  13.807
98222W        W69751  18.160  21.058  14.534
98223W        W69752  35.092  16.972   1.600
98224W        W69753  33.572  37.032  10.586
98225W        W69754   7.656  27.259   1.726
98226W        W69755  20.856  24.324  14.279
98227W        W69756  29.643  10.466   4.508
98228W        W69757   7.559  13.686  13.527
98229W        W69758  41.260  10.154  14.521
98230W        W69759  14.485  38.027  13.041
98231W        W69760   4.544  20.505   2.178
98232W        W69761  34.533  20.723  13.036
98233W        W69762   1.905  36.655   0.705
98234W        W69763  10.763  13.098   4.189
98235W        W69764   4.778  39.934   2.214
98236W        W69765  28.990  18.073  11.925
98237W        W69766  15.992  41.893   0.849
98238W        W69767  35.295  28.978  11.096
98239W        W69768   4.303  15.837  10.750
98240W        W69769   3.386  24.764   0.835
98241W        W69770  10.042  29.633  10.635
98242W        W69771  14.770  13.690   4.310
98243W        W69772  32.399  40.989   2.727
98244W        W69773  17.087  14.168  10.376
98245W        W69774  15.571  40.312   2.300
98246W        W69775  39.053   6.076  13.498
98247W        W69776   8.581  10.135   1.966
98248W        W69777   1.916  32.324  10.820
98249W        W69778  33.538   5.682   1.786
98250W        W69779  42.796  39.294  10.825
98251W        W69780  34.521   8.243  10.810
98252W        W69781   6.219  22.781   2.830
98253W        W69782  17.181  40.979   1.908
98254W        W69783  22.317   7.178   3.266
98255W        W69784  30.612   7.294   1.936
98256W        W69785  28.460  38.614   4.319
98257W        W69786  23.650   5.360  12.147
98258W        W69787  11.419  22.040  12.492
98259W        W69788   4.346   2.561   1.387
98260W        W69789  30.721  22.996  13.406
98261W        W69790  35.561  19.844   1.721
98262W        W69791  29.677   1.460  10.015
98263W        W69792  27.349   9.721  12.557
98264W        W69793  28.660  25.475   1.794
98265W        W69794  37.963  14.033   0.446
98266W        W69795  17.112  40.542  13.139
98267W        W69796   7.135  11.184   4.640
98268W        W69797  35.980  27.513   0.617
98269W        W69798   0.020  10.807  13.838
98270W        W69799   4.248  17.180  14.486
98271W        W69800   0.343   3.975  12.836
98272W        W69801  39.347  34.445   1.802
98273W        W69802  27.768  18.584  14.844
98274W        W69803   9.215  16.511   2.802
98275W        W69804  19.031  19.052   2.574
98276W        W69805   6.363  40.628  13.011
98277W        W69806  39.482  22.347   4.596
98278W        W69807  32.491   2.457  12.200
98279W        W69808  16.668  36.657  14.445
98280W        W69809  28.952   1.723  13.676
98281W        W69810  24.467  11.118  10.477
98282W        W69811  20.508  35.503   1.783
98283W        W69812  40.949   7.825  11.583
98284W        W69813  16.172  44.273  10.298
98285W        W69814  10.395  13.822   0.351
98286W        W69815  20.770  37.392  13.484
98287W        W69816  41.482   2.229   0.645
98288W        W69817  10.412  39.625   1.446
98289W        W69818  24.766   1.481   3.889
98290W        W69819   5.678   7.274  11.030
98291W        W69820  29.726   4.641  10.999
98292W        W69821   0.196   0.803  14.357
98293W        W69822  41.991  40.252  14.943
98294W        W69823  31.086   7.399   0.692
98295W        W69824   3.095  41.149  12.185
98296W        W69825   3.460  26.960   4.997
98297W        W69826   5.390  32.428  14.816
98298W        W69827   1.435  34.061  13.882
98299W        W69828  26.665  25.167   4.439
98300W        W69829  33.342   9.487  12.785
98301W        W69830  44.347  10.212   2.703
98302W        W69831   4.374  44.819  11.362
98303W        W69832  26.846  30.377   2.421
98304W        W69833  27.072  11.162  14.404
98305W        W69834  44.007  41.088  14.986
98306W        W69835  40.520  10.748  12.156
98307W        W69836  40.915  40.411  11.137
98308W        W69837  18.460  13.678   3.643
98309W        W69838  23.472  26.656   2.770
98310W        W69839  27.440   5.511   1.643
98311W        W69840   8.459  40.059   2.603
98312W        W69841   0.808  11.380   4.360
98313W        W69842  12.150  41.749   2.755
98314W        W69843  38.135   0.043  11.563
98315W        W69844  23.127  19.568   0.973
98316W        W69845   1.974  13.227   2.650
98317W        W69846  15.024   1.632  12.134
98318W        W69847  11.139  31.947  10.715
98319W        W69848  18.575  18.732   0.385
98320W        W69849  27.938  14.241  14.780
98321W        W69850  14.517  16.663  14.509
98322W        W69851   1.162  40.314   1.803
98323W        W69852  23.106  25.661   2.676
98324W        W69853  21.233  21.635  10.604
98325W        W69854  16.204  19.703  12.351
98326W        W69855  37.866  23.955  13.531
98327W        W69856  38.849  41.637  12.742
98328W        W69857  13.176  40.287   4.622
98329W        W69858  10.175  16.522   2.825
98330W        W69859  12.645   2.993   3.148
98331W        W69860  41.520   7.437   3.363
98332W        W69861  39.943   8.563   0.885
98333W        W69862  21.763  25.500   4.201
98334W        W69863  25.036  34.635  11.205
98335W        W69864  42.069  43.326  11.948
98336W        W69865  14.604   2.647   1.825
98337W        W69866  26.554  22.427   1.797
98338W        W69867  44.760  17.108   9.806
98339W        W69868  29.514  38.308   0.957
98340W        W69869  38.974   1.626   3.656
98341W        W69870  43.356   6.237  11.542
98342W        W69871  37.423  13.323  12.519
98343W        W69872   0.786   7.292  13.625
98344W        W69873  34.033  16.145  12.072
98345W        W69874  19.649  17.194  12.909
98346W        W69875   0.468  25.268  14.690
98347W        W69876   2.748   5.785   3.886
98348W        W69877   6.857  44.912  13.715
98349W        W69878  18.190  37.017  12.008
98350W        W69879  29.081  23.242  14.417
98351W        W69880   3.646  42.819   4.607
98352W        W69881  25.061  18.202   2.318
98353W        W69882  27.433  31.691   0.450
98354W        W69883   6.926  20.528   1.851
98355W        W69884  42.205  33.131   2.144
98356W        W69885  32.642   4.119  14.533
98357W        W69886  36.773  13.363   1.302
98358W        W69887   1.562  18.176  10.754
98359W        W69888  17.961  11.339  10.773
98360W        W69889  23.706  11.880  11.530
98361W        W69890  14.399  23.081   0.680
98362W        W69891  34.407  26.886  14.873
98363W        W69892   6.851   3.400   3.222
98364W        W69893  35.950  26.677   0.435
98365W        W69894  19.939   5.238   1.759
98366W        W69895  15.735  20.450  12.544
98367W        W69896  10.208  38.638   2.561
98368W        W69897  11.765   9.362   3.611
98369W        W69898   3.894  16.157  14.023
98370W        W69899  36.499   3.346  14.838
98371W        W69900  16.096  25.972  13.491
98372W        W69901  32.865  31.435   4.620
98373W        W69902  22.389  42.023  11.415
98374W        W69903  36.420  37.827  10.624
98375W        W69904  11.706  10.879   2.819
98376W        W69905  32.373  18.664   3.677
98377W        W69906  33.454  11.457   3.402
98378W        W69907  36.186  17.125  10.736
98379W        W69908   3.954   0.719   0.831
98380W        W69909  29.542  21.064   2.223
98381W        W69910   7.922  35.836   0.842
98382W        W69911  15.414   3.770   3.218
98383W        W69912  27.181  18.190  13.755
98384W        W69913  19.314   2.599   0.513
98385W        W69914  25.635   3.752   0.518
98386W        W69915   8.319  38.594  10.414
98387W        W69916  16.579  32.957   0.754
98388W        W69917  20.707  42.249   3.596
98389W        W69918  33.424  35.488   4.276
98390W        W69919  40.514  11.997   3.762
98391W        W69920  30.931  40.924  12.000
98392W        W69921  19.731   1.704  10.722
98393W        W69922  39.391   6.984  12.082
98394W        W69923   2.383  23.292   1.277
98395W        W69924  11.868   2.870   3.554
98396W        W69925  29.833  30.188   3.393
98397W        W69926  32.410  35.820  10.665
98398W        W69927  23.164  25.407  10.830
98399W        W69928  44.273  34.874   3.619
98400W        W69929  32.653  23.229   2.247
98401W        W69930  27.562  13.061  14.216
98402W        W69931  22.577  15.491  14.325
98403W        W69932  38.435  35.950  10.704
98404W        W69933  41.051  16.640  12.506
98405W        W69934  29.649  37.522   1.449
98406W        W69935  18.071   2.308   4.122
98407W        W69936  30.185  23.333  12.526
98408W        W69937   9.347   9.812   1.866
98409W        W69938  13.695   2.134  14.546
98410W        W69939   7.888  33.882  13.694
98411W        W69940   8.187  17.373   1.906
98412W        W69941  30.604  13.564   4.145
98413W        W69942  17.147   9.361  13.377
98414W        W69943   0.486  30.427  14.876
98415W        W69944   9.016  16.325   2.146
98416W        W69945  17.164  38.130  14.869
98417W        W69946  25.583  38.740  11.471
98418W        W69947  25.103   4.479   2.627
98419W        W69948  28.330  15.833  11.552
98420W        W69949  13.594  25.485   4.609
98421W        W69950  30.250  43.286  14.481
98422W        W69951  15.250  16.069   1.248
98423W        W69952   2.849  42.687  11.542
98424W        W69953  13.817  21.623   0.431
98425W        W69954   8.085  43.032  14.554
98426W        W69955  24.027  23.291   2.921
98427W        W69956  36.797  22.298  12.092
98428W        W69957  29.365  15.766   4.038
98429W        W69958  25.907  27.707  11.606
98430W        W69959  27.155   0.419  10.652
98431W        W69960  32.637   5.971   4.233
98432W        W69961  38.471   6.583  12.138
98433W        W69962  28.479  35.369  12.973
98434W        W69963   1.448   4.763  12.012
98435W        W69964  15.790  44.072  11.576
98436W        W69965  12.964  27.429  14.856
98437W        W69966  20.693  34.013   2.953
98438W        W69967   8.419  16.573  12.917
98439W        W69968  38.409  11.710  14.859
98440W        W69969   6.421  14.540  11.601
98441W        W69970  20.797  41.591   1.367
98442W        W69971  41.838  33.918  13.032
98443W        W69972  29.159  28.958   3.428
98444W        W69973  37.639  26.433  12.063
98445W        W69974   8.854  42.433   0.479
98446W        W69975  42.261  16.706   1.725
98447W        W69976  35.689  26.464   3.673
98448W        W69977  13.412  28.969  10.009
98449W        W69978  21.920  23.008  13.323
98450W        W69979  38.072  23.548  14.832
98451W        W69980  10.077   4.655  11.455
98452W        W69981  32.054  19.440  10.500
98453W        W69982  25.280  40.865   0.291
98454W        W69983  36.725  25.056   4.574
98455W        W69984  28.515  23.091  12.986
98456W        W69985  23.009  43.653  10.373
98457W        W69986   9.215  25.214   2.182
98458W        W69987  27.109  41.213  11.250
98459W        W69988  35.637  32.086   1.881
98460W        W69989  12.259  19.612  12.605
98461W        W69990  40.567   8.873   4.423
98462W        W69991   9.908   5.485  11.635
98463W        W69992   3.133  25.928   3.212
98464W        W69993  30.702  26.341   3.094
98465W        W69994  19.313  10.819  14.877
98466W        W69995  24.500  28.071   0.740
98467W        W69996  42.142  23.969  14.843
98468W        W69997  15.886  25.463   3.147
98469W        W69998  30.960  44.228   4.632
98470W        W69999  16.194   9.395   2.711
98471W        W70000   5.641  27.240  13.990
98472W        W70001   7.826  26.930  11.183
98473W        W70002  17.994  26.443  14.882
98474W        W70003  32.227  40.099   2.467
98475W        W70004  10.287   8.232   3.729
98476W        W70005  24.808  31.773  14.246
98477W        W70006   6.680  39.856   1.606
98478W        W70007   8.363  11.238   2.757
98479W        W70008  29.465  25.909  11.086
98480W        W70009  29.014  42.331   1.313
98481W        W70010  23.337  38.127   1.967
98482W        W70011  24.289  15.890  14.744
98483W        W70012   9.403  43.475  10.385
98484W        W70013  16.187  30.121   0.469
98485W        W70014   0.421   3.982   2.190
98486W        W70015  22.235   8.228   3.790
98487W        W70016  17.185  43.302  14.869
98488W        W70017   4.266  10.265   1.793
98489W        W70018   0.581  37.594   1.266
98490W        W70019  29.067   1.784   2.447
98491W        W70020  10.808  10.547   4.074
98492W        W70021  41.321  13.807  14.958
98493W        W70022  14.182   8.386   9.922
98494W        W70023  17.359  42.551  14.116
98495W        W70024  33.251  37.464   4.994
98496W        W70025  21.894  29.609   3.435
98497W        W70026   0.353  14.670  12.506
98498W        W70027   5.268  13.174   2.925
98499W        W70028  29.908  43.472  12.222
98500W        W70029  20.896  41.586   4.391
98501W        W70030  18.458  32.182   1.312
98502W        W70031  27.238  26.041  13.868
98503W        W70032  42.002  22.928  13.538
98504W        W70033  23.548  41.878  11.121
98505W        W70034  23.815  32.882  10.743
98506W        W70035  37.592  26.758   1.481
98507W        W70036  30.203  17.689  10.686
98508W        W70037  30.473  17.750  12.997
98509W        W70038  24.187  22.894  14.071
98510W        W70039   4.041   2.942  11.161
98511W        W70040  34.309  15.840  12.417
98512W        W70041  44.430  34.531  10.421
98513W        W70042  36.384  26.452  13.454
98514W        W70043  40.828   8.746  14.941
98515W        W70044  33.620  13.861  11.985
98516W        W70045   0.735  18.618  11.636
98517W        W70046  39.150  18.912   4.359
98518W        W70047  20.229   0.524   1.301
98519W        W70048  39.404  18.091  10.718
98520W        W70049   1.452  22.614  11.973
98521W        W70050  26.871  36.494   3.648
98522W        W70051  36.313   2.916   1.380
98523W        W70052   7.969   1.926  12.639
98524W        W70053   4.297   9.240  11.146
98525W        W70054  41.277   4.222   1.290
98526W        W70055  18.537  19.512  12.908
98527W        W70056  34.792  42.227   1.483
98528W        W70057  25.810  20.069   3.089
98529W        W70058  26.470  33.185   5.304
98530W        W70059  37.467  41.025   3.751
98531W        W70060  30.255  22.746  11.645
98532W        W70061  27.878  32.458  10.506
98533W        W70062  30.168  36.456  12.017
98534W        W70063  28.987  31.438   0.348
98535W        W70064  17.012  41.211  13.493
98536W        W70065  16.182  21.035  14.542
98537W        W70066  15.773  36.783   2.392
98538W        W70067  29.286  29.718   0.847
98539W        W70068  35.863  13.578   4.054
98540W        W70069   2.951   4.067   3.211
98541W        W70070  16.063   5.999   1.314
98542W        W70071  42.864  18.356  14.881
98543W        W70072  31.114  40.261  10.763
98544W        W70073  20.774   2.901   4.089
98545W        W70074  14.525   4.666   3.302
98546W        W70075   4.362  12.921  11.140
98547W        W70076  22.036  42.243   2.326
98548W        W70077  35.046   8.153   1.244
98549W        W70078   1.502  42.504   1.828
98550W        W70079  31.253   9.449   3.697
98551W        W70080  44.836  39.277   0.300
98552W        W70081   1.017  44.430  14.489
98553W        W70082  14.348  19.794  14.950
98554W        W70083  35.554  25.414   3.617
98555W        W70084  24.422  19.207  12.521
98556W        W70085   4.906  21.212  11.081
98557W        W70086   5.409   9.358   1.546
98558W        W70087  27.709   7.341   2.229
98559W        W70088  11.996  39.253  12.365
98560W        W70089   2.802  42.581   3.566
98561W        W70090  21.412   5.412  13.447
98562W        W70091   7.434  36.827  12.557
98563W        W70092  42.772  37.155   0.511
98564W        W70093  30.519  18.322  12.120
98565W        W70094  29.337  26.491   4.043
98566W        W70095  34.121  28.554  11.118
98567W        W70096  30.682  30.095  13.615
98568W        W70097  17.653  31.788   0.940
98569W        W70098  33.955  13.279   4.742
98570W        W70099  41.745  43.353  10.596
98571W        W70100  43.950  26.322   4.276
98572W        W70101   5.427  31.982   1.220
98573W        W70102  37.876  13.787  11.053
98574W        W70103  34.788  29.166  13.363
98575W        W70104  18.046  12.429   4.442
98576W        W70105  18.545  21.191  13.779
98577W        W70106  43.967  33.541  11.972
98578W        W70107  17.587  13.165   0.895
98579W        W70108  27.918  43.307   2.680
98580W        W70109  19.461  32.690   0.289
98581W        W70110   1.627  18.945   1.701
98582W        W70111  16.222  26.630  14.469
98583W        W70112  38.436   7.015   3.808
98584W        W70113   0.791   6.169  12.583
98585W        W70114   6.336  38.961   0.263
98586W        W70115   3.265   1.984  12.519
98587W        W70116  11.872   2.942   0.748
98588W        W70117  16.150  10.223  11.918
98589W        W70118  13.804  15.796   2.255
98590W        W70119   1.881  40.892   4.494
98591W        W70120  38.015  29.726  13.016
98592W        W70121  16.795  43.254  14.275
98593W        W70122  37.453  15.157  12.849
98594W        W70123  21.087  30.497   5.013
98595W        W70124  43.542   0.384   1.679
98596W        W70125   4.655  38.513   0.516
98597W        W70126  39.316  29.161   0.872
98598W        W70127  14.157   7.706  10.697
98599W        W70128  39.315  13.823  10.941
98600W        W70129  42.043  15.642  14.855
98601W        W70130   3.335  15.252  12.041
98602W        W70131  42.495  40.294   4.868
98603W        W70132  42.843  34.340  12.062
98604W        W70133  16.738  12.130  11.101
98605W        W70134   4.739  19.350   3.594
98606W        W70135  27.014  32.908   4.518
98607W        W70136  37.134   2.305   0.287
98608W        W70137  31.117  12.678  11.173
98609W        W70138  35.864  19.317  11.088
98610W        W70139  18.238  34.401  11.098
98611W        W70140  19.712  37.664  13.861
98612W        W70141  29.035  28.409   2.628
98613W        W70142  34.810   6.202  14.800
98614W        W70143  35.492   5.638  12.236
98615W        W70144  11.626  22.620   0.118
98616W        W70145  23.604  16.317   2.210
98617W        W70146  42.492  37.254   1.744
98618W        W70147  13.812  42.356  11.654
98619W        W70148   1.853   3.670  11.601
98620W        W70149   3.035   5.865   2.264
98621W        W70150  10.189  10.308  11.982
98622W        W70151  22.049  12.090  11.991
98623W        W70152  19.715  10.333   0.249
98624W        W70153  43.730   7.975  11.147
98625W        W70154  15.231  16.544   3.802
98626W        W70155  23.427  36.470  11.971
98627W        W70156  25.688  27.689   2.830
98628W        W70157  42.707   1.181   1.637
98629W        W70158  35.222  39.042   4.003
98630W        W70159  35.796   5.038  13.411
98631W        W70160  32.035   9.645  13.084
98632W        W70161  16.322  32.062   4.361
98633W        W70162  35.105  44.559  12.860
98634W        W70163  19.631  39.703  10.997
98635W        W70164  35.433   6.134  12.112
98636W        W70165  39.555   4.368   0.563
98637W        W70166  35.003  22.477   2.300
98638W        W70167   5.554   0.856  11.141
98639W        W70168  42.278  33.128   0.384
98640W        W70169  37.989  33.074   2.399
98641W        W70170  33.574  27.151   4.832
98642W        W70171  12.198  10.113   2.725
98643W        W70172  40.310  11.679   2.091
98644W        W70173  44.687  17.023  10.494
98645W        W70174  27.804  40.800  14.010
98646W        W70175  44.862  11.780   1.192
98647W        W70176   0.783  23.477  13.951
98648W        W70177   9.477  40.533   3.166
98649W        W70178  23.281  44.991  13.464
98650W        W70179  43.599  20.078   2.251
98651W        W70180  17.507   4.732   4.984
98652W        W70181  16.411  10.927  10.521
98653W        W70182  18.290  12.206   0.970
98654W        W70183  16.675  22.455   5.136
98655W        W70184  37.375  28.200   4.888
98656W        W70185   7.680  28.949   1.735
98657W        W70186  44.739   0.675   1.612
98658W        W70187  32.137  14.639  14.491
98659W        W70188  43.856  29.124  10.644
98660W        W70189  36.363  39.324  13.948
98661W        W70190  38.472  10.861  13.530
98662W        W70191   9.218  14.438   4.513
98663W        W70192   9.859  25.206  12.423
98664W        W70193  31.385  27.101  11.400
98665W        W70194   6.640  42.440   2.229
98666W        W70195  30.325  35.424  11.966
98667W        W70196   3.198  43.980  14.013
98668W        W70197   0.217   4.388   3.827
98669W        W70198  16.364  17.754  11.123
98670W        W70199  17.652  38.422   2.019
98671W        W70200  37.037  42.904  14.297
98672W        W70201   6.346  41.711   1.255
98673W        W70202  32.603  36.351  11.175
98674W        W70203  23.191  44.340  12.094
98675W        W70204  18.208  17.546   3.761
98676W        W70205   6.848  22.787   3.658
98677W        W70206  15.982  33.676  13.024
98678W        W70207  43.589   4.656   3.836
98679W        W70208   6.715   4.773   2.770
98680W        W70209  19.678  39.517   2.960
98681W        W70210  14.826  22.531   3.165
98682W        W70211  27.107  26.446   4.610
98683W        W70212  13.232  29.041  12.915
98684W        W70213  21.285  34.901  14.477
98685W        W70214  24.094   9.205   1.751
98686W        W70215  29.889  17.580   1.385
98687W        W70216  24.090  26.568   4.708
98688W        W70217  22.803  43.553  12.523
98689W        W70218   4.147  32.636  14.902
98690W        W70219  12.358  36.338   0.756
98691W        W70220  42.388  42.488   3.652
98692W        W70221  28.972  12.234  11.250
98693W        W70222  22.004  37.594  12.444
98694W        W70223  16.173  38.011  10.631
98695W        W70224   3.150   0.539   1.701
98696W        W70225  19.761  14.310   3.593
98697W        W70226  24.966  16.482  11.367
98698W        W70227  27.545  23.516  11.167
98699W        W70228  39.041  35.691   1.858
98700W        W70229   0.915  22.165  12.867
98701W        W70230  15.104  19.608  11.520
98702W        W70231   7.924  39.561  11.172
98703W        W70232  43.010  17.036  11.114
98704W        W70233  20.619  19.483  12.049
98705W        W70234   0.249   6.474  10.876
98706W        W70235   1.314  44.050   2.242
98707W        W70236  22.240  21.214   0.195
98708W        W70237  27.952  27.984  11.660
98709W        W70238  34.984  37.898  12.702
98710W        W70239   3.324  23.762   4.575
98711W        W70240  19.660   5.308  10.905
98712W        W70241   4.424  15.341  10.696
98713W        W70242  28.207  35.454  10.979
98714W        W70243   4.944  10.663   3.647
98715W        W70244  26.801  11.349  12.362
98716W        W70245  11.854  27.684   2.896
98717W        W70246  10.716  43.167  13.029
98718W        W70247  35.272  12.317  10.879
98719W        W70248  24.222  39.489  11.394
98720W        W70249  25.548  31.397   0.348
98721W        W70250  36.870   6.197   1.351
98722W        W70251  41.516  42.448   4.553
98723W        W70252  17.803   6.810  13.030
98724W        W70253  25.094   3.971   2.709
98725W        W70254  40.000  30.344  13.055
98726W        W70255   9.571  13.135   4.203
98727W        W70256  44.066   4.883   0.378
98728W        W70257  41.478  13.398   4.492
98729W        W70258  13.077  33.092   3.076
98730W        W70259  17.595  35.944  10.592
98731W        W70260  17.415  28.410  13.680
98732W        W70261  30.760  19.723   2.616
98733W        W70262   5.208  24.220   1.765
98734W        W70263  11.621  42.837   0.828
98735W        W70264  29.826  44.466  10.934
98736W        W70265  27.323  39.558   3.262
98737W        W70266  17.512  13.533  13.225
98738W        W70267  34.439  24.629   2.877
98739W        W70268  38.014   6.587   1.940
98740W        W70269  41.881  44.939  10.769
98741W        W70270  21.199   5.296   4.597
98742W        W70271  32.590  28.943   2.121
98743W        W70272  26.045  34.968   3.056
98744W        W70273  32.788  30.761   1.974
98745W        W70274  34.483  36.857   2.568
98746W        W70275   5.281  16.489  13.506
98747W        W70276  40.310  37.185   0.208
98748W        W70277  23.157  41.007  14.369
98749W        W70278   1.065  28.538   3.108
98750W        W70279  15.551   3.244  13.431
98751W        W70280   3.848  21.100  14.557
98752W        W70281   9.166   1.468  13.882
98753W        W70282  20.220  12.273  13.150
98754W        W70283  10.279  44.506   3.183
98755W        W70284  39.010   7.485  13.908
98756W        W70285  19.137   7.125   3.132
98757W        W70286  14.682   5.311   2.728
98758W        W70287  22.037  44.574   1.692
98759W        W70288   6.610  14.613   4.178
98760W        W70289  35.354   0.125   1.149
98761W        W70290  40.046  15.456  11.449
98762W        W70291  19.994  39.246   3.686
98763W        W70292   8.878  31.814  14.612
98764W        W70293  41.935  37.997   2.787
98765W        W70294  41.324  27.399  13.245
98766W        W70295  27.585  35.691  12.682
98767W        W70296  39.199  12.429   1.190
98768W        W70297   9.152   9.357   1.667
98769W        W70298  17.687   7.141   1.428
98770W        W70299  39.861  16.220   0.023
98771W        W70300  24.215  22.221   3.244
98772W        W70301   7.763  24.131   0.030
98773W        W70302  30.208  14.352  14.880
98774W        W70303   8.778  12.870   2.347
98775W        W70304  39.928  11.691  10.771
98776W        W70305  23.046  36.873  12.921
98777W        W70306  18.589  43.999   2.773
98778W        W70307  39.959   8.785   4.627
98779W        W70308  13.000  20.038   0.836
98780W        W70309  12.662  28.389   2.710
98781W        W70310  29.034  21.060  11.966
98782W        W70311   3.224  20.372   4.794
98783W        W70312   4.330  29.644   4.601
98784W        W70313  21.651  32.547   2.983
98785W        W70314  16.040  29.455  14.352
98786W        W70315  30.695  21.972  10.759
98787W        W70316  35.897  35.097   0.310
98788W        W70317  42.089  24.116  11.674
98789W        W70318   2.145  23.060   1.881
98790W        W70319  20.613  39.324  11.786
98791W        W70320  23.549   0.297  12.142
98792W        W70321  24.191   5.286  10.533
98793W        W70322  42.461   0.318   3.201
98794W        W70323  30.463  15.286   4.483
98795W        W70324  34.797  25.499   2.225
98796W        W70325  24.526   3.251  14.315
98797W        W70326  25.532  15.460   1.659
98798W        W70327  41.268  14.611   3.484
98799W        W70328  13.834   6.975  14.926
98800W        W70329  31.345  20.066   1.262
98801W        W70330  28.647  41.798   3.818
98802W        W70331  16.332  39.249  13.535
98803W        W70332  19.240   4.962  14.300
98804W        W70333  17.933   9.748   3.188
98805W        W70334   6.964   1.975  12.978
98806W        W70335  22.098   5.654  12.623
98807W        W70336   2.202   3.559   2.233
98808W        W70337  14.570  23.000   1.641
98809W        W70338  37.484  31.827   3.707
98810W        W70339  29.753  17.010   3.353
98811W        W70340  38.055  43.874   3.800
98812W        W70341  14.914  38.523   0.058
98813W        W70342   5.672  42.826   2.695
98814W        W70343  33.970  28.613  12.022
98815W        W70344  37.570  37.364  11.957
98816W        W70345  28.409   4.162  10.735
98817W        W70346  34.755  22.819  11.122
98818W        W70347  29.258  37.747  11.937
98819W        W70348  22.656   9.585   4.527
98820W        W70349  37.384  31.370   0.528
98821W        W70350   1.769  39.450   3.517
98822W        W70351  36.352   1.714   2.168
98823W        W70352  14.822  41.493   0.263
98824W        W70353  39.758  42.031  13.995
98825W        W70354  41.253  20.782  13.985
98826W        W70355  18.746  27.213  10.149
98827W        W70356  16.063  25.616   1.315
98828W        W70357  25.579  42.529   0.413
98829W        W70358  21.005  42.335  10.688
98830W        W70359  39.334  42.476   1.828
98831W        W70360  37.645  37.245   0.634
98832W        W70361  18.861  16.129  10.568
98833W        W70362  37.601  40.427  14.381
98834W        W70363  34.537  35.067   3.863
98835W        W70364  30.015   0.813  11.627
98836W        W70365  14.251  17.967   0.697
98837W        W70366  41.361  25.027   4.070
98838W        W70367  18.067  11.825   4.493
98839W        W70368  12.771  41.244   3.298
98840W        W70369  33.619   9.758   2.357
98841W        W70370   4.977  40.712  10.348
98842W        W70371  37.798  41.990  11.132
98843W        W70372  28.883   7.076  12.392
98844W        W70373  27.407   3.727   1.392
98845W        W70374  24.961  15.426   1.927
98846W        W70375   1.855  31.530   3.270
98847W        W70376   8.105  34.169   1.954
98848W        W70377  40.251  25.175  13.931
98849W        W70378  28.452  12.573   1.780
98850W        W70379   2.541   2.736   1.374
98851W        W70380  15.157  41.900  10.489
98852W        W70381  43.781   1.664   3.336
98853W        W70382  19.982  17.757   2.940
98854W        W70383  17.448   0.696  12.312
98855W        W70384  38.722  24.656  14.449
98856W        W70385   0.486  27.030   4.557
98857W        W70386  28.963  39.559   0.409
98858W        W70387   9.594   2.934   4.809
98859W        W70388   2.982  14.267   2.684
98860W        W70389  22.752  38.743  10.854
98861W        W70390  37.997  35.494   3.203
98862W        W70391   4.724  18.130   0.405
98863W        W70392  35.067   8.475  13.870
98864W        W70393   7.138   1.827   2.861
98865W        W70394  30.907   1.334   4.823
98866W        W70395  10.600  32.411   1.643
98867W        W70396  37.067  20.909   2.143
98868W        W70397  41.756  10.455  11.600
98869W        W70398  16.374  10.786   2.670
98870W        W70399   6.367  42.218   1.208
98871W        W70400  41.319  19.699   2.753
98872W        W70401  18.013   9.364   2.330
98873W        W70402  15.413  13.972  11.079
98874W        W70403  43.636  34.989  10.404
98875W        W70404   5.725  12.272  14.952
98876W        W70405  20.515  29.786  13.771
98877W        W70406  18.012  26.059   2.830
98878W        W70407  30.121  12.634   4.991
98879W        W70408  20.213   6.673   1.232
98880W        W70409  25.624   6.868   3.956
98881W        W70410  11.513  10.785  13.521
98882W        W70411  24.176  36.973  11.879
98883W        W70412  36.398  35.955  14.096
98884W        W70413  20.158  14.203  14.014
98885W        W70414  38.994   8.723  14.408
98886W        W70415  43.378  42.050  12.020
98887W        W70416  38.127  41.552   4.201
98888W        W70417  42.854  31.365   1.870
98889W        W70418  26.402   3.966  10.797
98890W        W70419  21.007  29.216  11.518
98891W        W70420  12.631  28.225   1.699
98892W        W70421   5.539  28.015  10.422
98893W        W70422  17.312   7.947  13.390
98894W        W70423  31.641  28.041   2.515
98895W        W70424  27.932  16.288   2.927
98896W        W70425   4.925  16.108  13.403
98897W        W70426  11.573  15.338   4.830
98898W        W70427  29.588   0.070  14.907
98899W        W70428  32.350  29.259   1.405
98900W        W70429  24.495  27.383   2.305
98901W        W70430  33.831   2.761  12.907
98902W        W70431  24.717  44.566   2.456
98903W        W70432  28.971  15.228   1.610
98904W        W70433  33.534  42.375  13.387
98905W        W70434  19.749  11.584  11.105
98906W        W70435   1.101  37.704  13.002
98907W        W70436  22.463  36.947  14.538
98908W        W70437  35.027   5.432   1.878
98909W        W70438  31.909  25.929  12.147
98910W        W70439   8.450   3.672  11.012
98911W        W70440  34.992   7.171  13.924
98912W        W70441  44.959  14.314  11.178
98913W        W70442  35.553  19.498  12.852
98914W        W70443  28.522  23.988  14.378
98915W        W70444   5.448  17.353   1.413
98916W        W70445   3.908  32.406   0.268
98917W        W70446   2.995  23.491  14.240
98918W        W70447  33.045  20.578   1.721
98919W        W70448   6.264  21.745  10.606
98920W        W70449   8.652  44.187   2.036
98921W        W70450  15.902  10.327   4.527
98922W        W70451  24.507  25.997   4.526
98923W        W70452  37.132   6.326  13.455
98924W        W70453   3.388  11.130   4.235
98925W        W70454   0.289  31.886  14.261
98926W        W70455  44.215  38.098   2.466
98927W        W70456  18.818   6.286   1.616
98928W        W70457  22.724  25.210   0.303
98929W        W70458  20.794  21.513   2.177
98930W        W70459  12.643  35.881   2.767
98931W        W70460  21.340  11.193  14.390
98932W        W70461  38.155  43.774  14.321
98933W        W70462  26.480  36.446  14.291
98934W        W70463   4.426  25.125  10.523
98935W        W70464  37.649  25.317   0.758
98936W        W70465  41.033  32.159   2.298
98937W        W70466  32.599  11.872   2.456
98938W        W70467  24.081   9.550  11.258
98939W        W70468  23.146  38.376   4.620
98940W        W70469  31.412  28.555   0.032
98941W        W70470  31.672   9.429  13.773
98942W        W70471  24.536  13.924   0.524
98943W        W70472  31.922  37.056   4.089
98944W        W70473  44.020  36.093  11.584
98945W        W70474   1.790  16.805  14.252
98946W        W70475   8.042  25.472  13.406
98947W        W70476  42.527   9.201  10.410
98948W        W70477   8.828  27.947  12.927
98949W        W70478  16.340  10.256   1.208
98950W        W70479  23.708  42.821  11.694
98951W        W70480   2.344   7.303   0.218
98952W        W70481  18.212   2.804   3.462
98953W        W70482  23.077  25.232   1.623
98954W        W70483  17.252   1.576   1.159
98955W        W70484   7.805  34.331   3.415
98956W        W70485  30.932  35.496  13.368
98957W        W70486  12.396   1.079  12.198
98958W        W70487   0.322   2.221  14.013
98959W        W70488  17.734  38.246   1.482
98960W        W70489   3.276  35.498  14.809
98961W        W70490  20.590   5.989   3.160
98962W        W70491  43.258  33.900   1.240
98963W        W70492  10.626  18.169  11.760
98964W        W70493  28.070  21.837  12.023
98965W        W70494   0.781  38.227   3.852
98966W        W70495  24.761  40.235  11.709
98967W        W70496   7.197  19.181  14.590
98968W        W70497   3.871  37.079   0.509
98969W        W70498  31.187  39.514  12.605
98970W        W70499   6.967  23.731   3.495
98971W        W70500  11.243  20.063  10.545
98972W        W70501  33.374  10.342  10.740
98973W        W70502   2.777  22.071   2.795
98974W        W70503  19.071  18.808   3.307
98975W        W70504  10.556  19.630   4.116
98976W        W70505  34.480  23.580   1.395
98977W        W70506  38.424  18.705  13.491
98978W        W70507  19.637  12.375   2.731
98979W        W70508  28.733  22.934  12.539
98980W        W70509  19.268  31.262  10.169
98981W        W70510  34.610  35.387   0.412
98982W        W70511   6.823  24.298  11.741
98983W        W70512   3.962  18.770  11.020
98984W        W70513  23.673   1.655  14.485
98985W        W70514  25.418  17.790   3.558
98986W        W70515  16.296  29.549  12.437
98987W        W70516  42.578   1.065  13.037
98988W        W70517   2.927  42.743   0.869
98989W        W70518  29.468  30.223   2.320
98990W        W70519   7.884  25.211   4.083
98991W        W70520  42.135  31.284   3.604
98992W        W70521   9.655  20.020  13.408
98993W        W70522  19.017  36.885   0.393
98994W        W70523  36.966  43.310  10.358
98995W        W70524   9.907  26.034   0.693
98996W        W70525  11.244   0.748  12.857
98997W        W70526  37.867  14.762  12.093
98998W        W70527   7.814  37.121   1.748
98999W        W70528   2.052  40.443  12.147
99000W        W70529  35.608  33.052   4.531
99001W        W70530   4.326   3.210  13.007
99002W        W70531   1.084  35.644  13.377
99003W        W70532  26.182   2.444   2.407
99004W        W70533  32.095  18.016  10.921
99005W        W70534  15.177  20.092   5.002
99006W        W70535  35.830  27.747   4.935
99007W        W70536  31.001   3.474   3.251
99008W        W70537  18.838  21.016  11.274
99009W        W70538  28.596  29.411  11.962
99010W        W70539   8.403  38.297  13.605
99011W        W70540  15.701  11.240  11.183
99012W        W70541   2.100   2.269   3.818
99013W        W70542  28.863  30.875  14.133
99014W        W70543  28.207  28.717  12.855
99015W        W70544  20.808  30.981  13.216
99016W        W70545  22.917  21.477   3.263
99017W        W70546   4.306  25.601   3.264
99018W        W70547  30.263  21.269   4.542
99019W        W70548  20.957  32.839  13.962
99020W        W70549  25.636  21.222  11.597
99021W        W70550  34.689  44.789  14.467
99022W        W70551  35.356  15.365   4.359
99023W        W70552  26.203  42.395  14.679
99024W        W70553  21.540  43.396  13.014
99025W        W70554  44.486  39.817   3.057
99026W        W70555  26.039   9.102  12.929
99027W        W70556  18.637  28.467  11.421
99028W        W70557  17.897  28.380  13.492
99029W        W70558  38.693   7.271   3.334
99030W        W70559  16.129  34.294   3.972
99031W        W70560  29.046  42.405   4.320
99032W        W70561  42.830  20.727   0.807
99033W        W70562   0.835   6.399  11.582
99034W        W70563   8.786   8.404  11.597
99035W        W70564   0.484  32.437  13.990
99036W        W70565  30.878  39.747   3.301
99037W        W70566  43.527  21.171  13.793
99038W        W70567   2.810  26.840  10.420
99039W        W70568   6.756   6.633   4.780
99040W        W70569   7.891   0.715   1.513
99041W        W70570  21.163  22.711  12.914
99042W        W70571  41.321  44.535  11.875
99043W        W70572  40.431  25.822   2.465
99044W        W70573  27.135   2.915   0.958
99045W        W70574  15.256  17.065   3.852
99046W        W70575  17.873  16.698  13.157
99047W        W70576   1.939   2.273   4.293
99048W        W70577  41.807  44.539   4.242
99049W        W70578   2.885   7.091  13.913
99050W        W70579  34.234  29.820   1.780
99051W        W70580  41.610  27.997   2.242
99052W        W70581  17.869  32.520  12.342
99053W        W70582  12.655  24.758   2.179
99054W        W70583  43.715  14.152   3.613
99055W        W70584  21.571   8.115  11.114
99056W        W70585   8.752   2.989  11.589
99057W        W70586  11.798  42.741   4.194
99058W        W70587  17.444   8.673  14.460
99059W        W70588  31.209  13.164  13.849
99060W        W70589  33.085   3.395  11.406
99061W        W70590   3.906  32.843   3.722
99062W        W70591  10.884  33.742   1.448
99063W        W70592  16.105  12.367   2.707
99064W        W70593  38.420  33.685   3.550
99065W        W70594  10.884  31.070   0.038
99066W        W70595  23.232  30.091  12.534
99067W        W70596  35.599  33.987  13.415
99068W        W70597   6.899  29.421   1.325
99069W        W70598  43.863   4.797  11.564
99070W        W70599   2.168  10.736  11.589
99071W        W70600  40.569  32.123   0.340
99072W        W70601  15.204  32.786   5.068
99073W        W70602   4.145  27.329   0.398
99074W        W70603   3.726  21.762  12.864
99075W        W70604  28.444  32.933  13.429
99076W        W70605   0.241  14.213  12.914
99077W        W70606  38.395   9.197  13.761
99078W        W70607  21.552  12.607  14.033
99079W        W70608  12.417  10.460   5.106
99080W        W70609   3.932  34.723  11.423
99081W        W70610  22.756  24.708  13.337
99082W        W70611  25.533  38.330   1.788
99083W        W70612  28.701  20.576  12.636
99084W        W70613  23.010  44.535   0.478
99085W        W70614  35.892  24.182  14.845
99086W        W70615  22.192  27.401   0.414
99087W        W70616  12.449  36.770  12.596
99088W        W70617  27.447  32.599   1.452
99089W        W70618   0.689  31.098  10.878
99090W        W70619  43.512  28.081  13.487
99091W        W70620  41.315  40.276  11.436
99092W        W70621  22.634  11.674  12.974
99093W        W70622  30.486  12.073  13.543
99094W        W70623  29.519  23.968  14.252
99095W        W70624  18.646  35.600   4.440
99096W        W70625  19.621  43.493  13.542
99097W        W70626   3.144  32.027   0.822
99098W        W70627  19.116  35.893   3.653
99099W        W70628  19.919  43.711  14.514
99100W        W70629  32.597  37.026  11.441
99101W        W70630   5.829  22.680  14.503
99102W        W70631  13.141  28.395   1.727
99103W        W70632  25.859  42.527   4.653
99104W        W70633   0.712  10.940  11.147
99105W        W70634  37.041  10.926  11.022
99106W        W70635   8.998  20.433  12.346
99107W        W70636   4.254  29.868  12.159
99108W        W70637  34.109  28.792  13.411
99109W        W70638   0.301  27.964  10.564
99110W        W70639  22.803   6.752   3.806
99111W        W70640  18.164   2.860   4.966
99112W        W70641  35.382  18.896  12.171
99113W        W70642  34.438  29.374  12.613
99114W        W70643  23.866  27.667  12.352
99115W        W70644  15.904   8.096  11.078
99116W        W70645  20.291  38.542  14.396
99117W        W70646  31.254  31.436  10.495
99118W        W70647  41.252  38.545   1.546
99119W        W70648   2.847  26.597   1.200
99120W        W70649  22.005  34.780  11.119
99121W        W70650  43.772  29.153   1.826
99122W        W70651  22.489  19.874  14.474
99123W        W70652  16.333  33.353  11.497
99124W        W70653  17.821  19.609   3.218
99125W        W70654  20.616  15.684   3.649
99126W        W70655  15.649  43.437  14.978
99127W        W70656   6.743  42.346  11.476
99128W        W70657  31.139  29.886   0.269
99129W        W70658  37.507  37.879   4.632
99130W        W70659  25.695  40.054  14.428
99131W        W70660  13.437  23.896  10.334
99132W        W70661  24.969  38.850  12.856
99133W        W70662   4.949  29.532  12.346
99134W        W70663   3.237  12.556  11.516
99135W        W70664  11.844  29.538   3.651
99136W        W70665  44.516  29.831  14.777
99137W        W70666  14.833   9.861   0.782
99138W        W70667  13.743  28.546  13.064
99139W        W70668   2.877   7.804  12.551
99140W        W70669   6.903  12.515   0.447
99141W        W70670  43.861   7.893   2.487
99142W        W70671  16.006  25.486   2.289
99143W        W70672  38.965  38.581   5.063
99144W        W70673  23.457  30.477   3.086
99145W        W70674  21.647   1.360   1.624
99146W        W70675  12.354  41.362   1.916
99147W        W70676   7.006   5.388   4.098
99148W        W70677  13.322  14.310   5.028
99149W        W70678   0.289  21.470   0.964
99150W        W70679  36.452  36.610   0.466
99151W        W70680  24.888  26.427  13.885
99152W        W70681  25.933  39.499   3.247
99153W        W70682   3.192  13.037  11.297
99154W        W70683  36.385  24.170   4.808
99155W        W70684  14.882  15.124   1.870
99156W        W70685  24.429  23.000  11.902
99157W        W70686  12.428  24.119   3.159
99158W        W70687  28.017   6.805  13.446
99159W        W70688   8.825  38.866   2.311
99160W        W70689   1.867  33.345   1.336
99161W        W70690  35.935   1.361  13.464
99162W        W70691   6.698   6.859   0.497
99163W        W70692  35.654  11.423   1.479
99164W        W70693  32.126   7.200  10.411
99165W        W70694  29.511  10.914   3.214
99166W        W70695  38.949  23.993  12.129
99167W        W70696  20.692   3.849  13.548
99168W        W70697  41.512  29.410   3.228
99169W        W70698   2.990  39.205  10.624
99170W        W70699  16.639   6.184  13.783
99171W        W70700   4.789  23.218  11.800
99172W        W70701   2.394  15.321   1.435
99173W        W70702  20.825   0.833  14.978
99174W        W70703  31.104   2.713  14.827
99175W        W70704  16.762  43.414   3.878
99176W        W70705  42.004   3.765  11.405
99177W        W70706  25.622  37.148  12.080
99178W        W70707  36.858  37.575  10.763
99179W        W70708  11.776  36.304   4.598
99180W        W70709   1.684  33.038  13.062
99181W        W70710  23.069  33.918   2.890
99182W        W70711  13.746  35.306   0.424
99183W        W70712  20.113   3.591  12.306
99184W        W70713  31.177   6.698  14.432
99185W        W70714  42.782   4.247  12.161
99186W        W70715  16.990  32.979   4.845
99187W        W70716  14.617   8.042  12.484
99188W        W70717  22.011  31.382  13.925
99189W        W70718  22.397   9.533   3.209
99190W        W70719  36.619  43.809  13.399
99191W        W70720  17.488  15.801  11.527
99192W        W70721  29.118  21.706  13.895
99193W        W70722  37.500  13.449   4.628
99194W        W70723  41.977   0.403   3.400
99195W        W70724  26.031  18.836  11.006
99196W        W70725  28.202  43.733   2.661
99197W        W70726  37.565   5.824  14.880
99198W        W70727   5.287  10.635  10.715
99199W        W70728  36.095  13.117  12.270
99200W        W70729  37.944   4.371  14.949
99201W        W70730  38.894  29.609  12.593
99202W        W70731  42.036  25.934   1.798
99203W        W70732  19.637  13.118   0.932
99204W        W70733  24.225  40.649   3.322
99205W        W70734  12.341  23.572   1.478
99206W        W70735  36.049  40.059  14.008
99207W        W70736   2.858  28.027  14.959
99208W        W70737  13.840   8.291  13.395
99209W        W70738  39.040   1.880   3.198
99210W        W70739   6.804   0.802  13.725
99211W        W70740  16.472   5.476  13.287
99212W        W70741  10.304   6.319   1.783
99213W        W70742   2.518  38.447  10.288
99214W        W70743  18.232  10.347   1.528
99215W        W70744   8.488  26.546   1.424
99216W        W70745  21.973  38.059  14.500
99217W        W70746   8.013  34.372   9.812
99218W        W70747  13.520   0.672   0.400
99219W        W70748  30.244  26.616  10.630
99220W        W70749   4.291  23.780  14.344
99221W        W70750  31.914   2.894  12.111
99222W        W70751   0.839   5.142  10.719
99223W        W70752  11.577  21.656   4.370
99224W        W70753  11.577   3.445  13.651
99225W        W70754   2.905   2.354  11.418
99226W        W70755  34.899  37.888  13.582
99227W        W70756   4.368  33.876   2.095
99228W        W70757   0.349   7.211   3.157
99229W        W70758  23.832  38.191   0.704
99230W        W70759  36.384   2.610   3.711
99231W        W70760  15.751  29.674  12.405
99232W        W70761  35.332  12.356   0.266
99233W        W70762  43.029  32.563   2.909
99234W        W70763  10.875   6.203   1.008
99235W        W70764   4.385  34.000  11.487
99236W        W70765  14.905  20.592   3.972
99237W        W70766  38.096  17.630   0.684
99238W        W70767  41.852  27.220  11.677
99239W        W70768  35.886  40.189   1.906
99240W        W70769  37.470  21.054   1.843
99241W        W70770  38.770  10.773   1.931
99242W        W70771  29.829  14.049  13.106
99243W        W70772  15.086  44.280   4.714
99244W        W70773  14.683  42.318   1.322
99245W        W70774  34.741  15.950   1.803
99246W        W70775  21.945  17.053  14.828
99247W        W70776  10.254   4.281   1.311
99248W        W70777  15.386  11.422   3.242
99249W        W70778  12.348  40.996   3.065
99250W        W70779  42.890  38.547   1.955
99251W        W70780  11.171  24.074   1.393
99252W        W70781  30.064  12.383   2.836
99253W        W70782  30.154  16.036  13.532
99254W        W70783   4.382  13.631   2.805
99255W        W70784  37.472  11.562   5.010
99256W        W70785  38.560  42.891  10.772
99257W        W70786  32.775  25.379  11.558
99258W        W70787  35.373  36.608   4.109
99259W        W70788   6.881  27.617  12.914
99260W        W70789  22.064  29.672  14.780
99261W        W70790  19.309  27.840  12.449
99262W        W70791   9.414  15.267   0.413
99263W        W70792  21.924   0.288   2.473
99264W        W70793  29.236  10.668  12.459
99265W        W70794  34.046  30.437   5.083
99266W        W70795  11.365  40.598  11.515
99267W        W70796  22.059   2.480   0.204
99268W        W70797  23.822  24.666  10.421
99269W        W70798  35.557   3.192  10.670
99270W        W70799  25.883  13.080   2.352
99271W        W70800  20.514   3.884   1.194
99272W        W70801  10.389  19.620   4.642
99273W        W70802  27.937   2.463   2.956
99274W        W70803  11.908  11.656  12.091
99275W        W70804  15.864  40.993  13.898
99276W        W70805  12.771   6.467   4.292
99277W        W70806  11.410  35.482   2.254
99278W        W70807   7.067  30.396  14.905
99279W        W70808  16.925  34.674  11.925
99280W        W70809  27.609  20.271   4.858
99281W        W70810  10.661  35.681   1.862
99282W        W70811   2.683  13.454  13.403
99283W        W70812   7.188   1.268   3.680
99284W        W70813  27.080  43.489  13.787
99285W        W70814  20.782  35.068   1.751
99286W        W70815  20.240  12.379   0.023
99287W        W70816  15.169  10.118   2.517
99288W        W70817  23.905  38.866   4.972
99289W        W70818   8.582   2.161  11.217
99290W        W70819   0.635  10.354   3.996
99291W        W70820  28.050  31.541  10.741
99292W        W70821   1.022  18.217   9.707
99293W        W70822   6.765  16.729   0.482
99294W        W70823  17.310  25.734  13.479
99295W        W70824  12.838  10.083   4.697
99296W        W70825  14.230  15.794   4.651
99297W        W70826   2.909  31.040   3.249
99298W        W70827  22.650  29.078   3.211
99299W        W70828  22.087   4.974   3.101
99300W        W70829  31.501  26.086  10.996
99301W        W70830  17.376  19.605   4.037
99302W        W70831  28.528  32.795   1.568
99303W        W70832  40.268  40.089  13.858
99304W        W70833  18.988  38.392  14.850
99305W        W70834  13.234  10.133   1.278
99306W        W70835  23.056   7.370   4.857
99307W        W70836  21.480  10.928  14.837
99308W        W70837  23.564  22.309   4.827
99309W        W70838  20.187  21.562  12.353
99310W        W70839  19.716  10.769  13.937
99311W        W70840  36.331  43.237   3.596
99312W        W70841  10.690  29.005  13.074
99313W        W70842  15.166   8.723   4.051
99314W        W70843  15.576   2.195   3.739
99315W        W70844  21.036  27.592   1.138
99316W        W70845  31.747  40.096  12.564
99317W        W70846  19.353  38.296  12.628
99318W        W70847  12.122  27.315  13.431
99319W        W70848  38.804  22.335   4.069
99320W        W70849   4.830  32.061   2.342
99321W        W70850  30.652  39.121   0.757
99322W        W70851  23.992   4.186  12.881
99323W        W70852  11.547  40.007   4.740
99324W        W70853  32.565   7.883   1.231
99325W        W70854  43.405  44.903  10.587
99326W        W70855   8.370  31.947  11.592
99327W        W70856  25.179   4.919   4.464
99328W        W70857  34.848  30.064   2.150
99329W        W70858  42.364   3.785  13.660
99330W        W70859  34.075   7.634  11.878
99331W        W70860  14.912  21.769   2.284
99332W        W70861  11.806  36.921   3.801
99333W        W70862  27.107  27.597  14.038
99334W        W70863   0.734  18.969   1.931
99335W        W70864   8.326   7.138  11.255
99336W        W70865  19.027  26.042   4.870
99337W        W70866  14.163  36.562  11.553
99338W        W70867   3.638  20.992  12.458
99339W        W70868  14.098  29.947  12.874
99340W        W70869  44.556   3.456   4.788
99341W        W70870  42.013  24.167   0.348
99342W        W70871  20.990   7.900   4.566
99343W        W70872  40.814  36.405   1.857
99344W        W70873  11.098  16.186   2.496
99345W        W70874  44.360  12.346  12.062
99346W        W70875  32.080   5.930  12.363
99347W        W70876  20.934   2.999  12.074
99348W        W70877  23.096  26.568   1.821
99349W        W70878  15.181  21.972  12.015
99350W        W70879  19.747  10.216  13.414
99351W        W70880  12.883   5.643   1.467
99352W        W70881  10.174  21.313  10.768
99353W        W70882  33.538  18.035  12.104
99354W        W70883   5.716  29.265   2.587
99355W        W70884  35.020  44.067  12.926
99356W        W70885  29.592  27.480   4.526
99357W        W70886  33.119  34.624   3.379
99358W        W70887  27.112  16.364   2.472
99359W        W70888  33.866  26.005  10.638
99360W        W70889  30.078  24.534  11.528
99361W        W70890   0.678  34.823   0.323
99362W        W70891   2.851  11.077  12.053
99363W        W70892  12.376  40.408  13.018
99364W        W70893  36.988  29.078   1.517
99365W        W70894   9.687   2.848  11.555
99366W        W70895  30.165   2.356   3.129
99367W        W70896   8.367   7.934   2.377
99368W        W70897  43.500  31.321   2.333
99369W        W70898  11.363   4.244   3.702
99370W        W70899   9.061  33.551   2.309
99371W        W70900  36.546  19.656  13.503
99372W        W70901  28.520  11.705   4.560
99373W        W70902  20.752  39.846  14.455
99374W        W70903  19.807  27.166   3.280
99375W        W70904  13.345  39.812   1.823
99376W        W70905  15.056  17.894   0.266
99377W        W70906  14.755  17.077   3.224
99378W        W70907  28.352  35.078   1.211
99379W        W70908  28.739  35.913   3.157
99380W        W70909  17.791   8.426   4.481
99381W        W70910  21.008   6.056  14.958
99382W        W70911  39.239   0.282  11.200
99383W        W70912  11.831   7.554   2.204
99384W        W70913   6.227   9.879   1.188
99385W        W70914  24.145   5.000   2.732
99386W        W70915  28.918  17.281   3.559
99387W        W70916  37.387  13.246  13.038
99388W        W70917  10.902  18.293   4.917
99389W        W70918  26.943  21.734   2.790
99390W        W70919   6.383  35.108   1.272
99391W        W70920  13.174   5.245   1.248
99392W        W70921  10.861   1.206  12.077
99393W        W70922  40.474  22.638  13.392
99394W        W70923  36.365  17.302  13.671
99395W        W70924  40.774  40.994  14.520
99396W        W70925  21.358   1.649  14.512
99397W        W70926  38.554   6.328  13.508
99398W        W70927  38.980  27.751  10.726
99399W        W70928  26.960  38.113   2.439
99400W        W70929  15.916  39.448  14.822
99401W        W70930  18.375   7.171   2.869
99402W        W70931  29.006  43.716   3.781
99403W        W70932  17.780  44.469  11.560
99404W        W70933  36.926   3.282  10.743
99405W        W70934  15.701  15.066   2.073
99406W        W70935  11.784  38.285  11.410
99407W        W70936   5.860  43.203  10.742
99408W        W70937  36.186  36.921   0.045
99409W        W70938  38.331  11.010   4.836
99410W        W70939  21.215  10.768  13.551
99411W        W70940  15.261  21.785   0.458
99412W        W70941   1.289  10.084  11.505
99413W        W70942   8.109   9.371  11.065
99414W        W70943  11.769  32.572   4.570
99415W        W70944  44.453   7.041   1.718
99416W        W70945   1.449   8.328   1.848
99417W        W70946  39.784  36.968  12.461
99418W        W70947  20.584  42.380  13.928
99419W        W70948   6.181   1.196  14.321
99420W        W70949  42.060  18.829  14.265
99421W        W70950   4.395  27.457  12.352
99422W        W70951  31.554  32.492   3.647
99423W        W70952   1.363  11.094   4.238
99424W        W70953  32.611  37.304  12.174
99425W        W70954  10.662  25.167   2.201
99426W        W70955   3.345  28.268  13.272
99427W        W70956   1.276  25.720   0.133
99428W        W70957   4.343  35.161  12.827
99429W        W70958  39.054  26.992   4.777
99430W        W70959  15.590   4.227   4.560
99431W        W70960   1.793  25.926   3.629
99432W        W70961  34.933  32.118  14.442
99433W        W70962  19.505  18.830   2.470
99434W        W70963  31.906  19.702  13.766
99435W        W70964  34.861  24.597  12.299
99436W        W70965   8.862  13.682   2.149
99437W        W70966  31.044  17.067  10.314
99438W        W70967  24.600   7.690  11.679
99439W        W70968  13.267  18.698   3.148
99440W        W70969  40.309  26.072  14.450
99441W        W70970  36.639  31.089   0.484
99442W        W70971  12.138  17.504   1.689
99443W        W70972  10.006  20.125   3.540
99444W        W70973  21.839  26.327   1.205
99445W        W70974  41.276   8.696   3.768
99446W        W70975   9.686  34.997   2.809
99447W        W70976  27.555   7.194  14.360
99448W        W70977  11.414  37.004   4.110
99449W        W70978   2.281  36.169  11.964
99450W        W70979  36.972  33.513   4.647
99451W        W70980   7.937   6.835  11.976
99452W        W70981  39.836  17.615  10.539
99453W        W70982  28.712  43.551   2.192
99454W        W70983  29.861  28.898  11.974
99455W        W70984  34.856  30.603  10.686
99456W        W70985  13.229  43.197  14.767
99457W        W70986  13.955  29.503  13.426
99458W        W70987  42.900  14.902   1.217
99459W        W70988  34.281  26.273   4.697
99460W        W70989  12.831  25.709  14.970
99461W        W70990  39.208  19.992   2.242
99462W        W70991  33.621  38.084  13.057
99463W        W70992   2.043  36.830   0.208
99464W        W70993   8.020   3.814   1.861
99465W        W70994  12.656  32.188   4.761
99466W        W70995   0.908  35.842   2.836
99467W        W70996  23.230  18.337  14.931
99468W        W70997  34.710  22.030  11.505
99469W        W70998  40.083  16.126  13.463
99470W        W70999  37.907  43.526   2.185
99471W        W71000   0.931  17.150  11.158
99472W        W71001  44.357   7.756  12.992
99473W        W71002   4.414   1.243   0.994
99474W        W71003  32.975   0.495  12.862
99475W        W71004  24.223   4.694   3.629
99476W        W71005  34.040  41.654   4.091
99477W        W71006  18.334  43.595  13.898
99478W        W71007   7.285  19.700  14.721
99479W        W71008  26.103  44.793  11.162
99480W        W71009  28.981   2.194  11.925
99481W        W71010  16.323  20.689   3.971
99482W        W71011  41.326   3.460   2.928
99483W        W71012   2.695  11.858   0.359
99484W        W71013  14.255  34.158  13.577
99485W        W71014  26.777  21.886   4.547
99486W        W71015  20.614  32.043  11.763
99487W        W71016  19.063   7.090  12.015
99488W        W71017  41.014  36.587   3.121
99489W        W71018  12.646   1.053   3.198
99490W        W71019  22.568  23.339  12.336
99491W        W71020  28.496   6.468   0.614
99492W        W71021  31.429   1.866  13.929
99493W        W71022  17.199   1.761   0.027
99494W        W71023  32.005  36.171  14.467
99495W        W71024  15.573  42.869   4.365
99496W        W71025  31.125  10.293   2.715
99497W        W71026  15.632  34.503   2.262
99498W        W71027  27.742  37.688   1.777
99499W        W71028  28.396  30.378   2.737
99500W        W71029   3.222  36.867  13.854
99501W        W71030  21.324  25.879   1.359
99502W        W71031  10.852  22.889   4.393
99503W        W71032  11.638  15.607  14.882
99504W        W71033  12.718   7.506  10.416
99505W        W71034   4.376  17.512  12.003
99506W        W71035   1.707  23.479  13.701
99507W        W71036  13.554  15.285   4.182
99508W        W71037  16.755  29.106  13.296
99509W        W71038   0.791  25.290  12.115
99510W        W71039  11.941   9.632   2.313
99511W        W71040  23.478  24.719   0.549
99512W        W71041  13.737  37.348  12.683
99513W        W71042   1.465  43.785   0.342
99514W        W71043   9.215  28.092   1.402
99515W        W71044  27.125  27.467  14.550
99516W        W71045  35.935  39.780  11.215
99517W        W71046  33.476  41.851   0.014
99518W        W71047  26.095   8.605   3.676
99519W        W71048   7.310  11.250  13.561
99520W        W71049  27.000  32.809   3.532
99521W        W71050  12.886  17.314   1.251
99522W        W71051  30.642  21.884  14.076
99523W        W71052  30.175  18.117  11.302
99524W        W71053  27.914  20.581  14.844
99525W        W71054  33.455  15.757  14.730
99526W        W71055   6.336   5.197  11.506
99527W        W71056  16.116  28.915   4.793
99528W        W71057  35.690  15.715   4.562
99529W        W71058  34.330  39.873   4.665
99530W        W71059   1.802  43.706  12.506
99531W        W71060  19.879  35.845  11.621
99532W        W71061  11.232  33.023  12.583
99533W        W71062  21.794  36.946   0.910
99534W        W71063   2.882  14.260   0.727
99535W        W71064  18.744  23.078  13.417
99536W        W71065   1.656  11.226   1.633
99537W        W71066  13.275  20.196   0.407
99538W        W71067  42.479  29.570   2.149
99539W        W71068  33.118  29.951  12.033
99540W        W71069  34.763  22.205   0.778
99541W        W71070  41.336  26.705   2.904
99542W        W71071   6.198   1.875   5.092
99543W        W71072  10.564  42.396   4.249
99544W        W71073  12.525  10.787  12.620
99545W        W71074  40.671   7.925  14.260
99546W        W71075   3.717  26.173  14.331
99547W        W71076  19.296  34.517  11.278
99548W        W71077  31.970  40.457   3.307
99549W        W71078   9.163  11.080  12.944
99550W        W71079  28.090   7.708   0.036
99551W        W71080  24.511  24.506   3.470
99552W        W71081  36.361  38.985   1.338
99553W        W71082  27.850  30.201  12.054
99554W        W71083  27.777  29.425   4.316
99555W        W71084  33.365  10.298  11.593
99556W        W71085  43.031  10.392  12.097
99557W        W71086   2.968  17.918   3.989
99558W        W71087  19.971  15.105  13.633
99559W        W71088  16.092  36.387  14.517
99560W        W71089  30.544   8.073   2.271
99561W        W71090  27.642  14.689   2.955
99562W        W71091  31.041   3.870  14.436
99563W        W71092  30.949  16.723  10.705
99564W        W71093  44.520  13.322   3.100
99565W        W71094  33.024  37.993  12.135
99566W        W71095  27.393  35.333   3.264
99567W        W71096  11.329  18.666  12.029
99568W        W71097  15.212   1.294   0.691
99569W        W71098  16.112  38.256   1.674
99570W        W71099   4.853  26.175   2.398
99571W        W71100  14.673   3.381  12.451
99572W        W71101  13.713  18.521   3.287
99573W        W71102  17.378  41.522   0.755
99574W        W71103   6.904   6.397   1.324
99575W        W71104  13.413   2.440  12.913
99576W        W71105  13.852  38.528  11.954
99577W        W71106  27.004   5.634  13.336
99578W        W71107  12.334  13.103  14.065
99579W        W71108  37.514   4.191   1.226
99580W        W71109  21.631  20.938   0.424
99581W        W71110   6.673  22.571  10.570
99582W        W71111   0.558  29.539  11.066
99583W        W71112  44.880  17.835   4.393
99584W        W71113  21.105  31.408  11.176
99585W        W71114  42.234  35.912   3.108
99586W        W71115  29.876   5.343  12.933
99587W        W71116  25.100   6.952  12.063
99588W        W71117   5.169  44.760  11.890
99589W        W71118   9.327  44.205   0.288
99590W        W71119  18.802   5.802  14.770
99591W        W71120  12.109  36.966   0.177
99592W        W71121  24.215  44.864  14.906
99593W        W71122  30.345  28.027  13.761
99594W        W71123  21.724   7.358  12.216
99595W        W71124  39.588  39.646  12.488
99596W        W71125  41.098  17.458   2.157
99597W        W71126   0.684  28.298   1.219
99598W        W71127  40.801  11.384  11.205
99599W        W71128  40.556   8.969  11.086
99600W        W71129  35.438  10.818   2.577
99601W        W71130  15.858  13.113  10.183
99602W        W71131  15.199  23.922   1.824
99603W        W71132   0.957   0.454  14.403
99604W        W71133  42.035  21.350   3.202
99605W        W71134   0.789   7.135  14.136
99606W        W71135  40.452  28.322   4.643
99607W        W71136  15.180  13.625   4.635
99608W        W71137  30.227  27.529  12.090
99609W        W71138  27.288  29.065  11.099
99610W        W71139  31.999  18.528   1.404
99611W        W71140   5.297   4.714   0.873
99612W        W71141   5.445  29.704  11.137
99613W        W71142  11.365  38.765   1.660
99614W        W71143  22.274  15.232  12.100
99615W        W71144   8.643  31.394   2.782
99616W        W71145  15.552   0.066  13.789
99617W        W71146  16.089  25.750  12.944
99618W        W71147   3.068  24.764   1.821
99619W        W71148   4.668  40.970  11.137
99620W        W71149  43.878   9.252   0.372
99621W        W71150  18.198  42.352  10.632
99622W        W71151  20.234  25.263  12.007
99623W        W71152  25.396  10.881   1.844
99624W        W71153   3.742   8.400  10.881
99625W        W71154   1.916   4.722  13.399
99626W        W71155  25.676  20.216   4.632
99627W        W71156  22.176  26.803  13.174
99628W        W71157  35.890  17.409  14.214
99629W        W71158  21.096  24.091  12.032
99630W        W71159   2.881  40.469  12.719
99631W        W71160   4.450  37.379  14.913
99632W        W71161  22.692  37.784   4.280
99633W        W71162  15.228  33.892   2.164
99634W        W71163  27.494  27.221  13.233
99635W        W71164  35.273  35.873  12.267
99636W        W71165  34.905  12.400  11.621
99637W        W71166  34.262  22.685  11.046
99638W        W71167  11.867  38.423  10.902
99639W        W71168  17.749  34.713   2.925
99640W        W71169  12.492  37.348   3.328
99641W        W71170   0.749  27.910  10.235
99642W        W71171  21.504  41.736  12.580
99643W        W71172  25.007   7.231   3.908
99644W        W71173  31.707   0.829   1.683
99645W        W71174  23.211   6.164   3.044
99646W        W71175  27.156  22.477  13.908
99647W        W71176   7.260  43.715   3.401
99648W        W71177  16.699  22.155  10.820
99649W        W71178  31.571  44.862   3.589
99650W        W71179  19.453  23.955   3.634
99651W        W71180  15.859  18.649   4.087
99652W        W71181  27.537  36.807   3.159
99653W        W71182  44.083  14.691   0.285
99654W        W71183   0.787  41.725  13.891
99655W        W71184   0.120  43.949  12.276
99656W        W71185  10.592  44.011  10.233
99657W        W71186   1.735  28.548  11.999
99658W        W71187  17.641   3.760   0.782
99659W        W71188   5.750   7.867   2.772
99660W        W71189  11.317   1.656   2.209
99661W        W71190  22.590  37.305  13.572
99662W        W71191   1.030  26.153  11.654
99663W        W71192   7.307  22.910   0.293
99664W        W71193  28.961  23.974   2.813
99665W        W71194  22.012   6.712  12.577
99666W        W71195  13.196  37.821  14.507
99667W        W71196  20.523  29.914   0.421
99668W        W71197  43.400  29.566   4.099
99669W        W71198   7.983  23.218  10.143
99670W        W71199   0.870   6.904  14.724
99671W        W71200  21.765   1.822   1.834
99672W        W71201  33.639  43.915   0.866
99673W        W71202  44.753  28.207  10.976
99674W        W71203  15.049  37.438  11.049
99675W        W71204   4.325  24.297  14.464
99676W        W71205  19.498   6.900   1.416
99677W        W71206   5.855  42.499  11.397
99678W        W71207  27.694   5.825  12.751
99679W        W71208  20.123   5.611  11.621
99680W        W71209  39.050   5.810   1.416
99681W        W71210  33.990  38.031   1.790
99682W        W71211  12.915  33.103   1.238
99683W        W71212  14.300  19.216  11.536
99684W        W71213  16.611  16.662   0.298
99685W        W71214  32.333  27.531   3.159
99686W        W71215  23.306  33.953   2.419
99687W        W71216  27.148  35.462  10.338
99688W        W71217  11.682  37.847   0.468
99689W        W71218   4.696  23.049   1.900
99690W        W71219  32.456  30.508  14.354
99691W        W71220  24.632  41.020  14.286
99692W        W71221   8.096  24.079   0.434
99693W        W71222  31.360  15.504  12.482
99694W        W71223   0.560  40.350  13.305
99695W        W71224  19.136  32.539   4.467
99696W        W71225   4.396  34.581   2.884
99697W        W71226  20.110   6.279   3.131
99698W        W71227  13.274  44.514  10.515
99699W        W71228   7.889  35.101   2.313
99700W        W71229  19.169  11.730   3.573
99701W        W71230  34.117  32.974   4.570
99702W        W71231   5.790  12.629  14.203
99703W        W71232  28.936  32.033   3.504
99704W        W71233  23.563  30.154   4.275
99705W        W71234  30.466   1.491   1.969
99706W        W71235   6.178  42.607   3.293
99707W        W71236  12.280  30.421   3.258
99708W        W71237  12.419  44.679   0.006
99709W        W71238  41.553  25.013  13.065
99710W        W71239  39.638  43.613  13.601
99711W        W71240  29.506  12.913  12.120
99712W        W71241   7.546  18.114   3.162
99713W        W71242  11.087  34.543   2.408
99714W        W71243  23.554  26.722  13.927
99715W        W71244  40.439  30.166   1.424
99716W        W71245   4.333  28.751  13.582
99717W        W71246   4.855  36.113  10.700
99718W        W71247  43.523   5.897  14.372
99719W        W71248  17.822  31.648   3.298
99720W        W71249  39.495  39.538  13.389
99721W        W71250  18.834  28.925   4.506
99722W        W71251  31.029  44.045  13.262
99723W        W71252  12.325  40.856  10.534
99724W        W71253   5.675  33.602   1.688
99725W        W71254  38.439  29.181  14.061
99726W        W71255  11.435  19.407  13.977
99727W        W71256  11.602  41.514   1.735
99728W        W71257  23.287  13.602  14.815
99729W        W71258   0.959  26.614  13.848
99730W        W71259   1.023  29.302   1.357
99731W        W71260  19.914   4.332   3.173
99732W        W71261  15.611  33.918   2.840
99733W        W71262   1.976  37.970   1.159
99734W        W71263  39.577  25.571   3.525
99735W        W71264   7.747  29.949  12.009
99736W        W71265   8.804  14.642  14.845
99737W        W71266  14.554   6.467  13.512
99738W        W71267  20.678  11.330   4.386
99739W        W71268  39.073  26.443  10.209
99740W        W71269  36.361   0.765   2.727
99741W        W71270  43.068  42.305  12.452
99742W        W71271  31.763  15.846  10.239
99743W        W71272  22.982  18.546   3.626
99744W        W71273  35.370  33.966   3.361
99745W        W71274  35.338  11.052  14.389
99746W        W71275  32.724  11.660   0.467
99747W        W71276  40.969  20.254  13.000
99748W        W71277  13.134   2.539  12.324
99749W        W71278  13.894  18.235  12.148
99750W        W71279  14.036  19.278  11.970
99751W        W71280  36.338  23.122   3.200
99752W        W71281   5.485  34.910   0.452
99753W        W71282  43.811  30.025  14.232
99754W        W71283  18.133  15.499  10.886
99755W        W71284  10.389   6.555   1.283
99756W        W71285  42.349  38.022  12.974
99757W        W71286   3.225  12.250  13.887
99758W        W71287  20.013   7.302   0.320
99759W        W71288  27.008   9.863   2.277
99760W        W71289  11.436  14.670  13.668
99761W        W71290  32.815  36.897  13.840
99762W        W71291  12.102  30.156   3.663
99763W        W71292  21.223  15.726   1.279
99764W        W71293   4.914  36.974   2.192
99765W        W71294  39.813  18.663   0.202
99766W        W71295   5.011  41.567  12.890
99767W        W71296  20.838  22.259  14.520
99768W        W71297  31.197  17.023  12.786
99769W        W71298  43.466  27.012   3.702
99770W        W71299  28.293   5.666   0.874
99771W        W71300  30.633   1.729   0.977
99772W        W71301   6.061  42.979   2.977
99773W        W71302  19.074  13.828   4.863
99774W        W71303  10.742  32.859   4.858
99775W        W71304  17.533  11.701  10.728
99776W        W71305  43.209  17.081   4.632
99777W        W71306  25.273  35.233  13.055
99778W        W71307  21.658   2.635  14.491
99779W        W71308   2.814  25.057  11.260
99780W        W71309  25.112  28.639   4.527
99781W        W71310  28.180  19.327   4.699
99782W        W71311  35.993  14.724  13.343
99783W        W71312  24.587  38.805  12.532
99784W        W71313  41.846  18.339   2.144
99785W        W71314   8.269   9.806   2.196
99786W        W71315   0.012   6.134   4.238
99787W        W71316  33.028  25.001   1.707
99788W        W71317  23.245  19.282   2.299
99789W        W71318  23.592  16.407   1.147
99790W        W71319  10.495  27.013  14.662
99791W        W71320  24.320  15.717  11.637
99792W        W71321  44.206  19.217  11.954
99793W        W71322  27.200  38.552   2.685
99794W        W71323   0.238  28.596  14.089
99795W        W71324   9.149  41.266  11.323
99796W        W71325  38.358  24.415  14.163
99797W        W71326  18.088  33.314  10.781
99798W        W71327  13.184   7.163  13.956
99799W        W71328  18.160  22.472  13.030
99800W        W71329  34.611  16.654   2.682
99801W        W71330  13.945  16.594  11.508
99802W        W71331  40.009   5.795   1.115
99803W        W71332  38.342  20.233   1.972
99804W        W71333  33.606  30.095  13.345
99805W        W71334  44.280  44.406  12.897
99806W        W71335  33.830  11.278  10.735
99807W        W71336  34.846   7.921  12.128
99808W        W71337  26.527  36.058   1.730
99809W        W71338  44.711  28.474   2.862
99810W        W71339  21.907  23.279   2.143
99811W        W71340   2.612  15.086  11.390
99812W        W71341  33.660  44.498  11.485
99813W        W71342  12.255   9.172   1.234
99814W        W71343  34.601  11.893  12.445
99815W        W71344   5.708  37.121   0.467
99816W        W71345  15.921  39.207  11.671
99817W        W71346  29.466  41.188   2.799
99818W        W71347  36.083  20.148   1.253
99819W        W71348  25.922  33.193   0.247
99820W        W71349  26.503  42.959  13.957
99821W        W71350  43.045  29.838  14.752
99822W        W71351   2.723  29.524   1.443
99823W        W71352  32.048  35.079  12.005
99824W        W71353  15.755   2.649  14.093
99825W        W71354  29.613  28.019   0.272
99826W        W71355  14.636   5.912  10.554
99827W        W71356   0.254  30.940   1.012
99828W        W71357  40.789  22.957  13.081
99829W        W71358  39.103  13.711   4.533
99830W        W71359  38.662  13.153  11.247
99831W        W71360  40.325  11.611  12.901
99832W        W71361   4.002  21.504  13.705
99833W        W71362  36.568  29.370   4.032
99834W        W71363  31.876   6.868  11.619
99835W        W71364  19.366  20.471  11.892
99836W        W71365  29.456  23.405   0.880
99837W        W71366  17.146   9.219   4.211
99838W        W71367  44.173  27.289   4.202
99839W        W71368  22.639  41.651  13.387
99840W        W71369  24.010  30.627  10.986
99841W        W71370   3.220  40.788   4.562
99842W        W71371  18.596  31.474   5.007
99843W        W71372   7.461  23.502  12.918
99844W        W71373   9.753  31.740   0.307
99845W        W71374  25.274  40.952  11.007
99846W        W71375  24.499  29.126  10.953
99847W        W71376   7.804   6.406  10.265
99848W        W71377   1.020  40.218  11.140
99849W        W71378  43.883  27.253   1.802
99850W        W71379   6.198   7.697   2.933
99851W        W71380   3.159   1.932  12.999
99852W        W71381   6.644  41.439  11.718
99853W        W71382  34.071  22.786  11.563
99854W        W71383   2.425   2.776   2.238
99855W        W71384   7.129  42.901   3.801
99856W        W71385  40.926  38.823   1.851
99857W        W71386   7.660  25.420  13.005
99858W        W71387  26.588  35.035   4.342
99859W        W71388   2.284   5.657   1.897
99860W        W71389  29.400  34.324   1.885
99861W        W71390  10.396  16.790  11.364
99862W        W71391  36.919   3.025  12.774
99863W        W71392  38.192  38.067  13.043
99864W        W71393   3.482  29.185  11.216
99865W        W71394   7.369  34.429  14.260
99866W        W71395  19.756  42.796   0.337
99867W        W71396   2.147  32.272  10.357
99868W        W71397  16.645   0.917  11.242
99869W        W71398  34.641   8.253   1.626
99870W        W71399  29.567  44.981   3.434
99871W        W71400  29.376  18.158   0.284
99872W        W71401  14.374  29.142  12.105
99873W        W71402  35.845  19.596  10.637
99874W        W71403   3.552   5.715   2.188
99875W        W71404  16.044  11.746   5.347
99876W        W71405  27.080  14.713   4.300
99877W        W71406  12.640  10.913   1.157
99878W        W71407  23.168  13.125   4.320
99879W        W71408  15.719  22.739   3.060
99880W        W71409   0.448  28.631   2.261
99881W        W71410  25.733  10.872   4.434
99882W        W71411  38.761  27.176   3.672
99883W        W71412   6.461  34.621   0.521
99884W        W71413  13.138  12.491  13.884
99885W        W71414  29.046  17.526   4.872
99886W        W71415  36.024  34.845  14.318
99887W        W71416  41.913  24.641   1.248
99888W        W71417  10.741  20.056   3.200
99889W        W71418  16.124  25.384  11.957
99890W        W71419   0.329  43.189   1.812
99891W        W71420   3.655  35.461   4.130
99892W        W71421  24.465  36.541  13.548
99893W        W71422  15.120  27.449  12.247
99894W        W71423  24.158  40.875   4.631
99895W        W71424  20.796  12.293  11.548
99896W        W71425  36.930  38.541   0.758
99897W        W71426  44.345  17.413  11.029
99898W        W71427  31.529  34.489   0.865
99899W        W71428  32.485  44.791   3.238
99900W        W71429  28.616  27.562  12.425
99901W        W71430  22.264  36.076  12.470
99902W        W71431  43.263  42.420   3.235
99903W        W71432  43.989   9.372   1.913
99904W        W71433  21.507  29.452   4.248
99905W        W71434  20.528   6.917  13.334
99906W        W71435  31.530  27.191   4.584
99907W        W71436  35.321  11.116  13.020
99908W        W71437  24.643   6.925  12.345
99909W        W71438  17.541  10.439   2.182
99910W        W71439  25.173   0.032   0.887
99911W        W71440  29.591  10.296   1.242
99912W        W71441   5.316   3.371   4.987
99913W        W71442  23.054  36.426  11.126
99914W        W71443   8.857   0.548  10.667
99915W        W71444  37.623   2.930  11.068
99916W        W71445   7.257  33.894   2.183
99917W        W71446   0.389  20.947  10.678
99918W        W71447  36.704   9.118   1.877
99919W        W71448  16.633  44.924  13.411
99920W        W71449  36.386   6.009   5.000
99921W        W71450  31.618  40.488   0.455
99922W        W71451  15.870  29.221  10.710
99923W        W71452  15.667  40.312   5.029
99924W        W71453  41.333  23.215  12.037
99925W        W71454  35.441   3.233  11.676
99926W        W71455  11.090  23.133   1.352
99927W        W71456   2.207  15.779   5.324
99928W        W71457  42.563   7.877   4.631
99929W        W71458  25.357  25.331   1.495
99930W        W71459   7.935  38.499  11.635
99931W        W71460   9.796  26.953   0.902
99932W        W71461  24.410   6.171   4.361
99933W        W71462  43.773  27.555  14.334
99934W        W71463  14.853   9.158  14.964
99935W        W71464  27.921  41.684   1.166
99936W        W71465  25.657  25.019   2.415
99937W        W71466  16.361  31.112   3.747
99938W        W71467   6.367  25.490  11.587
99939W        W71468   4.492   9.383   1.356
99940W        W71469  42.659   4.448  12.971
99941W        W71470  17.664  32.151  14.157
99942W        W71471   2.698  16.820  14.282
99943W        W71472   8.390  26.437  14.556
99944W        W71473  31.424  43.371   3.837
99945W        W71474  37.270  23.265  11.139
99946W        W71475  39.282  17.025  11.664
99947W        W71476   3.838  20.700   0.815
99948W        W71477  14.246  42.003   3.065
99949W        W71478  28.153  42.851  11.970
99950W        W71479  30.007  12.389  14.773
99951W        W71480  12.850  18.990   4.857
99952W        W71481  26.422  27.524   1.804
99953W        W71482  12.235  16.886   3.723
99954W        W71483   0.442  33.439   2.554
99955W        W71484  11.122  25.087   2.953
99956W        W71485  17.108   7.750  12.959
99957W        W71486  20.488  35.254   2.240
99958W        W71487  21.430  26.610  10.470
99959W        W71488  25.621   9.851  12.343
99960W        W71489  31.612  38.435   1.466
99961W        W71490  40.746  21.083   3.642
99962W        W71491   6.575  40.231  14.863
99963W        W71492  28.232  43.565  12.535
99964W        W71493  44.716   7.841  14.815
99965W        W71494  29.384  43.911   0.860
99966W        W71495   3.236  34.407  13.713
99967W        W71496  39.480  21.727  14.824
99968W        W71497  20.524  43.741  14.464
99969W        W71498   8.313  30.988   1.036
99970W        W71499  30.308   8.818  10.644
99971W        W71500  13.656  10.102   2.696
99972W        W71501  38.948  15.920  14.811
99973W        W71502  12.388  21.937   3.223
99974W        W71503   7.381  29.942   3.205
99975W        W71504  30.580  25.573   2.058
99976W        W71505  44.307  29.354  10.724
99977W        W71506  24.060  35.136  12.091
99978W        W71507   9.885  37.487  12.089
99979W        W71508  21.253   0.183   1.768
99980W        W71509   9.017  10.236  14.140
99981W        W71510   2.532  31.384  13.484
99982W        W71511  31.436  43.799  11.711
99983W        W71512   1.031  26.007   2.411
99984W        W71513  13.184  30.813   5.272
99985W        W71514  38.589  44.645  10.328
99986W        W71515   0.853  26.126   4.221
99987W        W71516  39.360  26.749   2.212
99988W        W71517  15.278   0.502  13.538
99989W        W71518   4.175   3.856  14.897
99990W        W71519  43.286   7.166   2.230
99991W        W71520  36.055  12.113  13.565
99992W        W71521  23.588  13.165  14.793
99993W        W71522   6.436  26.522  11.573
99994W        W71523  38.419  34.951  13.242
99995W        W71524  30.613  19.743  14.784
99996W        W71525  29.933  28.036   2.852
99997W        W71526  17.010  23.742  13.763
99998W        W71527  26.558  26.945  14.365
99999W        W71528  41.550   1.271  11.136
    0W        W71529  22.611  38.533  14.035
    1W        W71530  38.418  32.198   2.640
    2W        W71531   8.312  25.277  10.515
    3W        W71532  14.228   8.310   2.437
    4W        W71533  20.116  21.261   2.774
    5W        W71534  10.439  37.928  14.993
    6W        W71535  21.741  38.744   4.771
    7W        W71536   0.954  33.614  12.386
    8W        W71537  35.048  20.108   1.243
    9W        W71538  35.589  19.917  13.481
   10W        W71539  13.372   1.876   2.314
   11W        W71540  10.683  43.981  10.747
   12W        W71541   3.849  35.741  12.760
   13W        W71542  10.430  43.555  13.976
   14W        W71543  31.043   2.208  13.902
   15W        W71544  33.639  44.389   1.127
   16W        W71545  18.576  19.524  13.422
   17W        W71546   8.743  14.905   2.878
   18W        W71547  40.604  10.870  14.923
   19W        W71548  26.633  16.795   0.435
   20W        W71549  19.222  37.920  14.843
   21W        W71550  42.631  32.895   2.709
   22W        W71551  37.682   1.659   0.220
   23W        W71552   6.664  31.793  13.651
   24W        W71553   3.088  23.204   0.440
   25W        W71554  14.856   7.769  14.019
   26W        W71555  10.672   0.438  11.704
   27W        W71556   8.155  30.449   2.860
   28W        W71557  30.373  13.613  13.605
   29W        W71558   1.028   6.203   4.422
   30W        W71559  28.664  11.652   0.170
   31W        W71560   1.224   2.210   0.688
   32W        W71561   1.243  26.986   4.176
   33W        W71562   1.903  41.332   4.186
   34W        W71563   0.313   8.736  11.993
   35W        W71564  30.389  20.565  11.283
   36W        W71565  17.678  10.646  13.330
   37W        W71566  34.253  23.163  12.864
   38W        W71567  33.652  22.210   4.659
   39W        W71568   3.661  16.619   1.841
   40W        W71569  28.221  10.486   4.474
   41W        W71570  40.909  28.938  11.529
   42W        W71571   5.536  21.161   0.463
   43W        W71572   9.592   1.992   3.130
   44W        W71573   9.712  16.760   0.061
   45W        W71574  10.763  25.702  14.008
   46W        W71575   6.995   3.011  12.120
   47W        W71576  21.401   4.274  13.022
   48W        W71577  26.286  27.088   0.532
   49W        W71578  21.374  28.164   2.975
   50W        W71579   2.344  27.144   2.263
   51W        W71580  39.006  39.380   2.835
   52W        W71581  30.944  16.782   2.885
   53W        W71582   3.903  28.787  11.623
   54W        W71583  31.976  16.757   3.132
   55W        W71584  32.017  38.733   1.351
   56W        W71585  38.454  15.293   4.434
   57W        W71586  18.561   8.716   4.704
   58W        W71587  36.021  17.096  12.438
   59W        W71588   1.221  43.294   3.255
   60W        W71589  27.875  35.061  10.985
   61W        W71590  28.177  24.772   2.215
   62W        W71591  25.776   4.624  14.513
   63W        W71592  38.923  40.113   1.686
   64W        W71593  10.234  33.157   4.991
   65W        W71594  33.430  33.965   0.289
   66W        W71595   9.408  30.073   0.796
   67W        W71596  34.894  23.756  11.504
   68W        W71597  35.518   5.571  14.260
   69W        W71598  23.832   8.629  10.757
   70W        W71599  12.251  30.734   2.793
   71W        W71600   3.887  24.583   1.777
   72W        W71601  36.640  35.586   1.903
   73W        W71602   7.381  41.949   4.460
   74W        W71603   2.813  28.257   0.425
   75W        W71604  27.285  19.962   1.160
   76W        W71605  33.655  29.772   1.722
   77W        W71606  21.108   5.608   0.973
   78W        W71607  28.684  21.304   4.118
   79W        W71608  14.773  12.428   0.867
   80W        W71609  14.116  30.987   2.384
   81W        W71610   1.021   9.703   2.238
   82W        W71611  18.842   3.963   3.281
   83W        W71612  41.018  40.120  13.370
   84W        W71613  32.237  27.086   4.132
   85W        W71614  13.419  44.348  10.027
   86W        W71615   1.710  14.631   0.842
   87W        W71616  33.941  13.132   3.282
   88W        W71617  37.447  25.587   5.236
   89W        W71618  34.667  13.738  12.938
   90W        W71619  26.932  38.861   4.113
   91W        W71620  20.000  16.874   2.053
   92W        W71621  13.933  21.216  12.473
   93W        W71622  40.414   1.466   3.351
   94W        W71623  31.587  37.278   3.656
   95W        W71624  20.292  12.695   3.191
   96W        W71625  13.773  14.990   3.248
   97W        W71626   7.865  31.227   2.813
   98W        W71627   7.378   3.728  14.988
   99W        W71628   9.776  44.867   4.134
  100W        W71629  20.830  42.921  13.521
  101W        W71630  37.552  26.307  12.555
  102W        W71631   7.289  44.270  12.540
  103W        W71632  24.063  24.867  13.931
  104W        W71633  26.429  29.089  10.611
  105W        W71634   2.383  26.897   0.949
  106W        W71635  15.590   9.051   0.420
  107W        W71636  17.324  43.827  14.885
  108W        W71637   5.262  25.019  14.040
  109W        W71638  30.627  24.082   4.472
  110W        W71639   4.372   1.784   0.995
  111W        W71640  39.313   4.997   3.641
  112W        W71641  30.429  15.779  12.541
  113W        W71642  34.075  12.367   1.009
  114W        W71643  17.919  31.426   3.757
  115W        W71644  26.233   8.859  13.935
  116W        W71645  20.205  43.289   0.837
  117W        W71646  38.099  27.881  11.991
  118W        W71647  38.564  43.262   1.676
  119W        W71648  15.050   4.871  11.497
  120W        W71649  17.383  17.748   2.392
  121W        W71650   7.405  20.394  12.318
  122W        W71651  23.474   9.425   0.874
  123W        W71652   5.536  44.376  12.980
  124W        W71653   6.165  27.171  13.966
  125W        W71654  13.603  41.244   3.504
  126W        W71655  10.938   1.027  10.494
  127W        W71656  41.715  33.619   4.861
  128W        W71657  11.295  37.610  10.723
  129W        W71658  24.699  30.942   2.133
  130W        W71659  29.441  31.919   4.948
  131W        W71660  15.501  25.449  14.339
  132W        W71661  39.389  32.625  14.417
  133W        W71662  38.523  18.037   3.614
  134W        W71663  14.176   8.883   2.765
  135W        W71664   5.736  16.249   2.647
  136W        W71665  22.500  14.625  10.932
  137W        W71666   4.465   8.234   0.993
  138W        W71667  10.632  28.590   1.284
  139W        W71668  11.078   1.895   4.146
  140W        W71669  24.234   0.031  11.541
  141W        W71670  15.683  19.496  14.297
  142W        W71671  37.044  35.393  11.476
  143W        W71672  24.821  32.666  10.808
  144W        W71673  31.567  27.418  11.029
  145W        W71674  10.632  38.331  11.524
  146W        W71675   2.778  10.399   1.787
  147W        W71676  39.656   3.409   1.213
  148W        W71677  13.114   0.033   4.216
  149W        W71678  40.955  24.295  14.575
  150W        W71679  10.145  32.408  11.656
  151W        W71680  42.397  14.347  10.775
  152W        W71681  17.367  21.680   2.274
  153W        W71682  30.059  12.704   0.460
  154W        W71683  24.250   0.300  13.909
  155W        W71684  10.214  11.285   2.318
  156W        W71685  19.161  43.271   2.604
  157W        W71686  30.866  11.290   0.181
  158W        W71687  14.086  15.408  10.103
  159W        W71688  12.262  25.099  11.541
  160W        W71689  30.622  19.041   4.507
  161W        W71690  43.668  29.175   0.886
  162W        W71691  33.479  16.953  10.089
  163W        W71692  21.475  35.843   5.130
  164W        W71693  26.909  40.044  12.060
  165W        W71694  42.360   3.492   3.309
  166W        W71695   1.330  22.083  13.268
  167W        W71696  13.573  37.056   1.981
  168W        W71697  12.728  33.006   1.720
  169W        W71698  11.172  36.618  12.064
  170W        W71699   2.092   7.146   2.856
  171W        W71700   0.769  34.191   1.689
  172W        W71701  44.525  11.036  11.397
  173W        W71702   8.413  21.311   2.545
  174W        W71703  43.866  14.040  11.967
  175W        W71704   6.919  22.525  11.796
  176W        W71705  30.958  20.069  13.991
  177W        W71706  29.763  13.839  12.364
  178W        W71707  29.599  44.971   2.383
  179W        W71708  44.616  12.168   9.973
  180W        W71709  19.546  12.102  14.509
  181W        W71710  34.007  23.148   0.511
  182W        W71711  12.361  40.006  11.679
  183W        W71712  26.991  35.847  13.157
  184W        W71713  29.350   8.667   5.310
  185W        W71714  12.753   9.362   3.734
  186W        W71715   0.072   4.441  14.518
  187W        W71716   4.232   2.783  14.881
  188W        W71717  44.961  34.594   2.628
  189W        W71718  42.500  10.362  14.772
  190W        W71719  34.916  38.518   2.817
  191W        W71720  40.343  16.797  13.572
  192W        W71721  26.197  26.744  12.568
  193W        W71722  33.788  34.671  13.810
  194W        W71723  29.219  22.979  13.479
  195W        W71724  40.814  32.045  10.704
  196W        W71725  12.333  20.433   3.001
  197W        W71726  10.450  36.440  13.845
  198W        W71727   8.828  18.940   2.129
  199W        W71728  34.460  15.648  11.956
  200W        W71729  14.315  13.830   0.013
  201W        W71730   4.114  21.113  11.477
  202W        W71731   5.284  20.178   4.740
  203W        W71732  25.971   6.270  12.622
  204W        W71733   6.285  43.548   0.801
  205W        W71734  28.574  42.330   3.025
  206W        W71735  36.909   1.176   1.456
  207W        W71736  19.512  40.493  10.322
  208W        W71737  37.925  23.532  13.822
  209W        W71738  24.084  10.384  10.667
  210W        W71739  37.354  29.490   3.393
  211W        W71740   2.546   1.586  13.416
  212W        W71741  22.709  14.559   4.066
  213W        W71742   8.623  20.712  12.091
  214W        W71743   0.705  29.040  11.063
  215W        W71744  44.894  34.106   2.827
  216W        W71745  40.514  30.343   0.769
  217W        W71746  18.509  35.740   1.943
  218W        W71747  11.241  37.458  14.354
  219W        W71748  39.032   9.699   1.651
  220W        W71749  11.168  28.186   0.813
  221W        W71750  18.741  30.361  11.209
  222W        W71751  20.251  18.833  14.893
  223W        W71752  20.556  21.107   1.885
  224W        W71753  28.802   1.032   1.025
  225W        W71754   6.018  23.061   0.696
  226W        W71755  28.091  27.718  10.547
  227W        W71756  39.766   9.464  11.217
  228W        W71757   6.929  14.240   4.080
  229W        W71758  16.871  25.194  12.912
  230W        W71759   6.622  18.868  14.057
  231W        W71760  31.649  23.831   4.395
  232W        W71761  36.431  22.691   4.810
  233W        W71762   6.391  27.524  14.329
  234W        W71763  24.564   8.845   3.774
  235W        W71764  22.219  32.418   0.025
  236W        W71765  44.329  29.900   5.288
  237W        W71766   1.946   3.430  14.780
  238W        W71767  42.505  10.692  12.452
  239W        W71768  13.636  43.662  12.951
  240W        W71769  36.006  11.907   0.742
  241W        W71770  25.798  12.856   3.634
  242W        W71771  14.931  26.967   2.883
  243W        W71772  36.541  23.509  14.473
  244W        W71773  14.527  44.079   3.791
  245W        W71774  15.764  41.058   0.631
  246W        W71775  21.072  43.813  14.796
  247W        W71776  19.573  27.113  12.132
  248W        W71777   3.641  13.615  13.637
  249W        W71778  24.723  34.314   2.327
  250W        W71779  21.887   3.748  12.454
  251W        W71780  43.996  41.737   1.402
  252W        W71781  20.023  39.556   0.839
  253W        W71782  37.955   4.858  13.471
  254W        W71783   4.815   3.412  14.629
  255W        W71784  33.562  12.249  13.495
  256W        W71785  21.722  22.094  11.059
  257W        W71786  21.044   9.512   2.664
  258W        W71787   8.635  42.761  14.516
  259W        W71788  36.338  11.288  12.672
  260W        W71789  12.713  15.888   1.222
  261W        W71790  11.078  37.547  13.834
  262W        W71791  38.755   3.976   3.100
  263W        W71792  30.041  12.384   3.359
  264W        W71793  11.164  12.756   4.506
  265W        W71794  17.651  27.643  12.022
  266W        W71795  26.497   5.390   4.940
  267W        W71796  10.742  10.306  13.551
  268W        W71797  14.545   7.691   5.025
  269W        W71798   4.952  28.152   4.564
  270W        W71799  13.545  18.607   2.723
  271W        W71800  30.721  39.363  13.508
  272W        W71801  43.972  27.491  12.938
  273W        W71802   6.648  30.664   1.208
  274W        W71803   8.269  43.127   2.197
  275W        W71804  44.469   0.779   2.113
  276W        W71805  14.138  28.691   3.161
  277W        W71806   7.165  13.212  11.626
  278W        W71807   6.446  28.948  13.051
  279W        W71808  38.450   3.286   3.319
  280W        W71809  24.415  31.003   3.692
  281W        W71810   0.940   9.907  14.424
  282W        W71811  12.692  17.182  11.667
  283W        W71812  27.716   7.458  11.715
  284W        W71813  27.708  40.845  12.443
  285W        W71814  43.246  24.895  13.950
  286W        W71815  42.439  21.738   3.132
  287W        W71816  19.920  27.427   0.379
  288W        W71817  27.128  37.322  13.493
  289W        W71818  21.298   1.553   0.342
  290W        W71819  40.433  33.893   4.966
  291W        W71820   8.912  20.000  14.484
  292W        W71821  17.056  30.232   0.375
  293W        W71822   5.794   5.685  13.776
  294W        W71823  16.245  13.886  13.916
  295W        W71824  43.899  43.915   0.231
  296W        W71825  27.229  14.663  13.683
  297W        W71826  36.441  19.785   3.258
  298W        W71827  20.310  13.229   4.231
  299W        W71828   3.250  38.754  11.285
  300W        W71829  38.373  21.293  11.985
  301W        W71830  19.581  22.575   3.170
  302W        W71831   3.464  28.469  10.735
  303W        W71832  20.089  19.238   1.796
  304W        W71833   9.710   8.947  14.512
  305W        W71834  40.819   5.238   1.074
  306W        W71835  30.666  37.574  10.773
  307W        W71836  43.809   3.162   4.118
  308W        W71837  27.348  10.454  13.121
  309W        W71838  25.273  26.507  12.110
  310W        W71839   8.877  30.109  10.936
  311W        W71840  36.040  23.676   1.294
  312W        W71841  30.637   6.798   1.761
  313W        W71842  41.461  19.295  10.938
  314W        W71843  20.647  11.415   3.194
  315W        W71844   9.322  38.069   4.334
  316W        W71845  15.639  26.470   2.207
  317W        W71846  10.588  10.854   2.166
  318W        W71847  41.895  42.243  11.968
  319W        W71848  12.486  33.536  13.582
  320W        W71849  22.728  31.157  14.480
  321W        W71850  15.322  44.497  13.232
  322W        W71851  18.355   0.924   0.894
  323W        W71852  10.988  12.262   0.828
  324W        W71853  24.611  13.165   4.312
  325W        W71854  29.431   8.641  11.700
  326W        W71855  19.570  39.150  14.365
  327W        W71856  22.940   7.732  13.481
  328W        W71857  39.965  14.500  12.419
  329W        W71858  26.663  11.084   2.987
  330W        W71859  30.900  28.870  13.870
  331W        W71860  30.326  22.869  10.740
  332W        W71861  14.066  12.169   3.865
  333W        W71862   9.890  39.123   2.969
  334W        W71863   8.780  42.271  10.758
  335W        W71864  24.180  32.037   5.100
  336W        W71865  34.921  23.440   4.615
  337W        W71866   2.700  12.922  11.154
  338W        W71867   6.266  22.530  13.376
  339W        W71868  22.203  39.939  13.091
  340W        W71869   0.938  40.011   2.151
  341W        W71870  12.902   1.969  11.677
  342W        W71871  29.200  42.694   3.756
  343W        W71872  27.929   5.171   3.578
  344W        W71873  44.140  39.429  11.266
  345W        W71874  32.615  29.031  14.555
  346W        W71875  13.819   8.946  14.873
  347W        W71876  23.082   2.771  14.589
  348W        W71877  30.437  23.010   1.811
  349W        W71878  11.183  27.953   2.241
  350W        W71879  10.632  25.084  14.596
  351W        W71880  30.056   3.209  11.980
  352W        W71881  18.989  32.937   0.273
  353W        W71882  27.646   6.162  11.747
  354W        W71883  10.215  40.297   3.646
  355W        W71884  11.761  31.636   4.613
  356W        W71885  26.066  12.184  12.958
  357W        W71886   1.748  30.028  14.400
  358W        W71887  29.996  14.230  11.662
  359W        W71888   8.845  25.750   3.344
  360W        W71889  18.245  42.828   0.998
  361W        W71890  29.026  20.167   0.757
  362W        W71891   0.996  30.931   3.888
  363W        W71892   8.230  31.683   1.786
  364W        W71893  33.338  40.490   3.808
  365W        W71894  44.001  40.975   4.215
  366W        W71895  13.137  44.364  12.562
  367W        W71896  12.318  29.206   3.643
  368W        W71897  29.687  11.183   1.924
  369W        W71898  23.600  26.457   1.921
  370W        W71899   0.371  22.969   4.135
  371W        W71900  33.591  36.502  13.887
  372W        W71901  13.647   6.067   4.080
  373W        W71902  42.017  26.025  11.196
  374W        W71903   1.231  22.131  11.970
  375W        W71904  20.140  27.592  13.603
  376W        W71905  22.730  35.825  12.443
  377W        W71906  43.152  35.929  14.914
  378W        W71907  14.454   1.697  12.114
  379W        W71908  33.752  37.619   5.058
  380W        W71909  40.466  33.052  14.905
  381W        W71910  43.817  43.537   3.268
  382W        W71911  26.458  28.311   1.168
  383W        W71912  34.087  20.248   2.195
  384W        W71913   2.937  40.992  12.955
  385W        W71914  11.798  11.162   1.337
  386W        W71915  26.610  16.109  12.959
  387W        W71916  40.010   0.826   2.893
  388W        W71917   9.916  10.416  14.412
  389W        W71918  25.261  38.844   4.644
  390W        W71919  22.357  42.279   1.808
  391W        W71920   6.679  19.503   1.008
  392W        W71921  21.908  37.386  11.582
  393W        W71922   2.838  35.849   1.625
  394W        W71923  21.816  30.300  13.873
  395W        W71924   8.255  33.287  11.664
  396W        W71925  40.921  16.106  11.613
  397W        W71926  11.119   5.151   4.929
  398W        W71927  11.603  43.818   1.422
  399W        W71928  15.195   4.716   0.431
  400W        W71929  16.160  40.306   3.711
  401W        W71930  29.472   0.177   1.829
  402W        W71931  32.390  17.702  13.040
  403W        W71932  41.320   3.400  10.381
  404W        W71933  42.982  27.420  13.864
  405W        W71934   2.899  33.032   3.529
  406W        W71935  28.952  23.553   0.164
  407W        W71936  15.717  32.398   3.260
  408W        W71937  41.016  30.136   4.568
  409W        W71938  30.974  17.636  13.958
  410W        W71939  27.178  10.212   3.783
  411W        W71940  28.529  17.287   2.724
  412W        W71941  44.937  40.086  14.870
  413W        W71942  37.590  10.716  14.041
  414W        W71943  35.465  22.128  12.339
  415W        W71944  37.575  31.665   0.990
  416W        W71945   9.373  37.601  12.052
  417W        W71946  27.024  36.292  14.989
  418W        W71947  17.665  38.487  12.926
  419W        W71948   7.647  40.967   4.627
  420W        W71949  19.651  35.044   0.779
  421W        W71950   6.247  30.305   4.593
  422W        W71951  34.993  10.316   4.087
  423W        W71952  16.188  14.897  14.261
  424W        W71953  18.968  10.228   1.800
  425W        W71954   2.400  29.882   4.367
  426W        W71955  22.285  44.326   1.282
  427W        W71956   5.757   0.014  14.995
  428W        W71957  27.921  44.284   1.879
  429W        W71958  23.993  25.928   2.273
  430W        W71959  10.746  17.559  11.146
  431W        W71960  39.501  30.021   3.800
  432W        W71961  29.855  26.672   4.824
  433W        W71962  43.792   5.952  11.054
  434W        W71963   0.828  15.521  14.154
  435W        W71964  19.237  40.876   3.123
  436W        W71965   2.302  10.389  12.365
  437W        W71966  35.902   4.251  14.472
  438W        W71967   8.333  33.016   0.338
  439W        W71968  17.688  30.965  13.348
  440W        W71969  39.278  31.317  11.615
  441W        W71970  14.758   7.212  11.122
  442W        W71971  15.815   8.928  10.703
  443W        W71972  41.526  40.586  10.461
  444W        W71973   9.854  38.511  13.424
  445W        W71974   9.597  29.870   0.330
  446W        W71975  17.191   5.932  12.875
  447W        W71976   6.979  24.295  13.544
  448W        W71977  25.017  36.415  10.790
  449W        W71978  10.194   9.584   4.396
  450W        W71979  10.945  16.524  13.376
  451W        W71980   8.508  19.572   1.863
  452W        W71981  10.259   7.410  11.007
  453W        W71982   3.939  24.233   4.091
  454W        W71983  36.132  38.042   1.493
  455W        W71984   6.926   8.830  13.872
  456W        W71985  25.923  20.065   1.712
  457W        W71986   7.393  23.413  11.700
  458W        W71987   5.689  20.541  14.825
  459W        W71988  37.108   1.990  11.103
  460W        W71989  44.028   2.278   1.411
  461W        W71990  29.208  20.660  12.520
  462W        W71991  32.318  16.060  11.470
  463W        W71992  16.091  15.147   3.366
  464W        W71993   9.072  10.436   0.442
  465W        W71994  38.323  10.715   4.013
  466W        W71995  14.619  26.929   1.451
  467W        W71996   0.879  36.854  13.860
  468W        W71997  42.825   2.501  10.691
  469W        W71998   7.214  21.307  12.566
  470W        W71999  41.749  10.750   1.200
  471W        W72000   2.507  19.785  11.188
  472W        W72001  23.113  40.290   5.040
  473W        W72002  29.430  39.866  11.184
  474W        W72003   0.703  20.324   3.336
  475W        W72004  25.073  16.046   3.889
  476W        W72005  43.343  11.248  12.195
  477W        W72006  13.227  31.880   1.454
  478W        W72007  15.579   2.902   0.460
  479W        W72008  13.311  30.662   1.849
  480W        W72009  43.623  37.659   4.594
  481W        W72010  27.625   2.139   3.268
  482W        W72011  21.632  13.613  14.022
  483W        W72012  21.743   2.362  11.467
  484W        W72013  38.255  27.436  14.799
  485W        W72014  11.695  38.373   0.319
  486W        W72015  28.130  14.107   1.740
  487W        W72016  22.618  29.974   2.123
  488W        W72017   8.127  38.030   0.253
  489W        W72018  13.337  11.065  11.710
  490W        W72019  19.233  40.405  10.753
  491W        W72020  38.289  37.325  14.791
  492W        W72021  17.205  21.815  13.164
  493W        W72022   9.971  36.647   2.256
  494W        W72023  24.982  16.684   0.304
  495W        W72024  42.801   1.242   0.362
  496W        W72025  38.803  40.910   3.324
  497W        W72026  12.345  25.050   3.796
  498W        W72027  34.944  41.735  13.294
  499W        W72028  26.945  36.226  12.508
  500W        W72029  44.418  22.252   4.292
  501W        W72030  32.111   0.728  12.356
  502W        W72031  23.062  16.567   3.317
  503W        W72032  34.614  38.563   2.361
  504W        W72033  18.113  36.442  10.652
  505W        W72034   9.826  44.773   1.787
  506W        W72035   9.697  39.934   1.773
  507W        W72036  29.174  27.676   1.472
  508W        W72037   2.782  30.266  12.146
  509W        W72038  24.238   1.499   3.193
  510W        W72039  29.415   9.308  13.487
  511W        W72040  35.911  23.793  10.725
  512W        W72041  43.453  33.658   4.828
  513W        W72042   9.271  29.361  12.523
  514W        W72043  17.194  31.440  10.741
  515W        W72044  33.437  32.344   1.091
  516W        W72045  15.204  40.444  11.700
  517W        W72046   8.334  28.411  13.416
  518W        W72047  44.168  43.565  12.488
  519W        W72048  15.505  20.107  14.686
  520W        W72049  32.519  14.346   1.129
  521W        W72050   9.601  22.706  13.763
  522W        W72051   0.748  29.098  14.914
  523W        W72052  31.785  36.191   1.822
  524W        W72053  33.639  32.475  14.379
  525W        W72054  24.154   8.373   5.036
  526W        W72055   5.835  15.040  12.046
  527W        W72056  35.383   8.463  14.945
  528W        W72057  38.000  34.826  10.990
  529W        W72058  43.249  18.300   4.165
  530W        W72059   2.857  15.397  14.502
  531W        W72060  19.082  30.069   3.942
  532W        W72061  38.912  26.237  10.683
  533W        W72062   1.419   5.649  12.625
  534W        W72063   7.255  17.932   1.706
  535W        W72064  22.163  25.101   4.326
  536W        W72065  25.525  19.051   1.330
  537W        W72066  39.800  10.767  10.798
  538W        W72067  43.921  24.915   3.705
  539W        W72068  16.852  25.460  12.480
  540W        W72069   9.890  44.713   2.299
  541W        W72070  12.112   5.181   0.418
  542W        W72071  12.615  11.870   4.089
  543W        W72072  11.613  25.455   4.671
  544W        W72073  38.506  12.803   2.126
  545W        W72074  38.448  44.222   4.588
  546W        W72075   6.974   1.296  12.450
  547W        W72076   8.710  18.923   4.987
  548W        W72077   0.930  26.629   0.321
  549W        W72078  20.166  21.349  11.895
  550W        W72079  17.227   8.431   3.666
  551W        W72080  24.238  24.275   3.057
  552W        W72081   0.358  31.819  12.519
  553W        W72082   4.821   4.234   3.700
  554W        W72083  43.392  18.754  14.147
  555W        W72084  41.968  34.253  13.917
  556W        W72085  24.219  23.394  10.239
  557W        W72086  13.646  38.801   4.112
  558W        W72087  17.527  29.114   1.301
  559W        W72088   0.343  32.383  10.735
  560W        W72089  31.874  15.546   1.450
  561W        W72090   9.588  34.759  13.572
  562W        W72091  22.707  20.830   1.947
  563W        W72092  28.372  21.449   2.898
  564W        W72093  33.402  32.597  12.454
  565W        W72094   9.732  42.045   3.575
  566W        W72095  33.013  10.741   1.752
  567W        W72096  21.517   8.332  13.931
  568W        W72097  31.026  41.233   0.864
  569W        W72098  33.618   3.829  12.802
  570W        W72099  44.798  31.846   3.107
  571W        W72100  27.666  40.527   1.258
  572W        W72101  32.424   8.580   0.009
  573W        W72102  44.217  42.103  12.510
  574W        W72103  23.212   3.350   4.188
  575W        W72104  39.517  36.759  13.413
  576W        W72105  18.625  33.989  11.387
  577W        W72106  14.201  42.567   1.392
  578W        W72107  40.838  27.584  10.368
  579W        W72108  43.585  42.926   2.184
  580W        W72109  21.542   6.428  10.789
  581W        W72110  31.571   2.427  12.108
  582W        W72111  35.108  29.404   0.892
  583W        W72112  12.231   1.928   2.067
  584W        W72113   6.135   8.902   4.064
  585W        W72114  34.833   3.977   1.931
  586W        W72115  16.077  23.076   4.245
  587W        W72116  32.014  30.661   2.363
  588W        W72117  41.395   6.991   3.601
  589W        W72118  22.680   4.723  10.664
  590W        W72119   5.679  22.239  14.288
  591W        W72120   8.917   9.234   3.326
  592W        W72121  28.672  17.770   3.606
  593W        W72122  11.672  27.068  12.528
  594W        W72123  43.407  40.984  10.916
  595W        W72124  36.731  15.822   4.567
  596W        W72125  22.580  30.471  10.962
  597W        W72126  40.932  43.505   1.827
  598W        W72127   2.522  41.215  10.550
  599W        W72128  25.812  14.251  10.342
  600W        W72129  41.077  43.889   0.490
  601W        W72130  33.509   5.729  14.514
  602W        W72131  29.902  42.214   3.387
  603W        W72132  44.689  12.143  10.644
  604W        W72133  27.695  14.042   4.110
  605W        W72134  21.696  34.816   1.833
  606W        W72135  15.364  10.242   0.681
  607W        W72136  29.030   9.598   4.111
  608W        W72137  35.848  26.290   1.397
  609W        W72138  28.892  19.665   0.636
  610W        W72139  36.208  21.588  13.836
  611W        W72140  20.677  23.084  12.764
  612W        W72141  22.519  26.664  11.518
  613W        W72142  36.913   7.668   2.384
  614W        W72143  38.576  22.143  10.614
  615W        W72144  16.323  36.854  13.748
  616W        W72145   0.774  35.637   3.720
  617W        W72146   8.415   7.997  10.697
  618W        W72147  44.852  12.166  13.059
  619W        W72148  31.918  15.259  13.038
  620W        W72149  40.132  12.709   1.370
  621W        W72150  27.103  40.330   0.387
  622W        W72151  43.897  12.527   4.682
  623W        W72152  17.280  16.246   0.343
  624W        W72153  15.739  12.437   3.833
  625W        W72154  39.864  42.066   4.233
  626W        W72155  35.393  38.382   4.102
  627W        W72156  10.275  24.903   1.964
  628W        W72157  12.296   6.144  10.952
  629W        W72158  18.147   3.468  12.399
  630W        W72159  34.570  43.564   1.444
  631W        W72160  38.075  26.129   0.702
  632W        W72161  22.258   8.731  12.154
  633W        W72162  40.492  43.467  13.468
  634W        W72163  35.869   0.993   1.359
  635W        W72164  35.525  22.108   4.569
  636W        W72165   6.976  33.137  14.020
  637W        W72166  12.122  27.600   2.148
  638W        W72167  26.014   7.161   4.753
  639W        W72168  37.850  24.268   3.143
  640W        W72169  10.630  16.841   2.845
  641W        W72170   5.383  10.582  11.567
  642W        W72171  29.688  18.330  14.811
  643W        W72172  19.797  29.407   0.972
  644W        W72173   0.259   7.709  14.690
  645W        W72174  35.068  29.637   2.777
  646W        W72175   8.618  28.255   1.995
  647W        W72176  29.450   6.217  11.034
  648W        W72177   5.965  10.887   0.927
  649W        W72178  41.481  21.003   1.776
  650W        W72179  20.549  39.047   3.097
  651W        W72180  18.344   8.043  14.972
  652W        W72181  31.038  27.519  12.241
  653W        W72182  28.856  25.573   4.173
  654W        W72183  14.163  24.671   4.316
  655W        W72184  11.231  12.289   1.498
  656W        W72185  13.143  40.408   3.306
  657W        W72186   3.023   1.099   1.733
  658W        W72187   6.361   6.427   4.416
  659W        W72188  35.574  11.216  13.464
  660W        W72189   2.654  10.702  13.266
  661W        W72190  27.640  23.326   3.704
  662W        W72191  13.787  33.285  11.058
  663W        W72192  38.250  30.180  12.142
  664W        W72193   2.309  22.073  13.302
  665W        W72194  16.387  19.552  11.077
  666W        W72195  14.720  17.686  13.943
  667W        W72196  41.727  38.200  12.292
  668W        W72197  18.065  17.814   4.199
  669W        W72198   8.918  30.192   0.891
  670W        W72199  43.500  20.239  11.631
  671W        W72200  33.594   7.678  12.152
  672W        W72201   9.806  26.830   4.284
  673W        W72202  38.196  24.200   1.665
  674W        W72203   7.873  25.434  11.543
  675W        W72204  37.391   1.904   4.723
  676W        W72205  27.406  14.471   3.972
  677W        W72206  25.244   5.869  10.603
  678W        W72207  11.442   4.905   4.601
  679W        W72208  20.090  40.955   1.409
  680W        W72209  19.139  13.827   2.873
  681W        W72210  10.829  19.598  12.038
  682W        W72211  35.863  41.973   3.653
  683W        W72212  24.269  18.133  11.845
  684W        W72213  36.505  40.402  11.625
  685W        W72214  22.735  13.833  11.857
  686W        W72215  12.749   3.677  13.972
  687W        W72216  24.599  33.680  10.755
  688W        W72217  43.880  32.049   1.055
  689W        W72218  43.350  41.872   0.815
  690W        W72219  31.558  24.422   9.827
  691W        W72220  41.992  27.516   1.504
  692W        W72221   3.335  30.939  14.027
  693W        W72222  29.472  25.499   5.056
  694W        W72223  16.339  22.295   5.496
  695W        W72224  35.152  22.015   0.082
  696W        W72225  13.247  13.842  13.733
  697W        W72226   4.355   8.439   2.463
  698W        W72227   4.005   1.492   1.215
  699W        W72228  14.672  17.025  11.754
  700W        W72229   2.172  18.367   4.183
  701W        W72230  31.088  24.994   0.318
  702W        W72231  26.216  21.557  10.545
  703W        W72232  19.510  16.990   2.173
  704W        W72233  44.001  31.551   0.936
  705W        W72234  23.287  15.603   2.343
  706W        W72235  20.997  39.629  11.604
  707W        W72236  39.242   1.181  12.549
  708W        W72237  20.281  11.806  13.347
  709W        W72238  24.394  10.315  10.135
  710W        W72239  41.126  20.269   1.176
  711W        W72240  44.380   9.707   2.797
  712W        W72241  30.156  23.651  12.946
  713W        W72242  19.020  32.638  11.774
  714W        W72243  44.518   5.498   0.015
  715W        W72244   9.737  12.222   0.349
  716W        W72245  39.116  15.784   3.302
  717W        W72246  34.621   6.136  10.957
  718W        W72247  28.438  42.405   0.206
  719W        W72248  17.068   2.774  11.991
  720W        W72249  35.113  16.290   2.608
  721W        W72250   5.503  15.052  13.384
  722W        W72251  13.756  23.201   2.352
  723W        W72252  35.191  41.780  14.720
  724W        W72253   6.704  11.373  12.488
  725W        W72254   3.427  38.717   0.835
  726W        W72255  21.024  41.370   2.391
  727W        W72256  15.278  44.464   2.829
  728W        W72257   2.387  25.218   0.857
  729W        W72258  44.021  28.701   1.685
  730W        W72259  10.640  24.661   2.254
  731W        W72260  41.260  43.153   3.133
  732W        W72261  29.404   1.303   4.407
  733W        W72262  27.000  26.080  10.812
  734W        W72263  36.605  13.183   2.976
  735W        W72264  11.586   3.326   0.934
  736W        W72265  36.373  31.800  11.493
  737W        W72266  21.347  28.265  14.944
  738W        W72267  38.504  40.735  13.092
  739W        W72268  40.133   4.126  13.171
  740W        W72269  31.449  26.533  12.987
  741W        W72270   7.748  42.980   2.230
  742W        W72271  14.379  39.514   3.635
  743W        W72272  25.542  24.103  12.836
  744W        W72273  19.351  40.289   1.749
  745W        W72274  23.010  34.420  14.457
  746W        W72275  28.096  21.919  14.936
  747W        W72276  16.539  12.410   1.714
  748W        W72277  43.808  43.836   1.703
  749W        W72278  16.678  32.387   1.748
  750W        W72279  33.484  42.766  11.929
  751W        W72280  42.165  20.707   5.125
  752W        W72281   3.975  20.747   3.283
  753W        W72282  10.555  37.683  10.113
  754W        W72283  16.785   4.298  10.657
  755W        W72284   8.860  18.594  14.459
  756W        W72285   6.094  21.747   2.813
  757W        W72286   4.760  28.570   4.312
  758W        W72287   1.363  44.755  11.041
  759W        W72288  14.605  31.983   1.406
  760W        W72289  32.965  23.008   0.663
  761W        W72290  44.603   0.319  13.946
  762W        W72291  30.149  33.001  12.256
  763W        W72292   9.288   6.687  14.734
  764W        W72293  30.617   9.845   4.653
  765W        W72294  32.741  27.613  12.698
  766W        W72295  18.074  27.767  11.194
  767W        W72296  10.737  12.125   2.238
  768W        W72297  20.586  15.517  12.025
  769W        W72298  19.935  37.592   2.237
  770W        W72299   9.256   0.597   2.283
  771W        W72300  39.079  27.460  11.998
  772W        W72301  33.964  23.840  12.424
  773W        W72302   5.704   6.290   2.868
  774W        W72303  44.347  17.117   4.554
  775W        W72304  38.022  19.240   1.180
  776W        W72305  29.480  31.900  10.324
  777W        W72306  35.831   1.313   3.212
  778W        W72307  20.684  13.504  10.998
  779W        W72308  35.589  25.867   2.672
  780W        W72309  35.547  39.709   4.536
  781W        W72310   6.438   6.194   1.279
  782W        W72311   3.388   3.601  10.981
  783W        W72312  35.378  34.090   1.891
  784W        W72313  39.435  41.104   0.833
  785W        W72314  37.587  17.272  14.868
  786W        W72315  27.432  23.203  14.078
  787W        W72316   2.310  44.050   0.056
  788W        W72317   8.157  41.336  12.950
  789W        W72318  43.170   4.220  14.908
  790W        W72319  31.204  38.778   3.287
  791W        W72320  41.419  13.044  14.811
  792W        W72321   7.336  20.572  11.471
  793W        W72322   6.471  23.722  12.888
  794W        W72323  34.346  27.894   1.777
  795W        W72324  43.806   5.572   1.629
  796W        W72325   6.448  17.294  10.307
  797W        W72326   2.137  32.847   4.521
  798W        W72327  38.408   4.411   1.169
  799W        W72328  12.291  43.815   2.839
  800W        W72329   3.624  18.718  10.637
  801W        W72330  38.575  29.622   2.844
  802W        W72331  14.176  32.757  12.963
  803W        W72332   7.359  37.925  12.148
  804W        W72333  21.936  30.709   1.359
  805W        W72334  19.042   3.944  10.947
  806W        W72335  40.078  38.363   1.281
  807W        W72336  15.557  21.993  12.428
  808W        W72337  16.028  38.135  12.147
  809W        W72338  10.621  40.446  13.395
  810W        W72339  27.140  20.840   0.287
  811W        W72340  10.705  15.732   4.152
  812W        W72341  44.238  30.547   3.183
  813W        W72342   2.897   8.926   3.081
  814W        W72343  17.027  40.419  10.459
  815W        W72344  29.425  15.945  11.274
  816W        W72345   8.073   1.422   5.199
  817W        W72346  31.162   5.058   0.775
  818W        W72347  34.099  18.867   0.193
  819W        W72348   9.919  29.508  13.333
  820W        W72349   5.346  18.132  13.346
  821W        W72350   8.904  27.066   3.693
  822W        W72351  37.699  11.234  12.545
  823W        W72352  37.107  44.417   3.422
  824W        W72353  25.984  18.314   2.864
  825W        W72354  21.830   6.394   0.341
  826W        W72355  33.917   6.998   4.701
  827W        W72356  19.485  13.109  13.385
  828W        W72357  29.990  39.528   3.295
  829W        W72358  11.843   6.649   2.396
  830W        W72359   5.837   2.819  14.196
  831W        W72360  41.327   8.807  14.853
  832W        W72361  31.933  38.850  12.389
  833W        W72362   8.934   4.862   0.754
  834W        W72363  26.229  13.429   2.208
  835W        W72364   4.776   9.322  11.378
  836W        W72365  26.110  41.540   1.329
  837W        W72366   8.162  20.375   4.585
  838W        W72367  17.816  43.492   1.931
  839W        W72368   5.834  34.625   4.156
  840W        W72369  20.777  28.386   4.804
  841W        W72370  35.656  18.236  11.469
  842W        W72371   5.348  11.344  12.742
  843W        W72372  28.459  33.443  13.391
  844W        W72373   4.807   1.254  13.441
  845W        W72374  23.525   4.162  10.738
  846W        W72375  15.841  32.689   1.338
  847W        W72376  40.396   8.327   3.059
  848W        W72377  29.103  29.903   0.381
  849W        W72378   7.328   8.113  12.059
  850W        W72379  32.203  44.304   3.898
  851W        W72380  39.771  28.735   0.997
  852W        W72381  20.277  17.163  14.117
  853W        W72382  39.576   1.878   3.261
  854W        W72383  23.117  39.813  12.977
  855W        W72384   4.443  31.120  12.928
  856W        W72385  25.593   8.627   1.207
  857W        W72386  11.250  22.734  11.459
  858W        W72387   9.799  15.686  13.050
  859W        W72388  12.988  40.766  13.512
  860W        W72389  19.994  38.948  13.448
  861W        W72390  14.315   6.882   1.196
  862W        W72391  19.799  11.200  13.605
  863W        W72392  25.476  34.524   1.807
  864W        W72393  44.903  35.450   0.211
  865W        W72394  17.948  28.613  14.896
  866W        W72395  18.632   4.346  12.468
  867W        W72396  40.259   3.582   3.773
  868W        W72397  37.651  10.756   2.697
  869W        W72398  27.756  16.688  10.996
  870W        W72399   9.820   9.936  13.521
  871W        W72400  24.131   2.776   0.606
  872W        W72401  38.319  17.069  12.531
  873W        W72402  25.746  42.072  13.430
  874W        W72403  42.361  26.700   2.939
  875W        W72404  31.955  31.949   4.534
  876W        W72405   6.792  26.020  13.956
  877W        W72406   8.918  27.159   1.749
  878W        W72407  31.968  32.747   1.476
  879W        W72408   6.516  26.725  13.395
  880W        W72409   1.418  16.121   2.288
  881W        W72410  37.885  32.098   0.822
  882W        W72411   4.130   8.467  13.166
  883W        W72412  20.047  28.402   2.789
  884W        W72413  29.833  22.797   2.276
  885W        W72414  32.785   0.139  14.813
  886W        W72415  18.284  41.232  10.591
  887W        W72416  30.086   8.612   1.932
  888W        W72417  21.291  24.266  12.577
  889W        W72418  38.367  13.270   1.347
  890W        W72419  42.554  42.429   4.612
  891W        W72420  18.040  23.519  10.758
  892W        W72421  33.951  11.052  14.032
  893W        W72422   9.910   3.840   3.186
  894W        W72423  32.010  18.272   0.907
  895W        W72424  24.082  28.104   1.050
  896W        W72425  42.831  44.898  14.980
  897W        W72426   1.602  38.185   0.874
  898W        W72427  25.199  31.471   3.559
  899W        W72428  36.366   0.723  14.924
  900W        W72429  35.633  25.492   4.605
  901W        W72430   3.679  29.084  10.571
  902W        W72431  11.964  10.719   4.602
  903W        W72432  28.864  37.326  11.830
  904W        W72433  34.898  22.043   1.762
  905W        W72434  36.839  27.080   3.082
  906W        W72435  19.142  31.225   0.786
  907W        W72436  21.081  34.163   3.287
  908W        W72437  15.829   4.801  12.078
  909W        W72438  43.272  11.038   0.459
  910W        W72439  36.198  21.219   3.196
  911W        W72440   1.036  16.287   1.706
  912W        W72441  41.614   0.727   2.183
  913W        W72442  38.308  12.562  14.886
  914W        W72443  23.964   8.338   4.075
  915W        W72444   9.230   1.170   1.385
  916W        W72445  43.421  22.868  12.843
  917W        W72446   4.912  16.326   3.178
  918W        W72447  27.950  43.977  12.472
  919W        W72448  14.256  20.247   4.662
  920W        W72449  24.705   5.735  11.788
  921W        W72450   3.863  33.526  13.483
  922W        W72451  37.809   4.697   0.329
  923W        W72452  40.885  18.217  14.686
  924W        W72453  11.845  23.798  12.482
  925W        W72454  14.788  23.401   3.752
  926W        W72455  28.092   9.189   2.870
  927W        W72456  37.145  30.993   4.785
  928W        W72457  25.154  16.624  12.856
  929W        W72458  37.832  11.405  14.394
  930W        W72459   6.054   5.218  12.355
  931W        W72460  26.144  44.181   0.793
  932W        W72461   5.273  12.311   4.500
  933W        W72462  40.381  10.685   0.362
  934W        W72463  21.661   7.683   3.549
  935W        W72464  16.716   8.557   0.722
  936W        W72465  37.081  18.266   2.878
  937W        W72466  35.510  21.205  12.043
  938W        W72467  39.740  12.264   1.936
  939W        W72468   3.898  36.950   4.501
  940W        W72469  22.516   6.960  11.558
  941W        W72470   6.832  22.598   1.147
  942W        W72471  41.825  28.991   2.188
  943W        W72472   1.662  33.004  14.366
  944W        W72473  33.803  43.187   9.837
  945W        W72474  11.176  38.393   0.432
  946W        W72475  32.931  21.499   2.854
  947W        W72476  29.659  37.037   3.675
  948W        W72477   8.874  40.847   4.148
  949W        W72478  17.788   0.820  11.945
  950W        W72479  29.020  30.525   3.348
  951W        W72480  36.032  13.167   4.337
  952W        W72481  15.343  14.295   0.871
  953W        W72482  39.831  27.811  11.040
  954W        W72483  24.526  13.258  14.277
  955W        W72484  12.805  31.701  13.333
  956W        W72485  20.475  22.611  10.626
  957W        W72486  23.217  27.279  13.515
  958W        W72487   5.863  11.171   3.170
  959W        W72488  29.300  22.175   1.554
  960W        W72489  33.922  26.657  13.271
  961W        W72490   9.718  32.979  14.631
  962W        W72491  12.876  34.680  12.112
  963W        W72492  32.837  32.333  12.001
  964W        W72493  39.089  39.840   0.862
  965W        W72494  27.208  20.969  13.065
  966W        W72495   4.231   8.770   3.770
  967W        W72496  33.206  41.517   1.718
  968W        W72497  40.963  41.760   0.398
  969W        W72498  32.195  10.719   4.571
  970W        W72499  30.510  19.134   1.334
  971W        W72500  14.503  36.033  12.182
  972W        W72501  35.966  16.003   2.464
  973W        W72502   6.862  15.179  13.474
  974W        W72503  17.091  12.682  12.129
  975W        W72504  27.574  43.368   4.918
  976W        W72505  42.299  25.367  11.192
  977W        W72506  37.743   3.857   1.881
  978W        W72507  24.116  28.939  11.304
  979W        W72508   8.352  17.323  14.045
  980W        W72509  10.406  28.074  10.567
  981W        W72510   8.875  27.902  14.588
  982W        W72511  11.651  37.563  11.968
  983W        W72512   0.158   2.776  11.369
  984W        W72513  10.100  38.235   3.402
  985W        W72514  11.792  23.167   0.875
  986W        W72515  24.018  33.375   0.726
  987W        W72516  10.084  37.118   3.135
  988W        W72517  33.998  22.043  14.570
  989W        W72518  40.974  39.668  11.147
  990W        W72519  36.559  35.097  14.372
  991W        W72520  24.437   1.271   1.557
  992W        W72521  42.239  17.325   4.838
  993W        W72522  14.298   2.149   2.209
  994W        W72523  39.116  44.989  14.766
  995W        W72524  37.152   5.656   1.380
  996W        W72525  42.470  30.071   2.311
  997W        W72526  13.628  40.420   4.809
  998W        W72527  22.980   9.401   1.535
  999W        W72528  11.255  26.667  14.313
 1000W        W72529   8.380  18.205   0.647
 1001W        W72530  11.656  14.941   4.460
 1002W        W72531   4.688   1.507  13.870
 1003W        W72532   3.799   0.461   3.249
 1004W        W72533  33.719  32.205  13.461
 1005W        W72534   2.436   9.364   1.285
 1006W        W72535  29.148  30.902  11.145
 1007W        W72536   2.985   0.925   0.503
 1008W        W72537  43.852  17.222   4.654
 1009W        W72538  24.215  19.222   2.278
 1010W        W72539  32.058  19.619   1.857
 1011W        W72540  14.706  35.032   2.302
 1012W        W72541  11.373  17.095  14.499
 1013W        W72542  43.709  38.335  11.404
 1014W        W72543  38.484  29.898   1.866
 1015W        W72544  29.872  28.709   3.465
 1016W        W72545   5.725  35.435  11.935
 1017W        W72546  23.955  23.120   4.419
 1018W        W72547  22.384  19.189   3.659
 1019W        W72548  41.780   8.701  13.563
 1020W        W72549  39.374  39.300   3.336
 1021W        W72550  26.763  23.534  14.181
 1022W        W72551  23.951  18.146  10.596
 1023W        W72552  37.779  11.553  11.106
 1024W        W72553  35.420  38.788   4.431
 1025W        W72554  33.180  35.798   2.009
 1026W        W72555   2.811  38.334   3.296
 1027W        W72556  30.435  11.029   0.018
 1028W        W72557  27.016  44.467   3.334
 1029W        W72558  43.454  18.505  13.117
 1030W        W72559   6.345  34.828   2.927
 1031W        W72560   9.135  16.653  13.907
 1032W        W72561  13.507  41.727   0.724
 1033W        W72562  19.831   6.913   4.169
 1034W        W72563  13.152  35.905   1.838
 1035W        W72564  28.915  11.736   2.085
 1036W        W72565   9.346   2.973  13.411
 1037W        W72566  27.183  34.989  12.914
 1038W        W72567  18.700   1.009   3.815
 1039W        W72568  44.823  20.425   0.185
 1040W        W72569  28.546   0.861   3.609
 1041W        W72570  39.818  15.779  14.744
 1042W        W72571  44.232   9.775  10.277
 1043W        W72572  21.269  15.270   2.876
 1044W        W72573  33.517  40.555  11.224
 1045W        W72574   8.778  15.526  10.730
 1046W        W72575  43.016  17.169  10.616
 1047W        W72576  39.113  13.520   2.600
 1048W        W72577  42.489  35.737   2.657
 1049W        W72578  19.283  18.671   3.733
 1050W        W72579  17.461  43.365  14.402
 1051W        W72580  24.935  28.652  11.914
 1052W        W72581  13.266   1.290  13.108
 1053W        W72582  41.219  31.503   0.763
 1054W        W72583  33.734  19.681   2.786
 1055W        W72584  38.658  22.769   4.810
 1056W        W72585  28.106  28.671  10.959
 1057W        W72586   3.366   0.748   3.154
 1058W        W72587   5.440  30.236   0.420
 1059W        W72588  24.891  21.223   4.389
 1060W        W72589   0.991   8.693  13.489
 1061W        W72590  12.114  38.432   2.228
 1062W        W72591  40.420   0.301   4.784
 1063W        W72592  11.180  34.419   1.496
 1064W        W72593  29.128  18.982  13.596
 1065W        W72594  28.408  41.078   0.401
 1066W        W72595  43.439   9.927  11.650
 1067W        W72596  14.554  17.979   4.542
 1068W        W72597  17.329  34.983  13.432
 1069W        W72598  27.604   3.337  14.720
 1070W        W72599  14.031  12.552  11.061
 1071W        W72600  21.698   6.446   1.309
 1072W        W72601  33.031  12.684  14.889
 1073W        W72602   9.318  43.480   1.715
 1074W        W72603  20.785   4.816  14.388
 1075W        W72604   8.177   6.863   3.337
 1076W        W72605   1.300   6.479   0.439
 1077W        W72606  39.867  34.128   2.633
 1078W        W72607  15.231   8.248  13.078
 1079W        W72608  26.601  13.933  12.543
 1080W        W72609  36.102  33.965  13.311
 1081W        W72610  41.538  26.956  12.493
 1082W        W72611  40.985  11.868  14.055
 1083W        W72612  10.343  41.101   1.424
 1084W        W72613  35.437  37.602   1.757
 1085W        W72614  10.689  26.010  13.278
 1086W        W72615  44.777   9.219  10.749
 1087W        W72616  35.042   2.490  12.447
 1088W        W72617  18.744   0.386   2.430
 1089W        W72618  21.983  16.389   1.769
 1090W        W72619  35.947  23.520   2.752
 1091W        W72620  19.053  42.997  14.840
 1092W        W72621  40.394  34.398   0.324
 1093W        W72622   7.131  27.714   0.473
 1094W        W72623  18.463  29.873  14.106
 1095W        W72624   5.421  10.826   2.352
 1096W        W72625   4.955  37.819  11.212
 1097W        W72626  44.729  34.536   3.131
 1098W        W72627  34.737   1.447   1.583
 1099W        W72628  27.166  19.623  11.998
 1100W        W72629   1.694  41.619  12.926
 1101W        W72630   0.198  17.086  10.633
 1102W        W72631  40.842  29.773   2.734
 1103W        W72632  28.899   0.116   3.537
 1104W        W72633  37.245  42.683   5.069
 1105W        W72634  32.535  11.845  14.074
 1106W        W72635  15.434  27.078   2.807
 1107W        W72636  38.262  37.974   1.031
 1108W        W72637  38.500   8.826   4.659
 1109W        W72638  22.377   2.071  10.059
 1110W        W72639  33.589  19.038   0.565
 1111W        W72640  30.606   3.312   2.963
 1112W        W72641  19.504  14.617  12.043
 1113W        W72642   7.072  20.261   4.080
 1114W        W72643   3.654   6.422  11.998
 1115W        W72644  21.037  36.966  11.254
 1116W        W72645   2.828  15.279  10.624
 1117W        W72646   9.302  41.837   3.863
 1118W        W72647  39.960   3.711   0.350
 1119W        W72648  36.138  38.272  11.947
 1120W        W72649  42.353   0.754   3.951
 1121W        W72650  12.016  10.110  12.425
 1122W        W72651  23.730  36.419  13.120
 1123W        W72652  32.631   4.655   1.005
 1124W        W72653   2.505   5.154  11.061
 1125W        W72654   7.121  41.320   2.624
 1126W        W72655  36.955  44.145  11.093
 1127W        W72656  32.921  44.867   1.097
 1128W        W72657  10.165  44.191   4.605
 1129W        W72658  25.091  25.192   3.892
 1130W        W72659   0.295  22.743  14.906
 1131W        W72660  30.541  20.255   3.191
 1132W        W72661  26.021  35.463  14.783
 1133W        W72662  26.404  16.507  10.649
 1134W        W72663  28.452   8.475  13.596
 1135W        W72664  37.993  32.362   2.908
 1136W        W72665  37.337   2.252   0.806
 1137W        W72666  33.856  32.834  14.713
 1138W        W72667  43.275  36.551  12.562
 1139W        W72668  29.687  22.056   2.255
 1140W        W72669  11.658  22.291  10.591
 1141W        W72670   0.726  38.452   1.250
 1142W        W72671   1.457  17.617   4.085
 1143W        W72672   0.867   7.885   3.558
 1144W        W72673  43.240  10.397   1.194
 1145W        W72674  12.872  26.388  11.125
 1146W        W72675  44.670   1.942  14.400
 1147W        W72676  23.454   1.815   3.697
 1148W        W72677  15.254  12.093  12.022
 1149W        W72678  35.430  42.188  14.930
 1150W        W72679  17.682   2.174  14.761
 1151W        W72680  33.300  17.606  12.008
 1152W        W72681   3.228   0.901   4.688
 1153W        W72682  33.398  26.126   1.355
 1154W        W72683  19.763  23.984   0.959
 1155W        W72684  44.764  16.820  11.974
 1156W        W72685  27.619  36.065  11.013
 1157W        W72686  32.473   1.208  13.024
 1158W        W72687  42.988  22.051   2.318
 1159W        W72688  43.044  38.399  12.883
 1160W        W72689  12.232   2.922   2.258
 1161W        W72690  34.560  15.359   3.523
 1162W        W72691  24.737   2.680   2.773
 1163W        W72692  25.020  38.097   3.785
 1164W        W72693   4.840  31.662   2.648
 1165W        W72694  15.265  11.738  10.626
 1166W        W72695  30.696  22.943   3.763
 1167W        W72696  12.624   6.117   1.355
 1168W        W72697  22.997   2.438   2.625
 1169W        W72698  30.869  13.804  13.612
 1170W        W72699  40.431  21.786   2.466
 1171W        W72700   6.089  26.356  14.908
 1172W        W72701   1.776   5.807  11.396
 1173W        W72702  31.059  29.190  11.354
 1174W        W72703  43.536  31.374   0.294
 1175W        W72704  13.840   0.417  11.335
 1176W        W72705   1.654   5.174  13.315
 1177W        W72706   1.487  14.129   0.170
 1178W        W72707   3.278  38.322   4.651
 1179W        W72708  25.051  33.044   0.684
 1180W        W72709  23.614  20.089  13.367
 1181W        W72710  38.684  23.935  13.843
 1182W        W72711  19.170  30.372   4.892
 1183W        W72712  18.652  28.951  11.266
 1184W        W72713   9.689  29.152  14.277
 1185W        W72714   5.833  18.363   2.311
 1186W        W72715  11.467  18.201  14.946
 1187W        W72716   6.950   4.006  13.367
 1188W        W72717  22.221  10.286  11.583
 1189W        W72718   8.261  36.906  11.918
 1190W        W72719   7.341  11.128  11.299
 1191W        W72720  35.056  26.015  11.021
 1192W        W72721  31.975  32.482   1.034
 1193W        W72722  30.970  12.163  14.184
 1194W        W72723  40.072  39.048  13.851
 1195W        W72724  31.927  20.932   4.553
 1196W        W72725  12.905  41.914  12.847
 1197W        W72726  36.859  35.656   1.285
 1198W        W72727  28.258  15.449   1.261
 1199W        W72728  15.551  15.795   4.230
 1200W        W72729  24.193  40.339   0.452
 1201W        W72730  33.525  24.585   4.858
 1202W        W72731  39.822  42.734  14.483
 1203W        W72732  33.279   4.178   2.182
 1204W        W72733   0.406  42.523  13.206
 1205W        W72734  33.010   3.958  11.563
 1206W        W72735  40.185  31.363   3.659
 1207W        W72736  30.474  39.623   1.381
 1208W        W72737  21.240  10.175   0.048
 1209W        W72738  10.234   6.398  13.348
 1210W        W72739  13.114  39.328  10.723
 1211W        W72740  42.035  34.860  13.924
 1212W        W72741  10.869  31.354   4.303
 1213W        W72742  12.614  40.368  11.417
 1214W        W72743   9.728  18.110   3.231
 1215W        W72744  17.386  44.408  11.914
 1216W        W72745  38.049   3.882  14.757
 1217W        W72746   4.172  19.852   3.430
 1218W        W72747  14.882  29.693  12.832
 1219W        W72748  13.795  31.748  11.959
 1220W        W72749   4.042  41.024   2.796
 1221W        W72750   4.246  18.042   0.207
 1222W        W72751  38.384  10.588   4.508
 1223W        W72752  38.912   1.378   3.187
 1224W        W72753  17.667  18.853  13.873
 1225W        W72754  39.383  19.070   1.295
 1226W        W72755  18.830  16.718  12.212
 1227W        W72756  39.549   9.417  14.363
 1228W        W72757  26.236  24.676   2.969
 1229W        W72758  37.024  37.814  14.580
 1230W        W72759  41.765  32.723   4.531
 1231W        W72760  29.783  38.054  12.651
 1232W        W72761  21.174  39.306   4.970
 1233W        W72762  16.922  12.221  13.866
 1234W        W72763   8.703  41.546  12.152
 1235W        W72764   6.315  14.561  11.092
 1236W        W72765  33.327  44.785  12.460
 1237W        W72766  33.079  40.943   4.698
 1238W        W72767  16.230   9.301   3.773
 1239W        W72768  26.140  32.636  14.471
 1240W        W72769   7.908  19.556   0.980
 1241W        W72770  38.595   5.842   2.888
 1242W        W72771  10.608  31.811  12.423
 1243W        W72772  15.206  26.069   2.902
 1244W        W72773  13.627   1.461   0.892
 1245W        W72774  42.823  38.808  13.117
 1246W        W72775  40.561  40.795  11.141
 1247W        W72776  37.480  37.470   1.610
 1248W        W72777   9.467  38.825   2.921
 1249W        W72778  20.546  37.155  12.647
 1250W        W72779  28.636  14.367   1.810
 1251W        W72780  16.456  24.312   2.826
 1252W        W72781   4.529  31.569   3.598
 1253W        W72782  11.725  20.512  14.305
 1254W        W72783  42.055  34.127   0.698
 1255W        W72784  22.405  11.186  12.947
 1256W        W72785   6.325  30.911   3.759
 1257W        W72786   6.055  33.255   0.761
 1258W        W72787  30.054  17.224   5.284
 1259W        W72788   9.754  19.904   4.299
 1260W        W72789  14.150  22.597   4.062
 1261W        W72790  13.337  14.775  13.789
 1262W        W72791  20.961  14.830   0.945
 1263W        W72792  36.240   0.250   4.214
 1264W        W72793  25.682  26.531   1.957
 1265W        W72794   4.181   0.737  14.479
 1266W        W72795  20.030   7.933   0.395
 1267W        W72796  19.600  39.792   0.208
 1268W        W72797  23.008  14.706   4.848
 1269W        W72798  16.783  42.952  10.703
 1270W        W72799  39.368   5.988   4.728
 1271W        W72800  40.793  26.637   2.175
 1272W        W72801   0.472  14.495   3.629
 1273W        W72802  21.653  39.270   4.086
 1274W        W72803   5.390  17.775  12.952
 1275W        W72804   2.096  31.795   1.345
 1276W        W72805  20.019  26.593  10.092
 1277W        W72806   0.389  23.152  14.173
 1278W        W72807   0.796  40.243  12.003
 1279W        W72808  10.645   8.065  13.920
 1280W        W72809  16.541  10.798   1.245
 1281W        W72810   2.740  35.495   3.391
 1282W        W72811  25.227  15.408   2.831
 1283W        W72812  29.900   3.677   2.361
 1284W        W72813  35.338  15.255  14.993
 1285W        W72814  13.871   4.894  12.238
 1286W        W72815  26.276  14.889  11.000
 1287W        W72816  23.696  12.780   3.631
 1288W        W72817  24.537   3.298  12.472
 1289W        W72818   7.897  32.221  12.462
 1290W        W72819  18.750  32.883   0.732
 1291W        W72820  20.556  15.616   0.772
 1292W        W72821   4.398  19.229  13.346
 1293W        W72822   5.495   4.434  11.064
 1294W        W72823   2.144  17.204  10.329
 1295W        W72824  19.286  34.066   4.678
 1296W        W72825  39.982  26.480  12.432
 1297W        W72826  27.225  33.084   2.355
 1298W        W72827  31.107  24.295  10.491
 1299W        W72828  40.027  18.551   4.050
 1300W        W72829  37.894  42.840   1.809
 1301W        W72830  32.485  43.330  14.794
 1302W        W72831  40.278  17.915   2.394
 1303W        W72832   7.784   8.420   0.330
 1304W        W72833  23.425  31.453   2.644
 1305W        W72834  40.192  38.090   2.249
 1306W        W72835  10.893  31.351  14.122
 1307W        W72836  18.580  39.294   2.142
 1308W        W72837  39.938   6.468   2.266
 1309W        W72838  30.883  38.229  11.640
 1310W        W72839  42.563  38.515   0.197
 1311W        W72840  41.103  10.632  12.725
 1312W        W72841  31.910  18.003  14.901
 1313W        W72842  38.539  10.066  13.120
 1314W        W72843  24.217   6.458   1.798
 1315W        W72844  22.441  31.050   1.825
 1316W        W72845  19.095  14.692   1.390
 1317W        W72846   0.752   1.997   3.174
 1318W        W72847  27.285  42.797  11.776
 1319W        W72848  28.567   2.716  14.286
 1320W        W72849   9.060  30.194   4.746
 1321W        W72850  12.397   6.662  14.957
 1322W        W72851  19.604  33.443  11.687
 1323W        W72852  43.864  21.475   1.967
 1324W        W72853   7.332  30.561  13.153
 1325W        W72854  16.028  23.562   0.239
 1326W        W72855  30.912  34.807  10.739
 1327W        W72856  35.070   8.390  11.503
 1328W        W72857  36.321   4.105   0.559
 1329W        W72858  10.567  42.940  11.687
 1330W        W72859  28.106  32.124  14.448
 1331W        W72860  10.408  30.941   0.220
 1332W        W72861  24.939   3.747  14.305
 1333W        W72862  38.331  25.579  11.651
 1334W        W72863   7.222  27.998  10.695
 1335W        W72864   5.268  31.819  11.058
 1336W        W72865  40.397  33.409   3.142
 1337W        W72866  20.201  10.703  11.046
 1338W        W72867  10.181  26.988  12.451
 1339W        W72868  13.888  10.234   3.613
 1340W        W72869  28.508   1.522  13.474
 1341W        W72870   1.946  11.646   2.717
 1342W        W72871  11.429   0.234   3.661
 1343W        W72872  21.303  24.227  14.546
 1344W        W72873  32.922   0.440  14.396
 1345W        W72874  28.199  18.762  10.735
 1346W        W72875  18.016   9.948  12.625
 1347W        W72876  25.963  40.893  12.001
 1348W        W72877  32.612  28.218   0.569
 1349W        W72878  27.843  18.613   4.260
 1350W        W72879  41.722  36.068   3.297
 1351W        W72880  16.991  11.669   0.834
 1352W        W72881  24.507  40.777   4.274
 1353W        W72882  10.122  21.135  10.285
 1354W        W72883  40.891   3.714   2.296
 1355W        W72884  33.028  39.947   2.628
 1356W        W72885  13.311  15.274   0.643
 1357W        W72886  42.035  14.143   4.214
 1358W        W72887  26.472  32.439  14.854
 1359W        W72888   7.977   2.442  14.839
 1360W        W72889   4.425  11.761  14.920
 1361W        W72890  17.163  30.572   1.715
 1362W        W72891   5.687   2.656   2.707
 1363W        W72892  42.909  28.399  13.071
 1364W        W72893   1.342   3.616   0.974
 1365W        W72894   0.768  29.850   4.931
 1366W        W72895   2.452  14.100   0.277
 1367W        W72896  21.489   1.261   4.677
 1368W        W72897  36.522  13.291   4.265
 1369W        W72898  21.966   9.756  13.777
 1370W        W72899  26.471  13.169  12.000
 1371W        W72900  34.814  38.307  11.922
 1372W        W72901   9.382   3.548   4.057
 1373W        W72902  23.647  21.193  12.532
 1374W        W72903  37.177  13.859   4.011
 1375W        W72904  23.963  11.173   3.124
 1376W        W72905  21.285  10.202   4.914
 1377W        W72906   2.972  12.767  13.878
 1378W        W72907  38.935  39.905   2.949
 1379W        W72908  33.866  40.430   1.280
 1380W        W72909   2.592  21.528   0.010
 1381W        W72910  36.019  11.601   3.880
 1382W        W72911  28.509   0.366   0.398
 1383W        W72912  29.427  15.197   3.014
 1384W        W72913  41.838  21.546  14.979
 1385W        W72914  16.600  37.520   2.232
 1386W        W72915  39.834  43.829   4.632
 1387W        W72916  21.504   9.862   1.306
 1388W        W72917  35.317  29.607   4.569
 1389W        W72918  33.490  10.646   2.232
 1390W        W72919   6.246  37.053   0.577
 1391W        W72920  35.314  39.500   2.054
 1392W        W72921  39.460  22.828   4.401
 1393W        W72922  32.992  16.114   3.251
 1394W        W72923   4.564  18.266   1.307
 1395W        W72924  11.370   6.275   2.703
 1396W        W72925  43.457  30.157   1.953
 1397W        W72926   8.645  18.759  11.088
 1398W        W72927  18.284   3.163  14.541
 1399W        W72928   7.202  12.344  13.815
 1400W        W72929  18.584  29.464   3.946
 1401W        W72930   9.818  39.455   1.663
 1402W        W72931  22.987  15.900  11.534
 1403W        W72932  30.550   0.234  13.551
 1404W        W72933  17.007  15.301   4.058
 1405W        W72934  40.866   3.019  12.421
 1406W        W72935  12.009  30.576  10.175
 1407W        W72936  26.442  13.966  10.647
 1408W        W72937  36.419  20.312   3.262
 1409W        W72938  28.210  26.953   0.133
 1410W        W72939  15.217  11.699  14.778
 1411W        W72940  15.526   6.715   2.339
 1412W        W72941  22.021  20.238   1.797
 1413W        W72942   7.631  42.397  12.873
 1414W        W72943  17.973   3.195   3.201
 1415W        W72944  17.156  44.046  12.534
 1416W        W72945   2.342  17.642  13.078
 1417W        W72946   0.224  32.390   2.233
 1418W        W72947  22.796  35.670   1.781
 1419W        W72948  42.055  36.025  11.007
 1420W        W72949  21.089   9.076   2.953
 1421W        W72950  24.244  36.386  13.107
 1422W        W72951  12.026  37.953  12.009
 1423W        W72952   7.698  16.145   0.272
 1424W        W72953  28.384  35.978   0.183
 1425W        W72954  14.340  41.404  10.727
 1426W        W72955  14.188   8.901  12.836
 1427W        W72956  34.851   3.364  10.842
 1428W        W72957   3.792  37.288   4.876
 1429W        W72958   5.006   6.954   0.254
 1430W        W72959  16.339  43.232   4.615
 1431W        W72960  12.871  38.088   2.119
 1432W        W72961  32.145  39.865  10.319
 1433W        W72962  10.843  24.148  13.098
 1434W        W72963  26.116   5.676   1.334
 1435W        W72964   9.246  37.979  12.373
 1436W        W72965  17.938  14.182   3.321
 1437W        W72966  13.142   5.882  14.031
 1438W        W72967  42.467  36.898   2.352
 1439W        W72968   0.703  43.433  14.352
 1440W        W72969  26.718  33.473  10.293
 1441W        W72970  19.508  23.572  10.791
 1442W        W72971  38.483  36.544  14.825
 1443W        W72972   6.983  21.640   0.359
 1444W        W72973  39.888  36.768   1.574
 1445W        W72974  39.480   3.305   2.248
 1446W        W72975  41.736  25.737  14.374
 1447W        W72976  31.528  39.377  13.889
 1448W        W72977  32.508  22.730  11.519
 1449W        W72978   5.006  26.306  12.589
 1450W        W72979  23.130  41.054   3.906
 1451W        W72980  37.793   1.272  13.561
 1452W        W72981  39.406  25.254   2.212
 1453W        W72982  29.488  17.281  11.646
 1454W        W72983  22.131  44.092   1.785
 1455W        W72984  33.346  32.106  12.556
 1456W        W72985   8.938  21.124   1.370
 1457W        W72986   1.886  27.551   1.678
 1458W        W72987  29.431  38.932  13.387
 1459W        W72988   8.720   6.748  11.329
 1460W        W72989  20.937  26.047   3.730
 1461W        W72990  16.816  25.666  11.590
 1462W        W72991  17.306  18.186   0.788
 1463W        W72992  16.048  31.180   0.806
 1464W        W72993   8.601  34.838  14.251
 1465W        W72994  42.823  44.110  10.360
 1466W        W72995  11.717  14.147   1.374
 1467W        W72996  26.593   5.360   1.676
 1468W        W72997  41.888  44.333   2.292
 1469W        W72998  20.041  10.643  14.336
 1470W        W72999  37.635  12.761   3.204
 1471W        W73000  34.348  41.449   3.349
 1472W        W73001  35.575   9.869  12.032
 1473W        W73002  30.975  39.954  12.139
 1474W        W73003  21.828   5.459  14.879
 1475W        W73004  27.963  36.825   4.156
 1476W        W73005  12.160  42.545   2.355
 1477W        W73006  41.940  18.951  11.639
 1478W        W73007   9.708  44.425  14.985
 1479W        W73008  23.673  33.598   0.362
 1480W        W73009  43.865  11.160  12.420
 1481W        W73010  19.977  22.668  10.410
 1482W        W73011  28.177   7.172  12.803
 1483W        W73012  44.839  43.013   2.405
 1484W        W73013  21.318  20.233   3.157
 1485W        W73014   6.165  20.247   4.925
 1486W        W73015  19.837   1.856   2.712
 1487W        W73016  33.205  13.243  14.063
 1488W        W73017  25.092  35.157  11.200
 1489W        W73018  12.866  34.562   4.120
 1490W        W73019  17.683   3.411  14.472
 1491W        W73020  32.827  44.659  14.618
 1492W        W73021  25.892  29.464  12.854
 1493W        W73022  13.610   9.238  12.042
 1494W        W73023   3.643  29.041   0.787
 1495W        W73024  26.204  40.459  10.689
 1496W        W73025  30.731  13.998  12.342
 1497W        W73026  36.456  25.322   3.742
 1498W        W73027  22.510  38.418   5.090
 1499W        W73028  32.864  38.934  10.699
 1500W        W73029   5.930  35.952  11.259
 1501W        W73030  12.719  30.238   3.031
 1502W        W73031  19.585  40.665   3.636
 1503W        W73032  22.716  26.987  13.449
 1504W        W73033  27.856  29.100  12.870
 1505W        W73034   6.729   4.696   0.142
 1506W        W73035  43.204  40.063  13.439
 1507W        W73036  33.952  13.638   1.336
 1508W        W73037  30.764   2.914   2.707
 1509W        W73038  29.507  21.566   2.370
 1510W        W73039  41.551  15.800  14.376
 1511W        W73040  27.782  39.062   0.819
 1512W        W73041  15.277  29.563   5.153
 1513W        W73042   4.999  40.444   5.094
 1514W        W73043  11.303  24.471   0.884
 1515W        W73044  12.194   4.906  12.172
 1516W        W73045   1.425  24.566   3.715
 1517W        W73046   5.175  19.614  14.895
 1518W        W73047   3.788  33.911   3.956
 1519W        W73048  15.314  37.574   4.909
 1520W        W73049  27.747  31.438  13.688
 1521W        W73050  26.994  16.366   3.362
 1522W        W73051  21.332  33.583  13.541
 1523W        W73052  18.054  34.628   0.747
 1524W        W73053   5.306  38.671  14.022
 1525W        W73054   0.720  37.804   0.793
 1526W        W73055   4.798  27.660   0.979
 1527W        W73056  44.709  40.154  13.941
 1528W        W73057  11.822  22.999  14.362
 1529W        W73058   9.582  25.522  11.567
 1530W        W73059  44.837  22.032   3.376
 1531W        W73060  13.093   1.781   1.901
 1532W        W73061   6.355   3.535  10.973
 1533W        W73062  42.543  36.601  14.995
 1534W        W73063  17.268  43.019  12.451
 1535W        W73064  22.027  39.864  13.903
 1536W        W73065   7.788  30.643   0.329
 1537W        W73066  29.101  40.845   1.845
 1538W        W73067  39.970  39.301   3.724
 1539W        W73068   4.773  39.001   4.707
 1540W        W73069   8.825  40.668   0.960
 1541W        W73070  22.994  29.990  14.858
 1542W        W73071  26.861   1.789   4.525
 1543W        W73072  26.180   4.372  11.086
 1544W        W73073  21.130   5.765   4.358
 1545W        W73074  39.982   1.326  13.887
 1546W        W73075  16.593  14.974  12.038
 1547W        W73076  43.800  14.228   2.706
 1548W        W73077   5.485  26.903  11.063
 1549W        W73078   5.374   9.889   4.493
 1550W        W73079  24.552  10.414  11.067
 1551W        W73080   6.626  42.846   3.808
 1552W        W73081  38.908   8.277  14.993
 1553W        W73082  18.184  25.513  12.106
 1554W        W73083  26.573  31.409   2.360
 1555W        W73084   3.634  15.879   0.499
 1556W        W73085  36.547  25.716   2.961
 1557W        W73086  41.979  43.893   3.355
 1558W        W73087  14.299   4.666  12.038
 1559W        W73088  12.162  10.364   4.153
 1560W        W73089  13.550   9.510   1.516
 1561W        W73090   2.419  25.412  11.982
 1562W        W73091  12.252  15.480   2.639
 1563W        W73092  25.678  38.805   3.862
 1564W        W73093  26.681   7.403   3.151
 1565W        W73094  38.245  27.652  13.101
 1566W        W73095  26.055  31.202   0.273
 1567W        W73096  35.799  21.401  14.563
 1568W        W73097  43.919  11.427  13.430
 1569W        W73098  19.793  11.848  13.990
 1570W        W73099   5.444  17.811  12.108
 1571W        W73100  41.874   1.411  10.722
 1572W        W73101  18.577  37.041  14.527
 1573W        W73102   3.792  10.176  13.843
 1574W        W73103  24.528  42.462  14.392
 1575W        W73104  13.764   8.858   4.540
 1576W        W73105  21.701   3.304  11.183
 1577W        W73106  26.520  36.139   2.700
 1578W        W73107  18.328  19.970   1.381
 1579W        W73108  22.096  31.640   0.744
 1580W        W73109  28.027  29.968  11.637
 1581W        W73110  18.280   4.670  13.846
 1582W        W73111  40.066  14.162   4.112
 1583W        W73112  20.093  26.532  11.128
 1584W        W73113  29.379  29.158   1.724
 1585W        W73114  38.804  34.190  12.422
 1586W        W73115  15.855   9.144  13.974
 1587W        W73116  37.959   9.754  13.775
 1588W        W73117  26.593   6.220   0.698
 1589W        W73118  42.283   1.888  13.304
 1590W        W73119  25.005  38.826   0.756
 1591W        W73120  22.808  11.208   0.555
 1592W        W73121  21.007  34.953   4.058
 1593W        W73122  41.239   6.860   2.213
 1594W        W73123  28.960  19.648   4.940
 1595W        W73124  31.117  16.720  13.659
 1596W        W73125  15.515   7.209   1.465
 1597W        W73126   5.706   4.704   2.690
 1598W        W73127   1.912  22.009   2.072
 1599W        W73128   0.983  42.743  13.889
 1600W        W73129  13.043  27.969  13.043
 1601W        W73130  23.560  17.841   1.074
 1602W        W73131  14.831   7.091  12.590
 1603W        W73132  24.935  24.692  11.863
 1604W        W73133  17.347  18.167  12.142
 1605W        W73134   9.699  14.597   4.311
 1606W        W73135   0.034  24.169  10.415
 1607W        W73136  14.059  20.048  11.186
 1608W        W73137  22.416  23.156  11.156
 1609W        W73138  41.294   2.749  13.312
 1610W        W73139  25.210  14.526   0.293
 1611W        W73140  38.805   9.704   0.260
 1612W        W73141  17.212  22.338   0.673
 1613W        W73142  40.222  10.796   1.196
 1614W        W73143  37.349  36.864   0.355
 1615W        W73144  17.046  32.354   1.372
 1616W        W73145  22.236  29.590   2.057
 1617W        W73146   9.242  19.470   2.704
 1618W        W73147   9.763  19.151   2.638
 1619W        W73148   8.501  32.133   5.271
 1620W        W73149  16.334  37.934   3.841
 1621W        W73150  43.279  43.250  14.523
 1622W        W73151  14.082  33.002  12.353
 1623W        W73152  11.259  40.017   3.382
 1624W        W73153   1.530  27.284  12.717
 1625W        W73154   0.357  29.401  13.510
 1626W        W73155  11.749  35.399  14.848
 1627W        W73156  14.554  18.220  12.551
 1628W        W73157   2.150   9.748   4.178
 1629W        W73158  36.951  31.506   2.275
 1630W        W73159  21.098   2.021   3.648
 1631W        W73160  39.530  19.286  11.168
 1632W        W73161  33.136  31.930  12.075
 1633W        W73162  18.407  41.734  14.497
 1634W        W73163  43.916  43.229   4.038
 1635W        W73164  28.062  18.489   3.333
 1636W        W73165  25.393  19.590  14.520
 1637W        W73166   1.316  21.136   3.564
 1638W        W73167  16.743   8.341  13.746
 1639W        W73168  27.471  31.833   4.164
 1640W        W73169  41.459  39.047   3.581
 1641W        W73170  12.901   0.427  13.902
 1642W        W73171  32.670  38.074  11.280
 1643W        W73172   3.455  31.635   4.963
 1644W        W73173  30.835  27.253  10.908
 1645W        W73174  15.120  18.795  12.827
 1646W        W73175  13.107  11.972  14.817
 1647W        W73176  28.027   0.752   2.392
 1648W        W73177  15.541   7.842   3.316
 1649W        W73178  39.456  12.541   4.436
 1650W        W73179  34.065  34.181  14.600
 1651W        W73180   5.599   2.889  12.459
 1652W        W73181  35.503  41.470   2.842
 1653W        W73182  25.081  44.292   3.044
 1654W        W73183   9.341   8.197  14.377
 1655W        W73184  18.744   8.119  11.267
 1656W        W73185  38.437  42.254   1.921
 1657W        W73186  21.826  16.239  10.660
 1658W        W73187   5.480  14.051   3.070
 1659W        W73188  22.533  36.050  12.936
 1660W        W73189  17.315   6.807  12.909
 1661W        W73190  17.764   1.297   2.867
 1662W        W73191   6.128  25.687   2.698
 1663W        W73192   6.376   3.471  10.461
 1664W        W73193  41.883   5.589   4.612
 1665W        W73194  26.836  36.716  12.514
 1666W        W73195  42.852  22.378   4.605
 1667W        W73196  32.638  27.080   1.046
 1668W        W73197   4.273  11.548  13.062
 1669W        W73198  42.837   3.275   0.471
 1670W        W73199   9.568   1.192  13.155
 1671W        W73200   5.310  27.479   4.105
 1672W        W73201  27.158  42.377  13.094
 1673W        W73202  13.593  42.781   4.628
 1674W        W73203  17.070  41.449   0.307
 1675W        W73204  12.231  18.951  10.912
 1676W        W73205  13.743   6.114  14.330
 1677W        W73206  44.958   1.142  13.007
 1678W        W73207   3.430   4.780  14.424
 1679W        W73208  11.144  20.254   1.795
 1680W        W73209  17.634  18.737   2.307
 1681W        W73210  15.497  41.417   4.139
 1682W        W73211  42.243  27.618   2.837
 1683W        W73212  19.057  41.345  12.199
 1684W        W73213   0.662   1.233  11.599
 1685W        W73214  28.226  25.655  13.422
 1686W        W73215   8.116  22.210   2.788
 1687W        W73216  36.458  17.098  12.705
 1688W        W73217  36.441  23.487   2.726
 1689W        W73218   9.612  40.587   0.222
 1690W        W73219  21.598   5.680   0.872
 1691W        W73220  41.828   6.458   3.177
 1692W        W73221  40.980   2.680   2.322
 1693W        W73222   2.235  43.984   2.197
 1694W        W73223  34.595  40.802   3.887
 1695W        W73224   2.286  27.434   0.404
 1696W        W73225  43.545   4.321  14.556
 1697W        W73226   8.666  20.174  13.742
 1698W        W73227  18.731  40.255   3.759
 1699W        W73228  30.013  33.352  11.415
 1700W        W73229  17.084  34.523   4.207
 1701W        W73230  22.298  30.397  14.101
 1702W        W73231  35.577  38.902   0.243
 1703W        W73232  37.166  26.183   0.885
 1704W        W73233  40.306  31.954   2.178
 1705W        W73234   7.811  22.530  12.437
 1706W        W73235  11.723  12.124   1.405
 1707W        W73236   6.638  19.323  11.049
 1708W        W73237  42.335  16.527  13.043
 1709W        W73238   6.299  24.760  12.085
 1710W        W73239  15.053  26.673   4.028
 1711W        W73240   3.726  24.235   3.589
 1712W        W73241  39.586  42.565  12.157
 1713W        W73242  13.334  17.207  14.479
 1714W        W73243  29.133  30.156   1.748
 1715W        W73244  39.800  15.550  12.308
 1716W        W73245  33.655  19.365  13.291
 1717W        W73246  26.053  32.218   0.415
 1718W        W73247  12.179  44.816   1.856
 1719W        W73248  13.177  38.415  10.579
 1720W        W73249  40.056  28.216   3.816
 1721W        W73250  13.718  33.357  12.512
 1722W        W73251  10.272   9.434   0.239
 1723W        W73252  18.202  10.835   0.022
 1724W        W73253  26.171  27.757  12.490
 1725W        W73254  40.909  10.778   0.441
 1726W        W73255  29.561  36.616  14.822
 1727W        W73256  15.725  41.172  10.525
 1728W        W73257  25.521  32.853  12.388
 1729W        W73258  17.315   5.357  13.862
 1730W        W73259   0.245   5.163  13.312
 1731W        W73260   5.037  29.604  14.018
 1732W        W73261   2.852  14.368   3.973
 1733W        W73262   2.299  18.615   1.107
 1734W        W73263   2.930  10.704  12.850
 1735W        W73264  13.552  13.268   0.378
 1736W        W73265  29.911  35.805  14.006
 1737W        W73266  44.594  43.197  13.818
 1738W        W73267  19.768  25.718  13.019
 1739W        W73268  28.386  37.233  13.363
 1740W        W73269  42.324  35.166  10.613
 1741W        W73270  19.187  26.264   1.274
 1742W        W73271  11.159  29.503  14.057
 1743W        W73272  41.070  12.056   0.834
 1744W        W73273  19.711  10.938  10.785
 1745W        W73274   3.295  34.443   1.634
 1746W        W73275  41.446  36.555  13.888
 1747W        W73276   8.930  27.451   2.659
 1748W        W73277  20.202  27.695   4.612
 1749W        W73278  37.499  16.789  13.060
 1750W        W73279  13.245   9.491   4.088
 1751W        W73280  35.384  11.227   3.903
 1752W        W73281  12.226   9.000   4.853
 1753W        W73282  25.575  15.235   3.649
 1754W        W73283  26.132  27.408  11.142
 1755W        W73284   9.324  21.537   1.735
 1756W        W73285  16.847  16.782   3.622
 1757W        W73286  42.450  24.493  14.062
 1758W        W73287   4.077  21.119   0.590
 1759W        W73288  36.062   0.102  14.404
 1760W        W73289  30.713  17.802  10.666
 1761W        W73290  27.614   2.808  13.550
 1762W        W73291  18.095  14.328   0.377
 1763W        W73292   0.820  29.877  11.618
 1764W        W73293  17.540  16.221  11.097
 1765W        W73294  30.842  28.634  14.336
 1766W        W73295  12.216  16.951   1.973
 1767W        W73296   1.772  37.880  14.399
 1768W        W73297  12.137  22.029   0.266
 1769W        W73298  30.391  33.596   3.962
 1770W        W73299  20.275  34.057   2.369
 1771W        W73300  15.326  15.718  10.742
 1772W        W73301  31.940  37.144  12.024
 1773W        W73302  44.761  41.044   2.952
 1774W        W73303  26.734  37.183  14.785
 1775W        W73304  43.292   3.175  14.902
 1776W        W73305  27.899  26.987  14.691
 1777W        W73306  33.540  27.042  12.000
 1778W        W73307  39.047  15.683  14.357
 1779W        W73308  43.577  27.237   0.919
 1780W        W73309  22.483   6.175  12.007
 1781W        W73310  13.793  14.336  13.046
 1782W        W73311  33.166  25.498  14.042
 1783W        W73312  32.870   9.411  12.980
 1784W        W73313  10.844   3.345  13.108
 1785W        W73314  42.342  31.109  11.960
 1786W        W73315   1.223  22.753   4.146
 1787W        W73316   2.341   0.791  13.486
 1788W        W73317  38.532  39.310   1.770
 1789W        W73318  30.919  41.762  12.686
 1790W        W73319  43.728  21.248   3.657
 1791W        W73320  10.111  34.407   5.012
 1792W        W73321  16.040   2.314  11.611
 1793W        W73322   2.239  12.019   1.911
 1794W        W73323  22.788  21.039  12.442
 1795W        W73324  21.520   9.755   3.232
 1796W        W73325  26.475  23.171  12.936
 1797W        W73326  18.210  10.159   0.740
 1798W        W73327   4.454  44.098  13.623
 1799W        W73328  37.674  19.250   2.140
 1800W        W73329  31.026  41.626  13.189
 1801W        W73330  36.011  18.352  11.042
 1802W        W73331  39.488   4.242   2.155
 1803W        W73332  30.152   3.683   1.270
 1804W        W73333  36.565  36.534  12.434
 1805W        W73334  30.967  36.114   1.504
 1806W        W73335  35.473  28.479  12.186
 1807W        W73336   6.631  11.064   0.348
 1808W        W73337   6.885   4.982   2.277
 1809W        W73338  17.623  35.478  11.344
 1810W        W73339   6.465  14.351  14.254
 1811W        W73340  32.061  20.297   3.596
 1812W        W73341  19.778  13.847  13.807
 1813W        W73342  10.711   3.480   2.666
 1814W        W73343  21.175  36.187  14.940
 1815W        W73344  25.644  18.970   2.186
 1816W        W73345  43.496  14.081   0.764
 1817W        W73346  19.777  44.406   0.515
 1818W        W73347  30.016  28.116  12.872
 1819W        W73348  23.530  19.331   2.736
 1820W        W73349   0.084   1.505  10.755
 1821W        W73350  33.353  19.702   5.022
 1822W        W73351  19.760   8.350   4.041
 1823W        W73352   2.348   7.678  11.852
 1824W        W73353  42.468  18.088   1.334
 1825W        W73354  11.900  34.067   3.221
 1826W        W73355  23.246  14.727   0.238
 1827W        W73356  13.640   8.727  12.080
 1828W        W73357  23.032  11.668   2.230
 1829W        W73358  13.725  25.929  14.849
 1830W        W73359  12.095  12.333   1.768
 1831W        W73360  37.995  42.346   2.700
 1832W        W73361  26.914  14.662  14.105
 1833W        W73362   6.419  17.018   2.691
 1834W        W73363   5.337  16.298   2.305
 1835W        W73364  36.969  28.038   3.697
 1836W        W73365  16.767  24.948   3.347
 1837W        W73366   8.408   1.750   4.772
 1838W        W73367   4.532  39.801  13.007
 1839W        W73368  21.135  20.991  12.750
 1840W        W73369  42.621   2.991   1.209
 1841W        W73370  27.692   6.777  12.430
 1842W        W73371   4.178  42.953   2.907
 1843W        W73372  23.692  17.779   4.563
 1844W        W73373   9.361  29.044  12.934
 1845W        W73374  44.250   2.735  11.500
 1846W        W73375  27.352  11.898  11.948
 1847W        W73376  17.638  24.334   0.152
 1848W        W73377  39.831  34.443   3.605
 1849W        W73378   7.930   6.809  12.861
 1850W        W73379  35.211  20.306  14.903
 1851W        W73380  17.171  15.034  14.503
 1852W        W73381  40.799  38.992  14.971
 1853W        W73382  31.067  22.690  13.140
 1854W        W73383  15.670  17.882   2.952
 1855W        W73384  32.011  26.606   4.129
 1856W        W73385  23.642  25.706  10.676
 1857W        W73386  36.194  29.746   4.088
 1858W        W73387  11.590  19.588  12.459
 1859W        W73388  40.342   6.013  13.921
 1860W        W73389  43.152   8.993   1.779
 1861W        W73390   8.752  13.932   0.802
 1862W        W73391   5.285  36.957  11.538
 1863W        W73392   5.784  20.896  10.856
 1864W        W73393  34.948  42.606  12.073
 1865W        W73394  42.832  13.155   5.027
 1866W        W73395  36.445  37.119   0.467
 1867W        W73396  20.804  32.099  12.985
 1868W        W73397  16.473   1.698   2.302
 1869W        W73398   3.360  23.820   3.674
 1870W        W73399   0.835  18.895  12.611
 1871W        W73400  12.611  13.243   4.005
 1872W        W73401  29.072  22.650   4.424
 1873W        W73402  18.262   7.336  12.364
 1874W        W73403  16.164  12.618  14.786
 1875W        W73404   2.714  16.448  11.274
 1876W        W73405   1.365   4.441   1.581
 1877W        W73406  31.959  20.675  14.795
 1878W        W73407  11.875   1.776   2.883
 1879W        W73408  42.031  35.299   3.634
 1880W        W73409  43.599  16.270   0.452
 1881W        W73410  14.874   2.749  11.118
 1882W        W73411  24.025  20.787  12.924
 1883W        W73412  12.093   6.651   0.361
 1884W        W73413  15.115  32.137   1.331
 1885W        W73414   2.725   1.889   4.262
 1886W        W73415  40.364  18.772  11.663
 1887W        W73416  35.967  19.592   3.080
 1888W        W73417   4.510  24.039   3.265
 1889W        W73418  37.646  43.868  14.133
 1890W        W73419   1.428  22.923   2.604
 1891W        W73420   9.302  37.851   0.927
 1892W        W73421  20.028  29.496  13.894
 1893W        W73422  32.839  33.525   1.384
 1894W        W73423  34.091  13.122  11.450
 1895W        W73424  14.259  12.661  13.894
 1896W        W73425  16.689   6.134   4.133
 1897W        W73426  22.974   6.199  14.967
 1898W        W73427  10.073  16.382   4.229
 1899W        W73428   6.922  10.370   4.844
 1900W        W73429  14.213  34.570   2.900
 1901W        W73430  15.491  28.135   1.929
 1902W        W73431  37.386  34.649   3.270
 1903W        W73432  34.916  14.271   4.946
 1904W        W73433  28.141  19.500  13.410
 1905W        W73434  30.598  16.329   1.273
 1906W        W73435  16.194  40.318  13.215
 1907W        W73436  15.836  36.184  12.257
 1908W        W73437   5.260   8.460   1.751
 1909W        W73438   0.358  16.822   1.493
 1910W        W73439  35.276   5.536   4.011
 1911W        W73440  31.040  40.830   4.108
 1912W        W73441  31.699  27.030   4.123
 1913W        W73442  34.388  16.789   4.747
 1914W        W73443  31.176  10.870  13.474
 1915W        W73444  18.214   0.951   0.387
 1916W        W73445  13.637  32.093   3.338
 1917W        W73446  30.922  44.674  11.191
 1918W        W73447   5.960   7.310  13.434
 1919W        W73448  20.533  11.701  10.681
 1920W        W73449  15.927   5.402   3.887
 1921W        W73450  11.929  31.056  14.863
 1922W        W73451  12.730   2.980   4.140
 1923W        W73452  28.907  44.785  13.381
 1924W        W73453  36.381  26.048  10.908
 1925W        W73454  33.827  14.162  12.883
 1926W        W73455   0.030   6.379   4.687
 1927W        W73456  10.869   8.162  13.467
 1928W        W73457  18.554  16.493   3.217
 1929W        W73458   2.520  33.891   3.172
 1930W        W73459  16.524  38.984   3.161
 1931W        W73460  19.701  41.741   2.167
 1932W        W73461  10.903  11.957   3.745
 1933W        W73462  26.362  39.795   4.884
 1934W        W73463  13.075   1.528  13.527
 1935W        W73464   7.443  36.037  12.087
 1936W        W73465  12.227  39.816   3.784
 1937W        W73466  35.071   2.162   0.042
 1938W        W73467  43.952   9.378  11.171
 1939W        W73468  41.084  34.370  13.526
 1940W        W73469   1.006   5.838   1.203
 1941W        W73470  24.968  33.641  14.341
 1942W        W73471  40.509   4.839  13.330
 1943W        W73472  10.338  35.291   5.048
 1944W        W73473  26.679  35.466   4.092
 1945W        W73474   6.277   8.400   3.673
 1946W        W73475  33.887   1.397   1.465
 1947W        W73476  42.109  35.420   2.776
 1948W        W73477  24.235  22.114   0.357
 1949W        W73478  22.021  15.134   2.357
 1950W        W73479  10.181   8.914   0.254
 1951W        W73480  39.625  15.548   5.071
 1952W        W73481  43.023  10.330   1.840
 1953W        W73482   5.176  34.592   3.091
 1954W        W73483  12.149   7.973   4.531
 1955W        W73484  32.454  27.144  14.040
 1956W        W73485   4.174  16.211  12.874
 1957W        W73486  19.132   0.821   0.801
 1958W        W73487  44.819  25.149  12.415
 1959W        W73488  27.183  31.910   3.159
 1960W        W73489   5.936  17.758  11.978
 1961W        W73490  31.407  36.826   0.773
 1962W        W73491  32.700  27.264  14.492
 1963W        W73492  44.735   8.343  12.512
 1964W        W73493  35.964  21.591  10.794
 1965W        W73494   3.721  14.071  14.790
 1966W        W73495   7.390  35.863   2.236
 1967W        W73496  27.579  33.294   4.144
 1968W        W73497   2.543   5.046  12.275
 1969W        W73498  30.288   0.820  11.155
 1970W        W73499   6.868  40.039  11.903
 1971W        W73500  41.186  36.820  10.760
 1972W        W73501  12.194  33.111   1.510
 1973W        W73502   7.558  23.930   3.665
 1974W        W73503  23.013  32.421   4.460
 1975W        W73504   4.664  29.198  10.178
 1976W        W73505   8.442  31.443   2.216
 1977W        W73506  24.083  20.965   1.684
 1978W        W73507   6.159  34.234   4.094
 1979W        W73508  14.801  12.260   2.936
 1980W        W73509  11.832  19.404  14.752
 1981W        W73510  12.760  33.118   2.242
 1982W        W73511  24.574  18.833  11.627
 1983W        W73512  38.582  12.906   1.638
 1984W        W73513  26.115  15.686  12.188
 1985W        W73514  21.909  29.999  10.725
 1986W        W73515  20.186   6.182   1.393
 1987W        W73516   0.346  22.954  10.631
 1988W        W73517  26.081  34.456   3.900
 1989W        W73518  39.558  26.990  10.694
 1990W        W73519  31.498   5.369   2.784
 1991W        W73520  37.218  18.145  12.986
 1992W        W73521  31.537  25.503   1.333
 1993W        W73522  42.451  12.885   3.635
 1994W        W73523  33.582  27.604   3.579
 1995W        W73524  16.023  14.636  11.232
 1996W        W73525  20.534  39.468  12.290
 1997W        W73526   7.980  30.936  11.182
 1998W        W73527  18.005  34.612   4.341
 1999W        W73528   3.824   7.024   0.781
 2000W        W73529  21.673  37.107  12.883
 2001W        W73530   4.820  24.863  13.837
 2002W        W73531  14.475  28.019   5.024
 2003W        W73532  37.853  32.969  12.970
 2004W        W73533  26.245   1.869   3.882
 2005W        W73534  13.337  44.050   4.202
 2006W        W73535  33.448   5.233  12.510
 2007W        W73536   0.911   0.572   1.439
 2008W        W73537  21.237  22.145  12.202
 2009W        W73538  37.767  27.504   0.788
 2010W        W73539  11.473  31.608   2.264
 2011W        W73540  32.222  16.550   4.070
 2012W        W73541  29.888  40.979   2.560
 2013W        W73542  44.211  21.794   4.131
 2014W        W73543  34.099   7.930  14.873
 2015W        W73544  15.685  38.785  11.150
 2016W        W73545   5.690   3.360  12.995
 2017W        W73546  28.220  10.590  10.401
 2018W        W73547  18.294  38.280  13.416
 2019W        W73548  38.143  24.021   2.220
 2020W        W73549  44.337  13.094  11.500
 2021W        W73550  24.735  24.490  13.511
 2022W        W73551  27.693  33.857  12.638
 2023W        W73552  24.256  41.423  12.496
 2024W        W73553  25.652  17.052  10.324
 2025W        W73554  34.655  42.641  14.742
 2026W        W73555  11.577  35.077   1.814
 2027W        W73556  17.256  11.325   3.431
 2028W        W73557  17.517  12.600  14.665
 2029W        W73558  16.205  26.011   0.133
 2030W        W73559   5.936  21.480  12.194
 2031W        W73560  11.690  10.691   4.173
 2032W        W73561  38.912   9.282  13.100
 2033W        W73562  40.533  32.458  12.821
 2034W        W73563   6.818  29.803  11.484
 2035W        W73564  22.476   7.664   3.168
 2036W        W73565  38.977  10.668   0.468
 2037W        W73566  41.887  17.750   0.359
 2038W        W73567  15.047  18.422   0.298
 2039W        W73568  32.458  27.575   4.554
 2040W        W73569  23.686  25.223   3.823
 2041W        W73570  44.127  24.286   4.946
 2042W        W73571  19.662  40.239   2.161
 2043W        W73572  38.989   2.609   3.714
 2044W        W73573   7.803  10.892  11.360
 2045W        W73574  39.059  13.082  10.938
 2046W        W73575  32.569  39.980   1.709
 2047W        W73576  18.470  10.441  14.794
 2048W        W73577  28.598  42.071   4.259
 2049W        W73578  33.927  42.497  11.902
 2050W        W73579   5.058  10.153   5.414
 2051W        W73580  33.502   7.473   0.402
 2052W        W73581  29.699  30.055   0.945
 2053W        W73582  18.499  27.092   3.680
 2054W        W73583  25.442  28.891  10.681
 2055W        W73584  43.384  40.447   4.715
 2056W        W73585  40.388  41.852  10.904
 2057W        W73586   3.835  13.083  11.538
 2058W        W73587  11.554  12.109   0.669
 2059W        W73588  16.316  38.641   2.800
 2060W        W73589   9.544   4.517  12.519
 2061W        W73590  18.580   0.515   3.808
 2062W        W73591   4.208  41.169  11.322
 2063W        W73592  16.833  15.545   0.784
 2064W        W73593  28.831  44.217   2.675
 2065W        W73594  16.730  34.656  14.223
 2066W        W73595   2.316  19.514  14.547
 2067W        W73596  25.046  18.650  10.685
 2068W        W73597   3.873  17.537   2.231
 2069W        W73598  34.434  14.011  10.620
 2070W        W73599   9.640   1.206  14.352
 2071W        W73600  32.729  22.637  14.511
 2072W        W73601  29.551  37.083  12.983
 2073W        W73602   0.995  32.311   2.913
 2074W        W73603   6.225  11.587   4.484
 2075W        W73604  40.352   8.911   3.609
 2076W        W73605   9.860  20.669   1.877
 2077W        W73606   8.163  26.643   2.234
 2078W        W73607   1.396  22.041  11.104
 2079W        W73608  13.122  37.682   2.798
 2080W        W73609   2.280  16.603   2.338
 2081W        W73610  15.244  35.813   0.756
 2082W        W73611  28.297   8.868  11.897
 2083W        W73612  35.938  33.027   4.097
 2084W        W73613  16.262  21.064  13.242
 2085W        W73614  40.409   4.858  11.227
 2086W        W73615  36.890  31.384   3.319
 2087W        W73616  25.088  34.901  10.752
 2088W        W73617   4.653  13.370  11.080
 2089W        W73618  29.030  25.377  12.587
 2090W        W73619  38.422   1.078   0.244
 2091W        W73620  32.513  19.139   3.892
 2092W        W73621  44.265  43.928   2.792
 2093W        W73622  18.299   8.955   3.883
 2094W        W73623  16.046   9.003   4.173
 2095W        W73624  12.285  11.133  14.468
 2096W        W73625  14.144  36.308   4.018
 2097W        W73626  11.706  42.817  14.006
 2098W        W73627  15.756   9.108   1.726
 2099W        W73628  25.697  19.617  11.162
 2100W        W73629  11.352  24.982   0.054
 2101W        W73630  37.584  38.020   2.176
 2102W        W73631   1.857  29.066   0.754
 2103W        W73632   5.312   5.500  13.680
 2104W        W73633  22.806  42.877  10.572
 2105W        W73634  44.008  33.604   5.345
 2106W        W73635  37.565  37.532   2.114
 2107W        W73636   1.181  30.965  10.939
 2108W        W73637  43.041   0.794   0.422
 2109W        W73638  26.941  14.055  14.939
 2110W        W73639  33.883  19.210  12.018
 2111W        W73640  18.105  36.834   3.598
 2112W        W73641  36.138  43.960  12.996
 2113W        W73642  20.254  26.138  11.949
 2114W        W73643  25.703  40.373   2.339
 2115W        W73644  41.519  36.426  14.388
 2116W        W73645   0.973  18.056  10.966
 2117W        W73646  30.823  36.514   4.298
 2118W        W73647  26.244  44.457   2.625
 2119W        W73648  37.990   3.035  13.726
 2120W        W73649   4.218  43.490   4.489
 2121W        W73650   4.910  16.525   2.703
 2122W        W73651  36.732  23.655  14.007
 2123W        W73652  26.053  34.537   4.415
 2124W        W73653  33.895  17.840  12.852
 2125W        W73654  10.900  25.529  11.625
 2126W        W73655  12.584  10.967   4.572
 2127W        W73656  12.756  36.190  12.101
 2128W        W73657  23.526  18.996  14.984
 2129W        W73658  27.709  41.331   3.408
 2130W        W73659   6.237  10.260  13.856
 2131W        W73660  30.878   9.826   0.413
 2132W        W73661  24.898  43.060   0.608
 2133W        W73662  24.742  31.279  14.419
 2134W        W73663   8.773  13.572  10.907
 2135W        W73664  41.747  25.223   1.322
 2136W        W73665  36.302  22.745   2.340
 2137W        W73666  22.212  30.214  13.462
 2138W        W73667   0.303  21.078  11.600
 2139W        W73668  25.008   0.093  11.069
 2140W        W73669  32.858  30.405   4.850
 2141W        W73670   0.933   8.826   2.249
 2142W        W73671  10.694   7.945  11.496
 2143W        W73672  22.050  19.338  11.889
 2144W        W73673  20.425   4.439  12.302
 2145W        W73674  38.603  40.288   4.529
 2146W        W73675  15.847  41.091  11.671
 2147W        W73676  16.600  35.134   3.771
 2148W        W73677  25.883  30.121  11.094
 2149W        W73678  36.994  39.789   1.353
 2150W        W73679   8.534   2.310   4.108
 2151W        W73680   4.189  16.488   5.053
 2152W        W73681  30.009  19.275  10.490
 2153W        W73682  14.178  38.745   3.273
 2154W        W73683  20.264   4.407   0.732
 2155W        W73684  26.136  28.943   0.050
 2156W        W73685  30.420   0.286   3.250
 2157W        W73686   2.948  15.785  10.691
 2158W        W73687  23.076  33.120  14.820
 2159W        W73688   0.298  35.507  13.805
 2160W        W73689  41.753  23.973   2.292
 2161W        W73690  27.939  40.001   1.725
 2162W        W73691   9.238  19.215  13.063
 2163W        W73692  11.263   4.768  14.081
 2164W        W73693  13.556  21.803   1.841
 2165W        W73694   1.986  30.833  13.879
 2166W        W73695  34.435  28.404   1.686
 2167W        W73696  22.105  24.562  11.077
 2168W        W73697   7.352  17.114  11.114
 2169W        W73698  11.638  24.123   4.174
 2170W        W73699  30.749   8.891  11.403
 2171W        W73700  37.645  32.501  13.227
 2172W        W73701  14.404  29.520  12.964
 2173W        W73702  42.078   9.174   3.635
 2174W        W73703  41.862   9.024  11.570
 2175W        W73704  31.698   8.340   4.724
 2176W        W73705  35.325  32.595  10.727
 2177W        W73706   3.923   1.780   0.757
 2178W        W73707   3.255  13.678   4.274
 2179W        W73708  37.887  29.085  14.822
 2180W        W73709  40.184  38.114  11.526
 2181W        W73710  15.541   1.416  11.629
 2182W        W73711   4.736  24.176   4.687
 2183W        W73712   6.705  15.017  13.962
 2184W        W73713  33.939   6.156   0.372
 2185W        W73714  14.355  21.014  12.253
 2186W        W73715  32.962  23.139   5.435
 2187W        W73716  44.249  18.437   2.740
 2188W        W73717  41.004  42.980   0.973
 2189W        W73718  38.662  30.637   0.411
 2190W        W73719  23.985  18.625  13.092
 2191W        W73720   8.255  44.486   4.494
 2192W        W73721   9.960  19.161  11.143
 2193W        W73722  37.999  39.931   3.823
 2194W        W73723  43.921   2.127   4.166
 2195W        W73724  42.821   4.757   3.140
 2196W        W73725  39.031  39.757   3.780
 2197W        W73726  21.414  43.496  12.038
 2198W        W73727  42.408  40.447  12.061
 2199W        W73728  25.890  38.332  11.598
 2200W        W73729  20.453  23.635   0.377
 2201W        W73730   9.162  25.381   4.123
 2202W        W73731  16.615  31.070  13.515
 2203W        W73732  24.235  18.266   3.295
 2204W        W73733  27.636  20.262   1.470
 2205W        W73734  28.574  18.585   1.450
 2206W        W73735  36.088  44.298   1.893
 2207W        W73736  29.302  25.088  14.717
 2208W        W73737  30.194  28.645   0.326
 2209W        W73738   6.272  22.409  14.393
 2210W        W73739   7.632  15.233  11.741
 2211W        W73740  20.557  11.833   0.341
 2212W        W73741   8.373  36.513   4.622
 2213W        W73742  13.357   1.204  11.211
 2214W        W73743  19.818  36.609   5.105
 2215W        W73744  10.622  23.618   2.134
 2216W        W73745  37.859  34.046  10.367
 2217W        W73746  23.633  19.852   2.724
 2218W        W73747   2.121  40.350   1.682
 2219W        W73748  32.404  24.577  13.286
 2220W        W73749   7.650  37.818   3.014
 2221W        W73750  41.091  37.609  14.931
 2222W        W73751  16.791  36.595  11.168
 2223W        W73752   7.646  42.987  13.467
 2224W        W73753  19.790  25.187   0.403
 2225W        W73754  27.271  15.088   4.589
 2226W        W73755   7.786  40.273  10.602
 2227W        W73756  39.283  43.359  12.195
 2228W        W73757  10.002  27.000   1.472
 2229W        W73758  17.591   6.719   3.131
 2230W        W73759  10.244  20.028  12.813
 2231W        W73760   5.880   4.986   0.262
 2232W        W73761  13.566  17.370  12.024
 2233W        W73762  17.422  31.595   4.486
 2234W        W73763  16.152  19.596   1.670
 2235W        W73764  23.021  17.619   2.380
 2236W        W73765  15.863  44.239   2.286
 2237W        W73766  40.072  22.661  12.023
 2238W        W73767   1.009  19.931   1.933
 2239W        W73768  18.634  15.983   3.234
 2240W        W73769  31.596   7.528  12.980
 2241W        W73770  11.250  23.047   0.831
 2242W        W73771  39.850  26.239  14.735
 2243W        W73772  35.569  34.682  12.904
 2244W        W73773   0.707  27.670  12.824
 2245W        W73774  31.857   6.401   1.658
 2246W        W73775  20.854   7.385   1.388
 2247W        W73776  22.120  13.708  10.579
 2248W        W73777  41.595  10.764   4.600
 2249W        W73778  37.713  38.496   1.509
 2250W        W73779  19.146  10.859  12.930
 2251W        W73780  16.506   7.373  11.983
 2252W        W73781  23.283  20.633  14.379
 2253W        W73782  18.678  34.732   4.107
 2254W        W73783  22.926  41.499   2.867
 2255W        W73784  15.340  11.316  11.590
 2256W        W73785  39.404  15.035  14.831
 2257W        W73786  44.928  33.929   0.077
 2258W        W73787  31.150   8.282  14.016
 2259W        W73788  26.611  32.331  14.346
 2260W        W73789   5.180  41.026  11.065
 2261W        W73790  25.749   8.343  11.121
 2262W        W73791   8.870   4.861  14.857
 2263W        W73792  13.181   6.940  12.789
 2264W        W73793  27.236   5.956  12.974
 2265W        W73794  35.610  40.190  11.280
 2266W        W73795  29.028  21.557  12.113
 2267W        W73796  14.194  26.693  10.724
 2268W        W73797  16.117  13.584   1.598
 2269W        W73798   7.468  38.931   3.535
 2270W        W73799  20.042  22.778   0.841
 2271W        W73800   1.902   9.734   4.676
 2272W        W73801  17.918  38.638  13.367
 2273W        W73802  18.908  43.848  10.970
 2274W        W73803  42.944  28.148   4.525
 2275W        W73804  31.353   8.248   2.042
 2276W        W73805  23.614  36.980   2.679
 2277W        W73806  42.662  14.283  13.570
 2278W        W73807   5.818  37.614  13.495
 2279W        W73808  44.780  34.019  13.564
 2280W        W73809  12.299  36.311  10.848
 2281W        W73810  26.438   7.852  14.193
 2282W        W73811  31.904  16.465  12.540
 2283W        W73812  23.282   5.180   1.365
 2284W        W73813  24.185  28.519   4.153
 2285W        W73814  35.083  28.536  13.404
 2286W        W73815  28.668  30.273  13.061
 2287W        W73816  38.829  44.698  13.522
 2288W        W73817  21.809   8.902   2.326
 2289W        W73818  34.120  15.622   0.293
 2290W        W73819  20.021   5.769  12.427
 2291W        W73820   6.863  16.804  13.205
 2292W        W73821  19.453   9.162   4.614
 2293W        W73822  40.451  32.011  14.839
 2294W        W73823  15.493   1.493  12.496
 2295W        W73824  11.766   8.299   2.707
 2296W        W73825  17.584  27.838   9.845
 2297W        W73826  33.071   4.476   1.817
 2298W        W73827  38.539  13.435   0.010
 2299W        W73828  38.891  32.680  10.686
 2300W        W73829  40.415  17.832  11.118
 2301W        W73830   6.997  28.066   4.596
 2302W        W73831  17.703   2.706   3.303
 2303W        W73832  36.063  22.303  12.661
 2304W        W73833  23.005  33.840  11.194
 2305W        W73834  42.740  32.891   1.694
 2306W        W73835  18.220  34.580  12.019
 2307W        W73836  14.012  41.658   2.758
 2308W        W73837   3.948   1.245   0.762
 2309W        W73838  25.672  13.334   3.793
 2310W        W73839  28.845  38.503  12.962
 2311W        W73840   4.823  15.326   3.267
 2312W        W73841  22.044  22.926  10.890
 2313W        W73842  27.066   2.253   1.412
 2314W        W73843   6.663  16.250   0.331
 2315W        W73844  21.287  19.145  14.730
 2316W        W73845   1.485  27.574  13.952
 2317W        W73846  20.143  28.473  13.754
 2318W        W73847  27.496  34.741   4.962
 2319W        W73848  26.293  14.563   3.721
 2320W        W73849  23.940  37.330  10.550
 2321W        W73850  30.412  10.206   0.732
 2322W        W73851  32.121  22.083  14.711
 2323W        W73852  10.410  16.508  10.934
 2324W        W73853  13.682  19.722  13.304
 2325W        W73854  30.674   3.033  11.541
 2326W        W73855  39.554  33.855  13.642
 2327W        W73856  42.923  10.854  14.035
 2328W        W73857   3.981  37.525   4.475
 2329W        W73858  19.500   6.145  10.788
 2330W        W73859  25.293  29.485   4.160
 2331W        W73860  44.436   5.810   0.539
 2332W        W73861  36.916   4.638   2.367
 2333W        W73862   3.371   1.669   3.105
 2334W        W73863  22.627  33.055   3.778
 2335W        W73864  28.676  19.091  12.876
 2336W        W73865  11.830  43.319   3.324
 2337W        W73866   0.405  17.268  12.327
 2338W        W73867  34.155  17.071   3.621
 2339W        W73868  35.548  32.149   0.049
 2340W        W73869  42.065  22.662   4.620
 2341W        W73870  10.649   2.918   1.193
 2342W        W73871   5.481  26.403   0.242
 2343W        W73872  35.525   8.413   2.415
 2344W        W73873   8.819  18.831   0.771
 2345W        W73874  27.618  11.700   3.865
 2346W        W73875   1.351  27.800  14.463
 2347W        W73876   5.712   8.285   0.039
 2348W        W73877  12.376  32.047  10.347
 2349W        W73878  11.444  14.170   4.171
 2350W        W73879  27.710   6.391   3.380
 2351W        W73880  21.271  39.969   0.996
 2352W        W73881  33.301   5.340  14.891
 2353W        W73882  28.372  29.866   3.354
 2354W        W73883  21.267  31.733  13.553
 2355W        W73884  20.989  19.690   2.377
 2356W        W73885  28.003  23.111   2.256
 2357W        W73886  30.380  11.713  11.625
 2358W        W73887  31.603  35.493  13.960
 2359W        W73888  15.037   3.321   0.766
 2360W        W73889  31.072  30.039   4.188
 2361W        W73890  42.792   8.849   0.024
 2362W        W73891  27.253  24.360   2.149
 2363W        W73892  16.932  28.169   0.531
 2364W        W73893   9.289  27.534  14.509
 2365W        W73894  39.602   7.348  11.040
 2366W        W73895   9.798  27.965   2.995
 2367W        W73896  41.729   8.842   4.224
 2368W        W73897  25.745   5.320  13.831
 2369W        W73898  26.912  38.097  13.857
 2370W        W73899  28.195  19.199  13.007
 2371W        W73900  23.651  12.662  11.994
 2372W        W73901  43.286  23.769  13.105
 2373W        W73902  21.203  43.030  11.228
 2374W        W73903  41.542  14.230   3.222
 2375W        W73904  10.732   5.320   1.484
 2376W        W73905  18.615  41.734   0.264
 2377W        W73906   4.188  29.219  13.950
 2378W        W73907  13.724   8.178  12.909
 2379W        W73908  18.159  33.001   2.363
 2380W        W73909  39.269  17.552  13.380
 2381W        W73910   1.159  29.074   3.849
 2382W        W73911  30.007  39.046  12.528
 2383W        W73912  44.830  20.815  14.765
 2384W        W73913   6.906  25.475   0.224
 2385W        W73914   2.375  32.882   4.061
 2386W        W73915  29.465  20.081   4.888
 2387W        W73916  20.171  28.661   3.266
 2388W        W73917  37.837   9.198   0.003
 2389W        W73918  28.228   0.370   4.236
 2390W        W73919   4.876   6.183  14.854
 2391W        W73920  38.600  11.086   2.311
 2392W        W73921   1.765  44.011  12.918
 2393W        W73922  35.039  23.625   1.332
 2394W        W73923   2.765  43.274  14.035
 2395W        W73924  13.480  11.370  12.090
 2396W        W73925  22.185  38.265  13.986
 2397W        W73926   3.658   3.353   2.414
 2398W        W73927   6.466  24.571   4.967
 2399W        W73928   0.373  23.301   3.166
 2400W        W73929  33.348  27.394   4.011
 2401W        W73930  34.031  37.659  14.573
 2402W        W73931  20.797  22.592   1.272
 2403W        W73932   8.471  38.796   1.676
 2404W        W73933  20.354   8.762  14.380
 2405W        W73934  14.167  39.941   2.294
 2406W        W73935  36.880   3.536   4.771
 2407W        W73936  31.696  27.541  13.612
 2408W        W73937  14.703  10.414  13.044
 2409W        W73938  29.980  21.664  14.508
 2410W        W73939  12.393  17.540  13.546
 2411W        W73940  41.316  10.162  12.757
 2412W        W73941   6.758  21.165   2.406
 2413W        W73942   9.190  25.848   4.875
 2414W        W73943  27.989  34.721  12.623
 2415W        W73944   4.831  28.575   0.605
 2416W        W73945  42.790  30.055   4.564
 2417W        W73946  28.061   0.081   3.818
 2418W        W73947  22.190  28.497  12.625
 2419W        W73948  22.465  34.180   3.682
 2420W        W73949  19.036  16.108  13.958
 2421W        W73950  33.258  41.462   1.189
 2422W        W73951  29.645  20.143   2.389
 2423W        W73952  23.513  43.105   2.821
 2424W        W73953  41.314  32.747   2.896
 2425W        W73954  41.352  23.728   2.518
 2426W        W73955  38.293  35.356  12.901
 2427W        W73956  35.339   5.818  13.843
 2428W        W73957  41.054  37.430   1.920
 2429W        W73958  16.748  28.490  11.105
 2430W        W73959  37.087  33.221   2.746
 2431W        W73960  36.404  30.950  14.718
 2432W        W73961  11.900   4.795   3.690
 2433W        W73962  28.493  30.868  12.258
 2434W        W73963  27.047  33.432  12.190
 2435W        W73964  34.573  28.916  14.718
 2436W        W73965  15.121  10.903   4.536
 2437W        W73966   6.719  38.422   2.796
 2438W        W73967   4.780  21.106   4.988
 2439W        W73968   1.067  35.857  12.633
 2440W        W73969  36.940  24.251  14.888
 2441W        W73970  33.907  21.355  10.679
 2442W        W73971   2.005  12.897   1.934
 2443W        W73972  25.425  14.742  13.881
 2444W        W73973  10.755  31.778  13.710
 2445W        W73974  24.847  16.000  11.227
 2446W        W73975  21.259   2.394   3.333
 2447W        W73976  17.422   4.248   4.224
 2448W        W73977   2.790  11.702   2.471
 2449W        W73978  25.739  15.989   1.650
 2450W        W73979  36.161  23.014  13.650
 2451W        W73980  20.615  40.922   5.060
 2452W        W73981  32.697  27.909   3.136
 2453W        W73982  40.949  19.712   1.874
 2454W        W73983  40.766   7.895  12.056
 2455W        W73984  25.423   1.987   3.732
 2456W        W73985  25.088  27.702   1.793
 2457W        W73986  23.635   1.328  13.607
 2458W        W73987  34.494  26.730   4.636
 2459W        W73988  38.519  27.740  14.400
 2460W        W73989  12.398   2.206   1.212
 2461W        W73990   4.025   0.295  10.469
 2462W        W73991   7.190  38.512  12.949
 2463W        W73992  33.655  34.940  14.948
 2464W        W73993  29.648  44.506   3.690
 2465W        W73994  11.909  25.471  11.500
 2466W        W73995  11.699  34.947  10.755
 2467W        W73996  22.457  10.788  14.845
 2468W        W73997  29.194  11.289   2.224
 2469W        W73998  19.091   3.341   3.685
 2470W        W73999  13.242  27.830  11.471
 2471W        W74000  26.547  30.460   0.838
 2472W        W74001  37.531   2.315   1.364
 2473W        W74002  25.927   2.957   5.108
 2474W        W74003  21.725  27.051  12.939
 2475W        W74004   0.867  40.176   0.783
 2476W        W74005  13.901  29.892  10.788
 2477W        W74006  16.694  34.926   4.252
 2478W        W74007  43.849  26.811  10.754
 2479W        W74008  15.176  43.528  14.428
 2480W        W74009  43.885  12.570  12.122
 2481W        W74010  11.334  28.888   2.159
 2482W        W74011  22.138  32.134   4.081
 2483W        W74012  22.210  26.845   1.241
 2484W        W74013   6.188  30.665  13.861
 2485W        W74014   3.238   2.733   3.863
 2486W        W74015  16.140  41.778  10.603
 2487W        W74016   2.531   6.647   0.329
 2488W        W74017  37.943  43.990  12.938
 2489W        W74018  19.813  42.932   0.845
 2490W        W74019  34.174  21.278   3.138
 2491W        W74020  16.051  42.450   2.711
 2492W        W74021  41.731  18.093  11.774
 2493W        W74022  18.212  16.072   2.312
 2494W        W74023  25.437  38.484  12.905
 2495W        W74024  23.947  31.969   4.603
 2496W        W74025  10.773   6.220   0.507
 2497W        W74026  41.380  37.571  13.041
 2498W        W74027   9.394  29.708  14.868
 2499W        W74028   5.402   0.991  13.876
 2500W        W74029  19.050  39.065   3.168
 2501W        W74030   4.945  39.496   4.564
 2502W        W74031  22.287   1.076  14.823
 2503W        W74032  14.850  31.568   4.627
 2504W        W74033  18.690  10.592  12.970
 2505W        W74034  23.932  43.804  11.327
 2506W        W74035  10.883   3.696  10.804
 2507W        W74036  18.081  30.127   0.279
 2508W        W74037  17.109   4.716   2.326
 2509W        W74038  19.032  43.984  14.919
 2510W        W74039  40.882  24.649  14.936
 2511W        W74040  29.019  29.204  13.533
 2512W        W74041  15.177  19.400   1.373
 2513W        W74042  36.655  20.010  11.831
 2514W        W74043  19.813  20.049   3.162
 2515W        W74044  28.743   8.737   1.947
 2516W        W74045  14.074  34.406   2.067
 2517W        W74046  37.773  42.955   3.772
 2518W        W74047   3.556   3.196   4.646
 2519W        W74048  36.562   6.731   3.706
 2520W        W74049  41.449  24.229  12.534
 2521W        W74050  13.938   4.366   0.925
 2522W        W74051  14.649  16.533  13.196
 2523W        W74052  42.542  44.558   1.254
 2524W        W74053  30.958  33.441   0.213
 2525W        W74054  25.320  32.375  13.836
 2526W        W74055  19.194  18.302  10.867
 2527W        W74056  40.696  15.113   2.204
 2528W        W74057  44.351  33.319  12.789
 2529W        W74058  23.444   4.280   1.318
 2530W        W74059  39.998   7.752  12.460
 2531W        W74060   8.393  39.439   0.001
 2532W        W74061  15.874  25.168   2.728
 2533W        W74062  36.506  42.223  14.684
 2534W        W74063  29.377  31.180  12.491
 2535W        W74064   1.307  22.658  14.916
 2536W        W74065  23.566  38.309  10.967
 2537W        W74066  14.572  40.252  14.567
 2538W        W74067   7.342  43.194   3.387
 2539W        W74068  30.929  15.634   4.036
 2540W        W74069  36.764  13.968   2.224
 2541W        W74070   7.351  34.799   2.705
 2542W        W74071   4.607  28.880  14.592
 2543W        W74072  15.125  24.550  11.198
 2544W        W74073  22.544  41.975   4.851
 2545W        W74074  13.685  17.980   2.182
 2546W        W74075  22.476   3.393  13.287
 2547W        W74076  32.132  24.031  12.659
 2548W        W74077  16.297  35.163  12.971
 2549W        W74078  44.847  19.768  13.908
 2550W        W74079   3.502  12.100   3.981
 2551W        W74080  16.679  38.956   1.252
 2552W        W74081  44.208  42.559   0.498
 2553W        W74082  37.240  26.149  13.380
 2554W        W74083   7.680   6.367  13.893
 2555W        W74084  21.182  20.669   0.377
 2556W        W74085   1.658   9.362   2.559
 2557W        W74086  40.299  38.432  13.507
 2558W        W74087   8.653  26.069   0.483
 2559W        W74088  34.676  43.829   4.234
 2560W        W74089   3.443  11.715   4.577
 2561W        W74090  13.584  32.933   2.072
 2562W        W74091  35.217  40.418   0.828
 2563W        W74092   4.373  22.184  14.421
 2564W        W74093   4.171  23.020  11.173
 2565W        W74094  12.449  23.263   3.782
 2566W        W74095  20.223   8.759   1.996
 2567W        W74096  12.736  19.576   2.726
 2568W        W74097  34.568  14.696   0.978
 2569W        W74098   2.522  15.787  12.993
 2570W        W74099  25.944  12.082  10.647
 2571W        W74100   5.630   5.214   1.662
 2572W        W74101   0.054   9.317   4.865
 2573W        W74102  40.389   6.919   1.644
 2574W        W74103  35.628  25.274  11.029
 2575W        W74104  38.429  39.465   1.238
 2576W        W74105  12.462  13.827  12.939
 2577W        W74106  43.489   3.994   0.734
 2578W        W74107  26.105   2.608  13.842
 2579W        W74108  10.158  41.737   2.314
 2580W        W74109  28.017  40.054  11.695
 2581W        W74110   7.289   0.616  12.536
 2582W        W74111  31.995  43.176   4.184
 2583W        W74112  42.284   9.046   2.461
 2584W        W74113   3.990  39.874  14.471
 2585W        W74114   0.116  43.459   3.657
 2586W        W74115  26.699  33.217  11.059
 2587W        W74116  34.808  16.359   3.070
 2588W        W74117  29.568  43.012  11.609
 2589W        W74118  28.593  25.888  14.003
 2590W        W74119  16.529  12.714   1.276
 2591W        W74120  36.032  16.352  11.093
 2592W        W74121  13.339  35.481   4.630
 2593W        W74122   2.918   0.004   2.990
 2594W        W74123  21.562   9.578   2.757
 2595W        W74124  23.887   7.298  11.110
 2596W        W74125  13.640  34.205   2.262
 2597W        W74126  20.960  17.796   1.441
 2598W        W74127   8.661  39.926   1.356
 2599W        W74128  12.866  27.961   2.066
 2600W        W74129  21.687  31.645  10.527
 2601W        W74130  36.018  32.895  11.951
 2602W        W74131   6.212  10.137   1.659
 2603W        W74132  42.997   7.128   3.309
 2604W        W74133   5.071   7.795  10.673
 2605W        W74134  16.323  36.564   4.176
 2606W        W74135  18.836  27.069   1.711
 2607W        W74136  27.267  40.795   4.492
 2608W        W74137   0.383   7.646   0.614
 2609W        W74138  32.913  17.732  10.627
 2610W        W74139  44.158   3.993   1.690
 2611W        W74140  12.347  24.708   4.636
 2612W        W74141  15.102  41.265  13.435
 2613W        W74142   0.444  26.999  10.729
 2614W        W74143  41.244  15.156  14.902
 2615W        W74144  42.799  25.508  13.081
 2616W        W74145  29.969  44.401  10.036
 2617W        W74146  32.533  10.192  14.354
 2618W        W74147   8.865  20.583   1.642
 2619W        W74148  29.361  28.381   4.943
 2620W        W74149  35.979   4.967   2.177
 2621W        W74150  33.951  23.078  11.129
 2622W        W74151  32.085  42.649   1.439
 2623W        W74152  34.855  10.237  13.040
 2624W        W74153  16.714  26.451  11.102
 2625W        W74154   3.057  23.954  12.931
 2626W        W74155  13.358  40.393  12.093
 2627W        W74156  32.431  23.341   4.397
 2628W        W74157  42.035  24.275   2.696
 2629W        W74158  44.974  17.400   0.394
 2630W        W74159  34.828  19.601   3.597
 2631W        W74160  43.917  18.145   4.694
 2632W        W74161  10.764   7.304  13.127
 2633W        W74162   5.320  25.665  12.056
 2634W        W74163  16.731  26.958   1.583
 2635W        W74164  23.419  18.676   4.979
 2636W        W74165   5.472  41.476   4.723
 2637W        W74166  21.687  41.263  11.659
 2638W        W74167   0.985   8.010  11.389
 2639W        W74168  42.438  23.452  14.070
 2640W        W74169  33.418  12.873  10.708
 2641W        W74170   3.363  34.977  14.918
 2642W        W74171   8.822  20.673   0.649
 2643W        W74172   2.458   7.923   4.788
 2644W        W74173  14.849  18.666  11.025
 2645W        W74174  39.539  43.085  13.262
 2646W        W74175  24.762  14.599  14.482
 2647W        W74176  30.079  21.177  14.267
 2648W        W74177  28.275  22.808   3.245
 2649W        W74178  44.347   6.154   0.176
 2650W        W74179  10.736  19.129   4.101
 2651W        W74180  40.028  23.043  12.584
 2652W        W74181   0.209  25.587   2.496
 2653W        W74182  41.015  17.959   2.120
 2654W        W74183  26.414  37.453   3.871
 2655W        W74184  30.611  18.271   3.798
 2656W        W74185  30.505  34.563   1.863
 2657W        W74186  26.498   3.919   1.481
 2658W        W74187   2.765  15.864  11.992
 2659W        W74188  37.940  16.084  12.400
 2660W        W74189  22.212   9.676   1.849
 2661W        W74190  27.397  14.256   4.511
 2662W        W74191   8.341  39.442  10.916
 2663W        W74192  35.906  26.888   3.939
 2664W        W74193  21.570  43.462   2.418
 2665W        W74194   5.120  37.302  13.426
 2666W        W74195  29.591  24.072   2.514
 2667W        W74196  42.548  41.818  11.498
 2668W        W74197  21.721  36.808   4.634
 2669W        W74198  13.304  28.415  11.939
 2670W        W74199   7.355   3.139   2.438
 2671W        W74200  12.448  17.986  14.952
 2672W        W74201  26.957  13.640  12.899
 2673W        W74202   7.174  15.228   2.553
 2674W        W74203  25.452  17.200   0.010
 2675W        W74204  27.610  40.509  12.046
 2676W        W74205   9.334  24.371  10.653
 2677W        W74206  13.287  26.946  11.569
 2678W        W74207  10.162   9.837   2.321
 2679W        W74208  25.494  14.515   2.019
 2680W        W74209  34.073  13.187  14.062
 2681W        W74210   3.266  17.592  14.584
 2682W        W74211  33.364   2.739  11.120
 2683W        W74212  17.441  33.914   1.423
 2684W        W74213  23.737  20.605  12.075
 2685W        W74214  17.072   9.807   3.687
 2686W        W74215   3.754   3.395  12.297
 2687W        W74216   8.374  41.038  13.331
 2688W        W74217  31.166  44.255  11.500
 2689W        W74218  20.614  13.862   4.573
 2690W        W74219  39.486  42.757   3.842
 2691W        W74220  11.440  17.072  13.530
 2692W        W74221  34.613  21.540   2.889
 2693W        W74222  38.046  41.237  10.792
 2694W        W74223  16.164  41.125   0.985
 2695W        W74224  16.774  37.598  14.063
 2696W        W74225  17.204  11.918   1.324
 2697W        W74226  18.113  18.145  12.354
 2698W        W74227   4.136  17.076  12.191
 2699W        W74228  38.512  10.239   0.303
 2700W        W74229  37.839   1.412   0.945
 2701W        W74230  36.182  25.794  10.493
 2702W        W74231  40.018  30.560  14.480
 2703W        W74232  41.085  16.904   0.890
 2704W        W74233   1.260  30.674  11.502
 2705W        W74234   9.919  34.947   5.074
 2706W        W74235  25.028   1.337  14.958
 2707W        W74236   4.363   5.185   1.982
 2708W        W74237  10.575  21.995  14.564
 2709W        W74238  16.265   7.509   4.090
 2710W        W74239  31.872  17.714  13.089
 2711W        W74240  18.148  24.539  13.962
 2712W        W74241   7.421  33.963   0.198
 2713W        W74242  40.260  10.196  14.492
 2714W        W74243  23.437  31.612  11.428
 2715W        W74244  30.913  27.252  14.795
 2716W        W74245  11.472  10.418   0.929
 2717W        W74246  31.399   9.056   1.471
 2718W        W74247  36.103  16.697   0.369
 2719W        W74248  21.167  11.663  14.523
 2720W        W74249  28.983   5.215  14.782
 2721W        W74250  38.349   2.662   1.455
 2722W        W74251   1.233  40.848  14.827
 2723W        W74252  30.072  41.387   1.729
 2724W        W74253  12.176  37.013  10.401
 2725W        W74254   6.273  19.165   0.916
 2726W        W74255  14.335  20.750   3.074
 2727W        W74256  27.302  31.588   5.032
 2728W        W74257   0.010  36.342   3.657
 2729W        W74258  40.807   9.831   0.231
 2730W        W74259   9.964   4.179   0.265
 2731W        W74260  29.552  43.698  11.963
 2732W        W74261   5.549  43.873   1.293
 2733W        W74262  21.003  22.669  13.408
 2734W        W74263  13.290  41.803   2.189
 2735W        W74264  10.637  39.570  12.089
 2736W        W74265  20.531  31.709   4.423
 2737W        W74266   8.025  37.573   1.918
 2738W        W74267  34.931   1.799   3.309
 2739W        W74268   5.506  26.610  14.227
 2740W        W74269  43.727  39.123   0.745
 2741W        W74270  15.166  44.845  11.562
 2742W        W74271  21.942  14.101   1.669
 2743W        W74272  34.972  44.852   0.402
 2744W        W74273  40.093  37.617   2.848
 2745W        W74274  43.849  20.954  11.419
 2746W        W74275  19.048  12.243  13.356
 2747W        W74276   3.475   6.224   4.186
 2748W        W74277  26.739  36.939  14.320
 2749W        W74278  23.119  40.487  14.450
 2750W        W74279  22.050  10.303   3.154
 2751W        W74280  17.572   1.639  11.479
 2752W        W74281  12.762  41.755  13.549
 2753W        W74282  14.001  34.197  11.336
 2754W        W74283  24.063  34.331  13.356
 2755W        W74284  39.638  43.007   5.245
 2756W        W74285  31.472  22.128  14.093
 2757W        W74286  22.603  11.114  10.259
 2758W        W74287  10.618  43.942   4.531
 2759W        W74288  11.914  30.292  13.963
 2760W        W74289  39.147  21.641   0.907
 2761W        W74290  11.417  27.966  10.794
 2762W        W74291  32.946   8.790  12.254
 2763W        W74292  17.328   0.803   4.324
 2764W        W74293   6.427  41.368   3.742
 2765W        W74294  39.048   4.536   2.245
 2766W        W74295  22.623   5.234  10.645
 2767W        W74296  34.554  16.278  12.600
 2768W        W74297  34.539  18.100   4.536
 2769W        W74298  33.905  18.781  10.709
 2770W        W74299  33.323  19.978   2.898
 2771W        W74300   2.453   6.781   3.043
 2772W        W74301   2.386  42.007   0.534
 2773W        W74302  18.003  39.354  12.475
 2774W        W74303  43.433  38.896  10.431
 2775W        W74304   9.286   2.722   3.720
 2776W        W74305  37.280   3.751  11.396
 2777W        W74306  37.695  36.898   2.849
 2778W        W74307  19.868  32.480  14.384
 2779W        W74308  12.813   6.030  11.043
 2780W        W74309  17.755  44.421   1.283
 2781W        W74310   6.290  44.732   2.876
 2782W        W74311   6.452  30.528  12.913
 2783W        W74312  39.879   7.573   0.958
 2784W        W74313   0.126  39.275  11.129
 2785W        W74314  27.668  38.391  13.971
 2786W        W74315  15.683  37.097  10.768
 2787W        W74316  30.204  30.629   4.225
 2788W        W74317  36.351   5.215   1.379
 2789W        W74318  26.135   1.620   1.002
 2790W        W74319  41.900  30.865  11.983
 2791W        W74320  30.653  12.483   2.133
 2792W        W74321  19.662  44.859   1.439
 2793W        W74322  37.947  30.106  14.913
 2794W        W74323  10.140  28.104   0.446
 2795W        W74324  41.001  42.858   4.077
 2796W        W74325  43.968  37.189  14.297
 2797W        W74326  30.762  29.553   2.434
 2798W        W74327  16.758  42.440  13.058
 2799W        W74328   7.744   3.283   2.756
 2800W        W74329  35.803   9.928  11.524
 2801W        W74330  18.117  44.949  12.367
 2802W        W74331  19.077   1.925   1.194
 2803W        W74332  14.253  12.555   2.291
 2804W        W74333  10.714  24.422  12.108
 2805W        W74334  43.602  35.096   0.857
 2806W        W74335  39.493  40.991   2.128
 2807W        W74336  28.196   1.498  11.043
 2808W        W74337  41.924  14.670  12.153
 2809W        W74338   6.402   5.142   3.302
 2810W        W74339  40.531  21.323   4.087
 2811W        W74340  11.593  42.272   4.163
 2812W        W74341  37.051  35.572   4.648
 2813W        W74342  30.519  37.323   2.697
 2814W        W74343  30.569  21.299  14.231
 2815W        W74344  30.906  34.406  13.946
 2816W        W74345  10.398  14.065   4.248
 2817W        W74346   0.323  25.694  12.652
 2818W        W74347  44.525  37.486   3.210
 2819W        W74348  14.310  15.864  14.871
 2820W        W74349  37.968  26.147   3.382
 2821W        W74350  20.708  35.565   3.784
 2822W        W74351  13.834  19.273  13.533
 2823W        W74352  27.038  20.619   4.210
 2824W        W74353  23.666  24.826  12.423
 2825W        W74354   7.349  23.571  10.745
 2826W        W74355  40.039   3.823   1.219
 2827W        W74356  37.275  15.715  11.144
 2828W        W74357  27.743  43.420  10.789
 2829W        W74358  43.431  35.422   1.323
 2830W        W74359   4.387   7.639  12.023
 2831W        W74360  23.751  19.647   3.190
 2832W        W74361  38.340  29.049  12.434
 2833W        W74362  25.750  20.718   1.768
 2834W        W74363  27.564  23.286   2.874
 2835W        W74364  11.105   0.934   3.175
 2836W        W74365  27.947  16.042   3.375
 2837W        W74366  10.498   4.820  14.772
 2838W        W74367  33.957  35.787  12.412
 2839W        W74368  27.127  16.182   0.043
 2840W        W74369  22.193   4.397   1.853
 2841W        W74370  26.470   4.545   2.889
 2842W        W74371  23.548  37.854   2.945
 2843W        W74372  19.546  20.990   3.620
 2844W        W74373   8.764   3.684   2.684
 2845W        W74374  11.416   3.705   0.392
 2846W        W74375   4.849   8.952  13.078
 2847W        W74376  37.520  10.850   0.029
 2848W        W74377   1.205  16.615   2.124
 2849W        W74378   2.981  19.318   2.380
 2850W        W74379  42.531  23.154  12.205
 2851W        W74380  43.921  26.997  14.451
 2852W        W74381  43.610  33.556  10.180
 2853W        W74382  22.854  44.063  10.068
 2854W        W74383  34.143  13.687  12.720
 2855W        W74384  24.421  34.952   0.861
 2856W        W74385  31.858  20.413  11.502
 2857W        W74386  40.062  23.168   2.237
 2858W        W74387  33.990  42.020  11.583
 2859W        W74388  10.185  25.462   4.775
 2860W        W74389  38.825  22.495  12.220
 2861W        W74390   0.919   9.358  14.389
 2862W        W74391  42.043  16.086  10.948
 2863W        W74392  12.775   5.712  14.931
 2864W        W74393   5.173  42.565   3.151
 2865W        W74394  12.060  16.162  10.495
 2866W        W74395  40.612  44.292  14.882
 2867W        W74396  30.207  29.877   0.918
 2868W        W74397  44.547  21.129  10.191
 2869W        W74398  12.528  20.639  12.043
 2870W        W74399   2.497   6.260   2.747
 2871W        W74400  35.006  10.565   2.676
 2872W        W74401  43.101  39.843   2.915
 2873W        W74402  15.058  41.785  13.419
 2874W        W74403  23.611   1.890  11.506
 2875W        W74404  16.606  39.107   2.671
 2876W        W74405  22.209  29.939  12.474
 2877W        W74406  34.185  18.196  14.024
 2878W        W74407  22.854  18.171  10.675
 2879W        W74408  14.361  11.228  12.529
 2880W        W74409  19.784  36.606   3.335
 2881W        W74410  27.452  28.054  12.411
 2882W        W74411  17.545  12.631   4.264
 2883W        W74412  12.643   9.260  12.184
 2884W        W74413  30.053   0.805  13.771
 2885W        W74414  16.274  36.579   2.274
 2886W        W74415  28.217  35.913   0.700
 2887W        W74416  43.591  41.397   0.029
 2888W        W74417  20.912  23.271   0.441
 2889W        W74418  18.251   8.317   0.426
 2890W        W74419   8.995  11.574   3.832
 2891W        W74420  10.763   7.423   4.742
 2892W        W74421  28.524  13.623   0.396
 2893W        W74422  24.866  39.867   4.089
 2894W        W74423   1.328  39.097   2.886
 2895W        W74424  31.965   1.777  12.445
 2896W        W74425  36.650  41.925   3.335
 2897W        W74426  18.204  25.935  13.496
 2898W        W74427  24.963   1.355  10.651
 2899W        W74428  33.107  31.638  11.436
 2900W        W74429  16.914  23.105  10.618
 2901W        W74430  25.475  21.717   4.242
 2902W        W74431  24.076  43.985   0.231
 2903W        W74432  29.067  42.230  13.966
 2904W        W74433  17.541   3.910  12.942
 2905W        W74434   1.870  44.703   3.693
 2906W        W74435  16.348  24.178  12.871
 2907W        W74436  13.732  24.718  14.247
 2908W        W74437  16.172  28.961  11.953
 2909W        W74438  42.781  37.268   4.551
 2910W        W74439  22.987   3.973   0.826
 2911W        W74440  10.467  24.635   4.872
 2912W        W74441   7.180  30.164   0.879
 2913W        W74442  23.537  14.079   4.077
 2914W        W74443  33.208  30.921   0.724
 2915W        W74444   9.311  32.447  10.762
 2916W        W74445   7.766  36.046   0.399
 2917W        W74446  21.664  40.323   1.384
 2918W        W74447   4.952  35.066   4.204
 2919W        W74448  10.869  17.017  14.466
 2920W        W74449  36.585  11.432   0.180
 2921W        W74450   0.964   1.914  13.459
 2922W        W74451  11.202  42.258  12.660
 2923W        W74452  28.600  19.504   0.263
 2924W        W74453  37.578  42.516   3.558
 2925W        W74454  29.023  25.259   2.142
 2926W        W74455  38.904  42.320   2.728
 2927W        W74456  32.634  24.294   3.054
 2928W        W74457  30.717  31.300   2.298
 2929W        W74458  38.086   6.798   2.801
 2930W        W74459  31.067  35.353  11.627
 2931W        W74460  41.853  25.885  12.988
 2932W        W74461   5.841  33.351   2.103
 2933W        W74462  42.938  21.660   3.286
 2934W        W74463  33.471   3.222  12.130
 2935W        W74464  39.904   8.566  14.476
 2936W        W74465  40.030  12.221  11.855
 2937W        W74466   4.760  30.487   9.791
 2938W        W74467  24.500  28.871   2.428
 2939W        W74468  34.798  40.044  12.019
 2940W        W74469   2.743  10.503   4.543
 2941W        W74470  39.988  29.932  10.510
 2942W        W74471  18.864  27.711  14.762
 2943W        W74472   2.034  44.232   3.830
 2944W        W74473  15.907  14.187   1.776
 2945W        W74474  21.580  44.800  14.523
 2946W        W74475  13.696  27.212  11.446
 2947W        W74476  29.659  43.174  10.648
 2948W        W74477  44.455  37.036   4.560
 2949W        W74478  21.178  19.012  12.827
 2950W        W74479  23.755  44.786   4.885
 2951W        W74480  23.030  14.896   0.960
 2952W        W74481  12.335  39.403  10.876
 2953W        W74482  41.036  10.699  13.642
 2954W        W74483   6.884  13.995   0.536
 2955W        W74484  25.488  17.031   5.062
 2956W        W74485   5.463   9.411   4.288
 2957W        W74486   4.446  22.721   0.760
 2958W        W74487  25.471  44.538   3.326
 2959W        W74488  36.428  22.021  12.911
 2960W        W74489  41.969  24.694   0.299
 2961W        W74490   5.358  11.184  13.633
 2962W        W74491  42.792  27.556  14.609
 2963W        W74492   8.681  18.815  12.061
 2964W        W74493  13.700  27.129  13.008
 2965W        W74494  18.502  19.467   4.311
 2966W        W74495   9.180  27.896   4.666
 2967W        W74496  11.908  32.101  10.018
 2968W        W74497  22.074  39.777   1.379
 2969W        W74498  22.483  12.171   3.548
 2970W        W74499   5.746   2.303   1.448
 2971W        W74500  18.991  16.626  13.959
 2972W        W74501  28.021  43.663  12.058
 2973W        W74502  40.141  10.834   2.460
 2974W        W74503  19.045  40.716   1.796
 2975W        W74504   6.937  28.635   1.877
 2976W        W74505  43.406  30.873   2.637
 2977W        W74506   5.456  21.443   3.494
 2978W        W74507   8.098  28.561   2.843
 2979W        W74508  16.781  33.955   2.003
 2980W        W74509   4.340  14.598  10.965
 2981W        W74510  25.134   0.536  11.274
 2982W        W74511  31.633   1.475  11.999
 2983W        W74512  36.678  37.089  11.115
 2984W        W74513  40.721   6.549   1.359
 2985W        W74514  18.958  38.035  10.767
 2986W        W74515  23.469  16.830  12.998
 2987W        W74516   0.706  36.098  11.706
 2988W        W74517  34.008  37.006   2.706
 2989W        W74518  26.624  41.422   1.956
 2990W        W74519  18.626  31.376   0.843
 2991W        W74520  12.734   4.285   2.148
 2992W        W74521  17.739  23.991  10.529
 2993W        W74522  37.636  44.437  11.397
 2994W        W74523  36.095  31.647   0.885
 2995W        W74524   7.415  22.578  14.882
 2996W        W74525  37.662  23.985  14.004
 2997W        W74526   0.200  13.626  10.735
 2998W        W74527  33.718   1.767  13.866
 2999W        W74528  12.305  30.021  12.018
 3000W        W74529  16.981  32.990  12.917
 3001W        W74530  44.688  29.515  13.892
 3002W        W74531  12.053  13.163   2.379
 3003W        W74532   7.148   5.275   0.775
 3004W        W74533  14.010  39.432  12.991
 3005W        W74534   5.184  12.578  12.475
 3006W        W74535  38.978  17.717   3.702
 3007W        W74536  33.632  42.778   2.423
 3008W        W74537  26.111  24.748   2.434
 3009W        W74538  38.573  30.131  11.685
 3010W        W74539  18.317   5.463   3.614
 3011W        W74540  40.187  31.554   4.610
 3012W        W74541  42.416   2.744   2.091
 3013W        W74542  38.964  10.178   2.588
 3014W        W74543   2.361   2.380  12.187
 3015W        W74544  12.959  13.656  11.952
 3016W        W74545  39.691  27.905   3.198
 3017W        W74546  19.761  12.240   2.249
 3018W        W74547  42.783   0.862  14.980
 3019W        W74548  33.516  15.185  10.137
 3020W        W74549  30.783  16.095  10.266
 3021W        W74550   9.866  32.183   0.570
 3022W        W74551  10.528  30.103   3.670
 3023W        W74552  31.167  37.469   3.908
 3024W        W74553  23.689  44.292  10.602
 3025W        W74554  41.885   0.209  12.287
 3026W        W74555  33.347  43.440  13.532
 3027W        W74556  33.506  16.023  14.277
 3028W        W74557  24.095  42.048   0.984
 3029W        W74558  36.802  10.577  12.156
 3030W        W74559  35.984  31.522   3.285
 3031W        W74560  11.918  16.834  13.354
 3032W        W74561  28.331   1.068   0.850
 3033W        W74562   3.387  25.508  13.009
 3034W        W74563  40.290  25.781  13.536
 3035W        W74564   0.849   6.735   4.477
 3036W        W74565  36.033  23.183   0.463
 3037W        W74566  44.756  19.080   3.261
 3038W        W74567  19.655  32.662  10.695
 3039W        W74568  35.944  31.036  13.440
 3040W        W74569  15.201   6.707   4.511
 3041W        W74570  11.702   8.117   4.859
 3042W        W74571  28.937  19.039   3.185
 3043W        W74572   6.204  44.073   4.206
 3044W        W74573   5.943  35.838  12.178
 3045W        W74574  34.027  29.486  13.838
 3046W        W74575  12.551  27.933   4.120
 3047W        W74576  40.771  38.283  10.959
 3048W        W74577  14.722  28.665   4.701
 3049W        W74578  10.756  44.904  13.862
 3050W        W74579  36.036  30.080  10.653
 3051W        W74580  22.370  19.871  13.096
 3052W        W74581  27.544  24.744  10.965
 3053W        W74582  11.950  31.382  12.876
 3054W        W74583  27.226  42.535  12.237
 3055W        W74584  34.958  31.787  12.096
 3056W        W74585  40.539   6.222  12.051
 3057W        W74586  23.813  28.007  11.723
 3058W        W74587  14.596  15.715   2.813
 3059W        W74588  22.993  27.780  14.396
 3060W        W74589  24.903   0.350  14.576
 3061W        W74590   7.313  35.556  10.831
 3062W        W74591  16.720   8.845  13.605
 3063W        W74592  32.168  20.816   2.301
 3064W        W74593   2.884  43.045   2.669
 3065W        W74594  29.062  26.328   3.530
 3066W        W74595  11.098  12.487   3.659
 3067W        W74596  26.699  35.557   1.767
 3068W        W74597  40.413  21.350  12.119
 3069W        W74598  20.237  16.042   3.843
 3070W        W74599  38.873  39.245  12.101
 3071W        W74600  13.719  15.800  11.936
 3072W        W74601   9.329  25.612  14.395
 3073W        W74602  28.545  28.573  10.652
 3074W        W74603  27.869  42.430  11.648
 3075W        W74604  33.578  27.687  14.136
 3076W        W74605  19.731   5.531  12.791
 3077W        W74606  32.246  13.044  12.492
 3078W        W74607  38.738  35.749   1.444
 3079W        W74608  39.005  41.170  11.607
 3080W        W74609  35.086  21.831   3.607
 3081W        W74610  20.240  42.945  10.098
 3082W        W74611  39.998  34.418  14.861
 3083W        W74612   3.432  35.114   0.952
 3084W        W74613  24.501   3.211   3.686
 3085W        W74614   7.412  38.802   4.025
 3086W        W74615  37.324  34.890   1.373
 3087W        W74616  35.789  38.312   3.119
 3088W        W74617  42.099  34.319  13.410
 3089W        W74618  12.625  21.445  11.442
 3090W        W74619  44.258  13.301   4.426
 3091W        W74620  19.595  33.590   3.001
 3092W        W74621  30.199  10.683   2.856
 3093W        W74622  43.831  28.084   1.311
 3094W        W74623  17.639  31.500  13.478
 3095W        W74624  37.817  18.644  13.510
 3096W        W74625  31.414  29.120   0.911
 3097W        W74626  44.074  43.126   5.028
 3098W        W74627  33.160  13.941   3.338
 3099W        W74628  28.975  42.570  12.471
 3100W        W74629  20.098  42.524   2.217
 3101W        W74630   8.617   6.510   5.139
 3102W        W74631  38.765  24.810  12.571
 3103W        W74632  20.268  36.484  14.189
 3104W        W74633   5.144   8.468  13.001
 3105W        W74634  33.952   5.755   0.933
 3106W        W74635  44.033  36.254   1.428
 3107W        W74636  27.396  10.255  10.619
 3108W        W74637   3.038  32.687   4.283
 3109W        W74638   1.051  22.982  12.119
 3110W        W74639  32.236  32.196  14.874
 3111W        W74640  27.721  26.311   0.809
 3112W        W74641  17.157   6.845  14.246
 3113W        W74642   9.397  17.769  14.041
 3114W        W74643   0.921  24.278  12.840
 3115W        W74644  39.938  33.647  13.966
 3116W        W74645   6.340   7.837   1.569
 3117W        W74646  15.627   5.360  14.360
 3118W        W74647  38.045   7.305  12.661
 3119W        W74648   1.545   5.762   1.309
 3120W        W74649  35.462  16.672   4.694
 3121W        W74650  18.917  10.935  12.029
 3122W        W74651   2.961  42.478   0.404
 3123W        W74652  31.312  44.764  12.582
 3124W        W74653  20.609   2.800   1.699
 3125W        W74654  44.197  44.218   1.748
 3126W        W74655  22.228  26.057   4.441
 3127W        W74656  41.072  27.894   0.429
 3128W        W74657  36.606  12.826   4.004
 3129W        W74658   9.752   8.815  13.386
 3130W        W74659  18.583  27.449  12.963
 3131W        W74660   1.273  32.476   4.319
 3132W        W74661  10.379  28.222   0.935
 3133W        W74662  14.121   9.727   4.478
 3134W        W74663  19.486   6.370   0.778
 3135W        W74664  38.025  37.923  11.231
 3136W        W74665  32.093  15.351   4.316
 3137W        W74666  34.573  23.905  14.863
 3138W        W74667  36.329   3.626  13.887
 3139W        W74668  36.642   0.438   2.412
 3140W        W74669  28.843  29.868  12.082
 3141W        W74670   2.197   0.339   2.661
 3142W        W74671   6.929  30.698  12.845
 3143W        W74672  31.103  19.041   3.582
 3144W        W74673   7.357  25.598   3.764
 3145W        W74674  40.856  29.591   1.840
 3146W        W74675  27.607  44.782   4.775
 3147W        W74676   1.890  32.162   2.684
 3148W        W74677  23.293  43.280  13.421
 3149W        W74678  12.609  24.204   3.625
 3150W        W74679  21.169  15.199  13.486
 3151W        W74680   4.973   9.664  14.070
 3152W        W74681  23.519  20.437  13.935
 3153W        W74682  18.507  18.653  12.215
 3154W        W74683  24.722  19.323   1.309
 3155W        W74684  18.281  29.114   0.866
 3156W        W74685   5.286  42.792   1.358
 3157W        W74686  43.436  26.747   2.384
 3158W        W74687  41.396   9.984  11.244
 3159W        W74688  38.005  30.998   4.613
 3160W        W74689  30.715   4.840   2.985
 3161W        W74690  21.007  35.577   3.098
 3162W        W74691  25.494  22.656   0.776
 3163W        W74692   8.878   2.983   1.504
 3164W        W74693  35.571  22.388   0.158
 3165W        W74694  10.594  27.062  10.987
 3166W        W74695  43.547  15.408  14.401
 3167W        W74696  32.603  25.261  12.460
 3168W        W74697  19.614  32.085   3.295
 3169W        W74698  30.323  26.661   3.297
 3170W        W74699  22.726   0.681  11.980
 3171W        W74700   0.913  43.928  14.403
 3172W        W74701  21.765  30.477   3.574
 3173W        W74702  21.378  30.373   0.821
 3174W        W74703  33.117   1.639  14.937
 3175W        W74704  36.380  15.765   2.265
 3176W        W74705  39.468  37.690  11.453
 3177W        W74706  43.348   9.855   3.519
 3178W        W74707  38.778   1.392  12.445
 3179W        W74708  15.923   6.138   4.151
 3180W        W74709   5.349  31.253  10.356
 3181W        W74710   8.711   2.791  14.486
 3182W        W74711  36.273   9.708   2.220
 3183W        W74712   4.777  27.417   1.451
 3184W        W74713  24.051   4.770   1.915
 3185W        W74714  17.800   4.422  13.833
 3186W        W74715  34.931  13.085   1.422
 3187W        W74716  20.995  20.474  14.031
 3188W        W74717  31.838  17.748   3.414
 3189W        W74718  16.378   3.123  14.495
 3190W        W74719  27.176  27.543   1.401
 3191W        W74720  23.701  19.610  11.922
 3192W        W74721  27.777  39.176  12.576
 3193W        W74722  30.951  21.073   1.305
 3194W        W74723  32.538  11.656   4.532
 3195W        W74724  14.355  13.295  14.980
 3196W        W74725  20.950  13.585   2.293
 3197W        W74726  35.996  17.151  13.329
 3198W        W74727   6.966  16.590   4.273
 3199W        W74728   8.635  17.130   1.306
 3200W        W74729  11.826   4.114  12.167
 3201W        W74730  34.093   6.966   1.801
 3202W        W74731   9.896   9.684   4.790
 3203W        W74732  16.076  27.084  10.888
 3204W        W74733  37.019  18.600   2.479
 3205W        W74734   1.694  12.341   4.626
 3206W        W74735   0.995  27.583  13.778
 3207W        W74736   1.176  24.938   3.476
 3208W        W74737   0.683  13.644  11.504
 3209W        W74738  27.147  11.479  10.984
 3210W        W74739   7.155  33.406  11.894
 3211W        W74740  20.082  12.841  14.803
 3212W        W74741  14.042  19.680  11.577
 3213W        W74742  13.735  37.058   2.743
 3214W        W74743  28.387  41.686   1.893
 3215W        W74744   9.565  20.273  12.451
 3216W        W74745  31.966  42.949  11.916
 3217W        W74746  40.347   8.864   0.873
 3218W        W74747  44.058  39.383  13.060
 3219W        W74748  15.136   2.986  14.444
 3220W        W74749   4.214  25.508  11.535
 3221W        W74750  22.369  35.655  11.127
 3222W        W74751  18.471  10.250  13.899
 3223W        W74752  40.471   9.143  14.945
 3224W        W74753  25.987  11.581  11.431
 3225W        W74754  35.893  41.276   4.177
 3226W        W74755  22.764  29.134   1.756
 3227W        W74756  10.685  14.125  11.127
 3228W        W74757  36.305  20.578  11.874
 3229W        W74758   5.211  21.147   1.838
 3230W        W74759  12.879  16.066   3.221
 3231W        W74760  43.896  16.444  12.368
 3232W        W74761  44.333  35.579  13.639
 3233W        W74762   8.924   0.995   2.291
 3234W        W74763  33.552  41.048   4.901
 3235W        W74764   7.698   7.680   1.795
 3236W        W74765  44.238  14.721  14.292
 3237W        W74766  39.420  18.533   3.726
 3238W        W74767  33.162   7.486  14.991
 3239W        W74768  24.413  24.266   1.792
 3240W        W74769  33.687  38.917   2.375
 3241W        W74770  39.892   7.312   1.666
 3242W        W74771  35.510  31.306   3.288
 3243W        W74772   2.709  21.574   2.634
 3244W        W74773  11.532  21.544  12.869
 3245W        W74774  41.778  25.806   4.639
 3246W        W74775  23.132  24.706   3.656
 3247W        W74776  37.742   9.104  10.781
 3248W        W74777  39.333  11.838  13.481
 3249W        W74778  40.915  19.846   1.374
 3250W        W74779  32.943  28.738  13.389
 3251W        W74780  23.116  13.995   4.422
 3252W        W74781  41.773  18.268   2.670
 3253W        W74782  17.770  23.585  12.024
 3254W        W74783  37.060  17.743   0.533
 3255W        W74784  31.617  34.811  11.118
 3256W        W74785   1.878  18.251  14.510
 3257W        W74786  21.706  25.558  14.003
 3258W        W74787   2.450   3.538  13.538
 3259W        W74788   0.962  23.579  10.793
 3260W        W74789  41.524  21.799  12.058
 3261W        W74790  33.404  24.599  14.287
 3262W        W74791  37.011  12.175  10.473
 3263W        W74792  12.620  30.128   3.924
 3264W        W74793  38.244  11.851  11.479
 3265W        W74794  24.637   8.228   4.346
 3266W        W74795  35.280  40.810  11.630
 3267W        W74796  13.649  43.805   0.456
 3268W        W74797  42.056  40.359  12.411
 3269W        W74798  44.295  20.972   2.718
 3270W        W74799  11.707   1.757  13.594
 3271W        W74800   6.215   5.615   0.476
 3272W        W74801  17.240   9.821  12.110
 3273W        W74802   2.871   4.828  13.057
 3274W        W74803  32.566  32.691  12.818
 3275W        W74804  33.541   1.275  13.925
 3276W        W74805  44.256  35.808   1.766
 3277W        W74806  25.154  13.788  14.841
 3278W        W74807  20.416  30.454  10.653
 3279W        W74808  31.486  42.928   0.281
 3280W        W74809   2.673  25.699   4.093
 3281W        W74810  13.735  14.325   4.446
 3282W        W74811   3.750  21.224   0.978
 3283W        W74812  16.538  12.089   2.853
 3284W        W74813  41.861  44.102   1.033
 3285W        W74814  10.637  34.113   1.759
 3286W        W74815  32.538  42.749   1.765
 3287W        W74816  13.290  16.701   0.589
 3288W        W74817  33.245   6.184   0.107
 3289W        W74818  23.992  44.855   2.797
 3290W        W74819  25.724  28.702  11.486
 3291W        W74820  19.272  10.579  11.944
 3292W        W74821  44.261  37.858   1.900
 3293W        W74822  25.131  42.445  13.907
 3294W        W74823   6.436  38.787  13.426
 3295W        W74824   0.789  24.410   2.382
 3296W        W74825  29.246   2.278  11.498
 3297W        W74826  35.570  20.135   1.282
 3298W        W74827  39.518  10.113  12.106
 3299W        W74828   1.963   4.027  10.669
 3300W        W74829  39.947  43.164   1.927
 3301W        W74830  31.873   2.462   0.986
 3302W        W74831  14.009   2.942   3.830
 3303W        W74832   8.749   3.957  13.828
 3304W        W74833  18.597  21.058   3.686
 3305W        W74834  40.072  21.716  14.417
 3306W        W74835  10.635  33.313   4.622
 3307W        W74836  20.574  30.645  14.975
 3308W        W74837  38.018  20.088  13.574
 3309W        W74838  10.852  35.388   0.241
 3310W        W74839  25.101  13.225   3.226
 3311W        W74840  19.086  29.916   1.398
 3312W        W74841  27.744  23.476  14.398
 3313W        W74842  29.116  17.031  10.326
 3314W        W74843   4.396  36.016   1.085
 3315W        W74844  38.542  21.571  11.084
 3316W        W74845  35.029   0.736  14.329
 3317W        W74846  37.870  20.741  14.981
 3318W        W74847  32.971  22.635   2.105
 3319W        W74848  35.265   5.743   1.534
 3320W        W74849  30.321  14.461   4.627
 3321W        W74850   6.381  29.227  12.619
 3322W        W74851   2.830  22.601   3.129
 3323W        W74852  41.790   5.203  12.159
 3324W        W74853  39.259  18.610   1.047
 3325W        W74854  42.744   1.324  13.773
 3326W        W74855  40.083  21.181   5.062
 3327W        W74856  30.647  24.205  12.642
 3328W        W74857  27.988   2.327   0.477
 3329W        W74858   7.267  37.987   3.759
 3330W        W74859   6.333   5.494   3.720
 3331W        W74860  35.167   4.780  14.727
 3332W        W74861  34.730  30.270  11.524
 3333W        W74862  35.925  16.225  14.334
 3334W        W74863  13.422   5.646   1.458
 3335W        W74864  32.406  17.394  13.957
 3336W        W74865  34.587  39.010  13.069
 3337W        W74866  10.210  37.888   1.451
 3338W        W74867  18.669  16.697   4.521
 3339W        W74868   4.219  18.651  11.918
 3340W        W74869  27.389   1.288  12.180
 3341W        W74870  42.316  32.477   2.721
 3342W        W74871  27.724  20.203   3.642
 3343W        W74872  29.338  14.149  11.504
 3344W        W74873  28.055  21.323  11.301
 3345W        W74874  38.035  40.066   3.000
 3346W        W74875  37.410  24.622   1.928
 3347W        W74876   2.830  37.035  11.197
 3348W        W74877   0.941  22.004   0.420
 3349W        W74878  18.145  15.326  11.906
 3350W        W74879  27.080  16.681  14.848
 3351W        W74880  21.932  40.618   3.660
 3352W        W74881  31.605  25.025  14.409
 3353W        W74882  21.540  22.315  13.095
 3354W        W74883  20.091  26.766   3.591
 3355W        W74884   4.272  21.796   1.676
 3356W        W74885  18.547  35.758   2.456
 3357W        W74886  24.588  41.883   0.938
 3358W        W74887  42.726   0.857  13.502
 3359W        W74888  42.993  14.148   3.189
 3360W        W74889   2.996   6.729   3.055
 3361W        W74890  44.038  25.219  13.531
 3362W        W74891  18.143  32.376  14.017
 3363W        W74892  43.803  33.212  12.939
 3364W        W74893  31.190  30.054  10.753
 3365W        W74894  29.896  24.054   2.085
 3366W        W74895  41.642  42.682  12.858
 3367W        W74896  18.054   2.272  10.312
 3368W        W74897  27.110  44.273  10.640
 3369W        W74898  24.159  17.068  13.341
 3370W        W74899  26.182   4.519   5.048
 3371W        W74900  11.652  30.958  10.146
 3372W        W74901   0.145  16.833   2.418
 3373W        W74902  31.484  19.722   3.190
 3374W        W74903  38.723  13.155   2.744
 3375W        W74904  43.326  24.222   3.824
 3376W        W74905  22.170  24.079   0.562
 3377W        W74906   0.665   3.023  12.623
 3378W        W74907  10.269  36.141  13.346
 3379W        W74908  13.342  11.682   4.595
 3380W        W74909  27.703  10.641  13.448
 3381W        W74910  13.330  24.563  13.283
 3382W        W74911  25.204  19.210  12.891
 3383W        W74912   7.717   1.578  14.069
 3384W        W74913  30.179  34.667   3.250
 3385W        W74914  11.361  43.588   4.134
 3386W        W74915  43.768  20.240   4.807
 3387W        W74916  35.617  39.608  12.072
 3388W        W74917  26.653  27.303  11.291
 3389W        W74918   5.506  19.183   2.821
 3390W        W74919  33.613  41.967  12.528
 3391W        W74920   9.201  36.072   5.105
 3392W        W74921   9.388   5.931   1.163
 3393W        W74922  36.417   0.062  13.605
 3394W        W74923  22.117   0.595  11.468
 3395W        W74924  27.787  43.505   1.356
 3396W        W74925  29.209  16.069  10.519
 3397W        W74926   6.714  38.442  14.251
 3398W        W74927  15.732   6.236   1.639
 3399W        W74928  34.429  14.792   4.290
 3400W        W74929  40.987   5.178   4.138
 3401W        W74930   1.354   0.678   4.197
 3402W        W74931  16.557  28.394  13.498
 3403W        W74932   7.175  32.038   2.866
 3404W        W74933  36.554  37.964  14.386
 3405W        W74934  16.557  30.644   3.679
 3406W        W74935  34.306  31.403   4.614
 3407W        W74936  35.369  24.300   2.797
 3408W        W74937  30.950   0.301   3.192
 3409W        W74938  34.048   6.453   1.877
 3410W        W74939  24.245  20.158   3.673
 3411W        W74940  36.615  39.780   3.642
 3412W        W74941   3.184  14.724  12.881
 3413W        W74942  24.812  44.476   1.031
 3414W        W74943   5.772   0.219  13.595
 3415W        W74944  42.529  35.395   3.756
 3416W        W74945  41.533   5.645  10.894
 3417W        W74946  30.450   8.272  12.443
 3418W        W74947  37.198  44.620  11.083
 3419W        W74948  44.883  20.271   2.754
 3420W        W74949   2.959  41.392  10.754
 3421W        W74950  30.921  27.464   0.275
 3422W        W74951  43.879  19.119   0.838
 3423W        W74952  31.678  34.987   3.145
 3424W        W74953  29.175  13.050  13.929
 3425W        W74954   0.370  33.864  11.049
 3426W        W74955  22.054  33.885  14.386
 3427W        W74956   8.447  34.424  14.990
 3428W        W74957   0.070  37.401  13.142
 3429W        W74958   6.199  16.459   0.364
 3430W        W74959  30.240  23.845  13.721
 3431W        W74960  39.265  11.163   4.538
 3432W        W74961  39.037  17.387  11.991
 3433W        W74962  32.603  18.528   3.211
 3434W        W74963  29.004   0.179  12.018
 3435W        W74964  19.297  15.764   0.299
 3436W        W74965  31.351  14.801   1.859
 3437W        W74966   9.263  32.505  12.953
 3438W        W74967  17.179  39.354  10.941
 3439W        W74968   8.762   5.406  13.810
 3440W        W74969  30.496  38.491   4.252
 3441W        W74970  13.260  41.866  12.008
 3442W        W74971  23.105  13.956  10.799
 3443W        W74972  23.837  22.238  14.888
 3444W        W74973  13.123  18.478  12.531
 3445W        W74974  40.749   2.711  14.803
 3446W        W74975  31.564   1.880  14.898
 3447W        W74976  32.288   2.872   1.495
 3448W        W74977  36.756  28.937  10.848
 3449W        W74978  30.959  27.740   3.214
 3450W        W74979  25.125  13.018  11.273
 3451W        W74980  34.616  27.993   4.040
 3452W        W74981   5.325   9.359  14.339
 3453W        W74982  14.814  17.349   3.803
 3454W        W74983  44.419   9.648  11.615
 3455W        W74984  36.517  43.676  10.978
 3456W        W74985  28.967  13.377   4.037
 3457W        W74986  34.147  43.248  13.016
 3458W        W74987   4.760   0.945  10.603
 3459W        W74988  26.013  40.231   1.846
 3460W        W74989  24.364  12.553  11.258
 3461W        W74990  23.261  10.303   1.988
 3462W        W74991  32.578  18.823  13.927
 3463W        W74992  38.611  11.597  13.960
 3464W        W74993  42.738   3.394  11.534
 3465W        W74994  42.268   0.875  14.946
 3466W        W74995  32.521  15.194   1.793
 3467W        W74996  11.667   5.925  11.122
 3468W        W74997  32.164  29.938   2.807
 3469W        W74998  34.879  20.252  14.374
 3470W        W74999  20.662  17.812  10.409
 3471W        W75000   3.669  34.122   1.832
 3472W        W75001   3.772   7.311  11.075
 3473W        W75002  32.208   3.966   4.085
 3474W        W75003  29.932  32.629   3.068
 3475W        W75004  38.331   3.408  14.781
 3476W        W75005  18.154  24.441   4.728
 3477W        W75006  13.096   9.740   3.640
 3478W        W75007  19.221   9.903   3.667
 3479W        W75008   3.209   4.465  11.191
 3480W        W75009  20.803   6.291  14.087
 3481W        W75010   2.465   1.214  12.081
 3482W        W75011  17.234   3.807   1.155
 3483W        W75012  21.561  31.664   3.077
 3484W        W75013  22.554  28.901  11.058
 3485W        W75014  32.533  29.162  12.013
 3486W        W75015   2.253  11.789   4.270
 3487W        W75016  35.549  11.715   0.504
 3488W        W75017  24.308  27.599   0.613
 3489W        W75018   1.551  18.513  11.944
 3490W        W75019  23.668  26.438   0.270
 3491W        W75020   5.168   8.764  10.703
 3492W        W75021  44.830  11.306  13.568
 3493W        W75022  13.185   2.901  11.125
 3494W        W75023  17.412  44.480   1.677
 3495W        W75024  39.555   6.861   2.665
 3496W        W75025  37.373   6.513  11.221
 3497W        W75026   8.361  25.106   4.705
 3498W        W75027  25.201  40.785   1.378
 3499W        W75028   9.090  25.899   3.864
 3500W        W75029  14.608  17.325  13.533
 3501W        W75030  33.950  29.976   3.050
 3502W        W75031   0.643  25.798  12.290
 3503W        W75032  16.484  33.768  12.969
 3504W        W75033   6.171  23.851  13.287
 3505W        W75034  36.612  23.215   3.661
 3506W        W75035   9.218  27.079   0.379
 3507W        W75036  23.579  14.684  11.738
 3508W        W75037   8.375   6.136   3.866
 3509W        W75038  11.152  21.595   1.929
 3510W        W75039  38.792  19.064  12.069
 3511W        W75040  23.411  35.204  14.045
 3512W        W75041  24.532  42.936  14.600
 3513W        W75042  25.387  35.836   0.711
 3514W        W75043  36.114  32.154   4.100
 3515W        W75044  37.134  34.842   2.280
 3516W        W75045  31.528  36.293  13.325
 3517W        W75046  37.524   8.624  13.401
 3518W        W75047  30.059  28.176  13.379
 3519W        W75048  40.962   0.783  13.917
 3520W        W75049  39.027  11.358  12.861
 3521W        W75050  37.288  30.897  13.091
 3522W        W75051  11.780  22.751  13.810
 3523W        W75052  31.422  17.633   4.408
 3524W        W75053   3.692  36.983  10.765
 3525W        W75054  16.746  15.628  13.741
 3526W        W75055  33.910  15.348   4.108
 3527W        W75056  40.460  29.922   1.891
 3528W        W75057  26.429   4.695   2.173
 3529W        W75058   0.830  28.917   3.431
 3530W        W75059  41.544  33.557   1.742
 3531W        W75060   1.480   0.340   1.104
 3532W        W75061  11.778  34.875  13.529
 3533W        W75062   8.638  25.250  12.006
 3534W        W75063  28.686  41.986   0.401
 3535W        W75064  41.813  43.694   2.887
 3536W        W75065   0.466  27.174   0.969
 3537W        W75066  42.771  24.659  13.613
 3538W        W75067  34.576  26.702  14.421
 3539W        W75068  18.146  18.928  11.090
 3540W        W75069  27.596  35.900   1.321
 3541W        W75070  27.123  44.262   4.236
 3542W        W75071  14.250   0.351   0.724
 3543W        W75072   3.503  13.766  13.162
 3544W        W75073  17.364  14.001  14.364
 3545W        W75074   2.918   9.235  13.104
 3546W        W75075  21.144  28.580  10.725
 3547W        W75076  22.525  29.468   2.895
 3548W        W75077  25.274   0.402  14.994
 3549W        W75078  42.432  37.098   3.860
 3550W        W75079  34.548  32.291  10.831
 3551W        W75080   2.461  17.317   1.684
 3552W        W75081  34.988  41.435  12.856
 3553W        W75082   2.816  36.049  12.746
 3554W        W75083   5.985  32.349  14.153
 3555W        W75084   2.443  18.865  13.815
 3556W        W75085   3.678  22.328  11.105
 3557W        W75086   0.185  39.495   0.736
 3558W        W75087   1.232  39.370  12.993
 3559W        W75088  10.014  32.500  14.480
 3560W        W75089   3.255  41.741   0.405
 3561W        W75090  23.052  15.739   4.616
 3562W        W75091  17.222   7.403  11.195
 3563W        W75092   2.248  37.581  14.885
 3564W        W75093   0.758  30.053   0.604
 3565W        W75094  21.212  31.666   0.849
 3566W        W75095   1.109  19.105   1.609
 3567W        W75096   3.543  14.895   1.871
 3568W        W75097  39.947  20.978   4.619
 3569W        W75098   9.000  30.132   2.783
 3570W        W75099  21.760  43.055  12.701
 3571W        W75100   2.278   7.054  13.425
 3572W        W75101  43.282  23.040  13.759
 3573W        W75102  16.447  37.493   3.610
 3574W        W75103   7.316  20.077  10.784
 3575W        W75104  42.871  23.465  13.306
 3576W        W75105  27.087  43.304   0.853
 3577W        W75106  21.605   9.755   0.066
 3578W        W75107   2.484   1.728   3.201
 3579W        W75108  23.463  37.418   2.142
 3580W        W75109   9.451  18.609  11.522
 3581W        W75110  36.437  15.789  12.305
 3582W        W75111  24.748  32.300  12.553
 3583W        W75112  18.847  42.243   1.344
 3584W        W75113  30.688  40.420  12.047
 3585W        W75114  28.079   8.715  14.251
 3586W        W75115  14.274  38.123   2.058
 3587W        W75116  27.098  43.487   3.110
 3588W        W75117  39.882  25.046   2.251
 3589W        W75118  44.116  29.642   3.372
 3590W        W75119  29.309  24.488  13.438
 3591W        W75120  41.541  16.741   1.085
 3592W        W75121  28.596   0.607   0.839
 3593W        W75122  38.435  26.181  12.654
 3594W        W75123  33.987   8.483   4.681
 3595W        W75124  31.107  33.463  12.856
 3596W        W75125  30.374  34.569   4.037
 3597W        W75126  17.265  27.479   0.795
 3598W        W75127  34.820  30.599   1.932
 3599W        W75128  31.011   5.993   1.267
 3600W        W75129  44.671   7.650   1.757
 3601W        W75130  38.465  44.478   1.141
 3602W        W75131  10.371  34.563   1.855
 3603W        W75132  11.164  17.065  14.017
 3604W        W75133   1.040  42.929  12.564
 3605W        W75134  34.619   1.507   2.564
 3606W        W75135  25.171  18.238   0.306
 3607W        W75136  22.501   2.202   0.013
 3608W        W75137  35.950   4.480   1.978
 3609W        W75138  41.526   8.722  12.868
 3610W        W75139   0.843   3.696   0.765
 3611W        W75140   6.065  10.890  12.521
 3612W        W75141  34.156  36.098  10.986
 3613W        W75142   0.270  22.094   5.012
 3614W        W75143  42.457  33.355  11.958
 3615W        W75144  28.960  23.542   0.763
 3616W        W75145   1.920  25.132   1.318
 3617W        W75146  29.247  19.703  12.448
 3618W        W75147  15.487  10.944   4.151
 3619W        W75148  26.758   1.409  13.903
 3620W        W75149  12.311   7.668  11.509
 3621W        W75150  37.269  17.165  13.848
 3622W        W75151  35.937   4.665  12.120
 3623W        W75152  41.016  43.597  11.035
 3624W        W75153  11.795  33.089  14.871
 3625W        W75154   0.707  25.802  11.435
 3626W        W75155   9.261  32.677  14.010
 3627W        W75156  17.307  28.081  11.660
 3628W        W75157  36.755   6.778  13.794
 3629W        W75158  15.184  38.759  11.218
 3630W        W75159   2.974   3.902  10.788
 3631W        W75160  29.657  19.099  13.393
 3632W        W75161   0.469   4.981   1.318
 3633W        W75162  40.514  13.075  13.520
 3634W        W75163  24.000   6.437   4.715
 3635W        W75164  27.140  39.725  12.397
 3636W        W75165  24.575  31.875   4.185
 3637W        W75166   3.803  14.046  13.959
 3638W        W75167  14.151   0.789  11.084
 3639W        W75168  35.599  20.665   2.307
 3640W        W75169   9.357  43.354   3.637
 3641W        W75170   4.803  31.998   0.377
 3642W        W75171  34.942  28.385   4.138
 3643W        W75172   1.837  29.070  11.993
 3644W        W75173  13.428  10.399   0.857
 3645W        W75174  24.739  34.463  12.505
 3646W        W75175  34.561  44.342  10.725
 3647W        W75176  15.037  12.992  11.302
 3648W        W75177  22.646  27.479  14.193
 3649W        W75178  32.134  17.589  13.542
 3650W        W75179   6.800  42.592  13.644
 3651W        W75180  24.615   9.687  13.079
 3652W        W75181  22.572  12.475   3.123
 3653W        W75182   7.956  13.144   2.619
 3654W        W75183  42.341  14.633   0.508
 3655W        W75184  43.438  28.451  12.061
 3656W        W75185   1.798  12.598  12.635
 3657W        W75186   0.495  41.888  14.290
 3658W        W75187  10.131  41.318   5.004
 3659W        W75188  17.158  13.802  11.567
 3660W        W75189   2.869  28.733   3.828
 3661W        W75190   5.880   8.729   3.659
 3662W        W75191   7.345  42.052  13.151
 3663W        W75192  13.037  38.616  11.596
 3664W        W75193  13.341  24.240   4.187
 3665W        W75194   5.798  20.924   2.374
 3666W        W75195  43.543  34.367   0.302
 3667W        W75196  25.726  17.274   4.602
 3668W        W75197   1.566  23.118  12.026
 3669W        W75198  25.616  19.496   5.109
 3670W        W75199  17.655  41.862  12.396
 3671W        W75200  36.634   6.447  13.406
 3672W        W75201  44.780  40.419   3.922
 3673W        W75202  18.147   8.346  13.368
 3674W        W75203   0.914  12.429  11.364
 3675W        W75204  38.835  21.957   3.194
 3676W        W75205   3.085  27.540   3.518
 3677W        W75206   8.748  28.721   3.782
 3678W        W75207   4.945  11.833   1.835
 3679W        W75208  44.295  10.829   3.310
 3680W        W75209  31.448  17.223   1.358
 3681W        W75210  41.371  20.861   3.808
 3682W        W75211   5.216  34.112  12.530
 3683W        W75212  27.639  19.992   1.923
 3684W        W75213   0.990  12.215  10.884
 3685W        W75214  34.077  26.970   0.757
 3686W        W75215  14.425  22.550   1.349
 3687W        W75216  22.090  33.087   3.179
 3688W        W75217  17.737   5.631  14.593
 3689W        W75218  28.975  27.170  10.606
 3690W        W75219   1.856  24.860   4.612
 3691W        W75220  17.825  11.898   2.833
 3692W        W75221  31.661  37.586  10.892
 3693W        W75222   2.591  31.905   1.460
 3694W        W75223   0.672  35.893   3.287
 3695W        W75224  32.224   4.322  10.708
 3696W        W75225   5.878  37.976   2.216
 3697W        W75226  20.045  27.454  11.627
 3698W        W75227  13.290   4.506  13.893
 3699W        W75228  22.538  25.734   1.434
 3700W        W75229  31.580   3.351   0.829
 3701W        W75230  29.994  22.789  14.939
 3702W        W75231  28.722  14.523  11.918
 3703W        W75232  11.770  31.512  11.475
 3704W        W75233  11.711   7.744   3.618
 3705W        W75234   3.304  26.492   1.474
 3706W        W75235  10.760  41.933  13.334
 3707W        W75236  32.926  24.031   0.423
 3708W        W75237   6.216  36.027  13.964
 3709W        W75238  19.136  11.484   2.541
 3710W        W75239  13.666   9.604   2.902
 3711W        W75240  20.085  17.540   3.812
 3712W        W75241  39.377  23.290  11.200
 3713W        W75242   5.818  13.441  13.361
 3714W        W75243  41.388  17.761   2.462
 3715W        W75244   2.972  14.089   4.378
 3716W        W75245   9.945  39.122  13.016
 3717W        W75246  34.461   0.031   4.659
 3718W        W75247  36.379  32.168   0.464
 3719W        W75248  31.673  18.716  10.799
 3720W        W75249  10.876  35.833  12.159
 3721W        W75250  41.398  24.681  14.997
 3722W        W75251  39.808  24.998   3.743
 3723W        W75252   2.532   8.873   4.859
 3724W        W75253  36.841  18.847  10.994
 3725W        W75254  37.068  20.219   1.518
 3726W        W75255  25.104  36.642   3.276
 3727W        W75256  13.618  29.217   0.254
 3728W        W75257  10.993   0.945  13.261
 3729W        W75258  25.018  27.728   4.727
 3730W        W75259  32.925  36.538   2.333
 3731W        W75260  29.714  21.108   2.727
 3732W        W75261  23.414   3.182   3.233
 3733W        W75262  39.903   0.913  13.045
 3734W        W75263  43.188   0.697   0.997
 3735W        W75264  43.996  20.711   4.747
 3736W        W75265  20.297  13.696  13.425
 3737W        W75266  23.618  36.911  12.133
 3738W        W75267  18.852  24.291  13.961
 3739W        W75268  41.735  19.806  10.316
 3740W        W75269  30.589  23.222  10.999
 3741W        W75270  40.531   4.130  12.854
 3742W        W75271  34.580  21.023   4.082
 3743W        W75272   7.286  42.414  10.261
 3744W        W75273  34.651  25.135   4.360
 3745W        W75274  18.169  22.279   0.770
 3746W        W75275   0.435   7.675   1.267
 3747W        W75276  44.186  24.205  12.704
 3748W        W75277  36.300   2.574  11.845
 3749W        W75278   3.366   2.011   2.697
 3750W        W75279  41.367   2.475   3.660
 3751W        W75280  39.774  22.024   2.940
 3752W        W75281  17.115  23.770   3.844
 3753W        W75282  16.717  21.605   0.819
 3754W        W75283  35.625  20.364   0.366
 3755W        W75284  23.448  18.270   2.800
 3756W        W75285  17.478  34.291   1.056
 3757W        W75286  28.571  32.542   4.618
 3758W        W75287  37.052   5.883  14.884
 3759W        W75288  38.357  14.030  12.442
 3760W        W75289  16.994  29.419   2.854
 3761W        W75290  29.123  42.295   2.330
 3762W        W75291  20.163  38.479  12.565
 3763W        W75292  17.840  30.029  11.784
 3764W        W75293  38.823  27.003  11.965
 3765W        W75294  35.215  16.110   3.838
 3766W        W75295  18.131  37.968   0.909
 3767W        W75296  43.049   1.511  12.086
 3768W        W75297  17.053  30.201  14.449
 3769W        W75298   8.866  42.496  14.948
 3770W        W75299  10.757  41.304   1.163
 3771W        W75300  20.918  17.197  11.586
 3772W        W75301   4.320   7.323  10.719
 3773W        W75302  40.326  41.936  11.845
 3774W        W75303  12.839  27.985   4.606
 3775W        W75304   0.941  17.887  13.709
 3776W        W75305   9.607  29.418   4.809
 3777W        W75306  14.332  43.790  11.591
 3778W        W75307  10.401  44.794  12.942
 3779W        W75308  38.658  43.701  11.172
 3780W        W75309  26.605   2.477   4.992
 3781W        W75310   4.046  43.333  13.302
 3782W        W75311  39.055  35.673  12.518
 3783W        W75312  25.976   0.689   0.805
 3784W        W75313  24.984   9.165  12.512
 3785W        W75314  30.461  30.099  14.074
 3786W        W75315  14.770  21.262   2.340
 3787W        W75316  16.145  18.372  10.533
 3788W        W75317  23.129  33.092  13.799
 3789W        W75318  17.229  44.500  14.088
 3790W        W75319  18.251  26.593   1.006
 3791W        W75320  19.551  39.517   1.035
 3792W        W75321  23.526   3.589   3.541
 3793W        W75322  17.777  17.641   2.721
 3794W        W75323  18.150  24.707  12.807
 3795W        W75324  42.640  31.225   2.341
 3796W        W75325  33.581  11.862   4.616
 3797W        W75326  41.025  30.884   4.782
 3798W        W75327  43.222   3.916   3.222
 3799W        W75328  25.503  18.473   2.166
 3800W        W75329  10.162  43.840  14.307
 3801W        W75330  17.944  34.133   1.364
 3802W        W75331   9.651  41.447  10.571
 3803W        W75332  20.688  28.891   1.237
 3804W        W75333  26.080  28.672  10.884
 3805W        W75334  33.444   0.764  13.975
 3806W        W75335  34.768  29.022  11.175
 3807W        W75336   4.221  34.506   3.399
 3808W        W75337  16.496  42.090  13.369
 3809W        W75338  11.324  35.196  13.460
 3810W        W75339  12.570  23.984   1.917
 3811W        W75340   0.926  32.863   3.696
 3812W        W75341  26.145  18.221   0.956
 3813W        W75342  34.576   5.655  14.829
 3814W        W75343  42.907  33.339  11.178
 3815W        W75344  38.099  26.492  11.083
 3816W        W75345  40.769  26.763   2.848
 3817W        W75346  27.963   9.307  13.264
 3818W        W75347  25.981  20.922   3.348
 3819W        W75348  26.323  41.945   3.167
 3820W        W75349  10.071   3.627   5.163
 3821W        W75350  24.735  43.270   4.418
 3822W        W75351  41.943  26.597   1.176
 3823W        W75352  15.836  22.403   5.295
 3824W        W75353  36.785   8.853   4.254
 3825W        W75354   9.758  30.672   4.785
 3826W        W75355  13.850  24.090  10.613
 3827W        W75356  40.225  16.130   3.784
 3828W        W75357  21.693  11.296   4.842
 3829W        W75358  36.736  12.827   1.627
 3830W        W75359  22.182  27.565  13.994
 3831W        W75360   2.416   4.826  13.289
 3832W        W75361   0.340  21.301   0.473
 3833W        W75362  22.681  40.982  11.177
 3834W        W75363   2.475  27.356  11.976
 3835W        W75364  22.974  38.022   0.713
 3836W        W75365  28.873  38.567   3.286
 3837W        W75366  19.392  19.272  11.605
 3838W        W75367  34.234   8.420   2.445
 3839W        W75368  32.699   5.727  12.130
 3840W        W75369  29.769  11.463   4.833
 3841W        W75370  37.660  15.563  14.378
 3842W        W75371  14.718  23.655  13.131
 3843W        W75372   4.308  24.549   0.325
 3844W        W75373  43.243  41.894  14.847
 3845W        W75374  14.835  26.641  11.018
 3846W        W75375  17.638  15.720  14.078
 3847W        W75376  41.576  20.660  11.022
 3848W        W75377  28.136  16.345   0.388
 3849W        W75378   0.394  44.297   3.266
 3850W        W75379  16.301   8.272  12.925
 3851W        W75380  40.764  28.948  12.016
 3852W        W75381  20.428  35.019  14.448
 3853W        W75382  15.243  40.145  11.229
 3854W        W75383  27.877  16.848  14.517
 3855W        W75384  11.665  16.536  11.219
 3856W        W75385  12.685  42.518   2.374
 3857W        W75386  32.434   5.882  10.824
 3858W        W75387  18.166   6.381   2.412
 3859W        W75388  25.508  37.622  14.608
 3860W        W75389  30.879  17.091   1.427
 3861W        W75390  31.307  43.447   0.260
 3862W        W75391  30.289  31.677  12.488
 3863W        W75392  11.192   3.328   3.837
 3864W        W75393  42.280  22.927  14.027
 3865W        W75394   0.937   2.858  11.247
 3866W        W75395  42.558  39.579   2.223
 3867W        W75396   2.008  32.343   2.170
 3868W        W75397   9.847  17.386   3.704
 3869W        W75398   9.310  20.934   0.446
 3870W        W75399  30.382  19.994   4.948
 3871W        W75400  38.798  27.704   0.730
 3872W        W75401  42.774   9.445  12.970
 3873W        W75402   5.821  38.781   3.312
 3874W        W75403  36.167  42.719  12.588
 3875W        W75404  30.136  34.990   4.290
 3876W        W75405  32.945  25.776   2.109
 3877W        W75406  40.493  40.405   2.402
 3878W        W75407   7.703  23.112   3.948
 3879W        W75408  22.786  19.017  11.456
 3880W        W75409   9.739   3.766  11.070
 3881W        W75410  26.000  29.113   2.639
 3882W        W75411  41.977  43.342  13.833
 3883W        W75412  40.334  14.328   5.339
 3884W        W75413   4.089   2.444   3.789
 3885W        W75414  18.192   0.797  12.899
 3886W        W75415  20.635   9.410   1.505
 3887W        W75416  11.764  25.303   0.043
 3888W        W75417   0.002  20.107   2.191
 3889W        W75418  11.730   7.252  11.312
 3890W        W75419   3.360  19.097   4.098
 3891W        W75420  38.582   1.034   3.993
 3892W        W75421  17.573  42.846  13.756
 3893W        W75422  29.817   1.868  13.482
 3894W        W75423  28.174   4.541  12.366
 3895W        W75424  27.000  37.095   4.324
 3896W        W75425  10.317  30.225  12.474
 3897W        W75426  44.332  14.729  11.674
 3898W        W75427  34.951   2.494  14.275
 3899W        W75428  42.209  35.205  11.112
 3900W        W75429  19.452  13.335   3.770
 3901W        W75430   6.657   6.720   0.996
 3902W        W75431   5.485  23.991  14.907
 3903W        W75432   0.047  35.461  13.344
 3904W        W75433  22.519  42.753  12.767
 3905W        W75434  44.068  10.355  13.438
 3906W        W75435   4.486  31.154   1.961
 3907W        W75436  44.957   1.759  11.206
 3908W        W75437  24.652  35.447   0.864
 3909W        W75438  29.912  34.555  13.593
 3910W        W75439   1.035   6.227  13.989
 3911W        W75440  33.586   3.480  13.645
 3912W        W75441  41.546  39.386   1.806
 3913W        W75442  34.396  24.111  10.722
 3914W        W75443  23.178  31.036   1.291
 3915W        W75444  26.881  20.573   0.688
 3916W        W75445  20.050   4.166  12.921
 3917W        W75446   7.206  35.259   0.579
 3918W        W75447   9.405  12.006   2.674
 3919W        W75448   3.713  10.868  10.642
 3920W        W75449   3.178  12.683   4.471
 3921W        W75450  25.010  19.021   3.342
 3922W        W75451  18.245  12.033   4.075
 3923W        W75452  30.668   4.838   1.937
 3924W        W75453  37.474  10.302  14.305
 3925W        W75454  13.146  39.549  12.198
 3926W        W75455  41.817  38.993  14.846
 3927W        W75456   3.729  21.091   4.622
 3928W        W75457  17.230  12.231  12.387
 3929W        W75458  34.324  16.619  10.591
 3930W        W75459  30.878  32.768   3.194
 3931W        W75460   8.847   2.836  11.100
 3932W        W75461   8.365  18.291   2.670
 3933W        W75462  40.193  21.691   4.247
 3934W        W75463  18.070  25.709  14.366
 3935W        W75464  41.612  39.641  12.994
 3936W        W75465  34.569  16.732  12.875
 3937W        W75466  40.597   5.906   9.888
 3938W        W75467  19.091  24.589  12.322
 3939W        W75468  32.356   3.804   0.941
 3940W        W75469  31.087  16.192  13.564
 3941W        W75470  38.055  12.880  10.714
 3942W        W75471   0.016  42.071   3.610
 3943W        W75472  27.155   6.719  12.352
 3944W        W75473  16.357  28.000   3.193
 3945W        W75474   1.345  31.574   2.423
 3946W        W75475  44.283  22.293   1.859
 3947W        W75476  22.541   8.729   2.838
 3948W        W75477   0.995  22.573  12.509
 3949W        W75478  40.045  36.075  12.129
 3950W        W75479   4.717  27.703  12.713
 3951W        W75480  25.927  14.512   2.334
 3952W        W75481  11.199  29.989   1.271
 3953W        W75482  40.220  14.373   2.380
 3954W        W75483  43.439  30.450   3.665
 3955W        W75484  33.517   4.806   9.874
 3956W        W75485  37.275  43.204  11.155
 3957W        W75486  34.389   7.634  13.023
 3958W        W75487  25.088  21.701   2.391
 3959W        W75488  41.515  19.931   0.701
 3960W        W75489   4.468  36.412   0.795
 3961W        W75490  29.142  30.770  10.528
 3962W        W75491  29.079  14.631   2.871
 3963W        W75492  36.508  32.490  12.646
 3964W        W75493   2.380  19.084  12.884
 3965W        W75494  37.484  42.518   1.738
 3966W        W75495  32.471   0.269  13.128
 3967W        W75496  22.695   9.829   0.923
 3968W        W75497   8.413  44.105  10.621
 3969W        W75498  14.471  31.589  14.834
 3970W        W75499   4.779  15.630   4.556
 3971W        W75500  29.257  37.963  10.667
 3972W        W75501  23.622  25.886  12.064
 3973W        W75502   9.292  23.113  10.838
 3974W        W75503  29.979  31.121   3.380
 3975W        W75504   0.160   3.430   2.794
 3976W        W75505  34.016  13.974  11.682
 3977W        W75506  23.186  28.039   2.244
 3978W        W75507  37.327   7.905  12.085
 3979W        W75508  22.630  30.170   4.195
 3980W        W75509  24.557  21.318  10.773
 3981W        W75510  12.366   3.550  14.346
 3982W        W75511  35.041   0.217  14.449
 3983W        W75512  15.756  43.983  12.544
 3984W        W75513   5.014  21.547   4.808
 3985W        W75514  23.615   9.791   1.354
 3986W        W75515   4.040  16.272   1.973
 3987W        W75516  19.013   5.033   0.694
 3988W        W75517  44.896  22.772   1.013
 3989W        W75518  18.246  23.816   3.281
 3990W        W75519  32.439  43.636  11.988
 3991W        W75520  39.062   1.191   0.836
 3992W        W75521   5.804   6.573  11.657
 3993W        W75522  17.752  38.501  10.960
 3994W        W75523  38.831  33.397   2.868
 3995W        W75524  30.644  30.513   0.364
 3996W        W75525  41.844   0.844  11.718
 3997W        W75526  25.524   9.321   2.920
 3998W        W75527  12.089  29.751  14.325
 3999W        W75528  19.107  41.367  10.252
 4000W        W75529   0.407  37.103  14.545
 4001W        W75530   7.527  26.768   1.819
 4002W        W75531   3.503  10.080  14.303
 4003W        W75532  32.043   3.399   4.990
 4004W        W75533   0.875  22.944  14.034
 4005W        W75534  37.114  33.619   4.145
 4006W        W75535   1.250  41.851  10.731
 4007W        W75536   2.596  35.862  13.420
 4008W        W75537  21.546  42.063   4.563
 4009W        W75538  21.289  13.936  13.796
 4010W        W75539  27.124  29.553  11.166
 4011W        W75540  20.768  10.456  11.571
 4012W        W75541  34.924  26.540   2.488
 4013W        W75542  24.811  14.070   4.205
 4014W        W75543  28.097  35.688  12.579
 4015W        W75544  27.510  14.707   3.483
 4016W        W75545  24.239  23.914   2.277
 4017W        W75546  27.580  23.697   0.248
 4018W        W75547  38.926  26.744  10.706
 4019W        W75548  29.219  40.347   2.039
 4020W        W75549  30.655  30.899   3.142
 4021W        W75550  27.977   4.330  11.455
 4022W        W75551  32.719  25.019   0.692
 4023W        W75552  22.772   6.904  11.052
 4024W        W75553  27.070   8.255  13.521
 4025W        W75554  12.298  10.793  13.095
 4026W        W75555  12.237  38.371   0.407
 4027W        W75556  14.631  43.809  12.037
 4028W        W75557  15.705   5.738   2.420
 4029W        W75558  36.871   6.629  12.971
 4030W        W75559  39.903  19.441   4.647
 4031W        W75560  20.266  34.361   1.942
 4032W        W75561  30.572   1.488  13.265
 4033W        W75562  27.093  39.037   3.650
 4034W        W75563   8.711  20.139   1.389
 4035W        W75564  40.629  13.505  14.328
 4036W        W75565  23.632  23.018  10.587
 4037W        W75566  23.247  27.259   0.281
 4038W        W75567  11.402   1.018  11.168
 4039W        W75568  23.084  30.339  13.437
 4040W        W75569  20.306  19.006   2.409
 4041W        W75570  18.505  43.454   3.771
 4042W        W75571  12.726  37.392  12.928
 4043W        W75572  40.938   8.919   2.695
 4044W        W75573  33.879  33.081   3.719
 4045W        W75574  16.031  18.451   1.138
 4046W        W75575  43.540  10.222   3.140
 4047W        W75576  13.274   9.988  12.509
 4048W        W75577   0.224  16.672  14.094
 4049W        W75578  11.792  15.180   1.286
 4050W        W75579   1.465  43.383   4.114
 4051W        W75580  20.735  32.682   2.510
 4052W        W75581  39.146  26.605   0.705
 4053W        W75582  12.836  23.479  13.459
 4054W        W75583  38.960   5.732  11.320
 4055W        W75584  23.952   4.644   2.418
 4056W        W75585  38.654  21.074   0.355
 4057W        W75586   2.388  34.990  14.453
 4058W        W75587  40.268  34.452  13.854
 4059W        W75588   5.703  32.580   1.552
 4060W        W75589  25.511  17.654  10.982
 4061W        W75590  11.823  39.980  12.827
 4062W        W75591  20.257   9.738  11.362
 4063W        W75592  12.630   7.600   3.160
 4064W        W75593  17.831   2.195   3.192
 4065W        W75594  35.516  43.308   3.587
 4066W        W75595   7.196   4.692  12.417
 4067W        W75596   2.511  15.630   4.924
 4068W        W75597   1.428   4.230  13.668
 4069W        W75598  10.429  13.210  14.060
 4070W        W75599  28.997  25.700  11.108
 4071W        W75600  15.294  24.226   0.257
 4072W        W75601  33.884  22.171   0.931
 4073W        W75602  33.424  15.329   0.033
 4074W        W75603  23.290   3.250  12.916
 4075W        W75604  33.832   2.883  11.497
 4076W        W75605  34.986  30.844  11.932
 4077W        W75606  19.757  29.397   1.928
 4078W        W75607   2.283   7.918   3.252
 4079W        W75608  37.307  38.798  14.872
 4080W        W75609  28.965  42.913  12.874
 4081W        W75610  44.197   9.821  12.047
 4082W        W75611  34.212  38.533  12.481
 4083W        W75612  30.837  33.043   1.940
 4084W        W75613  38.612   0.152  10.135
 4085W        W75614  28.398  38.654   1.667
 4086W        W75615   2.048   3.944   3.691
 4087W        W75616  35.076  31.583   3.170
 4088W        W75617  24.623  42.814   4.723
 4089W        W75618  36.254   6.790  10.679
 4090W        W75619   6.759  28.150   2.406
 4091W        W75620   7.179   0.458  13.904
 4092W        W75621  21.305  35.182   1.862
 4093W        W75622  29.485  40.756   3.711
 4094W        W75623  40.268  28.437  11.913
 4095W        W75624   5.806  16.644   2.276
 4096W        W75625  15.494   1.816  11.985
 4097W        W75626  33.945  28.888  12.478
 4098W        W75627  14.127  10.430   2.683
 4099W        W75628   2.014  36.741   4.555
 4100W        W75629  31.517  43.556   1.935
 4101W        W75630   4.270  41.447  13.511
 4102W        W75631  20.055  26.160  12.999
 4103W        W75632  12.590  34.071   0.336
 4104W        W75633  26.805  41.595  12.027
 4105W        W75634  17.088  27.713   0.358
 4106W        W75635  19.801   9.848   2.747
 4107W        W75636   8.887  13.358  11.515
 4108W        W75637  37.964  24.569   2.731
 4109W        W75638   3.529  32.905  12.387
 4110W        W75639  18.751  15.252   2.818
 4111W        W75640  27.488  20.200   2.394
 4112W        W75641  30.968  36.376  11.590
 4113W        W75642  13.203  25.902  10.419
 4114W        W75643  43.908  28.371  11.885
 4115W        W75644  23.199  42.519  14.421
 4116W        W75645  24.966  30.526  13.543
 4117W        W75646  10.936  35.019   3.029
 4118W        W75647  22.779   9.640  12.919
 4119W        W75648  16.069  37.588   2.115
 4120W        W75649   0.234   0.611  12.009
 4121W        W75650  40.521  33.094  10.599
 4122W        W75651  21.032   4.660   1.196
 4123W        W75652   6.952  36.896   4.184
 4124W        W75653   0.984   4.001  11.700
 4125W        W75654   6.470   1.268  12.358
 4126W        W75655  22.559  37.346   0.748
 4127W        W75656  13.555   0.036   3.927
 4128W        W75657  23.507  43.606   3.743
 4129W        W75658  32.153   3.127   9.771
 4130W        W75659  17.008   8.856   3.131
 4131W        W75660  36.515  25.949   4.502
 4132W        W75661  35.728  16.225   3.888
 4133W        W75662  41.937  14.144  11.482
 4134W        W75663  29.484  33.866  13.618
 4135W        W75664   2.273   4.672   0.175
 4136W        W75665  15.311   1.315   3.430
 4137W        W75666   4.756  28.360   1.509
 4138W        W75667  42.848  24.967   3.789
 4139W        W75668  30.052  43.083   4.637
 4140W        W75669  41.751   2.209  12.586
 4141W        W75670  18.304  42.689   3.340
 4142W        W75671  22.777   7.818  11.143
 4143W        W75672  11.171  32.594  13.322
 4144W        W75673  22.863   0.913  11.505
 4145W        W75674  16.375  35.682  12.924
 4146W        W75675  26.271  26.080   1.099
 4147W        W75676  40.880  35.979  12.526
 4148W        W75677  12.597   2.480   4.058
 4149W        W75678   1.000   3.463  11.985
 4150W        W75679  26.459  34.866  11.342
 4151W        W75680   2.969  27.268  11.832
 4152W        W75681  37.108  35.793  11.114
 4153W        W75682  43.103  11.883  11.912
 4154W        W75683  33.529  37.846  10.999
 4155W        W75684  32.181  21.111  12.021
 4156W        W75685  44.802   9.605   3.162
 4157W        W75686  38.559  27.614  12.047
 4158W        W75687  17.721  17.556   4.486
 4159W        W75688  31.082   2.570   2.931
 4160W        W75689  32.056  13.533  14.972
 4161W        W75690  43.162  30.193  11.655
 4162W        W75691  23.244  18.583  14.453
 4163W        W75692  35.026  19.123   0.404
 4164W        W75693  14.242  20.303   2.831
 4165W        W75694  29.397  20.579   0.698
 4166W        W75695  36.309  17.770  13.928
 4167W        W75696  20.615  27.498   1.445
 4168W        W75697  35.524  16.647  14.553
 4169W        W75698   5.870  11.098   2.620
 4170W        W75699   3.818  35.696  10.300
 4171W        W75700   0.746   4.528  11.304
 4172W        W75701  19.563   9.256  13.963
 4173W        W75702   9.882  11.259  10.541
 4174W        W75703  35.965   8.381  11.544
 4175W        W75704   9.196   6.200  14.945
 4176W        W75705  40.110   7.157   0.716
 4177W        W75706  35.565  25.906   1.607
 4178W        W75707  36.078  26.623  14.781
 4179W        W75708  19.335  30.490  12.504
 4180W        W75709  36.082  13.146  13.324
 4181W        W75710  35.867  37.487   2.715
 4182W        W75711   6.274  17.129   9.843
 4183W        W75712  39.649   2.343   2.671
 4184W        W75713   2.365   9.383   0.751
 4185W        W75714  22.052  41.803  14.787
 4186W        W75715  30.742  31.646   0.860
 4187W        W75716  27.136  25.665   2.000
 4188W        W75717  40.485  42.952  11.691
 4189W        W75718  11.407  32.187   3.454
 4190W        W75719  20.302  29.830  12.460
 4191W        W75720   4.514   9.405  13.052
 4192W        W75721  22.627  18.352   1.213
 4193W        W75722  18.900   3.882   3.801
 4194W        W75723   2.585   1.519  14.320
 4195W        W75724  42.381   2.291  11.924
 4196W        W75725  32.010  35.099   0.897
 4197W        W75726  37.863   9.663  14.805
 4198W        W75727  29.341  26.593  11.831
 4199W        W75728  20.969  30.688   3.300
 4200W        W75729   6.761  42.826  12.400
 4201W        W75730   4.866  15.701  11.585
 4202W        W75731  40.899  31.256   3.499
 4203W        W75732  35.547  30.106  12.836
 4204W        W75733   9.308  12.777  14.603
 4205W        W75734   0.695  39.923  14.240
 4206W        W75735  22.558  19.683  13.554
 4207W        W75736  21.688  27.527  14.260
 4208W        W75737  17.713  35.613   0.283
 4209W        W75738  42.913  29.884  11.988
 4210W        W75739  44.941  41.315  12.520
 4211W        W75740  24.178  24.665   1.167
 4212W        W75741  29.052  29.394   2.222
 4213W        W75742  39.055   8.823  12.410
 4214W        W75743  27.361  33.462   0.418
 4215W        W75744  26.261  38.164  10.842
 4216W        W75745  17.786   5.421   1.273
 4217W        W75746   5.476  28.399  14.892
 4218W        W75747  10.858  40.039  11.990
 4219W        W75748   9.893  13.651   0.327
 4220W        W75749  27.911  24.100  12.495
 4221W        W75750  43.348  31.637   1.892
 4222W        W75751  35.411   7.941  14.913
 4223W        W75752   7.399  32.634  13.930
 4224W        W75753  22.258   1.494   0.494
 4225W        W75754  34.117  16.785   1.875
 4226W        W75755  37.671  22.381  13.290
 4227W        W75756  33.431  15.295   0.968
 4228W        W75757   4.967  36.529  11.524
 4229W        W75758   4.339  36.353   1.745
 4230W        W75759  29.496  35.267   0.398
 4231W        W75760  21.680  20.643   4.519
 4232W        W75761  36.108  37.445   4.560
 4233W        W75762  35.465  32.814   4.107
 4234W        W75763   7.197  29.461   0.107
 4235W        W75764  42.500  32.906  13.866
 4236W        W75765  21.707  37.527   0.705
 4237W        W75766  19.824  42.922  11.067
 4238W        W75767  25.213  38.989   1.653
 4239W        W75768  22.697  39.216   1.421
 4240W        W75769  12.148  44.021   0.923
 4241W        W75770  23.932  27.078  10.301
 4242W        W75771  23.273  10.080   3.918
 4243W        W75772  29.338   7.149  13.450
 4244W        W75773  35.966  33.641   0.738
 4245W        W75774  17.252  15.882  14.374
 4246W        W75775  38.057   8.852  14.179
 4247W        W75776  12.435  34.637  12.367
 4248W        W75777  35.413   1.939   2.164
 4249W        W75778  12.313  11.152  13.506
 4250W        W75779  32.932  27.279  11.474
 4251W        W75780  11.740  41.388  11.586
 4252W        W75781  33.479  41.246   0.773
 4253W        W75782  34.409  31.708  12.096
 4254W        W75783  31.662  36.819   2.884
 4255W        W75784  14.038  12.204  10.663
 4256W        W75785  13.544  43.023  13.454
 4257W        W75786   6.330   2.979  14.910
 4258W        W75787  33.394  29.394  11.235
 4259W        W75788  11.445  40.095  11.514
 4260W        W75789   1.443  22.830  12.496
 4261W        W75790  25.976   0.201   0.597
 4262W        W75791  25.101  20.812  12.588
 4263W        W75792  10.312   5.179   1.224
 4264W        W75793  29.380   8.594   1.141
 4265W        W75794   6.749  24.887   1.829
 4266W        W75795  40.113  30.487   0.453
 4267W        W75796  15.044  14.909  11.099
 4268W        W75797  12.071   8.449   4.704
 4269W        W75798   9.799  29.989  10.913
 4270W        W75799  25.071   5.855   1.382
 4271W        W75800  13.075  17.677  14.497
 4272W        W75801  34.680  31.548  11.254
 4273W        W75802  18.127  22.784  11.600
 4274W        W75803  29.791  35.638   2.242
 4275W        W75804  20.123   3.666  12.816
 4276W        W75805  27.567  24.472  13.373
 4277W        W75806  44.690  13.672  11.520
 4278W        W75807  43.556  26.043   1.024
 4279W        W75808  38.057  13.878   4.162
 4280W        W75809  20.185   6.391   3.609
 4281W        W75810  21.568   9.990  11.449
 4282W        W75811  26.236   3.622   4.283
 4283W        W75812  27.932  37.108   2.260
 4284W        W75813  23.171   0.777  13.875
 4285W        W75814   6.591  26.627   2.336
 4286W        W75815  44.547  28.702   1.764
 4287W        W75816  14.890  13.393   1.342
 4288W        W75817  21.640  42.867   1.866
 4289W        W75818   0.074  21.031   2.429
 4290W        W75819  23.413   2.235   1.796
 4291W        W75820  14.125  29.553  12.487
 4292W        W75821  37.153  26.508   0.080
 4293W        W75822  16.212   8.012   4.137
 4294W        W75823  21.497  22.413  11.392
 4295W        W75824  21.170  17.820  10.199
 4296W        W75825  16.558  22.954  10.273
 4297W        W75826  22.799  37.385  11.296
 4298W        W75827   1.142   1.410  13.431
 4299W        W75828  25.784  22.172   2.261
 4300W        W75829  19.508  37.870   0.253
 4301W        W75830  13.552   2.066  12.155
 4302W        W75831  35.094   5.276  12.081
 4303W        W75832  16.957  44.842  14.905
 4304W        W75833   5.645  24.541  10.728
 4305W        W75834  33.658  13.168   1.046
 4306W        W75835   0.468  33.135   2.154
 4307W        W75836  25.264  36.436  13.045
 4308W        W75837   1.325  20.043  12.156
 4309W        W75838  18.810  25.266   3.256
 4310W        W75839   6.799  20.810  11.607
 4311W        W75840  18.501  37.590  14.249
 4312W        W75841  29.748  10.031   0.430
 4313W        W75842  19.517  11.684   3.160
 4314W        W75843  25.527  33.333  13.107
 4315W        W75844  41.939  44.381  13.516
 4316W        W75845  33.368   5.688  14.027
 4317W        W75846  35.970  34.972  12.957
 4318W        W75847  43.513  13.090  13.378
 4319W        W75848  28.170   9.132  11.362
 4320W        W75849  15.850  20.148  11.553
 4321W        W75850  14.138  24.028  11.750
 4322W        W75851  22.716  24.670  11.692
 4323W        W75852  44.826  32.662   4.161
 4324W        W75853  42.882  19.073   4.711
 4325W        W75854  36.376  43.074   1.661
 4326W        W75855  35.984  27.394  12.193
 4327W        W75856  13.120  42.360  14.937
 4328W        W75857  20.834  30.246   4.099
 4329W        W75858  34.031  32.843   1.995
 4330W        W75859  36.827  32.409  14.563
 4331W        W75860  31.092  37.510   0.303
 4332W        W75861  43.367  24.171  11.341
 4333W        W75862   2.165  33.619   3.436
 4334W        W75863  10.872  44.416  14.055
 4335W        W75864  32.127  16.597   0.172
 4336W        W75865  31.968   5.632  14.811
 4337W        W75866  12.280  17.392   2.887
 4338W        W75867  37.528  35.390  13.938
 4339W        W75868  29.453  38.338   4.618
 4340W        W75869  18.532  43.166   1.402
 4341W        W75870  41.002  22.305   3.250
 4342W        W75871   2.848  37.039  13.006
 4343W        W75872   3.000   4.730   1.399
 4344W        W75873  44.490  14.264  12.412
 4345W        W75874  27.279  43.980   3.163
 4346W        W75875  23.606  10.164  13.058
 4347W        W75876  22.781  42.807  14.548
 4348W        W75877   2.763  19.353   0.788
 4349W        W75878  24.931  26.944  13.886
 4350W        W75879  36.812   4.134   2.403
 4351W        W75880  28.088  22.027   3.645
 4352W        W75881  25.479  13.389  13.886
 4353W        W75882  20.698   5.380   0.338
 4354W        W75883  37.313  32.340  14.762
 4355W        W75884  11.206  31.048   0.451
 4356W        W75885  34.593  34.896   3.374
 4357W        W75886  28.383  14.884   3.654
 4358W        W75887  37.301  30.631  13.919
 4359W        W75888  39.984  22.170   1.927
 4360W        W75889  22.128   2.199   4.307
 4361W        W75890  26.991  35.222   4.602
 4362W        W75891  14.481  17.625  11.135
 4363W        W75892  19.194  31.049  13.503
 4364W        W75893  33.734  32.102   4.593
 4365W        W75894  21.512  39.548  13.082
 4366W        W75895  38.776  37.896  11.954
 4367W        W75896   1.232  44.338   2.716
 4368W        W75897  22.312  14.551   4.779
 4369W        W75898  23.447  41.895  13.514
 4370W        W75899  29.166  28.648   4.121
 4371W        W75900  30.873  10.517   2.320
 4372W        W75901  36.037  28.450   0.792
 4373W        W75902  30.548  38.075  13.499
 4374W        W75903  18.399  33.564  12.023
 4375W        W75904   3.307  12.095   1.244
 4376W        W75905  40.982  17.895  13.452
 4377W        W75906  29.079  34.559   1.225
 4378W        W75907   0.890  42.710   3.750
 4379W        W75908  11.182  35.431   1.806
 4380W        W75909  35.122  25.864  12.360
 4381W        W75910  17.036  41.449   4.653
 4382W        W75911  43.346  29.407   1.232
 4383W        W75912  14.770  13.289  14.580
 4384W        W75913   3.896  20.303  11.967
 4385W        W75914  32.281   9.661   2.711
 4386W        W75915  41.486  14.350  12.655
 4387W        W75916  15.527   2.016   4.240
 4388W        W75917  36.620  32.954   2.688
 4389W        W75918  37.525  16.507   0.353
 4390W        W75919  32.106  39.228  10.656
 4391W        W75920  22.067  31.592  14.778
 4392W        W75921  12.752  33.224  11.557
 4393W        W75922  41.491  37.770   4.156
 4394W        W75923  31.177  38.997  13.891
 4395W        W75924   0.614   8.862  11.557
 4396W        W75925  24.737   0.341   1.288
 4397W        W75926  12.191   7.387  11.108
 4398W        W75927  30.010  27.226  12.835
 4399W        W75928  39.753  40.481  12.430
 4400W        W75929  43.835  19.804  14.279
 4401W        W75930  44.606  20.823   0.488
 4402W        W75931  34.876  39.480   2.355
 4403W        W75932  29.956  36.343   0.989
 4404W        W75933  26.059  28.141  14.114
 4405W        W75934  11.118  32.060  11.554
 4406W        W75935  22.977  23.261  14.441
 4407W        W75936  40.945  33.855  13.529
 4408W        W75937  31.047   9.649  12.934
 4409W        W75938   9.939  26.073  11.137
 4410W        W75939  16.604  43.067  10.222
 4411W        W75940  18.213   3.691  14.430
 4412W        W75941  21.404  42.811  14.158
 4413W        W75942  22.527  34.874   1.320
 4414W        W75943  42.214  21.560   2.267
 4415W        W75944  20.194  34.626  11.106
 4416W        W75945  20.050  32.388   1.156
 4417W        W75946  25.698  18.720   2.642
 4418W        W75947  43.598   3.704  14.023
 4419W        W75948   4.084  27.474   3.804
 4420W        W75949  40.499   6.434  14.240
 4421W        W75950   7.166  31.931  11.968
 4422W        W75951   0.477  35.196  10.318
 4423W        W75952  25.722  42.991  11.225
 4424W        W75953   0.489   8.190  12.999
 4425W        W75954  21.296   7.375  14.742
 4426W        W75955  34.784   2.900  14.015
 4427W        W75956   3.900  30.431   1.692
 4428W        W75957  32.406  11.441  14.355
 4429W        W75958  13.412  10.908   2.398
 4430W        W75959   7.249  14.306   1.318
 4431W        W75960  22.135  16.813   1.496
 4432W        W75961   3.774  14.632  12.555
 4433W        W75962  31.991   4.988   3.595
 4434W        W75963   2.790  23.123   0.029
 4435W        W75964  23.224  13.148  13.273
 4436W        W75965  36.675  28.118  14.147
 4437W        W75966   9.365  16.670   0.477
 4438W        W75967  21.346  18.113  13.407
 4439W        W75968  41.877  24.446   2.222
 4440W        W75969  19.711  21.980   3.953
 4441W        W75970   4.264  31.101  11.313
 4442W        W75971   7.737  18.267  11.995
 4443W        W75972   5.276   0.882  10.689
 4444W        W75973  36.098   1.250   2.213
 4445W        W75974  32.009  28.194  11.581
 4446W        W75975  12.416   9.314   4.119
 4447W        W75976   8.378  23.071   4.809
 4448W        W75977   0.349  18.988  11.563
 4449W        W75978  30.954  26.054  12.382
 4450W        W75979  42.491  12.070  13.740
 4451W        W75980  30.632   7.658   0.463
 4452W        W75981   5.862  43.552   2.414
 4453W        W75982  38.097  26.822   3.148
 4454W        W75983  39.138  42.211   3.195
 4455W        W75984  39.037  40.798  13.033
 4456W        W75985  25.105  31.006  13.323
 4457W        W75986  43.533  37.926  14.064
 4458W        W75987  20.227  26.104  12.478
 4459W        W75988  37.008  19.456  13.552
 4460W        W75989  23.114  32.816   0.305
 4461W        W75990   4.711  16.655  12.528
 4462W        W75991  44.975   2.556   3.076
 4463W        W75992  21.411  34.057  10.477
 4464W        W75993   0.842   7.454  11.553
 4465W        W75994  34.531  30.037  13.977
 4466W        W75995  27.563  23.618   4.119
 4467W        W75996   4.731  24.368   1.659
 4468W        W75997  44.034   6.825   1.449
 4469W        W75998  15.484   2.029   0.039
 4470W        W75999  29.904  16.095  13.048
 4471W        W76000   7.197  27.037  14.968
 4472W        W76001  35.370  41.325  14.931
 4473W        W76002  34.208  39.408   4.342
 4474W        W76003   1.880  16.252  11.788
 4475W        W76004  25.244  32.082   4.908
 4476W        W76005  26.535  18.500   2.535
 4477W        W76006   5.972  16.654  11.907
 4478W        W76007  36.329  38.839   2.831
 4479W        W76008  37.885  36.947  10.416
 4480W        W76009   7.151  13.206   2.011
 4481W        W76010  10.680  12.234   4.990
 4482W        W76011  19.741  22.222  12.033
 4483W        W76012  15.224  11.309  12.468
 4484W        W76013  41.324   4.237  14.556
 4485W        W76014   4.699  13.938  12.942
 4486W        W76015   9.391  41.848  13.053
 4487W        W76016   3.349  39.664  11.852
 4488W        W76017  40.612  18.276   2.196
 4489W        W76018  43.838  28.389  13.748
 4490W        W76019   8.826   0.722   1.781
 4491W        W76020  18.651  39.684   1.306
 4492W        W76021   2.448  43.948   0.535
 4493W        W76022  19.738   2.927  10.583
 4494W        W76023   8.804   7.714  11.398
 4495W        W76024  24.121  10.555  12.941
 4496W        W76025   0.808   2.801   4.506
 4497W        W76026  33.572  42.788   0.966
 4498W        W76027   3.330  30.588  12.932
 4499W        W76028  25.183  22.959  13.872
 4500W        W76029  12.382  37.974   2.242
 4501W        W76030   4.709   7.382   0.307
 4502W        W76031  26.718  43.328  12.882
 4503W        W76032  12.835  23.538   4.555
 4504W        W76033  21.269  15.715  13.632
 4505W        W76034  34.387  19.797  14.924
 4506W        W76035  36.084  37.419   3.186
 4507W        W76036   2.551   5.872   1.478
 4508W        W76037  11.122  27.128  12.632
 4509W        W76038  43.804  13.376  14.499
 4510W        W76039  19.434   7.380  11.600
 4511W        W76040  38.611  22.609   3.267
 4512W        W76041  26.230  29.415   1.793
 4513W        W76042  33.634  35.172   2.291
 4514W        W76043  16.501  27.530   4.594
 4515W        W76044  10.252  32.335  14.978
 4516W        W76045   7.011  38.126   1.344
 4517W        W76046  19.081  12.636   0.114
 4518W        W76047  26.931  38.685  11.125
 4519W        W76048  23.941  24.518  12.749
 4520W        W76049  27.740  33.466   2.130
 4521W        W76050  11.738   3.353   3.731
 4522W        W76051  10.937  22.640   1.313
 4523W        W76052   2.928   2.960   4.633
 4524W        W76053  35.737  18.721  14.247
 4525W        W76054  42.317  13.953  11.118
 4526W        W76055  16.704   9.796  11.381
 4527W        W76056  18.772  31.731   2.120
 4528W        W76057  15.816   8.696   3.828
 4529W        W76058   6.001  42.749   4.496
 4530W        W76059  35.970  32.879  14.451
 4531W        W76060  15.473  31.004   1.881
 4532W        W76061  21.725  42.244  12.570
 4533W        W76062   0.614  22.648  10.302
 4534W        W76063  12.474   3.806  11.378
 4535W        W76064  29.081   9.686   1.756
 4536W        W76065  27.734  43.254  13.928
 4537W        W76066   8.287  15.784   1.882
 4538W        W76067  17.778  10.647   3.202
 4539W        W76068  24.361   4.323   1.709
 4540W        W76069   6.299  10.452  11.659
 4541W        W76070  28.497  44.012  11.504
 4542W        W76071   0.933  44.889   2.745
 4543W        W76072  13.362   6.263  14.673
 4544W        W76073  19.553  23.150  12.898
 4545W        W76074  43.532  36.093  13.956
 4546W        W76075  30.747   1.861   2.225
 4547W        W76076   6.200  42.534  14.518
 4548W        W76077  14.698   9.986  13.339
 4549W        W76078   4.341  43.596  14.958
 4550W        W76079  19.072  31.318   5.136
 4551W        W76080  43.623  32.829  13.225
 4552W        W76081   8.789  44.674   1.882
 4553W        W76082  34.444   8.795   3.873
 4554W        W76083  18.010   2.942  14.905
 4555W        W76084  22.536   2.750  14.977
 4556W        W76085  42.388  37.813  11.147
 4557W        W76086  12.068  33.745   0.626
 4558W        W76087  25.237   4.600  12.492
 4559W        W76088  38.710  32.982  14.399
 4560W        W76089  25.997  32.049  12.717
 4561W        W76090  19.233  35.388   2.902
 4562W        W76091  35.639  37.464   2.208
 4563W        W76092  20.242  30.417  11.128
 4564W        W76093  15.113  17.243  14.883
 4565W        W76094  14.392  18.978   1.780
 4566W        W76095  14.193  18.769   3.292
 4567W        W76096  15.990  29.371   4.581
 4568W        W76097  29.912   6.111  11.216
 4569W        W76098   9.503  30.272   2.836
 4570W        W76099  17.552   5.715   3.152
 4571W        W76100  29.683   9.406   1.232
 4572W        W76101  42.939  10.356  12.919
 4573W        W76102   7.755  40.797  14.820
 4574W        W76103  33.539  21.691   4.571
 4575W        W76104   1.223  17.727  12.963
 4576W        W76105  18.711  36.538  11.455
 4577W        W76106  33.420  41.758  12.052
 4578W        W76107  31.464  17.498  14.863
 4579W        W76108   5.861  42.037  11.159
 4580W        W76109  16.642  31.578   3.827
 4581W        W76110  18.487  40.198   1.180
 4582W        W76111  21.066  35.087   0.353
 4583W        W76112  22.715  22.710   0.730
 4584W        W76113  30.643  10.720  12.631
 4585W        W76114  43.962  42.159  13.118
 4586W        W76115  31.194  28.161   2.308
 4587W        W76116  34.321  22.199  12.059
 4588W        W76117  19.781  25.742  13.895
 4589W        W76118  27.906   9.880   0.423
 4590W        W76119   2.952  35.195   0.139
 4591W        W76120  19.142  21.751   5.128
 4592W        W76121   7.859  26.625   5.212
 4593W        W76122  39.460  32.160  13.368
 4594W        W76123  21.053  14.789  10.756
 4595W        W76124  18.985   7.421   0.283
 4596W        W76125  28.744  29.053  10.678
 4597W        W76126  22.551  11.940   3.106
 4598W        W76127  33.416   0.782  11.118
 4599W        W76128  34.841  28.547   0.267
 4600W        W76129  28.477  30.459   0.673
 4601W        W76130  43.919  21.052   5.201
 4602W        W76131  44.350  43.723   3.256
 4603W        W76132  27.920  11.388   3.545
 4604W        W76133  42.827   8.191   0.697
 4605W        W76134  28.010   8.393  10.664
 4606W        W76135  25.608  30.773   3.146
 4607W        W76136  37.398  20.439   4.198
 4608W        W76137   9.225  21.827   4.421
 4609W        W76138  19.254   9.603   4.338
 4610W        W76139  43.127  25.101  14.420
 4611W        W76140  21.692  23.905  12.634
 4612W        W76141  11.369  20.984  14.891
 4613W        W76142  13.502  35.754  13.937
 4614W        W76143  12.784  43.057   0.320
 4615W        W76144   4.564  24.948  10.987
 4616W        W76145  27.908  27.109   1.157
 4617W        W76146  23.118  37.022   2.857
 4618W        W76147  22.158  39.676  11.155
 4619W        W76148  13.507   9.960  10.315
 4620W        W76149  38.044   4.242  11.569
 4621W        W76150  10.636   6.611  14.872
 4622W        W76151  12.615  33.540   4.301
 4623W        W76152   9.091  42.064   0.788
 4624W        W76153  22.065  30.086   1.964
 4625W        W76154   4.089   0.438   3.685
 4626W        W76155  14.214  12.803  13.378
 4627W        W76156  17.739  37.679   4.658
 4628W        W76157  35.913  21.967  13.638
 4629W        W76158  26.213  33.208  14.452
 4630W        W76159  18.940  16.874  13.515
 4631W        W76160  10.212  20.539  12.793
 4632W        W76161  30.876  21.105  12.043
 4633W        W76162   4.722   6.497  10.646
 4634W        W76163   9.868  44.422   3.861
 4635W        W76164  25.024  31.580   0.358
 4636W        W76165  26.920  26.765  13.778
 4637W        W76166  13.683   3.954  12.161
 4638W        W76167   7.399  39.323  14.064
 4639W        W76168  32.472  36.559  12.986
 4640W        W76169  11.130  39.919  14.103
 4641W        W76170   9.775  11.401   1.948
 4642W        W76171  14.862  39.318  13.270
 4643W        W76172  19.692  11.999   3.988
 4644W        W76173  43.861   3.416  13.676
 4645W        W76174   6.355  40.109  13.037
 4646W        W76175   3.399  27.920  11.591
 4647W        W76176   9.767  36.309  13.536
 4648W        W76177  44.062  21.126  13.780
 4649W        W76178  31.451  34.410  13.059
 4650W        W76179   5.172   9.746  13.535
 4651W        W76180  27.048  11.804  12.378
 4652W        W76181  14.676  40.078  12.476
 4653W        W76182  20.791  34.283   2.063
 4654W        W76183  30.895  24.052  14.368
 4655W        W76184   9.252  39.518  10.912
 4656W        W76185  18.629  10.244   3.125
 4657W        W76186  44.402  32.574   1.794
 4658W        W76187  13.017  26.589   1.829
 4659W        W76188  10.231  12.570  12.219
 4660W        W76189   8.401   0.978   2.648
 4661W        W76190  11.705  43.227  14.354
 4662W        W76191   0.504  31.531  12.044
 4663W        W76192  10.737  39.736  11.592
 4664W        W76193  43.808  33.047  10.264
 4665W        W76194  15.665  26.574  13.853
 4666W        W76195  38.415  26.535   4.155
 4667W        W76196  14.666  26.886  10.569
 4668W        W76197  43.057  12.081  11.417
 4669W        W76198  24.216  36.445   2.030
 4670W        W76199  13.076   5.263   1.769
 4671W        W76200  30.575  41.612   1.679
 4672W        W76201  13.003  44.320   4.491
 4673W        W76202  20.856   5.926  10.420
 4674W        W76203  26.189   3.378   2.090
 4675W        W76204   3.353  29.694  13.211
 4676W        W76205  13.932  31.989   0.881
 4677W        W76206  36.859  34.004   4.386
 4678W        W76207   7.036  13.675  13.750
 4679W        W76208   7.697  21.484   4.215
 4680W        W76209  15.967  22.915   1.261
 4681W        W76210  35.590  17.792   3.744
 4682W        W76211  31.520  28.892  10.771
 4683W        W76212  10.601  13.436   0.856
 4684W        W76213  29.160  44.706  12.117
 4685W        W76214  35.885  39.940  12.668
 4686W        W76215  28.036  39.065   1.724
 4687W        W76216   0.185  11.839  11.109
 4688W        W76217  19.088  23.921   1.726
 4689W        W76218   5.654  21.724   1.324
 4690W        W76219  28.763  37.324   1.196
 4691W        W76220  11.236  23.995  12.482
 4692W        W76221   5.777   9.086  14.468
 4693W        W76222   1.422  26.644  10.551
 4694W        W76223  11.922  13.596   3.654
 4695W        W76224  22.203  40.083  14.331
 4696W        W76225   2.854  23.483   1.230
 4697W        W76226  36.983   6.398  10.746
 4698W        W76227  18.412  38.863   4.564
 4699W        W76228  10.662  37.422  14.700
 4700W        W76229   0.537  12.890  12.241
 4701W        W76230  12.953  17.565   4.206
 4702W        W76231  41.323  40.080  10.953
 4703W        W76232  13.667   8.002  11.526
 4704W        W76233  17.252  31.021  11.055
 4705W        W76234  21.661  31.231   2.175
 4706W        W76235   1.628  44.855  13.796
 4707W        W76236  19.779  17.236   0.274
 4708W        W76237  13.617  29.617  12.475
 4709W        W76238  19.401  27.995   3.240
 4710W        W76239  13.410   0.925  10.228
 4711W        W76240  33.833  39.286  13.305
 4712W        W76241  13.729   3.513  11.926
 4713W        W76242  41.405  23.573   3.008
 4714W        W76243  28.244  25.277   1.482
 4715W        W76244   6.366  13.630  11.187
 4716W        W76245  29.911  20.528   4.418
 4717W        W76246  27.100  32.791   2.795
 4718W        W76247  12.070  40.411  10.665
 4719W        W76248   4.531  33.436  11.476
 4720W        W76249   5.688  14.764   0.593
 4721W        W76250  19.879  32.641   3.344
 4722W        W76251  44.103  38.552  11.122
 4723W        W76252  37.900  13.909  10.537
 4724W        W76253  32.327  32.162  14.383
 4725W        W76254   7.498  31.115   1.456
 4726W        W76255   7.933   3.058  13.049
 4727W        W76256  21.262  16.170   2.710
 4728W        W76257  15.726  29.420   0.422
 4729W        W76258  13.625  30.617  11.768
 4730W        W76259   0.862  31.980  10.056
 4731W        W76260  14.554   6.924  14.405
 4732W        W76261  28.078   6.138   3.669
 4733W        W76262  13.566   5.245   3.700
 4734W        W76263  10.876   4.933   3.750
 4735W        W76264  21.263   1.549   1.282
 4736W        W76265  44.686  30.940  12.019
 4737W        W76266  11.359  13.795   0.544
 4738W        W76267  28.437  43.015  10.009
 4739W        W76268   2.780  36.608   1.253
 4740W        W76269  41.513  13.898   2.307
 4741W        W76270  19.732  25.021  12.596
 4742W        W76271  23.100   1.312   4.842
 4743W        W76272   1.398  30.454   0.953
 4744W        W76273   7.334   1.880  11.914
 4745W        W76274  11.766  21.146  13.084
 4746W        W76275  20.137  32.532  12.847
 4747W        W76276  33.956  39.417   3.865
 4748W        W76277   0.101  24.267  14.022
 4749W        W76278  18.294  21.862  12.189
 4750W        W76279  27.197  22.022   2.241
 4751W        W76280  31.226  17.140  10.796
 4752W        W76281  41.187  15.526   4.966
 4753W        W76282  35.362   3.316   4.625
 4754W        W76283  14.370  34.628  13.354
 4755W        W76284  18.185   9.246  10.739
 4756W        W76285  37.057  24.864  11.059
 4757W        W76286   8.311  41.283   0.529
 4758W        W76287  20.695  22.497   2.235
 4759W        W76288  11.908   7.363   1.702
 4760W        W76289   9.763   1.378   0.328
 4761W        W76290  30.102  12.603   4.095
 4762W        W76291  12.750   0.914  10.825
 4763W        W76292  22.791  16.119  11.977
 4764W        W76293  35.124  14.556   0.365
 4765W        W76294   0.250  17.668  12.593
 4766W        W76295   1.375  25.650   0.680
 4767W        W76296  25.002  18.647  12.933
 4768W        W76297  41.566  38.319   1.053
 4769W        W76298  23.758  24.925  13.513
 4770W        W76299  26.472  16.172  11.053
 4771W        W76300  12.244   8.854  13.295
 4772W        W76301   7.400  11.188   4.194
 4773W        W76302  17.339  40.486   1.342
 4774W        W76303  34.344  23.269   3.031
 4775W        W76304  26.771   7.400  13.312
 4776W        W76305  23.303   0.508  13.447
 4777W        W76306  35.240  20.693   0.275
 4778W        W76307  39.762  20.973   3.680
 4779W        W76308  24.446  12.160  12.155
 4780W        W76309  27.728   5.361   4.809
 4781W        W76310  30.978  28.760  14.805
 4782W        W76311   6.874  39.972   4.048
 4783W        W76312  18.820  12.911   3.246
 4784W        W76313  33.497  41.127  10.059
 4785W        W76314  25.097   0.600  14.118
 4786W        W76315  41.492   1.445  12.938
 4787W        W76316  43.262  40.769   3.353
 4788W        W76317  41.565  40.263  14.577
 4789W        W76318  10.358  29.221   4.516
 4790W        W76319  21.569   6.785  11.173
 4791W        W76320  28.070   8.712   5.080
 4792W        W76321  40.850  28.675   1.341
 4793W        W76322  26.083  23.769  13.405
 4794W        W76323  41.245  11.552   2.341
 4795W        W76324  39.124   2.532   0.429
 4796W        W76325   8.419  19.308  11.194
 4797W        W76326  26.441  26.015  13.480
 4798W        W76327  39.948   9.833   2.838
 4799W        W76328  12.247  43.809   0.440
 4800W        W76329  42.443  41.307  14.835
 4801W        W76330  21.962   9.078  14.509
 4802W        W76331  24.251   8.136   3.669
 4803W        W76332   0.369   9.875  14.925
 4804W        W76333  33.002   7.661   1.369
 4805W        W76334  32.818  10.378  12.919
 4806W        W76335  42.516  31.972  12.385
 4807W        W76336  14.178  32.603   0.892
 4808W        W76337  17.857  12.564  12.902
 4809W        W76338  25.561  29.435   4.673
 4810W        W76339  40.583  19.197  14.414
 4811W        W76340   8.212  12.663   4.262
 4812W        W76341   7.681  26.952   0.319
 4813W        W76342  36.674  41.571  10.991
 4814W        W76343   4.313  29.049   1.873
 4815W        W76344   6.678  40.863  14.410
 4816W        W76345  44.814   5.860   0.213
 4817W        W76346  29.375  22.505   0.740
 4818W        W76347  34.617  10.625  14.946
 4819W        W76348   2.054   9.928  13.303
 4820W        W76349  21.113   4.248  10.505
 4821W        W76350  42.324  26.794   0.872
 4822W        W76351  15.561  31.090   4.953
 4823W        W76352   0.541  41.992   3.682
 4824W        W76353  17.806  10.846  10.683
 4825W        W76354   2.898  22.686  13.584
 4826W        W76355  32.933  16.351  13.015
 4827W        W76356  36.957  22.822  12.994
 4828W        W76357  20.688  27.554   1.946
 4829W        W76358   3.054   1.732  14.448
 4830W        W76359  36.260   6.675  13.669
 4831W        W76360  42.948  42.302  13.530
 4832W        W76361   9.618  43.527  13.472
 4833W        W76362  22.767  13.648  11.149
 4834W        W76363   9.436   5.238   0.280
 4835W        W76364  28.508  10.196   3.655
 4836W        W76365  24.168  29.674  12.947
 4837W        W76366  39.722  42.761  12.916
 4838W        W76367  33.512  29.918   2.200
 4839W        W76368  31.883   4.873  13.926
 4840W        W76369  10.145   1.148  14.463
 4841W        W76370   7.414   1.380   2.868
 4842W        W76371   7.122  34.847  12.872
 4843W        W76372  18.222  37.372   1.503
 4844W        W76373  25.203  29.816  10.552
 4845W        W76374  23.014   4.446  12.861
 4846W        W76375  12.855  20.986  11.549
 4847W        W76376  34.787  22.327   4.083
 4848W        W76377  14.064  16.087   1.855
 4849W        W76378  22.235  26.331  13.554
 4850W        W76379  39.566  12.947  12.441
 4851W        W76380  21.035  27.115  14.841
 4852W        W76381  32.326   9.688  11.175
 4853W        W76382  11.799   6.856   1.263
 4854W        W76383  30.791   3.119   0.944
 4855W        W76384  26.625  26.449  12.528
 4856W        W76385  23.443  14.347  14.421
 4857W        W76386  11.166  30.039   2.783
 4858W        W76387  20.203   8.378  10.794
 4859W        W76388  34.443   9.662   1.907
 4860W        W76389  10.320  44.987   2.851
 4861W        W76390   9.145   4.789   0.286
 4862W        W76391  27.506  35.396   1.280
 4863W        W76392  28.602  25.073  10.693
 4864W        W76393  43.878  12.724   3.674
 4865W        W76394  36.273  13.041  10.607
 4866W        W76395   7.320  30.845   0.053
 4867W        W76396   8.846  39.290  11.585
 4868W        W76397  28.071  27.599  14.060
 4869W        W76398  22.131  35.073   0.496
 4870W        W76399  33.703   3.497  10.147
 4871W        W76400  39.174  16.790   3.339
 4872W        W76401  16.305  16.076  12.499
 4873W        W76402  12.835  21.740   1.381
 4874W        W76403  32.651  17.246  12.821
 4875W        W76404  33.787  34.888  11.602
 4876W        W76405   4.304   5.435   3.778
 4877W        W76406  23.992  19.183  11.981
 4878W        W76407  30.702  24.043   2.799
 4879W        W76408  42.863   0.077  11.684
 4880W        W76409  33.349  26.651   0.721
 4881W        W76410   1.170   2.234   3.368
 4882W        W76411  21.028  41.012  13.131
 4883W        W76412  36.865   2.722  10.616
 4884W        W76413  26.738   1.286  12.978
 4885W        W76414  17.018  27.618  11.597
 4886W        W76415  43.742   9.700  13.864
 4887W        W76416  35.326  31.919  11.101
 4888W        W76417   0.487  17.524  13.826
 4889W        W76418  29.060  17.351   0.815
 4890W        W76419   4.423   6.206   1.897
 4891W        W76420   1.163  40.601   0.798
 4892W        W76421  44.978  16.590  10.679
 4893W        W76422  13.330  19.816  14.017
 4894W        W76423  29.488  28.701  11.680
 4895W        W76424  38.695  25.955  14.125
 4896W        W76425  19.779   5.809  11.970
 4897W        W76426   8.424   1.001  14.893
 4898W        W76427   3.842  40.261  13.367
 4899W        W76428  38.626  29.614  11.594
 4900W        W76429   5.369  17.460   0.531
 4901W        W76430  26.514  13.050   0.751
 4902W        W76431  32.554   6.683  14.072
 4903W        W76432   3.954   3.783   3.241
 4904W        W76433  29.495  15.811   2.260
 4905W        W76434  27.676  19.538  10.753
 4906W        W76435  34.500  25.149   2.881
 4907W        W76436  33.935   8.293  11.149
 4908W        W76437   3.884  28.362   4.103
 4909W        W76438  31.440   1.433  14.218
 4910W        W76439  34.601   5.898   2.294
 4911W        W76440   4.468  19.771  12.532
 4912W        W76441  42.716  23.508   1.434
 4913W        W76442   8.026   9.753   0.735
 4914W        W76443  12.165  29.202  13.426
 4915W        W76444  40.932  12.704  12.558
 4916W        W76445  27.721  35.511  13.487
 4917W        W76446  19.676  12.994   1.924
 4918W        W76447  43.092  38.978   3.256
 4919W        W76448  21.102   0.099   3.234
 4920W        W76449   3.275  39.919   0.364
 4921W        W76450  31.612  22.571  12.275
 4922W        W76451  38.358  30.952  10.469
 4923W        W76452  23.834  28.122   2.904
 4924W        W76453  36.685  14.360  14.378
 4925W        W76454  29.783   4.889   2.624
 4926W        W76455  18.235   4.828  12.116
 4927W        W76456   2.385  42.541   1.955
 4928W        W76457  39.446  35.763  14.370
 4929W        W76458  10.900  13.686  13.012
 4930W        W76459  40.899   7.681  13.804
 4931W        W76460   5.241  20.934   2.298
 4932W        W76461   6.168  36.897  12.875
 4933W        W76462  22.595  22.871  10.738
 4934W        W76463  25.075   0.919  13.100
 4935W        W76464  44.603  43.528   3.673
 4936W        W76465   8.489  12.132  11.245
 4937W        W76466  14.826  29.082  14.525
 4938W        W76467  40.432  40.478  13.557
 4939W        W76468   7.815  36.395   4.730
 4940W        W76469  10.081  15.378  14.066
 4941W        W76470   1.838  13.320   4.535
 4942W        W76471  38.890  44.779   0.468
 4943W        W76472  32.114   4.129   2.885
 4944W        W76473  37.623   1.506  13.115
 4945W        W76474  35.565  35.766   1.163
 4946W        W76475  28.108  40.950  14.422
 4947W        W76476  27.741  32.963   4.522
 4948W        W76477  20.029  36.992   0.352
 4949W        W76478  22.083  28.106   2.267
 4950W        W76479  39.408  34.477  14.559
 4951W        W76480   0.883   9.264   0.300
 4952W        W76481  43.427  26.108  13.572
 4953W        W76482  33.203  33.141   4.165
 4954W        W76483  33.636  33.139   2.194
 4955W        W76484  15.830  44.712  12.087
 4956W        W76485  33.574   9.427  12.274
 4957W        W76486   4.960   7.824   3.426
 4958W        W76487  18.166  33.802  13.853
 4959W        W76488  44.896  29.061   2.766
 4960W        W76489  18.336   9.394   3.596
 4961W        W76490  15.191  31.618   0.532
 4962W        W76491  11.335  30.566  12.919
 4963W        W76492  36.490  37.885  11.478
 4964W        W76493   9.334  11.254   4.021
 4965W        W76494  43.349   0.805  11.928
 4966W        W76495  40.476  10.231   4.791
 4967W        W76496  28.650  41.024  12.481
 4968W        W76497   8.737   2.010  13.942
 4969W        W76498  21.514  36.359   1.677
 4970W        W76499  29.432   7.394   4.953
 4971W        W76500  21.199  28.609   4.551
 4972W        W76501  39.519  27.143   0.801
 4973W        W76502   4.237  18.730  13.454
 4974W        W76503  42.867  35.063   4.050
 4975W        W76504  24.102   1.346  10.937
 4976W        W76505   9.316   1.521   3.234
 4977W        W76506  12.167  24.773   3.291
 4978W        W76507  14.097  41.983  14.353
 4979W        W76508   8.317  20.648  13.396
 4980W        W76509   6.363  15.475   0.272
 4981W        W76510  19.076  42.410   3.519
 4982W        W76511  33.655  28.990  14.424
 4983W        W76512  27.069   0.054  11.027
 4984W        W76513  37.339  33.398  12.804
 4985W        W76514  31.446  11.692   1.818
 4986W        W76515  36.482  34.983   2.831
 4987W        W76516   3.972   9.476  10.691
 4988W        W76517   4.948  10.908  14.861
 4989W        W76518   8.468  42.350  13.482
 4990W        W76519  11.830  34.283   4.720
 4991W        W76520  22.624  21.157  11.582
 4992W        W76521  41.616  34.486   2.308
 4993W        W76522  32.681   8.225   3.136
 4994W        W76523  14.536  32.954   2.417
 4995W        W76524  18.927  34.521   0.356
 4996W        W76525   4.822  23.254   2.794
 4997W        W76526  14.674  20.031   2.693
 4998W        W76527  32.909  36.382   1.431
 4999W        W76528  30.588   4.947  14.335
 5000W        W76529  22.215  43.073   1.884
 5001W        W76530  11.167   9.649  14.279
 5002W        W76531  28.060   8.154   0.409
 5003W        W76532  12.311  21.603  10.638
 5004W        W76533  28.440  41.441   2.367
 5005W        W76534  19.820  31.523   0.337
 5006W        W76535  43.125  39.091  10.023
 5007W        W76536  44.351  38.944  13.018
 5008W        W76537  39.040  35.331  10.762
 5009W        W76538  31.565  32.389  13.001
 5010W        W76539  23.733   0.286   4.682
 5011W        W76540  44.254  14.229   2.327
 5012W        W76541  31.081   6.921  10.800
 5013W        W76542  31.520  24.966  13.043
 5014W        W76543  22.267   4.392  14.048
 5015W        W76544   3.991  11.582   3.295
 5016W        W76545  34.097  27.101   4.147
 5017W        W76546   4.164  43.947  12.641
 5018W        W76547  43.207  37.452   4.843
 5019W        W76548  16.835  44.043   1.062
 5020W        W76549   9.321  36.854  12.835
 5021W        W76550  24.932   0.329   3.253
 5022W        W76551  19.394  39.245  11.016
 5023W        W76552  13.543  11.940   3.366
 5024W        W76553  28.157  23.285   3.732
 5025W        W76554  24.489  15.490  14.357
 5026W        W76555   1.752  44.956   4.123
 5027W        W76556  39.406  32.875  13.946
 5028W        W76557   0.130   3.310   4.558
 5029W        W76558  41.371  24.521   3.377
 5030W        W76559  23.960   4.044   4.452
 5031W        W76560  37.380   9.389  14.799
 5032W        W76561  22.586   1.333  12.126
 5033W        W76562  35.957  31.650   4.185
 5034W        W76563  37.659  40.824  10.506
 5035W        W76564  30.402  21.895  12.087
 5036W        W76565  19.961  17.741  13.753
 5037W        W76566  12.098  37.472  10.170
 5038W        W76567  28.470   9.745  12.826
 5039W        W76568  29.505  16.033   3.601
 5040W        W76569  11.246  20.144  11.883
 5041W        W76570  12.799   4.331  10.648
 5042W        W76571   1.462  32.955   2.187
 5043W        W76572  13.853   5.164   4.135
 5044W        W76573  19.259  19.691   4.740
 5045W        W76574  26.973  42.400   2.483
 5046W        W76575  31.910  34.838  14.408
 5047W        W76576  25.019  38.356  14.980
 5048W        W76577   1.356  24.452  10.685
 5049W        W76578  33.335  25.464   4.120
 5050W        W76579  32.344  41.323   0.235
 5051W        W76580  32.928   1.383   2.111
 5052W        W76581  33.369  27.090   1.935
 5053W        W76582  39.345  13.156  11.986
 5054W        W76583  41.060  17.573  13.861
 5055W        W76584  28.114  14.243   5.036
 5056W        W76585  17.770  11.410   4.550
 5057W        W76586  29.409  24.965   1.886
 5058W        W76587  41.948  40.780  10.667
 5059W        W76588  32.451  40.852   1.689
 5060W        W76589  14.818  30.198  14.858
 5061W        W76590   4.876   4.236   0.295
 5062W        W76591  15.826  29.959  14.393
 5063W        W76592   6.199  31.892  13.437
 5064W        W76593  19.428   1.759  12.454
 5065W        W76594  44.945  28.688  11.026
 5066W        W76595  22.562  33.976   4.168
 5067W        W76596   2.749  18.556  12.422
 5068W        W76597  33.861  11.713   4.131
 5069W        W76598   4.321  35.781   0.227
 5070W        W76599  35.555  34.793  11.122
 5071W        W76600   8.242   9.199  14.473
 5072W        W76601   3.907  11.322  10.431
 5073W        W76602   4.938  25.399  13.847
 5074W        W76603  42.946  31.843  11.068
 5075W        W76604  26.237   9.294  14.845
 5076W        W76605  13.296  30.400   1.393
 5077W        W76606  38.539   9.853  11.427
 5078W        W76607   6.431  44.904  14.072
 5079W        W76608  35.823  37.143   1.001
 5080W        W76609  19.611  33.558  13.162
 5081W        W76610  10.086  35.439  12.151
 5082W        W76611   9.836  27.110  12.096
 5083W        W76612   7.028  25.709   4.548
 5084W        W76613  39.808   2.655  14.449
 5085W        W76614  25.734  38.397   0.270
 5086W        W76615   3.214  21.261  13.778
 5087W        W76616  42.016   9.335  10.607
 5088W        W76617  33.589  29.587  12.137
 5089W        W76618   2.873  26.995  12.341
 5090W        W76619  35.640  37.774   3.955
 5091W        W76620  18.627  16.622  14.324
 5092W        W76621  13.290  41.860  13.800
 5093W        W76622  26.609  20.798   0.296
 5094W        W76623  18.913   8.671   5.088
 5095W        W76624   8.316  23.898   3.165
 5096W        W76625  10.257  37.922  13.002
 5097W        W76626  32.080  34.561   2.563
 5098W        W76627  29.027  14.447  12.771
 5099W        W76628  28.160  17.658   2.886
 5100W        W76629  35.594  18.221   3.187
 5101W        W76630  28.879  30.058  11.227
 5102W        W76631  34.445  12.166  11.609
 5103W        W76632  12.105  37.294   2.251
 5104W        W76633  24.642   5.984  13.442
 5105W        W76634  31.464  29.661  14.003
 5106W        W76635  25.419   2.866  12.127
 5107W        W76636  15.145   4.321  13.034
 5108W        W76637   4.328   4.443  13.231
 5109W        W76638  38.491  34.129   1.692
 5110W        W76639   4.461  27.969   1.304
 5111W        W76640  22.595  43.263   0.431
 5112W        W76641  30.847   2.002   0.569
 5113W        W76642  17.152  27.720  13.402
 5114W        W76643   4.690  17.984  14.904
 5115W        W76644  34.878  17.712   3.299
 5116W        W76645   1.458  44.565   2.293
 5117W        W76646  28.443   1.927  14.679
 5118W        W76647  17.172  27.086  12.354
 5119W        W76648  32.417  38.060  12.400
 5120W        W76649  33.810  27.853  12.415
 5121W        W76650  15.672  25.234  12.144
 5122W        W76651   8.210  14.781   4.162
 5123W        W76652  20.518  44.780  12.041
 5124W        W76653  23.612  31.794   0.707
 5125W        W76654   7.470   9.637  10.758
 5126W        W76655   4.468  19.054  10.039
 5127W        W76656   6.466  16.558   4.170
 5128W        W76657   8.293  32.503   1.197
 5129W        W76658  31.090  26.454   0.228
 5130W        W76659  27.428  35.960  13.409
 5131W        W76660   4.082  33.904  13.147
 5132W        W76661  39.647  21.525   3.367
 5133W        W76662  10.634   9.995  13.114
 5134W        W76663   4.659  42.776  10.243
 5135W        W76664  11.632  37.275  11.538
 5136W        W76665  23.586  41.768  11.634
 5137W        W76666  37.344  25.297   1.199
 5138W        W76667  40.587  35.659   4.624
 5139W        W76668   8.056   2.727  13.663
 5140W        W76669   3.396   5.546  12.071
 5141W        W76670   2.898   2.329   1.363
 5142W        W76671  15.837  36.325   2.168
 5143W        W76672   4.891  16.592  13.852
 5144W        W76673  21.060  20.549  11.001
 5145W        W76674  24.024  19.646   0.903
 5146W        W76675  24.232  32.306   1.858
 5147W        W76676   8.279  17.463   0.464
 5148W        W76677   2.584   6.206   0.747
 5149W        W76678  37.393  14.764   2.189
 5150W        W76679  26.537  16.052   4.569
 5151W        W76680  26.201  10.696   1.642
 5152W        W76681  29.862   4.012   0.231
 5153W        W76682  26.560  37.807  14.088
 5154W        W76683   8.346  40.565   0.803
 5155W        W76684  40.347   2.401  13.368
 5156W        W76685  42.476  12.735  13.458
 5157W        W76686  19.191  38.407  10.489
 5158W        W76687   3.882  36.562  12.401
 5159W        W76688   6.215  41.826   0.287
 5160W        W76689  28.452   8.119  10.685
 5161W        W76690  16.118  10.293   0.346
 5162W        W76691  12.294  24.183  14.772
 5163W        W76692  29.633  28.703  10.702
 5164W        W76693  31.936   1.517  14.916
 5165W        W76694  34.992  12.888   0.780
 5166W        W76695  28.154  13.495  10.286
 5167W        W76696  27.956  20.862   5.072
 5168W        W76697   7.617   3.143   5.067
 5169W        W76698  43.549  19.618   3.366
 5170W        W76699  16.100  19.705  11.474
 5171W        W76700  25.410  30.977   3.579
 5172W        W76701  10.922  42.722  10.085
 5173W        W76702  42.496  18.039  10.780
 5174W        W76703  26.241  44.968  13.506
 5175W        W76704   1.866  21.537  10.657
 5176W        W76705  18.286  35.039   0.524
 5177W        W76706  31.038   3.969   0.361
 5178W        W76707  26.154   8.100   3.778
 5179W        W76708   2.236   5.665  13.651
 5180W        W76709  36.127  30.309  11.134
 5181W        W76710  15.782  23.786  13.883
 5182W        W76711   2.987  23.255   2.807
 5183W        W76712  33.122  36.984  11.429
 5184W        W76713   1.899  18.231  11.184
 5185W        W76714  11.519  38.046  11.790
 5186W        W76715  37.917  20.751   0.512
 5187W        W76716  28.136  34.810   2.100
 5188W        W76717   2.342  39.570   3.696
 5189W        W76718  32.521  30.860   2.420
 5190W        W76719  28.528  16.806  13.592
 5191W        W76720  28.515  30.938   0.460
 5192W        W76721  26.992  27.294   0.017
 5193W        W76722   0.348  25.772  11.073
 5194W        W76723  37.361  16.713  12.077
 5195W        W76724  36.560   4.358  10.739
 5196W        W76725  18.903  34.624  13.861
 5197W        W76726  43.056  13.592   2.274
 5198W        W76727  35.694   4.704   4.287
 5199W        W76728  26.248  12.320   1.804
 5200W        W76729  26.094  30.098  11.604
 5201W        W76730  29.616  35.176   2.418
 5202W        W76731  20.742  31.040  12.721
 5203W        W76732  38.488  26.691  12.461
 5204W        W76733   0.067  39.372  12.116
 5205W        W76734  32.871  23.437   4.741
 5206W        W76735   6.490   3.831   1.020
 5207W        W76736  13.987  28.248  12.538
 5208W        W76737   1.512  30.665  13.801
 5209W        W76738  37.276  10.854   3.777
 5210W        W76739  11.121  33.007   3.611
 5211W        W76740   7.918  35.822   4.150
 5212W        W76741  24.468   9.937  12.635
 5213W        W76742  22.652  40.004   0.024
 5214W        W76743  15.032  43.917  10.977
 5215W        W76744  15.851  10.248   1.413
 5216W        W76745  33.922  36.112  12.886
 5217W        W76746  20.110  39.449  13.579
 5218W        W76747  38.482   7.698   2.206
 5219W        W76748  12.633  18.261   0.395
 5220W        W76749  10.699   6.114   4.118
 5221W        W76750  10.558  42.261   0.093
 5222W        W76751  34.902  21.583   1.988
 5223W        W76752  32.539  14.684  12.915
 5224W        W76753  29.262  44.157   1.789
 5225W        W76754  17.587  40.742   5.117
 5226W        W76755   4.868  31.943   1.826
 5227W        W76756  32.467  13.772  12.403
 5228W        W76757  31.741  24.124   2.678
 5229W        W76758   9.161   9.955  11.511
 5230W        W76759  35.552  33.907  12.486
 5231W        W76760  34.377  31.078  11.301
 5232W        W76761  37.046   6.824   3.573
 5233W        W76762  43.331  35.487   2.411
 5234W        W76763  24.236  25.472   3.145
 5235W        W76764  14.239  16.518  10.651
 5236W        W76765  21.556  16.542   3.765
 5237W        W76766  25.243  13.334  11.640
 5238W        W76767  25.962  31.735   4.224
 5239W        W76768  28.200  39.589   4.143
 5240W        W76769  13.895  41.478   0.436
 5241W        W76770  20.541  35.604  14.458
 5242W        W76771  21.374   9.538  13.815
 5243W        W76772  16.096  20.548   0.435
 5244W        W76773  18.752   2.846  14.501
 5245W        W76774  27.931  10.389  14.837
 5246W        W76775  14.682  17.548  13.026
 5247W        W76776   5.009  10.509   0.733
 5248W        W76777  36.522  36.779  10.734
 5249W        W76778  29.518   4.043  14.338
 5250W        W76779  25.074  15.236  13.856
 5251W        W76780  28.306  22.606  10.714
 5252W        W76781  23.822  22.963   1.283
 5253W        W76782  34.635  26.998  13.623
 5254W        W76783  25.968  40.596   2.744
 5255W        W76784  20.093   4.954  14.935
 5256W        W76785  44.514  43.964  10.748
 5257W        W76786  12.461  33.519  14.467
 5258W        W76787  20.631  31.643   2.444
 5259W        W76788   5.693   4.734  13.755
 5260W        W76789  38.140   3.039  11.118
 5261W        W76790   6.378  43.931   2.985
 5262W        W76791   0.842  11.432   1.522
 5263W        W76792  17.597  44.261  12.347
 5264W        W76793  12.118   6.251   3.141
 5265W        W76794  13.333   6.373  14.154
 5266W        W76795  27.803  27.254  12.785
 5267W        W76796  24.709  14.624   4.195
 5268W        W76797  39.857  26.615   0.090
 5269W        W76798  37.947   5.922  12.734
 5270W        W76799  18.842  10.882  13.370
 5271W        W76800  24.142  17.229  12.429
 5272W        W76801  17.025  33.805   3.693
 5273W        W76802  13.629  32.725   2.550
 5274W        W76803  33.016  19.291   3.214
 5275W        W76804  39.071  31.200  12.065
 5276W        W76805  43.416  17.783  14.107
 5277W        W76806  18.274  17.643   2.841
 5278W        W76807  28.234   3.405   2.244
 5279W        W76808  20.806  28.335  11.637
 5280W        W76809  32.623   5.131   0.795
 5281W        W76810  34.686  13.536  14.555
 5282W        W76811  13.129  33.996  14.124
 5283W        W76812  30.531  28.991   0.486
 5284W        W76813  35.852  28.595   1.244
 5285W        W76814  26.591  37.914  11.635
 5286W        W76815  44.129  21.962  12.344
 5287W        W76816   8.347  15.168  12.878
 5288W        W76817   5.401  39.199  14.142
 5289W        W76818  10.542  22.555  11.900
 5290W        W76819   0.568  24.108   3.565
 5291W        W76820  11.383   4.762   3.755
 5292W        W76821  22.763  20.799  14.366
 5293W        W76822  35.617  22.573  11.617
 5294W        W76823  22.082  18.859  11.416
 5295W        W76824  28.440  19.829   0.963
 5296W        W76825  38.243  25.584  12.159
 5297W        W76826  20.232  26.172   1.404
 5298W        W76827  13.457   4.369  11.944
 5299W        W76828  33.480  16.523   4.151
 5300W        W76829   2.795  14.805   0.920
 5301W        W76830  22.244  29.220   1.654
 5302W        W76831  43.795   3.152  12.816
 5303W        W76832   3.119   9.811  13.349
 5304W        W76833  25.522   8.910  11.791
 5305W        W76834  27.583  31.145   2.160
 5306W        W76835  36.555   7.367   0.804
 5307W        W76836  26.630   7.314   1.324
 5308W        W76837  34.348  40.501   3.310
 5309W        W76838  40.563  28.530  12.300
 5310W        W76839  32.439  29.650  13.307
 5311W        W76840   3.968   8.036   0.808
 5312W        W76841  42.828   0.516   3.812
 5313W        W76842  37.241  27.875  13.044
 5314W        W76843  30.334  14.516   1.883
 5315W        W76844  38.800  38.323   2.258
 5316W        W76845  12.141   1.512  12.086
 5317W        W76846  36.486  32.461   0.890
 5318W        W76847  31.508  23.424  12.850
 5319W        W76848  26.578  16.703  12.492
 5320W        W76849   5.211   1.426   2.844
 5321W        W76850   1.375  15.279   3.171
 5322W        W76851   9.680  43.747   4.166
 5323W        W76852  25.241   1.701   0.761
 5324W        W76853  22.599  28.939   1.296
 5325W        W76854  27.090  44.892  13.773
 5326W        W76855  40.250  27.461  12.432
 5327W        W76856  19.683  19.123   1.373
 5328W        W76857  20.132   1.585   1.946
 5329W        W76858  26.677   1.948  11.454
 5330W        W76859  40.227   5.174   3.730
 5331W        W76860   2.973   2.992  14.058
 5332W        W76861   5.904   3.812  11.776
 5333W        W76862  34.052   6.753  14.132
 5334W        W76863  39.655  16.061   4.212
 5335W        W76864   3.924  16.371   3.426
 5336W        W76865  32.469  15.606   2.764
 5337W        W76866  29.076  20.446  14.418
 5338W        W76867   7.610  10.154  10.765
 5339W        W76868  11.525  37.516   4.241
 5340W        W76869  39.590   3.255  13.323
 5341W        W76870   7.241   3.194  13.123
 5342W        W76871  32.308  17.715  11.956
 5343W        W76872   2.720  30.387   4.587
 5344W        W76873  28.629  35.424   4.282
 5345W        W76874  26.645  16.741  11.031
 5346W        W76875  33.112  13.084   1.141
 5347W        W76876  26.576  31.433  10.672
 5348W        W76877  26.735  14.684   2.974
 5349W        W76878  10.887   2.999  14.824
 5350W        W76879  16.706  28.687   1.182
 5351W        W76880   5.889   7.163  12.514
 5352W        W76881  22.664  41.597  11.276
 5353W        W76882   4.188  22.800  13.531
 5354W        W76883  39.343  40.891   4.112
 5355W        W76884  33.622   0.023  14.480
 5356W        W76885  30.540   3.834  11.030
 5357W        W76886  32.475  26.018   2.175
 5358W        W76887  38.552  10.603  13.082
 5359W        W76888  27.039  22.073   0.039
 5360W        W76889  16.129  16.342  12.907
 5361W        W76890  14.094  41.867  10.763
 5362W        W76891   7.941  19.830   3.732
 5363W        W76892   8.630   3.753   4.497
 5364W        W76893   9.433   9.693   0.333
 5365W        W76894   7.835  17.654  12.882
 5366W        W76895   1.729  29.766  12.698
 5367W        W76896  18.225  22.084  11.714
 5368W        W76897  26.879   8.334   3.244
 5369W        W76898  35.209   0.431   0.741
 5370W        W76899  43.321   9.798   2.995
 5371W        W76900   6.942  33.976   4.329
 5372W        W76901  20.853  30.151   0.744
 5373W        W76902  24.996   7.913  11.334
 5374W        W76903  23.613  10.583  10.509
 5375W        W76904  18.570   8.849  11.168
 5376W        W76905  32.383  40.416   3.625
 5377W        W76906  15.343  29.942  14.171
 5378W        W76907  21.914  32.479  13.508
 5379W        W76908  19.008   0.865  12.438
 5380W        W76909  20.506  10.161  13.039
 5381W        W76910  27.469  22.259  12.578
 5382W        W76911   0.617   2.797  11.647
 5383W        W76912   7.363   7.916   0.709
 5384W        W76913  16.115  43.621  14.761
 5385W        W76914  24.146  32.831  11.443
 5386W        W76915  24.261  15.841   5.014
 5387W        W76916   3.923   5.330   2.278
 5388W        W76917   2.496   1.257   0.923
 5389W        W76918   2.736  27.261   3.801
 5390W        W76919  38.077   9.812  13.278
 5391W        W76920  23.584  14.772   3.271
 5392W        W76921  26.077  30.716   2.255
 5393W        W76922   9.178   2.709  11.524
 5394W        W76923  43.347  34.962  10.838
 5395W        W76924  42.587  32.006  10.735
 5396W        W76925  38.576  11.620  12.863
 5397W        W76926  38.777   6.135   0.400
 5398W        W76927  40.261  21.329   1.270
 5399W        W76928  41.049  38.048   4.273
 5400W        W76929  33.443  36.024  13.058
 5401W        W76930  43.348  16.217  11.476
 5402W        W76931   5.831  38.780  11.835
 5403W        W76932  40.066  38.815  10.868
 5404W        W76933  27.077  29.709  13.937
 5405W        W76934  17.810  36.719   3.110
 5406W        W76935  23.307  44.840  12.048
 5407W        W76936  23.779  34.108   2.243
 5408W        W76937  15.609  25.308   3.575
 5409W        W76938  23.100   4.837   2.648
 5410W        W76939  28.240  31.638  11.964
 5411W        W76940  43.977  12.086   3.307
 5412W        W76941  40.382  33.381   2.627
 5413W        W76942   0.291  35.124  11.174
 5414W        W76943   2.180  19.299  13.920
 5415W        W76944  38.624  23.099   1.987
 5416W        W76945  37.052  19.986   0.137
 5417W        W76946   6.202  39.250   2.706
 5418W        W76947   4.617  13.761   1.982
 5419W        W76948  33.670  26.414  14.227
 5420W        W76949  44.459   6.123   1.772
 5421W        W76950  33.163  18.024   0.409
 5422W        W76951  23.552   8.237   1.987
 5423W        W76952  26.982   4.933  12.004
 5424W        W76953  40.306  14.883   2.843
 5425W        W76954  33.212  23.734  13.525
 5426W        W76955  33.895  25.525  13.067
 5427W        W76956  41.523   9.533   1.390
 5428W        W76957  10.480  35.771  14.115
 5429W        W76958  17.775  30.043   2.777
 5430W        W76959  15.765  30.063   1.704
 5431W        W76960  26.954  19.744   3.743
 5432W        W76961  43.267  16.477  12.960
 5433W        W76962   8.738  13.308   4.552
 5434W        W76963  39.477  38.895   4.421
 5435W        W76964  14.183   1.697  14.106
 5436W        W76965   1.492  36.645  10.295
 5437W        W76966  31.144  32.276   4.995
 5438W        W76967  30.160   9.115  12.054
 5439W        W76968   0.908  19.982   4.683
 5440W        W76969  27.649   6.472   1.832
 5441W        W76970  29.603  22.019  13.219
 5442W        W76971  22.726   1.789  13.363
 5443W        W76972  25.273  40.719  12.874
 5444W        W76973  18.280  41.426   4.162
 5445W        W76974  16.222  38.358   4.111
 5446W        W76975   2.179  15.078   4.210
 5447W        W76976  37.191  17.707  12.110
 5448W        W76977  22.714  14.870  10.545
 5449W        W76978  17.447  28.445   1.734
 5450W        W76979  38.239  11.323  11.980
 5451W        W76980  33.635  33.155   1.683
 5452W        W76981  36.433  28.840   0.780
 5453W        W76982  26.630  44.960  13.074
 5454W        W76983  43.239   5.254  13.961
 5455W        W76984   9.361  14.829   1.743
 5456W        W76985  22.152  15.586   2.090
 5457W        W76986  10.164  31.176   2.741
 5458W        W76987   0.344  13.514   0.878
 5459W        W76988  39.873  44.754  11.552
 5460W        W76989  11.130   2.649   2.349
 5461W        W76990  15.077  38.061   0.225
 5462W        W76991  29.206   2.893   3.610
 5463W        W76992   1.331  36.977  14.092
 5464W        W76993  12.487  11.721   1.500
 5465W        W76994  31.973  37.943  14.947
 5466W        W76995   3.960  29.555  10.666
 5467W        W76996  12.307  35.115   4.722
 5468W        W76997  38.249  23.998  14.477
 5469W        W76998  13.198   9.735   4.551
 5470W        W76999   7.297  22.785   2.096
 5471W        W77000  40.314  33.779  12.446
 5472W        W77001  16.627  16.549   1.688
 5473W        W77002  27.728   0.417  14.748
 5474W        W77003  31.570  23.596  10.234
 5475W        W77004  34.427   2.227   3.657
 5476W        W77005  21.758  43.453  13.476
 5477W        W77006   6.175  14.509   2.875
 5478W        W77007  34.306  11.445  12.355
 5479W        W77008  28.093  37.028   0.016
 5480W        W77009  34.253  21.747   3.983
 5481W        W77010  10.705  23.256   3.896
 5482W        W77011  37.110  16.801   0.406
 5483W        W77012  20.772  18.564   3.109
 5484W        W77013   3.484  40.055  14.408
 5485W        W77014  17.745  16.638   3.566
 5486W        W77015  12.108  31.457   3.371
 5487W        W77016  15.019  31.906   3.236
 5488W        W77017  13.872   1.868   2.272
 5489W        W77018  18.294  18.182  14.240
 5490W        W77019   4.454   9.361  10.514
 5491W        W77020  28.946  37.810   1.254
 5492W        W77021  38.323  17.226  13.549
 5493W        W77022  39.575  24.648  11.937
 5494W        W77023  29.458  25.607   1.329
 5495W        W77024  14.243  23.552   0.958
 5496W        W77025  11.839   7.561  11.693
 5497W        W77026  44.001  38.620  12.128
 5498W        W77027  17.403  17.093   0.203
 5499W        W77028  42.943  22.664  11.128
 5500W        W77029  31.972  25.432   3.427
 5501W        W77030  17.180   5.459   4.840
 5502W        W77031  21.415  32.258  14.793
 5503W        W77032  40.769   1.839  11.213
 5504W        W77033  14.692   7.510  11.560
 5505W        W77034  37.858  21.259   3.071
 5506W        W77035  29.512  23.977  13.396
 5507W        W77036  12.694  15.166  10.728
 5508W        W77037  18.588  21.683  13.947
 5509W        W77038  23.636  34.721   4.982
 5510W        W77039   4.434  31.969   2.822
 5511W        W77040   2.882  42.291  14.836
 5512W        W77041  38.337  23.972   2.852
 5513W        W77042  38.783  18.675  12.473
 5514W        W77043   8.619  27.610  13.787
 5515W        W77044   8.699  41.279   3.920
 5516W        W77045  41.062  17.784  10.694
 5517W        W77046  28.376  28.925  13.771
 5518W        W77047   6.319  24.222   4.575
 5519W        W77048  14.154  20.622  14.025
 5520W        W77049  38.731  38.043  12.985
 5521W        W77050  19.627  15.090   0.740
 5522W        W77051  31.654  39.992  10.470
 5523W        W77052  11.311  22.990  13.773
 5524W        W77053   4.963  22.202   1.416
 5525W        W77054  19.865  29.142  14.445
 5526W        W77055   0.851  13.305   4.567
 5527W        W77056   3.716   1.341   0.306
 5528W        W77057  26.892   3.903  10.683
 5529W        W77058  13.823  34.594  14.230
 5530W        W77059  16.071  35.821   0.893
 5531W        W77060  36.938  43.055  12.867
 5532W        W77061  30.828  18.611  12.558
 5533W        W77062  13.748  43.165  12.947
 5534W        W77063  42.238   0.376   0.247
 5535W        W77064  24.449  12.767   3.194
 5536W        W77065  11.702   9.614   3.171
 5537W        W77066  40.512  26.402   3.125
 5538W        W77067  31.185  33.130  14.303
 5539W        W77068  34.299  41.371   1.301
 5540W        W77069  38.404   8.329  14.893
 5541W        W77070   0.722   9.287   2.137
 5542W        W77071  42.847  39.581   1.787
 5543W        W77072  23.456  11.471   3.308
 5544W        W77073  14.646  25.653  14.579
 5545W        W77074   3.493  37.612  12.847
 5546W        W77075  30.658  21.684   0.500
 5547W        W77076  41.828   6.659   3.649
 5548W        W77077   1.294  23.199  14.331
 5549W        W77078  42.132  40.523  11.097
 5550W        W77079   2.536   6.249  12.916
 5551W        W77080  17.250   3.416  11.183
 5552W        W77081  25.221  37.994   0.818
 5553W        W77082  15.706   8.779   0.871
 5554W        W77083  14.331   2.200  13.813
 5555W        W77084  32.921  33.633   2.713
 5556W        W77085  31.569  34.190   4.191
 5557W        W77086  12.297  43.869   4.995
 5558W        W77087  29.902  34.598  13.064
 5559W        W77088  43.094  30.993   2.223
 5560W        W77089   5.616   6.306   4.915
 5561W        W77090  30.142  27.664  14.115
 5562W        W77091  13.306   5.997  11.094
 5563W        W77092  33.397  18.508   3.374
 5564W        W77093  12.129  11.901   0.016
 5565W        W77094  16.958  37.615   3.681
 5566W        W77095  26.702  27.664   0.785
 5567W        W77096  14.652  34.369   0.215
 5568W        W77097  38.128  13.757   1.396
 5569W        W77098  32.465  34.010  12.587
 5570W        W77099  29.457  21.986  12.725
 5571W        W77100  35.066  32.888  12.826
 5572W        W77101  37.743  43.547   1.379
 5573W        W77102  34.587   2.318   0.196
 5574W        W77103  33.410  36.459  10.443
 5575W        W77104  34.797   5.621   0.645
 5576W        W77105  25.105  33.649  11.223
 5577W        W77106  38.425  12.723  11.486
 5578W        W77107  10.262  32.267   0.911
 5579W        W77108   2.380  37.392  14.031
 5580W        W77109  24.135  43.420   0.949
 5581W        W77110  14.016  21.752  12.523
 5582W        W77111   1.268   4.880  14.540
 5583W        W77112  41.842   8.075   1.492
 5584W        W77113  10.228   2.750   1.883
 5585W        W77114  39.303  14.319  12.092
 5586W        W77115  26.263   8.413   4.183
 5587W        W77116  18.070  39.039  11.091
 5588W        W77117  44.272   3.650   0.632
 5589W        W77118   9.082   2.879   0.272
 5590W        W77119  12.444   1.925   3.597
 5591W        W77120  31.189  16.625  11.481
 5592W        W77121  22.945  30.461   2.939
 5593W        W77122  36.635  37.775   3.676
 5594W        W77123  32.581  41.737  14.958
 5595W        W77124  38.401   7.454  14.286
 5596W        W77125  21.789  44.059   3.686
 5597W        W77126  43.062  10.943   3.717
 5598W        W77127  13.685  22.375   4.927
 5599W        W77128  44.846  41.731   4.696
 5600W        W77129  11.873  28.558   3.063
 5601W        W77130  37.060  31.941  14.489
 5602W        W77131  12.855  13.763  10.736
 5603W        W77132   2.172  17.258   0.187
 5604W        W77133   1.510   1.423  12.034
 5605W        W77134  13.117  22.268  12.828
 5606W        W77135  20.179   8.172   4.271
 5607W        W77136   9.614  24.959   4.333
 5608W        W77137  21.302  15.352  14.015
 5609W        W77138  33.132  24.408   3.108
 5610W        W77139  18.759  20.886   3.141
 5611W        W77140  28.414   3.274   0.813
 5612W        W77141  11.571  20.996   2.902
 5613W        W77142  39.069  19.739  10.677
 5614W        W77143   1.350  27.096  10.850
 5615W        W77144  25.526  24.963  13.458
 5616W        W77145  24.570  38.290   1.303
 5617W        W77146  19.743   8.211  11.890
 5618W        W77147  30.549  38.586  11.219
 5619W        W77148  42.368  31.374   4.501
 5620W        W77149  10.293  32.657   4.113
 5621W        W77150   3.351   6.948  12.774
 5622W        W77151  24.477  14.740   0.713
 5623W        W77152  37.576  38.879   3.327
 5624W        W77153   1.489   1.972   2.341
 5625W        W77154  30.954  42.921   4.653
 5626W        W77155  32.046   3.220   3.666
 5627W        W77156  19.604  25.210  11.699
 5628W        W77157  43.160  29.847   2.862
 5629W        W77158   0.256   8.923  11.148
 5630W        W77159  41.902  25.806   3.765
 5631W        W77160  42.550  36.373   0.477
 5632W        W77161  25.490   0.880  13.880
 5633W        W77162  23.312  37.373  11.163
 5634W        W77163  42.143  16.546   2.219
 5635W        W77164   0.700  35.070   5.656
 5636W        W77165  34.587   3.307  13.781
 5637W        W77166  32.613  17.872   1.792
 5638W        W77167  28.877   9.752   3.634
 5639W        W77168  40.589  25.122   2.010
 5640W        W77169  31.532  14.267  14.989
 5641W        W77170  20.221   8.423   0.322
 5642W        W77171  27.150  17.230   2.182
 5643W        W77172   1.969  30.512   0.187
 5644W        W77173  16.553  25.268   2.641
 5645W        W77174  30.580   2.204   4.494
 5646W        W77175  12.792  31.980   2.792
 5647W        W77176  13.161   2.159   4.682
 5648W        W77177  33.987  41.776  14.279
 5649W        W77178   4.813   8.492   2.227
 5650W        W77179   2.288  42.741   1.360
 5651W        W77180   4.266  30.960  10.821
 5652W        W77181   5.828  32.463   3.325
 5653W        W77182   6.430  19.838   4.727
 5654W        W77183  21.173  44.246   2.864
 5655W        W77184  17.237  36.056   4.703
 5656W        W77185  39.776  39.264  14.281
 5657W        W77186  21.097  33.059   1.964
 5658W        W77187  17.733  20.046   0.924
 5659W        W77188   7.228  39.793   0.405
 5660W        W77189  30.981  42.072  13.484
 5661W        W77190  43.881  43.194  14.012
 5662W        W77191  29.144   8.201  13.825
 5663W        W77192  16.622  20.324  13.508
 5664W        W77193  34.390  14.731  14.504
 5665W        W77194   7.844   7.131   3.644
 5666W        W77195  32.735  41.824   0.833
 5667W        W77196   7.673  43.973   2.330
 5668W        W77197  36.316  18.770   3.037
 5669W        W77198  40.363  39.907   4.143
 5670W        W77199  19.815  19.833   5.044
 5671W        W77200   0.228  27.087   0.513
 5672W        W77201  21.221   5.182  13.012
 5673W        W77202   3.818  13.160   4.720
 5674W        W77203  19.668   1.571  12.925
 5675W        W77204   7.433  20.569   1.796
 5676W        W77205  24.476  40.325  12.959
 5677W        W77206  40.515  28.082  14.583
 5678W        W77207  14.613   7.071   1.859
 5679W        W77208  20.487  37.571   5.404
 5680W        W77209  32.455  29.978  14.291
 5681W        W77210  37.957   4.228  10.690
 5682W        W77211  16.329   3.714   2.219
 5683W        W77212  15.332  17.229   4.702
 5684W        W77213  33.913  30.428  10.584
 5685W        W77214   2.953  19.259   2.880
 5686W        W77215   8.997  37.356   4.993
 5687W        W77216  44.563  36.361  10.766
 5688W        W77217  36.979  30.971   2.403
 5689W        W77218  25.104  35.964  12.413
 5690W        W77219  44.735  44.340   0.239
 5691W        W77220  44.576  16.127  11.227
 5692W        W77221  39.090  22.102  10.650
 5693W        W77222  20.949  31.012   4.980
 5694W        W77223  11.674  12.664  14.712
 5695W        W77224   3.945  30.692  12.476
 5696W        W77225  42.524  21.515   0.479
 5697W        W77226  18.584  22.581   0.879
 5698W        W77227   6.406  18.106   1.720
 5699W        W77228   0.816  20.686   1.342
 5700W        W77229   4.820   2.992   0.941
 5701W        W77230  28.768  44.457   1.280
 5702W        W77231  13.100   0.529  10.650
 5703W        W77232   2.902   0.509   3.101
 5704W        W77233  14.407  13.766   0.778
 5705W        W77234  18.691   9.249   2.057
 5706W        W77235  11.743   5.758   3.685
 5707W        W77236  38.612   5.946   4.283
 5708W        W77237   7.831  38.150   0.695
 5709W        W77238  19.518  21.694  14.869
 5710W        W77239  25.753  35.295  10.834
 5711W        W77240  13.613  26.450  14.896
 5712W        W77241  35.147  32.401  14.826
 5713W        W77242  14.998  38.125  13.014
 5714W        W77243   0.372  13.859  12.019
 5715W        W77244  41.796  16.571   3.762
 5716W        W77245  37.986  29.331  14.301
 5717W        W77246  24.505  43.040   1.025
 5718W        W77247  38.890  41.536  10.661
 5719W        W77248  38.010   0.239   4.088
 5720W        W77249  23.625  43.103  10.653
 5721W        W77250  37.298  25.297   4.409
 5722W        W77251  39.248  11.144  12.018
 5723W        W77252   3.276  21.363   0.755
 5724W        W77253   0.944  33.017   2.366
 5725W        W77254  25.227   2.224   2.092
 5726W        W77255  25.243  37.777   4.185
 5727W        W77256  29.008  32.087  10.495
 5728W        W77257  22.937  16.269   4.601
 5729W        W77258  37.692   6.282   4.330
 5730W        W77259  25.324   4.447  14.309
 5731W        W77260   7.002  24.687   4.858
 5732W        W77261  41.416  26.458  12.545
 5733W        W77262  37.476  28.342  13.201
 5734W        W77263  18.563  41.749   3.426
 5735W        W77264  22.741   3.201   2.627
 5736W        W77265  33.362  19.206  12.100
 5737W        W77266   2.416  26.862  14.520
 5738W        W77267   5.849   8.157   0.919
 5739W        W77268  17.268  11.290   4.694
 5740W        W77269  14.249  19.192   4.463
 5741W        W77270  29.771  30.100   4.995
 5742W        W77271  35.671   6.926   2.405
 5743W        W77272  44.101  12.848  12.600
 5744W        W77273  10.730  12.584   0.269
 5745W        W77274   3.920   8.868  13.459
 5746W        W77275  32.013  20.513   0.324
 5747W        W77276   3.925  35.553   3.706
 5748W        W77277  31.976  39.247   1.306
 5749W        W77278  12.814  24.679   3.699
 5750W        W77279  37.039   6.163  12.942
 5751W        W77280   9.231   9.555   4.554
 5752W        W77281   9.765  38.580   5.098
 5753W        W77282  35.865  34.453  13.333
 5754W        W77283  43.985  24.421  14.862
 5755W        W77284  13.382  13.658   0.718
 5756W        W77285  33.518   3.394   1.319
 5757W        W77286  41.786  31.438   0.284
 5758W        W77287   2.265  36.879   2.455
 5759W        W77288  40.580  17.223  11.779
 5760W        W77289   4.401  24.413   2.856
 5761W        W77290  23.560  35.969   1.101
 5762W        W77291  44.083  24.732  14.373
 5763W        W77292  19.764   2.265   3.319
 5764W        W77293  43.261  18.028   0.723
 5765W        W77294   8.373  19.256  14.804
 5766W        W77295   1.795  12.786   4.310
 5767W        W77296  17.071  24.967  13.314
 5768W        W77297  15.868  41.310   2.254
 5769W        W77298   8.124  36.383  14.476
 5770W        W77299  24.594   7.301   2.852
 5771W        W77300   6.697   4.925  13.416
 5772W        W77301  13.069  24.016   4.568
 5773W        W77302  38.662  25.700  12.494
 5774W        W77303  36.487  41.101  12.415
 5775W        W77304  26.491  34.950  14.392
 5776W        W77305  14.647   0.356  12.074
 5777W        W77306  35.887  41.791   2.750
 5778W        W77307  43.507  11.480  12.625
 5779W        W77308  15.562  11.451   4.097
 5780W        W77309  20.290  43.878  11.621
 5781W        W77310   2.388  25.771   2.826
 5782W        W77311  26.818  10.286   2.002
 5783W        W77312  38.111  10.880   1.832
 5784W        W77313  11.831  32.609   4.058
 5785W        W77314  32.086  26.508  14.961
 5786W        W77315  14.385  15.306   4.885
 5787W        W77316  32.986  38.390  11.602
 5788W        W77317  28.080  42.567  11.158
 5789W        W77318  40.348  41.674  12.301
 5790W        W77319  18.220  27.416   4.928
 5791W        W77320  14.899  35.706  14.848
 5792W        W77321  14.704   5.319  12.510
 5793W        W77322  43.253  13.847   0.075
 5794W        W77323  20.502  41.051  13.855
 5795W        W77324  23.090  39.271  13.946
 5796W        W77325   9.396   5.637  11.193
 5797W        W77326  24.741  27.447  11.143
 5798W        W77327  17.128   0.066   0.348
 5799W        W77328  11.627  27.391   0.832
 5800W        W77329  44.061  43.049  14.792
 5801W        W77330   3.734  29.627   2.648
 5802W        W77331  38.770   3.252  13.871
 5803W        W77332   1.008  19.642  12.492
 5804W        W77333  21.737  43.366   1.941
 5805W        W77334  14.886  37.592  11.551
 5806W        W77335  37.254  26.720  11.360
 5807W        W77336  11.331  36.864   2.211
 5808W        W77337  13.802  20.161  11.623
 5809W        W77338  25.145  31.171   2.317
 5810W        W77339  39.877  38.903   2.321
 5811W        W77340  35.462  21.578   0.783
 5812W        W77341  26.204  22.143   1.343
 5813W        W77342  19.283  17.503   4.363
 5814W        W77343  23.727   0.078   1.705
 5815W        W77344  11.707   7.252  10.751
 5816W        W77345  30.178   0.097   3.669
 5817W        W77346  15.096  29.236   0.420
 5818W        W77347  33.847  38.587  12.104
 5819W        W77348  12.054   1.401  10.291
 5820W        W77349  32.396  25.477   1.742
 5821W        W77350  28.745  36.784   3.660
 5822W        W77351  31.812   5.390  10.953
 5823W        W77352  23.964  30.753  13.483
 5824W        W77353   4.969  34.566  14.345
 5825W        W77354  17.183  23.318  14.877
 5826W        W77355  23.656   8.797   3.185
 5827W        W77356  40.056  23.100  14.809
 5828W        W77357   1.947  19.324  11.966
 5829W        W77358  27.635   4.544   0.430
 5830W        W77359   8.964  11.163  12.069
 5831W        W77360   0.166  23.654   2.357
 5832W        W77361  40.564  15.144  12.116
 5833W        W77362  10.325  18.507  11.996
 5834W        W77363  21.147  13.702   1.422
 5835W        W77364  12.788  26.706  10.709
 5836W        W77365  12.260  35.277  11.852
 5837W        W77366  39.445  42.010  11.477
 5838W        W77367   1.390   3.118   0.872
 5839W        W77368  10.692  17.251  14.007
 5840W        W77369  40.502  17.693   2.974
 5841W        W77370  42.413  24.285  11.212
 5842W        W77371  26.663   6.882  14.131
 5843W        W77372   6.734  35.303  13.487
 5844W        W77373  15.644  16.237   0.365
 5845W        W77374  31.610  17.782   0.281
 5846W        W77375  15.947  43.527   1.838
 5847W        W77376  37.037  36.342   0.765
 5848W        W77377  44.303  42.255   2.324
 5849W        W77378   4.782   9.116   0.328
 5850W        W77379  10.692   8.321   4.542
 5851W        W77380  29.080  16.307   0.700
 5852W        W77381  44.361  10.628   1.885
 5853W        W77382  37.592  33.508   4.040
 5854W        W77383  41.485  17.192   0.801
 5855W        W77384   7.206  32.897  13.509
 5856W        W77385  31.319   7.139   0.271
 5857W        W77386  23.436  19.548   0.117
 5858W        W77387  13.726  33.913   0.942
 5859W        W77388  11.897  14.410  12.577
 5860W        W77389  32.614  13.280   3.549
 5861W        W77390  18.364   0.315  13.102
 5862W        W77391  13.558  35.063  13.383
 5863W        W77392   6.714  43.500  12.969
 5864W        W77393   9.646  18.694   2.402
 5865W        W77394  28.505  19.951   0.013
 5866W        W77395  14.370   7.613   4.042
 5867W        W77396  14.625  37.094   0.913
 5868W        W77397  14.162  11.847  11.602
 5869W        W77398  27.634  21.213   3.144
 5870W        W77399  40.053   9.942  11.186
 5871W        W77400  21.482  27.479   4.132
 5872W        W77401  40.579   4.356  14.090
 5873W        W77402   2.702  20.868  13.925
 5874W        W77403  14.623  21.700  14.845
 5875W        W77404  19.213   4.634  13.888
 5876W        W77405   0.855  38.522   1.751
 5877W        W77406  43.552  43.389   2.816
 5878W        W77407  39.524  19.255  14.404
 5879W        W77408  30.998   1.192  14.908
 5880W        W77409  34.536  31.252  10.849
 5881W        W77410  20.589  17.494   3.679
 5882W        W77411  18.875  36.305  11.045
 5883W        W77412  26.675  36.308  13.796
 5884W        W77413  32.502  33.605   4.048
 5885W        W77414  10.229   2.484   3.134
 5886W        W77415  44.852   3.864  11.129
 5887W        W77416   1.698  42.030   4.088
 5888W        W77417  43.958  40.793  13.631
 5889W        W77418  40.629  12.083  13.747
 5890W        W77419  35.017   7.732   4.077
 5891W        W77420  29.922  18.711   3.537
 5892W        W77421  23.010   5.302   0.526
 5893W        W77422   2.975   0.288  13.978
 5894W        W77423   8.278  25.704   0.334
 5895W        W77424  33.602  19.715  12.871
 5896W        W77425  41.371  34.020   2.446
 5897W        W77426  11.897   4.282  13.064
 5898W        W77427   3.815  41.878  11.560
 5899W        W77428  19.478  25.632   1.095
 5900W        W77429   6.294  29.945  12.061
 5901W        W77430  23.582   7.576   3.694
 5902W        W77431  25.225  16.062   4.371
 5903W        W77432  24.647   2.152  12.990
 5904W        W77433  16.254   0.685   2.260
 5905W        W77434  20.017  27.252   3.733
 5906W        W77435  32.786  31.031  14.815
 5907W        W77436  38.880   7.234   1.428
 5908W        W77437  42.549  12.146   2.818
 5909W        W77438  34.534  19.279  11.216
 5910W        W77439  13.764   8.441  14.929
 5911W        W77440  25.603  30.660   0.811
 5912W        W77441  17.592  30.469  11.061
 5913W        W77442  24.123  40.958  13.092
 5914W        W77443  25.157  16.962  12.456
 5915W        W77444  41.487  11.039   2.380
 5916W        W77445  10.629  13.360  14.536
 5917W        W77446  15.614  12.980   0.036
 5918W        W77447  33.457  18.399   1.365
 5919W        W77448  25.973   0.899   3.708
 5920W        W77449  23.562  25.112   1.737
 5921W        W77450  10.161  24.574   2.333
 5922W        W77451  24.815  28.005  12.809
 5923W        W77452  39.371  22.114  13.034
 5924W        W77453  27.622  33.152  13.023
 5925W        W77454  11.675  12.841  13.527
 5926W        W77455   3.483  44.621   1.250
 5927W        W77456  32.699  12.374  10.838
 5928W        W77457   2.728   0.716   0.907
 5929W        W77458   4.751   7.606   1.017
 5930W        W77459  26.115   7.764  14.902
 5931W        W77460  15.819   5.108  13.962
 5932W        W77461  15.015  41.507   1.587
 5933W        W77462   6.460  38.969   3.630
 5934W        W77463  32.594   5.832  13.478
 5935W        W77464   7.665   6.449   2.622
 5936W        W77465  10.336  43.366  11.926
 5937W        W77466  41.375  20.771  12.334
 5938W        W77467  11.388  25.446  11.520
 5939W        W77468  20.622   6.469   3.338
 5940W        W77469  19.108   1.353   2.744
 5941W        W77470  44.530  37.458   0.969
 5942W        W77471  32.163  29.173   3.752
 5943W        W77472  28.936  42.057  12.466
 5944W        W77473  17.250  41.446  11.862
 5945W        W77474  37.778  20.221   4.678
 5946W        W77475  11.112  37.474   3.080
 5947W        W77476  24.841   8.266   1.237
 5948W        W77477  43.588  18.526   4.487
 5949W        W77478  41.806  40.107  14.126
 5950W        W77479  34.324  13.858   2.715
 5951W        W77480  28.024  40.166   2.232
 5952W        W77481   1.804   7.143   3.287
 5953W        W77482  33.580  38.861   3.198
 5954W        W77483  14.035  36.646   0.157
 5955W        W77484  28.970   9.589  11.048
 5956W        W77485  36.313   2.430  11.056
 5957W        W77486  21.130   2.027   0.300
 5958W        W77487  18.889   4.294  10.505
 5959W        W77488  27.594  21.175  11.486
 5960W        W77489  23.614  36.900   2.161
 5961W        W77490   2.457  36.482   4.560
 5962W        W77491   6.393  32.186   1.662
 5963W        W77492  35.976  15.528   4.169
 5964W        W77493   3.726  18.008   0.273
 5965W        W77494  34.787  25.108   0.792
 5966W        W77495   1.891  36.183  13.653
 5967W        W77496  12.713  28.470   0.822
 5968W        W77497  19.994  21.781  10.545
 5969W        W77498   7.312  23.989   3.209
 5970W        W77499  43.372  20.610  14.480
 5971W        W77500   5.688  27.578   0.981
 5972W        W77501  19.812  15.108  14.184
 5973W        W77502  13.785  21.269   0.841
 5974W        W77503  36.940  18.757  12.942
 5975W        W77504   5.170   6.574   2.700
 5976W        W77505  10.292  38.702   3.541
 5977W        W77506  42.304  20.661   3.290
 5978W        W77507  18.313   5.978   3.593
 5979W        W77508  41.660  27.061   3.833
 5980W        W77509   6.732  12.271  14.988
 5981W        W77510  24.014   7.823  13.936
 5982W        W77511  39.634  29.154  14.387
 5983W        W77512  16.105   3.955  14.813
 5984W        W77513   7.351   8.427  11.644
 5985W        W77514   9.349  16.695   2.352
 5986W        W77515   3.311  13.551   3.795
 5987W        W77516  24.497  21.055   4.648
 5988W        W77517  20.638  33.054   1.152
 5989W        W77518  39.373  23.691   2.324
 5990W        W77519  30.563  11.122   0.887
 5991W        W77520   7.210  13.329  14.943
 5992W        W77521  11.343   2.281  14.972
 5993W        W77522  21.657  13.700   1.510
 5994W        W77523  22.091   9.644   4.270
 5995W        W77524  43.891  19.075   3.789
 5996W        W77525  18.612  23.255   3.810
 5997W        W77526   0.531  10.753  13.825
 5998W        W77527  17.606  39.108   4.348
 5999W        W77528   9.292  10.834   0.705
 6000W        W77529  25.486  22.136  10.745
 6001W        W77530  12.801  10.853   3.707
 6002W        W77531  43.715   9.788  12.978
 6003W        W77532  19.004  43.328  14.446
 6004W        W77533   1.606  11.945  14.457
 6005W        W77534  39.050  44.004   0.404
 6006W        W77535  34.148  14.917   0.722
 6007W        W77536  20.162  14.272  12.539
 6008W        W77537  43.342  23.940  13.916
 6009W        W77538  31.995  26.983   4.569
 6010W        W77539  18.366  36.087  14.546
 6011W        W77540  27.246   4.838  11.567
 6012W        W77541  12.622  28.635  13.540
 6013W        W77542   5.948   7.684   1.912
 6014W        W77543  37.545  37.916  11.416
 6015W        W77544  13.111  37.866  12.051
 6016W        W77545  23.571  36.417   4.244
 6017W        W77546  33.443   2.482   4.016
 6018W        W77547  11.905   9.597   1.361
 6019W        W77548  43.280  24.536  11.715
 6020W        W77549  35.933  10.289  12.957
 6021W        W77550  44.997  15.033  12.669
 6022W        W77551  26.839  36.943  10.723
 6023W        W77552  35.064  22.349  13.720
 6024W        W77553  37.114  15.675   0.002
 6025W        W77554  30.947  39.281  13.029
 6026W        W77555   9.180  14.678  11.563
 6027W        W77556  41.939  41.585   3.546
 6028W        W77557  34.901  36.954  11.411
 6029W        W77558  16.411  39.201   1.792
 6030W        W77559  13.347  27.014   3.926
 6031W        W77560  17.784  30.998   2.246
 6032W        W77561  30.554   9.338   0.453
 6033W        W77562  44.182  44.680   3.419
 6034W        W77563  27.750  37.936  10.653
 6035W        W77564  44.321   5.875  14.721
 6036W        W77565   5.884  40.125  13.307
 6037W        W77566  43.008  19.070  14.038
 6038W        W77567   2.996  27.495   2.996
 6039W        W77568  20.167  27.018  12.890
 6040W        W77569  41.430  11.742   0.433
 6041W        W77570  12.872  23.831   3.245
 6042W        W77571  28.916   4.840  14.394
 6043W        W77572  31.357  37.443  13.264
 6044W        W77573  12.633  15.151  13.576
 6045W        W77574  34.158  12.952  13.556
 6046W        W77575  34.044   0.131   3.430
 6047W        W77576  23.701  22.219  10.727
 6048W        W77577  33.167  33.029   1.962
 6049W        W77578  37.604  34.128   0.705
 6050W        W77579  41.368  28.008   4.981
 6051W        W77580  14.485  26.699  14.813
 6052W        W77581   1.457  41.591   4.278
 6053W        W77582  17.401  40.302  12.015
 6054W        W77583   3.391  11.983  14.898
 6055W        W77584  25.018  23.272   2.642
 6056W        W77585  28.408  36.931  11.955
 6057W        W77586  13.858  15.691  10.982
 6058W        W77587   9.230   4.959   3.677
 6059W        W77588  24.854  20.617   2.752
 6060W        W77589  43.686  42.932  14.450
 6061W        W77590  35.234   2.844  14.919
 6062W        W77591  36.032  41.508  14.385
 6063W        W77592  37.382  24.894  10.646
 6064W        W77593   9.065  26.080   2.957
 6065W        W77594  23.688  22.199   0.883
 6066W        W77595  38.558  26.242   0.455
 6067W        W77596  32.194   2.234  12.891
 6068W        W77597  42.373   0.810  11.107
 6069W        W77598  13.671  11.003  11.272
 6070W        W77599  13.069  39.359   4.726
 6071W        W77600  22.721  36.036  11.050
 6072W        W77601  30.849  42.905   2.323
 6073W        W77602  27.253  34.585  13.315
 6074W        W77603  35.993  18.801   2.460
 6075W        W77604  38.240  22.089   0.253
 6076W        W77605  14.729  35.159  10.786
 6077W        W77606   9.274  42.230   2.742
 6078W        W77607  37.763  15.027   0.250
 6079W        W77608  26.849  43.038   3.761
 6080W        W77609  28.415   2.900   2.308
 6081W        W77610  30.833  13.098   4.522
 6082W        W77611   4.432  10.285   4.612
 6083W        W77612  32.582  12.848   2.390
 6084W        W77613  33.357  29.220   5.087
 6085W        W77614  28.905  22.583   3.534
 6086W        W77615  22.537  16.608   4.573
 6087W        W77616  16.622  27.458   0.374
 6088W        W77617  24.189   0.495   2.323
 6089W        W77618  17.211  25.233  14.883
 6090W        W77619  29.828  43.633   0.771
 6091W        W77620  27.212  39.545   1.841
 6092W        W77621  23.221  15.816  14.812
 6093W        W77622   4.246  31.017   0.897
 6094W        W77623  24.414  35.880   0.635
 6095W        W77624  11.686  35.975   2.182
 6096W        W77625   7.220  37.896   4.317
 6097W        W77626  36.011  41.046  12.881
 6098W        W77627   3.311  37.922   2.330
 6099W        W77628   5.316  10.938   4.610
 6100W        W77629  22.544  40.036  13.923
 6101W        W77630   2.681  15.050  12.500
 6102W        W77631  32.994  10.899   0.753
 6103W        W77632  35.802  11.360   1.961
 6104W        W77633   1.106  25.034  11.803
 6105W        W77634  17.285   8.281  12.978
 6106W        W77635  30.373  24.187   1.019
 6107W        W77636   9.167  42.036   2.255
 6108W        W77637   4.752  14.685   3.052
 6109W        W77638   8.369  16.693  14.284
 6110W        W77639  19.582   3.915   1.387
 6111W        W77640  29.613  16.393  10.608
 6112W        W77641  36.624  30.056  11.235
 6113W        W77642  11.369  27.019   2.164
 6114W        W77643  31.663  36.539   4.689
 6115W        W77644  14.857  35.798   4.649
 6116W        W77645  39.947   9.070  14.373
 6117W        W77646  11.132   1.472  11.167
 6118W        W77647  10.542  27.536  14.746
 6119W        W77648  13.717  28.464   3.348
 6120W        W77649  17.829  21.105   3.261
 6121W        W77650   9.199   3.404   4.544
 6122W        W77651  16.539  40.576   2.364
 6123W        W77652  32.283  33.499   2.891
 6124W        W77653   0.881   5.904  11.404
 6125W        W77654  10.056  17.674  13.558
 6126W        W77655   9.046  17.188   2.213
 6127W        W77656  31.710   4.097   4.151
 6128W        W77657  20.811  31.888   3.783
 6129W        W77658  26.539  32.451  10.325
 6130W        W77659   4.474  38.862  12.533
 6131W        W77660  42.902  44.488   3.774
 6132W        W77661   1.499  33.797  13.447
 6133W        W77662  11.366   0.714  14.930
 6134W        W77663  22.094   9.474  14.824
 6135W        W77664  22.530  36.922  11.138
 6136W        W77665  24.137  31.159  11.701
 6137W        W77666  23.587  20.944  14.038
 6138W        W77667   8.146  16.979  13.109
 6139W        W77668   2.663  27.788  14.530
 6140W        W77669  24.575  22.700  13.103
 6141W        W77670  20.600  22.040  11.693
 6142W        W77671   7.139  35.781   1.301
 6143W        W77672  36.672  44.136   3.423
 6144W        W77673  39.372   9.794  13.489
 6145W        W77674  43.364  41.095   2.559
 6146W        W77675   8.933  25.620   2.346
 6147W        W77676  13.600  41.871  14.405
 6148W        W77677  37.427  13.718  14.589
 6149W        W77678   4.719   7.243  11.742
 6150W        W77679  17.640  32.976   1.146
 6151W        W77680  14.201   2.279   0.712
 6152W        W77681  22.580  33.254   2.872
 6153W        W77682  40.295  22.576  11.581
 6154W        W77683   3.977  26.906   4.963
 6155W        W77684  36.678   6.882  11.581
 6156W        W77685  43.711  34.531  12.119
 6157W        W77686  26.002  13.751  13.149
 6158W        W77687  17.897  41.763  14.454
 6159W        W77688  12.787  37.207   0.471
 6160W        W77689  20.573  13.599   0.786
 6161W        W77690   8.388  40.911  10.997
 6162W        W77691   1.030  32.430  12.089
 6163W        W77692  15.852  26.056  11.649
 6164W        W77693  21.426  39.122   4.548
 6165W        W77694  36.604   5.032   0.959
 6166W        W77695  41.434  42.122   1.870
 6167W        W77696  21.733  35.998   3.492
 6168W        W77697  24.740   2.313   2.317
 6169W        W77698  25.519  12.830  14.895
 6170W        W77699   0.659  44.012   5.284
 6171W        W77700   6.131  18.823   2.272
 6172W        W77701  23.965  16.741  11.233
 6173W        W77702   4.121   5.873   1.507
 6174W        W77703  36.565   3.377   2.682
 6175W        W77704  24.219  27.713  14.421
 6176W        W77705  13.353  17.385  10.494
 6177W        W77706  23.663  23.221   4.853
 6178W        W77707  17.244  40.961   4.730
 6179W        W77708   6.624  37.387  14.331
 6180W        W77709  38.209   9.290  14.454
 6181W        W77710   7.436  26.397  11.452
 6182W        W77711  27.187  44.254  12.870
 6183W        W77712  13.334  39.467   1.379
 6184W        W77713  22.674  34.439  10.716
 6185W        W77714  32.906  20.247   0.812
 6186W        W77715  20.109   9.859  12.932
 6187W        W77716  14.437   7.565  10.284
 6188W        W77717  24.081   5.382  11.034
 6189W        W77718  25.115  27.964  13.991
 6190W        W77719   9.338  21.284  12.113
 6191W        W77720   0.265  26.594  11.981
 6192W        W77721   4.794   7.389  12.217
 6193W        W77722  17.532  28.058  12.678
 6194W        W77723  37.582  12.830   1.249
 6195W        W77724  40.399   2.144  12.928
 6196W        W77725  17.657  37.835  13.788
 6197W        W77726   8.216   8.628  13.539
 6198W        W77727  20.613  10.406   3.053
 6199W        W77728  21.250  24.110   0.068
 6200W        W77729   3.712  12.816  10.617
 6201W        W77730  27.570   7.191  10.687
 6202W        W77731   2.946  42.412   1.288
 6203W        W77732  30.620  24.680   4.078
 6204W        W77733  17.311   1.337   3.149
 6205W        W77734  32.475  21.181   3.214
 6206W        W77735  14.125  17.285  11.077
 6207W        W77736   4.716  22.239  13.767
 6208W        W77737   5.324  34.066   2.403
 6209W        W77738  29.247  21.095   0.836
 6210W        W77739  11.335  27.458   0.403
 6211W        W77740  19.777  29.145   2.385
 6212W        W77741  29.490  12.587   0.402
 6213W        W77742  35.354  17.016  10.901
 6214W        W77743  40.615  40.609   3.826
 6215W        W77744   6.712  17.085  14.745
 6216W        W77745  31.141  16.385  14.444
 6217W        W77746  22.788  17.405  10.695
 6218W        W77747   2.280  26.927  10.259
 6219W        W77748  24.128  16.176  13.828
 6220W        W77749  38.567  10.967   1.491
 6221W        W77750  36.444  17.305   2.156
 6222W        W77751  27.581   3.403  14.203
 6223W        W77752  39.653  13.423   0.837
 6224W        W77753  22.973  23.099   4.264
 6225W        W77754  33.825   8.454   2.810
 6226W        W77755  44.801  33.182   4.107
 6227W        W77756  42.206  29.545   1.710
 6228W        W77757  14.844  31.824   0.965
 6229W        W77758  34.885  11.268  11.510
 6230W        W77759   4.965   3.836   2.424
 6231W        W77760  12.344  26.487   0.185
 6232W        W77761  39.049  20.782  11.522
 6233W        W77762  26.500   4.338  13.707
 6234W        W77763  34.443  43.467   2.873
 6235W        W77764  29.075   6.256   3.645
 6236W        W77765  17.821  40.466  14.894
 6237W        W77766  32.340   9.790   4.613
 6238W        W77767  29.849  19.949   1.388
 6239W        W77768  25.033   5.196  13.428
 6240W        W77769   5.761  11.646   4.313
 6241W        W77770  15.747  44.744   0.498
 6242W        W77771  10.726  27.905  14.350
 6243W        W77772  13.066  18.296   1.988
 6244W        W77773  36.095   1.475   1.729
 6245W        W77774  15.068  21.576   3.268
 6246W        W77775  16.632  24.620   3.778
 6247W        W77776  39.914  11.338  13.039
 6248W        W77777  17.577  23.284   0.278
 6249W        W77778  32.730  33.180   2.893
 6250W        W77779  32.903  36.806  12.812
 6251W        W77780  15.222  32.073   0.288
 6252W        W77781  41.753  31.858  11.106
 6253W        W77782   8.181   0.107  14.030
 6254W        W77783  25.465  36.738  10.833
 6255W        W77784   7.388  13.817   0.369
 6256W        W77785  38.547  23.224   4.517
 6257W        W77786  36.035  22.061  10.488
 6258W        W77787  10.113  26.503   0.856
 6259W        W77788  36.539   6.376  10.417
 6260W        W77789  12.164  28.096   1.933
 6261W        W77790   3.224  37.719   1.842
 6262W        W77791  34.174  12.090   0.571
 6263W        W77792   2.505   3.721   3.877
 6264W        W77793  33.512  24.137   4.591
 6265W        W77794  18.779  17.536   2.316
 6266W        W77795   9.233  17.169  14.072
 6267W        W77796  25.641   9.669  11.855
 6268W        W77797  20.123  16.714   0.337
 6269W        W77798  35.811   6.370   2.599
 6270W        W77799  23.242   6.786  13.788
 6271W        W77800  15.936  25.500  12.503
 6272W        W77801  22.135  25.764  11.658
 6273W        W77802  17.151  29.520   0.903
 6274W        W77803  38.889  13.143  10.455
 6275W        W77804  41.712  15.605   5.108
 6276W        W77805  34.222   3.792   0.434
 6277W        W77806   6.330   1.664  14.480
 6278W        W77807  17.210  43.918   0.735
 6279W        W77808   4.994  26.465   1.306
 6280W        W77809  16.794  23.037   3.366
 6281W        W77810  27.121  27.256  12.604
 6282W        W77811  35.069  12.490  12.658
 6283W        W77812  15.334  15.986  14.387
 6284W        W77813  25.110   5.143   3.631
 6285W        W77814  24.040  37.501   4.206
 6286W        W77815  24.313  36.865   1.414
 6287W        W77816   5.387  30.497  11.603
 6288W        W77817  34.371  22.057  13.962
 6289W        W77818   4.794  21.979   2.341
 6290W        W77819  18.551  32.614   0.349
 6291W        W77820  28.416   6.508  14.115
 6292W        W77821  18.748   6.070   0.230
 6293W        W77822  29.982  12.190   3.822
 6294W        W77823   1.477   7.775  13.904
 6295W        W77824  29.704   2.541  14.861
 6296W        W77825  14.550  44.370   3.332
 6297W        W77826  31.996  11.131  13.491
 6298W        W77827  18.561  26.678   4.585
 6299W        W77828   1.120  40.522   2.636
 6300W        W77829  32.439  29.214  10.537
 6301W        W77830  11.401  22.227   4.200
 6302W        W77831  39.969  36.784   3.623
 6303W        W77832  14.976  12.619   4.939
 6304W        W77833  20.581  31.182  11.164
 6305W        W77834  19.246  17.314  11.022
 6306W        W77835  33.610  42.267   1.728
 6307W        W77836   7.749   4.756  10.141
 6308W        W77837  37.987  37.199  14.396
 6309W        W77838  17.531  31.937   0.427
 6310W        W77839  35.925   3.685  12.428
 6311W        W77840  43.852  36.932   2.859
 6312W        W77841  17.797  24.074   3.350
 6313W        W77842  11.027  29.682   2.034
 6314W        W77843  29.580   9.145   0.242
 6315W        W77844  29.998  13.750  11.143
 6316W        W77845  15.592  33.294  11.134
 6317W        W77846  29.160  18.709   0.264
 6318W        W77847   7.932  14.533  10.684
 6319W        W77848  33.951  18.310  13.577
 6320W        W77849  27.472  43.526  11.817
 6321W        W77850   7.627  21.265   4.671
 6322W        W77851  27.971  31.485   2.325
 6323W        W77852   3.700  40.277  10.626
 6324W        W77853  43.037  25.889  10.952
 6325W        W77854  25.803  28.865   1.053
 6326W        W77855  32.039  21.923  11.626
 6327W        W77856   8.865  37.523  10.394
 6328W        W77857   1.843  16.281   4.231
 6329W        W77858  15.527  42.080  12.548
 6330W        W77859  26.430  38.461  12.946
 6331W        W77860   2.061  31.498   4.634
 6332W        W77861  33.334  39.175  14.904
 6333W        W77862  18.488  23.714  12.519
 6334W        W77863   0.803  17.610   3.658
 6335W        W77864  11.319  42.866   2.782
 6336W        W77865  29.167   8.821  13.368
 6337W        W77866   3.297   8.013   4.157
 6338W        W77867  31.079   3.541   0.779
 6339W        W77868  15.572  32.529   2.782
 6340W        W77869  17.581   5.366   2.319
 6341W        W77870  42.398   4.291  14.441
 6342W        W77871   5.716  29.073   3.102
 6343W        W77872  21.724  21.304   2.267
 6344W        W77873   3.294   9.777  12.543
 6345W        W77874  14.792  11.865   0.879
 6346W        W77875  15.592  38.543   3.264
 6347W        W77876  24.265  29.889   0.472
 6348W        W77877  43.679  35.693  10.145
 6349W        W77878   9.561  13.699  11.388
 6350W        W77879   3.621  35.595  12.291
 6351W        W77880   7.771  26.133   0.963
 6352W        W77881   2.395  39.294  14.326
 6353W        W77882  33.823  19.809   2.285
 6354W        W77883  18.843  11.157   1.840
 6355W        W77884   9.945  16.762  13.094
 6356W        W77885  20.734  29.686  14.247
 6357W        W77886  10.405  30.408  11.600
 6358W        W77887   3.149  27.613  14.350
 6359W        W77888  28.146   7.279   1.185
 6360W        W77889   3.843  31.666  12.569
 6361W        W77890  20.710   4.152   0.733
 6362W        W77891  38.566   9.635   1.447
 6363W        W77892  38.322  15.622  11.134
 6364W        W77893  35.075   4.722  13.864
 6365W        W77894  19.064  20.010   1.915
 6366W        W77895  27.244  37.429  12.627
 6367W        W77896  20.206  34.164  12.863
 6368W        W77897   0.994  22.228   4.223
 6369W        W77898  29.152  12.282  11.722
 6370W        W77899  25.519  40.300   2.838
 6371W        W77900  27.094  21.653   3.690
 6372W        W77901  21.629  35.616   0.986
 6373W        W77902  18.219  19.865   4.508
 6374W        W77903   9.266  44.722  11.454
 6375W        W77904  16.178   0.519   1.710
 6376W        W77905   7.350  40.504   4.086
 6377W        W77906  28.229  43.795  14.867
 6378W        W77907  34.383  19.592  12.463
 6379W        W77908  12.291  27.507   0.346
 6380W        W77909  23.594  43.980  10.985
 6381W        W77910  11.446   7.953  11.283
 6382W        W77911  20.143  29.374   2.698
 6383W        W77912  26.065  42.445   4.192
 6384W        W77913  12.638  22.499  13.000
 6385W        W77914  29.697  15.705   2.769
 6386W        W77915   3.749  23.032  10.642
 6387W        W77916  42.809  38.000  14.953
 6388W        W77917  30.884  28.380   4.561
 6389W        W77918   1.278  27.043   0.459
 6390W        W77919  16.609   1.212   1.035
 6391W        W77920  10.410  43.047  14.013
 6392W        W77921  19.611  29.977  14.064
 6393W        W77922  36.064  42.752   2.729
 6394W        W77923  24.965  38.342  12.928
 6395W        W77924   9.525  25.074   3.330
 6396W        W77925   9.594  25.014  11.367
 6397W        W77926   2.029  16.681  12.979
 6398W        W77927  23.125  41.853   2.525
 6399W        W77928   4.245  40.785   2.117
 6400W        W77929  20.141   6.054  14.274
 6401W        W77930   7.679  28.084  14.407
 6402W        W77931  19.743  33.621  10.701
 6403W        W77932   5.634  30.986  10.731
 6404W        W77933  22.771  23.508   2.137
 6405W        W77934  29.121  13.690  14.925
 6406W        W77935  19.209  30.734  11.718
 6407W        W77936  19.199  19.363   1.225
 6408W        W77937   6.388  10.089  14.859
 6409W        W77938   9.256  42.957  13.139
 6410W        W77939  30.094  42.008  13.559
 6411W        W77940  14.100  18.302   0.326
 6412W        W77941  20.589  14.317  14.322
 6413W        W77942  30.066  29.102   2.881
 6414W        W77943  40.929   8.901  12.542
 6415W        W77944   6.793  26.639  11.944
 6416W        W77945  22.170  32.869  14.753
 6417W        W77946   4.283  33.206   3.068
 6418W        W77947   6.928  16.155   2.164
 6419W        W77948   9.311  31.596   4.384
 6420W        W77949  30.597  37.616  12.207
 6421W        W77950   8.294   6.132   2.932
 6422W        W77951  21.342  35.318  13.193
 6423W        W77952  27.589  38.139  13.380
 6424W        W77953  18.838  36.171  14.184
 6425W        W77954  34.542   6.606  11.140
 6426W        W77955  18.559  31.486   3.573
 6427W        W77956  32.827  31.045  11.249
 6428W        W77957  41.497  25.947  11.893
 6429W        W77958   6.172  14.273   2.419
 6430W        W77959  40.029   2.596  11.155
 6431W        W77960  21.442  32.369  11.224
 6432W        W77961  41.799  36.363  11.329
 6433W        W77962   6.940  41.315   3.894
 6434W        W77963  41.300  40.501   4.170
 6435W        W77964   0.826  15.063   1.129
 6436W        W77965  33.100   0.776   0.402
 6437W        W77966  13.237   2.329  11.850
 6438W        W77967  27.421  10.886  14.062
 6439W        W77968   9.406   9.825   2.742
 6440W        W77969  40.956   5.509   1.486
 6441W        W77970  13.266  28.917   4.024
 6442W        W77971   6.374  13.224   4.562
 6443W        W77972  11.511  20.233   1.395
 6444W        W77973  44.026   4.015  12.365
 6445W        W77974  39.006  30.302  10.805
 6446W        W77975  29.221  21.015   3.643
 6447W        W77976  25.266  34.475  12.433
 6448W        W77977  42.349  10.258   3.714
 6449W        W77978  22.663  27.244  12.731
 6450W        W77979   0.522  32.447  12.004
 6451W        W77980  28.830  17.026   3.099
 6452W        W77981  12.633   5.873   1.848
 6453W        W77982   4.307  13.999   4.140
 6454W        W77983  21.462  15.132   0.219
 6455W        W77984  19.503   6.741  14.266
 6456W        W77985   4.214  17.539   5.067
 6457W        W77986   7.279  11.648  13.245
 6458W        W77987  18.166  44.006  11.560
 6459W        W77988  23.956   8.295  12.087
 6460W        W77989  26.734  28.501  11.506
 6461W        W77990   7.067   5.924   3.193
 6462W        W77991  44.064  38.492  10.603
 6463W        W77992  33.551   6.784   2.686
 6464W        W77993   2.012   6.467   4.040
 6465W        W77994   8.957  16.713  12.856
 6466W        W77995  40.913  44.277   1.444
 6467W        W77996  32.755  12.939  14.412
 6468W        W77997  16.843  10.637   0.848
 6469W        W77998  44.019  44.712   1.495
 6470W        W77999  21.786  21.165   4.276
 6471W        W78000  13.534  44.036  12.571
 6472W        W78001   9.677  33.603  11.581
 6473W        W78002   2.410  26.179  11.460
 6474W        W78003  27.567  36.377   4.169
 6475W        W78004  11.580  13.054   4.368
 6476W        W78005  17.330  31.861  13.892
 6477W        W78006  36.964   2.397  13.504
 6478W        W78007  42.252  10.305  14.278
 6479W        W78008  15.311   6.746   5.018
 6480W        W78009  42.965  33.088   0.217
 6481W        W78010  23.045  38.225   1.500
 6482W        W78011  34.602  41.344  14.010
 6483W        W78012   5.722   5.338  14.590
 6484W        W78013  20.631  27.565  13.406
 6485W        W78014   9.330  29.741   2.706
 6486W        W78015  37.314  41.902  14.999
 6487W        W78016  34.413  35.300  11.245
 6488W        W78017  13.107   4.845   0.538
 6489W        W78018  34.121  30.733   2.861
 6490W        W78019  40.560   4.167   0.524
 6491W        W78020   1.532   8.262   0.926
 6492W        W78021  34.621  17.039  13.573
 6493W        W78022  42.388  16.845   5.001
 6494W        W78023   1.252   4.869   2.897
 6495W        W78024  16.499  33.364   4.233
 6496W        W78025  32.173  43.236   2.693
 6497W        W78026  28.023  19.693  11.856
 6498W        W78027   9.480   3.805   0.378
 6499W        W78028  13.438  33.500  14.482
 6500W        W78029   2.943  40.474  12.226
 6501W        W78030  12.289  15.588   1.110
 6502W        W78031  11.291  10.892  13.974
 6503W        W78032  19.095   6.419  14.409
 6504W        W78033  40.485  20.216   3.752
 6505W        W78034  38.046   8.925  12.671
 6506W        W78035  36.417  15.206   1.392
 6507W        W78036  16.667  42.785  14.433
 6508W        W78037   7.231  38.903  10.412
 6509W        W78038  12.373  13.871   1.576
 6510W        W78039  23.300  42.419   4.866
 6511W        W78040  25.440   1.447  14.222
 6512W        W78041   1.427  17.212  14.805
 6513W        W78042  18.230  29.065  14.924
 6514W        W78043  35.964  34.361  14.196
 6515W        W78044  35.982   9.280   3.216
 6516W        W78045  15.632  22.692  10.815
 6517W        W78046   2.660  40.234  11.488
 6518W        W78047  27.126  19.941   2.696
 6519W        W78048  35.341  43.783  12.557
 6520W        W78049   8.267   1.758  11.518
 6521W        W78050  36.027  27.144  10.375
 6522W        W78051   1.551   4.207   4.580
 6523W        W78052   8.385   0.874   4.973
 6524W        W78053  16.411  33.896   1.638
 6525W        W78054  28.625   1.036  13.559
 6526W        W78055  13.074  22.962  13.978
 6527W        W78056  23.691  25.169   0.766
 6528W        W78057   4.979   4.779   1.290
 6529W        W78058  39.288  27.584  13.811
 6530W        W78059   3.307  44.964   0.872
 6531W        W78060  33.335  41.386   4.557
 6532W        W78061  15.033  37.523   2.085
 6533W        W78062   5.265  27.484   1.275
 6534W        W78063  44.931  37.298  14.552
 6535W        W78064   5.627  15.696  11.184
 6536W        W78065  16.202  14.665   4.063
 6537W        W78066  31.893  40.255  11.354
 6538W        W78067  41.726  40.432  12.795
 6539W        W78068  30.925  42.320  12.623
 6540W        W78069  27.533  15.323   1.754
 6541W        W78070  28.347  35.066   2.933
 6542W        W78071  34.022  10.131   4.615
 6543W        W78072  31.541   5.649  11.653
 6544W        W78073  32.711  39.842  12.765
 6545W        W78074   0.616  13.223   4.134
 6546W        W78075  18.048  41.842  12.010
 6547W        W78076   3.415   3.810   3.325
 6548W        W78077  29.104   4.817  13.876
 6549W        W78078  27.789   1.269  13.069
 6550W        W78079  23.059  19.393   4.897
 6551W        W78080   7.549  11.626  14.236
 6552W        W78081  36.522  33.166  13.841
 6553W        W78082  37.771  21.623   4.616
 6554W        W78083   0.436  38.320  11.864
 6555W        W78084  44.446   1.925   4.115
 6556W        W78085   5.214  17.119  11.612
 6557W        W78086  11.887  41.766   3.190
 6558W        W78087  35.763  44.977   4.489
 6559W        W78088  43.489  36.067   3.175
 6560W        W78089   7.686  40.567  12.311
 6561W        W78090  15.583  18.028   2.446
 6562W        W78091  39.129  13.246   3.694
 6563W        W78092   5.838  24.463   4.641
 6564W        W78093   2.438  23.471   0.273
 6565W        W78094   7.930   6.334  13.414
 6566W        W78095  36.484  25.520  10.817
 6567W        W78096   7.935  28.748   4.232
 6568W        W78097  40.655   6.807  13.119
 6569W        W78098   7.873  39.575   0.479
 6570W        W78099  24.047  23.055  14.556
 6571W        W78100  19.943  34.864  14.355
 6572W        W78101  29.960  35.442   4.496
 6573W        W78102  26.962  19.819  14.435
 6574W        W78103  41.394  33.042   1.489
 6575W        W78104  14.570  38.049   0.329
 6576W        W78105  39.910   4.952  13.029
 6577W        W78106   6.708  20.947  13.808
 6578W        W78107  28.362  24.067   1.393
 6579W        W78108  35.061  41.103  12.003
 6580W        W78109  24.552  17.617   1.965
 6581W        W78110  30.500  43.220   2.656
 6582W        W78111  20.791  31.534  10.796
 6583W        W78112  32.505  10.918  10.703
 6584W        W78113   9.234  21.188  10.742
 6585W        W78114   8.620  30.623  12.547
 6586W        W78115  10.381  25.584   1.269
 6587W        W78116  22.471  37.687  12.647
 6588W        W78117  11.409   5.088   0.277
 6589W        W78118  32.564  25.102  14.582
 6590W        W78119  30.860  35.256   3.229
 6591W        W78120  44.507  29.901   2.851
 6592W        W78121  33.291   7.446  13.935
 6593W        W78122   4.210  25.116   0.092
 6594W        W78123  25.775  21.327   0.645
 6595W        W78124  18.267   2.773   3.978
 6596W        W78125  34.062  37.783  12.421
 6597W        W78126   5.784  38.885  13.005
 6598W        W78127  32.603  32.137   2.855
 6599W        W78128  40.452  42.653  12.522
 6600W        W78129  32.021  29.912   0.675
 6601W        W78130  28.885  36.130   2.354
 6602W        W78131  20.230   3.933   3.895
 6603W        W78132   5.643  18.065   1.928
 6604W        W78133  30.604  28.189  10.668
 6605W        W78134  19.637  42.237   2.297
 6606W        W78135  34.975  43.565  12.825
 6607W        W78136  10.907  41.446  12.092
 6608W        W78137  36.024  32.681   3.343
 6609W        W78138  12.081  12.038   0.626
 6610W        W78139   2.768  18.662  14.151
 6611W        W78140  39.002  20.975   4.931
 6612W        W78141  14.659  18.416  10.120
 6613W        W78142  41.777   0.966   4.238
 6614W        W78143  22.444   5.257   9.880
 6615W        W78144  41.806   9.151   3.181
 6616W        W78145  25.984  19.140   3.132
 6617W        W78146  18.369   0.740  14.361
 6618W        W78147  10.485  21.753  13.271
 6619W        W78148  41.853  27.189   0.330
 6620W        W78149  10.920  34.492   0.377
 6621W        W78150  25.352  37.058  11.228
 6622W        W78151  38.077  33.896   0.782
 6623W        W78152  42.932   2.460  12.125
 6624W        W78153  22.017  10.258  13.915
 6625W        W78154  10.434  37.099  11.138
 6626W        W78155   2.297  17.186  11.701
 6627W        W78156   3.720  43.890  10.494
 6628W        W78157   7.139   4.936   3.802
 6629W        W78158  40.255  11.810   3.315
 6630W        W78159  44.795  27.447   3.192
 6631W        W78160  41.332  11.926  12.387
 6632W        W78161  23.216  10.093   0.641
 6633W        W78162  19.204   4.232  12.552
 6634W        W78163  21.767  32.792   0.698
 6635W        W78164   5.825  42.964   2.184
 6636W        W78165  41.330  26.667   3.741
 6637W        W78166  23.552  12.578  12.513
 6638W        W78167   5.344  31.995   3.919
 6639W        W78168  14.547  24.562   1.153
 6640W        W78169  44.305  16.670   1.758
 6641W        W78170   6.466  42.028   4.094
 6642W        W78171  40.952   7.388  12.474
 6643W        W78172   3.033  44.784   0.427
 6644W        W78173  21.680  30.207   2.282
 6645W        W78174  23.088  17.617  14.053
 6646W        W78175  16.120  39.022   3.707
 6647W        W78176  35.698  21.072   3.208
 6648W        W78177   4.479  27.776  13.219
 6649W        W78178   5.306  43.553   0.973
 6650W        W78179  16.011  28.146   1.790
 6651W        W78180   6.351   1.254  14.820
 6652W        W78181  25.688  42.786   2.391
 6653W        W78182  16.127  40.271   2.226
 6654W        W78183  39.081   5.049   2.261
 6655W        W78184  18.720  37.599  10.951
 6656W        W78185  36.289   1.171   4.101
 6657W        W78186  26.937  27.090   2.667
 6658W        W78187   5.910   8.647   4.652
 6659W        W78188  17.084   2.981  13.746
 6660W        W78189   6.155  37.270  11.454
 6661W        W78190  40.597  21.115  12.544
 6662W        W78191  30.398  38.132   0.884
 6663W        W78192  36.059  31.382   2.354
 6664W        W78193  19.884   7.240   1.366
 6665W        W78194  10.245   1.430  11.071
 6666W        W78195  27.774  10.097  11.449
 6667W        W78196  30.990  24.541  14.577
 6668W        W78197  25.226  35.394   0.457
 6669W        W78198   9.186  16.214   4.072
 6670W        W78199  35.061  16.752  14.819
 6671W        W78200   0.941  41.107   4.985
 6672W        W78201  24.192  38.434  13.377
 6673W        W78202  17.587  34.368  13.227
 6674W        W78203  42.953  10.342  10.948
 6675W        W78204  42.710  22.775   3.610
 6676W        W78205  33.566  12.680   0.291
 6677W        W78206   5.751  39.865   2.378
 6678W        W78207  30.302  17.122  13.791
 6679W        W78208  39.866  23.600   2.435
 6680W        W78209  13.110   8.760   1.901
 6681W        W78210   8.092   4.901  14.400
 6682W        W78211   5.784   9.593   1.219
 6683W        W78212  39.661   9.245  10.662
 6684W        W78213  21.949  15.701   0.776
 6685W        W78214  41.975  27.341  13.728
 6686W        W78215  16.692  30.034   9.944
 6687W        W78216  16.258  29.060  14.607
 6688W        W78217  30.053  12.280  13.763
 6689W        W78218  18.636   8.573   3.842
 6690W        W78219   3.189  24.692   3.050
 6691W        W78220  19.779  28.304   0.535
 6692W        W78221  23.157  17.868   4.591
 6693W        W78222  31.977  24.517  13.998
 6694W        W78223  36.547  24.027   0.877
 6695W        W78224  22.537  43.590  13.773
 6696W        W78225   1.766   3.963   0.891
 6697W        W78226  40.261  38.332  14.419
 6698W        W78227  25.997   9.899  13.845
 6699W        W78228  42.966  42.304   1.296
 6700W        W78229  23.097  23.767  13.529
 6701W        W78230  41.815  10.758  11.183
 6702W        W78231   8.919  23.726  11.172
 6703W        W78232  29.515  27.478  11.069
 6704W        W78233  38.071  10.667  13.854
 6705W        W78234  19.556  31.565  14.005
 6706W        W78235  42.977  24.237  13.366
 6707W        W78236  36.048  24.584  11.569
 6708W        W78237  33.191  34.863   2.235
 6709W        W78238  17.610  29.657  11.500
 6710W        W78239  26.618  10.464   5.257
 6711W        W78240  21.543  27.014   0.903
 6712W        W78241  30.232  11.803   0.204
 6713W        W78242  39.555  25.351  13.045
 6714W        W78243  25.627  31.768   4.836
 6715W        W78244  11.248  19.138  10.756
 6716W        W78245  25.590  12.372   4.117
 6717W        W78246  13.531  35.842   3.542
 6718W        W78247  40.568   0.583   2.256
 6719W        W78248   2.110   6.893   0.473
 6720W        W78249   2.229  22.008   3.752
 6721W        W78250  31.048  25.702   1.363
 6722W        W78251  38.935  17.233   0.764
 6723W        W78252   3.715  42.808   2.215
 6724W        W78253   7.245  30.619  11.273
 6725W        W78254  37.673  10.838   1.286
 6726W        W78255  34.625  43.268   1.852
 6727W        W78256   1.826  12.320   0.761
 6728W        W78257  30.962  37.019  14.868
 6729W        W78258   8.634  14.234  11.060
 6730W        W78259  30.938   6.377  11.584
 6731W        W78260  33.461  23.646   1.249
 6732W        W78261  28.357  30.245   3.827
 6733W        W78262  27.508  33.986  13.475
 6734W        W78263  38.580  22.222   3.609
 6735W        W78264   3.189  33.389  13.913
 6736W        W78265  31.027  19.075   1.491
 6737W        W78266  28.416   9.871   0.284
 6738W        W78267  19.714  37.413  13.403
 6739W        W78268  38.200  11.089  12.433
 6740W        W78269   1.752  40.224  10.465
 6741W        W78270  29.647  18.178  11.154
 6742W        W78271   0.747   4.940  14.459
 6743W        W78272  32.594  26.136  12.032
 6744W        W78273  17.171  43.611   0.320
 6745W        W78274  16.913  18.397  11.732
 6746W        W78275   1.750   1.927  13.021
 6747W        W78276  39.996  32.324  14.976
 6748W        W78277  23.562  25.133   2.358
 6749W        W78278  40.813  36.780   0.119
 6750W        W78279  42.016  12.132  14.977
 6751W        W78280   3.267  17.534   3.771
 6752W        W78281  42.178  21.558  13.717
 6753W        W78282   1.895  35.801  12.370
 6754W        W78283   2.548  10.243  10.357
 6755W        W78284  23.296  16.731   2.879
 6756W        W78285  14.812  44.826  12.372
 6757W        W78286  27.687  16.580  12.092
 6758W        W78287  10.910  29.622   1.531
 6759W        W78288  31.731  23.744   3.871
 6760W        W78289   9.797  41.073  12.373
 6761W        W78290  44.770  34.843  12.401
 6762W        W78291  41.851   3.452   2.188
 6763W        W78292  36.044  11.152   4.129
 6764W        W78293  24.580   8.798  11.275
 6765W        W78294  29.392  33.777  13.100
 6766W        W78295   1.941  44.105  11.093
 6767W        W78296   8.419  23.072  11.033
 6768W        W78297   7.776  21.277   2.863
 6769W        W78298  12.624  38.072   4.462
 6770W        W78299  36.679  14.533  11.521
 6771W        W78300  27.002  15.694   0.247
 6772W        W78301   8.321  14.702  11.434
 6773W        W78302   5.813  33.251   4.613
 6774W        W78303  19.580   0.200  14.766
 6775W        W78304  40.166  14.055  12.639
 6776W        W78305  36.523   2.124   3.144
 6777W        W78306   9.309  21.276   3.258
 6778W        W78307   5.232  18.893   0.926
 6779W        W78308  19.223   5.920   0.371
 6780W        W78309  25.001  39.587  13.526
 6781W        W78310  42.059  40.408  14.455
 6782W        W78311  44.274  22.370   3.424
 6783W        W78312  35.596  41.137   3.227
 6784W        W78313  24.723  22.017   2.608
 6785W        W78314  27.097  15.235  14.930
 6786W        W78315  24.226  19.740   2.340
 6787W        W78316  40.430  11.285   3.233
 6788W        W78317  35.650  32.900  13.509
 6789W        W78318  20.253   3.920   4.928
 6790W        W78319   4.581  17.238   2.659
 6791W        W78320  33.696  40.429   2.664
 6792W        W78321  11.253  12.208   4.071
 6793W        W78322   3.485  11.785  13.574
 6794W        W78323  39.859  41.236  10.836
 6795W        W78324  25.582   2.222  10.712
 6796W        W78325  13.637  22.263   1.002
 6797W        W78326  36.264  33.574  13.613
 6798W        W78327   0.372  10.405   0.813
 6799W        W78328  31.145   9.848  14.953
 6800W        W78329   7.394   6.287  10.600
 6801W        W78330  11.856  15.132  10.941
 6802W        W78331  32.538  19.261   1.534
 6803W        W78332   4.388  25.625  10.670
 6804W        W78333   5.933  35.565   1.794
 6805W        W78334   3.697  37.494  12.394
 6806W        W78335  14.279  31.360   0.313
 6807W        W78336  43.568  44.182   1.419
 6808W        W78337  35.151  16.826   4.312
 6809W        W78338  37.028  33.118  14.974
 6810W        W78339   0.171  32.913  11.162
 6811W        W78340  40.591  29.135   4.162
 6812W        W78341  43.687  30.895   3.553
 6813W        W78342  11.956  43.883  11.641
 6814W        W78343  21.706  10.067   2.687
 6815W        W78344  40.887  30.755  13.318
 6816W        W78345  35.114   9.751  10.680
 6817W        W78346   0.093  12.678  12.351
 6818W        W78347  28.215  30.599  11.905
 6819W        W78348  43.667  18.136   2.381
 6820W        W78349  35.009   6.899   3.727
 6821W        W78350  22.573  11.407   2.328
 6822W        W78351  44.397  38.008  12.956
 6823W        W78352  16.278  31.244   2.133
 6824W        W78353  29.701  15.851  14.788
 6825W        W78354  37.543  25.051   0.319
 6826W        W78355   6.427   2.583  10.564
 6827W        W78356  20.529  37.137   1.197
 6828W        W78357   2.443  38.561   0.665
 6829W        W78358  24.919   9.649   4.163
 6830W        W78359   7.689  23.022  12.979
 6831W        W78360  42.337  44.772   0.801
 6832W        W78361  39.267  40.254   0.519
 6833W        W78362  17.209  39.078   3.732
 6834W        W78363  22.171  33.095  11.957
 6835W        W78364   6.524  43.402   1.725
 6836W        W78365  33.344  19.878   1.456
 6837W        W78366  16.157   3.890  13.848
 6838W        W78367  23.520  11.970   0.443
 6839W        W78368  11.575  20.532  14.803
 6840W        W78369  40.974  31.946  12.324
 6841W        W78370  44.312  35.704   2.659
 6842W        W78371  25.989   6.747   3.176
 6843W        W78372   6.472   8.387  11.673
 6844W        W78373  17.757  43.760   0.161
 6845W        W78374  37.263  18.797   0.760
 6846W        W78375   4.614  22.679  12.507
 6847W        W78376   9.366   1.727  11.514
 6848W        W78377  21.243   2.215  11.264
 6849W        W78378  21.015  41.135  13.889
 6850W        W78379   5.731   8.388   2.294
 6851W        W78380  34.482   4.449   4.490
 6852W        W78381   0.279   8.112   0.425
 6853W        W78382  42.484   0.065   2.193
 6854W        W78383  26.001  24.494  11.132
 6855W        W78384  10.390  10.740   0.394
 6856W        W78385  31.600   5.932  14.027
 6857W        W78386  21.742  19.815   2.295
 6858W        W78387   5.159  35.073  12.009
 6859W        W78388  36.524  35.985  12.152
 6860W        W78389  42.321   3.719  13.145
 6861W        W78390  40.893   6.259  11.696
 6862W        W78391   0.342  13.266   1.376
 6863W        W78392   6.940  21.287  11.659
 6864W        W78393  23.634  40.995   2.784
 6865W        W78394  31.219  20.510   3.709
 6866W        W78395   8.528  12.467   2.841
 6867W        W78396  40.564  37.585  14.915
 6868W        W78397  33.053  21.906  10.636
 6869W        W78398  30.466  28.510  11.082
 6870W        W78399  15.108  19.295  14.107
 6871W        W78400   1.036   6.350  13.455
 6872W        W78401   5.422   7.449   2.788
 6873W        W78402  43.222  30.497   2.335
 6874W        W78403  23.509   5.847  12.447
 6875W        W78404   7.043  22.522  10.945
 6876W        W78405  20.407  31.202   4.842
 6877W        W78406   6.812  19.475   4.497
 6878W        W78407  20.845  28.186  14.760
 6879W        W78408  35.558   7.612  11.724
 6880W        W78409  26.637  39.412   1.357
 6881W        W78410   6.805  33.125   1.436
 6882W        W78411   1.992  28.638   4.075
 6883W        W78412   9.745  19.500  13.544
 6884W        W78413  17.591  43.817  14.161
 6885W        W78414  13.270  31.082   0.759
 6886W        W78415  28.941  27.998  14.090
 6887W        W78416   9.552  40.217  12.299
 6888W        W78417  38.037  39.999   9.928
 6889W        W78418  13.745   3.910   2.540
 6890W        W78419  18.583  36.701   1.148
 6891W        W78420   8.066   8.448  14.869
 6892W        W78421  33.332  21.794   0.237
 6893W        W78422  40.346   0.358   1.254
 6894W        W78423   4.945  24.374  13.691
 6895W        W78424   9.928   6.928  14.125
 6896W        W78425  25.137  37.009  14.298
 6897W        W78426  23.084  24.606  14.770
 6898W        W78427  44.681  18.236   4.120
 6899W        W78428  36.433  11.750  12.459
 6900W        W78429  15.822  20.967  13.517
 6901W        W78430  24.686  25.786   1.217
 6902W        W78431  36.902  32.092  14.975
 6903W        W78432  44.659  41.800  12.501
 6904W        W78433  27.445  31.474  14.647
 6905W        W78434  42.911  17.840   1.521
 6906W        W78435   5.399  10.323  14.763
 6907W        W78436   5.210   5.920  13.390
 6908W        W78437  24.972   0.487   1.764
 6909W        W78438  14.236  24.097   2.644
 6910W        W78439  15.340  14.088  11.575
 6911W        W78440  26.685  42.509  12.338
 6912W        W78441  41.798   7.889   1.985
 6913W        W78442  43.338   9.226  10.911
 6914W        W78443   0.311   8.670   3.741
 6915W        W78444  37.911   5.861   4.140
 6916W        W78445  31.038  13.803   2.134
 6917W        W78446  23.033   4.957   4.248
 6918W        W78447  16.530  27.725   2.669
 6919W        W78448  26.477   6.292  14.897
 6920W        W78449  42.242  21.370  11.451
 6921W        W78450  19.883  31.223  12.351
 6922W        W78451   5.544  21.807  14.024
 6923W        W78452  18.504   9.855   5.496
 6924W        W78453  10.323   7.035   0.276
 6925W        W78454  30.796  41.465  14.717
 6926W        W78455  41.300   1.750   4.238
 6927W        W78456  44.864  19.239  13.904
 6928W        W78457   7.667  12.262  14.403
 6929W        W78458  34.526   6.932   3.517
 6930W        W78459  29.273  22.994   1.693
 6931W        W78460   0.778  16.140  10.335
 6932W        W78461  23.223  20.003   1.439
 6933W        W78462  19.741  12.302  14.969
 6934W        W78463   7.126   4.923   4.817
 6935W        W78464  37.509  28.984   3.603
 6936W        W78465  42.918  14.084   2.378
 6937W        W78466  14.124  22.076  13.790
 6938W        W78467  12.291  16.773   4.239
 6939W        W78468  33.362   5.481   1.279
 6940W        W78469  22.911  21.284  13.394
 6941W        W78470  34.580  33.120   4.303
 6942W        W78471  22.255  15.571  14.943
 6943W        W78472   2.436  29.928  11.531
 6944W        W78473   6.141  41.778  12.553
 6945W        W78474  36.927  18.149   3.852
 6946W        W78475  43.927  42.671   4.766
 6947W        W78476  27.527  24.977  13.276
 6948W        W78477  26.830  27.113   4.097
 6949W        W78478  22.553  11.195   3.646
 6950W        W78479  23.115  25.887   0.799
 6951W        W78480  28.338  27.406  11.960
 6952W        W78481  34.652  27.927   2.201
 6953W        W78482  11.127  18.041  13.293
 6954W        W78483   0.005  10.809  14.742
 6955W        W78484   4.907  31.435   4.374
 6956W        W78485   1.409  19.146  10.766
 6957W        W78486  42.159  39.098   1.382
 6958W        W78487  38.440  29.098  13.519
 6959W        W78488  39.060  27.138  12.860
 6960W        W78489  17.104  10.155   2.136
 6961W        W78490  13.201   0.279  12.576
 6962W        W78491  24.505  40.775   2.895
 6963W        W78492  12.353  13.084  12.495
 6964W        W78493  33.546  31.431   0.681
 6965W        W78494  18.795  16.590  13.082
 6966W        W78495  28.860   5.359   3.632
 6967W        W78496  31.450  12.671   0.786
 6968W        W78497  28.414  39.395  14.834
 6969W        W78498   0.870  12.574  13.877
 6970W        W78499  14.743  23.313  12.154
 6971W        W78500  11.959  10.205   4.685
 6972W        W78501  21.049  25.023   3.740
 6973W        W78502  18.940  41.019   2.207
 6974W        W78503  30.077  36.461  11.493
 6975W        W78504  25.933  19.408  11.595
 6976W        W78505   9.435  21.612  12.991
 6977W        W78506  33.745  35.119  12.947
 6978W        W78507  20.110  12.645  13.843
 6979W        W78508  16.166  35.009  14.260
 6980W        W78509   5.415  38.361  14.998
 6981W        W78510  20.788  42.893   4.109
 6982W        W78511  32.429   4.167   1.914
 6983W        W78512  21.791  41.315  14.758
 6984W        W78513   7.045  39.291  12.079
 6985W        W78514  28.447  12.204   2.393
 6986W        W78515  44.203  21.833  11.146
 6987W        W78516   9.983  37.057   0.919
 6988W        W78517   1.528  31.017  12.303
 6989W        W78518   4.007  33.765   2.455
 6990W        W78519  43.959   1.233  13.254
 6991W        W78520  31.489   8.200  14.385
 6992W        W78521  11.776  13.870  13.331
 6993W        W78522  36.455  35.408  14.912
 6994W        W78523  20.304  16.746   4.203
 6995W        W78524  39.427   5.720  11.131
 6996W        W78525   1.022   0.311  10.679
 6997W        W78526   0.033  35.231   0.854
 6998W        W78527   8.757  30.020   3.304
 6999W        W78528  14.633  27.193   1.012
 7000W        W78529   6.949   6.134  12.517
 7001W        W78530  32.487  35.871  13.311
 7002W        W78531  35.417  12.881   4.358
 7003W        W78532  41.997  31.488   1.120
 7004W        W78533  34.855  38.082   4.129
 7005W        W78534  24.315   9.493  10.806
 7006W        W78535  28.102   8.284  13.936
 7007W        W78536  25.192  41.852   0.486
 7008W        W78537   3.256  41.094   1.336
 7009W        W78538  16.599  31.577  11.455
 7010W        W78539   6.856  15.709  10.535
 7011W        W78540  11.324  30.610   0.693
 7012W        W78541  23.721  12.544   2.013
 7013W        W78542   7.668  17.608   0.806
 7014W        W78543  36.055   0.709   0.985
 7015W        W78544   0.757  36.817   4.176
 7016W        W78545   1.865  12.713   2.826
 7017W        W78546  38.114   4.908  10.199
 7018W        W78547   0.534  29.246   1.206
 7019W        W78548  23.774  30.001  10.702
 7020W        W78549  25.622  27.428  12.024
 7021W        W78550  32.851   1.917  13.908
 7022W        W78551  11.653  36.813   0.442
 7023W        W78552  43.250   9.224   2.265
 7024W        W78553  44.655  33.843   0.585
 7025W        W78554  12.167  26.421   1.543
 7026W        W78555   5.818  40.733   1.833
 7027W        W78556  43.787  43.329  11.512
 7028W        W78557  34.079  35.300  10.849
 7029W        W78558  11.659  25.162   5.105
 7030W        W78559  38.870  37.325   4.086
 7031W        W78560  16.528   4.280   2.970
 7032W        W78561  30.061  21.285  13.305
 7033W        W78562  29.592  22.130   1.109
 7034W        W78563  23.949   0.020   0.368
 7035W        W78564   0.039  30.683   1.400
 7036W        W78565   2.336  38.852  11.038
 7037W        W78566  38.292   4.497  11.177
 7038W        W78567  32.009  17.566  10.594
 7039W        W78568  14.104   3.934   2.918
 7040W        W78569   9.327  24.288   2.380
 7041W        W78570  10.635  43.433   4.569
 7042W        W78571  17.699  37.726  12.500
 7043W        W78572   7.697  39.930   0.851
 7044W        W78573  42.067  35.836  14.009
 7045W        W78574  20.089  37.415   4.545
 7046W        W78575  28.465  36.426   2.419
 7047W        W78576  17.729  44.370   3.905
 7048W        W78577  31.535  10.214   4.946
 7049W        W78578   1.629  16.626   4.557
 7050W        W78579  29.885  29.838  12.065
 7051W        W78580   6.489  30.631   0.688
 7052W        W78581  22.885   3.730  12.471
 7053W        W78582  32.878  30.915   3.763
 7054W        W78583  39.177  15.691   0.798
 7055W        W78584   6.817  37.069   1.527
 7056W        W78585  21.200   3.933   3.332
 7057W        W78586  42.848  19.505  14.266
 7058W        W78587  13.648  10.472  10.480
 7059W        W78588   7.035  26.314  11.072
 7060W        W78589  17.478   5.191  13.409
 7061W        W78590   8.946  33.035   2.307
 7062W        W78591  40.333  18.527  13.805
 7063W        W78592  37.313   9.412   3.766
 7064W        W78593  24.107  23.512  11.260
 7065W        W78594  14.275   0.274  13.065
 7066W        W78595   1.318  40.039   3.395
 7067W        W78596  34.761   1.951  11.605
 7068W        W78597  18.126  42.032  12.826
 7069W        W78598  25.971  36.485  13.370
 7070W        W78599  21.531  17.040   2.577
 7071W        W78600  11.032  42.993   1.205
 7072W        W78601   6.171  36.495  12.470
 7073W        W78602  30.428   9.306   2.395
 7074W        W78603  30.878  27.640   4.117
 7075W        W78604  43.354  41.254   3.557
 7076W        W78605  44.160  17.268  12.138
 7077W        W78606   3.385  13.420  12.607
 7078W        W78607  44.881  44.250  10.531
 7079W        W78608  19.294  21.157  11.433
 7080W        W78609  17.178  24.225  11.958
 7081W        W78610   5.285  43.544  13.249
 7082W        W78611  15.584   6.795  12.609
 7083W        W78612  21.725  32.921   1.208
 7084W        W78613  29.062   8.891   3.601
 7085W        W78614  34.201  26.634   5.059
 7086W        W78615   9.358  40.400  14.080
 7087W        W78616   8.752  32.447  11.246
 7088W        W78617  10.601  29.938  13.651
 7089W        W78618  36.447  16.601  14.371
 7090W        W78619   9.095   3.506   0.876
 7091W        W78620   1.050  15.674  11.633
 7092W        W78621  42.545  22.237  11.967
 7093W        W78622  29.161  20.949  14.464
 7094W        W78623  40.017   0.091   1.770
 7095W        W78624  13.847  28.840   0.906
 7096W        W78625  32.601  40.861   4.910
 7097W        W78626  13.862  44.218   3.624
 7098W        W78627  34.342   2.972   2.984
 7099W        W78628  13.414  35.035   1.847
 7100W        W78629   6.667  11.365  14.909
 7101W        W78630   4.842  39.478   3.053
 7102W        W78631  37.066  26.538   2.313
 7103W        W78632  29.160  23.003   3.712
 7104W        W78633  10.860  24.223   3.251
 7105W        W78634  15.781  27.938  10.258
 7106W        W78635  14.610  27.258   2.410
 7107W        W78636   7.104   5.019   0.319
 7108W        W78637  29.384   8.957  13.865
 7109W        W78638  43.180   8.965   2.728
 7110W        W78639  37.376  11.877  11.172
 7111W        W78640  41.314  36.386   1.972
 7112W        W78641   7.677   2.386  13.551
 7113W        W78642  15.173   9.755  13.447
 7114W        W78643  29.051   9.915  12.015
 7115W        W78644   6.785  34.421   0.176
 7116W        W78645  20.604  29.101   0.751
 7117W        W78646  11.064  19.715   4.114
 7118W        W78647   8.750  33.657   3.165
 7119W        W78648  43.987   8.739   0.907
 7120W        W78649  19.750  21.022   1.268
 7121W        W78650   0.788  26.053   1.956
 7122W        W78651  12.865  28.666  11.765
 7123W        W78652  43.529  40.038  14.187
 7124W        W78653  44.727  41.531  12.954
 7125W        W78654  35.181  41.610  11.214
 7126W        W78655  28.601  35.717  12.534
 7127W        W78656  39.021  44.454  14.951
 7128W        W78657  32.967  33.567   4.297
 7129W        W78658  15.061  36.729  14.980
 7130W        W78659  38.574  22.289   4.547
 7131W        W78660  37.002   1.855   3.211
 7132W        W78661   6.760  15.688   2.312
 7133W        W78662  43.512   4.837  11.948
 7134W        W78663  11.787   1.527   3.780
 7135W        W78664  28.943  15.663   2.337
 7136W        W78665  19.086   2.968   4.837
 7137W        W78666  11.157  43.354  14.530
 7138W        W78667  24.193  14.851   4.157
 7139W        W78668  41.509  37.089  12.020
 7140W        W78669  11.129  29.724   0.820
 7141W        W78670  25.219  15.010   1.764
 7142W        W78671  18.799   1.288  11.553
 7143W        W78672   9.960  43.021  11.855
 7144W        W78673  34.466  30.204  12.927
 7145W        W78674  35.321  27.192  12.187
 7146W        W78675  17.659   0.960   0.339
 7147W        W78676   4.649  19.732   2.729
 7148W        W78677  34.371  11.323  14.193
 7149W        W78678  33.138   5.944  13.390
 7150W        W78679  30.973  27.858   4.572
 7151W        W78680  21.753  19.040   4.487
 7152W        W78681  18.976  42.882   3.688
 7153W        W78682   7.538  34.678  11.645
 7154W        W78683  20.210  24.157  10.584
 7155W        W78684   9.396   3.899  12.284
 7156W        W78685  11.319  26.722  12.344
 7157W        W78686  37.431   0.517   0.734
 7158W        W78687  18.306  44.119  13.850
 7159W        W78688  22.727  16.668  14.030
 7160W        W78689  17.305  28.783   2.261
 7161W        W78690   1.746  41.653  11.629
 7162W        W78691  15.711  36.258  13.934
 7163W        W78692   9.875  27.198   2.465
 7164W        W78693  15.240   7.437  13.834
 7165W        W78694  43.811  30.592   1.078
 7166W        W78695   6.218  26.596   1.960
 7167W        W78696  11.135  29.860  12.222
 7168W        W78697  34.917   5.949   1.847
 7169W        W78698  26.070  31.025  11.330
 7170W        W78699  20.549  27.665  10.361
 7171W        W78700  44.673   4.786  12.700
 7172W        W78701  21.228  43.411   3.282
 7173W        W78702  13.205  26.991  12.943
 7174W        W78703  17.610  25.225   1.802
 7175W        W78704  10.461   9.389   2.240
 7176W        W78705   8.132  33.916  13.227
 7177W        W78706   9.406   9.925  14.010
 7178W        W78707   7.178  14.164   3.607
 7179W        W78708   8.795  14.161  14.566
 7180W        W78709  12.825  18.448   4.199
 7181W        W78710  37.500  35.528   3.307
 7182W        W78711   2.869  31.112  12.467
 7183W        W78712  27.624  27.579  11.494
 7184W        W78713  43.839   1.781   1.417
 7185W        W78714  40.806  22.453  14.897
 7186W        W78715  13.532  14.058  12.676
 7187W        W78716  11.776   0.793  13.909
 7188W        W78717  19.181   5.279  11.179
 7189W        W78718   1.349  41.348  10.716
 7190W        W78719  35.049  23.220   3.704
 7191W        W78720  14.441  23.666   1.837
 7192W        W78721  14.023  29.099  14.937
 7193W        W78722   1.022  23.158   4.863
 7194W        W78723  24.057  24.562   4.673
 7195W        W78724  44.787  41.346   0.848
 7196W        W78725   1.315  27.426  14.862
 7197W        W78726  10.591  27.956  12.318
 7198W        W78727   7.273  36.217   3.257
 7199W        W78728  39.775  33.568   3.871
 7200W        W78729  23.750  44.791  13.367
 7201W        W78730  42.328  28.638  10.778
 7202W        W78731  10.225  11.663  12.167
 7203W        W78732  21.664  30.828   0.806
 7204W        W78733  13.190  31.169  11.062
 7205W        W78734  25.248  12.351  14.889
 7206W        W78735   0.816  25.084   0.395
 7207W        W78736  20.535   3.458  12.603
 7208W        W78737   0.390   4.943  14.862
 7209W        W78738  24.217  36.958  12.389
 7210W        W78739   7.336  21.125   3.150
 7211W        W78740   6.902  24.996   3.948
 7212W        W78741  10.069   9.715   0.990
 7213W        W78742  40.664  12.658   0.326
 7214W        W78743   6.469  13.749   4.845
 7215W        W78744  13.821  19.624  10.986
 7216W        W78745  44.760  13.119   4.624
 7217W        W78746   8.672  41.713   4.213
 7218W        W78747  19.102  16.107  12.378
 7219W        W78748   7.121  41.356  11.485
 7220W        W78749   3.263   1.511  10.851
 7221W        W78750  28.639  43.979   4.080
 7222W        W78751  25.571  41.221  10.682
 7223W        W78752   0.250  13.674   0.362
 7224W        W78753  41.562   6.627  10.618
 7225W        W78754  43.734  29.681   0.832
 7226W        W78755  29.630  39.965  13.724
 7227W        W78756  10.363  11.653   2.721
 7228W        W78757  39.646  26.529  11.055
 7229W        W78758  40.743   5.005   0.271
 7230W        W78759  41.239   2.229  13.340
 7231W        W78760  15.324  22.499  13.043
 7232W        W78761  21.443  19.714   0.888
 7233W        W78762  36.491   8.517   4.506
 7234W        W78763  36.682  34.266  14.770
 7235W        W78764  27.642   3.861  12.615
 7236W        W78765  26.204  31.251   4.259
 7237W        W78766  43.908   3.964   2.136
 7238W        W78767  12.862  36.437   0.775
 7239W        W78768  44.808  37.818  12.017
 7240W        W78769  40.350  14.227   4.563
 7241W        W78770  36.355  32.703   0.401
 7242W        W78771  42.968   8.617   3.114
 7243W        W78772  17.435   3.682   1.599
 7244W        W78773  13.267  16.412   3.215
 7245W        W78774  21.873  20.006   1.320
 7246W        W78775  24.084  37.069   2.904
 7247W        W78776  24.588  43.255  13.102
 7248W        W78777  11.717  22.471  11.443
 7249W        W78778   5.262  20.576   3.923
 7250W        W78779   7.341  21.544  14.048
 7251W        W78780   9.628  27.119  14.549
 7252W        W78781  15.834  34.339  10.125
 7253W        W78782  34.111  21.663   4.494
 7254W        W78783  13.448  44.003  14.433
 7255W        W78784  41.694   7.074   2.390
 7256W        W78785  27.549  16.226   1.224
 7257W        W78786  30.819  14.715   1.913
 7258W        W78787  27.054  20.012  12.311
 7259W        W78788  20.080  15.541   1.550
 7260W        W78789  23.246  40.620  10.826
 7261W        W78790  22.980  29.976   3.581
 7262W        W78791  44.685  41.646  13.952
 7263W        W78792  35.392  40.530   4.144
 7264W        W78793  12.641  14.678   0.359
 7265W        W78794  22.245  44.453  10.769
 7266W        W78795  35.952  43.997  11.206
 7267W        W78796  42.507  15.743   4.625
 7268W        W78797  10.074  19.638   1.430
 7269W        W78798  23.807  14.821   3.754
 7270W        W78799  26.164  17.541  11.996
 7271W        W78800  22.572   7.317  10.786
 7272W        W78801   3.603  42.023   3.693
 7273W        W78802  40.569  36.558  14.063
 7274W        W78803   5.878  21.251   1.416
 7275W        W78804  28.480  24.617  12.841
 7276W        W78805  37.005  14.694   2.781
 7277W        W78806  38.719  16.314   4.330
 7278W        W78807   9.061   4.840   1.626
 7279W        W78808  40.633  28.472   0.900
 7280W        W78809  14.746  43.364   1.314
 7281W        W78810  27.443  10.991   1.452
 7282W        W78811  38.417  30.595  10.862
 7283W        W78812  18.079  29.581  13.926
 7284W        W78813   8.643  36.063  10.733
 7285W        W78814  40.784  11.621   4.100
 7286W        W78815  32.603  33.886  14.055
 7287W        W78816  26.762  26.984   5.200
 7288W        W78817  29.521  41.265  14.948
 7289W        W78818  39.075  24.990   5.054
 7290W        W78819   8.166  38.315   3.721
 7291W        W78820   0.054  28.687   1.857
 7292W        W78821  12.949   2.503  13.151
 7293W        W78822  21.070  27.213   0.793
 7294W        W78823  21.947  14.246  12.499
 7295W        W78824  19.635  18.312  14.005
 7296W        W78825  16.117  12.726   3.637
 7297W        W78826   0.517   5.296  12.854
 7298W        W78827  36.807  20.285  12.952
 7299W        W78828  43.453  37.536  11.875
 7300W        W78829  42.453  41.807   0.983
 7301W        W78830  27.631  16.023   0.766
 7302W        W78831  44.576  32.065   3.575
 7303W        W78832  26.910  16.288   4.853
 7304W        W78833   7.381  16.706   2.666
 7305W        W78834  28.667  25.410  13.853
 7306W        W78835  25.670  43.771  11.907
 7307W        W78836  18.042  28.021  12.764
 7308W        W78837  15.553  36.406   3.584
 7309W        W78838  30.670   7.229  12.410
 7310W        W78839  22.705  27.549   2.547
 7311W        W78840  26.504  13.752  14.070
 7312W        W78841  19.196  37.443  13.201
 7313W        W78842  15.621  20.001  11.117
 7314W        W78843  34.585  17.042  14.921
 7315W        W78844  15.323   2.066   1.367
 7316W        W78845  35.783  38.083  13.091
 7317W        W78846  10.498  17.083  14.824
 7318W        W78847  39.396  17.559  14.498
 7319W        W78848  30.987  12.306  12.179
 7320W        W78849  32.191   1.372  11.132
 7321W        W78850  29.660  23.681  13.839
 7322W        W78851  38.460  30.056  14.390
 7323W        W78852  14.245  24.172  12.217
 7324W        W78853  11.354  11.421  14.006
 7325W        W78854  20.111  27.508   4.152
 7326W        W78855  31.012  11.308  11.075
 7327W        W78856  30.368  36.823  13.840
 7328W        W78857  21.744   4.380   4.565
 7329W        W78858  23.660   0.712  14.835
 7330W        W78859  40.998  36.917   4.650
 7331W        W78860  18.285  34.069  11.978
 7332W        W78861  19.955  44.334   2.664
 7333W        W78862  36.161  22.621  14.484
 7334W        W78863   8.921  26.754  13.537
 7335W        W78864  27.141  33.710  14.987
 7336W        W78865  28.069  11.583   1.818
 7337W        W78866  20.322  35.812  11.850
 7338W        W78867   8.988  30.865   1.777
 7339W        W78868  10.471  37.378  10.551
 7340W        W78869  39.578  33.074   1.802
 7341W        W78870  31.246  13.649  11.359
 7342W        W78871  10.079   3.234   1.969
 7343W        W78872  39.518  36.064  12.119
 7344W        W78873  25.125  14.396   3.941
 7345W        W78874  15.208   1.308   2.927
 7346W        W78875  12.159  25.101   0.330
 7347W        W78876  26.966  34.659  10.034
 7348W        W78877  36.302  15.198  11.683
 7349W        W78878  17.161  22.795  14.830
 7350W        W78879  24.947  10.061  11.120
 7351W        W78880  14.294  23.615   2.830
 7352W        W78881  15.814   3.744   4.532
 7353W        W78882  14.264  33.855  14.470
 7354W        W78883   7.727  33.169  11.678
 7355W        W78884  28.132  27.971   4.036
 7356W        W78885  10.133   2.928   1.135
 7357W        W78886  40.259  15.860   1.910
 7358W        W78887  29.958  32.150   4.222
 7359W        W78888  16.565   9.053   4.092
 7360W        W78889  27.685   6.962  13.810
 7361W        W78890   1.973  42.266   1.797
 7362W        W78891  28.247  29.404  14.984
 7363W        W78892  30.935  12.803   0.995
 7364W        W78893  28.383  10.268   0.794
 7365W        W78894  41.627  31.536  11.489
 7366W        W78895  17.101  34.318   3.706
 7367W        W78896  13.878  20.545   2.188
 7368W        W78897  18.236   0.700   1.340
 7369W        W78898  37.980   3.724   1.432
 7370W        W78899  39.320  30.841  13.912
 7371W        W78900  16.805  14.148  12.352
 7372W        W78901   7.379  25.136   4.081
 7373W        W78902   2.684  28.862  12.292
 7374W        W78903   0.960  13.307   0.156
 7375W        W78904  30.663  19.615   1.267
 7376W        W78905  26.503   8.752  11.237
 7377W        W78906  19.725  31.371   4.396
 7378W        W78907   6.712  25.131   3.152
 7379W        W78908  13.773  32.023  10.609
 7380W        W78909  17.115  32.656   0.910
 7381W        W78910  13.629   2.144   1.850
 7382W        W78911  32.705  29.736   1.772
 7383W        W78912  11.381  39.062  10.599
 7384W        W78913   4.241   1.340   0.078
 7385W        W78914  12.495  11.910  12.954
 7386W        W78915  24.124  34.409  11.605
 7387W        W78916   0.804  26.183  13.118
 7388W        W78917   4.721  36.436   1.359
 7389W        W78918   5.646  22.192  12.830
 7390W        W78919  36.132  10.853  13.949
 7391W        W78920  19.493  41.853   3.143
 7392W        W78921  40.180  40.832  10.794
 7393W        W78922  41.957  29.980  11.095
 7394W        W78923  35.102  21.144   0.056
 7395W        W78924  37.626  32.640  14.472
 7396W        W78925  30.116  21.762  11.653
 7397W        W78926  44.383  33.564  14.878
 7398W        W78927  22.741  31.840   5.081
 7399W        W78928   7.726   9.712  14.386
 7400W        W78929   2.292  24.460  10.938
 7401W        W78930  17.893  21.725  14.317
 7402W        W78931  44.845  21.697   3.861
 7403W        W78932   3.821  37.519   2.828
 7404W        W78933  24.108  29.406  13.392
 7405W        W78934  36.086  34.081   2.697
 7406W        W78935  40.811   4.388  10.701
 7407W        W78936  13.283  39.353  11.204
 7408W        W78937   7.286   0.353   2.852
 7409W        W78938   4.298   8.763   4.756
 7410W        W78939  14.206  28.280   1.449
 7411W        W78940  42.342  19.192  10.725
 7412W        W78941  34.381   9.297   2.294
 7413W        W78942  17.094  17.236  14.796
 7414W        W78943   9.015  12.388  13.913
 7415W        W78944  42.163  25.188   0.771
 7416W        W78945   8.669   6.178   4.313
 7417W        W78946  13.753   1.045  13.002
 7418W        W78947   9.623  35.631   4.406
 7419W        W78948  16.293  38.939   2.277
 7420W        W78949  15.159   4.301   4.808
 7421W        W78950   2.299  20.367   1.440
 7422W        W78951  31.045  42.447   4.269
 7423W        W78952  10.191   0.848   2.367
 7424W        W78953  26.770   0.947  13.633
 7425W        W78954  23.233   2.850   4.426
 7426W        W78955  26.210   1.326   3.927
 7427W        W78956  15.603  29.195   4.934
 7428W        W78957  29.716  19.770   2.786
 7429W        W78958  31.196  34.376   1.938
 7430W        W78959   4.470   3.691   2.428
 7431W        W78960  13.604  14.167  13.539
 7432W        W78961  24.472  36.997   0.540
 7433W        W78962  40.569  35.465  13.892
 7434W        W78963   6.093  26.649   2.461
 7435W        W78964  27.852  30.167  11.155
 7436W        W78965  14.436  44.219  14.548
 7437W        W78966  13.137  24.771   3.303
 7438W        W78967  29.388  30.446   0.224
 7439W        W78968   6.628  36.682  10.513
 7440W        W78969  20.491   7.903   1.471
 7441W        W78970  37.239  11.435  11.898
 7442W        W78971  24.956  13.332   0.025
 7443W        W78972  36.354  34.095  10.884
 7444W        W78973  21.753   1.418   4.228
 7445W        W78974  30.365  21.028   2.149
 7446W        W78975  27.889  10.705   1.462
 7447W        W78976  16.095  39.986  11.956
 7448W        W78977  41.863  41.414   1.808
 7449W        W78978   2.641  13.736   0.881
 7450W        W78979  25.900   1.960  11.052
 7451W        W78980  20.784  42.219   0.613
 7452W        W78981  41.426   3.345   1.519
 7453W        W78982   2.810  25.553   0.736
 7454W        W78983   3.595  13.724  14.416
 7455W        W78984  37.227   9.671  12.387
 7456W        W78985  31.365   4.278  14.393
 7457W        W78986  40.967  26.648   3.310
 7458W        W78987  43.244   3.178  11.538
 7459W        W78988  13.395  21.069   3.775
 7460W        W78989  43.482  14.721   4.851
 7461W        W78990  25.647  41.057   4.518
 7462W        W78991  10.632   6.640  10.972
 7463W        W78992   0.208  24.761   1.104
 7464W        W78993  33.907  26.411  10.967
 7465W        W78994  23.394  15.526   1.445
 7466W        W78995  13.980  26.782  14.756
 7467W        W78996  30.146  12.335  13.273
 7468W        W78997   5.846  13.204   3.651
 7469W        W78998   2.620  36.545  11.923
 7470W        W78999   9.861  19.594   4.724
 7471W        W79000  25.979  18.559   3.750
 7472W        W79001   0.644   4.191   0.807
 7473W        W79002  35.472  17.013   3.391
 7474W        W79003  37.410   5.188   4.604
 7475W        W79004   8.911  15.567   0.178
 7476W        W79005   8.646  19.534   1.342
 7477W        W79006  11.725  33.098  12.416
 7478W        W79007  38.823   6.896   2.300
 7479W        W79008  15.040  36.546  14.461
 7480W        W79009   7.633  13.893  14.427
 7481W        W79010  39.529   2.310   0.739
 7482W        W79011  21.215   0.775   4.635
 7483W        W79012  36.154  32.399  12.001
 7484W        W79013  11.568  35.075  10.265
 7485W        W79014  14.437   9.339  13.840
 7486W        W79015  42.463   9.875  12.141
 7487W        W79016  20.071   2.299   2.846
 7488W        W79017  28.675  11.649   1.141
 7489W        W79018  14.460   0.385  11.149
 7490W        W79019   3.685   8.691  14.821
 7491W        W79020  15.494   7.223   5.009
 7492W        W79021  26.986  43.502   1.733
 7493W        W79022  34.904  12.070   0.378
 7494W        W79023  15.918   5.347  12.531
 7495W        W79024  38.377   3.294   0.291
 7496W        W79025  22.132  37.841   0.767
 7497W        W79026  20.560  39.564   1.339
 7498W        W79027  28.580  19.736  11.187
 7499W        W79028   2.154  30.588   3.333
 7500W        W79029  30.123  36.818   3.738
 7501W        W79030  12.637   0.085   3.317
 7502W        W79031  34.603  14.619  12.197
 7503W        W79032  19.615  33.389   3.777
 7504W        W79033  27.253  29.653   2.739
 7505W        W79034   8.677  23.503  10.769
 7506W        W79035  22.806  12.863  10.314
 7507W        W79036  34.053  14.581  13.770
 7508W        W79037  12.641  20.142  11.967
 7509W        W79038   6.506  12.351  11.580
 7510W        W79039   8.155  29.707   0.375
 7511W        W79040  44.505   5.840  12.334
 7512W        W79041  26.089  35.355   2.690
 7513W        W79042  28.561  11.650   1.683
 7514W        W79043   5.767  10.668   4.791
 7515W        W79044  17.235   7.952  12.035
 7516W        W79045  15.336  37.256   3.005
 7517W        W79046  21.280  38.500   3.104
 7518W        W79047  44.871  31.176   1.332
 7519W        W79048  36.171   2.423  14.849
 7520W        W79049  24.028   3.077  14.338
 7521W        W79050  11.223  31.573   4.628
 7522W        W79051   7.149   2.986  10.676
 7523W        W79052  42.348  23.950   4.847
 7524W        W79053   5.315  34.230   3.434
 7525W        W79054  29.160  34.268   0.292
 7526W        W79055   6.468   3.984  11.192
 7527W        W79056  36.352  39.563   0.472
 7528W        W79057  29.231  11.797  11.550
 7529W        W79058  11.172  38.976  14.027
 7530W        W79059  10.897  13.125  10.689
 7531W        W79060  27.497  24.930   2.430
 7532W        W79061  38.009  44.653  10.685
 7533W        W79062   9.109  14.790  13.861
 7534W        W79063  30.049  25.587  12.423
 7535W        W79064  20.018   8.856   3.792
 7536W        W79065  41.860   1.265  13.873
 7537W        W79066  31.794   3.087  12.689
 7538W        W79067  37.804  21.292  10.201
 7539W        W79068   3.513   3.835   2.312
 7540W        W79069  32.669   1.435  12.065
 7541W        W79070  12.287  44.221  12.378
 7542W        W79071  43.739  15.187  10.661
 7543W        W79072  34.462   5.250   4.968
 7544W        W79073   8.844   6.140  14.544
 7545W        W79074  31.068  35.506   2.817
 7546W        W79075  11.552  16.243   2.718
 7547W        W79076  25.525  29.750  13.103
 7548W        W79077   3.381  10.470  12.840
 7549W        W79078  26.059  13.632  10.724
 7550W        W79079  23.316  40.299  14.902
 7551W        W79080   8.762   5.681   4.273
 7552W        W79081  16.200   1.052  11.022
 7553W        W79082  15.384   9.230  14.953
 7554W        W79083  35.224  19.266  12.518
 7555W        W79084   3.321  18.080   4.965
 7556W        W79085  43.490   1.299  11.154
 7557W        W79086  35.472  40.493   1.844
 7558W        W79087  23.753   9.711   3.286
 7559W        W79088  32.015  18.131   2.603
 7560W        W79089  28.113  34.966   3.907
 7561W        W79090  44.172  11.298   1.595
 7562W        W79091  44.706  31.707   1.999
 7563W        W79092  21.629  36.600  12.036
 7564W        W79093   9.392  15.479  12.504
 7565W        W79094   1.464  41.921   3.625
 7566W        W79095  26.687  32.695   1.631
 7567W        W79096  44.722   0.703  12.127
 7568W        W79097   7.899  23.764  12.034
 7569W        W79098  15.379  20.763  14.041
 7570W        W79099  23.012  25.651   0.338
 7571W        W79100  21.187  40.443   4.128
 7572W        W79101  38.474  33.919  12.787
 7573W        W79102  35.535  20.083  13.995
 7574W        W79103  43.996  40.132   0.880
 7575W        W79104  26.198  27.654   0.532
 7576W        W79105  34.476  44.150  12.109
 7577W        W79106  39.857  24.706   4.184
 7578W        W79107   1.816  22.900   1.048
 7579W        W79108  37.052   1.805   0.789
 7580W        W79109   6.217   3.219  14.366
 7581W        W79110  26.005  18.881   0.886
 7582W        W79111  35.860  15.388   3.281
 7583W        W79112   7.667  38.746  12.897
 7584W        W79113   1.787  21.640   0.477
 7585W        W79114   4.630  27.449  13.585
 7586W        W79115  22.047  43.430  12.901
 7587W        W79116  28.724  22.281  11.953
 7588W        W79117   1.404  22.552   2.238
 7589W        W79118  39.733   8.784   4.154
 7590W        W79119  11.304  35.636  10.535
 7591W        W79120  22.168  14.856   4.368
 7592W        W79121  29.603  31.058  11.428
 7593W        W79122  29.667  35.022   0.824
 7594W        W79123   4.503  38.304   3.364
 7595W        W79124  38.009  35.579  11.546
 7596W        W79125  30.978  14.068  11.450
 7597W        W79126   0.312  42.022  13.109
 7598W        W79127   9.181  38.390   2.663
 7599W        W79128  42.327  36.906   0.361
 7600W        W79129   9.136  35.301   3.734
 7601W        W79130  43.209  19.461   4.608
 7602W        W79131  19.291  42.460  12.978
 7603W        W79132  27.735  39.816   3.568
 7604W        W79133  31.125  39.643  11.632
 7605W        W79134  11.652  22.199  11.957
 7606W        W79135  25.248  22.084  14.925
 7607W        W79136  31.434  13.861   1.760
 7608W        W79137  35.091   0.296  11.669
 7609W        W79138  33.940   3.271  12.901
 7610W        W79139  26.296  14.564   2.719
 7611W        W79140  36.475  15.725   1.271
 7612W        W79141  10.587  22.363   2.083
 7613W        W79142  13.565  30.832  10.980
 7614W        W79143  33.117  39.186   1.464
 7615W        W79144  40.293  43.562   0.410
 7616W        W79145  32.486  15.181  13.076
 7617W        W79146  25.230  22.481   4.002
 7618W        W79147  38.752  42.714  10.254
 7619W        W79148  28.685  14.769  14.266
 7620W        W79149  38.591  22.114   2.285
 7621W        W79150   1.791   0.220   0.073
 7622W        W79151  18.630  39.045   4.128
 7623W        W79152  23.710  31.956  10.549
 7624W        W79153  27.454  11.028  11.635
 7625W        W79154  24.460   3.482   4.887
 7626W        W79155  24.680  35.622  11.751
 7627W        W79156  26.699  11.187   1.044
 7628W        W79157  43.877  33.503  11.030
 7629W        W79158  19.706  12.369  14.048
 7630W        W79159  32.402  30.030   1.010
 7631W        W79160  12.816  26.179  14.457
 7632W        W79161   4.380  21.617  12.438
 7633W        W79162  18.545  16.975  11.473
 7634W        W79163   8.271  30.539   4.536
 7635W        W79164  41.496  34.944  14.798
 7636W        W79165  38.610  24.803   2.223
 7637W        W79166  22.476  36.241   2.863
 7638W        W79167  11.268  16.668  10.920
 7639W        W79168  15.573  19.960   2.808
 7640W        W79169  38.459  11.273   2.771
 7641W        W79170  33.493  30.711  10.726
 7642W        W79171  17.458  32.040  11.243
 7643W        W79172   6.365  40.064   4.118
 7644W        W79173  37.620  39.814   2.647
 7645W        W79174   2.256  30.624   4.780
 7646W        W79175  10.649  35.841   2.356
 7647W        W79176  43.369  41.156   3.058
 7648W        W79177  28.534  36.882  12.970
 7649W        W79178   1.756  25.146  12.010
 7650W        W79179  23.551  19.630   5.023
 7651W        W79180   3.912  24.581  14.387
 7652W        W79181  19.620  24.687   0.328
 7653W        W79182   4.811  14.685   0.438
 7654W        W79183   7.278  11.547  11.015
 7655W        W79184   6.342   3.825   0.500
 7656W        W79185  13.595   7.465  14.832
 7657W        W79186  29.033  29.451  12.997
 7658W        W79187   5.174  27.463  11.878
 7659W        W79188  26.654  29.375   4.185
 7660W        W79189  31.002  39.068   0.073
 7661W        W79190  13.774  22.034   4.568
 7662W        W79191  29.353   2.371  12.745
 7663W        W79192  21.988  21.354  14.225
 7664W        W79193  34.373  12.867   1.629
 7665W        W79194  17.651  10.943  13.794
 7666W        W79195  35.955  40.767   3.241
 7667W        W79196  43.372  38.786  13.874
 7668W        W79197  37.917  43.812   4.293
 7669W        W79198  40.437  28.734  11.534
 7670W        W79199   8.507   3.804   1.671
 7671W        W79200  21.620  29.713  14.486
 7672W        W79201  32.574  34.537  13.753
 7673W        W79202   8.821  42.354   3.599
 7674W        W79203  15.563  13.420   3.582
 7675W        W79204  20.034   6.131  10.784
 7676W        W79205  14.063  40.142   4.653
 7677W        W79206  41.551   0.390   1.232
 7678W        W79207  25.094   8.790  11.026
 7679W        W79208  25.859  30.927   3.879
 7680W        W79209  38.299  34.189   2.553
 7681W        W79210   6.745   9.624  14.507
 7682W        W79211  25.058  17.856  13.448
 7683W        W79212  30.970   9.841   3.896
 7684W        W79213  34.249  43.382  10.590
 7685W        W79214  10.648  42.977   2.687
 7686W        W79215   9.115  12.915   4.166
 7687W        W79216  17.537   3.153  13.560
 7688W        W79217  40.520   1.108  14.572
 7689W        W79218   8.901  16.659   1.411
 7690W        W79219  27.693  25.560   0.391
 7691W        W79220  40.969  33.117  14.809
 7692W        W79221  36.183  14.819  13.817
 7693W        W79222   9.508  32.923   3.915
 7694W        W79223  44.890  44.432   3.198
 7695W        W79224  19.738  30.562   2.725
 7696W        W79225  34.607  26.558  12.536
 7697W        W79226  35.747  33.337  11.196
 7698W        W79227  14.969   7.862  14.516
 7699W        W79228  15.036  25.722  13.804
 7700W        W79229  10.224  12.813   4.602
 7701W        W79230  37.532   9.574   1.464
 7702W        W79231  29.061   4.253  13.792
 7703W        W79232  30.295  13.577  10.746
 7704W        W79233   9.333  43.993   1.684
 7705W        W79234  41.384  10.339   4.815
 7706W        W79235   5.973  10.683  14.023
 7707W        W79236  11.064  19.729  14.310
 7708W        W79237  25.961  39.309   1.863
 7709W        W79238  32.597  29.339  13.725
 7710W        W79239  13.838  32.533  10.651
 7711W        W79240  23.137  16.454  10.518
 7712W        W79241  32.458  24.564  13.792
 7713W        W79242  15.274  29.889   1.661
 7714W        W79243   1.381   4.859   2.356
 7715W        W79244  18.296  24.800   5.073
 7716W        W79245   8.009  34.543  12.875
 7717W        W79246  37.969  11.309  10.692
 7718W        W79247  40.062   4.596  13.411
 7719W        W79248  26.655   9.187  12.476
 7720W        W79249  25.683  18.453   0.845
 7721W        W79250  10.108  11.050   0.719
 7722W        W79251  38.826  41.423   3.642
 7723W        W79252  33.829  39.883   1.144
 7724W        W79253  43.292  35.127   2.792
 7725W        W79254  23.671  12.003   3.340
 7726W        W79255  17.558  33.551  14.405
 7727W        W79256  10.534  22.558  10.086
 7728W        W79257  32.399  44.873  10.552
 7729W        W79258  10.938  21.140   3.128
 7730W        W79259  41.169  24.213   0.048
 7731W        W79260   4.847  35.486  11.871
 7732W        W79261  42.011  18.151   4.088
 7733W        W79262  41.382  38.365  12.627
 7734W        W79263   5.328   8.952   1.870
 7735W        W79264  19.453  41.102  11.924
 7736W        W79265   0.517  11.911  12.078
 7737W        W79266   8.645  13.308  14.065
 7738W        W79267  33.817  34.644   1.306
 7739W        W79268  16.604  30.316  11.935
 7740W        W79269  44.975  29.927   2.325
 7741W        W79270   4.591   0.444   3.600
 7742W        W79271   9.099   8.163  11.204
 7743W        W79272  25.587  36.972   4.706
 7744W        W79273   0.160  31.759   5.106
 7745W        W79274  19.307  42.877  12.034
 7746W        W79275  40.036  34.534  10.800
 7747W        W79276  36.600   4.516   0.792
 7748W        W79277  32.862  13.254   2.709
 7749W        W79278  15.301  28.083  10.450
 7750W        W79279  16.112  34.386  10.590
 7751W        W79280  42.014  10.054  12.849
 7752W        W79281  22.691   0.741  14.701
 7753W        W79282  42.756  17.234  14.337
 7754W        W79283  43.996  42.005   3.530
 7755W        W79284  21.150  21.271  12.286
 7756W        W79285  15.911   3.680   3.081
 7757W        W79286   9.269  37.362  12.906
 7758W        W79287  26.626  10.687  13.430
 7759W        W79288   7.417  28.507  14.545
 7760W        W79289  24.124  14.105   2.862
 7761W        W79290  19.994  31.910   1.401
 7762W        W79291   8.219  17.302  11.521
 7763W        W79292  31.430  37.998  11.098
 7764W        W79293  39.881   9.083   0.781
 7765W        W79294  10.532  17.578   3.895
 7766W        W79295  23.676   7.472  13.792
 7767W        W79296  39.456  35.216   9.889
 7768W        W79297  30.009   1.261  14.525
 7769W        W79298  25.157  43.672   2.681
 7770W        W79299  26.731  38.039  12.940
 7771W        W79300  16.280   6.920   3.581
 7772W        W79301  43.770  30.491   4.325
 7773W        W79302   0.477  10.621   1.284
 7774W        W79303  29.018   3.898  12.379
 7775W        W79304  30.111  44.838   2.258
 7776W        W79305   5.755  41.287  10.796
 7777W        W79306  19.607  36.804  12.532
 7778W        W79307  29.422  16.351  11.605
 7779W        W79308  27.181  17.058  10.614
 7780W        W79309  36.836  36.646  13.923
 7781W        W79310  41.047  10.225   3.466
 7782W        W79311  31.620   6.740   0.386
 7783W        W79312  35.638  38.336   2.271
 7784W        W79313  40.392  19.880   4.199
 7785W        W79314  24.030  24.245   1.419
 7786W        W79315   8.728   8.478  13.520
 7787W        W79316  43.762  11.206  11.907
 7788W        W79317   7.096  36.594   2.918
 7789W        W79318   6.313  36.195  12.067
 7790W        W79319  23.788   5.831   2.231
 7791W        W79320  24.350   0.761   5.125
 7792W        W79321   7.661  30.618   1.337
 7793W        W79322  16.662  11.792   1.331
 7794W        W79323  23.307  41.043  13.447
 7795W        W79324  36.923  18.821   2.019
 7796W        W79325  34.339  33.560  10.915
 7797W        W79326  42.311  41.691   1.478
 7798W        W79327  35.148  32.166  13.556
 7799W        W79328   2.447  25.702   3.614
 7800W        W79329   3.392  15.799   2.489
 7801W        W79330  25.573   3.246   0.799
 7802W        W79331  44.497  30.766  11.140
 7803W        W79332   4.285  13.491  12.134
 7804W        W79333  10.870  11.203  10.718
 7805W        W79334  23.800   1.949  12.464
 7806W        W79335   0.983  27.104  14.004
 7807W        W79336  15.705  30.245   3.737
 7808W        W79337  35.707   9.839   2.370
 7809W        W79338  37.475  13.058  13.911
 7810W        W79339  35.236  10.512   1.991
 7811W        W79340   4.286  27.230   4.709
 7812W        W79341  30.760  19.497  11.450
 7813W        W79342   6.967  18.254   3.821
 7814W        W79343  43.079   1.302  14.890
 7815W        W79344  15.701  29.953   0.374
 7816W        W79345  22.037  36.986   2.227
 7817W        W79346  15.326  23.124   2.135
 7818W        W79347  22.787   0.057   3.697
 7819W        W79348  35.445  30.433   3.648
 7820W        W79349  24.282  25.339  13.993
 7821W        W79350  36.030  12.292  12.112
 7822W        W79351   2.311   3.188  10.545
 7823W        W79352  21.190   8.220   3.508
 7824W        W79353  12.870   4.711   2.840
 7825W        W79354  44.048  39.003  14.804
 7826W        W79355  23.425  29.550  11.542
 7827W        W79356   5.645   3.930   1.345
 7828W        W79357  25.614  29.869   1.342
 7829W        W79358  16.728   8.259   1.528
 7830W        W79359  31.282  37.836   0.694
 7831W        W79360  17.373  27.487   1.708
 7832W        W79361   5.501  27.662  12.795
 7833W        W79362   3.153  37.827  10.712
 7834W        W79363  27.451  30.122  13.470
 7835W        W79364   3.821   4.120   4.651
 7836W        W79365   2.392  10.910   4.601
 7837W        W79366  36.498  10.823  10.372
 7838W        W79367  16.652  42.798   4.583
 7839W        W79368  22.483   5.507   1.118
 7840W        W79369  43.280   4.782   2.269
 7841W        W79370   0.026  38.123  13.796
 7842W        W79371  23.955   1.829  11.083
 7843W        W79372  40.776  33.383  11.503
 7844W        W79373   8.333  37.369  12.113
 7845W        W79374   8.987   4.252   3.718
 7846W        W79375  20.273   6.178  13.351
 7847W        W79376  20.974  20.660   0.835
 7848W        W79377   8.606  20.615   3.902
 7849W        W79378  34.666  14.250  14.494
 7850W        W79379   0.020  22.667  13.572
 7851W        W79380  14.244  42.224  11.097
 7852W        W79381  18.582  20.012   0.855
 7853W        W79382  19.248  40.562   1.320
 7854W        W79383  37.341   7.365  14.793
 7855W        W79384  21.691   4.201   1.885
 7856W        W79385  15.796  21.463  13.707
 7857W        W79386   0.699  38.487   4.732
 7858W        W79387   1.753  18.310  13.370
 7859W        W79388  10.685  10.366   4.908
 7860W        W79389  12.015  40.286  14.032
 7861W        W79390  40.886   1.688   4.561
 7862W        W79391   4.758   5.157  14.913
 7863W        W79392  20.291  13.736  10.752
 7864W        W79393   6.229  36.036   4.780
 7865W        W79394  25.292  35.622  14.444
 7866W        W79395  12.918   1.391   5.067
 7867W        W79396  21.612   8.425   4.263
 7868W        W79397  39.499  42.982  11.455
 7869W        W79398  19.685  39.603   1.538
 7870W        W79399  35.602  40.430  11.768
 7871W        W79400  10.675   2.989  11.549
 7872W        W79401  20.604  17.392   0.780
 7873W        W79402  38.725  11.378   4.715
 7874W        W79403   8.203  35.368   4.184
 7875W        W79404  21.584  10.708   3.854
 7876W        W79405  42.533   9.831   4.481
 7877W        W79406  12.929  18.734   1.747
 7878W        W79407  19.017  18.048  14.882
 7879W        W79408  29.881  37.066  10.696
 7880W        W79409  16.856  26.530   1.278
 7881W        W79410  12.558  22.549   4.503
 7882W        W79411  38.366  40.515   4.108
 7883W        W79412  21.889   4.940  11.069
 7884W        W79413  11.280   8.299  14.913
 7885W        W79414  32.038  38.886  11.393
 7886W        W79415  37.357  16.043   2.747
 7887W        W79416  27.506  13.221  13.454
 7888W        W79417  16.698  44.463  13.909
 7889W        W79418  22.891  39.719   0.390
 7890W        W79419  38.514  23.172   4.003
 7891W        W79420  10.651  40.520  11.170
 7892W        W79421  36.918   7.380   2.813
 7893W        W79422   8.617  20.996   1.805
 7894W        W79423  39.830   3.400  11.691
 7895W        W79424  19.664  26.641   3.326
 7896W        W79425  10.657  39.737  10.694
 7897W        W79426   0.115   0.944  11.494
 7898W        W79427   9.146  13.427  11.961
 7899W        W79428  17.476  23.085   2.245
 7900W        W79429   8.860  36.599  12.840
 7901W        W79430  19.126  28.183  14.779
 7902W        W79431  41.431   2.216   2.436
 7903W        W79432  13.097   8.411   2.334
 7904W        W79433  31.433  17.862  12.309
 7905W        W79434  25.579  15.197  13.671
 7906W        W79435   3.300  13.913  12.716
 7907W        W79436  25.532  24.995   1.168
 7908W        W79437  13.274  26.895  10.707
 7909W        W79438   3.118  32.444  11.116
 7910W        W79439   8.619  39.691   3.146
 7911W        W79440   2.241  31.179   2.726
 7912W        W79441  38.395  23.964  10.881
 7913W        W79442   9.650  17.136   0.424
 7914W        W79443  38.270  34.348  12.576
 7915W        W79444  37.081  22.543  11.472
 7916W        W79445  43.308   8.251  12.536
 7917W        W79446  15.045   8.283  13.960
 7918W        W79447  14.992  23.619  14.948
 7919W        W79448  19.969  31.193  11.820
 7920W        W79449  14.560  21.426   3.238
 7921W        W79450  41.470   1.017   2.628
 7922W        W79451  16.851  23.523   4.465
 7923W        W79452  34.286  27.295   2.367
 7924W        W79453   9.031  34.981  11.310
 7925W        W79454   3.868  31.436  13.075
 7926W        W79455  44.473   2.232  11.509
 7927W        W79456  11.310  27.717   4.689
 7928W        W79457  40.191   0.533   0.381
 7929W        W79458   5.413  42.387  11.642
 7930W        W79459  33.953  38.905   1.664
 7931W        W79460  44.594  36.208   4.835
 7932W        W79461   1.295  10.679  14.473
 7933W        W79462  35.102   6.223  10.659
 7934W        W79463  21.532  10.036  13.819
 7935W        W79464  23.617  21.056  13.025
 7936W        W79465  11.876   2.379   0.484
 7937W        W79466  13.639  40.521  14.993
 7938W        W79467  40.523   0.143  11.114
 7939W        W79468  38.624  10.715  12.518
 7940W        W79469  17.737  11.012  11.683
 7941W        W79470  28.883   6.775  11.971
 7942W        W79471  41.852  21.044   2.252
 7943W        W79472  22.887   8.808  14.512
 7944W        W79473  29.041  42.311   4.877
 7945W        W79474  21.511  39.519   0.892
 7946W        W79475   9.814  20.525   3.273
 7947W        W79476  33.934  20.345  10.734
 7948W        W79477  15.034  41.028   1.240
 7949W        W79478  36.024  33.316   1.846
 7950W        W79479  24.360   1.746  10.162
 7951W        W79480  17.961  20.771  12.547
 7952W        W79481  27.757  28.611  13.068
 7953W        W79482  41.371   0.795   0.900
 7954W        W79483  38.553  12.085  13.121
 7955W        W79484  17.039  42.837   4.928
 7956W        W79485  44.092   8.143   2.885
 7957W        W79486  30.928  36.182   0.998
 7958W        W79487  37.571  41.053  10.973
 7959W        W79488   4.279  27.972   3.834
 7960W        W79489  36.954  13.342   3.368
 7961W        W79490   9.191   4.592  11.157
 7962W        W79491  24.326  41.584  14.815
 7963W        W79492   8.792   8.171  13.100
 7964W        W79493  40.992  32.978  13.879
 7965W        W79494  28.509   1.901  12.302
 7966W        W79495  40.239   5.691  11.274
 7967W        W79496  34.432  42.547   1.286
 7968W        W79497  22.399  21.627   1.438
 7969W        W79498  44.125   3.868  13.214
 7970W        W79499   8.402  14.924   4.606
 7971W        W79500   1.082  27.498  12.516
 7972W        W79501  38.589  11.803   2.720
 7973W        W79502  31.003   1.374  13.530
 7974W        W79503   7.567  41.251   2.868
 7975W        W79504  28.566   3.213  14.442
 7976W        W79505  35.672   9.793  12.892
 7977W        W79506  30.696  32.248  13.516
 7978W        W79507  15.271   1.007  14.380
 7979W        W79508  22.777  20.686  13.491
 7980W        W79509   8.153   4.859   5.036
 7981W        W79510  38.002  14.717  10.623
 7982W        W79511  29.904   7.353  14.345
 7983W        W79512  36.834   8.928  10.548
 7984W        W79513  25.216  13.330  12.956
 7985W        W79514  27.425  20.820  14.832
 7986W        W79515  34.313   3.688  13.552
 7987W        W79516  22.018  41.375   4.283
 7988W        W79517  19.225  21.633   5.640
 7989W        W79518  21.748   4.622  11.882
 7990W        W79519  23.971  16.718   2.345
 7991W        W79520   5.891  16.247   0.734
 7992W        W79521   7.813  26.334   1.926
 7993W        W79522   4.692  12.591  11.315
 7994W        W79523  28.104  19.405   3.333
 7995W        W79524  23.597  42.031   2.753
 7996W        W79525  42.831  41.465   3.570
 7997W        W79526  37.332  39.315  14.856
 7998W        W79527  14.057  30.384   0.308
 7999W        W79528  32.855  33.308   9.883
 8000W        W79529  33.622   2.918   4.755
 8001W        W79530   0.170  34.776   1.617
 8002W        W79531   7.144  10.800  13.399
 8003W        W79532  25.160  25.099   3.354
 8004W        W79533  43.014   1.013   2.259
 8005W        W79534  12.896  14.762  12.467
 8006W        W79535  41.764  13.113  13.039
 8007W        W79536  33.998  25.415  10.762
 8008W        W79537  16.250  31.898  11.660
 8009W        W79538  16.336  10.940  14.541
 8010W        W79539  43.589  29.000  14.978
 8011W        W79540   4.494  34.139  10.431
 8012W        W79541  13.840  21.776  13.046
 8013W        W79542  25.220   4.618   3.516
 8014W        W79543  39.831  38.204  13.514
 8015W        W79544  17.660  30.452   4.647
 8016W        W79545  17.357  13.647   0.891
 8017W        W79546   4.343  13.935   2.382
 8018W        W79547   0.854  26.622  12.457
 8019W        W79548  37.254  27.376  13.097
 8020W        W79549  10.435  27.463  11.272
 8021W        W79550  17.644  29.232  13.878
 8022W        W79551  27.770  18.914  12.957
 8023W        W79552   1.440  41.774  13.349
 8024W        W79553  38.169   9.473   0.859
 8025W        W79554  29.472  15.301   0.308
 8026W        W79555  34.849  40.393  12.925
 8027W        W79556  14.266   8.052  10.319
 8028W        W79557  26.541  34.580   4.101
 8029W        W79558  37.540  29.063   1.199
 8030W        W79559   0.850  21.032  12.291
 8031W        W79560  32.012   6.459  12.391
 8032W        W79561  34.657  26.099   1.955
 8033W        W79562  43.829   9.332  13.511
 8034W        W79563   7.577   2.301  11.374
 8035W        W79564  42.798   8.151  12.449
 8036W        W79565  10.401   1.739   0.874
 8037W        W79566  29.213   4.322  10.687
 8038W        W79567   8.068  10.213   1.960
 8039W        W79568  40.727  40.378   1.928
 8040W        W79569  32.662  42.558  13.048
 8041W        W79570  10.861   4.845   1.263
 8042W        W79571  41.489  35.586  10.672
 8043W        W79572  19.126  30.756  10.287
 8044W        W79573  30.449  37.673  11.713
 8045W        W79574  10.803  36.076  14.368
 8046W        W79575  19.776   2.335   4.819
 8047W        W79576  40.998  41.506   2.172
 8048W        W79577  13.514  23.040  11.394
 8049W        W79578  33.292   1.430   1.690
 8050W        W79579  39.914  36.882  10.560
 8051W        W79580  20.069  12.062  10.292
 8052W        W79581  42.465  26.609   3.931
 8053W        W79582  10.939  16.574   1.360
 8054W        W79583  17.296  30.622  11.692
 8055W        W79584   9.455   6.710  12.916
 8056W        W79585  42.417  41.976   2.901
 8057W        W79586   2.348   5.363  14.563
 8058W        W79587  29.223  41.976  13.218
 8059W        W79588  35.756  11.016  11.085
 8060W        W79589  40.785   9.167  13.935
 8061W        W79590  43.336  17.539   1.386
 8062W        W79591   5.340   2.800  10.994
 8063W        W79592  33.164  36.819   4.791
 8064W        W79593  39.925  17.097  10.663
 8065W        W79594  22.029   5.765  11.638
 8066W        W79595  37.794   6.608   2.403
 8067W        W79596  27.702  38.825  10.711
 8068W        W79597  43.832  10.575   0.525
 8069W        W79598  33.390  32.761   1.418
 8070W        W79599  33.004  40.619   1.474
 8071W        W79600  37.560  21.035  12.488
 8072W        W79601  44.273   0.555  11.905
 8073W        W79602  22.411  32.572   0.684
 8074W        W79603  10.758  14.903   2.584
 8075W        W79604  33.024  24.043  11.499
 8076W        W79605   5.813  32.115   4.736
 8077W        W79606  29.913   0.282   3.178
 8078W        W79607  36.486   8.441  12.356
 8079W        W79608  34.478  27.642   3.564
 8080W        W79609  17.527   4.497   0.456
 8081W        W79610  39.796  35.631  12.016
 8082W        W79611  18.541  29.007  12.222
 8083W        W79612  12.750  39.076  14.018
 8084W        W79613  40.511   1.957  14.266
 8085W        W79614   3.907  31.943   2.787
 8086W        W79615   0.523  28.531   1.758
 8087W        W79616  17.731   6.923  10.466
 8088W        W79617  32.893  19.191  13.722
 8089W        W79618  12.437  12.124   4.508
 8090W        W79619  41.859  30.939   3.823
 8091W        W79620  40.136  22.385  14.058
 8092W        W79621  42.324  15.142  12.513
 8093W        W79622   7.938  19.465  10.268
 8094W        W79623  33.988   5.370   4.785
 8095W        W79624  34.336   8.913  12.425
 8096W        W79625  44.877   0.277  13.403
 8097W        W79626  16.240   0.561   4.121
 8098W        W79627  35.002  28.858  12.975
 8099W        W79628   9.004  23.949  10.731
 8100W        W79629   2.473  39.924   4.947
 8101W        W79630  34.964  44.294  12.010
 8102W        W79631  25.645  42.022   0.714
 8103W        W79632  39.144  10.769  12.632
 8104W        W79633  29.381  21.650   0.991
 8105W        W79634  30.418  23.637   2.640
 8106W        W79635   4.677   7.324   2.196
 8107W        W79636  21.092   1.900  13.097
 8108W        W79637  41.533   6.214  11.809
 8109W        W79638   7.626  10.257  14.460
 8110W        W79639  21.207  26.907  13.460
 8111W        W79640   7.648  35.448   3.326
 8112W        W79641  38.853   1.390   1.280
 8113W        W79642  42.058  16.108   3.906
 8114W        W79643  12.035  21.705  13.774
 8115W        W79644  44.929   0.383   4.133
 8116W        W79645   3.118  18.629  14.534
 8117W        W79646   9.390  23.936   3.185
 8118W        W79647  19.105  24.720  10.575
 8119W        W79648  12.830  22.763  12.587
 8120W        W79649  44.271  30.157  14.441
 8121W        W79650  26.178  44.122   1.330
 8122W        W79651  25.948  34.857  14.466
 8123W        W79652  28.135  28.489   4.138
 8124W        W79653  31.642  22.633   2.806
 8125W        W79654   9.757  40.552   1.166
 8126W        W79655  30.166  34.462   0.062
 8127W        W79656   6.008  43.394   1.622
 8128W        W79657  36.364  26.844   4.208
 8129W        W79658   2.429  40.268  14.463
 8130W        W79659  44.171  33.101  14.177
 8131W        W79660  39.889  17.411  14.522
 8132W        W79661  25.464  10.410  13.489
 8133W        W79662   5.412   4.941  11.206
 8134W        W79663  26.619  28.626   2.614
 8135W        W79664   6.123  42.861   5.110
 8136W        W79665   7.318  28.173   2.705
 8137W        W79666   4.528   7.115  12.567
 8138W        W79667  40.100   5.631  10.665
 8139W        W79668  36.111  35.936  11.164
 8140W        W79669   1.953   6.106  13.580
 8141W        W79670   2.668  32.939   4.513
 8142W        W79671  10.705  40.730  13.848
 8143W        W79672  44.305  25.696  14.393
 8144W        W79673  32.983  16.855  14.402
 8145W        W79674  32.130  29.645  10.777
 8146W        W79675  24.148  22.451   0.894
 8147W        W79676   5.854  42.003  14.911
 8148W        W79677  23.087   0.819   2.111
 8149W        W79678  24.132  38.304   0.154
 8150W        W79679  41.778  17.667  12.053
 8151W        W79680  30.675  18.782   5.027
 8152W        W79681   8.423  19.095   1.628
 8153W        W79682  39.362   3.193   4.176
 8154W        W79683  19.159  44.873  11.494
 8155W        W79684  42.385   0.484   2.694
 8156W        W79685  15.093   1.155   4.299
 8157W        W79686  13.668  31.463  14.488
 8158W        W79687  20.162  12.588  10.368
 8159W        W79688  28.154  25.278   3.131
 8160W        W79689  42.801  42.321   4.115
 8161W        W79690  25.714  14.213  11.310
 8162W        W79691  11.293   1.496   0.290
 8163W        W79692  33.593  20.297  13.464
 8164W        W79693  40.524   2.705  11.142
 8165W        W79694  44.260  25.095  13.076
 8166W        W79695  42.591  11.186   3.233
 8167W        W79696  38.922  31.204  13.956
 8168W        W79697  24.759  29.704   0.434
 8169W        W79698  41.261  10.320   1.839
 8170W        W79699  14.109  17.260   3.568
 8171W        W79700  40.335  17.756  13.646
 8172W        W79701   1.323  17.016   2.451
 8173W        W79702  26.568   0.009   0.925
 8174W        W79703  38.394  26.419   3.250
 8175W        W79704  31.541  10.988  14.776
 8176W        W79705  38.454  19.099  12.525
 8177W        W79706  23.741  36.594   1.248
 8178W        W79707   8.868  34.336  11.973
 8179W        W79708  25.031  12.247  13.735
 8180W        W79709  19.077  18.380   1.238
 8181W        W79710   1.253  38.330  13.746
 8182W        W79711  43.517  17.660  11.640
 8183W        W79712   9.124   2.367  11.897
 8184W        W79713  26.240  26.398   4.555
 8185W        W79714  31.958  32.979   0.081
 8186W        W79715  13.252   2.931   4.196
 8187W        W79716  37.297  31.064   2.814
 8188W        W79717  18.078  37.935   0.401
 8189W        W79718  37.318  34.080  14.336
 8190W        W79719  31.141  37.752  12.907
 8191W        W79720  36.987  10.115  14.809
 8192W        W79721  30.628  19.968   4.486
 8193W        W79722  12.153  33.245   0.692
 8194W        W79723   1.181   7.483   3.712
 8195W        W79724  16.852  18.154   4.600
 8196W        W79725   0.705   1.545   3.444
 8197W        W79726  22.209  44.072   4.170
 8198W        W79727  13.984  11.242  12.178
 8199W        W79728  28.626  29.840   4.001
 8200W        W79729  27.111   0.020  12.423
 8201W        W79730  20.127   2.824   1.446
 8202W        W79731   1.479  40.299  11.396
 8203W        W79732  27.714  17.502  12.049
 8204W        W79733  41.673  31.429   3.885
 8205W        W79734   3.540  43.363   2.228
 8206W        W79735  16.314  41.310  13.928
 8207W        W79736  23.668  18.339   4.248
 8208W        W79737  41.738  29.784  14.900
 8209W        W79738  27.928  15.783   2.167
 8210W        W79739  31.042  43.320   2.015
 8211W        W79740  20.570  41.120   1.270
 8212W        W79741   5.632  40.829  14.272
 8213W        W79742  15.947  24.884  11.814
 8214W        W79743  22.753  27.945  14.866
 8215W        W79744  24.460  24.741  14.875
 8216W        W79745  15.691  33.981  14.709
 8217W        W79746  35.410  22.759   2.132
 8218W        W79747   5.909  41.473   1.401
 8219W        W79748   1.706  20.325  11.962
 8220W        W79749  10.936  32.422   3.703
 8221W        W79750  33.472  17.554   0.493
 8222W        W79751  29.160   7.220  13.948
 8223W        W79752  15.832  17.782  11.115
 8224W        W79753  40.866  31.513  11.947
 8225W        W79754  21.109  42.350   2.404
 8226W        W79755  15.196  14.812  13.058
 8227W        W79756  38.382  42.797   4.650
 8228W        W79757  26.370  36.640   2.688
 8229W        W79758  42.728  37.465  13.909
 8230W        W79759  38.501  37.936  13.432
 8231W        W79760   7.700  13.232   1.817
 8232W        W79761  40.396  12.884   2.329
 8233W        W79762   1.873  28.503   1.405
 8234W        W79763  11.317   0.302  11.554
 8235W        W79764  24.653  35.387   4.136
 8236W        W79765  16.027  37.838   0.720
 8237W        W79766   8.735  11.891   4.282
 8238W        W79767  39.158  20.342  12.571
 8239W        W79768  25.489   7.293   4.881
 8240W        W79769  11.557  20.213  13.553
 8241W        W79770  44.966   2.755   0.994
 8242W        W79771  21.288  38.605   4.574
 8243W        W79772  27.124  18.669   0.880
 8244W        W79773  41.970  34.096  12.006
 8245W        W79774  20.477  44.577  11.559
 8246W        W79775  38.319   3.811  11.550
 8247W        W79776  15.593  17.628   4.470
 8248W        W79777  23.511  25.055  14.784
 8249W        W79778  44.806  16.168   3.770
 8250W        W79779   7.834   1.234   1.417
 8251W        W79780  31.613  18.137  12.884
 8252W        W79781   9.326  11.721  11.253
 8253W        W79782  11.290  23.145   1.848
 8254W        W79783  22.706  34.114  13.584
 8255W        W79784  30.836  32.940   0.312
 8256W        W79785  24.566  27.163  11.883
 8257W        W79786  43.268  28.553  13.448
 8258W        W79787   1.906  11.891   1.534
 8259W        W79788   1.468  43.912   1.734
 8260W        W79789  14.357  17.226  14.413
 8261W        W79790  21.061  18.618   0.799
 8262W        W79791  19.942  24.069   1.634
 8263W        W79792  10.138  37.433  13.031
 8264W        W79793  13.796  35.211   2.243
 8265W        W79794  15.451  28.668   1.852
 8266W        W79795   8.227  18.553  12.249
 8267W        W79796  18.064  16.950   2.323
 8268W        W79797  29.713  32.439  13.533
 8269W        W79798  19.305  16.184   2.614
 8270W        W79799  24.913  38.754   1.279
 8271W        W79800  18.368  27.278   0.402
 8272W        W79801  32.409  13.618  13.750
 8273W        W79802  34.505  41.434  13.107
 8274W        W79803  32.453  24.515  14.309
 8275W        W79804  42.877  38.389   1.434
 8276W        W79805  32.514  16.810  13.531
 8277W        W79806  23.261   2.748   0.454
 8278W        W79807  33.027  10.291   2.687
 8279W        W79808  24.536   9.694  13.984
 8280W        W79809  26.923  28.585  11.048
 8281W        W79810  39.063  24.501  11.986
 8282W        W79811  18.009  39.107  13.624
 8283W        W79812   6.444  33.420  11.134
 8284W        W79813  17.713   8.668   0.907
 8285W        W79814  30.136  10.625  14.428
 8286W        W79815  10.138  18.839   0.084
 8287W        W79816  43.253  43.088  12.624
 8288W        W79817  23.382  27.455  12.379
 8289W        W79818  12.544   2.716  13.777
 8290W        W79819  19.434  38.904   4.466
 8291W        W79820  31.505  15.028  11.141
 8292W        W79821  20.779   2.384   4.194
 8293W        W79822   8.111  23.425   3.188
 8294W        W79823  21.955   2.848   2.828
 8295W        W79824  36.287  14.281  13.473
 8296W        W79825   0.862   7.214   2.323
 8297W        W79826  25.978  18.218  13.014
 8298W        W79827  29.019  14.115  11.906
 8299W        W79828  36.989  40.920  12.476
 8300W        W79829  22.116   2.872   0.873
 8301W        W79830  24.308  42.502  13.433
 8302W        W79831  31.106  17.230   3.051
 8303W        W79832  32.940   1.315  11.633
 8304W        W79833   1.836  15.112   0.681
 8305W        W79834  38.503   0.709   1.774
 8306W        W79835  44.905  22.995   3.263
 8307W        W79836  34.941   6.672  13.880
 8308W        W79837  26.007   8.786  11.134
 8309W        W79838   3.855  12.747  12.059
 8310W        W79839   6.731  36.407  10.931
 8311W        W79840  20.545  24.641  13.964
 8312W        W79841  29.211  10.431   2.179
 8313W        W79842   5.459  35.381  14.798
 8314W        W79843   3.271   9.456  13.714
 8315W        W79844   0.407  17.746   4.284
 8316W        W79845   7.310   9.065  10.694
 8317W        W79846  30.491   3.418  12.945
 8318W        W79847  43.373   5.495   3.273
 8319W        W79848  10.266  15.714  13.283
 8320W        W79849  27.957   8.430  14.968
 8321W        W79850   3.106  36.981   4.347
 8322W        W79851  28.395  22.049  11.654
 8323W        W79852   7.360   6.489   3.743
 8324W        W79853  30.996  26.656  13.246
 8325W        W79854   3.933  36.531  11.525
 8326W        W79855  15.150  32.522  11.072
 8327W        W79856  31.051   9.376  14.695
 8328W        W79857  18.588  33.103  11.955
 8329W        W79858  21.195  25.532  13.848
 8330W        W79859  38.071  34.496  13.985
 8331W        W79860  12.604  13.124   3.358
 8332W        W79861   5.581  31.607   2.251
 8333W        W79862  42.718  44.262   1.855
 8334W        W79863  19.132  42.227  12.463
 8335W        W79864  20.540  13.191   1.727
 8336W        W79865  12.026  25.103   2.312
 8337W        W79866  26.427  31.614   4.554
 8338W        W79867  27.618  15.821  10.920
 8339W        W79868   5.943  38.298   0.015
 8340W        W79869  28.224   7.774  13.987
 8341W        W79870  32.496   6.276   2.546
 8342W        W79871   5.655   3.849  13.262
 8343W        W79872  20.739  20.641   1.727
 8344W        W79873  29.065   5.352  14.282
 8345W        W79874  27.743  33.829  13.931
 8346W        W79875   7.517  42.757   2.625
 8347W        W79876   7.442  17.466  14.951
 8348W        W79877   7.187  37.288   2.281
 8349W        W79878  26.334  18.000   2.551
 8350W        W79879   2.227  43.538  14.494
 8351W        W79880  42.537  22.567   0.268
 8352W        W79881  13.099  27.953  12.148
 8353W        W79882  10.710  21.676   2.766
 8354W        W79883   0.551  32.480  11.192
 8355W        W79884  32.918  36.008   3.710
 8356W        W79885  44.832  42.046  12.919
 8357W        W79886  44.950   3.291   1.192
 8358W        W79887   8.634  16.751  11.019
 8359W        W79888  43.962   1.701   0.548
 8360W        W79889  27.118   9.873   4.552
 8361W        W79890  34.854  25.545   4.589
 8362W        W79891  39.555  38.970   1.923
 8363W        W79892  39.321  30.436  14.877
 8364W        W79893  39.672  11.242   0.650
 8365W        W79894   1.409   7.840   3.402
 8366W        W79895  36.618  12.340  11.248
 8367W        W79896   6.296  25.532   1.167
 8368W        W79897  37.516  16.222  12.070
 8369W        W79898  44.940  18.663   4.220
 8370W        W79899  31.956  21.152   1.459
 8371W        W79900  10.076  13.083   4.152
 8372W        W79901  13.658  29.534   2.271
 8373W        W79902  29.451   4.672   3.559
 8374W        W79903  26.742  19.357  14.370
 8375W        W79904  18.452  44.512   1.818
 8376W        W79905  42.862  36.324   5.032
 8377W        W79906  22.955  30.009   1.692
 8378W        W79907  37.388   8.823   3.082
 8379W        W79908  19.322  22.303   2.789
 8380W        W79909  10.935  30.163  14.858
 8381W        W79910   3.799  40.749  14.971
 8382W        W79911   1.447   9.474  11.049
 8383W        W79912   8.085  11.135   0.536
 8384W        W79913   5.141   2.487  10.592
 8385W        W79914  22.525  41.229  11.592
 8386W        W79915  11.159  25.184   4.870
 8387W        W79916  36.388  28.061  11.243
 8388W        W79917  24.073  39.078  14.751
 8389W        W79918   8.191   6.374  12.934
 8390W        W79919  11.418  34.825   3.235
 8391W        W79920   4.868  19.342   0.925
 8392W        W79921  41.052  43.885  12.549
 8393W        W79922  31.839  14.105  13.278
 8394W        W79923  30.874  32.206   4.167
 8395W        W79924   0.797  19.703  14.151
 8396W        W79925  40.355   6.683  11.120
 8397W        W79926  21.202   4.043   0.028
 8398W        W79927   5.333  26.250  13.014
 8399W        W79928  18.691  15.850  10.140
 8400W        W79929  20.990  23.515   1.341
 8401W        W79930  12.807  42.276   3.306
 8402W        W79931   8.390   4.224   1.958
 8403W        W79932   7.708  24.696   4.115
 8404W        W79933  33.473  35.010   1.817
 8405W        W79934  24.324  38.285   0.754
 8406W        W79935  32.086  36.570   4.992
 8407W        W79936  24.192  19.072  12.956
 8408W        W79937  12.764  14.748   1.895
 8409W        W79938  20.178  40.341   2.001
 8410W        W79939   6.679  10.677  14.452
 8411W        W79940  24.935  35.629  11.302
 8412W        W79941   6.772   2.713   4.536
 8413W        W79942   6.405  16.342   1.340
 8414W        W79943  41.615   8.675   3.168
 8415W        W79944  18.333  28.092   0.973
 8416W        W79945  28.455  24.534  12.339
 8417W        W79946  17.295  40.989  12.618
 8418W        W79947  25.585  28.075  12.079
 8419W        W79948   7.891  16.068  10.687
 8420W        W79949  20.472   9.178  11.901
 8421W        W79950   5.412  15.273  14.386
 8422W        W79951  21.040   1.222  11.699
 8423W        W79952   0.229   5.379  12.406
 8424W        W79953  29.209  32.902   4.139
 8425W        W79954  43.037  39.014   4.624
 8426W        W79955  14.232  19.728  10.231
 8427W        W79956  25.058  17.619   2.321
 8428W        W79957   3.246  13.905  14.972
 8429W        W79958  40.475  30.009   2.421
 8430W        W79959   8.686   8.455  12.107
 8431W        W79960  36.058   8.678  12.520
 8432W        W79961  43.960   6.719  12.560
 8433W        W79962  33.092  35.667  11.669
 8434W        W79963  17.548  31.919   2.418
 8435W        W79964  20.836   1.807   2.687
 8436W        W79965  40.232  14.068  13.528
 8437W        W79966  25.033  15.196   3.860
 8438W        W79967   4.416  12.581   3.694
 8439W        W79968  18.130  30.334  12.055
 8440W        W79969  25.175  29.557   1.363
 8441W        W79970  37.218  21.359   3.151
 8442W        W79971  31.177  40.697   0.718
 8443W        W79972  40.129  30.577   1.505
 8444W        W79973  14.805  40.551   1.764
 8445W        W79974  32.990  42.043  10.871
 8446W        W79975  28.122  43.051  12.492
 8447W        W79976  11.667  43.850  13.814
 8448W        W79977   2.191   0.430  12.718
 8449W        W79978  33.474  39.055  11.500
 8450W        W79979  15.022   1.338  11.671
 8451W        W79980  41.526  29.248   4.595
 8452W        W79981  40.425  25.039   1.519
 8453W        W79982   7.389  24.494   3.258
 8454W        W79983   2.013  42.429   0.028
 8455W        W79984  32.602  44.539   3.670
 8456W        W79985  11.645  33.938   3.896
 8457W        W79986  31.579  13.656  10.399
 8458W        W79987   7.153  31.867  13.554
 8459W        W79988  17.551  25.477  10.973
 8460W        W79989  24.923  30.702   4.674
 8461W        W79990  18.591  22.178  12.905
 8462W        W79991  36.338   0.253   3.445
 8463W        W79992  15.850  30.010   3.076
 8464W        W79993  13.704  18.972  11.687
 8465W        W79994   0.420  15.203  12.428
 8466W        W79995   2.418  22.227   2.244
 8467W        W79996  33.953  21.099  13.265
 8468W        W79997   0.966  37.293   0.397
 8469W        W79998   1.221  43.401  12.504
 8470W        W79999  33.194   3.848  13.122
 8471W        W80000  18.976  15.639   2.473
 8472W        W80001   5.724   5.250   2.696
 8473W        W80002  32.673  31.520  11.137
 8474W        W80003  13.744  23.675   2.586
 8475W        W80004  25.051  32.839  11.559
 8476W        W80005  26.228  31.691   1.979
 8477W        W80006   1.652  32.164   4.167
 8478W        W80007  18.540  24.509  13.591
 8479W        W80008  33.398  39.916   0.868
 8480W        W80009  23.989  39.860   0.319
 8481W        W80010  10.672   5.687   2.824
 8482W        W80011  24.108  13.297  12.422
 8483W        W80012  23.989  39.133  13.848
 8484W        W80013   6.395  30.236   1.644
 8485W        W80014  39.185  19.272   3.080
 8486W        W80015  20.301   1.896  11.556
 8487W        W80016  11.867  39.024   1.649
 8488W        W80017  19.530   3.162  13.938
 8489W        W80018  13.871  44.007   0.897
 8490W        W80019  34.807  10.419   0.866
 8491W        W80020  41.359  10.504  11.228
 8492W        W80021  27.670  10.968   3.743
 8493W        W80022  31.009  17.700   3.192
 8494W        W80023  37.913  32.494   1.809
 8495W        W80024   3.201  26.086  12.018
 8496W        W80025  38.371  39.364  14.857
 8497W        W80026   9.941  30.469   2.581
 8498W        W80027  18.717   5.704  12.174
 8499W        W80028  27.700  19.864  11.143
 8500W        W80029  19.260   7.417  13.881
 8501W        W80030  32.501  14.557  10.583
 8502W        W80031   1.455  24.010  12.007
 8503W        W80032  20.489  20.280   1.400
 8504W        W80033  27.589  34.506   2.165
 8505W        W80034  14.795   4.522  14.799
 8506W        W80035  42.465  14.282   4.714
 8507W        W80036  22.458  30.438  12.417
 8508W        W80037  43.539  16.634   1.084
 8509W        W80038  43.191  31.966  14.338
 8510W        W80039  18.330  17.356  14.231
 8511W        W80040   5.318  23.378  13.457
 8512W        W80041  16.152  36.235   1.741
 8513W        W80042   6.338  30.670   1.928
 8514W        W80043  24.607  41.028  12.469
 8515W        W80044  39.808  16.271  11.645
 8516W        W80045  27.594  29.725  11.146
 8517W        W80046  30.464  20.135  11.571
 8518W        W80047  36.601  10.232   4.710
 8519W        W80048  29.481   5.319  10.542
 8520W        W80049  43.863  13.700   2.714
 8521W        W80050  32.144  35.518  14.021
 8522W        W80051   4.072   7.331   4.327
 8523W        W80052  36.504  21.600   0.973
 8524W        W80053   4.009  30.517   2.800
 8525W        W80054  29.133   2.024   4.714
 8526W        W80055  28.218  24.195   3.964
 8527W        W80056   2.856  31.938  13.007
 8528W        W80057  42.780  28.208   1.430
 8529W        W80058  32.055   3.882   3.606
 8530W        W80059   7.999  39.203   5.316
 8531W        W80060  31.594   8.150   1.148
 8532W        W80061   2.304  30.426   4.287
 8533W        W80062  22.720  33.972   1.495
 8534W        W80063  14.010  38.829  13.447
 8535W        W80064  27.453  24.294  14.781
 8536W        W80065  18.185  44.197   4.116
 8537W        W80066  13.794  44.588  11.289
 8538W        W80067  31.194  20.582  10.766
 8539W        W80068  31.498   8.309   2.583
 8540W        W80069  35.199  44.719  14.343
 8541W        W80070  17.178  34.482  14.027
 8542W        W80071  23.606  22.765   4.564
 8543W        W80072  40.207  13.180  13.090
 8544W        W80073  31.512  31.935   2.162
 8545W        W80074  31.809  35.361   0.450
 8546W        W80075   1.009  31.142   4.357
 8547W        W80076  26.108  16.387   1.681
 8548W        W80077  34.019   8.300   1.395
 8549W        W80078  41.739  33.523   0.079
 8550W        W80079  28.033  30.375  13.274
 8551W        W80080  19.154  34.982  14.142
 8552W        W80081   8.825  36.892   4.207
 8553W        W80082   5.163  36.485   4.006
 8554W        W80083  20.606  40.765  12.967
 8555W        W80084  19.576   4.840   0.003
 8556W        W80085  19.711  36.421   4.638
 8557W        W80086   6.559   9.822   2.128
 8558W        W80087  30.617  12.479   4.918
 8559W        W80088  28.653  28.024  14.892
 8560W        W80089  35.870  15.653  10.035
 8561W        W80090   9.311  41.746   1.784
 8562W        W80091  17.718  19.442  12.312
 8563W        W80092   1.000  17.157   3.297
 8564W        W80093   5.396  27.139  12.489
 8565W        W80094   0.646  32.047   4.080
 8566W        W80095  43.115   5.813   0.582
 8567W        W80096  37.056  44.466   2.919
 8568W        W80097   4.382   0.377   2.731
 8569W        W80098  18.257  25.123  12.498
 8570W        W80099  38.556   7.962   4.078
 8571W        W80100  26.650  32.677  12.017
 8572W        W80101  16.487   8.685   3.193
 8573W        W80102  34.643  13.849   1.825
 8574W        W80103   8.752  44.936  11.624
 8575W        W80104   8.706  10.622   1.776
 8576W        W80105  41.827   0.548   0.798
 8577W        W80106  32.713   5.119  13.990
 8578W        W80107  25.624  31.976  11.487
 8579W        W80108  19.473  20.332   1.909
 8580W        W80109  21.157  27.238  11.450
 8581W        W80110  27.949  22.044  14.469
 8582W        W80111   0.768   1.253  13.952
 8583W        W80112  35.228  34.358  11.237
 8584W        W80113  37.303   1.102  13.457
 8585W        W80114  18.821  19.019  13.381
 8586W        W80115  39.426  27.079   4.065
 8587W        W80116  34.833  20.613   4.466
 8588W        W80117  38.714  33.761  11.694
 8589W        W80118  23.692  39.869  11.195
 8590W        W80119  34.123  25.764  11.642
 8591W        W80120  13.233  41.547  14.240
 8592W        W80121  23.819  16.288  12.082
 8593W        W80122  34.910  43.056   3.694
 8594W        W80123  26.025  23.696  11.585
 8595W        W80124  39.385  34.047   0.427
 8596W        W80125   7.828   2.976   3.218
 8597W        W80126  21.827  35.942   1.762
 8598W        W80127   1.963  41.280   3.687
 8599W        W80128   5.913  14.222  13.667
 8600W        W80129  37.413  39.368  13.090
 8601W        W80130  16.158  23.732  13.151
 8602W        W80131  35.847   6.824   1.896
 8603W        W80132  40.767  16.246   1.441
 8604W        W80133  37.994   7.581   3.125
 8605W        W80134  21.295  14.683   2.332
 8606W        W80135  37.600  20.850  11.481
 8607W        W80136  39.064  20.221  13.419
 8608W        W80137  29.645   1.983  11.609
 8609W        W80138  35.587  26.441   4.637
 8610W        W80139  20.569   9.206  13.219
 8611W        W80140  20.286  19.213  14.503
 8612W        W80141  28.357  32.524   0.469
 8613W        W80142  39.856  39.049  14.883
 8614W        W80143  16.440  24.879   0.943
 8615W        W80144  15.205  19.914  10.036
 8616W        W80145  29.420  27.786   3.254
 8617W        W80146  10.718   2.295  11.010
 8618W        W80147  38.455  26.944  13.821
 8619W        W80148   7.725  35.561  12.191
 8620W        W80149  36.563  15.108   3.817
 8621W        W80150   7.947  41.299  14.780
 8622W        W80151  39.359  39.318   2.405
 8623W        W80152  16.721  42.152   1.203
 8624W        W80153  42.053  18.046  12.657
 8625W        W80154  18.492  17.994   2.332
 8626W        W80155  36.841   5.761   4.968
 8627W        W80156  40.053  41.263  13.569
 8628W        W80157   9.244  25.200  10.489
 8629W        W80158  21.510  28.466   1.772
 8630W        W80159   1.642  42.528  11.986
 8631W        W80160  22.008   0.529   1.442
 8632W        W80161   4.285  40.865  13.867
 8633W        W80162  24.267  20.532   2.822
 8634W        W80163  35.375  10.671  11.000
 8635W        W80164  31.627  16.263   2.869
 8636W        W80165  35.168  32.934  14.832
 8637W        W80166  32.850  39.004   0.017
 8638W        W80167  31.449   9.934   3.636
 8639W        W80168  33.931  43.970   1.854
 8640W        W80169  31.829  34.402  10.824
 8641W        W80170   3.221  29.539  11.730
 8642W        W80171  41.282   7.982  11.987
 8643W        W80172  34.042   8.182  10.642
 8644W        W80173  27.990  42.855  14.774
 8645W        W80174  22.099   7.723   3.841
 8646W        W80175  23.842   6.380  13.106
 8647W        W80176   2.898   2.897  10.662
 8648W        W80177  26.218  20.692  13.442
 8649W        W80178   3.162  39.168   0.849
 8650W        W80179   2.718  10.220  12.102
 8651W        W80180  44.843  37.762  14.331
 8652W        W80181  34.533  25.050  14.799
 8653W        W80182  23.595  35.237  12.529
 8654W        W80183  40.938  43.036   0.052
 8655W        W80184   6.366   0.741   1.962
 8656W        W80185  25.193   0.486  10.773
 8657W        W80186  12.890  29.668  13.375
 8658W        W80187  23.153  15.295  14.109
 8659W        W80188  21.999  20.579  13.950
 8660W        W80189  31.647  30.718   4.441
 8661W        W80190  11.070  34.907  12.543
 8662W        W80191  13.837  15.646  13.430
 8663W        W80192   0.451  29.124   2.051
 8664W        W80193  19.839  19.331  12.530
 8665W        W80194  18.135  12.868  12.559
 8666W        W80195  19.176  17.535   1.620
 8667W        W80196   4.212  42.560  12.437
 8668W        W80197  40.511  21.461  11.144
 8669W        W80198  17.076   2.916   5.186
 8670W        W80199  10.268  22.187   0.864
 8671W        W80200  43.727   4.323  10.659
 8672W        W80201  30.930  19.543  10.592
 8673W        W80202  18.495   4.466  11.393
 8674W        W80203  15.663  32.085   5.133
 8675W        W80204  44.865  27.028   2.373
 8676W        W80205  10.174  17.818  12.308
 8677W        W80206  30.569  38.991  14.810
 8678W        W80207   4.643  19.510  11.125
 8679W        W80208   9.130  16.483  11.522
 8680W        W80209   8.467  34.961  10.755
 8681W        W80210   0.422  11.318   2.734
 8682W        W80211  26.007  41.869   4.513
 8683W        W80212  44.386   2.458  11.961
 8684W        W80213  42.016  24.185   4.049
 8685W        W80214  35.062   6.787   2.874
 8686W        W80215  32.415   7.251   2.608
 8687W        W80216  11.817  27.425  12.898
 8688W        W80217   7.478  14.331   3.191
 8689W        W80218  19.031  20.572   2.811
 8690W        W80219  14.320  36.837  10.694
 8691W        W80220  15.595  29.865  13.518
 8692W        W80221  40.416   1.701   4.278
 8693W        W80222  34.600  30.977   4.633
 8694W        W80223   3.492  34.137   1.199
 8695W        W80224  20.283  15.193   2.820
 8696W        W80225  18.093  36.857  14.382
 8697W        W80226   1.916  17.411   0.999
 8698W        W80227  19.500   1.377   3.932
 8699W        W80228  24.032  44.765  11.004
 8700W        W80229  39.057  43.801  12.430
 8701W        W80230  12.341  43.716  12.541
 8702W        W80231  14.305  15.698   2.089
 8703W        W80232   5.322   4.949   4.289
 8704W        W80233  20.069   4.610   1.231
 8705W        W80234   9.603  17.208  12.500
 8706W        W80235  39.619  41.877  13.004
 8707W        W80236  33.826  22.528   1.784
 8708W        W80237  40.957  13.075  12.189
 8709W        W80238  42.582  25.476  12.550
 8710W        W80239  37.066  30.451   2.273
 8711W        W80240  12.239   4.998   0.894
 8712W        W80241  17.569   3.764  14.837
 8713W        W80242  39.513  14.509   3.313
 8714W        W80243  38.727  20.123   2.316
 8715W        W80244   3.440   0.542  13.832
 8716W        W80245  11.274   1.963   4.630
 8717W        W80246   3.832  44.704   0.879
 8718W        W80247  12.770  18.822   2.220
 8719W        W80248  38.098  11.335  12.891
 8720W        W80249  20.974  14.074   4.914
 8721W        W80250  32.179   0.842   1.895
 8722W        W80251  37.417  18.671  13.153
 8723W        W80252   4.176   6.391   4.690
 8724W        W80253  14.902  28.393   1.668
 8725W        W80254  19.593  23.246  12.030
 8726W        W80255   8.686  35.422   3.988
 8727W        W80256  19.580  43.844   1.975
 8728W        W80257  35.994  35.942   2.783
 8729W        W80258  12.192   0.315   0.049
 8730W        W80259   2.403  14.078   4.058
 8731W        W80260  37.085  22.714  12.014
 8732W        W80261  20.641  43.613  13.972
 8733W        W80262   0.987  12.290   3.133
 8734W        W80263  36.947  18.455  10.684
 8735W        W80264  18.714  22.266  14.780
 8736W        W80265  14.431  13.763   3.503
 8737W        W80266  29.650   2.018   1.612
 8738W        W80267  22.094   2.335  13.747
 8739W        W80268  18.384  44.986   2.022
 8740W        W80269  37.066  30.170   0.829
 8741W        W80270   9.901  12.629   0.037
 8742W        W80271   4.835   3.447  11.966
 8743W        W80272  10.318  22.571   1.695
 8744W        W80273  16.875   7.191  11.620
 8745W        W80274   9.328  28.536  14.642
 8746W        W80275  10.484  10.040  11.010
 8747W        W80276  14.476  41.968  14.775
 8748W        W80277  16.774   1.430   1.981
 8749W        W80278  25.326   4.211   3.875
 8750W        W80279  26.525  40.391   1.809
 8751W        W80280  44.306  27.768   4.284
 8752W        W80281  39.546   3.029   3.712
 8753W        W80282   8.239  22.300   0.079
 8754W        W80283  38.871  19.726  13.293
 8755W        W80284  18.902  42.986  13.590
 8756W        W80285   4.972  23.635  10.652
 8757W        W80286  12.132  34.099   0.996
 8758W        W80287  36.030  29.014   4.609
 8759W        W80288   3.500   0.910   1.658
 8760W        W80289   1.436   2.882  14.748
 8761W        W80290  26.511  23.077  12.053
 8762W        W80291  27.119  29.867   1.872
 8763W        W80292  31.591  11.036   2.159
 8764W        W80293  28.078  43.214  10.392
 8765W        W80294  37.596  26.384   3.690
 8766W        W80295   5.184   6.280  13.001
 8767W        W80296   5.467  34.993   4.160
 8768W        W80297   9.875  40.314  14.851
 8769W        W80298   8.820  35.783  13.132
 8770W        W80299  31.991   6.971  12.470
 8771W        W80300   8.416   8.875  13.946
 8772W        W80301  43.442  39.509   0.371
 8773W        W80302  39.430  44.248   3.742
 8774W        W80303  13.286  10.246   3.636
 8775W        W80304  37.384  28.596  10.702
 8776W        W80305  13.749   4.291  13.887
 8777W        W80306  41.853  29.624  14.424
 8778W        W80307   4.995  33.109   0.848
 8779W        W80308  21.050  31.613  12.395
 8780W        W80309  42.917   7.744   1.417
 8781W        W80310  27.725  40.842  14.817
 8782W        W80311   0.003  11.025   2.680
 8783W        W80312   0.556  13.595  13.104
 8784W        W80313  21.643  15.344  13.598
 8785W        W80314  12.226  21.759   1.142
 8786W        W80315  43.960   8.434   3.729
 8787W        W80316  25.187  29.985   1.676
 8788W        W80317  42.801  12.598  13.025
 8789W        W80318  33.579  32.711  11.005
 8790W        W80319   7.116  43.720   1.929
 8791W        W80320  43.940  17.737   3.350
 8792W        W80321  25.412  13.338  14.785
 8793W        W80322  25.032  42.489  12.968
 8794W        W80323  41.680  21.891   4.115
 8795W        W80324  20.651  27.757   9.865
 8796W        W80325   7.653  21.033   1.899
 8797W        W80326  14.544  20.129  10.246
 8798W        W80327  37.282   5.606   0.252
 8799W        W80328   1.805  21.419   2.264
 8800W        W80329  19.439  24.962  13.524
 8801W        W80330  17.081  30.417  12.104
 8802W        W80331   6.066  15.363   1.658
 8803W        W80332  44.007  33.628  13.120
 8804W        W80333  38.588   1.303  14.800
 8805W        W80334  41.023  25.762   1.323
 8806W        W80335  16.836  27.725   3.132
 8807W        W80336  21.770  39.589   1.822
 8808W        W80337   1.898  40.279  13.527
 8809W        W80338  18.729  17.686   3.665
 8810W        W80339  21.142  28.046  10.743
 8811W        W80340  20.979  22.270  14.028
 8812W        W80341  38.519  14.087   4.090
 8813W        W80342  36.499  44.412  14.204
 8814W        W80343  22.413  38.202   4.232
 8815W        W80344  40.325  15.992   4.835
 8816W        W80345  15.196  39.249  11.433
 8817W        W80346   9.083  13.659  13.512
 8818W        W80347  17.091  17.912  11.793
 8819W        W80348  13.321  25.122   0.456
 8820W        W80349  42.344  21.672  14.988
 8821W        W80350  41.871   9.478  12.759
 8822W        W80351  27.448  32.841  11.591
 8823W        W80352  39.185  31.435  12.504
 8824W        W80353   6.730   1.177  14.060
 8825W        W80354  12.244  12.332  14.736
 8826W        W80355   8.923  41.585   1.469
 8827W        W80356  39.285  10.248  14.816
 8828W        W80357  16.218  17.244   4.234
 8829W        W80358  13.166  15.762  14.455
 8830W        W80359  21.461  26.587   1.859
 8831W        W80360   4.715  10.490   1.525
 8832W        W80361  35.324  13.652  10.596
 8833W        W80362   0.895  19.952  10.970
 8834W        W80363  19.804  13.530  13.375
 8835W        W80364  35.528  43.479   1.790
 8836W        W80365  23.445  43.506   1.232
 8837W        W80366  24.625  35.613   4.623
 8838W        W80367   5.654  23.523   4.299
 8839W        W80368  36.308  15.101   4.268
 8840W        W80369   6.961  28.403  14.338
 8841W        W80370  10.652   5.174  11.125
 8842W        W80371  42.945  38.055   1.861
 8843W        W80372  31.685   1.199  11.131
 8844W        W80373  31.069  25.821  11.154
 8845W        W80374  10.857  26.679  12.003
 8846W        W80375  33.564  24.604   1.815
 8847W        W80376  41.571   5.687   4.212
 8848W        W80377  38.530  41.525  11.435
 8849W        W80378  29.141  20.199  13.790
 8850W        W80379   3.758  34.409   0.822
 8851W        W80380   1.430  19.333   4.104
 8852W        W80381  22.272  30.931  12.564
 8853W        W80382  37.573   9.720  11.067
 8854W        W80383   4.918   2.009  14.803
 8855W        W80384   2.097  25.040  13.056
 8856W        W80385  11.161  30.438  10.748
 8857W        W80386  37.410  33.379   1.707
 8858W        W80387   0.089  26.511   2.271
 8859W        W80388  33.615   9.714   0.814
 8860W        W80389   7.791  27.743   1.647
 8861W        W80390  17.309  11.287  12.854
 8862W        W80391  36.900  31.433   1.274
 8863W        W80392   7.370  10.606  12.966
 8864W        W80393  13.086   1.507   4.050
 8865W        W80394   8.840   6.406  13.497
 8866W        W80395  28.680   2.210   1.612
 8867W        W80396  37.916  18.257   2.884
 8868W        W80397  36.573  40.990  14.845
 8869W        W80398  19.123  19.095  12.000
 8870W        W80399  25.677  12.151   4.587
 8871W        W80400  26.532  34.828   3.151
 8872W        W80401  30.089  35.330   0.859
 8873W        W80402  16.694  18.737  12.096
 8874W        W80403  17.697  16.010   2.401
 8875W        W80404  29.965  37.492   1.873
 8876W        W80405   5.978   4.895   1.192
 8877W        W80406  38.611  14.846   4.763
 8878W        W80407  37.125  12.862   3.252
 8879W        W80408  20.149  18.679  13.308
 8880W        W80409  21.532  27.882  11.049
 8881W        W80410  32.427   3.659  14.322
 8882W        W80411   7.769  18.541   3.302
 8883W        W80412  16.173  38.912  14.475
 8884W        W80413  22.474  42.319   4.457
 8885W        W80414  30.647   8.313   2.745
 8886W        W80415  10.406   0.150  14.170
 8887W        W80416  14.274  17.274  12.403
 8888W        W80417  17.682  10.117   4.077
 8889W        W80418   5.655  34.133   1.748
 8890W        W80419   5.678  35.930  11.718
 8891W        W80420  22.274  16.655   3.658
 8892W        W80421  43.194  17.591   0.437
 8893W        W80422   3.333  38.222  14.525
 8894W        W80423  36.723   8.717  14.422
 8895W        W80424  31.965  32.910   4.559
 8896W        W80425  32.019   7.240  12.921
 8897W        W80426  30.086  16.601   3.230
 8898W        W80427  14.062  21.677   1.800
 8899W        W80428  22.183  42.427   3.216
 8900W        W80429  19.046  40.660  12.731
 8901W        W80430  29.409  10.788  13.811
 8902W        W80431   2.106   6.790  11.797
 8903W        W80432  14.713  35.682  14.367
 8904W        W80433  32.894  22.375   0.825
 8905W        W80434  44.255  33.579   0.387
 8906W        W80435  43.178   3.578   4.623
 8907W        W80436   1.751  10.731  11.873
 8908W        W80437  29.552  17.844   2.346
 8909W        W80438  23.519  10.037  11.697
 8910W        W80439  38.289  34.822   4.904
 8911W        W80440   8.369   5.323   4.977
 8912W        W80441  18.711  43.726   0.540
 8913W        W80442  35.345  26.949   0.339
 8914W        W80443  23.547   2.889  14.317
 8915W        W80444  25.419   7.539   3.205
 8916W        W80445  10.529  11.018  11.121
 8917W        W80446  13.145  31.374   2.385
 8918W        W80447   6.391  40.594   0.233
 8919W        W80448  41.526  39.334  12.594
 8920W        W80449  26.133  16.192   2.177
 8921W        W80450  20.056  40.266   2.484
 8922W        W80451   2.115  10.635   2.202
 8923W        W80452  27.006  15.927   2.228
 8924W        W80453   3.401  36.053  14.068
 8925W        W80454  21.497  40.050   3.630
 8926W        W80455   8.669   2.186  12.063
 8927W        W80456  31.865  15.080   3.162
 8928W        W80457  20.717  43.728  11.894
 8929W        W80458   9.421   1.431  10.569
 8930W        W80459  23.612  20.111  12.807
 8931W        W80460   6.731  38.497   0.418
 8932W        W80461  28.459  36.361  14.717
 8933W        W80462  16.820  34.419  12.412
 8934W        W80463  28.434   6.913  14.436
 8935W        W80464  42.829  40.601   4.065
 8936W        W80465  25.008  34.920  12.557
 8937W        W80466  13.309  13.349   2.703
 8938W        W80467  14.583  29.602  10.610
 8939W        W80468  14.617   0.257   0.351
 8940W        W80469   1.110   2.757  11.753
 8941W        W80470   8.674  33.865   3.637
 8942W        W80471   0.998  12.693  10.658
 8943W        W80472  13.186  31.541   1.031
 8944W        W80473  42.223  32.406  14.184
 8945W        W80474  18.621  31.859  12.131
 8946W        W80475  21.337   7.137  13.869
 8947W        W80476   2.273  12.789  12.701
 8948W        W80477  43.351  42.935   2.654
 8949W        W80478  16.738  39.137  14.295
 8950W        W80479   7.885  26.054  13.503
 8951W        W80480  26.443  30.369  14.310
 8952W        W80481  11.547  35.872  13.450
 8953W        W80482  17.879  38.706  11.415
 8954W        W80483  11.056  44.701   1.358
 8955W        W80484  13.764  34.533  14.736
 8956W        W80485  19.629  29.541  13.258
 8957W        W80486   8.872  22.605   4.119
 8958W        W80487  32.604   0.489  10.179
 8959W        W80488  18.580  40.576   3.348
 8960W        W80489  14.592  39.015   0.241
 8961W        W80490   5.334   1.453   1.938
 8962W        W80491  40.270  36.658  11.132
 8963W        W80492  37.824  22.779  12.573
 8964W        W80493  21.196  41.440  14.567
 8965W        W80494  17.236   9.870  10.564
 8966W        W80495  40.511  24.280  14.949
 8967W        W80496  27.767  21.676   4.354
 8968W        W80497  42.986  15.267  11.168
 8969W        W80498  36.126  43.966   2.663
 8970W        W80499  24.318  30.541   1.739
 8971W        W80500  13.129   6.363   2.238
 8972W        W80501   0.458  23.275   1.262
 8973W        W80502  18.080  19.588  14.124
 8974W        W80503   0.922  25.642  10.427
 8975W        W80504   4.393  38.058   2.563
 8976W        W80505  21.249  26.194  11.240
 8977W        W80506   6.428  39.141  10.884
 8978W        W80507  30.136  17.621  11.191
 8979W        W80508  44.307  41.680   4.931
 8980W        W80509  44.301  36.951   0.866
 8981W        W80510  35.603  12.991  13.451
 8982W        W80511  33.510  17.522   3.277
 8983W        W80512  43.117  19.737  10.779
 8984W        W80513  42.756   4.531   4.538
 8985W        W80514  42.798  11.121  12.390
 8986W        W80515  42.911  29.632  12.441
 8987W        W80516  27.510  38.152   1.714
 8988W        W80517  42.876  42.084   0.816
 8989W        W80518  27.617  28.650  14.393
 8990W        W80519  40.140  42.990   4.333
 8991W        W80520  23.116  14.094  13.042
 8992W        W80521   2.304  33.415  12.583
 8993W        W80522  28.986  17.874  14.968
 8994W        W80523  16.224  33.073   1.693
 8995W        W80524   4.211  32.915  14.497
 8996W        W80525   2.971  41.474   1.564
 8997W        W80526   2.465  13.834   3.578
 8998W        W80527   4.155  44.165  13.183
 8999W        W80528  34.939   8.845  10.712
 9000W        W80529   8.359  16.639  14.789
 9001W        W80530  22.241  43.821   3.697
 9002W        W80531  29.047   7.458  11.602
 9003W        W80532   5.248  15.772  14.356
 9004W        W80533  41.336  31.393  13.097
 9005W        W80534  32.966  16.074  13.483
 9006W        W80535  22.659  43.750   1.954
 9007W        W80536   0.898   0.747  14.829
 9008W        W80537  42.012  31.416  11.179
 9009W        W80538   3.828   8.912   4.990
 9010W        W80539   8.925  14.551   2.550
 9011W        W80540  41.364  26.917  13.018
 9012W        W80541  34.201   4.245  10.358
 9013W        W80542   9.928   4.552  13.847
 9014W        W80543  37.897  41.893  14.371
 9015W        W80544  39.980  26.427  14.204
 9016W        W80545  38.510  41.326   3.219
 9017W        W80546  17.993  42.863   4.394
 9018W        W80547  10.895  40.606   4.661
 9019W        W80548  14.174  16.563   1.680
 9020W        W80549  17.838  10.391   4.502
 9021W        W80550  12.359  35.413   0.326
 9022W        W80551   9.129  39.566   0.878
 9023W        W80552  29.434  32.457  11.579
 9024W        W80553  40.552  11.780  13.324
 9025W        W80554  41.861  19.727  14.383
 9026W        W80555  38.325  43.030  10.303
 9027W        W80556   5.258  21.272   5.175
 9028W        W80557  21.084  20.492  11.898
 9029W        W80558  16.654  36.050   2.709
 9030W        W80559  35.552  27.074  10.640
 9031W        W80560  34.306  25.736  13.521
 9032W        W80561   6.634  32.888  14.346
 9033W        W80562   4.713  14.667   2.555
 9034W        W80563  12.913   5.630  10.341
 9035W        W80564  31.593  38.995  10.652
 9036W        W80565  26.780  12.258  14.792
 9037W        W80566  14.393  34.920   1.915
 9038W        W80567  22.962   0.817   3.318
 9039W        W80568  17.733  29.995  12.324
 9040W        W80569   6.952   9.704  12.155
 9041W        W80570  26.577  10.757   1.985
 9042W        W80571  21.977  19.892   4.849
 9043W        W80572   7.497  42.306  14.006
 9044W        W80573   8.707  29.480   1.584
 9045W        W80574  22.160  44.300   3.393
 9046W        W80575  32.670   9.404  10.677
 9047W        W80576  20.311  35.963   1.830
 9048W        W80577  36.459  39.775  14.757
 9049W        W80578  16.478   6.107   3.644
 9050W        W80579  14.758  20.187   0.743
 9051W        W80580   8.738  22.380  11.471
 9052W        W80581   0.922  10.001  10.265
 9053W        W80582  28.044   6.356  10.038
 9054W        W80583  26.035  32.455   2.791
 9055W        W80584  14.682   4.379  10.393
 9056W        W80585  15.821  24.195   0.272
 9057W        W80586  13.703  16.570  10.679
 9058W        W80587  40.840  30.246  13.481
 9059W        W80588  10.716  24.570   3.633
 9060W        W80589  38.894  20.676  10.240
 9061W        W80590  29.207   1.508  10.899
 9062W        W80591  23.265   8.267  11.541
 9063W        W80592  23.680  35.428   3.874
 9064W        W80593  20.963   1.875   1.591
 9065W        W80594  41.059  43.077  11.067
 9066W        W80595  42.057  14.917  14.284
 9067W        W80596  33.932  39.762   2.259
 9068W        W80597  10.565  23.010   3.433
 9069W        W80598  36.397  16.678   4.853
 9070W        W80599  31.244  37.982  14.358
 9071W        W80600   1.347  36.015  13.862
 9072W        W80601  30.758  19.198  11.865
 9073W        W80602  18.618  18.279   2.798
 9074W        W80603   7.684  11.136   3.775
 9075W        W80604   6.601  31.616   0.374
 9076W        W80605   8.107   8.557   3.161
 9077W        W80606  39.574  34.475   2.294
 9078W        W80607  15.827  10.849  10.501
 9079W        W80608  10.427  33.157   4.173
 9080W        W80609  35.784  12.192  14.001
 9081W        W80610  10.492  37.502   0.829
 9082W        W80611  14.242   3.800   4.342
 9083W        W80612  31.191  30.098  13.610
 9084W        W80613  30.959   5.257  14.042
 9085W        W80614  26.130  25.930  14.731
 9086W        W80615  28.488   6.791   1.453
 9087W        W80616  36.377  40.243   2.789
 9088W        W80617  41.502  16.514  14.636
 9089W        W80618  16.807  43.229  12.411
 9090W        W80619  17.673  40.775   1.867
 9091W        W80620   2.803   2.069   1.835
 9092W        W80621  16.685   7.594  10.386
 9093W        W80622  27.557  33.168  11.210
 9094W        W80623  29.509  22.945  14.323
 9095W        W80624   3.836  27.648  11.672
 9096W        W80625  39.120  25.931  12.514
 9097W        W80626  37.256  29.653  13.890
 9098W        W80627  29.665  33.577  11.107
 9099W        W80628  17.260  14.820  11.644
 9100W        W80629  36.654  28.507  13.486
 9101W        W80630  34.023  13.489  11.825
 9102W        W80631   2.005  18.045  12.911
 9103W        W80632   6.533   0.303  12.969
 9104W        W80633  26.106  14.559   1.267
 9105W        W80634  38.408  41.495  10.441
 9106W        W80635  11.370   8.787  12.981
 9107W        W80636  34.862  22.550  10.682
 9108W        W80637  26.206  15.067   1.315
 9109W        W80638  26.458  25.487  11.521
 9110W        W80639  41.075   9.270   1.465
 9111W        W80640  29.610  12.824  14.890
 9112W        W80641   2.471  14.348   3.622
 9113W        W80642  27.116  37.335   1.351
 9114W        W80643  19.925  17.737  11.546
 9115W        W80644  17.883  37.294  11.628
 9116W        W80645   9.165  30.537  10.881
 9117W        W80646  41.260  10.662   4.222
 9118W        W80647  41.473  39.412  13.476
 9119W        W80648  40.418   6.193  14.776
 9120W        W80649  43.810   2.414   4.576
 9121W        W80650  20.194   4.882   3.816
 9122W        W80651  31.160  42.493   2.185
 9123W        W80652   0.903  12.628  12.476
 9124W        W80653  18.234  31.053  11.185
 9125W        W80654  23.536  30.233  11.104
 9126W        W80655  28.700   7.231   2.961
 9127W        W80656  21.519  22.104  13.987
 9128W        W80657   7.956  28.642  14.543
 9129W        W80658  42.285  36.444  11.246
 9130W        W80659  34.823  33.362  11.087
 9131W        W80660   7.278  30.189   1.858
 9132W        W80661  42.970  34.737  13.038
 9133W        W80662   5.531   3.884   3.303
 9134W        W80663  38.981  21.171   0.790
 9135W        W80664  21.904   9.418   2.395
 9136W        W80665   9.470  30.150  14.627
 9137W        W80666  29.870  17.114   1.100
 9138W        W80667  41.119  10.726   2.161
 9139W        W80668  14.579   1.212   4.228
 9140W        W80669   7.505  43.374   1.995
 9141W        W80670  26.166  28.677   1.349
 9142W        W80671  39.615   5.883   0.293
 9143W        W80672   8.346  19.150   2.151
 9144W        W80673  25.707  22.681   4.534
 9145W        W80674   3.879  15.622  13.944
 9146W        W80675  26.275  15.510  14.156
 9147W        W80676  35.849   9.631  12.416
 9148W        W80677   7.809  37.210  12.960
 9149W        W80678  21.623  36.546  14.917
 9150W        W80679  13.639  29.196  13.758
 9151W        W80680   3.431  16.609  11.994
 9152W        W80681   7.886  25.693   2.210
 9153W        W80682   2.812  19.690   1.817
 9154W        W80683  17.636  34.113   0.068
 9155W        W80684  27.645  36.318   3.329
 9156W        W80685  27.564  22.428  13.588
 9157W        W80686  40.374  26.358  10.677
 9158W        W80687  37.967  13.606   3.737
 9159W        W80688  35.103  23.762   1.842
 9160W        W80689  37.411  28.796  14.019
 9161W        W80690  22.691  42.296  14.478
 9162W        W80691   9.515  34.349  13.220
 9163W        W80692   4.630   8.850   2.617
 9164W        W80693  35.317  19.311  11.102
 9165W        W80694  28.680   5.838  10.837
 9166W        W80695  13.309  36.629  11.593
 9167W        W80696  24.002  11.900  10.314
 9168W        W80697  26.737   5.737   0.804
 9169W        W80698  44.747   1.563   1.613
 9170W        W80699   2.452  38.753  13.431
 9171W        W80700   1.964  11.910  12.082
 9172W        W80701   8.327  20.760   4.902
 9173W        W80702  32.460  12.209  12.711
 9174W        W80703  37.103  42.981   0.733
 9175W        W80704  11.184  17.289   0.365
 9176W        W80705   7.362   2.904   3.703
 9177W        W80706  14.599   9.902  14.701
 9178W        W80707  42.370  18.494   0.969
 9179W        W80708  35.821  36.496  11.223
 9180W        W80709   4.448  34.567  10.756
 9181W        W80710  36.120  22.955   3.654
 9182W        W80711  41.542   9.858  12.077
 9183W        W80712  19.768   4.405   0.760
 9184W        W80713   8.861   2.019   1.419
 9185W        W80714  44.299  22.809   3.160
 9186W        W80715  21.705  17.598  11.746
 9187W        W80716  26.707  17.684  11.128
 9188W        W80717   8.894  41.812  13.025
 9189W        W80718  33.748  32.965  12.412
 9190W        W80719   2.663  36.360   0.720
 9191W        W80720  28.994   1.114   3.633
 9192W        W80721  21.206  38.325   3.586
 9193W        W80722  32.130   5.891  13.261
 9194W        W80723  16.452   9.735   1.130
 9195W        W80724   5.892  19.318   1.248
 9196W        W80725  10.720  32.894  12.879
 9197W        W80726  42.428   1.652  10.636
 9198W        W80727  35.391  42.833   3.667
 9199W        W80728  27.466  20.295  14.874
 9200W        W80729  13.184   3.093   2.622
 9201W        W80730   8.954   2.066   3.901
 9202W        W80731  33.469  29.919  11.206
 9203W        W80732  31.857  37.594  11.780
 9204W        W80733  11.062  22.022   3.813
 9205W        W80734   1.375  24.274   0.419
 9206W        W80735  31.229  27.171  14.334
 9207W        W80736  35.573  41.004  12.055
 9208W        W80737  13.316   3.905  14.467
 9209W        W80738  27.195  37.063   3.834
 9210W        W80739  29.986  13.116  12.033
 9211W        W80740  22.406  21.527   3.240
 9212W        W80741   1.296   1.541   2.536
 9213W        W80742   1.996   8.875   3.074
 9214W        W80743  19.763   3.424  11.160
 9215W        W80744   7.665  30.144   2.233
 9216W        W80745  31.520  37.222   0.055
 9217W        W80746  23.766  38.883   1.383
 9218W        W80747  29.402  28.525   3.615
 9219W        W80748   8.198  33.054   3.819
 9220W        W80749  22.398  21.562  13.374
 9221W        W80750   9.210  29.738   4.946
 9222W        W80751  13.085   7.634  12.117
 9223W        W80752  25.574  11.861  11.578
 9224W        W80753  17.684  40.368  11.509
 9225W        W80754   0.244  40.507   4.745
 9226W        W80755  15.794  22.511   2.616
 9227W        W80756   2.964  15.070  11.749
 9228W        W80757  35.849  35.296  13.617
 9229W        W80758   6.806  44.823   1.683
 9230W        W80759   6.223  24.700   1.598
 9231W        W80760  23.107  41.785  12.126
 9232W        W80761   0.260   1.131  13.557
 9233W        W80762   6.977  19.404   3.626
 9234W        W80763   1.936   0.273  14.567
 9235W        W80764  13.669  23.183   1.849
 9236W        W80765  26.730  38.661  13.314
 9237W        W80766  34.526  36.431   3.213
 9238W        W80767  12.561  35.070   0.839
 9239W        W80768   7.645  41.517  13.567
 9240W        W80769  16.260  35.390  13.468
 9241W        W80770  41.011  38.001  13.362
 9242W        W80771  15.975  14.167  14.498
 9243W        W80772  29.067  15.704   3.637
 9244W        W80773  39.064  35.909   3.742
 9245W        W80774  36.808  24.070  11.598
 9246W        W80775  27.104  31.666   0.863
 9247W        W80776   7.812  36.181   1.657
 9248W        W80777  17.777  10.022  14.975
 9249W        W80778  22.459   4.870  13.885
 9250W        W80779  20.595  24.266  11.994
 9251W        W80780  29.308   1.910  14.997
 9252W        W80781  15.238   6.010   2.550
 9253W        W80782  29.948  32.548   0.498
 9254W        W80783  32.575  43.008  12.823
 9255W        W80784  44.297  13.234  14.403
 9256W        W80785  17.093  44.097   2.901
 9257W        W80786  29.264  20.699  14.009
 9258W        W80787  38.424  32.619   1.672
 9259W        W80788  35.283  38.509   0.718
 9260W        W80789  16.655  37.137   2.702
 9261W        W80790  22.994  42.274   1.230
 9262W        W80791  18.654  27.459   5.254
 9263W        W80792   1.518  42.373  14.986
 9264W        W80793  18.580   3.183   5.020
 9265W        W80794  30.499   6.697   0.239
 9266W        W80795  22.533  40.922  14.969
 9267W        W80796   4.813   0.226  14.428
 9268W        W80797  43.300  42.954  12.105
 9269W        W80798   1.742  18.073  12.455
 9270W        W80799  18.960   5.828  11.238
 9271W        W80800   3.717  25.527  11.705
 9272W        W80801   7.505  22.319   4.552
 9273W        W80802  31.903   3.903  10.773
 9274W        W80803  30.976  22.089  12.853
 9275W        W80804  16.820  18.070  10.394
 9276W        W80805  10.775  16.742  13.846
 9277W        W80806  32.975  10.844   3.138
 9278W        W80807  30.741  24.562  10.900
 9279W        W80808  18.788  32.521  12.304
 9280W        W80809  42.875  23.283   2.433
 9281W        W80810  31.093  32.588   2.755
 9282W        W80811  21.589  44.442   0.903
 9283W        W80812  26.421  43.830  11.618
 9284W        W80813   8.384  36.513   3.699
 9285W        W80814  41.141  11.702  14.988
 9286W        W80815   1.342  12.879  12.593
 9287W        W80816  20.273   7.223  11.309
 9288W        W80817  12.377   7.185  14.943
 9289W        W80818  16.786  41.549  10.612
 9290W        W80819  25.721  13.229   1.885
 9291W        W80820  12.762  44.707   1.181
 9292W        W80821   4.236  15.577  14.448
 9293W        W80822  32.940  15.537  13.541
 9294W        W80823   7.811  32.796   1.478
 9295W        W80824   8.736  38.932   4.549
 9296W        W80825  10.239  31.138   4.152
 9297W        W80826  24.087   0.381  11.887
 9298W        W80827   4.646   9.686  13.666
 9299W        W80828  33.255   2.659   1.834
 9300W        W80829  33.814  33.386   4.700
 9301W        W80830  22.704   6.260   3.707
 9302W        W80831  27.587  13.303  12.546
 9303W        W80832  35.112  33.651  12.499
 9304W        W80833  31.449  22.901  14.411
 9305W        W80834  26.574   3.530  10.473
 9306W        W80835  14.697  26.467   2.766
 9307W        W80836   8.711   7.186  11.605
 9308W        W80837  35.388  40.035  12.466
 9309W        W80838  43.519   1.191   2.168
 9310W        W80839   5.198  32.164   0.786
 9311W        W80840  35.982   8.240   1.129
 9312W        W80841  30.103   1.817   1.357
 9313W        W80842  35.545  33.956   1.415
 9314W        W80843  32.064   7.982  12.372
 9315W        W80844  14.374  29.516   2.818
 9316W        W80845  28.754  17.138   4.459
 9317W        W80846  27.834  32.685   4.086
 9318W        W80847  35.400  39.478   0.052
 9319W        W80848  10.848   7.996   3.099
 9320W        W80849  27.025   4.017   4.213
 9321W        W80850   1.696  35.768  10.864
 9322W        W80851   4.597  35.030  11.832
 9323W        W80852  33.975  10.486   9.994
 9324W        W80853  16.559  16.846  12.442
 9325W        W80854  20.953  27.770  11.611
 9326W        W80855  43.400   8.840   0.905
 9327W        W80856  28.555  19.604  13.041
 9328W        W80857  40.112  13.619  14.305
 9329W        W80858  44.982  36.780  14.526
 9330W        W80859   5.683   6.051  13.282
 9331W        W80860  15.444  17.177   0.928
 9332W        W80861  31.057  24.663  14.040
 9333W        W80862  35.781  37.006  12.127
 9334W        W80863  22.580  29.085  13.533
 9335W        W80864   5.434  34.421  12.904
 9336W        W80865  43.362   2.691   2.754
 9337W        W80866  16.609  16.188  13.009
 9338W        W80867  17.625  25.717   1.656
 9339W        W80868  43.320  27.661  12.474
 9340W        W80869  27.697  11.434   1.310
 9341W        W80870  15.950  44.902   4.589
 9342W        W80871  39.084  11.586   0.583
 9343W        W80872   0.734  25.308  11.578
 9344W        W80873  29.894  23.600  13.386
 9345W        W80874  19.805  28.436   4.261
 9346W        W80875   1.563  31.609   1.857
 9347W        W80876  21.907  38.370   2.364
 9348W        W80877   2.234  25.927  13.034
 9349W        W80878  42.935  28.539   0.190
 9350W        W80879  27.413  10.285   4.689
 9351W        W80880  36.533  39.244   4.723
 9352W        W80881  37.174  36.999   2.845
 9353W        W80882  44.354  19.854  10.735
 9354W        W80883   1.628  11.356   3.859
 9355W        W80884  42.478  23.976  14.042
 9356W        W80885  35.414   9.645   2.752
 9357W        W80886  40.791  44.490   0.563
 9358W        W80887  30.419  32.359   4.318
 9359W        W80888  38.063  20.009  12.224
 9360W        W80889  18.037   3.798   2.661
 9361W        W80890  15.033  23.089   4.140
 9362W        W80891  17.267  29.902   3.680
 9363W        W80892  23.302  42.382  13.389
 9364W        W80893  43.345  16.661   0.159
 9365W        W80894  11.782  39.405   0.328
 9366W        W80895   5.673  18.832   1.205
 9367W        W80896  24.345  40.577  12.515
 9368W        W80897  28.025   1.998  10.460
 9369W        W80898  43.900  30.006   1.685
 9370W        W80899  37.329  24.813  11.476
 9371W        W80900  40.500  10.776  13.589
 9372W        W80901  43.104  39.542  14.957
 9373W        W80902  43.363  29.874   1.528
 9374W        W80903  38.527  23.239  13.519
 9375W        W80904  18.450  28.114  13.520
 9376W        W80905  32.893  37.149   0.876
 9377W        W80906  27.289  39.091   0.920
 9378W        W80907  31.445  40.015   0.261
 9379W        W80908  15.363   3.492   5.035
 9380W        W80909  20.491  23.501  14.055
 9381W        W80910  31.374  28.762   1.838
 9382W        W80911  35.094  40.981   2.252
 9383W        W80912  24.187  31.150  11.158
 9384W        W80913   8.624  24.576  12.385
 9385W        W80914  40.819  40.721   3.298
 9386W        W80915  40.327  36.767   2.756
 9387W        W80916  40.477  20.087  13.024
 9388W        W80917   5.807  32.256   0.092
 9389W        W80918  11.374  15.706  13.864
 9390W        W80919  37.515   9.217   1.848
 9391W        W80920  33.987   6.187   4.352
 9392W        W80921  23.119  10.703  14.267
 9393W        W80922  44.392   4.931   4.859
 9394W        W80923  28.391  37.714  11.078
 9395W        W80924   2.909  24.594   0.311
 9396W        W80925  40.544  26.402   0.866
 9397W        W80926   9.760   6.199  13.496
 9398W        W80927  26.538   2.645  12.571
 9399W        W80928  38.882   0.723   1.421
 9400W        W80929   4.232  22.119  12.481
 9401W        W80930  41.059  33.083   3.806
 9402W        W80931   9.845  29.577   2.166
 9403W        W80932  33.405   8.904  10.719
 9404W        W80933  23.164  35.431   3.731
 9405W        W80934  26.056  42.165   2.752
 9406W        W80935  18.986  23.648   0.701
 9407W        W80936  26.906  20.927   1.279
 9408W        W80937  42.885  24.259   0.337
 9409W        W80938  16.950  11.813  13.506
 9410W        W80939  28.227  12.749   4.060
 9411W        W80940   0.990  20.058   1.392
 9412W        W80941  12.813  30.594  12.623
 9413W        W80942   6.944  20.675   0.526
 9414W        W80943   2.295  25.131   4.647
 9415W        W80944  38.295  34.597   1.766
 9416W        W80945   3.089  25.558  14.786
 9417W        W80946  24.571  41.014  13.382
 9418W        W80947  17.227   0.988   1.374
 9419W        W80948  14.149   3.789  14.841
 9420W        W80949  37.077  25.200  12.440
 9421W        W80950  36.490  41.187   2.893
 9422W        W80951  21.267  24.905  13.478
 9423W        W80952   7.964   2.169   1.240
 9424W        W80953   3.564  18.636   4.287
 9425W        W80954  13.162  23.267  11.106
 9426W        W80955  36.755  13.572  14.150
 9427W        W80956   7.444  36.060   0.978
 9428W        W80957  20.377  11.814   1.708
 9429W        W80958   4.636  12.762   3.205
 9430W        W80959  14.307  15.543  12.247
 9431W        W80960   8.224   6.628  11.131
 9432W        W80961  41.649  23.968   0.061
 9433W        W80962  14.325  38.131  12.562
 9434W        W80963  26.602   8.416   3.690
 9435W        W80964  16.272  41.607  12.726
 9436W        W80965   5.017  41.384  14.002
 9437W        W80966  33.686  41.324   1.626
 9438W        W80967  20.997  30.581   1.694
 9439W        W80968  29.007  38.328   2.229
 9440W        W80969  30.589  16.338  13.471
 9441W        W80970   6.473  42.299  12.189
 9442W        W80971  22.681  28.357  13.621
 9443W        W80972  21.144  29.063   4.308
 9444W        W80973   1.840  40.755   5.018
 9445W        W80974  26.205  40.465   2.271
 9446W        W80975   8.379   9.311   4.001
 9447W        W80976  25.238  34.120   4.320
 9448W        W80977  37.244  13.439  14.168
 9449W        W80978  31.169  18.225  11.576
 9450W        W80979  40.306  34.186  11.564
 9451W        W80980  22.993  16.909  10.736
 9452W        W80981   4.259  38.797  14.414
 9453W        W80982  21.232  44.809   0.806
 9454W        W80983  34.965  36.130  10.996
 9455W        W80984  17.513  23.140   1.359
 9456W        W80985  29.906  23.573   1.837
 9457W        W80986  32.750  23.444   0.903
 9458W        W80987   7.125   8.359  13.986
 9459W        W80988  27.315  33.179   3.689
 9460W        W80989  40.887  17.531   4.218
 9461W        W80990  31.997  42.761   2.721
 9462W        W80991  30.571  18.736  12.978
 9463W        W80992  43.247  33.551  14.046
 9464W        W80993  28.523  29.345   1.316
 9465W        W80994  14.367  37.615  12.393
 9466W        W80995  16.749  28.011  10.428
 9467W        W80996  39.530  42.499  14.125
 9468W        W80997   6.386  20.585   3.188
 9469W        W80998  43.492  18.868  12.683
 9470W        W80999  30.096  34.863   1.703
 9471W        W81000  20.179  20.242   3.459
 9472W        W81001  10.766  21.571  14.302
 9473W        W81002  35.527   8.603  11.748
 9474W        W81003   2.458  12.972  14.097
 9475W        W81004  16.898  16.763   4.581
 9476W        W81005  39.264   7.092   0.248
 9477W        W81006  43.629  29.025   2.329
 9478W        W81007  19.675   9.051   3.033
 9479W        W81008   2.784  29.105   2.124
 9480W        W81009  28.627  42.170   1.691
 9481W        W81010  24.531  40.752  13.826
 9482W        W81011   0.846  18.400  14.364
 9483W        W81012  44.798  12.618   2.793
 9484W        W81013  24.233  33.087  14.423
 9485W        W81014  41.300  12.148  11.068
 9486W        W81015  36.766  40.023  11.020
 9487W        W81016   8.978  27.662  13.405
 9488W        W81017  27.143  21.053   3.943
 9489W        W81018  31.905   4.216  12.760
 9490W        W81019  15.244  27.456  14.887
 9491W        W81020  23.058   1.957  10.599
 9492W        W81021  35.450  43.858   4.777
 9493W        W81022  20.714  16.600   4.795
 9494W        W81023   0.346   6.362  12.738
 9495W        W81024   9.442  18.595   1.630
 9496W        W81025  35.969  16.720   4.566
 9497W        W81026  42.373  24.735   0.999
 9498W        W81027  16.359  12.704   2.190
 9499W        W81028  35.282   6.804  11.167
 9500W        W81029  21.502  40.970  13.872
 9501W        W81030   4.509  25.694   1.705
 9502W        W81031  26.598   5.767  14.856
 9503W        W81032  15.191  25.616   3.252
 9504W        W81033  18.107  42.496  12.553
 9505W        W81034   8.752   8.614   1.994
 9506W        W81035  41.254  10.276  12.254
 9507W        W81036  20.475  23.564   1.378
 9508W        W81037  11.669  29.540  11.526
 9509W        W81038  10.870  40.507   4.119
 9510W        W81039  24.167  14.530  12.040
 9511W        W81040  15.061  24.048   0.881
 9512W        W81041  32.909  35.500   4.278
 9513W        W81042  39.824  19.649   3.576
 9514W        W81043   8.525  31.299   0.401
 9515W        W81044  31.335  33.922   3.248
 9516W        W81045  31.957  22.973  14.422
 9517W        W81046  16.209   4.186  11.255
 9518W        W81047  40.590  18.719  14.701
 9519W        W81048  21.158   8.625   4.198
 9520W        W81049  40.344  28.808   1.234
 9521W        W81050  34.499   7.399  13.933
 9522W        W81051  11.592   7.218   3.591
 9523W        W81052  24.294  26.504  11.586
 9524W        W81053  20.534   6.307   0.928
 9525W        W81054  14.243  41.480  14.060
 9526W        W81055  10.731   3.374  10.106
 9527W        W81056  37.481  42.208  11.498
 9528W        W81057   5.442   0.092   1.689
 9529W        W81058   3.509  37.420   2.422
 9530W        W81059   8.814  21.189  12.080
 9531W        W81060   9.894  29.000   4.694
 9532W        W81061  11.400  37.710   2.681
 9533W        W81062  13.618   7.916  12.365
 9534W        W81063  35.041  25.184  11.189
 9535W        W81064  15.683   0.019   0.934
 9536W        W81065  19.704   5.944   3.101
 9537W        W81066   0.921  41.536  10.459
 9538W        W81067   1.522  32.358   3.057
 9539W        W81068  36.011  25.606   3.764
 9540W        W81069  39.803  11.679  12.661
 9541W        W81070  44.074  34.898  11.995
 9542W        W81071  30.444   8.727   1.196
 9543W        W81072  12.340   1.446  12.575
 9544W        W81073  24.130  36.987  14.371
 9545W        W81074  31.482  36.340  14.388
 9546W        W81075   4.900   0.272   2.596
 9547W        W81076   2.260  27.115   3.632
 9548W        W81077  41.487   7.646  10.744
 9549W        W81078  12.612  37.433  13.888
 9550W        W81079  20.594  32.434   1.898
 9551W        W81080  44.298  33.365   4.209
 9552W        W81081  32.557  10.953   1.678
 9553W        W81082   2.774   9.691  14.881
 9554W        W81083  12.219   0.644   2.361
 9555W        W81084  13.783   3.279   0.404
 9556W        W81085  34.824  26.139   1.118
 9557W        W81086   2.683  42.253  13.908
 9558W        W81087  13.279  10.943  14.975
 9559W        W81088  36.534  22.001  12.414
 9560W        W81089  41.575  22.076   1.474
 9561W        W81090  30.545  23.400  13.731
 9562W        W81091   5.859   4.735  12.731
 9563W        W81092  19.629  21.560   0.897
 9564W        W81093  36.647  42.083   1.410
 9565W        W81094  38.953  30.353  13.511
 9566W        W81095  43.520  32.380   0.752
 9567W        W81096   3.683  19.257   1.880
 9568W        W81097  10.864  13.588   1.926
 9569W        W81098  15.070   6.346  12.063
 9570W        W81099  37.340  34.431  11.459
 9571W        W81100  33.358   8.907   0.436
 9572W        W81101   6.982  44.532  14.056
 9573W        W81102  29.962  29.561  11.570
 9574W        W81103  16.726  39.383  13.832
 9575W        W81104  30.573  42.471   1.221
 9576W        W81105  35.123  32.015   1.866
 9577W        W81106  34.883  42.005  10.456
 9578W        W81107  45.000   6.787  11.927
 9579W        W81108  34.882  19.203   2.778
 9580W        W81109  44.537  37.507   0.427
 9581W        W81110  24.302  36.174  13.910
 9582W        W81111  38.411  32.490  10.713
 9583W        W81112  44.927  26.717   1.794
 9584W        W81113  44.106  10.832  12.074
 9585W        W81114   3.179  36.462  11.066
 9586W        W81115  19.693  23.647   1.869
 9587W        W81116  44.674   3.241   4.293
 9588W        W81117   3.763   2.620  10.864
 9589W        W81118  11.944  24.330   3.122
 9590W        W81119  15.758  19.943  12.452
 9591W        W81120  22.920  13.674   3.289
 9592W        W81121   7.867   7.148  14.597
 9593W        W81122   0.318  36.098   1.980
 9594W        W81123  38.896  12.077   1.419
 9595W        W81124  40.807  23.218   0.969
 9596W        W81125  30.956  15.617   1.091
 9597W        W81126  39.224  16.636   2.295
 9598W        W81127  43.818  42.470   3.341
 9599W        W81128  37.100   1.078  14.608
 9600W        W81129   7.187  23.360   3.179
 9601W        W81130  38.471  25.290   2.413
 9602W        W81131   0.698  31.046   0.445
 9603W        W81132  15.009  40.403   3.188
 9604W        W81133  38.384  29.556  12.503
 9605W        W81134  41.021  11.175   1.414
 9606W        W81135  35.468  16.161   4.839
 9607W        W81136  33.982  34.809   1.761
 9608W        W81137  16.432  19.964   4.252
 9609W        W81138  16.772  41.470  14.878
 9610W        W81139   1.533  37.608   2.477
 9611W        W81140  30.600   2.956  14.707
 9612W        W81141  24.504  27.363  14.766
 9613W        W81142   0.782   9.808   3.759
 9614W        W81143  23.697  11.805   2.439
 9615W        W81144  24.590   9.470   2.415
 9616W        W81145   2.335   4.834   0.651
 9617W        W81146  15.342   7.896  14.142
 9618W        W81147   7.454   5.323  14.359
 9619W        W81148  21.258  20.503  14.511
 9620W        W81149   3.063  18.346  14.965
 9621W        W81150  26.312  26.459   3.239
 9622W        W81151  15.446   0.670  12.016
 9623W        W81152  10.060   6.227  14.795
 9624W        W81153  30.409  29.101  14.029
 9625W        W81154  22.775  35.293  13.352
 9626W        W81155  23.912  20.141   3.249
 9627W        W81156  17.951   6.156  12.088
 9628W        W81157  10.170  21.552  11.361
 9629W        W81158  38.823  37.850   2.038
 9630W        W81159  32.202  28.574   0.666
 9631W        W81160  41.811   9.493   1.821
 9632W        W81161  26.742  26.277  13.877
 9633W        W81162  30.464  10.894  10.991
 9634W        W81163  43.587   0.747   4.529
 9635W        W81164  25.045  22.098   3.358
 9636W        W81165   2.945   0.341  12.013
 9637W        W81166  39.329  13.383  10.616
 9638W        W81167  31.023  32.056  12.157
 9639W        W81168  17.252  39.052  11.492
 9640W        W81169  32.566   5.768  14.475
 9641W        W81170  34.060  19.015   2.057
 9642W        W81171  39.934  25.204  11.203
 9643W        W81172  37.057  16.191  11.126
 9644W        W81173  35.960  16.384   3.418
 9645W        W81174   3.511  34.693   4.505
 9646W        W81175  29.545   9.409   1.783
 9647W        W81176  17.287  21.360   0.862
 9648W        W81177   9.899  36.127  12.532
 9649W        W81178  16.688  15.750   3.738
 9650W        W81179  17.030   2.029   1.010
 9651W        W81180   1.797  40.331   3.215
 9652W        W81181  27.661  39.868   3.042
 9653W        W81182  36.485  26.522   4.603
 9654W        W81183  13.755  37.902  11.618
 9655W        W81184  44.782  35.982   3.343
 9656W        W81185   5.260  38.600   2.738
 9657W        W81186  23.340  33.412  11.238
 9658W        W81187   1.426  30.091  14.943
 9659W        W81188  31.007  21.256   3.263
 9660W        W81189  15.156  12.759  12.315
 9661W        W81190  16.014  26.621  11.631
 9662W        W81191  19.837   2.391   1.409
 9663W        W81192   2.396  30.534  13.770
 9664W        W81193  14.745  24.164   0.398
 9665W        W81194  15.285  34.240   2.536
 9666W        W81195  32.044  10.891   4.098
 9667W        W81196   7.356  44.623  11.619
 9668W        W81197  28.266   2.860  10.930
 9669W        W81198  26.593   6.896  11.248
 9670W        W81199   0.430  40.910   1.303
 9671W        W81200  21.519   3.971  10.683
 9672W        W81201   2.624  31.457   1.198
 9673W        W81202  43.344  26.654  14.750
 9674W        W81203  37.505   8.716   0.858
 9675W        W81204  10.122   7.790  14.752
 9676W        W81205   4.239   5.256  10.726
 9677W        W81206  35.843  41.206  14.787
 9678W        W81207  28.113  29.937  14.483
 9679W        W81208  23.514  28.973  10.636
 9680W        W81209  41.374   1.405  12.076
 9681W        W81210  34.861  24.212   1.972
 9682W        W81211   5.780   9.604   4.684
 9683W        W81212  14.558  14.254  13.503
 9684W        W81213   6.670  31.393  13.321
 9685W        W81214   5.930  23.948  14.352
 9686W        W81215   5.262  29.121  13.869
 9687W        W81216  35.909   8.246   1.643
 9688W        W81217   0.357   8.596  14.569
 9689W        W81218   9.809  35.936   1.734
 9690W        W81219  15.338  10.064  14.287
 9691W        W81220  42.240   4.650   4.449
 9692W        W81221   3.379  37.372  10.603
 9693W        W81222  19.088  20.815   0.933
 9694W        W81223  43.359  37.158  11.503
 9695W        W81224  17.684  18.078  13.834
 9696W        W81225  36.441  10.399  13.873
 9697W        W81226  34.402  11.194  14.987
 9698W        W81227  40.768  16.623  11.620
 9699W        W81228  29.379  37.077  10.696
 9700W        W81229  22.395  35.428   3.110
 9701W        W81230   7.522  21.795   4.607
 9702W        W81231  30.515  12.316   2.588
 9703W        W81232  10.924  32.127  13.359
 9704W        W81233  35.604  24.666   2.130
 9705W        W81234  36.439   3.711  13.399
 9706W        W81235  25.029   7.443  12.938
 9707W        W81236   6.197  36.377  12.962
 9708W        W81237  31.737  20.751   2.619
 9709W        W81238  28.406  13.558   1.395
 9710W        W81239   8.706   7.262   2.259
 9711W        W81240  39.346  27.743   3.622
 9712W        W81241  26.592  12.698  14.993
 9713W        W81242  17.675   8.705  11.252
 9714W        W81243  29.491  16.414  12.980
 9715W        W81244  27.647  22.472   4.742
 9716W        W81245  36.705  40.271  12.139
 9717W        W81246  38.305   9.813  14.548
 9718W        W81247  34.443  22.727   4.131
 9719W        W81248  15.210   1.890   4.607
 9720W        W81249  15.793  18.339   2.053
 9721W        W81250  31.366   6.161  13.381
 9722W        W81251  41.478  40.063   3.611
 9723W        W81252  31.422  15.305  11.590
 9724W        W81253  16.771  26.481  13.353
 9725W        W81254  18.505  13.789  10.598
 9726W        W81255  33.171  35.793  13.827
 9727W        W81256   1.943  32.063   3.208
 9728W        W81257  17.163  34.038  13.769
 9729W        W81258   3.772  35.228   2.416
 9730W        W81259  44.560  43.058  11.634
 9731W        W81260  16.688  38.851  13.839
 9732W        W81261   7.881  29.789   3.373
 9733W        W81262  20.085   3.706  11.404
 9734W        W81263  36.428   3.359  10.817
 9735W        W81264  33.639  25.863  13.349
 9736W        W81265  14.237  31.210  14.258
 9737W        W81266  38.894  40.102   3.429
 9738W        W81267  13.560   5.168  14.454
 9739W        W81268   8.777  30.641   4.490
 9740W        W81269  21.168   0.347   3.682
 9741W        W81270   0.254   9.225  11.590
 9742W        W81271  35.524  14.829   0.645
 9743W        W81272   6.233   9.351  14.376
 9744W        W81273  14.703   6.557   0.862
 9745W        W81274  20.062   1.249   0.783
 9746W        W81275  38.219  12.495  13.928
 9747W        W81276   2.833   8.235   1.407
 9748W        W81277  38.845  32.185  13.903
 9749W        W81278   5.885  36.013  10.731
 9750W        W81279   8.251   6.357  13.817
 9751W        W81280  20.296   0.741   3.855
 9752W        W81281   6.274   9.791  12.932
 9753W        W81282  14.219  27.612   2.309
 9754W        W81283  42.050  40.817   2.531
 9755W        W81284  33.568  13.432   2.332
 9756W        W81285  15.530  35.349   0.671
 9757W        W81286  32.393  26.696   0.763
 9758W        W81287  38.142  30.517  13.302
 9759W        W81288  35.145  10.662  12.831
 9760W        W81289  38.370  15.104  11.447
 9761W        W81290  39.874  11.723  11.750
 9762W        W81291  36.426  28.914  11.612
 9763W        W81292  38.118  31.436  13.882
 9764W        W81293  32.574  41.151  10.635
 9765W        W81294  22.280  42.625  10.079
 9766W        W81295  37.906  11.664   2.202
 9767W        W81296  27.551  13.257  14.732
 9768W        W81297  43.790   9.807   1.675
 9769W        W81298  20.692   2.438  12.499
 9770W        W81299  13.368  33.618  13.501
 9771W        W81300   3.784  15.082  14.886
 9772W        W81301  18.108   2.408  12.424
 9773W        W81302  36.446  38.478  13.165
 9774W        W81303  24.945  34.541   3.167
 9775W        W81304  41.542  25.929  11.393
 9776W        W81305  27.060  41.226  13.854
 9777W        W81306  21.317   6.894  14.910
 9778W        W81307  22.198  24.979  12.687
 9779W        W81308  18.752  11.417  11.971
 9780W        W81309  35.451   1.380  13.248
 9781W        W81310  18.468  34.037   1.339
 9782W        W81311   3.451  18.991   2.295
 9783W        W81312   6.622  20.779   1.467
 9784W        W81313  22.989  35.090  14.776
 9785W        W81314  28.230  38.898   3.800
 9786W        W81315  27.782  14.585  10.646
 9787W        W81316  20.214  28.356  12.925
 9788W        W81317  36.944  10.731  12.632
 9789W        W81318   6.483   7.402   0.848
 9790W        W81319  22.101  13.821   1.250
 9791W        W81320  25.531   3.252  13.387
 9792W        W81321  17.180  37.646  10.594
 9793W        W81322  39.037  20.598  12.062
 9794W        W81323  41.084  39.300  11.526
 9795W        W81324  36.135  34.979  14.827
 9796W        W81325  15.801  17.144  13.327
 9797W        W81326  40.417   5.459  12.489
 9798W        W81327  20.883  11.860   1.879
 9799W        W81328  12.948  20.928  12.058
 9800W        W81329   4.886  25.205   0.857
 9801W        W81330  30.974   4.911  12.147
 9802W        W81331  41.985  21.041  14.999
 9803W        W81332  16.544  20.601  11.941
 9804W        W81333  26.637   8.308  11.005
 9805W        W81334  19.857  13.272   2.914
 9806W        W81335  29.339  43.079  11.090
 9807W        W81336   9.916  14.271   3.175
 9808W        W81337  43.987   9.723   1.128
 9809W        W81338  15.244   6.863   3.636
 9810W        W81339  42.680  25.918   3.688
 9811W        W81340  13.745  28.437   4.322
 9812W        W81341  41.214  33.560   4.610
 9813W        W81342  40.595  36.637   1.431
 9814W        W81343   9.515  25.912   2.751
 9815W        W81344  18.991  13.304   3.565
 9816W        W81345  16.017  43.790   0.256
 9817W        W81346  18.029   8.669   1.759
 9818W        W81347  44.484  32.009  13.938
 9819W        W81348  39.958  17.890  11.918
 9820W        W81349  39.354  39.866  11.686
 9821W        W81350  23.694  26.990  14.355
 9822W        W81351   5.275  10.311   1.157
 9823W        W81352  25.127  15.159   3.332
 9824W        W81353  33.647  40.902   3.866
 9825W        W81354  39.865  42.257  11.297
 9826W        W81355  31.124   8.504  10.184
 9827W        W81356  23.649  17.831  12.816
 9828W        W81357  35.453  25.196  14.412
 9829W        W81358  39.456  29.740   3.051
 9830W        W81359  28.077  41.305   5.161
 9831W        W81360   7.933  26.453  11.344
 9832W        W81361  26.192  35.576  11.038
 9833W        W81362   6.444   5.056   1.413
 9834W        W81363  41.397  27.158   4.631
 9835W        W81364  44.696  34.454  12.721
 9836W        W81365   0.279  22.320   1.815
 9837W        W81366  10.651  38.328   4.133
 9838W        W81367   9.769  35.447   1.435
 9839W        W81368  31.072  13.889   0.880
 9840W        W81369  32.531  11.729   0.934
 9841W        W81370  18.637  27.540  14.341
 9842W        W81371  21.531  11.533   3.097
 9843W        W81372  14.531   8.589   0.599
 9844W        W81373  19.356   0.156  14.039
 9845W        W81374  16.123  29.903  14.824
 9846W        W81375  44.386  43.556  11.648
 9847W        W81376  17.389  39.587  13.992
 9848W        W81377  38.455   9.796   3.251
 9849W        W81378  16.787  38.430  10.627
 9850W        W81379   4.874  22.080  10.895
 9851W        W81380  10.459   0.809  13.445
 9852W        W81381   8.719  29.376  12.068
 9853W        W81382   7.222  32.068  13.060
 9854W        W81383  10.916  39.360   4.220
 9855W        W81384  30.699   6.641   4.126
 9856W        W81385  28.679  40.743   4.620
 9857W        W81386   3.487  24.649   2.097
 9858W        W81387   0.755  39.786   4.268
 9859W        W81388  36.602  35.898   2.328
 9860W        W81389  23.972   8.606  13.508
 9861W        W81390  33.028   1.766   3.880
 9862W        W81391  28.593  38.582   2.435
 9863W        W81392  35.217  18.269  12.832
 9864W        W81393  14.038  37.948  13.995
 9865W        W81394  37.238  30.484  10.337
 9866W        W81395  36.827  14.051  12.249
 9867W        W81396  15.662   9.579   3.694
 9868W        W81397  11.968   6.906  11.035
 9869W        W81398  20.568  33.196   3.345
 9870W        W81399  37.885   1.034  13.098
 9871W        W81400  38.157  24.201  12.119
 9872W        W81401  27.904   9.007   0.965
 9873W        W81402  14.366  21.278   1.394
 9874W        W81403  26.405  35.132   1.849
 9875W        W81404   6.228  15.217  13.894
 9876W        W81405  25.568  33.278   4.603
 9877W        W81406  22.953   6.371  11.183
 9878W        W81407   3.707  38.481   2.822
 9879W        W81408  44.656  24.346  12.516
 9880W        W81409  11.372   1.898  13.242
 9881W        W81410   0.412   0.751   4.140
 9882W        W81411  31.911  27.773   3.351
 9883W        W81412  18.564   2.407   4.234
 9884W        W81413   6.297  24.785  14.027
 9885W        W81414  14.927  39.449   2.652
 9886W        W81415  37.172  29.331  12.264
 9887W        W81416   1.028   5.441   0.785
 9888W        W81417  37.339   1.822  14.791
 9889W        W81418  38.077  38.775  10.667
 9890W        W81419  38.789  44.937  13.060
 9891W        W81420  28.092  12.572   4.531
 9892W        W81421  33.490  40.887   2.889
 9893W        W81422  16.524  20.248  14.763
 9894W        W81423  40.013  28.170   1.755
 9895W        W81424  13.100  30.608  11.019
 9896W        W81425  14.625   7.817  11.981
 9897W        W81426  12.148  16.408   3.897
 9898W        W81427  33.385  11.161   2.405
 9899W        W81428  21.743  21.714   0.819
 9900W        W81429  11.974   6.324   4.969
 9901W        W81430  25.411  13.484   4.204
 9902W        W81431  22.310  16.824  14.340
 9903W        W81432  29.627  26.964  11.063
 9904W        W81433   4.069  28.240   2.664
 9905W        W81434  34.779  38.911   3.715
 9906W        W81435  22.929  17.123  13.835
 9907W        W81436  39.880  11.470   0.234
 9908W        W81437  17.958  40.344  10.916
 9909W        W81438  29.440  20.283  11.147
 9910W        W81439  25.419  39.567   2.385
 9911W        W81440  13.140  36.136  12.524
 9912W        W81441  41.825  18.056   3.176
 9913W        W81442  19.804  20.935  10.679
 9914W        W81443  44.516  38.765  14.779
 9915W        W81444  26.505  44.502   0.237
 9916W        W81445  32.462   7.191  12.649
 9917W        W81446   7.598  38.969  14.409
 9918W        W81447  28.077   8.720   1.354
 9919W        W81448  22.762  24.939   4.320
 9920W        W81449  15.305  29.494  13.869
 9921W        W81450  34.890  41.492   3.652
 9922W        W81451  30.061  24.650   0.122
 9923W        W81452  28.633  33.312   1.663
 9924W        W81453   7.438  16.992   3.609
 9925W        W81454  13.180  34.954  10.581
 9926W        W81455   8.468  16.024  11.084
 9927W        W81456  18.744  15.338  12.720
 9928W        W81457   3.879   3.626   4.541
 9929W        W81458   7.671  14.583  13.829
 9930W        W81459  28.023  15.596  10.646
 9931W        W81460  38.646  25.190  14.399
 9932W        W81461  36.053  20.969   4.556
 9933W        W81462  34.876   1.997   3.786
 9934W        W81463  18.312   9.982  13.501
 9935W        W81464  30.250  17.124   0.206
 9936W        W81465  26.105  39.475  14.547
 9937W        W81466  42.063   1.919  14.512
 9938W        W81467  37.513  34.844  11.171
 9939W        W81468   9.434  16.644  14.337
 9940W        W81469  17.277  40.233   0.897
 9941W        W81470  12.741   4.592  11.442
 9942W        W81471  11.773  10.353  14.469
 9943W        W81472  21.467  18.551  11.640
 9944W        W81473  26.607  17.323   0.439
 9945W        W81474  21.470  22.005   1.518
 9946W        W81475  36.120   6.490   3.557
 9947W        W81476  35.771  32.518   3.799
 9948W        W81477   5.661  33.589   2.913
 9949W        W81478  33.059  14.290   2.522
 9950W        W81479  36.522  19.144   3.757
 9951W        W81480   0.943  39.566  13.395
 9952W        W81481   1.204   2.912  12.684
 9953W        W81482   0.261  38.595  12.341
 9954W        W81483  40.492  36.829   0.543
 9955W        W81484  26.303  35.631  11.853
 9956W        W81485   2.727  35.634  12.429
 9957W        W81486  17.506  13.457  12.724
 9958W        W81487  40.233   3.514  11.361
 9959W        W81488   7.746  11.424   3.362
 9960W        W81489  12.694  37.173  12.384
 9961W        W81490  39.356   5.586   0.697
 9962W        W81491  21.669  26.134   1.680
 9963W        W81492  27.894   9.535   3.695
 9964W        W81493  26.255   0.941  14.394
 9965W        W81494  29.647  39.468   2.562
 9966W        W81495  44.216  38.472   4.284
 9967W        W81496  28.758  39.057   1.738
 9968W        W81497  44.207   3.163   0.829
 9969W        W81498  37.149  20.040   2.702
 9970W        W81499   4.210  25.147   2.352
 9971W        W81500  17.593   9.459  13.116
 9972W        W81501  12.691  26.989   1.876
 9973W        W81502  24.901  22.053   1.609
 9974W        W81503   8.657  38.817  10.729
 9975W        W81504  10.078   5.796  10.572
 9976W        W81505   8.340  27.281  14.239
 9977W        W81506  42.279  16.088  12.225
 9978W        W81507  16.351   9.962  12.607
 9979W        W81508  17.528  10.870  11.129
 9980W        W81509  21.670   3.901  13.234
 9981W        W81510   6.230  23.057  14.418
 9982W        W81511  40.752  30.039  14.790
 9983W        W81512  14.652  22.444  12.593
 9984W        W81513  39.877  10.750   3.894
 9985W        W81514   0.168   2.836  11.906
 9986W        W81515   4.256  30.065  14.735
 9987W        W81516  17.505  10.649   4.131
 9988W        W81517  43.676  17.580   2.919
 9989W        W81518  22.441  16.072   4.542
 9990W        W81519  42.106  23.066  11.931
 9991W        W81520  19.726  29.652   0.538
 9992W        W81521  31.707  25.075   3.696
 9993W        W81522  29.710  35.995  12.955
 9994W        W81523  38.035  33.912   2.883
 9995W        W81524  13.333  18.686   1.145
 9996W        W81525   6.382  44.535   0.477
 9997W        W81526  20.309   4.876  12.011
 9998W        W81527  27.625  20.502   2.826
 9999W        W81528  43.960  10.321   4.062
10000W        W81529  41.330  34.341  13.978
10001W        W81530  42.249  38.575  11.672
10002W        W81531   8.679  33.052  13.414
10003W        W81532  28.511  18.781  13.491
10004W        W81533   0.974  38.255   0.827
10005W        W81534   7.866   6.955  11.036
10006W        W81535  12.553  11.870  14.702
10007W        W81536  12.532  28.405   2.187
10008W        W81537  10.314   5.157   1.767
10009W        W81538  37.622  29.133  10.650
10010W        W81539  41.013  10.285  10.494
10011W        W81540  34.013  12.250  14.576
10012W        W81541  13.104  15.752  11.792
10013W        W81542  20.137   6.686  12.532
10014W        W81543  31.539  31.386  12.234
10015W        W81544  36.232   4.252  12.140
10016W        W81545  36.077  41.727  12.532
10017W        W81546  30.672  30.017   2.739
10018W        W81547  17.291   2.154  12.094
10019W        W81548  42.920  26.205   1.804
10020W        W81549  30.836   0.877  12.017
10021W        W81550   1.912   3.428   1.759
10022W        W81551  28.162  33.441   1.808
10023W        W81552  43.824  36.301  11.992
10024W        W81553  23.011   5.138   3.039
10025W        W81554   9.340  42.737   5.002
10026W        W81555  14.688  37.784   3.799
10027W        W81556  32.424  42.511  12.595
10028W        W81557  14.409  17.684   3.746
10029W        W81558  35.673  44.793  14.159
10030W        W81559  37.274  23.620  11.913
10031W        W81560  39.306  33.439  11.050
10032W        W81561  17.198   3.202   4.146
10033W        W81562  38.666   2.244   1.433
10034W        W81563  11.130  24.927  10.769
10035W        W81564  30.471  28.578  14.889
10036W        W81565  37.434  38.805  13.963
10037W        W81566  10.365  33.036  10.021
10038W        W81567  13.203  33.471  13.991
10039W        W81568  28.144  20.753   0.278
10040W        W81569  18.727  41.702   2.265
10041W        W81570  43.853   0.628   1.347
10042W        W81571  29.213   2.542  12.283
10043W        W81572  15.049  30.900   3.599
10044W        W81573  42.949   2.855   3.427
10045W        W81574   4.659  18.665   0.960
10046W        W81575  12.755  44.374  12.190
10047W        W81576  25.757  12.845   4.957
10048W        W81577   7.902  14.023  10.749
10049W        W81578  15.182  10.673   0.878
10050W        W81579  24.441  24.401  14.452
10051W        W81580  24.748  27.529  12.169
10052W        W81581  23.976  24.580  14.712
10053W        W81582  24.036  18.683  10.352
10054W        W81583   4.657  19.624  14.895
10055W        W81584   2.791   2.519  13.416
10056W        W81585   5.242  22.804  14.317
10057W        W81586   7.118  41.109  14.275
10058W        W81587  36.814  42.551   1.296
10059W        W81588   5.630  12.726  11.662
10060W        W81589  33.488  44.455  13.373
10061W        W81590  35.414   9.837  14.790
10062W        W81591   4.766  10.276   2.792
10063W        W81592  42.451  28.429   0.667
10064W        W81593   7.783  35.965  11.135
10065W        W81594  37.635  19.137  11.887
10066W        W81595  33.128   6.863   1.754
10067W        W81596  34.313  33.423   1.421
10068W        W81597   3.607  32.472  14.090
10069W        W81598  37.815   0.442   4.527
10070W        W81599  30.084  24.972   1.131
10071W        W81600  10.699  23.768   3.900
10072W        W81601   2.039   7.231  14.237
10073W        W81602   5.731  16.501  13.729
10074W        W81603  44.847  42.072   1.187
10075W        W81604   7.766  44.818   3.644
10076W        W81605  10.941  22.560   2.921
10077W        W81606  43.065  30.542  10.737
10078W        W81607   8.399   3.669   2.177
10079W        W81608   2.744  21.948  10.907
10080W        W81609  17.735  22.640  14.087
10081W        W81610  41.936  16.023   4.425
10082W        W81611  43.416  26.969   1.867
10083W        W81612  28.868  32.847   3.770
10084W        W81613  12.824   7.341   4.837
10085W        W81614  43.281  21.199  13.306
10086W        W81615  19.798   0.705   3.702
10087W        W81616   7.804  31.433  12.052
10088W        W81617  40.828  12.874  14.865
10089W        W81618  16.813  38.976  10.577
10090W        W81619  30.481  31.824  12.016
10091W        W81620  34.132  10.622  14.368
10092W        W81621  21.512  20.047  14.356
10093W        W81622  33.031  14.029   1.004
10094W        W81623  43.911  19.543   4.065
10095W        W81624  23.930   3.994  12.423
10096W        W81625  32.954   4.501  14.687
10097W        W81626  37.380   6.824  12.966
10098W        W81627  23.544  36.675  13.545
10099W        W81628   5.343  30.359  13.652
10100W        W81629  24.470  39.073  12.982
10101W        W81630  37.121  42.812  13.794
10102W        W81631   9.147  25.336   3.129
10103W        W81632  44.518  33.063  11.661
10104W        W81633  25.732   0.547   2.213
10105W        W81634  35.540  40.884  12.552
10106W        W81635  16.275   7.704   2.811
10107W        W81636  36.335  28.852   4.110
10108W        W81637  34.659  15.166   2.520
10109W        W81638  18.552   2.809   2.887
10110W        W81639  42.443  37.133  14.908
10111W        W81640  41.016  14.679   3.950
10112W        W81641   5.953   6.597   4.692
10113W        W81642   9.804   6.765   4.663
10114W        W81643   3.255  26.462   4.901
10115W        W81644  11.655  38.978   4.748
10116W        W81645  40.359   5.293  10.959
10117W        W81646  41.897  18.966  12.698
10118W        W81647  33.720   5.315  13.892
10119W        W81648  38.456  35.919   2.885
10120W        W81649  19.755   1.010  14.582
10121W        W81650  12.730  28.977   3.402
10122W        W81651  17.173  34.994  10.635
10123W        W81652  29.037   3.297  13.836
10124W        W81653  19.517  26.569   1.553
10125W        W81654  15.702  38.313  13.323
10126W        W81655  21.114  25.955   0.593
10127W        W81656  10.309  29.575   5.070
10128W        W81657   3.418  33.464  10.690
10129W        W81658  19.642  36.291  11.567
10130W        W81659  35.786  28.707   1.751
10131W        W81660  19.816  34.771   2.601
10132W        W81661   5.105  41.031   1.389
10133W        W81662  38.516  21.009   4.683
10134W        W81663  42.582  19.414   2.622
10135W        W81664  37.647  31.962  13.394
10136W        W81665  32.443  23.066   0.718
10137W        W81666   6.261  37.998   0.781
10138W        W81667   0.199  28.611   2.723
10139W        W81668  38.732  30.324  12.150
10140W        W81669  13.804  11.761   2.227
10141W        W81670  35.973  14.084  11.126
10142W        W81671  31.088   1.696  10.318
10143W        W81672   6.652  18.837  13.156
10144W        W81673  11.863   8.227   0.777
10145W        W81674  22.239  33.541   4.144
10146W        W81675  33.551   3.249  11.180
10147W        W81676  42.985  34.371  11.210
10148W        W81677  21.913  44.034   0.896
10149W        W81678  33.920  31.101   4.354
10150W        W81679   0.967  43.163   2.824
10151W        W81680  34.337  30.497  13.811
10152W        W81681  20.549   4.946   1.163
10153W        W81682   6.648  14.836   3.332
10154W        W81683  36.606  20.036  13.885
10155W        W81684  30.151  21.821   2.333
10156W        W81685  34.856   7.967  11.238
10157W        W81686  43.999  21.025   3.280
10158W        W81687  43.300  17.745   1.880
10159W        W81688  29.431  29.903   1.360
10160W        W81689   4.771  16.660   4.839
10161W        W81690   2.648   6.631  14.813
10162W        W81691  19.304  22.124   3.267
10163W        W81692  17.379  18.814  13.457
10164W        W81693  20.255  36.469  14.685
10165W        W81694  32.137  17.101   0.268
10166W        W81695  16.577  25.548  14.334
10167W        W81696  26.745   7.595   9.837
10168W        W81697  42.403  11.913  10.196
10169W        W81698  37.878  36.782   0.608
10170W        W81699  22.019   6.385  10.554
10171W        W81700  43.490  20.040  11.153
10172W        W81701  25.729   0.952   3.255
10173W        W81702  32.211  11.639  11.090
10174W        W81703  36.801  13.733   0.852
10175W        W81704   4.366   8.154   4.430
10176W        W81705  22.774  42.911   4.632
10177W        W81706  12.961   7.644  14.008
10178W        W81707  19.222  35.890  13.929
10179W        W81708  22.001   6.246  11.838
10180W        W81709  31.121  20.601  11.942
10181W        W81710  29.179  18.335  14.842
10182W        W81711  13.976  25.412  11.667
10183W        W81712  18.980  24.098  14.457
10184W        W81713  21.734  18.200   1.778
10185W        W81714  42.586  43.845  10.759
10186W        W81715  36.030  43.399   1.877
10187W        W81716  27.284  41.424  12.212
10188W        W81717  21.212  41.812   2.211
10189W        W81718   6.314  24.694   2.091
10190W        W81719  23.677  14.432   0.252
10191W        W81720   1.444  24.522   2.706
10192W        W81721   9.052  33.644   4.977
10193W        W81722  28.468  10.160   2.716
10194W        W81723  24.221   5.665   1.144
10195W        W81724  23.054  17.562   3.842
10196W        W81725  27.603   3.948  11.082
10197W        W81726  37.995  27.984  12.818
10198W        W81727  41.515  31.199  12.650
10199W        W81728   2.252   6.875  13.916
10200W        W81729   6.133   8.685   3.194
10201W        W81730  27.970  37.537  11.411
10202W        W81731   3.274  32.469  13.688
10203W        W81732  26.515  11.866  13.894
10204W        W81733  14.589  26.368  10.635
10205W        W81734  10.727  36.428  13.411
10206W        W81735   0.987   3.785   3.721
10207W        W81736   3.901  36.472   2.688
10208W        W81737   6.054  40.991   0.046
10209W        W81738  22.174   5.111   0.433
10210W        W81739  15.078   6.895   1.607
10211W        W81740   6.749  38.805  12.970
10212W        W81741  28.079  33.144   3.313
10213W        W81742  26.839   9.644  12.686
10214W        W81743  32.597  11.294  12.892
10215W        W81744  42.489  34.373  13.787
10216W        W81745  20.743   4.981  12.982
10217W        W81746  20.762  42.498   1.115
10218W        W81747   9.140  43.264   0.268
10219W        W81748  21.298  28.313  13.383
10220W        W81749  12.565  39.928  14.114
10221W        W81750  30.539  43.299   2.163
10222W        W81751  13.076  35.656  11.325
10223W        W81752  35.320  35.436   0.850
10224W        W81753  39.966  20.508  12.208
10225W        W81754   9.488   1.940   2.528
10226W        W81755  38.563  10.342  12.107
10227W        W81756  16.595  26.523  14.841
10228W        W81757  19.787   3.287   3.135
10229W        W81758   4.356   1.776  11.634
10230W        W81759  26.202  28.183  11.537
10231W        W81760  30.398   9.046   1.960
10232W        W81761   5.522  43.675  11.173
10233W        W81762   4.426  15.361   1.431
10234W        W81763  27.221   9.269   0.302
10235W        W81764  41.302  39.526   0.528
10236W        W81765  31.057   8.710   1.982
10237W        W81766   0.699  25.593   2.366
10238W        W81767  21.893  28.397   1.417
10239W        W81768  18.001  19.515   0.064
10240W        W81769   8.107  18.505   0.304
10241W        W81770  43.099  39.431  10.447
10242W        W81771  28.889   7.780   3.525
10243W        W81772  17.806  30.922   1.720
10244W        W81773  35.379  29.493  12.279
10245W        W81774   5.249  23.897  13.404
10246W        W81775  11.808   1.875   3.395
10247W        W81776  11.135  10.784  14.849
10248W        W81777   4.026  17.571   0.308
10249W        W81778  18.162  20.898   0.627
10250W        W81779   7.018  43.217   1.842
10251W        W81780  25.934   7.829  13.500
10252W        W81781  15.305   6.519   1.890
10253W        W81782  34.062  41.559   2.248
10254W        W81783  43.054  15.177   3.146
10255W        W81784  16.643  18.551  10.492
10256W        W81785  23.462  41.429  12.007
10257W        W81786  24.017  10.666   3.169
10258W        W81787   6.705  14.780  14.434
10259W        W81788  32.120  34.853  12.483
10260W        W81789  21.024  38.431  10.677
10261W        W81790  23.465  14.127   1.576
10262W        W81791   0.278  36.500  13.279
10263W        W81792   9.952  21.756   0.913
10264W        W81793  39.072  22.973   1.764
10265W        W81794  40.999   7.024  12.140
10266W        W81795  24.989  12.707  12.357
10267W        W81796  32.836  43.225   4.347
10268W        W81797  17.555  30.187   0.266
10269W        W81798  15.305  14.778  10.677
10270W        W81799  28.689  10.735   1.877
10271W        W81800   8.689   0.500   4.784
10272W        W81801  27.983  21.948   1.694
10273W        W81802   3.250  36.865   1.219
10274W        W81803  40.257  40.565   0.940
10275W        W81804  30.270  34.729  12.468
10276W        W81805  17.889  39.508   0.568
10277W        W81806  29.279  11.413   4.712
10278W        W81807   0.529  30.997  10.269
10279W        W81808  41.552  26.898   3.332
10280W        W81809   3.443  34.395  11.066
10281W        W81810  30.514  17.883   2.147
10282W        W81811   9.271  39.388   1.712
10283W        W81812  28.186   3.854   1.897
10284W        W81813   6.337  23.641  14.152
10285W        W81814  38.071  30.074  11.689
10286W        W81815  37.609  43.448   4.503
10287W        W81816  12.382  12.579  14.268
10288W        W81817  35.142  24.260  13.616
10289W        W81818  15.561  10.385  14.838
10290W        W81819  26.427   9.232   3.264
10291W        W81820  26.702   7.468   2.248
10292W        W81821  14.341  28.215  12.100
10293W        W81822  18.597  12.915  10.369
10294W        W81823  28.999  15.667  14.534
10295W        W81824  36.388  13.775   1.232
10296W        W81825  32.413  30.210  14.781
10297W        W81826   3.408   8.270   3.290
10298W        W81827   2.266  16.387   3.468
10299W        W81828   5.274  24.854  13.561
10300W        W81829  36.867  27.086   3.609
10301W        W81830  23.510  32.842  14.954
10302W        W81831  39.511  33.132  14.885
10303W        W81832  32.240  29.516   0.971
10304W        W81833  31.484  39.009   2.224
10305W        W81834  17.762  35.671   0.779
10306W        W81835  25.918  33.560  10.774
10307W        W81836  36.361  29.627  12.084
10308W        W81837   5.221   0.499  12.452
10309W        W81838  14.704   6.728  14.877
10310W        W81839  25.631  21.610   1.704
10311W        W81840  27.526  39.916  12.790
10312W        W81841  32.589  32.510   1.599
10313W        W81842  44.964  32.935   3.679
10314W        W81843  17.365   0.908   3.811
10315W        W81844  33.423  29.468   2.455
10316W        W81845  32.858  29.598   4.908
10317W        W81846  33.582  16.446  12.821
10318W        W81847   7.349  14.263  11.570
10319W        W81848  20.002  41.249  12.029
10320W        W81849  27.764  37.373  12.682
10321W        W81850  23.978  38.188  11.212
10322W        W81851  28.979  30.127   2.715
10323W        W81852  26.721   4.739  14.372
10324W        W81853  40.954   0.244   2.386
10325W        W81854  38.381   5.030  11.245
10326W        W81855  28.958  13.828  14.022
10327W        W81856  32.863   1.391  13.906
10328W        W81857  21.715  43.809   1.687
10329W        W81858   6.211   4.432  12.975
10330W        W81859  23.163  11.350   4.352
10331W        W81860  13.565  24.887  13.769
10332W        W81861  31.824  22.031   1.957
10333W        W81862  30.581  25.997  14.548
10334W        W81863  13.382  44.092   0.775
10335W        W81864  18.754  25.241  13.320
10336W        W81865  10.919  25.252  14.987
10337W        W81866   2.903   5.357   0.304
10338W        W81867   7.976  33.124   4.277
10339W        W81868  27.458  42.058  14.351
10340W        W81869   5.705  33.674   0.789
10341W        W81870  20.561  38.587  12.910
10342W        W81871  25.083  33.429   4.705
10343W        W81872  23.744  39.809   1.625
10344W        W81873  17.196  23.326  13.992
10345W        W81874   6.938  10.921  12.895
10346W        W81875  31.955  34.340   2.089
10347W        W81876  35.085  20.605   2.237
10348W        W81877  18.763  31.332  13.673
10349W        W81878  35.377   5.838   2.034
10350W        W81879   3.800  29.845   0.377
10351W        W81880  41.877  32.024   3.055
10352W        W81881  21.690   5.259  13.872
10353W        W81882  26.650   6.756  13.620
10354W        W81883  43.407  17.779  10.752
10355W        W81884  32.093  18.225   3.577
10356W        W81885  29.364  14.109  12.560
10357W        W81886  41.754   6.427  14.833
10358W        W81887  43.055  32.889   4.470
10359W        W81888  44.157   5.948  10.227
10360W        W81889  38.567  19.707   2.641
10361W        W81890  18.936  29.381   3.104
10362W        W81891  33.102   0.417   2.271
10363W        W81892  36.923  27.344   1.717
10364W        W81893  13.843   0.829  12.021
10365W        W81894  32.924  38.027  13.421
10366W        W81895  33.466  10.467  12.073
10367W        W81896  22.608  33.784  11.504
10368W        W81897   5.137   6.215   4.696
10369W        W81898  16.556  21.252   0.481
10370W        W81899  13.913  29.105  12.370
10371W        W81900   1.241  35.457   1.397
10372W        W81901   0.177  41.330   2.261
10373W        W81902  38.416  20.489  13.866
10374W        W81903  24.539   7.270   4.724
10375W        W81904  44.740  17.554   1.903
10376W        W81905  18.587  40.447   2.734
10377W        W81906  32.563   1.786   2.862
10378W        W81907  14.821  11.378  12.791
10379W        W81908  35.803   9.826   3.261
10380W        W81909  43.337  32.988  12.820
10381W        W81910   0.267  16.053   3.583
10382W        W81911  17.130  43.926  10.706
10383W        W81912  17.784  28.866  12.531
10384W        W81913  14.190  16.622   1.146
10385W        W81914  21.240  34.106  12.376
10386W        W81915   5.213  23.969  11.509
10387W        W81916  14.269   0.227   2.698
10388W        W81917   3.091  30.033   4.599
10389W        W81918  17.929   2.354   5.135
10390W        W81919  11.390   2.817   3.755
10391W        W81920   9.930  21.069   2.189
10392W        W81921  18.061  39.377   3.835
10393W        W81922  20.552  30.860   2.242
10394W        W81923  10.688  20.743   0.726
10395W        W81924  17.485  41.143  11.083
10396W        W81925   9.438   1.325   0.913
10397W        W81926  33.341  33.364   5.053
10398W        W81927   9.284  31.529  14.481
10399W        W81928  35.177  15.410  11.240
10400W        W81929  44.882  38.479   1.925
10401W        W81930  21.519   8.642   3.760
10402W        W81931  32.033   4.862   2.206
10403W        W81932  37.007  18.407  11.248
10404W        W81933  12.838  20.610  10.728
10405W        W81934  26.237  24.577  13.089
10406W        W81935   4.593   4.159   0.714
10407W        W81936   5.795  25.493  12.093
10408W        W81937  20.887  18.341  13.521
10409W        W81938  36.744  16.134   4.132
10410W        W81939   6.615  16.669   3.351
10411W        W81940  18.012  12.926   4.247
10412W        W81941  26.719   9.197   2.832
10413W        W81942  32.588  43.527   1.295
10414W        W81943  18.098  12.866   0.297
10415W        W81944   5.427  41.317  13.056
10416W        W81945  15.605  12.212  11.610
10417W        W81946  11.641  11.819  13.337
10418W        W81947  22.550   3.327   0.236
10419W        W81948  35.463   4.196   4.715
10420W        W81949   9.043  36.200   2.589
10421W        W81950  43.449  16.534   3.794
10422W        W81951  31.931   6.489   0.056
10423W        W81952   1.805   9.801  13.991
10424W        W81953   1.195   1.519  10.972
10425W        W81954   1.372  23.005   3.125
10426W        W81955  35.598  42.615   4.083
10427W        W81956  18.836  31.965  13.566
10428W        W81957   6.748   7.290  13.927
10429W        W81958  24.113  37.756  13.004
10430W        W81959  19.219  26.380  14.171
10431W        W81960  31.446  16.713   1.291
10432W        W81961  39.393  36.253   0.918
10433W        W81962   9.264  44.405  11.963
10434W        W81963  40.827   6.530   5.063
10435W        W81964  13.376  40.779  11.464
10436W        W81965  25.929  14.070  12.220
10437W        W81966  40.318  20.618  11.472
10438W        W81967  38.448  43.962   4.136
10439W        W81968   5.928  20.027  11.100
10440W        W81969  39.795  30.908  14.081
10441W        W81970   9.238   6.743  13.380
10442W        W81971  14.815  39.895  10.558
10443W        W81972   3.750  44.195  12.854
10444W        W81973  39.724   3.706   0.794
10445W        W81974  29.020   4.749   4.328
10446W        W81975  23.756  17.831   4.050
10447W        W81976  23.210  21.584   0.491
10448W        W81977  42.495  40.407  14.937
10449W        W81978  35.074  41.631  11.970
10450W        W81979  25.934  38.860  13.828
10451W        W81980  14.043   6.377  11.189
10452W        W81981  18.434  31.650   0.441
10453W        W81982  39.731   1.690  12.462
10454W        W81983   3.847  40.335  14.667
10455W        W81984   0.962   9.805   3.241
10456W        W81985  18.681  34.469  10.084
10457W        W81986   9.151   5.412   3.404
10458W        W81987  35.467  12.665   0.652
10459W        W81988   6.916   3.445  10.574
10460W        W81989  28.362  23.133   1.896
10461W        W81990  37.979  27.786  10.766
10462W        W81991  41.555  22.906  12.859
10463W        W81992  44.246  14.199   0.393
10464W        W81993  44.275  32.565  10.937
10465W        W81994  26.934   8.734  12.526
10466W        W81995  25.151  24.171  12.070
10467W        W81996  38.315  21.126   3.369
10468W        W81997  29.006  39.376  12.753
10469W        W81998  35.391   9.377  13.047
10470W        W81999  19.972  32.729   0.147
10471W        W82000  17.802  43.398   2.890
10472W        W82001  15.769  35.978   3.815
10473W        W82002  34.127  22.463  13.781
10474W        W82003  42.395  21.812   4.144
10475W        W82004  39.408   9.571   0.390
10476W        W82005  37.497  29.095   4.178
10477W        W82006  12.427   3.229   1.585
10478W        W82007  38.977   4.883  11.951
10479W        W82008  22.268  19.433  10.437
10480W        W82009  36.134  15.208  14.405
10481W        W82010  26.530  22.800   4.480
10482W        W82011  17.699  13.623   2.280
10483W        W82012   8.385  31.093  12.980
10484W        W82013  36.480  33.469   2.012
10485W        W82014   1.919   3.696  14.333
10486W        W82015   9.099  32.642  13.503
10487W        W82016   4.801   9.003  13.756
10488W        W82017  16.363  44.439  10.757
10489W        W82018   3.222  29.918   2.270
10490W        W82019  17.601  19.726  13.307
10491W        W82020  17.108  36.898   1.840
10492W        W82021  41.910  41.785  12.858
10493W        W82022  20.868   2.753   0.650
10494W        W82023  20.246  39.364   2.268
10495W        W82024  19.161  43.511   4.428
10496W        W82025   9.398  11.313   2.769
10497W        W82026  41.528  21.497  11.652
10498W        W82027  39.294  13.333  14.221
10499W        W82028  19.114  11.092   1.404
10500W        W82029   4.049   0.934   0.360
10501W        W82030  27.880  40.480  14.420
10502W        W82031   5.390  20.969  14.960
10503W        W82032  31.586   8.545  14.756
10504W        W82033  15.386  39.475  14.822
10505W        W82034  23.088  10.611   3.283
10506W        W82035  17.233  25.579   2.639
10507W        W82036  44.809  12.162  11.626
10508W        W82037  35.829  17.880  11.126
10509W        W82038  25.013  34.714  14.301
10510W        W82039   8.791  22.947  12.613
10511W        W82040  15.555   7.429   3.644
10512W        W82041  40.856  37.889  11.958
10513W        W82042   7.223  21.270   4.139
10514W        W82043   4.824  43.245   0.841
10515W        W82044  16.629  23.179  11.601
10516W        W82045  28.044  39.467  14.469
10517W        W82046  38.266  14.141   4.549
10518W        W82047   2.880   8.991   1.777
10519W        W82048  36.828   5.237  12.897
10520W        W82049  35.070  29.629   3.316
10521W        W82050  32.422   9.428   0.362
10522W        W82051  34.309  40.877  11.717
10523W        W82052  18.487  26.289   3.394
10524W        W82053   6.777  40.127  13.366
10525W        W82054  42.325   2.778  11.662
10526W        W82055  10.395  13.844  14.494
10527W        W82056  38.581  43.833   3.651
10528W        W82057  36.290  38.946  12.963
10529W        W82058   6.359  32.842   0.765
10530W        W82059  13.643   2.486  12.453
10531W        W82060  37.347  18.993   4.127
10532W        W82061   3.826  31.982  12.137
10533W        W82062  28.672   3.964   3.640
10534W        W82063  11.358   9.282   2.307
10535W        W82064  31.391  29.838   3.450
10536W        W82065  42.904  17.150   2.159
10537W        W82066  28.504  34.043  14.571
10538W        W82067  36.868  21.977  11.212
10539W        W82068  16.238  37.446   2.599
10540W        W82069  31.080  17.585   2.668
10541W        W82070  43.759  20.585  13.094
10542W        W82071  37.421   2.105  13.479
10543W        W82072  39.370  41.929   1.898
10544W        W82073  12.054  40.835  10.973
10545W        W82074  43.699  16.839  13.413
10546W        W82075  34.587  32.895   2.277
10547W        W82076   1.021  17.485   2.412
10548W        W82077  37.590  13.127  12.049
10549W        W82078  17.097  27.906  12.928
10550W        W82079  43.041  25.535   2.658
10551W        W82080  14.148  35.488  12.974
10552W        W82081  37.162   0.753  10.739
10553W        W82082  27.608  28.633   3.438
10554W        W82083  30.365  30.451  14.924
10555W        W82084  35.777   2.043   2.699
10556W        W82085  32.948  42.803  14.210
10557W        W82086   5.307  43.314   4.569
10558W        W82087  21.586  19.797   3.066
10559W        W82088   4.383  30.459   0.803
10560W        W82089  16.519   2.481   2.855
10561W        W82090  30.694  14.269  14.747
10562W        W82091  11.143  10.875  12.267
10563W        W82092  19.678  42.019  13.847
10564W        W82093  24.812  20.377  12.616
10565W        W82094  30.144  35.167  11.067
10566W        W82095  35.463  13.329  13.057
10567W        W82096  36.365  24.660   4.598
10568W        W82097  17.971   4.721  12.983
10569W        W82098  19.273   1.465  10.846
10570W        W82099  40.889  38.425   3.470
10571W        W82100  17.839  15.732   1.039
10572W        W82101  36.668  15.597   0.256
10573W        W82102  19.130   0.717   1.697
10574W        W82103   9.099  13.863  12.637
10575W        W82104   0.429  21.217  12.081
10576W        W82105  36.623  20.047   1.797
10577W        W82106  39.918  44.514  13.088
10578W        W82107   9.887  13.444  12.360
10579W        W82108   5.031  14.199   0.369
10580W        W82109  27.153   5.255  10.928
10581W        W82110  22.813  12.400   1.872
10582W        W82111  16.806  15.775   2.340
10583W        W82112  26.659  28.503   1.593
10584W        W82113  44.781   5.884  13.794
10585W        W82114   7.496  43.401  11.825
10586W        W82115  20.141   7.336   4.584
10587W        W82116  28.212  17.070  11.575
10588W        W82117  13.112  43.002  14.270
10589W        W82118  21.847   1.833  14.513
10590W        W82119  32.326  36.900  14.230
10591W        W82120  23.009  15.837  12.918
10592W        W82121  25.522  35.967   1.811
10593W        W82122  18.756  39.353   0.013
10594W        W82123   2.211  26.925  10.775
10595W        W82124  21.686  24.997   4.115
10596W        W82125  12.370   3.688   1.283
10597W        W82126  20.685  36.533  13.875
10598W        W82127   3.135  35.480   4.085
10599W        W82128   6.128  12.855  12.154
10600W        W82129  33.559   0.997   3.706
10601W        W82130   5.315  15.705   0.436
10602W        W82131   3.964   9.844  14.377
10603W        W82132  13.736  39.488  13.941
10604W        W82133  26.954  17.708   2.312
10605W        W82134  39.410  37.356   4.133
10606W        W82135  41.813  26.945   0.792
10607W        W82136  43.879  43.705   3.775
10608W        W82137  27.488  36.842   2.204
10609W        W82138   6.447  41.774  12.104
10610W        W82139  22.783  25.254  11.935
10611W        W82140   5.801  35.476  11.439
10612W        W82141   5.884  24.693   3.247
10613W        W82142  23.399  11.747  13.474
10614W        W82143  19.673  26.899   1.915
10615W        W82144  35.589  28.729   4.636
10616W        W82145  28.572  34.869   3.358
10617W        W82146  39.860   3.714  12.915
10618W        W82147  22.640  25.159  14.330
10619W        W82148  22.145   5.018  14.904
10620W        W82149  36.840   4.492  14.880
10621W        W82150  20.577  18.440  14.003
10622W        W82151  37.407   7.364  12.912
10623W        W82152   2.007  18.852   4.168
10624W        W82153  17.564  34.884   4.269
10625W        W82154  43.017  15.499  14.395
10626W        W82155  14.066  22.184  13.289
10627W        W82156  25.561  37.815   4.623
10628W        W82157   1.444  17.167   0.870
10629W        W82158   2.958  26.034   2.327
10630W        W82159  15.467  31.693  14.696
10631W        W82160   5.639  37.927  14.039
10632W        W82161  43.157  18.270   3.227
10633W        W82162  30.824  42.871  12.002
10634W        W82163  35.302   7.705   2.117
10635W        W82164  39.315  44.045  10.673
10636W        W82165  18.396  30.814   4.997
10637W        W82166  12.826  24.200   4.107
10638W        W82167  27.662  44.404   2.353
10639W        W82168  20.733  20.085  11.047
10640W        W82169  30.087  12.721  10.279
10641W        W82170  23.118  36.128   4.441
10642W        W82171  17.503  40.547  12.469
10643W        W82172  32.102  15.792   1.843
10644W        W82173  26.407  19.744  14.467
10645W        W82174  16.463  29.179   1.239
10646W        W82175  36.479  30.573  14.356
10647W        W82176  23.162  39.023  13.458
10648W        W82177  25.412   1.383   0.301
10649W        W82178  12.648  21.975   0.280
10650W        W82179  28.008  25.134  13.410
10651W        W82180   9.689   8.684   1.024
10652W        W82181   6.121  36.087   9.741
10653W        W82182   3.693   4.033  14.985
10654W        W82183   3.726  31.137  14.868
10655W        W82184  13.932  21.589  11.678
10656W        W82185  33.162  37.620   0.768
10657W        W82186  33.376  38.538   1.782
10658W        W82187  39.890  29.387   2.316
10659W        W82188   6.633  17.736  13.419
10660W        W82189  17.727  24.741   2.960
10661W        W82190   8.665  30.902   0.013
10662W        W82191   9.865   3.235  11.843
10663W        W82192  18.208  21.769   0.851
10664W        W82193  27.699  43.490   2.255
10665W        W82194  30.753   9.315   4.597
10666W        W82195  21.120   7.172   3.957
10667W        W82196  24.871  28.471  13.051
10668W        W82197  28.996   6.701   0.570
10669W        W82198  43.307   8.746  14.997
10670W        W82199  30.527   6.238  10.555
10671W        W82200  21.713  27.056  13.486
10672W        W82201  25.706  38.189   0.849
10673W        W82202  16.639   4.994  13.501
10674W        W82203   2.428  29.368   4.336
10675W        W82204   9.823  19.698   1.894
10676W        W82205  24.330  25.442   1.426
10677W        W82206  32.459  21.649  11.519
10678W        W82207  38.495  19.110  13.968
10679W        W82208  24.458  42.138  12.086
10680W        W82209  18.761  20.201   2.276
10681W        W82210  30.952  30.477   3.041
10682W        W82211  39.004  32.031  12.038
10683W        W82212  27.643   2.940  12.079
10684W        W82213   5.783  12.443   0.964
10685W        W82214  31.400   4.326  12.024
10686W        W82215   4.818  36.575   1.857
10687W        W82216  10.179   0.453  11.995
10688W        W82217  13.291   7.918  11.146
10689W        W82218  25.625   5.634   2.720
10690W        W82219   9.098  39.342   2.268
10691W        W82220   5.909  10.680  13.032
10692W        W82221  18.679  21.815   4.855
10693W        W82222  26.285  32.006   2.766
10694W        W82223  18.360  27.880   5.104
10695W        W82224   3.907  12.864   2.879
10696W        W82225  14.649  43.953  14.995
10697W        W82226  20.969  21.245  11.792
10698W        W82227  28.402  14.753   0.883
10699W        W82228   9.992  38.901  13.804
10700W        W82229  23.439   6.225   2.222
10701W        W82230   2.749   0.772   4.820
10702W        W82231  10.369   8.620  13.232
10703W        W82232  29.519  32.907   0.791
10704W        W82233  30.568  31.911  13.113
10705W        W82234  19.949  18.258  10.652
10706W        W82235  15.604  23.501  10.213
10707W        W82236  26.166  32.552  11.075
10708W        W82237  32.146  11.109   1.416
10709W        W82238  33.137  15.748   4.495
10710W        W82239  19.053  37.438   2.193
10711W        W82240  44.511   5.281  11.133
10712W        W82241  23.131  39.397  12.132
10713W        W82242  18.145  29.193   4.065
10714W        W82243  15.802  13.569  10.417
10715W        W82244   4.784  22.590   1.126
10716W        W82245   4.515  39.590   0.779
10717W        W82246  23.423  28.823   4.491
10718W        W82247   4.772  25.122   4.677
10719W        W82248  43.797  41.778  12.551
10720W        W82249  36.764  31.633  14.783
10721W        W82250   7.788  19.728   3.009
10722W        W82251  26.428  17.777  14.386
10723W        W82252  17.513   5.821   2.591
10724W        W82253  14.224  19.213   1.361
10725W        W82254  12.056  41.738  12.330
10726W        W82255  19.159  21.329   3.719
10727W        W82256  24.921   4.221  14.569
10728W        W82257   6.488  28.452   9.951
10729W        W82258  30.548  40.586   1.809
10730W        W82259  10.293  43.699  11.489
10731W        W82260  39.547  23.148   4.845
10732W        W82261  18.637  33.097   1.617
10733W        W82262  44.299  30.740   1.835
10734W        W82263   3.499  25.959   5.019
10735W        W82264  32.027  30.353   0.419
10736W        W82265  19.637  23.628  14.056
10737W        W82266  43.391  20.082   1.781
10738W        W82267  26.452  19.071  10.805
10739W        W82268  22.970  28.017  10.737
10740W        W82269  38.602  28.616  13.734
10741W        W82270  13.698   0.833   1.377
10742W        W82271  26.645  36.928   0.216
10743W        W82272  26.608   6.724   5.055
10744W        W82273  19.991  25.639  11.493
10745W        W82274  28.020  34.973  13.102
10746W        W82275   1.944  26.558  10.475
10747W        W82276  36.458  32.996   1.684
10748W        W82277  18.317   2.811  11.579
10749W        W82278  28.119  11.127   1.297
10750W        W82279   0.021  40.501  11.524
10751W        W82280  29.407  42.075   3.197
10752W        W82281   5.408  22.544  11.150
10753W        W82282  44.237  18.516   4.123
10754W        W82283  17.434  33.905  12.013
10755W        W82284  13.675  33.868  12.549
10756W        W82285  23.053   2.547  13.351
10757W        W82286  12.044  39.514  12.866
10758W        W82287  18.985  42.528  11.133
10759W        W82288  23.323  30.589  12.013
10760W        W82289  12.351   8.433  13.601
10761W        W82290  21.532  25.967   0.893
10762W        W82291  33.621  40.422  11.712
10763W        W82292  41.542  25.900   4.155
10764W        W82293  16.223   6.580  14.897
10765W        W82294  33.001   3.768   3.373
10766W        W82295  41.486  43.975  12.295
10767W        W82296  30.078  37.585  10.980
10768W        W82297  18.303  33.018  13.450
10769W        W82298  10.711   7.986  12.003
10770W        W82299  19.576  37.317   4.575
10771W        W82300   9.871  19.509  11.994
10772W        W82301  12.335  34.189  12.559
10773W        W82302  19.733  17.980  13.336
10774W        W82303   9.188  36.918  14.283
10775W        W82304  11.192  16.115   1.477
10776W        W82305  23.100  41.898   5.652
10777W        W82306   5.344  10.395  14.262
10778W        W82307  18.664  42.085  14.781
10779W        W82308  39.001  29.414  13.092
10780W        W82309  19.214   8.336   2.362
10781W        W82310  16.501  35.039  13.846
10782W        W82311   4.662   8.757   3.120
10783W        W82312   0.912  21.706   2.931
10784W        W82313   4.325  36.584  14.785
10785W        W82314  40.774  30.563  10.976
10786W        W82315  25.984  40.611   0.829
10787W        W82316  44.969   0.822   3.304
10788W        W82317  20.750  12.225   0.040
10789W        W82318  43.917   6.445   4.172
10790W        W82319   0.716  22.107   0.881
10791W        W82320   0.967  43.257  13.904
10792W        W82321   9.148  27.418  12.176
10793W        W82322  13.749  24.177  12.064
10794W        W82323  40.583  31.343   4.998
10795W        W82324  15.274  30.205   0.133
10796W        W82325  31.448  32.499  13.569
10797W        W82326  14.128  26.716   4.164
10798W        W82327  44.520  18.298  10.227
10799W        W82328   2.445  40.529  11.119
10800W        W82329  21.681  17.109  12.543
10801W        W82330  15.330   5.325  13.906
10802W        W82331  32.146  41.405  10.811
10803W        W82332  28.554   5.126   2.151
10804W        W82333  26.489  20.273   3.102
10805W        W82334  12.705  30.648  10.659
10806W        W82335  17.082  21.145   1.873
10807W        W82336  42.049   7.777  13.395
10808W        W82337  13.699  10.202  14.791
10809W        W82338  33.316  38.395  10.285
10810W        W82339  15.741  32.488   1.896
10811W        W82340  14.254   3.217   1.410
10812W        W82341  39.480  18.331  14.047
10813W        W82342  41.090  40.276  12.068
10814W        W82343  42.421  39.268   1.817
10815W        W82344  33.073  18.142  12.940
10816W        W82345   3.315   5.049  12.184
10817W        W82346  41.321  30.845  14.999
10818W        W82347   9.769   5.281  11.103
10819W        W82348  28.431  15.601   2.281
10820W        W82349  14.680  38.573   3.250
10821W        W82350  38.892  12.055  13.867
10822W        W82351  17.719  39.548   1.142
10823W        W82352  29.844  29.439   2.557
10824W        W82353  13.137   1.260  14.810
10825W        W82354  11.826  35.979  12.157
10826W        W82355  35.950  41.519   0.249
10827W        W82356  21.576  34.116   4.059
10828W        W82357  42.544   8.024  13.364
10829W        W82358   4.698  13.253   0.191
10830W        W82359  17.096  37.655   2.242
10831W        W82360   8.920  29.551   3.092
10832W        W82361  19.313  21.325  14.436
10833W        W82362  14.036  44.501  12.499
10834W        W82363  31.191  34.033  11.039
10835W        W82364  42.245  33.293  11.477
10836W        W82365  18.214  31.422  14.203
10837W        W82366  21.661  31.526  12.203
10838W        W82367  23.733   1.004  11.107
10839W        W82368  32.978   0.298   4.705
10840W        W82369  27.670  19.079  14.127
10841W        W82370  44.536  32.541   4.948
10842W        W82371   6.351  15.917  10.598
10843W        W82372  26.612  30.855   2.326
10844W        W82373  38.678   3.719  14.154
10845W        W82374  34.441  31.462   0.386
10846W        W82375  10.880  32.690   0.908
10847W        W82376  11.757  22.715  13.289
10848W        W82377   7.961  25.689  14.804
10849W        W82378  15.866  37.059   5.135
10850W        W82379  19.461  34.712  14.467
10851W        W82380  31.812   2.915   0.707
10852W        W82381  28.990  10.196   2.672
10853W        W82382  23.104  13.514   4.645
10854W        W82383  18.808  22.890  11.513
10855W        W82384  27.754  24.132   0.476
10856W        W82385  24.904   4.744   2.200
10857W        W82386  33.057  16.285   4.356
10858W        W82387  43.453   4.773  10.611
10859W        W82388  12.195  44.839  11.012
10860W        W82389   1.897  28.645   4.587
10861W        W82390  20.677  43.397   2.751
10862W        W82391  42.191   6.268   1.485
10863W        W82392  22.521  24.731   0.805
10864W        W82393  32.236  33.006   2.765
10865W        W82394  19.230  42.987  10.246
10866W        W82395  15.187  16.088   3.407
10867W        W82396  35.047  17.289   3.587
10868W        W82397  34.043  33.805   1.638
10869W        W82398  32.378  16.212   1.690
10870W        W82399  38.345   5.994   3.861
10871W        W82400  40.308  26.717  10.284
10872W        W82401  43.949  29.822  13.772
10873W        W82402  15.641  37.825   4.524
10874W        W82403  17.714  36.515   4.097
10875W        W82404  11.062  32.554   0.353
10876W        W82405  28.057  38.090   1.827
10877W        W82406  25.157  30.139   2.522
10878W        W82407  26.714  29.900   2.229
10879W        W82408  21.082  39.395   2.783
10880W        W82409   7.491  29.670  10.807
10881W        W82410   3.114  16.784   4.911
10882W        W82411  19.692  20.996  10.168
10883W        W82412  23.935  36.005   2.755
10884W        W82413  37.536   0.502  14.334
10885W        W82414   8.679  10.746  11.107
10886W        W82415  28.950  29.530  11.553
10887W        W82416  22.762  10.255   1.903
10888W        W82417  41.235   8.675   4.262
10889W        W82418  20.326  25.581  14.868
10890W        W82419  29.414  44.054   3.820
10891W        W82420  27.167  19.097  14.244
10892W        W82421  29.725  27.487  12.002
10893W        W82422  20.624  21.880  11.196
10894W        W82423  36.945  38.519  14.036
10895W        W82424   1.844  13.057  12.880
10896W        W82425  20.037  25.266   3.668
10897W        W82426  12.282  44.935   3.659
10898W        W82427  42.814  26.572   0.803
10899W        W82428  11.622  36.308  11.114
10900W        W82429  42.775  41.368  10.749
10901W        W82430  44.202  29.575   4.500
10902W        W82431   6.298  41.628   3.140
10903W        W82432  39.980  12.591  13.548
10904W        W82433  10.315   2.336   0.496
10905W        W82434  18.956  34.627  11.648
10906W        W82435  26.335  37.501  14.893
10907W        W82436  28.433   2.791  13.364
10908W        W82437   4.189  36.263   3.860
10909W        W82438  11.918   9.197   4.064
10910W        W82439  37.015  37.671  13.665
10911W        W82440  15.107  10.166  12.017
10912W        W82441  40.108   3.365   1.476
10913W        W82442  13.084   5.098   4.640
10914W        W82443  20.268   4.433   3.565
10915W        W82444   0.750  21.173  11.338
10916W        W82445  17.197   8.203   0.740
10917W        W82446  35.805  39.450  11.570
10918W        W82447  27.653   4.954  10.036
10919W        W82448  19.604  19.197   4.420
10920W        W82449  19.779  10.610   4.604
10921W        W82450  17.018  31.977   0.396
10922W        W82451  20.010   2.702   4.491
10923W        W82452  37.039  11.476   2.762
10924W        W82453   1.163  15.126   1.904
10925W        W82454  13.271   7.664  11.605
10926W        W82455   5.296  28.504   4.313
10927W        W82456  41.065   5.683   4.126
10928W        W82457   3.601  20.648   0.227
10929W        W82458  32.069  13.568   3.712
10930W        W82459  11.257  10.388  13.761
10931W        W82460  17.164  36.514   2.181
10932W        W82461  11.547  11.156   3.939
10933W        W82462  24.446  14.816   4.634
10934W        W82463  23.912  17.547   0.796
10935W        W82464  36.289   1.941   0.018
10936W        W82465   7.501   3.169  10.308
10937W        W82466  37.926  27.657   1.707
10938W        W82467  39.864  19.615   4.150
10939W        W82468  40.815  34.902   0.482
10940W        W82469  34.197  15.611   1.252
10941W        W82470   1.686  22.788  11.074
10942W        W82471  41.777   4.825   2.184
10943W        W82472  37.492   2.685   5.073
10944W        W82473  36.568  11.811  13.857
10945W        W82474  38.061  29.546   2.638
10946W        W82475  40.767  34.887   2.276
10947W        W82476   6.697  28.454  13.901
10948W        W82477   4.402  36.879  14.363
10949W        W82478   3.187  23.181   1.897
10950W        W82479  41.034   3.230   1.185
10951W        W82480  16.158  24.670   3.599
10952W        W82481  29.504  21.478   0.514
10953W        W82482  26.798  31.478   4.873
10954W        W82483  33.048  42.545   1.161
10955W        W82484  21.954  33.470  11.558
10956W        W82485   6.235  34.517   0.969
10957W        W82486   1.264  31.723  12.513
10958W        W82487  23.383   0.863   0.259
10959W        W82488   9.146  28.131   0.439
10960W        W82489  16.269   5.781   4.043
10961W        W82490  23.470  25.951  14.349
10962W        W82491   1.508  17.439   2.191
10963W        W82492  17.288  27.138  12.848
10964W        W82493  37.596   8.111  13.350
10965W        W82494  33.155  11.527  11.202
10966W        W82495  40.484  41.538   0.319
10967W        W82496  18.801  16.537  14.825
10968W        W82497  11.383  29.069   4.739
10969W        W82498  24.716  35.899   2.373
10970W        W82499   1.535  32.417  11.179
10971W        W82500  25.441  40.498  14.537
10972W        W82501  10.666  33.451  10.700
10973W        W82502  11.615   5.775   4.670
10974W        W82503  37.090  28.535  11.122
10975W        W82504  42.386  30.071  10.530
10976W        W82505  11.753  38.340  14.315
10977W        W82506  12.280  31.548  13.509
10978W        W82507   5.908  29.041  11.339
10979W        W82508   3.210  18.711   1.239
10980W        W82509   2.452   7.732  10.905
10981W        W82510  21.979   8.830  12.598
10982W        W82511  21.290  30.084  11.472
10983W        W82512  25.721  28.440  10.587
10984W        W82513  19.508  19.938  10.540
10985W        W82514  40.907  24.700  11.401
10986W        W82515   4.769  35.881   3.273
10987W        W82516   1.195  13.067  13.500
10988W        W82517  21.759  27.231  12.438
10989W        W82518  11.673  39.115  13.987
10990W        W82519  16.335  41.391   4.415
10991W        W82520   5.446   6.455   1.759
10992W        W82521  14.805  11.407  11.125
10993W        W82522  13.763  12.795   1.125
10994W        W82523  40.872  23.688   1.179
10995W        W82524  11.072  35.582   0.904
10996W        W82525  22.195  34.724   4.601
10997W        W82526  15.843  10.666  12.034
10998W        W82527  16.084  17.628  12.539
10999W        W82528  23.106  20.407   3.506
11000W        W82529  29.929  42.751  10.443
11001W        W82530  13.361  25.178   4.226
11002W        W82531   1.214  42.502   0.381
11003W        W82532   8.139  10.246  14.442
11004W        W82533  10.324  26.061  11.477
11005W        W82534  27.015  15.391   2.252
11006W        W82535  26.883  25.934   4.155
11007W        W82536  26.240  10.642  11.146
11008W        W82537  19.182  41.870   4.137
11009W        W82538  18.306  34.084   2.708
11010W        W82539   2.945   5.385  12.361
11011W        W82540  29.090  44.315  10.449
11012W        W82541  38.539  38.078  10.524
11013W        W82542   6.277  28.117  11.086
11014W        W82543  23.576  27.889   3.298
11015W        W82544  36.494  19.045   4.613
11016W        W82545  27.448  35.840   3.334
11017W        W82546  17.728  15.730   4.386
11018W        W82547  21.171   1.218  14.932
11019W        W82548  37.269  27.375  14.911
11020W        W82549  29.847  36.247  12.516
11021W        W82550   5.509  10.740   1.822
11022W        W82551  10.692  16.437   3.710
11023W        W82552  10.298   3.856  14.771
11024W        W82553  34.448  41.293   3.836
11025W        W82554  14.820  39.709  12.821
11026W        W82555  35.577  15.173  12.130
11027W        W82556  33.407  27.497   2.251
11028W        W82557  41.547  25.568  13.935
11029W        W82558   3.809   5.567   0.937
11030W        W82559  39.918  41.279  11.342
11031W        W82560   3.742  28.848   4.217
11032W        W82561  41.094   7.691   4.085
11033W        W82562   0.424  44.520  14.851
11034W        W82563   5.296  36.844  12.797
11035W        W82564  14.460  13.809  11.306
11036W        W82565  10.385  37.638  13.439
11037W        W82566   3.989   1.944  12.003
11038W        W82567  31.358  12.890   1.805
11039W        W82568  42.940   5.737   3.096
11040W        W82569   7.674  12.634   0.268
11041W        W82570   8.196  23.133  13.404
11042W        W82571   7.948  10.440   1.510
11043W        W82572  15.387   4.743   0.956
11044W        W82573  29.886  31.982  13.334
11045W        W82574  29.152  37.281   0.317
11046W        W82575  29.016   1.326   2.217
11047W        W82576  36.462   2.283   4.108
11048W        W82577  36.764  29.214  14.900
11049W        W82578   5.373   5.036  13.434
11050W        W82579  41.225  36.628  14.765
11051W        W82580   9.351  24.576   3.373
11052W        W82581  36.778  41.995   0.096
11053W        W82582   9.718  11.127   2.402
11054W        W82583   3.784  13.130  13.415
11055W        W82584  18.373  38.824   0.927
11056W        W82585   1.348  36.639   2.736
11057W        W82586  19.056   1.268   4.589
11058W        W82587  42.812  14.884   1.769
11059W        W82588  21.697  33.079  14.793
11060W        W82589  25.522   9.636  14.706
11061W        W82590  33.449   8.864   2.964
11062W        W82591  14.656   2.912   3.185
11063W        W82592   9.970   9.900  12.263
11064W        W82593  10.208  43.025  12.304
11065W        W82594  22.122   6.354   3.759
11066W        W82595  41.949  16.656  13.868
11067W        W82596  37.978  13.334   3.303
11068W        W82597  10.237  36.606  12.428
11069W        W82598  42.379  25.422  14.909
11070W        W82599  38.146  32.679  14.621
11071W        W82600  31.182   0.824  12.943
11072W        W82601  10.700  32.285   1.171
11073W        W82602  19.987  31.629  13.736
11074W        W82603  39.812  32.592  12.179
11075W        W82604  20.023   7.672  13.591
11076W        W82605  38.084   0.244   2.414
11077W        W82606  14.536  25.720   0.568
11078W        W82607  16.162  23.415   1.259
11079W        W82608  14.053  42.146   2.607
11080W        W82609  19.778  30.105  11.650
11081W        W82610   0.861  25.102   2.178
11082W        W82611  37.880  13.084   4.630
11083W        W82612  12.827  28.815  11.293
11084W        W82613  32.674  16.571   3.474
11085W        W82614   2.426  28.129   1.274
11086W        W82615  12.723  26.748   2.343
11087W        W82616  39.801  18.218  12.866
11088W        W82617  30.927  28.285   1.872
11089W        W82618  19.247   4.718  10.445
11090W        W82619   1.971  19.711   0.455
11091W        W82620   5.664  42.912  11.117
11092W        W82621  34.499  16.760   3.209
11093W        W82622  14.283   1.574   3.296
11094W        W82623  44.334  13.149   0.306
11095W        W82624  20.550  22.603   3.159
11096W        W82625  29.601  27.462  12.496
11097W        W82626  24.251  11.391  14.543
11098W        W82627  16.205  29.963  13.879
11099W        W82628  36.590  26.491  10.720
11100W        W82629  10.092   1.577   5.042
11101W        W82630  33.449   1.698   9.966
11102W        W82631  21.743  27.906   3.234
11103W        W82632  12.892   6.299  13.865
11104W        W82633   0.997  38.168   2.103
11105W        W82634   1.269  24.987  14.852
11106W        W82635  34.986  11.794  12.057
11107W        W82636  26.972   7.642   4.580
11108W        W82637   0.968   3.785   4.744
11109W        W82638   1.283  13.130   3.711
11110W        W82639  13.848  13.849   3.642
11111W        W82640   4.288   7.129   1.953
11112W        W82641  17.813   5.932   1.152
11113W        W82642   5.579  11.213   0.841
11114W        W82643  12.228  35.850   3.397
11115W        W82644  33.148   9.575  10.047
11116W        W82645  42.880  20.400   3.748
11117W        W82646  40.514  36.838   4.483
11118W        W82647  35.543  19.858   0.266
11119W        W82648  24.665   0.166   2.844
11120W        W82649  20.787  32.984   0.638
11121W        W82650  28.854  11.255   0.786
11122W        W82651   8.833  13.093   3.709
11123W        W82652  37.238  38.433   1.315
11124W        W82653  26.644  16.014  14.941
11125W        W82654  41.315  24.737   2.892
11126W        W82655  20.268  16.814  11.159
11127W        W82656  29.927  38.503   2.328
11128W        W82657  25.693  14.330  14.179
11129W        W82658  25.162   2.839  11.463
11130W        W82659  10.655  29.978   1.237
11131W        W82660   6.675   8.190   1.779
11132W        W82661  29.563   5.836  10.696
11133W        W82662  10.342  36.499  10.687
11134W        W82663  34.165  21.557  11.089
11135W        W82664  43.090  14.262  12.429
11136W        W82665  21.096  39.261  10.362
11137W        W82666  17.157  12.656   0.016
11138W        W82667  31.363  32.981   1.983
11139W        W82668  15.206  26.573   0.413
11140W        W82669  29.115  25.781  11.989
11141W        W82670  40.607  27.894   2.244
11142W        W82671  30.670  16.637   4.243
11143W        W82672   3.446   4.944  11.207
11144W        W82673   5.953  39.314   1.841
11145W        W82674  11.601  30.531   1.137
11146W        W82675  31.103   5.845  14.739
11147W        W82676  16.700  41.914  12.918
11148W        W82677  14.189   8.390   5.002
11149W        W82678  38.875  30.919   2.879
11150W        W82679  34.279  20.258   3.209
11151W        W82680  18.223  12.998   4.743
11152W        W82681  37.608  24.726   3.843
11153W        W82682  34.901  14.062  13.564
11154W        W82683  18.346  33.517   4.613
11155W        W82684  29.942  10.544   4.081
11156W        W82685  14.822   7.579  12.406
11157W        W82686  28.475  27.816  12.979
11158W        W82687  24.056   4.735  14.892
11159W        W82688   9.374  29.023   0.450
11160W        W82689  25.854  41.418  11.954
11161W        W82690  44.723  22.998  11.504
11162W        W82691   5.054   9.417  12.379
11163W        W82692  20.097  38.450   2.161
11164W        W82693  27.716  16.650   4.014
11165W        W82694  40.133  27.287   1.661
11166W        W82695  30.400  12.756  11.636
11167W        W82696  23.032  33.435   2.677
11168W        W82697  35.069  26.782   5.081
11169W        W82698  32.169   8.928  12.696
11170W        W82699   7.167  15.034  13.076
11171W        W82700  44.340   5.743   1.438
11172W        W82701  16.788   9.809  14.887
11173W        W82702  24.823   4.616  12.814
11174W        W82703   6.692  38.796  12.103
11175W        W82704  18.763  18.622  10.744
11176W        W82705   2.563  36.460  14.387
11177W        W82706  25.658  14.602   1.531
11178W        W82707  30.013  13.388  12.472
11179W        W82708  32.619  43.951  13.508
11180W        W82709   8.903  22.050  10.833
11181W        W82710  13.411  40.577  13.036
11182W        W82711  20.060  22.687   4.638
11183W        W82712  38.154  12.292   3.923
11184W        W82713  19.568  10.561  13.031
11185W        W82714  16.149  27.928   4.524
11186W        W82715   1.955   1.958   1.412
11187W        W82716  12.784  42.782   4.191
11188W        W82717  27.488  42.485  13.496
11189W        W82718  41.715   7.599   2.436
11190W        W82719  41.127  22.628  12.855
11191W        W82720  23.234  38.024  13.351
11192W        W82721  28.079  25.453  15.000
11193W        W82722  27.527  35.989  14.907
11194W        W82723  43.935  19.969   3.265
11195W        W82724  14.618  17.438   1.157
11196W        W82725  25.278  18.835   2.931
11197W        W82726  39.468   2.815   2.866
11198W        W82727  22.799   9.729  12.007
11199W        W82728  11.084  12.231  12.801
11200W        W82729  13.373   9.869   0.809
11201W        W82730   8.229  36.413  11.602
11202W        W82731  27.598  12.505  10.655
11203W        W82732  44.785  41.411   0.328
11204W        W82733  10.204  23.250   2.983
11205W        W82734  14.909  28.204   4.535
11206W        W82735  23.035   2.241  12.899
11207W        W82736   6.376  18.715  14.824
11208W        W82737  44.397  25.439   2.874
11209W        W82738   7.134   6.864   3.310
11210W        W82739  44.749  17.538   2.829
11211W        W82740  34.540  28.018  13.948
11212W        W82741  20.040  20.730   2.978
11213W        W82742  15.364  24.198  13.032
11214W        W82743  11.683  39.967   0.414
11215W        W82744  44.996   4.295   1.434
11216W        W82745  38.587  20.228  14.374
11217W        W82746  16.011  42.917   4.824
11218W        W82747  24.942  17.575  13.042
11219W        W82748  30.967   8.701   0.187
11220W        W82749  35.649   8.883  13.081
11221W        W82750  10.278   9.101   2.702
11222W        W82751   1.967  44.567   9.944
11223W        W82752   8.968   2.330  10.337
11224W        W82753  15.555   8.729  14.506
11225W        W82754   6.688  23.060   1.305
11226W        W82755  27.912  43.271  11.726
11227W        W82756   4.449  40.883  14.353
11228W        W82757  14.965   7.845   2.400
11229W        W82758  44.007   1.394   2.225
11230W        W82759  14.109  36.097  11.855
11231W        W82760  19.814  23.201  13.339
11232W        W82761  23.525   7.333  12.863
11233W        W82762  32.936  39.700  13.204
11234W        W82763  21.467  24.726  13.035
11235W        W82764  36.409  44.171  11.074
11236W        W82765  44.255  40.189   2.203
11237W        W82766   9.412  27.400   2.512
11238W        W82767  26.026   7.315  13.579
11239W        W82768  28.636  32.960   0.675
11240W        W82769  27.531  35.194   0.740
11241W        W82770  30.882   6.872  11.773
11242W        W82771  20.589  23.865  11.617
11243W        W82772   8.733  12.248   1.431
11244W        W82773   0.695  34.886   3.112
11245W        W82774  19.751   1.325  13.373
11246W        W82775  11.847  35.122   3.159
11247W        W82776  13.638   6.788  14.045
11248W        W82777  23.211  21.142  11.471
11249W        W82778  14.305  41.929  12.977
11250W        W82779  13.208  27.757   1.146
11251W        W82780  17.196   5.029   4.548
11252W        W82781   3.314   2.490   1.036
11253W        W82782  15.550   3.456   4.179
11254W        W82783  12.772  28.455   0.043
11255W        W82784  26.201  19.611   4.268
11256W        W82785   0.763   6.816   0.218
11257W        W82786  43.470  12.762  14.286
11258W        W82787  37.091  16.222   1.950
11259W        W82788  23.686  10.416   4.075
11260W        W82789  10.083  15.219   1.335
11261W        W82790  28.066   9.640   3.211
11262W        W82791  24.328  21.714   2.732
11263W        W82792  12.516   3.242   4.543
11264W        W82793  12.101   5.367  11.949
11265W        W82794   3.451  21.487   1.891
11266W        W82795  32.067   1.948  11.554
11267W        W82796  12.860  15.345  11.999
11268W        W82797   6.481  11.799   0.930
11269W        W82798   1.501   0.573  10.718
11270W        W82799   9.807  12.198  13.464
11271W        W82800  13.736  16.706   3.726
11272W        W82801  38.520  34.174   0.865
11273W        W82802  31.405  36.821  14.213
11274W        W82803  13.138  41.541  14.752
11275W        W82804   9.931   2.268   3.976
11276W        W82805  24.280  34.024   2.318
11277W        W82806  11.060  33.344  14.291
11278W        W82807  26.022  10.675  12.141
11279W        W82808  42.376  38.553   4.440
11280W        W82809  41.107   4.171   2.164
11281W        W82810  28.372  42.498  11.609
11282W        W82811  26.768  34.458  13.354
11283W        W82812  14.612  11.906   4.244
11284W        W82813   8.729  38.086  13.959
11285W        W82814  33.491  43.905  12.670
11286W        W82815  32.877  37.141  14.286
11287W        W82816  13.770  19.723  12.816
11288W        W82817  11.617   5.522  11.979
11289W        W82818  31.011  22.854  10.200
11290W        W82819  28.008  18.315   1.614
11291W        W82820  37.740  16.769   2.866
11292W        W82821  18.744  32.637   1.873
11293W        W82822  28.180  34.597   1.256
11294W        W82823  19.775  26.072   0.357
11295W        W82824  12.201  42.270   1.108
11296W        W82825   5.902  38.880   4.615
11297W        W82826   2.005  11.242  12.625
11298W        W82827   6.391  44.921   0.962
11299W        W82828  26.344   2.078  14.727
11300W        W82829  28.578  20.284  14.384
11301W        W82830  30.784  33.883  14.437
11302W        W82831  21.207  19.784  13.425
11303W        W82832   1.471  20.561   2.380
11304W        W82833  17.516   3.095   2.332
11305W        W82834  43.207  16.637   3.326
11306W        W82835  15.856  28.727  12.583
11307W        W82836  26.287  12.653  11.884
11308W        W82837  23.226   6.128   1.238
11309W        W82838  14.259  37.854   4.097
11310W        W82839  16.786   2.268   3.299
11311W        W82840   7.676  13.338  14.438
11312W        W82841  37.086  28.041  12.457
11313W        W82842  38.083  25.695   4.532
11314W        W82843  42.743  24.929  14.046
11315W        W82844   9.660   6.404   2.924
11316W        W82845  39.524  16.837  14.036
11317W        W82846  26.451   1.080   1.389
11318W        W82847   7.452  39.376  11.150
11319W        W82848   4.967  37.357   4.037
11320W        W82849  29.776  38.550  14.701
11321W        W82850  23.530  29.476   0.778
11322W        W82851  43.073   0.841  13.053
11323W        W82852  22.196  38.831  14.825
11324W        W82853  38.826   8.178   0.507
11325W        W82854  33.397   4.922  11.007
11326W        W82855   8.730  34.846  12.272
11327W        W82856  20.834   8.288  12.980
11328W        W82857  37.822  18.358   0.215
11329W        W82858   0.959  25.364   0.831
11330W        W82859  39.544  11.289  10.630
11331W        W82860  13.732  12.203  11.887
11332W        W82861   9.324  14.684  12.067
11333W        W82862  12.527   9.089   1.861
11334W        W82863  42.272  16.369  13.575
11335W        W82864   8.787  18.036  11.471
11336W        W82865  38.898   8.201  14.469
11337W        W82866   9.558   7.633  11.949
11338W        W82867  43.722  26.808   0.585
11339W        W82868  34.583  37.879   0.352
11340W        W82869  36.146  38.966   3.696
11341W        W82870  29.295  31.893   0.280
11342W        W82871   7.582   8.216  10.805
11343W        W82872   7.718   4.379   3.655
11344W        W82873  36.374  14.753   1.674
11345W        W82874   2.647  41.201  14.971
11346W        W82875  38.008  39.927  13.545
11347W        W82876  16.729  20.917  13.760
11348W        W82877  28.393   0.911   1.340
11349W        W82878  36.368  10.848   3.626
11350W        W82879  33.327   7.226  12.180
11351W        W82880  16.685  12.206   3.371
11352W        W82881   1.782  21.813   2.596
11353W        W82882  31.870  26.441   0.457
11354W        W82883  13.093  42.761   2.618
11355W        W82884  32.876   9.851   4.523
11356W        W82885  34.439  13.824   1.316
11357W        W82886  43.436  44.734  14.366
11358W        W82887  31.740  39.214  12.034
11359W        W82888  21.803  14.125  10.677
11360W        W82889  43.295  37.040  11.997
11361W        W82890  27.500   1.303   1.246
11362W        W82891  39.595  26.344  10.169
11363W        W82892  16.272  33.973   2.148
11364W        W82893  29.478  32.217  10.721
11365W        W82894  15.766  25.483  11.573
11366W        W82895  10.402  15.112  12.560
11367W        W82896   9.220  34.594   0.449
11368W        W82897  23.768   1.126  14.510
11369W        W82898  28.758  37.975  10.581
11370W        W82899  38.590   1.369   0.687
11371W        W82900  19.801  34.457   2.165
11372W        W82901  40.799  21.616  10.735
11373W        W82902   8.179  11.722  11.282
11374W        W82903  19.606  10.374  11.611
11375W        W82904  14.285  39.771  11.066
11376W        W82905  32.329  23.468   0.042
11377W        W82906  35.634  12.563   1.111
11378W        W82907  39.404  14.374  13.230
11379W        W82908  30.671  16.579   1.938
11380W        W82909   0.156  40.452  11.014
11381W        W82910  23.719   2.553   0.418
11382W        W82911   7.204  37.957  14.966
11383W        W82912   8.386  24.914  14.043
11384W        W82913   5.511  43.310  11.530
11385W        W82914  21.182  28.645   3.991
11386W        W82915  35.419  39.327  11.229
11387W        W82916  42.157  17.061  11.193
11388W        W82917  14.845  16.741   2.825
11389W        W82918  13.757  12.409   4.216
11390W        W82919  29.605   5.719  12.634
11391W        W82920   8.700  10.214   3.321
11392W        W82921  31.664   3.364  12.281
11393W        W82922   9.049  15.301  11.173
11394W        W82923  44.177  11.559  12.632
11395W        W82924  16.734   7.420  13.294
11396W        W82925  35.299   4.926  10.719
11397W        W82926  13.783  16.804   1.422
11398W        W82927  14.193  22.155   4.319
11399W        W82928  10.164  40.093   1.437
11400W        W82929   6.423  11.819   0.028
11401W        W82930  39.879  14.036   2.630
11402W        W82931   4.620  34.443   0.773
11403W        W82932  11.065  20.183   4.497
11404W        W82933  13.079  32.195   1.855
11405W        W82934  23.118  14.114  14.098
11406W        W82935  31.939  24.585   3.717
11407W        W82936  43.749  15.782   3.322
11408W        W82937  19.095   2.324   2.597
11409W        W82938  39.864   3.881   2.107
11410W        W82939  15.252  19.445   2.299
11411W        W82940  14.652   8.970  13.554
11412W        W82941  26.564   3.071  10.776
11413W        W82942   8.353  11.462   1.857
11414W        W82943  22.833   8.627  10.275
11415W        W82944  25.296  32.059  13.343
11416W        W82945  28.655  25.157   5.132
11417W        W82946  42.736  19.051   1.686
11418W        W82947   1.860  12.420  13.740
11419W        W82948  43.862  13.731   1.809
11420W        W82949  11.134  35.083   4.091
11421W        W82950  12.210  32.664  11.115
11422W        W82951  40.918   9.472  14.320
11423W        W82952  29.880   8.749  11.377
11424W        W82953  42.451  11.216  11.616
11425W        W82954  23.490  39.244   4.178
11426W        W82955  12.318  24.535   0.948
11427W        W82956  13.851   7.150  11.724
11428W        W82957  44.831  39.338   2.347
11429W        W82958  37.378  42.722  11.345
11430W        W82959  11.770  19.309  13.341
11431W        W82960  30.836  37.985  12.515
11432W        W82961  16.232   6.354  10.604
11433W        W82962   6.407  21.152   3.154
11434W        W82963  25.452  26.654   4.142
11435W        W82964  25.068  17.234  14.006
11436W        W82965  32.055   3.226   2.806
11437W        W82966   8.601   4.328   3.383
11438W        W82967  35.553  16.076   3.415
11439W        W82968  36.564  26.682   2.315
11440W        W82969  31.419  36.085  10.631
11441W        W82970  29.464  34.958   4.200
11442W        W82971   9.273   8.155  13.301
11443W        W82972  25.723   6.110   2.484
11444W        W82973  12.607  18.670  12.942
11445W        W82974  37.830   6.447   1.443
11446W        W82975  18.338  14.762   0.299
11447W        W82976  35.356   9.754  12.477
11448W        W82977   7.081  36.479  14.594
11449W        W82978  31.612  25.690  14.837
11450W        W82979   6.614  39.830   3.094
11451W        W82980  30.112  29.061   1.442
11452W        W82981  38.845  30.665  14.908
11453W        W82982   6.496  38.366   1.878
11454W        W82983  35.523  30.437  14.492
11455W        W82984  24.631  22.496   2.307
11456W        W82985   5.238  28.337   1.318
11457W        W82986  12.573   5.254  12.075
11458W        W82987  41.818  21.093  12.171
11459W        W82988  26.057  43.324  14.677
11460W        W82989  33.605  36.990  11.558
11461W        W82990  37.802   3.351  11.981
11462W        W82991   0.348   5.449   4.394
11463W        W82992  28.470  42.918  10.555
11464W        W82993   5.418  30.018  14.072
11465W        W82994   3.921  41.899  14.862
11466W        W82995   5.465  21.490   4.478
11467W        W82996  42.308   7.282  12.685
11468W        W82997  17.310   4.894   2.770
11469W        W82998  41.451  39.749   0.972
11470W        W82999  31.629  30.622   0.272
11471W        W83000  39.901  29.098   1.904
11472W        W83001   0.829   7.843  12.844
11473W        W83002  37.870  11.729  13.578
11474W        W83003  37.420  27.649  12.612
11475W        W83004  44.970  27.503   0.275
11476W        W83005  26.483  22.662   3.852
11477W        W83006  36.467  28.126   4.600
11478W        W83007  32.124  34.514   4.563
11479W        W83008  35.414  10.247  13.018
11480W        W83009  43.249  44.280  12.993
11481W        W83010  42.580  37.453  14.480
11482W        W83011  12.905  39.826  10.618
11483W        W83012  37.211  41.536   9.411
11484W        W83013   5.257   5.700   2.324
11485W        W83014   2.066  29.544  12.029
11486W        W83015  16.101  42.764  13.730
11487W        W83016  32.433   0.433  14.593
11488W        W83017  38.989  17.996  13.375
11489W        W83018  42.258  15.208  14.692
11490W        W83019  29.063  26.570  13.201
11491W        W83020   4.781   3.955  10.576
11492W        W83021   5.068   8.855   0.916
11493W        W83022  34.964   8.175  14.786
11494W        W83023  32.251  43.731   2.616
11495W        W83024  10.971   5.429  10.707
11496W        W83025  17.687  26.683   0.215
11497W        W83026  35.390  42.278  12.948
11498W        W83027  10.697  39.615   3.822
11499W        W83028  13.421  11.189   4.567
11500W        W83029  32.599  42.471   4.240
11501W        W83030  34.022  30.024  13.826
11502W        W83031  17.810   2.330  14.273
11503W        W83032  17.410  34.541  11.683
11504W        W83033   2.414   6.518   5.040
11505W        W83034  17.747   9.178  11.035
11506W        W83035  41.972   0.186   1.962
11507W        W83036  13.315  22.275   1.429
11508W        W83037  43.365  34.091  13.983
11509W        W83038  15.445  35.833  14.057
11510W        W83039   8.359   4.350  13.921
11511W        W83040  16.942  14.111  10.861
11512W        W83041  22.059  27.957   3.671
11513W        W83042  25.683  27.435  14.554
11514W        W83043  23.876  37.651   1.226
11515W        W83044  43.120  40.567  10.970
11516W        W83045  35.919  17.005   2.591
11517W        W83046  40.082  24.977  14.414
11518W        W83047  39.362   8.256   1.289
11519W        W83048  44.763  36.819  10.634
11520W        W83049  25.361  27.315  12.719
11521W        W83050  25.173  20.245   2.353
11522W        W83051  40.590  15.498   4.999
11523W        W83052   7.981  19.187   5.022
11524W        W83053   9.125   3.396   1.687
11525W        W83054   8.387  23.990  14.456
11526W        W83055   8.541   6.695   0.447
11527W        W83056   7.816  15.434   4.024
11528W        W83057  21.212  33.595   2.279
11529W        W83058  39.048  15.310   2.366
11530W        W83059  38.224  19.269   1.988
11531W        W83060  41.795  20.023  12.566
11532W        W83061  17.782   9.613   3.937
11533W        W83062   1.242  12.560  13.502
11534W        W83063  18.309  35.042   4.273
11535W        W83064  41.983  24.404  10.424
11536W        W83065   5.500   0.390  12.028
11537W        W83066   6.265  27.707  13.447
11538W        W83067   5.856  35.200  13.424
11539W        W83068  17.398  39.950   3.609
11540W        W83069  11.744  41.005   4.328
11541W        W83070  15.555  12.320   2.456
11542W        W83071  17.128  15.257  10.717
11543W        W83072  16.565  26.222  12.357
11544W        W83073  24.968  37.540   3.157
11545W        W83074  26.175  28.733   3.802
11546W        W83075  20.398  16.262  12.348
11547W        W83076  39.909  35.436   1.974
11548W        W83077  34.838  37.362  13.964
11549W        W83078  28.162  13.827  11.539
11550W        W83079  40.898   0.177  10.474
11551W        W83080  11.537  32.416   1.254
11552W        W83081  37.780  14.804   1.174
11553W        W83082  38.243   0.530  11.506
11554W        W83083   1.294  19.493  11.260
11555W        W83084   0.746  13.124  14.570
11556W        W83085  23.244  38.999   3.079
11557W        W83086  39.454  27.250   2.288
11558W        W83087  33.860   2.900   0.432
11559W        W83088  22.802  31.439  12.114
11560W        W83089  31.431  30.298  11.580
11561W        W83090  23.727   4.759  14.485
11562W        W83091  32.730   4.150   1.018
11563W        W83092  14.753   9.840  11.602
11564W        W83093  20.390  19.514  13.784
11565W        W83094  13.192  14.345  12.968
11566W        W83095  36.803  25.649  12.441
11567W        W83096  37.877  41.538   2.117
11568W        W83097  24.732  20.051  13.856
11569W        W83098  12.200  10.617   0.782
11570W        W83099  34.288  33.470  10.422
11571W        W83100   6.459  20.132  11.040
11572W        W83101   3.350  29.724   5.036
11573W        W83102  28.547   7.919  14.354
11574W        W83103   4.344  36.586   3.482
11575W        W83104   2.415   6.505   4.508
11576W        W83105  21.474  25.069   2.364
11577W        W83106  30.133  21.248  12.438
11578W        W83107  30.249  17.755   3.906
11579W        W83108  20.104  20.145  14.546
11580W        W83109  42.364   8.198  14.278
11581W        W83110  38.089  12.817   1.374
11582W        W83111  13.152  33.808  12.810
11583W        W83112  10.410  16.712   2.378
11584W        W83113  38.127  17.562  12.358
11585W        W83114   2.181  40.384   4.839
11586W        W83115  22.590   3.782   4.881
11587W        W83116  37.389  44.308  14.217
11588W        W83117  26.617   0.271   3.677
11589W        W83118  28.281  31.640  10.291
11590W        W83119  17.094  30.614   3.671
11591W        W83120  11.881  38.435   2.690
11592W        W83121  25.569  14.221   4.654
11593W        W83122   5.565  27.659   2.697
11594W        W83123  20.465  15.755  10.799
11595W        W83124  25.477  29.132   1.895
11596W        W83125   2.025  41.461   2.719
11597W        W83126  17.372  18.314  14.183
11598W        W83127  12.708  36.593  14.067
11599W        W83128  37.486   4.349   0.702
11600W        W83129   6.941  33.568   1.241
11601W        W83130  38.509  29.582   0.482
11602W        W83131   1.865  42.788  14.007
11603W        W83132  22.866  32.940  10.661
11604W        W83133  37.530   8.316  14.823
11605W        W83134  17.349  32.316   2.151
11606W        W83135  20.734   8.084  10.955
11607W        W83136  10.215   9.778  12.742
11608W        W83137  37.289  14.657   1.175
11609W        W83138  15.515  41.006  14.774
11610W        W83139  23.694  37.871   4.330
11611W        W83140  40.009  38.428  12.481
11612W        W83141  12.865  14.254   4.785
11613W        W83142  15.215   6.412  13.168
11614W        W83143  22.980  40.677   9.938
11615W        W83144   6.884  42.214  13.311
11616W        W83145  29.045  19.502  11.152
11617W        W83146   7.323  13.593   0.833
11618W        W83147  40.443  33.925  11.975
11619W        W83148  43.954   1.493  14.710
11620W        W83149  14.571  28.345  12.534
11621W        W83150  18.657  25.591   4.882
11622W        W83151  32.347   8.271   2.736
11623W        W83152  34.741  37.146  12.395
11624W        W83153  40.926  27.680   1.595
11625W        W83154  40.577   3.167   1.416
11626W        W83155  19.078  37.793  14.005
11627W        W83156  43.994  22.013   1.522
11628W        W83157  25.008  25.950   2.262
11629W        W83158  37.463  38.440   2.409
11630W        W83159  29.500  44.857  10.637
11631W        W83160  39.348  18.016   5.029
11632W        W83161   2.195   0.481   3.643
11633W        W83162  10.744   7.464  11.165
11634W        W83163   3.229  41.915   2.307
11635W        W83164  44.808  14.145  12.029
11636W        W83165  15.755   5.268   4.917
11637W        W83166  19.110  25.125  11.873
11638W        W83167   5.309  42.773  13.600
11639W        W83168  41.967  30.897   3.318
11640W        W83169  16.649  40.492   0.552
11641W        W83170  24.986  31.970  12.952
11642W        W83171   6.196  12.201   1.681
11643W        W83172  41.314  28.435   2.338
11644W        W83173   6.577  39.002  14.272
11645W        W83174  43.826   9.421   4.140
11646W        W83175  33.977  24.798   5.068
11647W        W83176  20.552  36.454   3.829
11648W        W83177  21.633   2.153   0.420
11649W        W83178  21.194  11.874  10.936
11650W        W83179  12.741  10.751   2.132
11651W        W83180   6.280  15.119  12.973
11652W        W83181  25.786  37.146  14.414
11653W        W83182  37.247  40.087  10.818
11654W        W83183  12.659  29.197  13.597
11655W        W83184  23.622  24.975   3.381
11656W        W83185  17.285  33.602   3.295
11657W        W83186   7.202  23.328  13.351
11658W        W83187  27.009  43.696   1.228
11659W        W83188  31.530  22.180   0.559
11660W        W83189  26.381   5.963   0.295
11661W        W83190  31.915  11.658  12.124
11662W        W83191   5.734  35.835   1.414
11663W        W83192  35.842  32.555   2.841
11664W        W83193  35.042  19.655   0.316
11665W        W83194  27.576  16.407   1.727
11666W        W83195  22.260   7.990   0.288
11667W        W83196  34.563  12.641   2.075
11668W        W83197   5.384  32.843  12.971
11669W        W83198  11.158  43.189  12.768
11670W        W83199  30.941  38.302   4.473
11671W        W83200  10.637  16.244  11.537
11672W        W83201  12.723  42.433  12.072
11673W        W83202   0.836  30.398  11.503
11674W        W83203  23.091   9.291  14.395
11675W        W83204  31.569  13.702   2.245
11676W        W83205  16.931  13.723  14.501
11677W        W83206  19.568  37.853  12.444
11678W        W83207   7.063  27.663  14.106
11679W        W83208   2.995   1.245  12.138
11680W        W83209  23.529  29.242  11.950
11681W        W83210  42.397   7.183   2.486
11682W        W83211   3.859  24.135   5.176
11683W        W83212  29.003  32.840   4.598
11684W        W83213  28.042  18.992  13.463
11685W        W83214  39.271  19.197  12.090
11686W        W83215   8.716   7.879   2.779
11687W        W83216   4.229   0.435   1.347
11688W        W83217   2.946   9.292   1.357
11689W        W83218  19.873  17.116  14.427
11690W        W83219   5.171  28.128  14.582
11691W        W83220  27.063   4.109  14.338
11692W        W83221  36.981  33.135  10.631
11693W        W83222  26.107   2.911   2.801
11694W        W83223  23.645  19.267   4.277
11695W        W83224   7.895   6.789   2.913
11696W        W83225  42.844  42.929   4.554
11697W        W83226  44.469  23.031   4.420
11698W        W83227  12.362  22.295  14.872
11699W        W83228  38.590  23.054   2.498
11700W        W83229  33.357   2.854  14.453
11701W        W83230  27.898   2.941  11.606
11702W        W83231   2.740  26.649   4.126
11703W        W83232   6.078   4.277  14.791
11704W        W83233  35.488  16.760  10.446
11705W        W83234   4.747  12.962   3.693
11706W        W83235  13.384  19.557   5.108
11707W        W83236   3.908   2.808   4.654
11708W        W83237  10.067  25.209  13.353
11709W        W83238  13.139  37.301  14.311
11710W        W83239  32.608   8.115   1.797
11711W        W83240  21.540  34.464  12.100
11712W        W83241  12.574  14.730  14.340
11713W        W83242  32.723  38.003   2.352
11714W        W83243  17.153  23.137   5.031
11715W        W83244   8.269  35.963   2.418
11716W        W83245  28.203  27.099   4.244
11717W        W83246  36.387  19.107   2.629
11718W        W83247   4.506  27.215   0.758
11719W        W83248  26.516  32.055   0.263
11720W        W83249  40.982  28.737  12.465
11721W        W83250   8.737  34.308   0.400
11722W        W83251  30.298  22.029   1.857
11723W        W83252  16.418  23.238  10.677
11724W        W83253   9.137  28.612  10.681
11725W        W83254  26.842  37.223  11.168
11726W        W83255  32.539  31.526   0.391
11727W        W83256  42.454  21.667  12.121
11728W        W83257  15.751  20.128   2.316
11729W        W83258   4.381  30.914  12.200
11730W        W83259  13.044  41.912  10.714
11731W        W83260  21.025  28.663  14.918
11732W        W83261   7.342  20.171  10.247
11733W        W83262  24.162   1.563  14.297
11734W        W83263  27.183  24.466  12.634
11735W        W83264  23.199  41.437  11.008
11736W        W83265   0.442   0.027  14.784
11737W        W83266  22.255  25.495  11.256
11738W        W83267   3.793  18.832   2.659
11739W        W83268  27.948  36.495  12.538
11740W        W83269  21.941  19.738   0.809
11741W        W83270  21.007  19.253   2.682
11742W        W83271  33.361  44.729   1.392
11743W        W83272  15.213  37.860   1.721
11744W        W83273   9.700   6.263  12.024
11745W        W83274  19.622   2.194   3.812
11746W        W83275  32.504  39.815  11.931
11747W        W83276   6.289  33.546  12.113
11748W        W83277  25.144  34.002   2.336
11749W        W83278  16.589   3.690  11.995
11750W        W83279  33.733  32.606  10.430
11751W        W83280   3.184   6.351   2.460
11752W        W83281   2.968  41.099   0.853
11753W        W83282  29.993  20.255  12.498
11754W        W83283  18.612  36.397  13.330
11755W        W83284  16.211  21.074   1.294
11756W        W83285   7.929  42.558  11.970
11757W        W83286  23.932  29.445  14.999
11758W        W83287  43.180   7.305  11.243
11759W        W83288   4.152  13.554   1.831
11760W        W83289  42.327  30.808  14.233
11761W        W83290  34.809  12.059  13.848
11762W        W83291  27.652   0.436   0.280
11763W        W83292  14.293  14.376  14.904
11764W        W83293  19.464  19.591  11.997
11765W        W83294  20.674  25.677   0.581
11766W        W83295   8.126  34.711   1.997
11767W        W83296  22.750  21.960  11.813
11768W        W83297  16.812  15.577   3.224
11769W        W83298  33.587   5.993  13.642
11770W        W83299   2.208   8.067   4.082
11771W        W83300  41.820  28.484   2.258
11772W        W83301  26.439   5.860   1.704
11773W        W83302  40.923  39.665  14.349
11774W        W83303  33.463  13.631   0.920
11775W        W83304   0.913  36.406   1.004
11776W        W83305  14.158  12.714  12.341
11777W        W83306  12.575   2.364  11.671
11778W        W83307  20.015  36.398   0.930
11779W        W83308   1.666  17.870   1.917
11780W        W83309  32.945  41.551  10.615
11781W        W83310  27.197  20.131   4.530
11782W        W83311  43.251   5.152  11.526
11783W        W83312   4.280  11.917  11.970
11784W        W83313  28.695  31.696  14.990
11785W        W83314  41.712  32.500  14.258
11786W        W83315   1.070  40.453  13.647
11787W        W83316  17.445  38.092  11.232
11788W        W83317   5.827  32.638   3.823
11789W        W83318  36.176  20.037   2.894
11790W        W83319  16.848  22.957   0.745
11791W        W83320   2.154  34.398  13.147
11792W        W83321  26.638  28.099  11.790
11793W        W83322  33.983  10.632   1.714
11794W        W83323   5.778   2.196   1.967
11795W        W83324   6.168  21.702   1.392
11796W        W83325  14.847  25.969   1.688
11797W        W83326  14.778  20.210  13.832
11798W        W83327  17.578  21.619  13.872
11799W        W83328  39.438  22.449   1.287
11800W        W83329  29.427  36.948  12.130
11801W        W83330  29.708   0.744   5.166
11802W        W83331   3.362  10.549   1.041
11803W        W83332  13.728  30.689   3.617
11804W        W83333  33.766   2.378   2.766
11805W        W83334  24.293  20.660  14.479
11806W        W83335  43.786   8.039  12.446
11807W        W83336  26.962  11.127   4.961
11808W        W83337  13.575  22.022  12.669
11809W        W83338  35.014   7.136   0.706
11810W        W83339  21.093  39.702   0.320
11811W        W83340   3.427  26.921   4.102
11812W        W83341  11.829  37.272   9.763
11813W        W83342  33.435  29.184   0.430
11814W        W83343   6.121  34.458  11.594
11815W        W83344  40.479  37.645  12.951
11816W        W83345  33.070  29.452  12.874
11817W        W83346  22.605  24.698  14.541
11818W        W83347  41.828  23.957  13.531
11819W        W83348  34.034   0.310   1.323
11820W        W83349  39.065  28.131   0.936
11821W        W83350  35.239  26.296   5.000
11822W        W83351  15.964  20.015  14.417
11823W        W83352   3.549  29.945  12.396
11824W        W83353  20.595  25.103  14.205
11825W        W83354  13.193  21.298   4.177
11826W        W83355  38.855  37.502   3.231
11827W        W83356   8.542   5.790  11.583
11828W        W83357   8.118  43.214  13.334
11829W        W83358  33.836  40.435   3.659
11830W        W83359  23.460  19.125   0.488
11831W        W83360  28.022  26.198   2.200
11832W        W83361  32.589   0.066  13.829
11833W        W83362  32.717  29.574   1.267
11834W        W83363  12.290  33.346  14.011
11835W        W83364  20.566  40.532   3.268
11836W        W83365  17.773  10.367   3.636
11837W        W83366  10.184  36.770  14.407
11838W        W83367  20.149  20.184   0.579
11839W        W83368  21.683  10.693  10.812
11840W        W83369   6.177  30.377  10.391
11841W        W83370  27.457   1.264  10.567
11842W        W83371  32.444  23.783  10.587
11843W        W83372   8.521  11.709   1.307
11844W        W83373  35.529  36.962  10.799
11845W        W83374   4.159  22.441  14.823
11846W        W83375  20.853  30.280  11.644
11847W        W83376  39.605  36.090  10.656
11848W        W83377  30.221  34.074  12.886
11849W        W83378   5.325   4.885  12.051
11850W        W83379  32.740  10.614   0.392
11851W        W83380  43.375  36.413  13.047
11852W        W83381  33.313  40.876  11.593
11853W        W83382  16.681  28.042  11.865
11854W        W83383  28.096  21.281  13.871
11855W        W83384  27.693  28.288   3.895
11856W        W83385  37.095  41.463  12.154
11857W        W83386  35.590  11.106  11.620
11858W        W83387  26.070  32.462  10.581
11859W        W83388  25.946  10.260   2.963
11860W        W83389  22.764  12.649   2.324
11861W        W83390  24.950  19.414   4.586
11862W        W83391  22.733   5.595   2.931
11863W        W83392  28.176  19.280  10.008
11864W        W83393  26.225  32.945   2.339
11865W        W83394  15.766   2.987   4.181
11866W        W83395  13.323  27.419  11.735
11867W        W83396  20.612  44.756   3.759
11868W        W83397  34.869   0.284   4.068
11869W        W83398  24.184   5.247   1.691
11870W        W83399  23.762  15.392   2.086
11871W        W83400   1.725  23.985  11.441
11872W        W83401  30.598  34.660  14.834
11873W        W83402  13.752  15.618  11.468
11874W        W83403  36.421  37.103  14.256
11875W        W83404  44.266   2.787   1.716
11876W        W83405  30.413  29.454  14.751
11877W        W83406  24.242   7.143  10.096
11878W        W83407  32.888  34.419  10.878
11879W        W83408  22.646  24.559  11.181
11880W        W83409  32.922  24.624  14.018
11881W        W83410  39.546  35.586  11.495
11882W        W83411  37.655  27.852   2.143
11883W        W83412  31.027  16.092  12.100
11884W        W83413   1.719   6.346  10.558
11885W        W83414  30.095  23.849   0.763
11886W        W83415  10.147  18.608   4.585
11887W        W83416  10.042  30.196   4.480
11888W        W83417   4.140  13.824  13.624
11889W        W83418  10.093  32.007   3.636
11890W        W83419  21.126  24.386   1.156
11891W        W83420  36.787  37.878  11.914
11892W        W83421  39.333   5.483   4.585
11893W        W83422  33.687   5.353   2.179
11894W        W83423  26.729   6.280   1.670
11895W        W83424  29.070  17.192  11.351
11896W        W83425   5.981  29.702  14.889
11897W        W83426  33.166  14.740  11.092
11898W        W83427  40.300  11.150  13.914
11899W        W83428  18.252  44.510  12.158
11900W        W83429   5.822   8.737  13.370
11901W        W83430  28.423  39.286  11.998
11902W        W83431  28.522  29.457   3.671
11903W        W83432  18.212   2.682   0.298
11904W        W83433  43.501  44.903   0.288
11905W        W83434  40.378  11.102  13.012
11906W        W83435  27.527  19.220  12.570
11907W        W83436  18.166  36.048   1.717
11908W        W83437  11.167  26.157  12.499
11909W        W83438  35.576  43.305   2.264
11910W        W83439   4.302  42.505   0.825
11911W        W83440   1.199  18.662  10.571
11912W        W83441  39.167  17.468  11.130
11913W        W83442  40.250  41.119   4.083
11914W        W83443   4.976  38.525  11.616
11915W        W83444  33.588  23.077   4.792
11916W        W83445  32.554  41.244  14.770
11917W        W83446   6.810  41.973   1.314
11918W        W83447  35.487  20.501  11.440
11919W        W83448   4.776   8.206  10.541
11920W        W83449  11.596  23.117   1.417
11921W        W83450  43.783  39.073  12.137
11922W        W83451  38.980  36.982  14.273
11923W        W83452  24.032   3.861   3.980
11924W        W83453   8.119  20.847   2.738
11925W        W83454  27.682   1.990  12.594
11926W        W83455  36.058  26.224  12.543
11927W        W83456  40.124  27.400   3.392
11928W        W83457  32.817  28.932   3.096
11929W        W83458  35.050  12.019   2.975
11930W        W83459   2.040   0.245  12.249
11931W        W83460  12.550  15.428  11.172
11932W        W83461  21.763   4.334  13.976
11933W        W83462  44.877   1.373   4.221
11934W        W83463  28.000   4.932   0.451
11935W        W83464   2.923   9.906   1.889
11936W        W83465  36.029  15.402  13.025
11937W        W83466  32.620  36.049  12.871
11938W        W83467   2.977  26.638   2.722
11939W        W83468  40.457  25.583  12.987
11940W        W83469  41.435  35.357   0.390
11941W        W83470  20.072  21.429   1.157
11942W        W83471  21.096  34.089   4.250
11943W        W83472   7.548  32.625   0.495
11944W        W83473  35.239  35.070  12.925
11945W        W83474  41.310  44.720  14.857
11946W        W83475  31.853  23.854   1.851
11947W        W83476   1.486  29.987   3.338
11948W        W83477  37.923  28.910   3.927
11949W        W83478  29.793  25.915  13.474
11950W        W83479  11.279  15.059  13.124
11951W        W83480   1.474  34.277   2.313
11952W        W83481  20.191  20.214  11.916
11953W        W83482  33.144   1.664  11.962
11954W        W83483  19.971  18.706  12.080
11955W        W83484  28.788  36.447   1.482
11956W        W83485  37.909  42.927  14.453
11957W        W83486  37.629   6.859   1.713
11958W        W83487  13.375  16.140  11.044
11959W        W83488   8.912   1.563  12.365
11960W        W83489   5.511  28.119   4.661
11961W        W83490  28.587  35.508  11.362
11962W        W83491  44.416  11.314   3.189
11963W        W83492  15.713  28.616   3.520
11964W        W83493  28.191   3.523  12.457
11965W        W83494  18.279  28.416  14.530
11966W        W83495   5.454  20.992   3.186
11967W        W83496   2.948   5.874  10.685
11968W        W83497  23.056  18.062   1.337
11969W        W83498  26.877  33.074   4.988
11970W        W83499  37.507  35.261  14.848
11971W        W83500  32.318   6.170   0.915
11972W        W83501  34.345   1.794   2.223
11973W        W83502  14.164  28.409   2.720
11974W        W83503   6.281  28.967  10.928
11975W        W83504  29.654  44.085  13.974
11976W        W83505  35.854  38.329  14.875
11977W        W83506   0.592   3.710   2.694
11978W        W83507  29.986  32.150   0.825
11979W        W83508  23.335  20.987   4.604
11980W        W83509  40.487   9.607  12.403
11981W        W83510  32.175  22.945  10.259
11982W        W83511  22.759  32.852   4.245
11983W        W83512  27.261   5.931   1.320
11984W        W83513  30.861  25.525  14.366
11985W        W83514  19.291  26.106  11.371
11986W        W83515  23.863  20.552  11.122
11987W        W83516  44.213  21.104   1.920
11988W        W83517  14.302   2.669   2.295
11989W        W83518  15.259  20.785   3.634
11990W        W83519  39.871  17.731   2.678
11991W        W83520  34.646  41.074  14.537
11992W        W83521  28.116  31.156  14.507
11993W        W83522  42.827  40.754  11.574
11994W        W83523  26.161   6.724  14.905
11995W        W83524  34.013  44.734  13.497
11996W        W83525  14.568  23.360   4.227
11997W        W83526  12.187  22.131  13.537
11998W        W83527   4.748  21.114   0.743
11999W        W83528   2.752  44.000  11.980
12000W        W83529  33.338   5.383   3.191
12001W        W83530   3.347  41.574  13.511
12002W        W83531  14.375  38.948  10.451
12003W        W83532  39.971  15.565   4.344
12004W        W83533  11.847   5.766   1.259
12005W        W83534  25.104  44.807   4.068
12006W        W83535  35.165   8.208   4.208
12007W        W83536  27.134   1.737  14.368
12008W        W83537  27.526   8.857   3.871
12009W        W83538  15.666  39.144   3.176
12010W        W83539  32.527  41.795  10.792
12011W        W83540  39.520  20.148   2.638
12012W        W83541  28.129  10.694   0.990
12013W        W83542  20.241  20.310   2.378
12014W        W83543   2.297  37.050  14.793
12015W        W83544  42.221  37.871   2.312
12016W        W83545  36.926  27.942   0.885
12017W        W83546  28.930   3.434   4.507
12018W        W83547   2.988  10.601   3.271
12019W        W83548   8.742  14.233   4.594
12020W        W83549  20.629  35.869   1.399
12021W        W83550  37.539  40.433   3.681
12022W        W83551  40.586  15.332  13.799
12023W        W83552   4.669  21.427   3.064
12024W        W83553  31.903   4.364  13.820
12025W        W83554   8.384  43.356  11.389
12026W        W83555  15.476   2.493   0.762
12027W        W83556  28.906  39.065   2.650
12028W        W83557  17.201   1.456   1.652
12029W        W83558  22.400  16.834   4.121
12030W        W83559  20.706  18.839   2.669
12031W        W83560  22.458  19.762   4.760
12032W        W83561   5.999   0.241  14.609
12033W        W83562  16.316   7.285   3.188
12034W        W83563   1.728  44.423   4.192
12035W        W83564  41.540   4.006   4.696
12036W        W83565   0.194  31.913  11.240
12037W        W83566  31.702  17.757   3.980
12038W        W83567  18.257  20.145   5.505
12039W        W83568  15.355  18.524  11.949
12040W        W83569  44.206  17.615  14.746
12041W        W83570  27.016  23.622  11.234
12042W        W83571  20.422  44.924  12.535
12043W        W83572  41.627  42.342   1.416
12044W        W83573  14.671  24.575  14.875
12045W        W83574  44.970  37.900   3.993
12046W        W83575  17.115  28.638   0.333
12047W        W83576   0.828  13.210  11.272
12048W        W83577  18.061  28.803  12.109
12049W        W83578   8.650  21.139   0.854
12050W        W83579  24.183  12.899  13.558
12051W        W83580  40.414  24.531   3.320
12052W        W83581  32.049   8.865   3.162
12053W        W83582  35.805  26.180  14.760
12054W        W83583  35.892  35.053   4.183
12055W        W83584  37.033  24.090   3.776
12056W        W83585  26.322   9.129   1.502
12057W        W83586  35.334   2.300   2.683
12058W        W83587  16.423  43.853  12.950
12059W        W83588  24.210  14.711   0.261
12060W        W83589  17.959  18.115  10.752
12061W        W83590  33.464  34.527  12.641
12062W        W83591  17.125  14.704  10.482
12063W        W83592  18.659   7.408   1.142
12064W        W83593  20.555  27.924   1.173
12065W        W83594  24.760  43.977  14.925
12066W        W83595  44.055  44.116   0.751
12067W        W83596   0.434   1.235   3.889
12068W        W83597   1.672  14.791   2.757
12069W        W83598  29.587   1.456  11.673
12070W        W83599  16.562  32.967  11.234
12071W        W83600  27.723   8.986  11.107
12072W        W83601   3.190  11.289   3.716
12073W        W83602   9.060   9.688   0.681
12074W        W83603   1.408  36.495  11.166
12075W        W83604  44.961  30.728   3.639
12076W        W83605  20.857  41.954   3.166
12077W        W83606  11.242  44.561   1.885
12078W        W83607  33.025  23.660  14.471
12079W        W83608  22.925   9.330   2.075
12080W        W83609   2.884  34.672   2.736
12081W        W83610  35.317  40.382   3.669
12082W        W83611  13.219  39.860   4.169
12083W        W83612  20.026  12.666   2.183
12084W        W83613  30.009  35.018  13.374
12085W        W83614   9.318  26.761   4.448
12086W        W83615  31.550  42.019   3.916
12087W        W83616  23.962  24.224   2.591
12088W        W83617  33.878  24.544  13.348
12089W        W83618  25.056   1.737  12.464
12090W        W83619  12.303  43.684  14.931
12091W        W83620  21.933  19.314  11.196
12092W        W83621  11.645  30.191   2.890
12093W        W83622  18.625  24.746  14.044
12094W        W83623  25.053  32.649   1.288
12095W        W83624  36.658  18.063  11.359
12096W        W83625   9.430  33.451  12.000
12097W        W83626  37.486  30.715   1.339
12098W        W83627  31.842   0.839   2.290
12099W        W83628  17.334   8.304   2.370
12100W        W83629   2.224  30.369  10.697
12101W        W83630  21.335  20.753  13.692
12102W        W83631  38.180   1.034   0.840
12103W        W83632   2.201  34.516   0.528
12104W        W83633  30.816  33.165  13.445
12105W        W83634  11.199  21.250  14.271
12106W        W83635   9.537   9.959   3.578
12107W        W83636  31.066  37.761   5.237
12108W        W83637   3.435   6.903   4.744
12109W        W83638  36.509  16.298   2.454
12110W        W83639  43.364  37.617   1.408
12111W        W83640   1.534  30.116   3.839
12112W        W83641  34.394  12.384   1.420
12113W        W83642   8.675  41.059  11.456
12114W        W83643  41.547   4.179  13.626
12115W        W83644  42.096  19.753  13.369
12116W        W83645  24.127  19.459   5.272
12117W        W83646   0.479  36.692   2.871
12118W        W83647  37.882  17.832   0.261
12119W        W83648   7.873  32.879  13.892
12120W        W83649   1.157  23.433  12.969
12121W        W83650   1.029  37.868  13.913
12122W        W83651   2.953  25.058   3.304
12123W        W83652  23.123  41.509  13.448
12124W        W83653  37.167   6.764  11.632
12125W        W83654  18.434   5.816  11.202
12126W        W83655  43.364   8.712  10.813
12127W        W83656  38.394  41.033  12.670
12128W        W83657   1.816  38.930   4.558
12129W        W83658   8.394  28.964  14.766
12130W        W83659  21.144  28.920   3.371
12131W        W83660  38.693  16.022  12.205
12132W        W83661  25.158  27.962   3.895
12133W        W83662  11.199  34.126   3.690
12134W        W83663  25.766  16.630  13.517
12135W        W83664  27.219  35.501  12.034
12136W        W83665  20.191  18.331   3.655
12137W        W83666   3.778   0.268  10.929
12138W        W83667  30.998  35.263   1.947
12139W        W83668  24.639  34.695  11.578
12140W        W83669  25.998  26.419  11.329
12141W        W83670  36.170   0.228   2.370
12142W        W83671   0.448  31.472  12.905
12143W        W83672   0.740  22.640   4.123
12144W        W83673   5.949  32.895  11.140
12145W        W83674  13.140  43.810   0.279
12146W        W83675  34.461   5.455   0.995
12147W        W83676  14.055  11.885   3.369
12148W        W83677  34.443  11.591  14.619
12149W        W83678  28.903  23.196  13.923
12150W        W83679  41.429   8.697  10.688
12151W        W83680  19.535  25.825   4.920
12152W        W83681  16.767  19.182   4.654
12153W        W83682  34.547  44.780   1.841
12154W        W83683   0.912  25.849   0.996
12155W        W83684  14.610  20.865   2.658
12156W        W83685   1.859  36.669  10.730
12157W        W83686   5.475  13.624   2.718
12158W        W83687  37.806  19.629  13.452
12159W        W83688   0.945   0.310   1.933
12160W        W83689   8.247  35.380  10.541
12161W        W83690   5.347   6.463  14.021
12162W        W83691  35.954  36.888  14.361
12163W        W83692  23.180  10.383  10.800
12164W        W83693   2.220  44.718   4.077
12165W        W83694  40.590   5.180  14.806
12166W        W83695  25.736  22.304  11.743
12167W        W83696  15.313   3.298  14.056
12168W        W83697  42.937   8.671   4.494
12169W        W83698  24.737   3.662  12.883
12170W        W83699  26.437  41.607   4.378
12171W        W83700  32.050  27.917  10.247
12172W        W83701  43.250  38.440   3.287
12173W        W83702  37.805   1.735  11.223
12174W        W83703  21.944  16.033   4.678
12175W        W83704  39.455  30.595   0.424
12176W        W83705  22.233   4.419   2.822
12177W        W83706  13.792  38.366   2.038
12178W        W83707   0.804  18.636   2.351
12179W        W83708   7.291  15.640   2.230
12180W        W83709   1.434  22.652   1.317
12181W        W83710  36.540   8.170  10.935
12182W        W83711  22.808   0.079   4.589
12183W        W83712  30.047  31.257   2.882
12184W        W83713  14.462   0.408  12.562
12185W        W83714   9.366   0.714  11.502
12186W        W83715  38.920  23.480  12.926
12187W        W83716  16.213  39.431   4.270
12188W        W83717  37.595  19.242   3.699
12189W        W83718  23.599  43.530  13.059
12190W        W83719   6.383   1.516   4.323
12191W        W83720   6.563  22.445   4.512
12192W        W83721  30.964  37.404  13.619
12193W        W83722  20.299   8.313   1.726
12194W        W83723   7.087   2.136   0.858
12195W        W83724   0.062   7.672   0.178
12196W        W83725  27.170   4.768   0.830
12197W        W83726   5.205  11.582  11.629
12198W        W83727  31.760  27.556  12.999
12199W        W83728  12.656  20.075   2.623
12200W        W83729  22.796   8.136  12.784
12201W        W83730  16.706  32.509   3.655
12202W        W83731  25.885  27.124   4.120
12203W        W83732  32.632  30.749  10.713
12204W        W83733  29.869  40.896   3.062
12205W        W83734   1.659  30.574  14.289
12206W        W83735   9.254   0.876   2.755
12207W        W83736  13.619  39.337   4.839
12208W        W83737   7.509   3.974  12.904
12209W        W83738   6.724  23.219   2.844
12210W        W83739  30.435  39.379  13.056
12211W        W83740  30.226  32.364  13.345
12212W        W83741  22.544  44.496   0.273
12213W        W83742   6.172  31.361  13.475
12214W        W83743  25.736  16.717   0.851
12215W        W83744   7.529   0.726   4.548
12216W        W83745  14.671  38.565  10.689
12217W        W83746  39.243  42.130   0.224
12218W        W83747  12.864  30.128  12.391
12219W        W83748   5.219  32.463   1.238
12220W        W83749  12.525   4.509   4.049
12221W        W83750  38.821  14.606  12.991
12222W        W83751  39.450   6.230  10.874
12223W        W83752  13.789  32.896  13.834
12224W        W83753  35.352  16.599   3.719
12225W        W83754  43.728  44.417   1.853
12226W        W83755   3.256  22.305   2.840
12227W        W83756   1.261  26.150   0.791
12228W        W83757  30.844  35.765   1.921
12229W        W83758  41.432  41.021  11.353
12230W        W83759  43.466  12.652  11.508
12231W        W83760  39.742  12.197  12.577
12232W        W83761   2.527  33.134   0.737
12233W        W83762  43.385  20.310   2.678
12234W        W83763  43.161  19.525   0.807
12235W        W83764  18.351  11.821  12.448
12236W        W83765   4.954  42.982   2.175
12237W        W83766  40.134  18.024  10.647
12238W        W83767  32.855  19.501  11.540
12239W        W83768   6.431  29.054  11.457
12240W        W83769   0.255  18.161   3.204
12241W        W83770  19.871  37.453  14.325
12242W        W83771  22.734  16.260  14.960
12243W        W83772  20.636  28.015  11.201
12244W        W83773   5.932  29.189  14.839
12245W        W83774  37.018  28.939   3.394
12246W        W83775  19.615  33.973  11.054
12247W        W83776  25.945  14.632  10.661
12248W        W83777  26.796  23.711  10.659
12249W        W83778   3.658  22.628  14.794
12250W        W83779   4.763   3.443   1.178
12251W        W83780  22.746   9.804   2.335
12252W        W83781  11.914  16.679   4.633
12253W        W83782  38.473   2.847  13.000
12254W        W83783  22.114  12.215  12.501
12255W        W83784  25.233  32.624  12.005
12256W        W83785   0.766  13.352   1.655
12257W        W83786   9.704   7.652  10.624
12258W        W83787   7.756  31.417   1.757
12259W        W83788  43.035  43.560  11.787
12260W        W83789  22.534  33.687   4.588
12261W        W83790  33.009  17.621   3.247
12262W        W83791  42.383   6.448  11.849
12263W        W83792  43.427  32.664   2.567
12264W        W83793  39.556  26.539   2.750
12265W        W83794  24.702  30.092   2.762
12266W        W83795  13.675  16.042  10.619
12267W        W83796   1.594  36.417   3.273
12268W        W83797   6.152  33.900  14.980
12269W        W83798   0.992  19.320  13.349
12270W        W83799   6.138  20.294  11.469
12271W        W83800  28.037   2.473   3.993
12272W        W83801  32.982   5.462  14.316
12273W        W83802  18.614  41.094   1.546
12274W        W83803  30.468  32.826   4.514
12275W        W83804  25.559  24.819  12.756
12276W        W83805  15.097   8.680  14.267
12277W        W83806  26.096   3.938   0.797
12278W        W83807   2.865   1.699   3.764
12279W        W83808   2.775  34.613  13.888
12280W        W83809  32.599   4.902  11.473
12281W        W83810  21.714  29.044  14.185
12282W        W83811  14.730   7.027   3.341
12283W        W83812   4.092  37.497   1.350
12284W        W83813  44.722  12.805   1.429
12285W        W83814  15.326  37.517   1.291
12286W        W83815  40.550   5.276   2.415
12287W        W83816  35.304  13.127  10.562
12288W        W83817  42.415  42.968  12.141
12289W        W83818   7.148  17.284  14.119
12290W        W83819  13.574  31.664   4.028
12291W        W83820  32.476  39.378   1.252
12292W        W83821   8.383  28.702   1.890
12293W        W83822  11.766  22.445   3.454
12294W        W83823  40.478   3.400   2.414
12295W        W83824  44.604  42.920   1.183
12296W        W83825  30.579   4.181  12.033
12297W        W83826  17.309   8.797   2.186
12298W        W83827   2.871   6.241   0.324
12299W        W83828  23.987  13.309  14.472
12300W        W83829  18.665  32.502   4.287
12301W        W83830  37.459  15.364   4.667
12302W        W83831  10.688  13.750  12.530
12303W        W83832  18.630  42.451   3.760
12304W        W83833  44.751   8.927  11.174
12305W        W83834  29.937  30.365  10.439
12306W        W83835  34.365   9.392   4.716
12307W        W83836  16.060  32.171   1.203
12308W        W83837  15.332   1.273  14.831
12309W        W83838  23.745  38.100  14.738
12310W        W83839   7.150  21.572   3.359
12311W        W83840   7.840  39.481  13.780
12312W        W83841  33.448   2.497  12.401
12313W        W83842  27.355   6.811  12.832
12314W        W83843  39.027  21.889  13.521
12315W        W83844  43.716  30.109  12.501
12316W        W83845   9.720  44.287   4.329
12317W        W83846  44.997  41.492  14.409
12318W        W83847  24.814  12.712   3.583
12319W        W83848  15.830   2.838  14.999
12320W        W83849  11.602  31.471  13.255
12321W        W83850  30.372  22.361  10.833
12322W        W83851  17.062   3.717  12.912
12323W        W83852  36.043  40.417   0.251
12324W        W83853  44.969   4.616   4.270
12325W        W83854  27.491  11.424  13.157
12326W        W83855  43.876  33.627   4.058
12327W        W83856  14.589   5.718   4.047
12328W        W83857  14.402  17.769  12.316
12329W        W83858  13.625  29.178   2.811
12330W        W83859  20.806   1.089   2.180
12331W        W83860  36.441   3.631   3.839
12332W        W83861   1.851  24.156  10.842
12333W        W83862  44.262   2.261  14.603
12334W        W83863   6.648  20.693  12.105
12335W        W83864   3.440   7.331   5.138
12336W        W83865  33.959  32.424  13.930
12337W        W83866  37.098   3.717   2.375
12338W        W83867  21.729  24.688   2.607
12339W        W83868   1.449  39.836   4.732
12340W        W83869  31.099   7.982   2.698
12341W        W83870  23.281  29.336  13.486
12342W        W83871  41.334  13.619   3.657
12343W        W83872  24.281   5.951   2.347
12344W        W83873  26.971  20.235  13.518
12345W        W83874  39.592  41.761   0.417
12346W        W83875  38.950  24.080   3.647
12347W        W83876  17.082  24.470  10.508
12348W        W83877   3.622  43.109  13.524
12349W        W83878  22.426  21.013  12.072
12350W        W83879   5.099  38.939  14.448
12351W        W83880  21.754  41.619   1.173
12352W        W83881  40.366  26.009   4.092
12353W        W83882  19.103   7.785  13.489
12354W        W83883  38.760  13.362   2.264
12355W        W83884  29.663  12.948   2.222
12356W        W83885  44.662  37.418   4.817
12357W        W83886  19.099  13.050  13.857
12358W        W83887  35.852  36.101   3.274
12359W        W83888  27.980  42.416   4.548
12360W        W83889  31.431  16.272   0.213
12361W        W83890  27.840  29.111  11.932
12362W        W83891  18.687  44.335  10.911
12363W        W83892  25.726  26.921  14.721
12364W        W83893  11.251  42.176   3.792
12365W        W83894   8.576  34.993  13.458
12366W        W83895  16.749  14.199  12.853
12367W        W83896  38.933  27.449  14.315
12368W        W83897   0.337  39.301  12.894
12369W        W83898  23.495  19.159   4.784
12370W        W83899  39.102  42.814  14.008
12371W        W83900  21.869  20.282  11.266
12372W        W83901  24.206   0.942   4.185
12373W        W83902   4.175  20.119  12.913
12374W        W83903  11.664  16.684  12.197
12375W        W83904  27.667  10.797  12.483
12376W        W83905  21.144   3.915   0.521
12377W        W83906  37.085   2.230  10.649
12378W        W83907  31.473  13.157  10.555
12379W        W83908   5.563  29.983  13.187
12380W        W83909  18.580  32.157   3.290
12381W        W83910  24.617  17.794   4.147
12382W        W83911   8.277  18.867   4.691
12383W        W83912  18.788  38.850  12.678
12384W        W83913  17.766   6.090  11.170
12385W        W83914  39.811   8.878  11.661
12386W        W83915  29.112  29.628   4.577
12387W        W83916   8.950  44.850  14.832
12388W        W83917   3.593  28.220   1.890
12389W        W83918   8.641  16.804  13.870
12390W        W83919   7.646  33.447  12.096
12391W        W83920   6.425   6.951  14.378
12392W        W83921  13.442  27.989   0.760
12393W        W83922  39.399  19.096   2.662
12394W        W83923  39.014  24.120   4.553
12395W        W83924  17.284  35.426   0.509
12396W        W83925  33.361  36.511  13.345
12397W        W83926   6.758  14.047   1.336
12398W        W83927  22.033  13.257  13.466
12399W        W83928  35.602  40.632  14.466
12400W        W83929  12.288   9.289  13.555
12401W        W83930  28.317  16.163  14.910
12402W        W83931  29.454  20.123  13.384
12403W        W83932  10.255  19.598  11.204
12404W        W83933  20.064  41.487  11.532
12405W        W83934  37.055  11.124  11.498
12406W        W83935   8.807  42.856  12.850
12407W        W83936  24.051  25.432  14.441
12408W        W83937  35.907   7.716  14.908
12409W        W83938   9.892  17.068   0.891
12410W        W83939   0.239  39.469  13.919
12411W        W83940  33.409  37.821  12.447
12412W        W83941   0.896  36.828  12.445
12413W        W83942  44.483  18.719  12.413
12414W        W83943  44.783  25.481   2.208
12415W        W83944  12.572  12.503   3.601
12416W        W83945  36.879  30.605  10.702
12417W        W83946  41.973  25.723  11.638
12418W        W83947  18.431   0.674  11.139
12419W        W83948  23.539  44.949   2.567
12420W        W83949  12.974  42.619  11.619
12421W        W83950  15.879  14.317   3.199
12422W        W83951   9.860   5.950  13.956
12423W        W83952  24.170  36.776   0.928
12424W        W83953  43.930  12.436  13.401
12425W        W83954   8.881  32.808  12.118
12426W        W83955  13.291  19.735  12.080
12427W        W83956   0.960  36.800   0.303
12428W        W83957  30.485  36.141   3.246
12429W        W83958  13.601  17.159   1.768
12430W        W83959  10.807  24.693  13.822
12431W        W83960  14.705  38.043   0.886
12432W        W83961  42.617  23.100   0.858
12433W        W83962  24.622  23.147   3.562
12434W        W83963  28.053  27.006   2.587
12435W        W83964  23.910  19.786   3.668
12436W        W83965  14.235   9.397   0.459
12437W        W83966  44.971   4.669   2.390
12438W        W83967  18.067  12.627  14.789
12439W        W83968  25.373  23.357   1.687
12440W        W83969   9.268  41.041   3.231
12441W        W83970  40.572  35.651  11.630
12442W        W83971   7.863  17.531  10.357
12443W        W83972  18.613  33.874   0.875
12444W        W83973  27.025  30.428   4.978
12445W        W83974  16.300  25.125   1.379
12446W        W83975  12.355   1.095   9.977
12447W        W83976  29.983   0.363   4.163
12448W        W83977  44.373  27.128   4.653
12449W        W83978  10.004   5.720  12.967
12450W        W83979  11.279   7.481  11.180
12451W        W83980  37.609  13.633   4.157
12452W        W83981  16.712  11.853   1.870
12453W        W83982  25.428  36.594  12.563
12454W        W83983  13.543  35.914  10.622
12455W        W83984   3.909  20.226   2.396
12456W        W83985   7.420  15.323  10.704
12457W        W83986  18.480  38.447  14.759
12458W        W83987  12.375  27.126   2.256
12459W        W83988  32.038  16.695   4.564
12460W        W83989  36.987  19.122   4.695
12461W        W83990  37.103  22.023   4.519
12462W        W83991   2.851  32.674  11.508
12463W        W83992  26.867   0.503   4.956
12464W        W83993   0.821  28.255  11.989
12465W        W83994  14.367  21.836  12.971
12466W        W83995  17.252  29.751   0.408
12467W        W83996  18.295  28.224   1.806
12468W        W83997  32.544  13.705  14.793
12469W        W83998  38.542  27.131  10.712
12470W        W83999  37.873  37.407  12.517
12471W        W84000  43.928   4.860   4.644
12472W        W84001  24.053  24.004   0.954
12473W        W84002   8.381  16.670   1.405
12474W        W84003   0.303   5.935   2.330
12475W        W84004   5.770   7.751  13.772
12476W        W84005  28.480  40.460  14.907
12477W        W84006   8.581   1.368   5.074
12478W        W84007  38.779  44.167  11.525
12479W        W84008   1.329   4.120  14.170
12480W        W84009   7.797  27.895   4.822
12481W        W84010   7.578   0.285   3.743
12482W        W84011   1.637  17.317  10.416
12483W        W84012  40.336  34.617   1.844
12484W        W84013  18.373  12.842  14.392
12485W        W84014  26.298  22.281  14.936
12486W        W84015   6.666  15.368   0.847
12487W        W84016  36.965  25.165   3.751
12488W        W84017  41.671  27.726  13.507
12489W        W84018   5.439   3.141   2.239
12490W        W84019  17.021  42.011   2.738
12491W        W84020  14.346  21.789   1.352
12492W        W84021  28.100  19.695  10.364
12493W        W84022  18.364  35.956  12.424
12494W        W84023  12.090  16.177  13.962
12495W        W84024  19.200   5.487   1.716
12496W        W84025  42.786  30.102   1.262
12497W        W84026  40.507  37.084  14.755
12498W        W84027   5.945  40.396  12.850
12499W        W84028  33.049  13.577   1.300
12500W        W84029   5.775  11.397  11.030
12501W        W84030  38.420   5.083  13.104
12502W        W84031  17.004  12.796  10.769
12503W        W84032   3.332   0.493   0.779
12504W        W84033  38.555  20.092  13.496
12505W        W84034  39.338   5.937  13.917
12506W        W84035  18.880  43.976   0.957
12507W        W84036  22.924  31.219   2.146
12508W        W84037  24.722  44.359  11.672
12509W        W84038  20.288  14.342  10.835
12510W        W84039  18.524  33.145   0.306
12511W        W84040  18.187  21.762  10.242
12512W        W84041   7.207  42.765  13.937
12513W        W84042  25.388  29.062  11.716
12514W        W84043  11.823  38.654  13.845
12515W        W84044  26.611  17.048  14.969
12516W        W84045  16.159  27.976   1.302
12517W        W84046   1.879   5.018   2.350
12518W        W84047   2.339  30.114   4.806
12519W        W84048  11.590  19.611   0.160
12520W        W84049  16.390  10.095  13.522
12521W        W84050  30.041  32.262   2.712
12522W        W84051  43.782  15.577   9.786
12523W        W84052  28.778   3.432  12.546
12524W        W84053  22.543   9.663   1.373
12525W        W84054  11.640  36.566   2.848
12526W        W84055  22.981  12.253   3.362
12527W        W84056  34.394  14.352  14.911
12528W        W84057   7.328  40.524  10.715
12529W        W84058  42.584  18.356  10.392
12530W        W84059   5.087  37.116  10.202
12531W        W84060   5.361   0.982  14.762
12532W        W84061  27.720  20.655  13.380
12533W        W84062  11.991   1.535   2.402
12534W        W84063   5.647   4.302   0.854
12535W        W84064   1.959  15.739  11.583
12536W        W84065  38.469  17.419  10.963
12537W        W84066   5.113  17.619  14.264
12538W        W84067  35.530  24.446  11.582
12539W        W84068  16.647   5.496  11.981
12540W        W84069  18.057   5.887  13.314
12541W        W84070  16.714  32.456   3.144
12542W        W84071  11.951  31.857   2.092
12543W        W84072  30.506  37.452  11.246
12544W        W84073  10.991   4.976  14.988
12545W        W84074  26.271  23.669  12.911
12546W        W84075  18.175   3.783   1.567
12547W        W84076   7.373  24.554  13.768
12548W        W84077  41.654  36.129   0.873
12549W        W84078   6.799  42.285   2.708
12550W        W84079  18.206  22.482  13.968
12551W        W84080  39.109   1.696   0.856
12552W        W84081  39.362  25.771  14.550
12553W        W84082  10.255  31.252   3.660
12554W        W84083  18.068  31.548  11.429
12555W        W84084   6.829  33.084  11.464
12556W        W84085  29.014  23.908   3.654
12557W        W84086  43.553  14.885  11.984
12558W        W84087  11.562  41.823   0.887
12559W        W84088   4.952   5.295  11.349
12560W        W84089   0.404   7.303   0.009
12561W        W84090  11.785   7.769  10.502
12562W        W84091  38.837  32.637   4.217
12563W        W84092  13.322  41.126   2.777
12564W        W84093  13.533  24.961   1.381
12565W        W84094  24.599  31.317   4.126
12566W        W84095   4.298  26.677   4.601
12567W        W84096  44.265  32.083   1.973
12568W        W84097   3.074  10.011  14.597
12569W        W84098  16.102  15.278  10.657
12570W        W84099  32.957  11.080  10.491
12571W        W84100  11.199  34.068  13.091
12572W        W84101   3.501  36.052  10.498
12573W        W84102  31.841  15.762   3.612
12574W        W84103  25.748  32.652   4.114
12575W        W84104   2.679   0.764  11.934
12576W        W84105  18.197  22.501  12.035
12577W        W84106  27.438  25.506  14.552
12578W        W84107  24.433  40.276   2.852
12579W        W84108  27.043  15.419   3.109
12580W        W84109   4.697  25.938   0.427
12581W        W84110  42.013  12.759  11.716
12582W        W84111  19.485  13.804  11.684
12583W        W84112   5.563  21.396   2.220
12584W        W84113  44.990  40.017   3.664
12585W        W84114  25.887  42.483  14.256
12586W        W84115  15.201  38.109   2.730
12587W        W84116  44.274  11.155   0.258
12588W        W84117  10.285   5.441  13.398
12589W        W84118  34.835  19.143   3.825
12590W        W84119  14.013  28.517   2.244
12591W        W84120   5.246  12.374  12.006
12592W        W84121  40.787   1.007  13.482
12593W        W84122  29.221  26.734  10.818
12594W        W84123  19.821  42.083   0.542
12595W        W84124  43.248  44.552   0.022
12596W        W84125   1.356  25.149  13.788
12597W        W84126  25.971  24.525  12.088
12598W        W84127  30.481  40.931  10.726
12599W        W84128  25.498  27.530   4.775
12600W        W84129  36.632   0.800  10.792
12601W        W84130  27.227  24.938  11.451
12602W        W84131  11.345  20.569  10.618
12603W        W84132  20.601  28.469  13.395
12604W        W84133  36.920   3.389   3.823
12605W        W84134   9.417   9.330   0.805
12606W        W84135  33.852  14.804   2.457
12607W        W84136  10.404  11.951   3.638
12608W        W84137  23.250  29.557   3.736
12609W        W84138  41.322  14.248   0.278
12610W        W84139  26.255   7.567   3.427
12611W        W84140  20.714  13.857   0.321
12612W        W84141  35.026   3.742   4.791
12613W        W84142  16.053  13.990   1.298
12614W        W84143  43.370  38.992  11.393
12615W        W84144  38.969  44.974   4.546
12616W        W84145   4.895   2.315   2.980
12617W        W84146  27.891   8.783  11.596
12618W        W84147   1.808  44.397  11.787
12619W        W84148   4.607  16.380  14.248
12620W        W84149  38.363  33.466  12.570
12621W        W84150  13.288  18.727   2.174
12622W        W84151  17.197  18.346  13.674
12623W        W84152  10.553  43.025   1.810
12624W        W84153   3.425   2.247  11.596
12625W        W84154   1.272   4.230  12.623
12626W        W84155  23.468   8.236   0.106
12627W        W84156  42.380   0.417   1.669
12628W        W84157   0.172  13.678  13.426
12629W        W84158   0.849  22.452  13.755
12630W        W84159  32.350  37.632   2.392
12631W        W84160  31.984  12.115   3.189
12632W        W84161  36.850   7.232  14.042
12633W        W84162  18.948  20.735   0.032
12634W        W84163  33.938  16.021  14.907
12635W        W84164  40.085  44.751  10.614
12636W        W84165  35.541  29.646   1.932
12637W        W84166  14.277  33.641  13.548
12638W        W84167  21.209  23.863   2.155
12639W        W84168  44.517  28.748   4.262
12640W        W84169  25.541  14.882   2.366
12641W        W84170   5.927  16.859   4.933
12642W        W84171  14.985  11.820   5.097
12643W        W84172   7.297   9.053   2.318
12644W        W84173  15.302  19.754  15.000
12645W        W84174  24.834  33.865   4.164
12646W        W84175   4.995  13.668   2.309
12647W        W84176  10.869  42.947   2.224
12648W        W84177  14.403  14.698   0.769
12649W        W84178   9.846  41.895   4.057
12650W        W84179  12.223  43.085  11.217
12651W        W84180  40.345  20.078  10.769
12652W        W84181  13.379  42.408   1.720
12653W        W84182   3.664   5.298  13.068
12654W        W84183   2.710  33.811   1.859
12655W        W84184   9.374  15.858  13.284
12656W        W84185  41.025  44.307  12.241
12657W        W84186  39.075   0.181   0.763
12658W        W84187  10.802  34.458  13.835
12659W        W84188  27.495   8.147   1.725
12660W        W84189  16.564  44.851  10.523
12661W        W84190  20.688   5.611   1.812
12662W        W84191  22.105  17.889   4.600
12663W        W84192  10.765   0.777   2.179
12664W        W84193   0.897  34.362   0.267
12665W        W84194   1.167   4.906   1.870
12666W        W84195  19.882  29.186  12.009
12667W        W84196   0.412   8.863   0.008
12668W        W84197  17.129  22.205   5.091
12669W        W84198  11.167   3.153  12.748
12670W        W84199  33.389  22.673   3.103
12671W        W84200   1.796  13.348   3.139
12672W        W84201  29.436   8.336   2.838
12673W        W84202  23.929   4.857   3.215
12674W        W84203   5.879  16.867  14.690
12675W        W84204  12.612  16.286  11.578
12676W        W84205  11.583  25.551  11.062
12677W        W84206  21.748  10.651   3.368
12678W        W84207   3.314  25.429   3.265
12679W        W84208  23.670  41.109   1.251
12680W        W84209  40.522  44.961   1.858
12681W        W84210  15.669  26.198   3.656
12682W        W84211   7.245  39.459   2.720
12683W        W84212  32.751  21.156   1.666
12684W        W84213  22.125  37.482   4.742
12685W        W84214  13.755  22.479  12.482
12686W        W84215  23.178  34.313  10.696
12687W        W84216  12.233  19.587   1.929
12688W        W84217  26.619  26.454   3.772
12689W        W84218  39.599  14.277  14.162
12690W        W84219  10.782  34.807   3.681
12691W        W84220  32.435  16.523  10.630
12692W        W84221   9.366  31.514  13.534
12693W        W84222   9.647   4.720   2.296
12694W        W84223   4.420  16.311   3.299
12695W        W84224   9.158  22.178  14.897
12696W        W84225  35.435   2.154  12.521
12697W        W84226  33.862   0.305  10.389
12698W        W84227  34.639  18.597   4.666
12699W        W84228  32.033  13.827   2.696
12700W        W84229  16.388   3.263  10.923
12701W        W84230  27.930  44.463  14.407
12702W        W84231  29.014  19.818  11.572
12703W        W84232  30.497  35.105  10.700
12704W        W84233  15.731  34.573  13.233
12705W        W84234  34.587  35.778  11.121
12706W        W84235   5.143  32.473  12.678
12707W        W84236  34.186   9.832   3.192
12708W        W84237  27.175  43.335  11.059
12709W        W84238  43.863  10.822   4.204
12710W        W84239   2.431  19.192   3.832
12711W        W84240  30.408  24.574   1.837
12712W        W84241  41.069  17.032  11.716
12713W        W84242   9.799  27.723   2.541
12714W        W84243  42.117  22.817   1.765
12715W        W84244  21.777  29.572   0.354
12716W        W84245  43.119  32.080  11.538
12717W        W84246  38.973  10.323  14.000
12718W        W84247  32.453  35.799   1.282
12719W        W84248  21.062  17.715   3.565
12720W        W84249  13.139  33.629   0.769
12721W        W84250  41.295  32.224  12.685
12722W        W84251  18.226   0.929   4.427
12723W        W84252  38.367  31.944  10.718
12724W        W84253   0.897  34.502   4.241
12725W        W84254  33.056  16.814   4.289
12726W        W84255  14.001  25.682  11.242
12727W        W84256   7.284   4.219   3.150
12728W        W84257  30.956  33.030   4.481
12729W        W84258   0.676   7.002  12.851
12730W        W84259  10.291  14.910  13.889
12731W        W84260  39.107   2.941  12.059
12732W        W84261   6.766   1.369  13.593
12733W        W84262  23.810  30.194   4.767
12734W        W84263  12.723   3.199  10.940
12735W        W84264  13.767  23.529  12.590
12736W        W84265  18.275  18.717  14.970
12737W        W84266  12.851  42.784  12.916
12738W        W84267  19.570  16.170   1.772
12739W        W84268  21.920  34.327  12.967
12740W        W84269  12.714  29.470  14.811
12741W        W84270  32.839  32.129  12.498
12742W        W84271   6.965  24.166   1.312
12743W        W84272  13.682  37.328   4.287
12744W        W84273  36.779  34.869   4.079
12745W        W84274  15.050  20.539  12.893
12746W        W84275  12.171  35.650   3.864
12747W        W84276  19.956  15.802   9.679
12748W        W84277   5.028   0.749  11.144
12749W        W84278  32.050   2.015  14.764
12750W        W84279  33.825   1.358   0.962
12751W        W84280   6.018  35.956   4.256
12752W        W84281  14.408  15.110  11.568
12753W        W84282  26.766  26.579  10.826
12754W        W84283  38.034   1.831   3.082
12755W        W84284  33.552  16.098   3.897
12756W        W84285  30.778  20.243   0.010
12757W        W84286  10.607   2.239  13.466
12758W        W84287  30.201  30.674   1.385
12759W        W84288  41.467  41.583   3.859
12760W        W84289  29.911  19.481  11.139
12761W        W84290   8.852  23.848   3.156
12762W        W84291  38.393  39.995  11.670
12763W        W84292  35.122  30.921   4.693
12764W        W84293  36.445  20.177  11.079
12765W        W84294  35.740  35.582  11.105
12766W        W84295  33.224  14.222   0.407
12767W        W84296  23.688  14.335   2.027
12768W        W84297   5.143  44.237   2.881
12769W        W84298  42.467  41.294   0.659
12770W        W84299  22.681  38.504  12.640
12771W        W84300  18.491  12.195   3.661
12772W        W84301  16.228  21.914  14.363
12773W        W84302  14.301  37.745   1.045
12774W        W84303  44.353  17.822  10.399
12775W        W84304  37.513  40.528   0.290
12776W        W84305   5.788  29.134  10.841
12777W        W84306  11.330  40.036  12.879
12778W        W84307  32.925  31.597  12.422
12779W        W84308  32.742  42.842  12.366
12780W        W84309  32.049  16.615  13.441
12781W        W84310  33.855  10.242   2.303
12782W        W84311   6.267  25.150   1.856
12783W        W84312  18.071  32.146  10.646
12784W        W84313  28.199  11.847   2.698
12785W        W84314   8.393  44.195  14.788
12786W        W84315  40.858  36.055  13.426
12787W        W84316  18.326  14.222  10.365
12788W        W84317  38.316  14.098  11.068
12789W        W84318   3.927  12.518   0.962
12790W        W84319  20.314  31.125   3.831
12791W        W84320  25.339  39.782  11.513
12792W        W84321  38.116  17.575  11.843
12793W        W84322   8.355  24.419   2.397
12794W        W84323   2.722  37.585   2.665
12795W        W84324  20.294   0.881  14.938
12796W        W84325  30.154  31.239  14.376
12797W        W84326   2.912  17.764  12.877
12798W        W84327  31.630  30.198   4.696
12799W        W84328  24.074  18.175  12.327
12800W        W84329  44.271  20.544  13.111
12801W        W84330  43.960  27.838   2.777
12802W        W84331  22.257  11.196   1.966
12803W        W84332  22.546   1.530  13.824
12804W        W84333  29.552  12.986  13.465
12805W        W84334  18.879   9.711   1.900
12806W        W84335   3.742  10.342   1.729
12807W        W84336  29.046  12.895   4.208
12808W        W84337  26.542  14.997   3.593
12809W        W84338  28.246   4.613   4.203
12810W        W84339  41.067  20.485   0.123
12811W        W84340  19.510   5.333  14.533
12812W        W84341  20.338  42.885  11.100
12813W        W84342  44.632  30.916   3.177
12814W        W84343   1.581  13.734   0.868
12815W        W84344  43.933  30.191  10.710
12816W        W84345  31.506  39.955  11.481
12817W        W84346  41.281  17.191   4.266
12818W        W84347  43.638  24.673   2.555
12819W        W84348  27.007  35.161  13.908
12820W        W84349   2.893  23.975   4.866
12821W        W84350  28.668  15.346   3.642
12822W        W84351  26.187   7.469  14.486
12823W        W84352  19.821   7.470   1.826
12824W        W84353  35.815  42.323   1.227
12825W        W84354  18.272  15.310   1.918
12826W        W84355  36.917  26.565   4.297
12827W        W84356   3.692  16.665  11.552
12828W        W84357   2.297   5.421  12.548
12829W        W84358  20.181  36.399   4.304
12830W        W84359  41.312  36.328  13.426
12831W        W84360  12.212  10.107   3.706
12832W        W84361   4.837  44.077   4.793
12833W        W84362  37.337  40.314   4.983
12834W        W84363   9.346   9.144  13.479
12835W        W84364  27.061  16.654  14.259
12836W        W84365  30.453  18.796  14.888
12837W        W84366  21.751  11.508  12.474
12838W        W84367  20.649  31.451   4.009
12839W        W84368  26.619  12.815  13.879
12840W        W84369  42.266  14.840  10.939
12841W        W84370  22.451  23.303  11.831
12842W        W84371  32.366   6.151  11.245
12843W        W84372  34.125  38.736  14.442
12844W        W84373  34.213  18.637  14.358
12845W        W84374  27.575   7.897   3.156
12846W        W84375   6.910  26.419  14.320
12847W        W84376  42.939  25.446   4.642
12848W        W84377  18.717  13.751   1.452
12849W        W84378   2.223  32.571   0.827
12850W        W84379   6.735  26.557  13.842
12851W        W84380  17.132  29.916  14.019
12852W        W84381  10.706  12.729   0.761
12853W        W84382  29.053  29.849  14.478
12854W        W84383  21.802  16.197  14.512
12855W        W84384  14.797  16.075  13.322
12856W        W84385  38.478  29.680   2.339
12857W        W84386  26.892   6.912   3.274
12858W        W84387   0.893  30.753  11.866
12859W        W84388  25.100  38.218   2.378
12860W        W84389  31.442   5.087  10.735
12861W        W84390  44.922   0.535   2.080
12862W        W84391  13.851  11.366   0.870
12863W        W84392  22.079  15.550  13.432
12864W        W84393  22.376  31.656   1.185
12865W        W84394   7.340   3.387  12.089
12866W        W84395   1.351  44.864  12.401
12867W        W84396  22.629  41.973  12.213
12868W        W84397  24.540  21.037  13.961
12869W        W84398  15.738  30.287  11.582
12870W        W84399  20.232   8.197  14.858
12871W        W84400  32.847  16.795   2.383
12872W        W84401  44.504  40.368  12.468
12873W        W84402  20.260  27.429   3.301
12874W        W84403  10.115  19.280   2.219
12875W        W84404  42.946  23.526   0.741
12876W        W84405  41.940  28.027   4.648
12877W        W84406  10.208  42.306  10.596
12878W        W84407  24.753   9.993  12.224
12879W        W84408   2.378  39.799   2.444
12880W        W84409  33.539  43.065  12.982
12881W        W84410  29.897   4.314  11.409
12882W        W84411  31.407  41.968   1.287
12883W        W84412  44.520   4.318   2.088
12884W        W84413  37.265  13.730   3.183
12885W        W84414  24.613  17.957   2.359
12886W        W84415  29.055  19.737   1.710
12887W        W84416  26.939  18.665   2.235
12888W        W84417  26.074  43.560   3.586
12889W        W84418  29.074   3.898   2.463
12890W        W84419   1.859  34.116  14.355
12891W        W84420  36.339  12.692  12.104
12892W        W84421  15.728  22.801   3.597
12893W        W84422   9.860  34.590  12.913
12894W        W84423   2.292  31.980  14.520
12895W        W84424  39.587  27.179  11.609
12896W        W84425  33.468  23.132   2.788
12897W        W84426  15.758  13.194   2.772
12898W        W84427  10.097  27.368   4.615
12899W        W84428  27.727  11.617  12.157
12900W        W84429  11.898  24.918  13.221
12901W        W84430   4.879  11.927   0.758
12902W        W84431   5.116  13.868  12.659
12903W        W84432   0.730  22.073   1.791
12904W        W84433  25.244   8.415  12.976
12905W        W84434  42.476  42.033  12.948
12906W        W84435  44.358  24.021   4.143
12907W        W84436   0.299   8.264  11.630
12908W        W84437  16.344  20.556  11.021
12909W        W84438  39.217  34.408  12.881
12910W        W84439  32.820   6.201   1.280
12911W        W84440  37.617  42.932  10.911
12912W        W84441  39.289  37.159  12.499
12913W        W84442  40.825   6.551  11.262
12914W        W84443  37.472  18.214  11.991
12915W        W84444  16.181   1.832  10.519
12916W        W84445   0.959  22.689   4.612
12917W        W84446  23.908  21.025   3.591
12918W        W84447  29.419   0.455   3.225
12919W        W84448   7.539  12.488  11.184
12920W        W84449   1.406  24.112  12.889
12921W        W84450  15.633  26.942   3.266
12922W        W84451  26.582   2.305  10.656
12923W        W84452   5.790  27.453   1.482
12924W        W84453   1.487  17.638   0.627
12925W        W84454  31.452   9.697  12.616
12926W        W84455  20.150  39.285   0.421
12927W        W84456   5.730  24.418  14.592
12928W        W84457  34.367  10.861   3.308
12929W        W84458  38.813  30.235  10.216
12930W        W84459  44.693  38.054   1.661
12931W        W84460   5.827  11.921   0.873
12932W        W84461   9.360  36.859  10.880
12933W        W84462  15.578   0.813  10.916
12934W        W84463   6.981  38.288   4.050
12935W        W84464  11.869  13.563   0.544
12936W        W84465  27.054  24.536   1.180
12937W        W84466  19.688  26.987   0.732
12938W        W84467   9.695  28.919   2.851
12939W        W84468  15.052  39.625   0.614
12940W        W84469  35.588  38.854  11.429
12941W        W84470  12.770  14.772   4.665
12942W        W84471  42.511  19.640  14.762
12943W        W84472   2.216   6.677   1.337
12944W        W84473   1.700  24.924   0.361
12945W        W84474   1.024  26.250   3.240
12946W        W84475  22.712  23.659   2.621
12947W        W84476  10.701  36.111   0.245
12948W        W84477  12.600  36.047  13.427
12949W        W84478  32.092   4.603   1.768
12950W        W84479   1.596  39.141  12.320
12951W        W84480  20.054  34.606  10.611
12952W        W84481  32.948  31.455  13.443
12953W        W84482  13.569  15.117  10.739
12954W        W84483  38.561  33.119   1.741
12955W        W84484  25.451  36.515   4.489
12956W        W84485  35.520  13.654  14.947
12957W        W84486  43.515   8.164   3.695
12958W        W84487  16.289  26.993  12.402
12959W        W84488   5.244   1.892  12.786
12960W        W84489  30.603  39.363   2.683
12961W        W84490  15.765   0.469   3.885
12962W        W84491   9.123  34.510  13.470
12963W        W84492  21.071  37.362  10.557
12964W        W84493  36.345   6.775  12.379
12965W        W84494  10.785   2.075   2.686
12966W        W84495  42.963  21.933   1.822
12967W        W84496  13.460  14.110   2.750
12968W        W84497  26.618  18.786  13.517
12969W        W84498  28.927   6.222  12.948
12970W        W84499  25.503  35.116  12.601
12971W        W84500  30.614  21.467  12.356
12972W        W84501  33.664  12.843  11.543
12973W        W84502  13.518  18.542  14.457
12974W        W84503  13.618  42.793   3.321
12975W        W84504  29.536  41.332  12.104
12976W        W84505  38.807   2.519  10.872
12977W        W84506  44.375  44.109  11.619
12978W        W84507  44.544  28.709  10.714
12979W        W84508   9.479  11.015  13.898
12980W        W84509   5.418   5.453  11.188
12981W        W84510  26.710   3.497  12.224
12982W        W84511  32.458  35.975  12.378
12983W        W84512  30.648  41.831   2.415
12984W        W84513   8.629  21.645  13.459
12985W        W84514  34.639  26.496  13.940
12986W        W84515  35.076   2.297  12.919
12987W        W84516   3.681  18.096   4.515
12988W        W84517  39.373  44.983   1.155
12989W        W84518  10.262  26.025  12.496
12990W        W84519   0.006  27.201  14.464
12991W        W84520  23.192  13.276  12.387
12992W        W84521  40.403  34.763   2.654
12993W        W84522  41.091   4.848  10.688
12994W        W84523  31.514  17.797   1.703
12995W        W84524  43.983   1.903   2.301
12996W        W84525  28.641   9.175  11.649
12997W        W84526  23.140  35.421   0.155
12998W        W84527  18.183  33.442   1.099
12999W        W84528  15.897  41.368  12.118
13000W        W84529   2.737  26.292  11.876
13001W        W84530  18.600   9.352  11.031
13002W        W84531  19.566   2.954  11.067
13003W        W84532   6.272  31.646   3.209
13004W        W84533  10.720  28.759   0.259
13005W        W84534  30.666  31.942   0.451
13006W        W84535  19.199   1.824  12.898
13007W        W84536  22.126  16.752  11.294
13008W        W84537   3.716  26.208  11.949
13009W        W84538   2.021  19.191   0.400
13010W        W84539  31.980  13.515  12.425
13011W        W84540   4.915  30.513  10.403
13012W        W84541  10.120  13.396  14.461
13013W        W84542  30.689   9.637   1.392
13014W        W84543  44.311  37.131  12.002
13015W        W84544  19.249  21.054   3.183
13016W        W84545   6.267  27.933  12.976
13017W        W84546  44.730  40.005  10.743
13018W        W84547   3.887  32.925   1.465
13019W        W84548  27.712  14.131   0.783
13020W        W84549  14.217  41.074  14.426
13021W        W84550  43.803   2.123  14.109
13022W        W84551  38.879  18.690  14.765
13023W        W84552  18.712   5.049   0.245
13024W        W84553  28.100  42.403   2.575
13025W        W84554  42.173  27.022   3.983
13026W        W84555  40.968  41.255   1.166
13027W        W84556  33.099  42.412   4.956
13028W        W84557  40.351  19.672  14.307
13029W        W84558   5.293  36.389   4.511
13030W        W84559   4.259   7.809   1.198
13031W        W84560  24.154  19.083  11.492
13032W        W84561  39.729  32.476  11.707
13033W        W84562  18.599   1.375  10.703
13034W        W84563  38.746  41.948   0.235
13035W        W84564  28.380  36.194  12.514
13036W        W84565  31.618  15.645  12.920
13037W        W84566   9.374  17.227   1.773
13038W        W84567  42.736   3.798   3.461
13039W        W84568  27.732  40.940  10.571
13040W        W84569  12.646  19.282  10.882
13041W        W84570  34.035   9.308   1.358
13042W        W84571  16.622  30.610  10.525
13043W        W84572  23.491  21.176   0.900
13044W        W84573  44.319  37.505  10.306
13045W        W84574  35.849  33.175   1.008
13046W        W84575  31.981  44.936   1.701
13047W        W84576  31.965  31.264  14.448
13048W        W84577  26.119  32.026  14.935
13049W        W84578  30.682  41.270   1.296
13050W        W84579  19.583   2.978  12.733
13051W        W84580  29.616  12.097   2.617
13052W        W84581  34.464  36.659  14.413
13053W        W84582  16.358   7.003   4.088
13054W        W84583  37.563   0.467   1.229
13055W        W84584   6.389  41.664  12.991
13056W        W84585  10.770   9.442   0.392
13057W        W84586   2.871   2.711   0.057
13058W        W84587   0.363   4.770  11.992
13059W        W84588   2.309  30.649  11.938
13060W        W84589  26.694   0.412  14.886
13061W        W84590  27.537  12.661   3.611
13062W        W84591  10.917  15.046  14.468
13063W        W84592  40.534  38.336   0.991
13064W        W84593  38.984  24.940   3.260
13065W        W84594  14.952  37.003  13.274
13066W        W84595  30.976   2.453   4.219
13067W        W84596   5.573  30.644  14.937
13068W        W84597  15.059   2.425  12.498
13069W        W84598   7.698  43.509   2.599
13070W        W84599  24.269   5.211  13.071
13071W        W84600  15.418  24.449   0.943
13072W        W84601  21.460  24.736  10.785
13073W        W84602  32.114  25.044  12.367
13074W        W84603  39.314  29.472  10.427
13075W        W84604  18.763  20.727   2.370
13076W        W84605  25.984  19.194  14.791
13077W        W84606  37.593   0.479   1.736
13078W        W84607  17.041  26.199  10.729
13079W        W84608  37.373  17.555   4.261
13080W        W84609  43.748  35.584   1.986
13081W        W84610   0.339  18.751   1.692
13082W        W84611  42.221  15.709  11.253
13083W        W84612  41.340  13.887  12.923
13084W        W84613  27.595  26.210  11.964
13085W        W84614  12.903   3.111  13.803
13086W        W84615  26.097   0.410   3.578
13087W        W84616  36.306  40.523  13.887
13088W        W84617  36.833  26.303   0.461
13089W        W84618   6.600  30.549  14.789
13090W        W84619  23.546  25.037   2.870
13091W        W84620   9.415  39.734   2.991
13092W        W84621  28.867   2.852  14.720
13093W        W84622  40.290  37.374  13.519
13094W        W84623   3.388   9.840   2.165
13095W        W84624   5.225   4.875   1.786
13096W        W84625  41.924  27.574   0.001
13097W        W84626   6.610  37.906  14.345
13098W        W84627  19.813  12.563   1.692
13099W        W84628  22.306  32.009  11.161
13100W        W84629  39.484  22.971   1.402
13101W        W84630  31.166  21.038   3.701
13102W        W84631  29.899   8.293  13.486
13103W        W84632  13.855  33.612   3.824
13104W        W84633  33.160  28.885  12.015
13105W        W84634   1.348  36.902  13.577
13106W        W84635   8.517  14.560  14.424
13107W        W84636  28.561  16.957   4.021
13108W        W84637  24.638  26.964  11.421
13109W        W84638  19.327  19.865   1.300
13110W        W84639  17.188  19.273   0.962
13111W        W84640   9.689  25.468   2.999
13112W        W84641   3.616  11.761   0.295
13113W        W84642  35.244  43.356   2.642
13114W        W84643  32.991  33.493   0.253
13115W        W84644   5.697  10.197   3.274
13116W        W84645  17.700  41.450  12.099
13117W        W84646   5.819  44.816  13.946
13118W        W84647  22.423  29.460  11.617
13119W        W84648   9.984   6.471   5.066
13120W        W84649  22.640  38.054  11.975
13121W        W84650  40.649   2.660  12.080
13122W        W84651   6.458  44.125  12.038
13123W        W84652  17.619  23.924  14.390
13124W        W84653  20.298  40.703   2.396
13125W        W84654  15.149  19.105   4.027
13126W        W84655   8.629   7.269   4.646
13127W        W84656  28.505  14.097  12.060
13128W        W84657  22.753  36.861   2.014
13129W        W84658   6.208  43.295   2.125
13130W        W84659  44.658  18.541  11.928
13131W        W84660  21.730  14.841   2.041
13132W        W84661  27.219  30.021   2.352
13133W        W84662   6.278  36.729   1.061
13134W        W84663  32.528  20.773  13.015
13135W        W84664  36.247  28.104  10.718
13136W        W84665   6.859   7.698  13.450
13137W        W84666  29.219  41.331   1.949
13138W        W84667   9.918  33.052   4.210
13139W        W84668  33.837  44.442   2.119
13140W        W84669   2.922   4.707  12.056
13141W        W84670  31.147  41.279   3.252
13142W        W84671  19.836  42.307   1.001
13143W        W84672  16.731   4.376   2.420
13144W        W84673   1.812  19.171   4.536
13145W        W84674   4.720   2.521  13.945
13146W        W84675  19.066  31.679  13.906
13147W        W84676   7.186  44.044  13.983
13148W        W84677   0.518  14.633  10.727
13149W        W84678  10.752  13.540   4.748
13150W        W84679  29.427  23.480   1.656
13151W        W84680   2.324  30.930   4.008
13152W        W84681   5.430  44.527  14.413
13153W        W84682  11.676   4.683   4.178
13154W        W84683  38.531  28.039  11.656
13155W        W84684  12.203  36.363   3.352
13156W        W84685   5.738   2.926   4.300
13157W        W84686  14.785  43.824   4.839
13158W        W84687  16.633  34.964  10.744
13159W        W84688  42.911  28.506  14.416
13160W        W84689  12.257  14.339  12.031
13161W        W84690  15.569  31.978  13.022
13162W        W84691   6.668  14.294   2.222
13163W        W84692   8.089  35.289  12.990
13164W        W84693   1.963  20.980  12.659
13165W        W84694  26.162  20.248  11.960
13166W        W84695  38.533  17.533  12.662
13167W        W84696  18.085  40.918  14.816
13168W        W84697   2.505   9.828   2.216
13169W        W84698  19.589  44.912   0.554
13170W        W84699  33.623  33.900  13.401
13171W        W84700  38.604   0.516   4.097
13172W        W84701  21.299   2.246  11.763
13173W        W84702  39.743  36.616  14.565
13174W        W84703   7.244  26.327   1.731
13175W        W84704   3.352  22.113  13.614
13176W        W84705   9.410  40.370   4.570
13177W        W84706   5.298  31.399  12.083
13178W        W84707   7.913  11.684   4.644
13179W        W84708   5.468  22.956   3.572
13180W        W84709  16.865  35.435  10.718
13181W        W84710  22.315  23.649  11.233
13182W        W84711  37.606   4.779  14.803
13183W        W84712  21.920  21.640  11.655
13184W        W84713   7.661   5.432   0.905
13185W        W84714   2.184  41.516  12.908
13186W        W84715  14.084  10.142   2.211
13187W        W84716  17.200  13.399   0.423
13188W        W84717   0.329   9.809  11.933
13189W        W84718   0.716   0.367   4.738
13190W        W84719   2.021  19.132   1.237
13191W        W84720  20.404  43.023  12.550
13192W        W84721  15.120  36.366  11.695
13193W        W84722  15.799  44.340  12.992
13194W        W84723  40.552  42.051   0.304
13195W        W84724  40.526  17.040   5.004
13196W        W84725  18.782  34.439  11.177
13197W        W84726  22.185  11.270   2.918
13198W        W84727  33.045  42.941  10.970
13199W        W84728  41.330  12.733  13.940
13200W        W84729  14.695   3.943  10.760
13201W        W84730  36.058  27.357   4.076
13202W        W84731  44.590   9.233   2.818
13203W        W84732   5.754  15.744   0.743
13204W        W84733  35.619  23.761   1.778
13205W        W84734  26.581  42.088  12.013
13206W        W84735  24.576  24.873   3.108
13207W        W84736  40.048   8.274  11.866
13208W        W84737  26.993  26.141   2.786
13209W        W84738  12.900  11.890   3.672
13210W        W84739  27.563  44.654   1.920
13211W        W84740  20.505  16.539  11.957
13212W        W84741  17.770   6.878   0.397
13213W        W84742  29.040  29.920   2.213
13214W        W84743  31.211  16.004  12.569
13215W        W84744  15.222  24.750   3.687
13216W        W84745   3.532   0.716  11.032
13217W        W84746   3.285   8.785  14.456
13218W        W84747  44.931  22.984   2.300
13219W        W84748  31.521  42.341  11.080
13220W        W84749  16.508   7.226  12.861
13221W        W84750  31.994  24.259  13.087
13222W        W84751  27.474  39.112   1.716
13223W        W84752   2.670  20.753   0.690
13224W        W84753  30.901  32.909   1.442
13225W        W84754  15.017   0.701  12.403
13226W        W84755   6.335  11.936  10.887
13227W        W84756   0.608  35.015  10.789
13228W        W84757  14.816  32.813  10.759
13229W        W84758  14.713  12.679  11.559
13230W        W84759   5.450  16.848   1.390
13231W        W84760  38.864  10.958   0.017
13232W        W84761   1.420  29.437  11.109
13233W        W84762  43.885  34.700   0.488
13234W        W84763  27.013  30.078  11.566
13235W        W84764  31.107  24.807  11.986
13236W        W84765  12.165  16.503   1.696
13237W        W84766   1.937  16.481   0.695
13238W        W84767  38.141   8.093   2.385
13239W        W84768  26.223  44.018   2.294
13240W        W84769   5.908   1.819   3.658
13241W        W84770  16.384  35.896  11.526
13242W        W84771  36.112  19.903  13.594
13243W        W84772  44.066  39.407  10.742
13244W        W84773  12.791  32.181  10.636
13245W        W84774  27.496   3.246  13.284
13246W        W84775   4.039   1.874  13.353
13247W        W84776  18.831  31.179   4.675
13248W        W84777  38.862  23.408   3.217
13249W        W84778  23.675  11.372   1.101
13250W        W84779   6.887  32.219  11.334
13251W        W84780  43.588   5.174   3.853
13252W        W84781  35.087  30.083  14.384
13253W        W84782   3.563  25.046   2.962
13254W        W84783  44.226   3.350  13.318
13255W        W84784  17.424  35.807  13.076
13256W        W84785  43.081   8.424   3.576
13257W        W84786  40.977  36.407  14.359
13258W        W84787  25.542   1.989  13.045
13259W        W84788  12.588  30.733  14.604
13260W        W84789  43.077   8.454  12.106
13261W        W84790  42.669  36.270   4.087
13262W        W84791  17.573  40.979  14.881
13263W        W84792  35.836  43.070  11.975
13264W        W84793   5.308  44.612   4.161
13265W        W84794  42.074  11.353  13.318
13266W        W84795  30.949  28.241  11.062
13267W        W84796  23.087  25.077  12.292
13268W        W84797  25.619  22.306  11.237
13269W        W84798   9.891  27.270  10.576
13270W        W84799   0.634  27.527   2.243
13271W        W84800  40.070   9.909   2.341
13272W        W84801  32.429  31.649   2.693
13273W        W84802   6.819   8.379   4.404
13274W        W84803  39.947   2.818  10.684
13275W        W84804  42.896  41.275   2.681
13276W        W84805  25.609   3.935  11.383
13277W        W84806   8.838   7.291  12.519
13278W        W84807  26.004   7.198   3.787
13279W        W84808  29.467  12.108   1.744
13280W        W84809   9.765  40.855  14.792
13281W        W84810  18.293  17.833  11.975
13282W        W84811   4.787  37.777   2.789
13283W        W84812  41.277  20.724   2.328
13284W        W84813  32.136   3.787  11.668
13285W        W84814  11.652  30.263  10.946
13286W        W84815   6.458  41.144   3.261
13287W        W84816   6.119  32.679  10.713
13288W        W84817  15.603  24.225   2.777
13289W        W84818  44.233  24.692  11.860
13290W        W84819  13.263   4.805   1.540
13291W        W84820  33.137  17.249  10.352
13292W        W84821   1.024  22.029   3.313
13293W        W84822   2.913  43.262   0.856
13294W        W84823   7.718  14.145   3.622
13295W        W84824  21.938  12.243  13.890
13296W        W84825  28.628  19.292  10.947
13297W        W84826  43.273   0.370   0.201
13298W        W84827  22.453  16.705   0.064
13299W        W84828  20.678  19.741   0.178
13300W        W84829   0.448  32.641   4.552
13301W        W84830  26.158  39.198  10.773
13302W        W84831  21.585  44.880   2.360
13303W        W84832  29.674   6.810   4.118
13304W        W84833  44.860  36.824   3.659
13305W        W84834  28.163  24.986   2.697
13306W        W84835  19.080   8.627   4.090
13307W        W84836  25.431  18.698  12.033
13308W        W84837  19.599  17.783   1.517
13309W        W84838  39.278  43.500  10.687
13310W        W84839   3.878   1.912   4.604
13311W        W84840  18.238  42.955   2.293
13312W        W84841   2.039  30.946   0.540
13313W        W84842  42.809   0.733  12.615
13314W        W84843  27.342  37.008  10.577
13315W        W84844   8.292  26.883  12.525
13316W        W84845   2.481  32.682  13.228
13317W        W84846   9.773  33.961   4.068
13318W        W84847  13.042  43.024  13.343
13319W        W84848  34.664   9.020   4.513
13320W        W84849  17.501  37.815  11.653
13321W        W84850  10.683   3.464  14.918
13322W        W84851   0.095  38.267   2.405
13323W        W84852  18.064  17.280   4.190
13324W        W84853  19.542  32.293   4.159
13325W        W84854   9.459  32.635   4.777
13326W        W84855  17.328  20.113  13.969
13327W        W84856  35.951   5.186  12.784
13328W        W84857  30.963   1.109   0.694
13329W        W84858   8.699  12.359  14.332
13330W        W84859  19.127  37.133  11.874
13331W        W84860  34.467  11.792   0.188
13332W        W84861  16.161  36.437  13.447
13333W        W84862  10.797  38.849   0.827
13334W        W84863  32.661  20.779   2.013
13335W        W84864  34.062  39.273   0.421
13336W        W84865  27.923  42.059  12.673
13337W        W84866  42.950   6.276  13.416
13338W        W84867  44.938  21.164  11.979
13339W        W84868   1.415  41.928   3.087
13340W        W84869  40.585  41.477   4.394
13341W        W84870  24.748  26.899   3.286
13342W        W84871  22.036  13.695   0.379
13343W        W84872   7.385  34.106  12.513
13344W        W84873  33.933  14.376  11.973
13345W        W84874   9.796  20.900   1.234
13346W        W84875   0.223  40.043  11.557
13347W        W84876  20.441  38.198   9.769
13348W        W84877   0.959   6.768  13.785
13349W        W84878  27.034   8.794   1.012
13350W        W84879  30.893   5.346   2.868
13351W        W84880   6.625   3.867  10.683
13352W        W84881  39.452  31.764   1.160
13353W        W84882   3.909  13.681   2.273
13354W        W84883  14.432  35.256  12.088
13355W        W84884  32.785   7.110  14.964
13356W        W84885  32.935  44.999  10.605
13357W        W84886   7.694  42.107   3.175
13358W        W84887  36.941  41.316   0.305
13359W        W84888  23.149  39.269  12.979
13360W        W84889   0.581  35.528  13.367
13361W        W84890  34.613  36.246   2.740
13362W        W84891  25.121  41.185  14.370
13363W        W84892  21.448  42.548   3.659
13364W        W84893  10.396  14.290  10.679
13365W        W84894  17.208  43.307  13.554
13366W        W84895  29.228  36.908  12.603
13367W        W84896  20.455  41.433  13.497
13368W        W84897  25.050  19.148  14.746
13369W        W84898   1.478  44.354   4.659
13370W        W84899  14.214  10.908   1.914
13371W        W84900  41.437  10.028   0.367
13372W        W84901  36.639  38.785   3.788
13373W        W84902   4.864  19.206  13.943
13374W        W84903  11.825  26.147  10.951
13375W        W84904  34.900  21.569  10.534
13376W        W84905   3.339   5.269  12.665
13377W        W84906   4.040  29.277  11.474
13378W        W84907  34.933  12.168   3.803
13379W        W84908  33.967  27.985  13.797
13380W        W84909  44.918  37.235   2.273
13381W        W84910  34.041   6.909  10.916
13382W        W84911  18.117  31.112  11.677
13383W        W84912  23.136  19.328  12.912
13384W        W84913   9.701  41.252  11.060
13385W        W84914   3.447   6.770   3.339
13386W        W84915  18.757  37.493  12.408
13387W        W84916  33.730   4.532  11.995
13388W        W84917  33.430  30.169   1.244
13389W        W84918  41.394  31.075   3.592
13390W        W84919  36.955  12.968  11.631
13391W        W84920  27.961  37.406   2.700
13392W        W84921  40.985  41.986  12.914
13393W        W84922  24.440  36.601   0.213
13394W        W84923  32.713  23.539  12.151
13395W        W84924  35.967   4.364   0.933
13396W        W84925  14.278  28.152   0.938
13397W        W84926  15.104  16.604  10.739
13398W        W84927  19.799   4.633  11.589
13399W        W84928  14.971  27.634  12.691
13400W        W84929  19.167  29.652  13.465
13401W        W84930  21.749  14.407   3.109
13402W        W84931   5.702  11.592   1.263
13403W        W84932   3.900  41.959   4.118
13404W        W84933  33.446   6.934   1.314
13405W        W84934  13.444  39.510  14.859
13406W        W84935   8.136   2.787  10.334
13407W        W84936  11.777  40.541   4.103
13408W        W84937  30.379  30.173   1.330
13409W        W84938  39.088  42.470  12.084
13410W        W84939  19.974   8.973  13.783
13411W        W84940  40.760  42.775   0.487
13412W        W84941   4.697  21.996   2.892
13413W        W84942  27.042  26.419  14.697
13414W        W84943  15.832  33.568  11.508
13415W        W84944   7.713   0.946  10.666
13416W        W84945   3.218  24.164   2.755
13417W        W84946  26.898  30.482  10.622
13418W        W84947   0.945   9.910  12.641
13419W        W84948   5.321   6.735  11.515
13420W        W84949   9.402  22.857   4.094
13421W        W84950  39.119  40.545   3.622
13422W        W84951  33.899  39.791  13.121
13423W        W84952  44.140   8.213   1.180
13424W        W84953  14.219  41.550  14.597
13425W        W84954  44.119   8.966  13.305
13426W        W84955  35.869  22.227  14.079
13427W        W84956  20.986  17.037   0.782
13428W        W84957   5.868  33.515   3.366
13429W        W84958  32.151  30.599  12.227
13430W        W84959  14.020  20.186  13.248
13431W        W84960   0.745  25.244  13.100
13432W        W84961   4.455  28.223  14.976
13433W        W84962  17.983  37.482  12.954
13434W        W84963  22.708  31.873   0.238
13435W        W84964   7.015  43.500  12.002
13436W        W84965  40.381   3.766  14.710
13437W        W84966  23.103  44.826   4.254
13438W        W84967  11.126   2.405   1.836
13439W        W84968   6.678   6.432   0.172
13440W        W84969   4.810  41.806  14.229
13441W        W84970  29.806  34.668   2.452
13442W        W84971  33.183  11.845   0.372
13443W        W84972   1.317  44.553   0.853
13444W        W84973  33.582   7.591   3.155
13445W        W84974  15.285  31.206  14.780
13446W        W84975  22.114  17.713   0.372
13447W        W84976  38.440   5.329   1.625
13448W        W84977  13.141   7.594   1.129
13449W        W84978  10.351  17.101  13.325
13450W        W84979  11.873  26.928   0.848
13451W        W84980  29.166  16.205  12.457
13452W        W84981  36.167  10.036  12.432
13453W        W84982  43.427   7.669  12.517
13454W        W84983   8.304   1.230  10.072
13455W        W84984  22.200  13.307  14.583
13456W        W84985  10.943  41.759  13.788
13457W        W84986  19.772  12.335  10.631
13458W        W84987   6.383   9.113   0.720
13459W        W84988   0.625  33.305  10.650
13460W        W84989   2.772  20.548   4.606
13461W        W84990  11.878  42.270   3.217
13462W        W84991  30.301  16.177   1.898
13463W        W84992  11.464  30.827   3.213
13464W        W84993  26.966  44.230   0.383
13465W        W84994  12.724   7.857  14.421
13466W        W84995  10.742  19.755   0.488
13467W        W84996  15.257  31.522  11.547
13468W        W84997  35.352  20.231  11.858
13469W        W84998  39.864  29.464  13.146
13470W        W84999  10.221  19.195   1.704
13471W        W85000  13.358  31.373  11.506
13472W        W85001  31.176  34.403  12.620
13473W        W85002  26.972   9.403   0.981
13474W        W85003   8.231   9.168   1.359
13475W        W85004   5.411  34.951  10.515
13476W        W85005  27.152   1.910  14.870
13477W        W85006  27.049  15.210   0.471
13478W        W85007  22.076  11.635   0.264
13479W        W85008  21.613  11.774   2.224
13480W        W85009  30.081  15.404  11.977
13481W        W85010  28.047  20.334   4.560
13482W        W85011  25.463  14.152   0.042
13483W        W85012  23.074   0.684  13.002
13484W        W85013  37.628  42.337  14.866
13485W        W85014   8.753  11.384  14.431
13486W        W85015  37.903  37.510  11.529
13487W        W85016   1.344  23.052   3.643
13488W        W85017  25.648   7.346  10.071
13489W        W85018  11.831  29.213  11.167
13490W        W85019  28.974  31.981  12.429
13491W        W85020  32.705   5.719  11.258
13492W        W85021  36.568  21.340   1.464
13493W        W85022   9.964   9.661   3.576
13494W        W85023   9.571  10.313   1.794
13495W        W85024  39.843  34.158  13.957
13496W        W85025  14.612  26.189  14.742
13497W        W85026  17.533  28.493   2.648
13498W        W85027  34.854   2.212   4.569
13499W        W85028   7.090  24.734  12.607
13500W        W85029  12.804  30.911   3.697
13501W        W85030  42.344  42.022   1.889
13502W        W85031  29.012  34.892   3.613
13503W        W85032  11.193   6.096  11.277
13504W        W85033  41.085   7.457   4.564
13505W        W85034   0.485   3.438   4.176
13506W        W85035   6.898  35.080  12.469
13507W        W85036   7.641  28.025   0.788
13508W        W85037  29.175  25.877  12.540
13509W        W85038  39.644  12.667   2.740
13510W        W85039  30.073  18.842  11.948
13511W        W85040  21.577  26.105  12.834
13512W        W85041  32.479  19.818   1.632
13513W        W85042   8.873  14.757  13.007
13514W        W85043  15.702   6.209  10.630
13515W        W85044  18.056   8.789   4.759
13516W        W85045   3.421   4.159  10.824
13517W        W85046   4.464  39.033   3.679
13518W        W85047  21.090  17.600  10.658
13519W        W85048  21.534  12.725   0.702
13520W        W85049  41.174  19.722  11.857
13521W        W85050  11.226  28.606  13.946
13522W        W85051  23.480   9.930  12.613
13523W        W85052  10.222  14.869  10.666
13524W        W85053   5.646  29.244  12.071
13525W        W85054  14.569  20.024  11.147
13526W        W85055  31.863   8.401  11.065
13527W        W85056  42.272  24.652   1.964
13528W        W85057   6.626  20.579  10.775
13529W        W85058  27.014  21.819   0.511
13530W        W85059   1.507  43.055  12.062
13531W        W85060   6.763   2.520  14.329
13532W        W85061  30.433  39.908   4.618
13533W        W85062  14.297  32.899   3.793
13534W        W85063   3.958  37.047  14.058
13535W        W85064   6.685   4.735   1.856
13536W        W85065  13.571   9.414   3.402
13537W        W85066  25.590   8.754  10.809
13538W        W85067   5.471  25.492  14.016
13539W        W85068   2.387  30.499  13.249
13540W        W85069   6.813  35.981  11.224
13541W        W85070  43.499   2.431   3.177
13542W        W85071  14.024  32.209   4.597
13543W        W85072  27.685   8.129   0.819
13544W        W85073  28.439  33.972   0.063
13545W        W85074  36.475  23.656   2.214
13546W        W85075   4.745  31.153  12.513
13547W        W85076  21.636   0.803  12.106
13548W        W85077  25.387  22.055   1.836
13549W        W85078  34.887   9.254  12.148
13550W        W85079  33.660   8.092   3.186
13551W        W85080  14.053   4.265   4.164
13552W        W85081  29.534  25.055   0.186
13553W        W85082  40.864  38.960   2.748
13554W        W85083  10.694  43.057  12.508
13555W        W85084   0.349   7.806  12.637
13556W        W85085  25.680  36.385   4.032
13557W        W85086  17.054   6.689  13.748
13558W        W85087  39.055   0.602   5.083
13559W        W85088  23.409  39.936  14.483
13560W        W85089  27.619  28.843   2.610
13561W        W85090   7.175   6.316  12.947
13562W        W85091  21.532  11.769  10.554
13563W        W85092  44.056   3.567  11.079
13564W        W85093  12.338  10.435   1.647
13565W        W85094  26.090   2.920  12.516
13566W        W85095  39.331  26.984  12.007
13567W        W85096   1.971  10.321  11.056
13568W        W85097  29.400   8.228   4.306
13569W        W85098  29.793  23.673  12.519
13570W        W85099  40.925  20.441  13.760
13571W        W85100  29.020  33.669   1.688
13572W        W85101   8.756  32.197   0.579
13573W        W85102  13.166  20.116   3.414
13574W        W85103  17.174  38.822  11.943
13575W        W85104  20.206  19.264   3.140
13576W        W85105  19.066  14.365  11.988
13577W        W85106  20.463  41.321   4.478
13578W        W85107  42.248  10.288  10.326
13579W        W85108  32.937   6.016   2.838
13580W        W85109  39.727   5.325   3.783
13581W        W85110   2.524   1.868  11.451
13582W        W85111  11.683  21.430   2.569
13583W        W85112  14.857  43.475  10.760
13584W        W85113  19.609  10.756   2.135
13585W        W85114  34.093  43.076   3.311
13586W        W85115  14.174  41.176  13.406
13587W        W85116  21.276  44.132   3.768
13588W        W85117  28.058  11.242  12.346
13589W        W85118   7.293  33.813   4.787
13590W        W85119  36.629   2.109   2.368
13591W        W85120  20.077  44.349  10.342
13592W        W85121  39.093   7.233  12.561
13593W        W85122  26.618   8.420   4.561
13594W        W85123  26.041  38.001   3.716
13595W        W85124  23.588   3.915  14.233
13596W        W85125  41.090  43.077  12.020
13597W        W85126  11.366  20.539  11.497
13598W        W85127  43.759  10.317   2.678
13599W        W85128  27.530  44.794  11.149
13600W        W85129  27.868  10.129   4.528
13601W        W85130   2.678   5.792  12.568
13602W        W85131  28.576   0.856  14.032
13603W        W85132   4.749  29.395  14.452
13604W        W85133   1.947   1.957   0.864
13605W        W85134  44.722  38.972  10.202
13606W        W85135   6.833  22.813  12.238
13607W        W85136   1.899   9.392   2.991
13608W        W85137  21.669  19.827   4.053
13609W        W85138  29.170  22.048   0.645
13610W        W85139  42.565  24.545  10.755
13611W        W85140   9.644  37.334   1.195
13612W        W85141  22.546   1.745   3.112
13613W        W85142  31.606   1.668   1.282
13614W        W85143  21.288  42.538  11.081
13615W        W85144  28.469  12.932   1.373
13616W        W85145  40.626  32.074  10.180
13617W        W85146   3.310   8.363   0.355
13618W        W85147   4.612  32.529   4.243
13619W        W85148   8.860  38.928  12.507
13620W        W85149   7.550  24.663  12.347
13621W        W85150  21.208  27.109  12.464
13622W        W85151  26.723  29.096   3.663
13623W        W85152   2.208  12.813  11.105
13624W        W85153  20.120  22.076   4.742
13625W        W85154   2.791  38.106   2.600
13626W        W85155  34.964  28.826   1.035
13627W        W85156  41.537   3.969  11.553
13628W        W85157  34.425  17.103  14.040
13629W        W85158  32.234  41.241   1.973
13630W        W85159  20.192   2.828  14.450
13631W        W85160   6.668  38.621   2.309
13632W        W85161  44.357  32.420  10.454
13633W        W85162   3.417  14.401  13.842
13634W        W85163   0.620   4.976   9.840
13635W        W85164   9.182  18.827  14.913
13636W        W85165  18.041   8.767   3.219
13637W        W85166  37.915   1.340  12.177
13638W        W85167   7.750   2.285   4.515
13639W        W85168  39.057  35.933  12.966
13640W        W85169  12.808   6.746   2.440
13641W        W85170   6.430  32.489  12.089
13642W        W85171   4.482   9.347  14.018
13643W        W85172   4.327  31.363  13.349
13644W        W85173  10.325   9.991   4.718
13645W        W85174  37.373  41.179  14.535
13646W        W85175  33.364  19.003  13.955
13647W        W85176  22.088  43.771   2.755
13648W        W85177  27.660  12.139   0.212
13649W        W85178  14.188  28.927  10.670
13650W        W85179  25.110  20.713  14.752
13651W        W85180  41.514  19.687  13.496
13652W        W85181  44.008  41.949  14.415
13653W        W85182  35.803  31.554   1.918
13654W        W85183  14.190  41.650  12.492
13655W        W85184   7.699  27.876   2.543
13656W        W85185   4.650  42.803  12.556
13657W        W85186  32.129   8.665   4.959
13658W        W85187  22.865  34.462   1.302
13659W        W85188  26.561  34.645   1.749
13660W        W85189   4.801  17.722   2.741
13661W        W85190  25.649   5.240   1.875
13662W        W85191  42.296  44.020  13.405
13663W        W85192   7.632  28.175   9.678
13664W        W85193  23.179   5.395   4.507
13665W        W85194  37.579   4.691   1.275
13666W        W85195  43.270  35.528   0.839
13667W        W85196   0.604  24.607   4.097
13668W        W85197  30.217   4.656  10.803
13669W        W85198  38.469   5.961   0.820
13670W        W85199  44.333  39.037  12.150
13671W        W85200  11.593  40.209  10.682
13672W        W85201  38.408  11.567   2.305
13673W        W85202  15.561  23.106   4.157
13674W        W85203  29.426  36.821   0.277
13675W        W85204  42.359  20.684   0.211
13676W        W85205  12.115  37.196  11.687
13677W        W85206  11.828  10.128   1.357
13678W        W85207  20.144  26.055   0.003
13679W        W85208   7.432  43.364  12.318
13680W        W85209  43.508  37.543  12.950
13681W        W85210  38.358  43.291   2.146
13682W        W85211  27.881  30.413   1.761
13683W        W85212   0.540   8.402   2.702
13684W        W85213  25.395  28.365   2.232
13685W        W85214  14.369  36.934   2.332
13686W        W85215  18.804  13.435   5.086
13687W        W85216  15.145  33.722  14.831
13688W        W85217  17.027  32.244  12.102
13689W        W85218  31.111  36.257   3.376
13690W        W85219  14.155  22.145   3.796
13691W        W85220  12.201  11.670  10.506
13692W        W85221  37.918  32.605  11.897
13693W        W85222   5.890  25.726  11.645
13694W        W85223  44.443  42.071   0.384
13695W        W85224  13.255  36.343  12.044
13696W        W85225  35.063  35.551  11.853
13697W        W85226  34.436  38.333  10.732
13698W        W85227  30.551  20.255  12.603
13699W        W85228  40.825   2.934  11.582
13700W        W85229  43.304   6.739   3.174
13701W        W85230  35.978   7.377  12.962
13702W        W85231   9.718  24.258  14.285
13703W        W85232   3.822  10.652   1.286
13704W        W85233  42.245  18.205   3.433
13705W        W85234  24.031  42.435  14.518
13706W        W85235   8.855  44.195  12.318
13707W        W85236  33.411   4.950  11.940
13708W        W85237  16.633  10.110   1.839
13709W        W85238   3.977  17.043  12.725
13710W        W85239   6.216  14.112  11.362
13711W        W85240  26.094  41.342   4.656
13712W        W85241   7.964  38.430   1.949
13713W        W85242  38.556  21.329  14.878
13714W        W85243  24.143  42.450  11.538
13715W        W85244  17.221  34.182   1.840
13716W        W85245  22.181  44.264  14.970
13717W        W85246  40.253  40.000   1.639
13718W        W85247  22.539   8.798  12.572
13719W        W85248  35.110  32.637  13.304
13720W        W85249  36.036   7.419  11.976
13721W        W85250  36.395  21.501  12.989
13722W        W85251  41.096  12.798   3.816
13723W        W85252  27.895  39.149   4.134
13724W        W85253  39.808  22.798  13.954
13725W        W85254  37.631   1.270   2.297
13726W        W85255   0.166  31.280   4.927
13727W        W85256  36.481  23.362  13.360
13728W        W85257  38.579   2.445   0.238
13729W        W85258   2.451   1.215   3.185
13730W        W85259  23.416   5.128  13.566
13731W        W85260  24.620   3.881   3.342
13732W        W85261  19.630   9.678  14.243
13733W        W85262  35.005  33.404  12.945
13734W        W85263  28.963   0.122   4.118
13735W        W85264  35.974  20.984   2.729
13736W        W85265  43.938  20.700   4.245
13737W        W85266  34.509  43.704  14.097
13738W        W85267  34.991   9.184   1.425
13739W        W85268  29.498   8.789   0.605
13740W        W85269  16.788   3.744   0.298
13741W        W85270  33.480  35.961  10.629
13742W        W85271   5.435   3.391   3.098
13743W        W85272  20.861   0.281   2.786
13744W        W85273  11.112  43.213   4.649
13745W        W85274   4.428   6.278  13.538
13746W        W85275  31.140  15.181   1.304
13747W        W85276  24.737   9.896   3.750
13748W        W85277   2.714  40.862  11.980
13749W        W85278  41.292  23.362   1.182
13750W        W85279  15.707  18.502   0.256
13751W        W85280  18.716  29.899   1.761
13752W        W85281  38.592   3.016   1.732
13753W        W85282  13.417  23.073  11.897
13754W        W85283  43.785   4.822   2.195
13755W        W85284  15.176  43.820   4.501
13756W        W85285  30.448  28.014  11.975
13757W        W85286   8.323  32.056   3.399
13758W        W85287   8.632  25.315   0.362
13759W        W85288  25.052   4.162   2.213
13760W        W85289  30.554  32.350   3.761
13761W        W85290  21.043  43.386  12.923
13762W        W85291  20.697  20.277  12.671
13763W        W85292   4.315  44.258   1.221
13764W        W85293  17.876   9.743   4.406
13765W        W85294  19.520  22.138  13.931
13766W        W85295   3.395  24.411  13.008
13767W        W85296  43.653   8.605   5.060
13768W        W85297  19.190  14.316   2.707
13769W        W85298  24.765  30.825   4.171
13770W        W85299  16.999  33.656  12.231
13771W        W85300  19.770  22.702   2.130
13772W        W85301  39.420  33.978  11.439
13773W        W85302   9.112   3.955   4.502
13774W        W85303  36.407   6.762  14.170
13775W        W85304  28.079  10.272  13.271
13776W        W85305  26.425  12.307   3.849
13777W        W85306  13.349   1.921   0.073
13778W        W85307   6.663   8.654  13.462
13779W        W85308   7.561  25.632  13.491
13780W        W85309  19.101  35.021   1.848
13781W        W85310  36.919  19.252   1.737
13782W        W85311  28.683  44.535   2.291
13783W        W85312   6.110  11.285   1.245
13784W        W85313  29.079  29.362   0.465
13785W        W85314  22.654  26.592  13.802
13786W        W85315  10.250  31.574  13.562
13787W        W85316  25.145  14.754  14.805
13788W        W85317  31.044  36.534   3.822
13789W        W85318  28.130  17.328   1.354
13790W        W85319  23.655  36.132  14.391
13791W        W85320  11.201  32.740   2.732
13792W        W85321  44.602  32.956   4.541
13793W        W85322  41.921  39.012   1.843
13794W        W85323  22.669  13.354   4.932
13795W        W85324  39.838  21.665  12.444
13796W        W85325  23.173  22.108   4.101
13797W        W85326  43.813   1.010  14.122
13798W        W85327  33.366  20.131   2.323
13799W        W85328  30.031  38.489  11.446
13800W        W85329  33.169  21.371  12.007
13801W        W85330  17.825  27.961   0.919
13802W        W85331  17.283  34.877   1.423
13803W        W85332   1.294  27.282   3.762
13804W        W85333   4.697   5.856  13.371
13805W        W85334  26.869   9.709   0.356
13806W        W85335  28.894  24.939   0.695
13807W        W85336  16.234  41.737   3.396
13808W        W85337  13.630   3.905  13.096
13809W        W85338   3.769   1.253  10.856
13810W        W85339  13.391  23.006   3.632
13811W        W85340   9.255  20.106  13.097
13812W        W85341   3.692  42.405   4.297
13813W        W85342  35.496   6.518  10.779
13814W        W85343  26.771  39.669  13.306
13815W        W85344  25.749  24.648   0.842
13816W        W85345  28.086  19.591  11.362
13817W        W85346  30.713   7.853   4.599
13818W        W85347  37.859  21.622   1.418
13819W        W85348  44.216  20.662   2.271
13820W        W85349  26.849  29.710  12.668
13821W        W85350  23.029  29.245  14.554
13822W        W85351  32.976  15.850  12.486
13823W        W85352  21.621  32.140  14.313
13824W        W85353  18.181  12.911  13.877
13825W        W85354  17.599  19.042  11.905
13826W        W85355   3.620  15.511  11.224
13827W        W85356  29.543  34.246  12.891
13828W        W85357  22.230   3.563   3.210
13829W        W85358  15.433  11.369   1.935
13830W        W85359  10.592   1.806   4.238
13831W        W85360  40.816  40.324  11.638
13832W        W85361  44.505   1.029   4.038
13833W        W85362  16.229  18.302   4.079
13834W        W85363  20.608  42.084   1.364
13835W        W85364  36.062   4.530   3.513
13836W        W85365  38.611  17.939   4.515
13837W        W85366   0.241   3.901  11.979
13838W        W85367  19.990  40.646   3.957
13839W        W85368  11.979  40.515   1.806
13840W        W85369   8.746  43.355   2.447
13841W        W85370  24.098  21.446  10.555
13842W        W85371  19.215  31.095   2.356
13843W        W85372  35.066  15.288  12.179
13844W        W85373  32.948   6.202  12.078
13845W        W85374  12.694  40.834   1.360
13846W        W85375  18.568  24.922  10.641
13847W        W85376  41.790  37.519   3.831
13848W        W85377  17.377  30.954   2.776
13849W        W85378  29.288  41.424   0.405
13850W        W85379  43.739  22.070  11.143
13851W        W85380  26.747  17.224   4.367
13852W        W85381  30.750  21.482  10.583
13853W        W85382  18.216  39.599  11.621
13854W        W85383  19.438  42.830  13.345
13855W        W85384   8.653  31.800   2.482
13856W        W85385  29.315  42.821   2.647
13857W        W85386   9.299  24.369  11.611
13858W        W85387  18.036  28.081   2.239
13859W        W85388  44.833  11.635  14.880
13860W        W85389  12.426  20.533   0.314
13861W        W85390  25.392   8.622   3.419
13862W        W85391  26.769   8.196  12.454
13863W        W85392  10.079  35.684  11.135
13864W        W85393  16.055  25.138   3.779
13865W        W85394  34.059   9.833  12.938
13866W        W85395  17.104  27.817  12.069
13867W        W85396  44.000  25.497   3.614
13868W        W85397  33.436  22.743  10.447
13869W        W85398  37.583  34.744  14.766
13870W        W85399  38.890  37.888   2.553
13871W        W85400  43.091   6.435   4.706
13872W        W85401   0.009  39.662  13.074
13873W        W85402  15.928  36.944   4.208
13874W        W85403  19.231  22.762   2.624
13875W        W85404  44.931  33.885   1.872
13876W        W85405  44.292  26.719   3.367
13877W        W85406  44.906   8.842   2.321
13878W        W85407  40.126   1.889  11.623
13879W        W85408  14.290  29.664  12.009
13880W        W85409  39.418  43.873   4.928
13881W        W85410  13.284  18.201   2.424
13882W        W85411  12.666  37.081  14.291
13883W        W85412   2.410  40.552  12.970
13884W        W85413  43.711  26.111   4.708
13885W        W85414  12.314  36.446  14.407
13886W        W85415  26.062  17.840  12.386
13887W        W85416  28.947  31.044   3.648
13888W        W85417   5.258  25.902  13.399
13889W        W85418  14.143  43.494  12.926
13890W        W85419   4.453  39.682   4.753
13891W        W85420  40.449  24.944  14.929
13892W        W85421   5.602  27.732   0.478
13893W        W85422   0.583  34.867   2.401
13894W        W85423  15.119  31.163   2.233
13895W        W85424   5.430   2.712  14.491
13896W        W85425   7.395  42.356   1.877
13897W        W85426  19.124   7.411  12.410
13898W        W85427  32.787  10.714  11.266
13899W        W85428  39.886   8.691   3.656
13900W        W85429  41.553  32.620  12.919
13901W        W85430  23.724  34.395  12.469
13902W        W85431  16.784  16.452  11.254
13903W        W85432  12.287  28.878   2.238
13904W        W85433  25.935  38.483  11.120
13905W        W85434  14.286  44.316   4.255
13906W        W85435  32.121   2.179   0.235
13907W        W85436   8.360   2.867  12.312
13908W        W85437  21.748   9.670  12.002
13909W        W85438  22.718  43.435  14.251
13910W        W85439   7.340   9.785   0.320
13911W        W85440  35.591   2.417  12.949
13912W        W85441  35.542  36.512  11.664
13913W        W85442   6.283  25.228  11.131
13914W        W85443  16.345  16.941  14.481
13915W        W85444   8.220  39.753  13.498
13916W        W85445  24.262   8.391   0.686
13917W        W85446  16.732  23.718  14.480
13918W        W85447   0.714   8.100   4.011
13919W        W85448  18.222  11.519   4.032
13920W        W85449   7.300  36.604  13.214
13921W        W85450  26.070  10.134  14.310
13922W        W85451   4.705   8.007   2.442
13923W        W85452  15.952   6.656   4.219
13924W        W85453  17.082  34.723   0.976
13925W        W85454   6.138  39.525   2.271
13926W        W85455  20.147  21.863  11.926
13927W        W85456  33.521   1.571  14.589
13928W        W85457   2.402  39.732   1.943
13929W        W85458  31.569  26.053   3.556
13930W        W85459  23.089  13.053   4.927
13931W        W85460  44.275  29.643   2.430
13932W        W85461  40.328  18.711   0.146
13933W        W85462   2.280   2.558  13.574
13934W        W85463  43.488  13.715   4.532
13935W        W85464  43.933  35.669   3.796
13936W        W85465   7.739  39.433   4.690
13937W        W85466  29.633  25.823  13.980
13938W        W85467   9.593  38.076  13.602
13939W        W85468   4.854   8.391   2.758
13940W        W85469  26.893  31.922   1.265
13941W        W85470  24.819  36.573   4.602
13942W        W85471  14.124  34.823   2.360
13943W        W85472  37.509   9.852   4.902
13944W        W85473  14.793  22.055  10.783
13945W        W85474   0.392   5.691   3.303
13946W        W85475  33.649  12.677   0.923
13947W        W85476  15.885  39.969  14.053
13948W        W85477   1.719  13.581  11.164
13949W        W85478  25.989  18.723   4.313
13950W        W85479  42.872   1.322   2.659
13951W        W85480  21.288  24.987   0.502
13952W        W85481   9.289  16.343  13.026
13953W        W85482  22.231   6.473   1.342
13954W        W85483  28.571  11.307  12.268
13955W        W85484  16.319   1.385   1.762
13956W        W85485  22.672  41.676   3.286
13957W        W85486  20.787  22.397  12.047
13958W        W85487  38.479  15.051   1.521
13959W        W85488  29.983   5.046  13.795
13960W        W85489  21.006  36.060  10.760
13961W        W85490  30.010  30.567  11.548
13962W        W85491  41.840  23.101  14.412
13963W        W85492  10.163  23.811   5.105
13964W        W85493  23.071   1.981   0.004
13965W        W85494  26.672  37.652  13.520
13966W        W85495  36.875  22.683   3.846
13967W        W85496  44.487  42.599  12.465
13968W        W85497  35.145  42.891   2.352
13969W        W85498  24.630  10.893   1.309
13970W        W85499  19.722   4.733  13.956
13971W        W85500  20.854  23.124  13.233
13972W        W85501   2.705  20.300   4.104
13973W        W85502  24.349  22.624  12.650
13974W        W85503  26.640  32.672  13.887
13975W        W85504   7.418   0.937   1.429
13976W        W85505  29.633  21.074  10.712
13977W        W85506  34.730   2.832  12.672
13978W        W85507  32.020   4.335   3.371
13979W        W85508  23.952   1.016   4.677
13980W        W85509  24.700   0.780  12.270
13981W        W85510  28.862  26.575   2.351
13982W        W85511   9.782   1.262   3.129
13983W        W85512  27.159   8.887  14.305
13984W        W85513  12.313  42.531   3.258
13985W        W85514  36.102   5.288  11.332
13986W        W85515   3.959  40.309  11.490
13987W        W85516  28.453   0.037  13.626
13988W        W85517  23.122   9.873   4.368
13989W        W85518  19.030  13.862  12.059
13990W        W85519  15.721  28.108   4.312
13991W        W85520  42.643  20.285   0.404
13992W        W85521  12.367  29.962  13.084
13993W        W85522  29.078  33.068   0.990
13994W        W85523  38.806  25.095   3.721
13995W        W85524   9.442  10.347   3.894
13996W        W85525  35.994   6.299   1.225
13997W        W85526  39.483   3.671   3.360
13998W        W85527  15.393  35.221  13.032
13999W        W85528   5.766  22.737   1.016
14000W        W85529  21.821  35.330   1.837
14001W        W85530  10.279  43.987   1.572
14002W        W85531  34.196   5.693   1.382
14003W        W85532  22.765  40.762   4.510
14004W        W85533  24.098   3.231  12.117
14005W        W85534  42.018  21.390  12.867
14006W        W85535  35.058  44.209  10.670
14007W        W85536  26.950  20.021   3.184
14008W        W85537  36.919  16.624   1.705
14009W        W85538  16.318  14.506  12.919
14010W        W85539  42.854  23.982   5.011
14011W        W85540  33.356  19.602  12.434
14012W        W85541  20.123  24.364  13.127
14013W        W85542  29.140  18.205   4.237
14014W        W85543  44.834   0.928  12.573
14015W        W85544  18.839  19.252  11.581
14016W        W85545  20.967  12.917  13.326
14017W        W85546  11.841  35.362   0.361
14018W        W85547  16.868   2.201  14.001
14019W        W85548  39.961  36.264   3.614
14020W        W85549  22.876  32.102   2.218
14021W        W85550  44.739   2.985  12.140
14022W        W85551  19.749  18.978  13.438
14023W        W85552  24.008   1.877   3.942
14024W        W85553   9.153  31.117  14.980
14025W        W85554  36.132   8.240  13.898
14026W        W85555  34.071   5.531  11.932
14027W        W85556  21.022  26.577  14.997
14028W        W85557  29.446  40.946  13.897
14029W        W85558   4.891  25.711  10.701
14030W        W85559   7.151  28.020  13.160
14031W        W85560   4.896  16.571   2.204
14032W        W85561  20.121  27.474  11.122
14033W        W85562  34.543  20.723   0.844
14034W        W85563  16.599  20.147   2.714
14035W        W85564  39.559  33.381   2.223
14036W        W85565   6.282  33.959  13.326
14037W        W85566  42.588  19.678  13.858
14038W        W85567  16.545  39.708  11.064
14039W        W85568  16.778  15.703   4.291
14040W        W85569   5.140  24.755  12.682
14041W        W85570  17.777  19.329  14.609
14042W        W85571   8.483   1.966  12.509
14043W        W85572  21.246  24.887   2.843
14044W        W85573   2.197  21.186  10.781
14045W        W85574  44.824  32.350   3.240
14046W        W85575   6.375  22.492  11.008
14047W        W85576  41.592  22.779   0.306
14048W        W85577   9.711   3.182   3.872
14049W        W85578  36.369  27.049   3.742
14050W        W85579  27.446   2.384   3.694
14051W        W85580  37.537  22.147  10.602
14052W        W85581  26.622   3.363  11.745
14053W        W85582  19.157  33.807  12.676
14054W        W85583  23.603   4.421   0.428
14055W        W85584  15.945  44.478   3.627
14056W        W85585   4.774  18.291  14.493
14057W        W85586  12.139   6.858   1.689
14058W        W85587   5.856  11.086  13.706
14059W        W85588  38.227   9.197   3.874
14060W        W85589   2.262  17.198   3.770
14061W        W85590  31.066   4.489   0.803
14062W        W85591  22.123  39.329  13.891
14063W        W85592  22.079  16.389   0.262
14064W        W85593   2.224  26.463  13.006
14065W        W85594  28.426  18.258  13.973
14066W        W85595  23.374  14.146   2.430
14067W        W85596  10.458  20.538   4.169
14068W        W85597  11.629  11.625   2.349
14069W        W85598  37.097  37.479  14.179
14070W        W85599  30.636  44.240   1.733
14071W        W85600   2.394  28.220  12.881
14072W        W85601  13.253   4.737  11.523
14073W        W85602  33.600  40.415   2.148
14074W        W85603  27.418   9.701  14.487
14075W        W85604  21.266  44.382  14.541
14076W        W85605  34.198  28.328   5.283
14077W        W85606  25.943  33.537   3.485
14078W        W85607  20.733   0.326  11.986
14079W        W85608  33.083  44.664   3.392
14080W        W85609  22.371  33.920   0.551
14081W        W85610  27.953  19.639  14.260
14082W        W85611  42.175  31.521   4.042
14083W        W85612  10.168  44.264  13.594
14084W        W85613  32.112  18.668   5.061
14085W        W85614   5.510  19.653  11.598
14086W        W85615   6.300  22.156  12.052
14087W        W85616  25.619  14.547   4.145
14088W        W85617   5.809  11.146  14.240
14089W        W85618  20.470  16.185   4.307
14090W        W85619   3.311  15.327   2.707
14091W        W85620  38.591  31.388   1.678
14092W        W85621  27.063  27.778  12.598
14093W        W85622   2.973   3.474   1.827
14094W        W85623  24.083  11.687   1.270
14095W        W85624  24.218  42.916   2.289
14096W        W85625  19.630  11.270   1.408
14097W        W85626  15.908  24.220   3.651
14098W        W85627  34.791  28.723   1.860
14099W        W85628  42.371  13.535  14.763
14100W        W85629  21.780   9.953   1.755
14101W        W85630  20.801  24.060  12.648
14102W        W85631  43.561  15.814  12.255
14103W        W85632  34.802   2.200  13.372
14104W        W85633  41.403   7.811  13.867
14105W        W85634  30.084  30.079  13.011
14106W        W85635   8.821  31.972  12.548
14107W        W85636  43.816  37.438   2.693
14108W        W85637  16.798  14.108  11.339
14109W        W85638  40.772  13.750  11.025
14110W        W85639   6.401  26.529   1.470
14111W        W85640   6.771  28.682  14.726
14112W        W85641  22.610   0.434   3.360
14113W        W85642  44.741   5.659   1.777
14114W        W85643  32.566   7.872   4.861
14115W        W85644  36.981   2.003   2.719
14116W        W85645  25.861  28.945   0.523
14117W        W85646  11.383  36.127   1.722
14118W        W85647  17.728  16.765  11.213
14119W        W85648  12.030  35.908  13.908
14120W        W85649   6.294  40.928   1.756
14121W        W85650  12.132  27.219  11.089
14122W        W85651  38.255  20.246   3.405
14123W        W85652  22.374  21.837   3.666
14124W        W85653  37.144  12.171  13.569
14125W        W85654   0.963   7.743   1.385
14126W        W85655  24.478  16.624   0.405
14127W        W85656  19.232  31.671   2.760
14128W        W85657  11.737  41.136   0.236
14129W        W85658  42.864  37.449  14.930
14130W        W85659  43.792  43.384   2.354
14131W        W85660  43.903   2.215   0.500
14132W        W85661  24.127  17.694  11.613
14133W        W85662  14.608  18.226   2.131
14134W        W85663  35.871  31.202  13.941
14135W        W85664  23.520  16.218   0.669
14136W        W85665  34.073   6.907   0.974
14137W        W85666  36.554  39.405  12.514
14138W        W85667  21.647  20.237  10.801
14139W        W85668  20.453   8.705   2.834
14140W        W85669  17.456  10.799   3.616
14141W        W85670  24.875  15.626   3.631
14142W        W85671  13.787  24.907   0.929
14143W        W85672  38.990  10.771  11.229
14144W        W85673  13.141  38.436   2.395
14145W        W85674  26.429  40.904   2.108
14146W        W85675   6.204  17.969   3.540
14147W        W85676  30.604   4.269  13.650
14148W        W85677  16.885  36.412   4.826
14149W        W85678  23.627  39.752  13.382
14150W        W85679  33.169  34.324   3.797
14151W        W85680   1.580   7.861  10.763
14152W        W85681  39.862  19.086  12.537
14153W        W85682  42.756  29.181   0.918
14154W        W85683  19.815  40.751   2.291
14155W        W85684  17.523  20.696   2.565
14156W        W85685   8.484  11.188   1.352
14157W        W85686  35.038  33.459  13.929
14158W        W85687  22.149   8.708   1.969
14159W        W85688  29.969  15.778  11.129
14160W        W85689  18.209   7.651  11.943
14161W        W85690  17.226   1.465   4.637
14162W        W85691   4.195  32.770   4.423
14163W        W85692  22.812   1.473  14.259
14164W        W85693   9.893  42.542  14.752
14165W        W85694  17.315  19.662  10.274
14166W        W85695  39.035  23.076   4.590
14167W        W85696   6.888  20.181  12.123
14168W        W85697  12.199  41.172   3.536
14169W        W85698  39.552   1.463  12.921
14170W        W85699  18.634   0.055   2.843
14171W        W85700  25.703  37.340   1.786
14172W        W85701  15.648  30.701   4.648
14173W        W85702  32.433  31.353   1.715
14174W        W85703  26.696  27.022  13.376
14175W        W85704   7.999  14.338   3.203
14176W        W85705  42.259  37.317  13.739
14177W        W85706   0.772  13.961   5.102
14178W        W85707  38.670  30.204  13.936
14179W        W85708  43.380  36.227   0.833
14180W        W85709  14.586  39.370  13.993
14181W        W85710  40.087   3.042   3.720
14182W        W85711  25.968   3.202   1.657
14183W        W85712  13.634  43.295   3.769
14184W        W85713  30.485  11.688   4.423
14185W        W85714  28.874  29.950   3.207
14186W        W85715  34.752  17.835  10.947
14187W        W85716  39.845   7.711   3.602
14188W        W85717  20.067  27.370  12.124
14189W        W85718  15.275  18.006  10.659
14190W        W85719  11.949  22.752   1.371
14191W        W85720  30.913   1.851  13.073
14192W        W85721  31.856  22.163   2.915
14193W        W85722  23.408  16.588   4.622
14194W        W85723  32.224  11.436   4.127
14195W        W85724  25.571  11.857   1.660
14196W        W85725   9.153  26.270   0.904
14197W        W85726  43.980  12.649   2.712
14198W        W85727  33.517  36.989   2.852
14199W        W85728  11.422  10.815   0.309
14200W        W85729  33.042  28.556   2.678
14201W        W85730  23.189   1.376   3.579
14202W        W85731  17.375  13.745   2.684
14203W        W85732   1.367  13.949   1.787
14204W        W85733  28.136   2.889  14.497
14205W        W85734  15.403  14.243  12.058
14206W        W85735  43.570  43.880  12.882
14207W        W85736   4.275  29.030  11.880
14208W        W85737  11.362  30.409   2.334
14209W        W85738  39.380   1.176   4.887
14210W        W85739   4.267   0.683   3.258
14211W        W85740  24.998  34.553   4.135
14212W        W85741  14.621  35.593   1.172
14213W        W85742  34.501  11.691  11.945
14214W        W85743   9.768  40.429   1.654
14215W        W85744  39.818  33.483   9.997
14216W        W85745  23.613  23.867  12.401
14217W        W85746   4.365  30.275   1.526
14218W        W85747  29.618  36.026   3.047
14219W        W85748  12.027  16.800  14.311
14220W        W85749  31.378  15.071  14.414
14221W        W85750  37.510   5.108   4.121
14222W        W85751  14.542  30.622   1.724
14223W        W85752  12.059  28.043   3.288
14224W        W85753  41.005  11.049   0.910
14225W        W85754  32.377  33.551  10.585
14226W        W85755   1.409  28.738  11.640
14227W        W85756  15.806  27.436   3.196
14228W        W85757  25.048  38.554  12.423
14229W        W85758  35.559  24.059   4.845
14230W        W85759   0.552   7.816  10.672
14231W        W85760  43.254  31.966   5.348
14232W        W85761  21.649  32.585   2.478
14233W        W85762   3.867   1.883   2.628
14234W        W85763   1.700  19.797   4.254
14235W        W85764   3.368  38.822   4.764
14236W        W85765   9.267  10.657   2.138
14237W        W85766  37.280  38.997  12.374
14238W        W85767  10.390  22.598   4.177
14239W        W85768  14.952   0.239  12.620
14240W        W85769  21.249  15.322  11.279
14241W        W85770  26.246   3.651  12.039
14242W        W85771  37.041  37.415  11.897
14243W        W85772  29.616  41.305  13.547
14244W        W85773   7.947  33.418  12.981
14245W        W85774  30.991   8.366   2.371
14246W        W85775  32.418  41.070  11.676
14247W        W85776  40.963  27.177   1.486
14248W        W85777   5.442  22.103   0.323
14249W        W85778  34.491  32.535   1.437
14250W        W85779  17.583  39.001  13.257
14251W        W85780  43.401  16.357   4.291
14252W        W85781  35.111  40.899  12.950
14253W        W85782  18.024  37.551   0.030
14254W        W85783  31.268  43.372  13.552
14255W        W85784   5.884  25.637   0.438
14256W        W85785  26.872  39.785   3.362
14257W        W85786  36.584   2.933  12.028
14258W        W85787  25.519  30.645  10.584
14259W        W85788  42.495   9.360   2.845
14260W        W85789  41.887  13.066  12.537
14261W        W85790  33.580  23.896   2.195
14262W        W85791  22.919  21.674   2.336
14263W        W85792  30.487   0.246   4.087
14264W        W85793  34.749  30.153  13.487
14265W        W85794  11.875  32.613   2.217
14266W        W85795  11.344   7.806   1.356
14267W        W85796  17.191  19.655   3.575
14268W        W85797  38.813  36.484   1.988
14269W        W85798  44.975  10.325  14.064
14270W        W85799  34.606   2.786   0.798
14271W        W85800  14.382  24.020  13.035
14272W        W85801   5.025   0.565  14.769
14273W        W85802  22.268  28.071  11.461
14274W        W85803  37.023  39.075  11.370
14275W        W85804  16.736  10.500   4.310
14276W        W85805  11.820   1.018   0.748
14277W        W85806  14.566  13.362   0.443
14278W        W85807  44.947   4.862   1.297
14279W        W85808  32.874  26.113   1.256
14280W        W85809  21.915   7.585   0.353
14281W        W85810  19.267  42.910   4.153
14282W        W85811  40.904  37.746   3.439
14283W        W85812  10.608   0.876   3.311
14284W        W85813   7.341  12.665   3.123
14285W        W85814  21.660  14.237  11.745
14286W        W85815  15.270  24.154  12.119
14287W        W85816   2.385  34.856  13.369
14288W        W85817  28.509  43.941  10.641
14289W        W85818  25.043   9.815  14.027
14290W        W85819  28.159  16.751   1.748
14291W        W85820   1.799  37.678   4.259
14292W        W85821  33.003  18.110   4.598
14293W        W85822  29.348   7.264  11.194
14294W        W85823  43.689   3.421   4.577
14295W        W85824   3.647   9.692  13.980
14296W        W85825  14.401   1.335   3.738
14297W        W85826  33.580  10.969  11.957
14298W        W85827  38.808   4.779   3.697
14299W        W85828  25.674  16.012   4.095
14300W        W85829  25.614  22.237   4.263
14301W        W85830   7.001  12.715   2.732
14302W        W85831  26.719  21.444  13.866
14303W        W85832  11.090  28.670  11.667
14304W        W85833  42.968  18.751  11.612
14305W        W85834  12.281  16.573   1.200
14306W        W85835   5.533  30.320   3.718
14307W        W85836   2.198  29.662  13.061
14308W        W85837  26.959  32.592  14.639
14309W        W85838   1.965  12.316   1.263
14310W        W85839  44.223  26.653   0.166
14311W        W85840  23.748  11.896   0.917
14312W        W85841  23.492  44.894   1.299
14313W        W85842  34.322  23.816  13.873
14314W        W85843  40.422  42.224   2.674
14315W        W85844  10.116   9.094   4.206
14316W        W85845   9.804  32.184   1.197
14317W        W85846  25.730  19.063  12.304
14318W        W85847  28.047   6.205  14.408
14319W        W85848  15.725  22.995   0.379
14320W        W85849  37.038  20.786   4.018
14321W        W85850   5.276  15.033   0.856
14322W        W85851  35.038   2.976  10.544
14323W        W85852  32.158  23.558  12.867
14324W        W85853  22.702  24.768   0.044
14325W        W85854  40.885  40.626  13.374
14326W        W85855   0.760  27.809  10.750
14327W        W85856  26.130  43.559   2.057
14328W        W85857  17.738  44.922   3.803
14329W        W85858  22.973  37.005   4.540
14330W        W85859   9.393  13.604   4.740
14331W        W85860  27.535   3.506  11.829
14332W        W85861  36.430   3.006   0.866
14333W        W85862   0.904  39.468   4.679
14334W        W85863  39.532  21.270  12.404
14335W        W85864  10.412   8.492  12.703
14336W        W85865  34.984  39.468  10.627
14337W        W85866  11.316  24.191   0.424
14338W        W85867  23.923   9.840  10.745
14339W        W85868  30.156  25.754  14.943
14340W        W85869  16.464  35.313   2.977
14341W        W85870  41.551   3.762   4.231
14342W        W85871   8.799  44.415  10.172
14343W        W85872  14.753  23.588  14.154
14344W        W85873  33.968  28.477   1.896
14345W        W85874  13.176  34.381   1.493
14346W        W85875   9.311  12.148  12.523
14347W        W85876  28.922  27.080  13.853
14348W        W85877  29.475  40.531  14.393
14349W        W85878  29.720  11.851   0.006
14350W        W85879   6.384  17.478  12.083
14351W        W85880  14.032  40.448   2.246
14352W        W85881  16.264  30.632   1.295
14353W        W85882  27.543   5.267   2.364
14354W        W85883  14.113  40.452   3.283
14355W        W85884  24.640  41.604   3.202
14356W        W85885  11.575  42.992  11.527
14357W        W85886  19.148  14.281   0.138
14358W        W85887  28.365   6.888  12.080
14359W        W85888  24.199  31.158  14.490
14360W        W85889   5.293  27.991   4.181
14361W        W85890  40.779   2.336   4.875
14362W        W85891  39.993  31.342  13.262
14363W        W85892   7.233  12.720   1.240
14364W        W85893  39.689  20.260   4.191
14365W        W85894  11.270  38.638  10.162
14366W        W85895  13.779  15.137   0.005
14367W        W85896  32.921  35.385   1.824
14368W        W85897  10.765  23.424   2.627
14369W        W85898  17.287   2.936   1.210
14370W        W85899  32.155  30.083  10.506
14371W        W85900  27.823  43.615   0.138
14372W        W85901  25.044   6.173   3.682
14373W        W85902  39.262   3.339   2.747
14374W        W85903  14.221  38.628   1.962
14375W        W85904  27.880  34.982  13.659
14376W        W85905  40.725   2.291   1.408
14377W        W85906  12.116   1.025   0.320
14378W        W85907  17.721  11.529   0.368
14379W        W85908   0.823  11.676  10.817
14380W        W85909  27.047  35.970  11.005
14381W        W85910  44.790  26.963   3.332
14382W        W85911  12.717  21.015   2.981
14383W        W85912  16.319  34.100  14.029
14384W        W85913  12.069  16.376   2.710
14385W        W85914   3.907  20.579  11.493
14386W        W85915  29.937  38.885  13.429
14387W        W85916   5.734  43.144  13.514
14388W        W85917  42.708  17.177   3.680
14389W        W85918   4.959  32.183   4.209
14390W        W85919  37.639  35.832  11.188
14391W        W85920  39.399  20.613   3.948
14392W        W85921  21.706  28.101   4.588
14393W        W85922  40.067  41.750  14.313
14394W        W85923  11.558  35.803   1.316
14395W        W85924  31.703  24.321  14.781
14396W        W85925   2.418  26.417   0.305
14397W        W85926   9.548  44.191  10.983
14398W        W85927  38.716  25.441   3.330
14399W        W85928  10.896  36.931   1.930
14400W        W85929  22.262   8.935   4.952
14401W        W85930  44.307  33.004   4.970
14402W        W85931  35.126  19.167  13.650
14403W        W85932  19.682  12.842  11.544
14404W        W85933  30.053  33.535   0.435
14405W        W85934  40.757  31.573  14.306
14406W        W85935  13.555   4.445   1.796
14407W        W85936   9.000  31.122   4.546
14408W        W85937  19.115  15.088  11.614
14409W        W85938  18.980  38.764  13.496
14410W        W85939  16.842   4.683   2.807
14411W        W85940  18.087  10.696   4.959
14412W        W85941  10.406   2.791  14.740
14413W        W85942  23.188   6.691   0.361
14414W        W85943  39.296  11.076   0.300
14415W        W85944  14.680  32.994  13.990
14416W        W85945  19.491   5.925   2.218
14417W        W85946   2.805  24.414   4.613
14418W        W85947   8.479  30.480   4.069
14419W        W85948   2.932  10.069   0.894
14420W        W85949  23.601   1.859   4.264
14421W        W85950  23.453   9.253  13.936
14422W        W85951  44.784  29.504  10.616
14423W        W85952  35.878   8.612  14.815
14424W        W85953  15.826  14.226  13.013
14425W        W85954  13.524  39.950  13.415
14426W        W85955  27.133  11.928   0.959
14427W        W85956  26.484  24.200  12.852
14428W        W85957  15.665   0.675   1.774
14429W        W85958  40.447  44.823  14.262
14430W        W85959   8.911  23.523   2.757
14431W        W85960  39.466  39.901   0.161
14432W        W85961  18.105  18.124   2.711
14433W        W85962  12.667  18.065   3.575
14434W        W85963  27.516   6.375  13.066
14435W        W85964  31.140  36.691   4.690
14436W        W85965   6.844  33.251  13.522
14437W        W85966  21.175  30.453   3.717
14438W        W85967  26.020   9.425   1.209
14439W        W85968  34.529  13.891   4.236
14440W        W85969  33.068   6.838   4.569
14441W        W85970   7.691  23.201  13.491
14442W        W85971   1.306  31.978  12.044
14443W        W85972   7.150  41.325   1.627
14444W        W85973  20.822  11.245  14.441
14445W        W85974  41.404  24.081   3.676
14446W        W85975  39.969  31.812  14.946
14447W        W85976  28.215  11.841  11.683
14448W        W85977  16.153  18.770  14.845
14449W        W85978  28.203  19.566   4.228
14450W        W85979   7.845  25.929   4.645
14451W        W85980  24.950  43.226  10.775
14452W        W85981  10.262   1.431  12.511
14453W        W85982  37.981   6.306   4.753
14454W        W85983  19.286  38.868  10.659
14455W        W85984  34.903  43.993   0.555
14456W        W85985  22.080  33.471  14.032
14457W        W85986  43.952  30.696   2.760
14458W        W85987  32.556  22.466  11.086
14459W        W85988  34.473  20.816   1.831
14460W        W85989  18.946  27.710   3.264
14461W        W85990  44.401  23.447  13.033
14462W        W85991  15.863   6.817   0.312
14463W        W85992  24.066  15.549  12.086
14464W        W85993  11.133  38.462   1.313
14465W        W85994  13.817  31.157   3.852
14466W        W85995  13.053  18.997   0.818
14467W        W85996  43.218  27.020   0.602
14468W        W85997  25.105  41.226   3.192
14469W        W85998  25.159  35.642  14.972
14470W        W85999  25.986  25.550  10.563
14471W        W86000  32.539   1.043   1.234
14472W        W86001  40.606  30.427  12.044
14473W        W86002  15.154  23.355  11.523
14474W        W86003  15.494   7.859   2.259
14475W        W86004  15.210   2.828  12.808
14476W        W86005   1.355  36.329   3.719
14477W        W86006  10.864  27.646   3.138
14478W        W86007  14.389  12.383   0.504
14479W        W86008  23.120  22.806   1.350
14480W        W86009  38.344   0.260   3.696
14481W        W86010  37.344  22.244   4.125
14482W        W86011  29.975  28.270  11.102
14483W        W86012  35.684  43.696   2.669
14484W        W86013   4.709  27.885   5.141
14485W        W86014  39.508   4.929  12.602
14486W        W86015   9.940   0.196   0.847
14487W        W86016  32.488  37.012   1.803
14488W        W86017  16.402  13.987   1.786
14489W        W86018  39.030  16.423  14.899
14490W        W86019  27.015  10.665  11.510
14491W        W86020  26.490  23.902  11.571
14492W        W86021   3.288   2.542  10.623
14493W        W86022   6.585  20.853   2.771
14494W        W86023   4.410  17.130  11.164
14495W        W86024  18.834  40.021  13.289
14496W        W86025  27.522   7.866   1.243
14497W        W86026  40.930   4.299  13.167
14498W        W86027  25.494  25.517  14.562
14499W        W86028   9.133  20.763  11.972
14500W        W86029   0.982  26.500   2.683
14501W        W86030  22.088  25.368  14.308
14502W        W86031  43.450  17.102  14.731
14503W        W86032  32.325  30.973  11.323
14504W        W86033  14.657  33.089   0.541
14505W        W86034  38.813  16.810   2.044
14506W        W86035  17.330  18.574  11.150
14507W        W86036  19.247  23.108   4.901
14508W        W86037  22.922  43.950  14.402
14509W        W86038  40.125  18.919  13.489
14510W        W86039  29.588  38.368   2.703
14511W        W86040  10.715  26.459   4.571
14512W        W86041  30.591  11.801  11.185
14513W        W86042  23.587  34.951   1.123
14514W        W86043   3.880  33.453   0.497
14515W        W86044  10.146   0.276  14.649
14516W        W86045  22.350  15.880   5.156
14517W        W86046   0.868   8.189  10.932
14518W        W86047  43.520  41.262   4.043
14519W        W86048  41.487  31.654   2.904
14520W        W86049  39.447   0.801   3.572
14521W        W86050  20.587   9.532  14.802
14522W        W86051   1.406  23.937  10.693
14523W        W86052  20.854  44.806  13.455
14524W        W86053  33.362  39.044  12.770
14525W        W86054  31.914   8.998   4.167
14526W        W86055   9.134   1.032  13.407
14527W        W86056   0.734   8.368  10.474
14528W        W86057  13.006  25.172  12.053
14529W        W86058   6.843  40.459   4.282
14530W        W86059  34.127  34.936   2.250
14531W        W86060   7.819  11.772   1.740
14532W        W86061  26.891   1.887   0.653
14533W        W86062  43.157   0.990   4.666
14534W        W86063   2.835   1.037  11.530
14535W        W86064  14.146   6.711  12.811
14536W        W86065  10.766  11.786   1.763
14537W        W86066  35.104   4.097   1.516
14538W        W86067   7.655   5.196  10.748
14539W        W86068  25.299  18.258   1.747
14540W        W86069  20.039  39.064   3.201
14541W        W86070  19.637  19.113  12.106
14542W        W86071  16.202   6.437  13.885
14543W        W86072  38.956  10.739  12.128
14544W        W86073  24.076   2.302  13.886
14545W        W86074  26.444   6.039   3.380
14546W        W86075  37.466  39.295  11.568
14547W        W86076  28.122  23.745  10.192
14548W        W86077  18.306  33.686  11.097
14549W        W86078   5.046  10.345  11.232
14550W        W86079  18.460   2.018  12.422
14551W        W86080   6.018   0.483  12.036
14552W        W86081   9.757  18.634   3.327
14553W        W86082  25.820  41.230  13.862
14554W        W86083  14.099  31.895   2.268
14555W        W86084  31.944  31.485  13.661
14556W        W86085  28.893  44.519   1.799
14557W        W86086  15.548  35.936   3.367
14558W        W86087  23.550  28.075  13.512
14559W        W86088  31.614  31.063   3.050
14560W        W86089  14.197  12.881   2.887
14561W        W86090   9.315  27.077   2.095
14562W        W86091  16.497  40.548  12.434
14563W        W86092  25.948  35.475   3.158
14564W        W86093   4.667  41.085  12.135
14565W        W86094  33.476  13.375  12.030
14566W        W86095  25.194  11.063  11.723
14567W        W86096  20.564  21.211   9.870
14568W        W86097  10.619  30.890  14.037
14569W        W86098  39.714  25.631   1.854
14570W        W86099   9.914  22.603   1.368
14571W        W86100   7.303  11.851  10.603
14572W        W86101  15.558  19.430   4.326
14573W        W86102  37.351  23.918   2.652
14574W        W86103   2.048  40.424   2.323
14575W        W86104  26.970  31.201  12.006
14576W        W86105  39.557  38.396   0.692
14577W        W86106   8.464  11.238  10.252
14578W        W86107  18.201  44.733  10.397
14579W        W86108  27.430  20.241  13.282
14580W        W86109  14.777   7.223   0.008
14581W        W86110  30.718  31.430  10.646
14582W        W86111   2.333  17.702   3.671
14583W        W86112  11.167   8.769  11.559
14584W        W86113   1.710  38.210  13.498
14585W        W86114   3.472  10.369   2.390
14586W        W86115  44.764  20.417   4.112
14587W        W86116  41.516  29.030  13.852
14588W        W86117   1.286   6.137  12.447
14589W        W86118  19.561   6.280   2.724
14590W        W86119  31.962  34.512  13.932
14591W        W86120  43.321  23.207  13.225
14592W        W86121  36.912  17.192   2.356
14593W        W86122  24.869  37.855  10.693
14594W        W86123   3.827   3.287  13.355
14595W        W86124  14.633  34.919   4.886
14596W        W86125  25.894  28.258   2.191
14597W        W86126  32.442  24.545  11.061
14598W        W86127  27.090  28.767  12.420
14599W        W86128  41.788  14.747  11.169
14600W        W86129  20.800   1.919   2.158
14601W        W86130  24.429  25.409  11.788
14602W        W86131  25.962  40.713  12.502
14603W        W86132  39.895  41.805  11.592
14604W        W86133  44.995  17.370   4.156
14605W        W86134  25.976  29.849   0.899
14606W        W86135   0.735  11.297  14.929
14607W        W86136  37.261   9.843   2.465
14608W        W86137  31.408  10.702  10.929
14609W        W86138  25.040   1.001   2.784
14610W        W86139  15.226  42.899   2.845
14611W        W86140  21.874  11.916  13.428
14612W        W86141  25.357  36.627   2.826
14613W        W86142  13.263  33.562  12.343
14614W        W86143  29.652  39.234   3.042
14615W        W86144   5.700  20.573   4.228
14616W        W86145  20.397  38.456   3.689
14617W        W86146  22.557  33.552  11.037
14618W        W86147  16.352  31.185  12.982
14619W        W86148   9.792  33.056   4.728
14620W        W86149  40.479  38.319  12.188
14621W        W86150  41.451  22.521   3.013
14622W        W86151  13.819  15.664   0.005
14623W        W86152  22.223  26.002   3.423
14624W        W86153  18.570  14.725   1.348
14625W        W86154  33.531  31.697   3.657
14626W        W86155  35.984  34.990   2.712
14627W        W86156  20.594  28.519   0.848
14628W        W86157  36.185  42.869   2.241
14629W        W86158  12.768  40.900  14.951
14630W        W86159  27.902  38.127   2.369
14631W        W86160   5.327  38.775  12.097
14632W        W86161  33.943   3.944  12.393
14633W        W86162  16.345   7.099  11.571
14634W        W86163   1.802  30.324  12.633
14635W        W86164  20.241  30.329  11.622
14636W        W86165  37.568   6.922   2.779
14637W        W86166  20.519   4.450   0.284
14638W        W86167  26.981  25.347   5.280
14639W        W86168  10.635   0.719  12.125
14640W        W86169  39.541  30.094   0.251
14641W        W86170  42.498  36.802   0.849
14642W        W86171  30.049   9.809  10.760
14643W        W86172  43.280  18.648  10.721
14644W        W86173  23.658   7.777  11.114
14645W        W86174  21.762  17.824  13.585
14646W        W86175  43.092  11.777   3.090
14647W        W86176  36.105  25.595   4.803
14648W        W86177  42.301  25.189   1.287
14649W        W86178  29.564  21.296   3.357
14650W        W86179  21.997  18.869   2.759
14651W        W86180  12.209  44.557   2.338
14652W        W86181  29.523  17.617   4.626
14653W        W86182   0.452  13.704   2.211
14654W        W86183   7.462   9.769  13.937
14655W        W86184  43.355  26.525   0.871
14656W        W86185   8.359  42.714  14.974
14657W        W86186  40.828  26.644   4.307
14658W        W86187  22.752  32.041   3.780
14659W        W86188  35.190   8.285  12.510
14660W        W86189  37.371  27.628  13.988
14661W        W86190  43.283  19.337  12.818
14662W        W86191   7.662   9.691   2.827
14663W        W86192  38.387   3.227   3.830
14664W        W86193   3.483  29.634   3.660
14665W        W86194   6.508  21.852   0.454
14666W        W86195   6.911  27.863   2.828
14667W        W86196   9.893  32.593   4.467
14668W        W86197  44.921  31.577  12.670
14669W        W86198   5.151  11.565   2.812
14670W        W86199  20.012  41.664   1.773
14671W        W86200  27.504  15.480   4.333
14672W        W86201  41.525  28.241   3.661
14673W        W86202  23.991   7.782  14.843
14674W        W86203  29.065   0.893  13.832
14675W        W86204  35.611  33.630   1.829
14676W        W86205   7.930   1.411  12.549
14677W        W86206  26.482  25.494  13.459
14678W        W86207   2.264  44.011  13.638
14679W        W86208   8.216  11.507   0.930
14680W        W86209  11.144  13.887  11.110
14681W        W86210   7.159  43.993   2.377
14682W        W86211  35.357   4.048   2.733
14683W        W86212   7.527  19.730  10.448
14684W        W86213  25.829  33.785  11.709
14685W        W86214  26.206   4.883  10.688
14686W        W86215   7.698   0.476  14.896
14687W        W86216   8.624  22.855   1.412
14688W        W86217  16.140  21.618  13.342
14689W        W86218  26.225  33.430  11.603
14690W        W86219  23.735  39.466  14.762
14691W        W86220  28.144  12.335   3.771
14692W        W86221  31.238  42.274   0.077
14693W        W86222  41.141  40.034  14.736
14694W        W86223  31.610  38.633   0.195
14695W        W86224  44.869  25.222   3.619
14696W        W86225  31.819  32.953  13.523
14697W        W86226  25.185  44.576  10.376
14698W        W86227  35.155  30.979   0.531
14699W        W86228   6.854  23.591   2.513
14700W        W86229  13.393   5.504  13.784
14701W        W86230  13.141  31.349   1.514
14702W        W86231  17.617  21.210  11.074
14703W        W86232  34.560  35.914  14.995
14704W        W86233  27.280   8.834  12.931
14705W        W86234  31.106  33.660   0.895
14706W        W86235  43.166  25.117   0.971
14707W        W86236  13.326   5.631   0.028
14708W        W86237  24.449  44.611   2.012
14709W        W86238   3.781  19.249   4.930
14710W        W86239  24.443  18.110   0.269
14711W        W86240  29.457  30.220  12.148
14712W        W86241  19.217  28.397   1.232
14713W        W86242  27.517  24.147   1.752
14714W        W86243  35.357   8.442   1.540
14715W        W86244  29.229  33.447  12.403
14716W        W86245   4.190  18.795  12.489
14717W        W86246  10.424  44.909   4.549
14718W        W86247  22.165  37.909   2.255
14719W        W86248  12.202  27.571  14.486
14720W        W86249  32.355  21.250  14.333
14721W        W86250  40.478  13.573   2.987
14722W        W86251  30.524   5.916   3.392
14723W        W86252   4.742  26.328  12.054
14724W        W86253   1.453   8.735  12.023
14725W        W86254   3.984  30.004   2.928
14726W        W86255   7.067  44.223  10.721
14727W        W86256  17.834  17.230   0.516
14728W        W86257  44.401  27.410   1.662
14729W        W86258  11.149  41.795   4.542
14730W        W86259  33.983  23.039   2.728
14731W        W86260   7.690  12.150   0.471
14732W        W86261  36.415  12.675  12.618
14733W        W86262   3.486  12.659  13.745
14734W        W86263  13.826  16.746   4.733
14735W        W86264   2.183  27.648   1.253
14736W        W86265  37.846  36.264  12.141
14737W        W86266  19.520  27.986   4.121
14738W        W86267  42.840  13.332   4.204
14739W        W86268  40.776   8.143  11.206
14740W        W86269  41.841  18.992  10.713
14741W        W86270  38.864  41.855   0.747
14742W        W86271  14.790   6.374  10.735
14743W        W86272   1.307  39.240  11.896
14744W        W86273  17.323  36.891   1.353
14745W        W86274  24.930  13.782   3.289
14746W        W86275  13.771  10.585   1.868
14747W        W86276   0.833  29.172  13.939
14748W        W86277  21.311  25.134   3.296
14749W        W86278  14.655  28.234   2.760
14750W        W86279  23.173  10.735   1.181
14751W        W86280  32.911  28.362  10.666
14752W        W86281   4.453  21.519  12.945
14753W        W86282  40.581  27.462   1.939
14754W        W86283  35.848   1.708   2.255
14755W        W86284   6.997  35.546   1.802
14756W        W86285  10.450  18.429   2.783
14757W        W86286  41.822  41.835   2.152
14758W        W86287  20.618  21.911   4.820
14759W        W86288  35.410   7.382  14.240
14760W        W86289   6.820   5.147  13.912
14761W        W86290  33.130   5.669   4.169
14762W        W86291  31.680  18.184  11.488
14763W        W86292  38.288  43.880  12.144
14764W        W86293  37.662   9.462  11.573
14765W        W86294   2.335  31.447   4.124
14766W        W86295  42.716  14.223   3.712
14767W        W86296  24.490  27.599  11.557
14768W        W86297   4.602   5.666   5.046
14769W        W86298  13.113  19.490  14.357
14770W        W86299  29.897   9.004  14.540
14771W        W86300  19.041  44.753  14.044
14772W        W86301  27.194  25.447   3.384
14773W        W86302   0.784  12.842  11.656
14774W        W86303   0.008  31.436  13.158
14775W        W86304  27.196  29.892  13.040
14776W        W86305  32.632  39.786  11.053
14777W        W86306  36.384  12.837  14.299
14778W        W86307  15.200  36.314  14.007
14779W        W86308  35.808  15.803  13.951
14780W        W86309   4.248  40.546   3.798
14781W        W86310  11.763  29.894  11.908
14782W        W86311  29.728  10.807   3.673
14783W        W86312  10.557   4.819  11.493
14784W        W86313  40.553  40.990   2.225
14785W        W86314   2.760   4.334  12.883
14786W        W86315   5.875   9.086  10.717
14787W        W86316  21.300  40.827   4.541
14788W        W86317  23.187   7.960   1.780
14789W        W86318  29.463  26.510  12.853
14790W        W86319  13.924  42.459   0.442
14791W        W86320  28.888  28.000  11.231
14792W        W86321  32.409  11.406  13.362
14793W        W86322  27.723  31.825   1.662
14794W        W86323  10.181  42.848   0.886
14795W        W86324   8.709   1.877  10.254
14796W        W86325  12.887  16.243  14.441
14797W        W86326  12.559  39.739   0.649
14798W        W86327  26.921   7.192   4.310
14799W        W86328  39.967   2.404  12.537
14800W        W86329  15.351  12.224   3.580
14801W        W86330  25.110  39.527  11.141
14802W        W86331  19.290  34.992  11.513
14803W        W86332  21.501  24.804   3.683
14804W        W86333   4.247  13.619  10.725
14805W        W86334  37.038  37.410  10.309
14806W        W86335  12.397  32.046  13.431
14807W        W86336  15.288  22.865  11.641
14808W        W86337  27.415  17.501  10.736
14809W        W86338   6.199  12.171   3.658
14810W        W86339  12.326   0.787   0.716
14811W        W86340  27.118  27.219  13.626
14812W        W86341  42.969  20.689   4.688
14813W        W86342   1.900  37.576  13.987
14814W        W86343  29.450   2.904  12.649
14815W        W86344  35.433   2.780  13.398
14816W        W86345   4.736   1.270  14.326
14817W        W86346  20.601  27.053  13.191
14818W        W86347   6.809  26.823  14.677
14819W        W86348  37.417  36.381  11.892
14820W        W86349  20.854  42.789  10.920
14821W        W86350  34.535  27.828  11.217
14822W        W86351  30.675  30.017   4.528
14823W        W86352  20.323   8.291  13.113
14824W        W86353  10.245  13.225  11.032
14825W        W86354  42.151  20.132   1.259
14826W        W86355  40.157   5.683  14.299
14827W        W86356   4.395  23.805   4.547
14828W        W86357  14.844  21.213  12.363
14829W        W86358  13.685  24.536   2.603
14830W        W86359  27.110  28.648  13.861
14831W        W86360  42.317  23.961  12.791
14832W        W86361  32.522  34.103  11.665
14833W        W86362   1.311   2.481   2.931
14834W        W86363  28.602   1.940   1.146
14835W        W86364  38.815   0.876   0.514
14836W        W86365  11.138  16.185   3.007
14837W        W86366   0.543  19.034   3.701
14838W        W86367  41.056  18.945  12.653
14839W        W86368  31.851  24.298   5.033
14840W        W86369  10.427  14.602  11.084
14841W        W86370   5.430  10.186  13.402
14842W        W86371  34.205   7.848  11.003
14843W        W86372  21.683  31.921   4.187
14844W        W86373  24.426  30.503  13.463
14845W        W86374  43.822   0.279   2.562
14846W        W86375  26.776  20.029  13.990
14847W        W86376  28.526  19.784   1.837
14848W        W86377  13.138  13.325   2.201
14849W        W86378  13.512  33.985  10.744
14850W        W86379  19.647  21.961   1.272
14851W        W86380  15.704  41.995   4.538
14852W        W86381  15.349   1.192  12.045
14853W        W86382  10.356   3.241  13.962
14854W        W86383  20.325   2.420  11.558
14855W        W86384   3.786  28.080  13.419
14856W        W86385  22.791   0.948   4.544
14857W        W86386   7.594  22.273   2.729
14858W        W86387  12.846  43.644   3.342
14859W        W86388  18.438   1.196  11.189
14860W        W86389  29.289   6.534  12.739
14861W        W86390  27.911  32.614  11.467
14862W        W86391  35.121  38.391   2.345
14863W        W86392  29.188  26.923   2.174
14864W        W86393   6.175  44.763   1.397
14865W        W86394  10.170  29.171   2.789
14866W        W86395  14.412  30.126   3.284
14867W        W86396  16.075   2.793   0.452
14868W        W86397  13.850   2.878  14.924
14869W        W86398  32.114   0.477  11.459
14870W        W86399  15.218  14.779   3.108
14871W        W86400   7.305  34.302   4.624
14872W        W86401  27.016   8.624  11.149
14873W        W86402  39.548  24.472   0.039
14874W        W86403  44.269  16.580  11.283
14875W        W86404  28.559  29.684   2.192
14876W        W86405  19.058  30.845  10.788
14877W        W86406  34.553  37.871   2.695
14878W        W86407  32.390  41.816   0.453
14879W        W86408  22.623   7.152  13.006
14880W        W86409   0.298  17.614   3.789
14881W        W86410   3.563  33.729   0.182
14882W        W86411  29.833  44.660  13.060
14883W        W86412  27.980  30.927   1.838
14884W        W86413  21.517  28.044  12.167
14885W        W86414  37.026  27.466   2.557
14886W        W86415   4.486  30.642  11.204
14887W        W86416  34.195  20.661  13.430
14888W        W86417  11.659  15.572  10.235
14889W        W86418   5.257  36.397  14.671
14890W        W86419   3.726  23.347  11.067
14891W        W86420  31.571  38.767   3.929
14892W        W86421  44.008   7.518   3.381
14893W        W86422  26.427   6.469  11.001
14894W        W86423  44.268  28.899  12.912
14895W        W86424   8.384  39.440   1.385
14896W        W86425   5.148  33.423  13.690
14897W        W86426   6.281  40.662  14.718
14898W        W86427   3.283  34.490  12.138
14899W        W86428  44.329  35.264  11.710
14900W        W86429  41.844  10.294   4.552
14901W        W86430  24.291   3.660   0.559
14902W        W86431   1.824  25.210  10.644
14903W        W86432  15.733  25.941   2.241
14904W        W86433  11.777  10.827  10.944
14905W        W86434  26.202  11.266  10.474
14906W        W86435   0.321  40.418  12.861
14907W        W86436  30.560  28.082   1.291
14908W        W86437   7.864  24.739  11.039
14909W        W86438  23.411  14.121  14.900
14910W        W86439  32.030  11.737  12.630
14911W        W86440  40.362  30.663  10.697
14912W        W86441  29.613  28.017  14.743
14913W        W86442   7.232  41.094  13.029
14914W        W86443  27.368  39.151   4.087
14915W        W86444   4.813  20.451   3.173
14916W        W86445   8.567  27.486   2.275
14917W        W86446  11.383  43.038   3.285
14918W        W86447  25.453   6.349   3.263
14919W        W86448  28.144  12.819   0.467
14920W        W86449  15.725   3.684  10.621
14921W        W86450  18.508  27.471  11.366
14922W        W86451  28.141  35.554   4.926
14923W        W86452   3.250  34.467   0.814
14924W        W86453   1.131   0.381  12.490
14925W        W86454   1.774  10.778  13.796
14926W        W86455   8.554  29.696  10.757
14927W        W86456  35.376  41.758  12.966
14928W        W86457   6.158  43.536   4.204
14929W        W86458  15.650  31.511  12.846
14930W        W86459  18.090  36.496   2.693
14931W        W86460  38.061   0.405  10.776
14932W        W86461  39.939  39.836   2.832
14933W        W86462  16.797   4.545   0.826
14934W        W86463  42.729  28.488   2.727
14935W        W86464  16.301   9.777  12.121
14936W        W86465  20.979  16.639  12.103
14937W        W86466   9.435  24.485  14.846
14938W        W86467  33.405  21.518  10.632
14939W        W86468  41.437  37.849  12.586
14940W        W86469  22.047  44.652   0.316
14941W        W86470  35.835  35.582   4.189
14942W        W86471  29.788  43.368   1.381
14943W        W86472  37.758   6.167   1.861
14944W        W86473  34.146   7.590  12.378
14945W        W86474  36.394  26.185  13.928
14946W        W86475  42.983  26.104  14.489
14947W        W86476   3.816   1.501  11.344
14948W        W86477  41.954   5.991  14.943
14949W        W86478  24.679  17.071  11.227
14950W        W86479  19.842  20.561  12.020
14951W        W86480  18.586  14.915   0.723
14952W        W86481  23.718  11.328  14.225
14953W        W86482  35.350  26.059  10.585
14954W        W86483  37.512  44.253  12.831
14955W        W86484  32.542  29.422  12.864
14956W        W86485  23.141  33.557  12.393
14957W        W86486   2.195   1.002   3.628
14958W        W86487  44.365  17.176   2.640
14959W        W86488   5.951  41.507  12.146
14960W        W86489  16.347   9.525   0.630
14961W        W86490  34.359  19.046  10.793
14962W        W86491  35.171  14.311  14.517
14963W        W86492  25.703   8.731   2.180
14964W        W86493  26.144  25.576   4.878
14965W        W86494  30.377  30.319  11.280
14966W        W86495  25.624   0.350  10.478
14967W        W86496   1.746  36.966   3.214
14968W        W86497  42.019  15.588  12.022
14969W        W86498   0.854   6.678   0.696
14970W        W86499  35.267   7.194  11.540
14971W        W86500  31.331  28.501   2.674
14972W        W86501   9.815  35.103   0.741
14973W        W86502  37.894  37.053   3.288
14974W        W86503  17.264  15.907   2.161
14975W        W86504  44.842  15.881  13.842
14976W        W86505   6.413  19.510   2.792
14977W        W86506  42.699  22.031  12.965
14978W        W86507  15.306  18.142   1.392
14979W        W86508   1.289   3.817  14.590
14980W        W86509  18.354   0.709   2.253
14981W        W86510  12.884  35.691   2.298
14982W        W86511  31.373   3.125   3.445
14983W        W86512   7.302  30.697   1.700
14984W        W86513   1.328  28.343  14.967
14985W        W86514  11.886  25.195   0.948
14986W        W86515  24.907   2.321  14.290
14987W        W86516  44.875  23.149  10.625
14988W        W86517   9.302  31.962   3.135
14989W        W86518  33.065  12.837   4.942
14990W        W86519  37.520  14.886  10.632
14991W        W86520   5.047  14.626   1.763
14992W        W86521  25.457  33.222   0.023
14993W        W86522  44.872   5.522  13.415
14994W        W86523  37.063  11.845   1.840
14995W        W86524  28.654  20.612  11.719
14996W        W86525  39.961  31.681  12.883
14997W        W86526  32.178  10.677   2.720
14998W        W86527  38.388  34.387   0.403
14999W        W86528  13.651  22.687   0.710
15000W        W86529  32.922  29.687  13.514
15001W        W86530  34.004  15.862  11.210
15002W        W86531  38.553  29.117   3.760
15003W        W86532  12.545  23.085   4.477
15004W        W86533   5.427  28.821   1.223
15005W        W86534  42.118  38.495   4.007
15006W        W86535  44.758   2.413  14.628
15007W        W86536  41.493  17.483  10.728
15008W        W86537  30.286   3.139   1.039
15009W        W86538  27.952   2.601  11.235
15010W        W86539  23.071  41.993   4.076
15011W        W86540  15.411  30.040  10.190
15012W        W86541  44.807  10.382   4.371
15013W        W86542   6.683   1.159   4.554
15014W        W86543   2.807  21.841  14.350
15015W        W86544  17.797  12.027   0.255
15016W        W86545  33.392  39.594   4.747
15017W        W86546  13.079  36.457  11.179
15018W        W86547   3.655  21.674  11.895
15019W        W86548  12.588  43.526   4.673
15020W        W86549  33.585  28.146   3.637
15021W        W86550  42.603  28.634  14.803
15022W        W86551  44.093   7.433   4.129
15023W        W86552  13.878  20.020   2.246
15024W        W86553  17.971  10.133  13.873
15025W        W86554  28.935  30.614   0.943
15026W        W86555  38.815  21.571  12.024
15027W        W86556  32.107  18.980  10.741
15028W        W86557   1.994  31.378   0.231
15029W        W86558  37.019   2.541  14.801
15030W        W86559   0.239   2.341  14.507
15031W        W86560   3.570  33.233  11.550
15032W        W86561  39.564   8.711   3.191
15033W        W86562  37.932   4.366   2.877
15034W        W86563  43.308  42.937  13.165
15035W        W86564  13.426   8.483  11.630
15036W        W86565   4.847  13.238   3.233
15037W        W86566  44.984  15.805  12.924
15038W        W86567  28.170  39.592  12.448
15039W        W86568  31.673  37.145  11.582
15040W        W86569  27.225  10.145  13.798
15041W        W86570  25.053   1.869  11.495
15042W        W86571   6.914  21.368  13.588
15043W        W86572  40.090  36.975  11.496
15044W        W86573  22.931   9.746  10.768
15045W        W86574  38.779  44.975   1.846
15046W        W86575  11.260  35.883  14.553
15047W        W86576  28.437  35.135   0.442
15048W        W86577   1.822   7.821  11.935
15049W        W86578   2.219  17.375  13.519
15050W        W86579   7.701  10.274   3.693
15051W        W86580  27.720  37.896  14.978
15052W        W86581  18.770  15.137  10.834
15053W        W86582  26.972  21.205  13.463
15054W        W86583  35.549   1.506   0.515
15055W        W86584  17.721  29.383  14.417
15056W        W86585  20.679   4.896   3.963
15057W        W86586  27.116  32.933   1.862
15058W        W86587  24.206   8.111   2.721
15059W        W86588  20.509   9.101  10.297
15060W        W86589  26.606   2.363   3.231
15061W        W86590  36.387  25.926  12.286
15062W        W86591  10.292  19.218   2.707
15063W        W86592  11.074  20.484  11.069
15064W        W86593   1.647  42.393   0.903
15065W        W86594  14.191   3.340  12.010
15066W        W86595  35.959  14.589  11.139
15067W        W86596  38.481  15.604   1.615
15068W        W86597  20.692   6.973   3.256
15069W        W86598   0.787   0.905  10.673
15070W        W86599  42.837   2.865  11.719
15071W        W86600  26.490  27.554   4.596
15072W        W86601  30.952  39.855   1.706
15073W        W86602  19.123  41.028  13.100
15074W        W86603  13.367  40.525  14.192
15075W        W86604  10.480  43.303   2.304
15076W        W86605  28.728  23.539  12.163
15077W        W86606  43.520  29.483  14.764
15078W        W86607   9.190  20.870   2.375
15079W        W86608  25.922  32.440  11.509
15080W        W86609  33.442  35.337   5.229
15081W        W86610  29.962  24.293   4.498
15082W        W86611   1.733   2.354   1.098
15083W        W86612  41.314   3.154   4.980
15084W        W86613  11.656   5.179   2.941
15085W        W86614  44.781  19.902   0.122
15086W        W86615   4.084  31.645   2.010
15087W        W86616  32.080  44.255  10.665
15088W        W86617  22.942  31.008   0.827
15089W        W86618  31.987  10.163  14.703
15090W        W86619  38.973  15.447   4.175
15091W        W86620  28.208   2.263   0.003
15092W        W86621  27.077  42.334  11.417
15093W        W86622   2.244  35.048  10.183
15094W        W86623  18.947  13.158   0.198
15095W        W86624  37.101   9.341  11.576
15096W        W86625  28.086  31.334   2.796
15097W        W86626   6.476  21.639   2.303
15098W        W86627  10.053  30.668   4.262
15099W        W86628  16.760  34.727   0.266
15100W        W86629  14.107  25.616   0.290
15101W        W86630   9.334  27.203  10.494
15102W        W86631  12.314  35.049  12.654
15103W        W86632  38.113  35.331  12.397
15104W        W86633  39.118  14.328  11.178
15105W        W86634  17.266  39.719   2.310
15106W        W86635  16.045  13.940  10.069
15107W        W86636  42.393  43.528  13.493
15108W        W86637   0.909  39.076   5.041
15109W        W86638   2.887  34.939   4.958
15110W        W86639   0.832  33.413   3.706
15111W        W86640  39.707   4.469  13.028
15112W        W86641   5.997  17.055  10.281
15113W        W86642   1.864  34.740  12.187
15114W        W86643  12.179  18.687  14.843
15115W        W86644  15.554  35.900  11.923
15116W        W86645  18.403  42.872  13.474
15117W        W86646  11.600  37.081   2.984
15118W        W86647  40.761  39.080   5.057
15119W        W86648  18.234  41.581   2.423
15120W        W86649  33.832  37.573  14.097
15121W        W86650  42.940  31.915   4.283
15122W        W86651   6.472  14.005   0.201
15123W        W86652  30.623  17.269  12.002
15124W        W86653   7.796   3.194   4.543
15125W        W86654  35.939  22.639  11.210
15126W        W86655  22.634  29.411  11.159
15127W        W86656  36.282  35.973  10.635
15128W        W86657  20.611  28.062  10.676
15129W        W86658  31.761   2.132   2.295
15130W        W86659   8.686  18.495   2.337
15131W        W86660  22.196  41.035   0.873
15132W        W86661   4.889  21.742   3.812
15133W        W86662  36.872  44.463   2.433
15134W        W86663  19.751   7.435   4.265
15135W        W86664  21.949  30.231  12.150
15136W        W86665  34.509  26.204  10.262
15137W        W86666  25.643  34.830   2.187
15138W        W86667  41.328   6.625   3.220
15139W        W86668  22.271  18.218  14.334
15140W        W86669  10.323  44.441  12.562
15141W        W86670   2.376  42.758  11.001
15142W        W86671  26.813  42.976  11.957
15143W        W86672  43.704   8.921  11.189
15144W        W86673  36.907  21.090  10.746
15145W        W86674   5.706  22.156   3.947
15146W        W86675  22.544  20.347  12.949
15147W        W86676  35.900   7.726   4.435
15148W        W86677  21.862  23.025   3.118
15149W        W86678   9.114  21.064  10.254
15150W        W86679   6.197  34.863  12.130
15151W        W86680  16.583  21.763   4.430
15152W        W86681  22.489  40.561  12.626
15153W        W86682  15.763  43.279   2.302
15154W        W86683  29.901  34.628  12.115
15155W        W86684  37.259  24.733  12.583
15156W        W86685  20.594  20.509  11.767
15157W        W86686  20.967  12.445   3.862
15158W        W86687  27.225  36.971  14.475
15159W        W86688   9.311   0.684  14.754
15160W        W86689   2.724   0.772   1.954
15161W        W86690  27.542  20.684   3.319
15162W        W86691   4.993   9.342   3.348
15163W        W86692  44.226   9.653   4.752
15164W        W86693  41.804  36.629  12.032
15165W        W86694  31.470   0.925   0.777
15166W        W86695  19.740   0.181  11.517
15167W        W86696  20.170  30.639   1.200
15168W        W86697   8.744   0.253  13.393
15169W        W86698   5.805  31.207   3.767
15170W        W86699   5.286  32.965   1.258
15171W        W86700  11.820  33.071   3.821
15172W        W86701   4.702  30.458  14.351
15173W        W86702  11.091   7.834  13.971
15174W        W86703  19.727   5.329  14.989
15175W        W86704  42.417  18.396  12.440
15176W        W86705  23.648  25.337   4.831
15177W        W86706  40.350  28.997   2.822
15178W        W86707  31.315  42.985  11.435
15179W        W86708  19.009  34.021   3.202
15180W        W86709  18.312  19.632   0.464
15181W        W86710  33.399  23.321  12.870
15182W        W86711  13.580  31.556  10.657
15183W        W86712   6.780   5.230   4.549
15184W        W86713  13.107   8.365   3.262
15185W        W86714  24.976  42.347   4.620
15186W        W86715  22.059  20.929   1.223
15187W        W86716  19.134  19.053   4.530
15188W        W86717   7.672  39.864  12.886
15189W        W86718   5.683  13.042   2.647
15190W        W86719  28.076  31.085   3.274
15191W        W86720  33.306  35.995   1.519
15192W        W86721   2.047  29.551   2.721
15193W        W86722  37.339  17.231   3.610
15194W        W86723   6.159  41.496  14.278
15195W        W86724   2.238  24.526  12.935
15196W        W86725   9.138  19.398  12.592
15197W        W86726   6.216  38.429   0.459
15198W        W86727  15.573   3.267   0.877
15199W        W86728  38.816  43.339  11.964
15200W        W86729  17.848   9.155   3.771
15201W        W86730  24.767  37.668   5.006
15202W        W86731   5.662  22.652   1.899
15203W        W86732  19.481  12.108  13.607
15204W        W86733  23.073  38.745  13.885
15205W        W86734  14.744   6.654   3.687
15206W        W86735  14.490  36.294   2.699
15207W        W86736   3.840  23.731  14.008
15208W        W86737  32.134   8.342   1.782
15209W        W86738  12.655  26.181   1.727
15210W        W86739  20.879  36.053   3.796
15211W        W86740  35.362   0.005  13.792
15212W        W86741  35.131   7.386  12.032
15213W        W86742   5.602  20.813   1.333
15214W        W86743  33.145   0.903  14.353
15215W        W86744  27.113  30.524  13.580
15216W        W86745  32.481  14.713  12.344
15217W        W86746   6.492  15.443   3.645
15218W        W86747  28.166  42.326  12.069
15219W        W86748  41.291   1.694   3.299
15220W        W86749  40.771  34.952  10.775
15221W        W86750  14.348  29.081   0.887
15222W        W86751  32.669  38.527  12.462
15223W        W86752  19.375  27.355  12.565
15224W        W86753  27.363  23.472  11.628
15225W        W86754   7.435  19.287   2.287
15226W        W86755  24.098  24.017  14.536
15227W        W86756  12.723  26.188  10.681
15228W        W86757  38.706   6.249   1.172
15229W        W86758  22.621  10.093   2.767
15230W        W86759  28.275   0.365   2.898
15231W        W86760   3.162  44.278   0.354
15232W        W86761  32.267  27.628  10.647
15233W        W86762   6.809   2.181   4.584
15234W        W86763   5.949  37.114  11.013
15235W        W86764   6.923  14.878   2.883
15236W        W86765  29.354  38.447   3.157
15237W        W86766  30.438   6.882   3.737
15238W        W86767  33.740  27.350  10.681
15239W        W86768  34.889  24.696  10.303
15240W        W86769  18.108  13.248  13.435
15241W        W86770  37.916  40.216  11.700
15242W        W86771  17.838  31.135  13.833
15243W        W86772  20.578  20.667   4.184
15244W        W86773   1.325  38.120  12.640
15245W        W86774  13.956   1.758  12.199
15246W        W86775   2.172  36.557   4.116
15247W        W86776   8.275  10.724  14.219
15248W        W86777  29.620  20.547  10.732
15249W        W86778   7.635  10.423   4.204
15250W        W86779  33.888  17.660  14.828
15251W        W86780  15.821  18.651   2.505
15252W        W86781   4.147   4.137  12.281
15253W        W86782  22.660   6.652   2.179
15254W        W86783  26.587  14.620  12.821
15255W        W86784   7.752  11.646  10.793
15256W        W86785  37.857  23.304   1.314
15257W        W86786  10.484  33.368   1.361
15258W        W86787  44.472  38.535   3.847
15259W        W86788  42.329  22.172   3.405
15260W        W86789  18.550  11.860  13.308
15261W        W86790  19.667  26.926   2.863
15262W        W86791   0.795  15.516   1.978
15263W        W86792   7.398  24.264   2.343
15264W        W86793   1.818  10.797  10.837
15265W        W86794  16.515  25.456   0.326
15266W        W86795   9.064   2.786   2.912
15267W        W86796  41.322  25.029  11.477
15268W        W86797  35.916  31.133   4.254
15269W        W86798   8.943  26.907  10.641
15270W        W86799  43.365  40.818   1.088
15271W        W86800   8.482  41.834  10.561
15272W        W86801   5.615  42.312   4.547
15273W        W86802  25.645   2.748   2.629
15274W        W86803  31.484  36.839   3.905
15275W        W86804  34.249  40.260   4.994
15276W        W86805   6.288  10.335   2.138
15277W        W86806  25.458  28.859   2.340
15278W        W86807  30.231  17.982  11.854
15279W        W86808  16.571   6.296   0.460
15280W        W86809  25.059  37.960   4.685
15281W        W86810  17.790  26.003  11.165
15282W        W86811  32.897   7.115  11.907
15283W        W86812  27.021  43.461  14.311
15284W        W86813   4.821  11.338  10.412
15285W        W86814   0.369   0.746   3.643
15286W        W86815  13.033   3.054  12.303
15287W        W86816  19.338  33.112  10.665
15288W        W86817  16.055  28.431  12.151
15289W        W86818   7.759   5.733  10.764
15290W        W86819  41.564  40.998   2.433
15291W        W86820   2.478  24.261   1.241
15292W        W86821  42.200  33.038   3.114
15293W        W86822   7.151  31.534  13.171
15294W        W86823   2.959  36.583   4.629
15295W        W86824  39.681  38.148  11.533
15296W        W86825  22.129  20.277  14.982
15297W        W86826   9.930  44.194   2.357
15298W        W86827  31.509  19.537   4.592
15299W        W86828  29.539  12.335   4.064
15300W        W86829  18.136  26.548  13.071
15301W        W86830  42.931   6.597   2.853
15302W        W86831  44.820  17.016   2.823
15303W        W86832  26.705   4.804  12.431
15304W        W86833  16.281  21.444  12.874
15305W        W86834   6.628  31.000   3.342
15306W        W86835  15.679   4.666   0.050
15307W        W86836  35.644  27.973   0.431
15308W        W86837  31.071  10.177  13.025
15309W        W86838  15.355  26.044  12.005
15310W        W86839  30.203   3.507  13.757
15311W        W86840  39.199   8.320  10.688
15312W        W86841  23.774   0.316  10.731
15313W        W86842   6.251  17.124  14.987
15314W        W86843  23.993   2.414   4.640
15315W        W86844  36.433  12.427   1.770
15316W        W86845   3.968  11.725   3.787
15317W        W86846   7.354  43.108   4.201
15318W        W86847  24.044   2.753  11.199
15319W        W86848  33.586   4.044   3.331
15320W        W86849   9.786  31.211  13.352
15321W        W86850  28.151  40.525  12.511
15322W        W86851  32.089  29.976  13.095
15323W        W86852  10.674   4.674  11.023
15324W        W86853   2.497  16.130   1.418
15325W        W86854  10.842  15.775  13.871
15326W        W86855  20.051  32.452   3.846
15327W        W86856   6.476  40.958  10.985
15328W        W86857  25.698  29.134  13.534
15329W        W86858  14.726  37.525  13.003
15330W        W86859  35.067   6.918  14.394
15331W        W86860  38.499  33.574  13.491
15332W        W86861  10.480  43.463   2.840
15333W        W86862  36.797  25.192   2.234
15334W        W86863  13.431  33.998   4.184
15335W        W86864  17.076   7.622   4.485
15336W        W86865  40.519  44.382   3.055
15337W        W86866  19.677  20.041  11.032
15338W        W86867  18.810  37.009   2.372
15339W        W86868  43.386  44.899  11.698
15340W        W86869  17.407   0.839   3.275
15341W        W86870  25.445   4.207   0.303
15342W        W86871  18.862  38.379  12.528
15343W        W86872  26.717  22.237   1.331
15344W        W86873   8.565  36.091   1.183
15345W        W86874  28.301  35.433  12.200
15346W        W86875  36.839  41.409   2.294
15347W        W86876  24.750  43.959   3.354
15348W        W86877   9.600  31.961  10.743
15349W        W86878   5.984  35.802   2.710
15350W        W86879  32.375  25.291   0.972
15351W        W86880   3.175  15.078   3.630
15352W        W86881  16.855   1.270   3.410
15353W        W86882  23.648   5.704   4.071
15354W        W86883  33.480  15.652   4.109
15355W        W86884   3.856   6.425  14.738
15356W        W86885   6.366  30.050   4.172
15357W        W86886  43.414  35.699   4.164
15358W        W86887  19.495   3.309  14.914
15359W        W86888  35.105  42.147   3.231
15360W        W86889  43.754  40.831  14.626
15361W        W86890  24.945   5.724   1.906
15362W        W86891  28.062  44.805   2.077
15363W        W86892  17.281  15.373   3.198
15364W        W86893  33.986   6.653   0.530
15365W        W86894  11.095  35.885   2.070
15366W        W86895  44.025  21.994  12.837
15367W        W86896   8.586  18.174  12.339
15368W        W86897  21.552  24.556  13.881
15369W        W86898  19.726  20.814  12.941
15370W        W86899  32.159  32.083   2.510
15371W        W86900  34.054  17.537   3.897
15372W        W86901  11.022  29.227  14.917
15373W        W86902  15.729  30.467   0.340
15374W        W86903  22.308  19.774  11.818
15375W        W86904  25.329   7.997   5.032
15376W        W86905  36.958  41.928  14.620
15377W        W86906  36.161  31.393  12.682
15378W        W86907  16.783   7.289  12.437
15379W        W86908   1.161   5.334   2.231
15380W        W86909  18.620  19.215   2.172
15381W        W86910  38.548  31.619  14.157
15382W        W86911  12.694   4.767  12.223
15383W        W86912  38.495  44.922   2.794
15384W        W86913  33.673  25.517  14.077
15385W        W86914  25.255  28.637  14.523
15386W        W86915  28.607  38.310  10.975
15387W        W86916  13.707  44.991  14.811
15388W        W86917  32.035  24.746  12.949
15389W        W86918  18.293   4.661   5.147
15390W        W86919  13.589  44.541  12.786
15391W        W86920   4.353  10.871   3.310
15392W        W86921   6.333  29.286   3.693
15393W        W86922  15.613  19.103   2.392
15394W        W86923   9.048  22.511  12.969
15395W        W86924  36.467  36.109  14.597
15396W        W86925  30.430  18.872  14.340
15397W        W86926   2.441   0.359  13.761
15398W        W86927   0.001  29.010   1.134
15399W        W86928  28.904  36.840   0.326
15400W        W86929  21.565  24.036   3.220
15401W        W86930  32.188  29.567  12.038
15402W        W86931  14.577  17.592   4.873
15403W        W86932  31.848  32.977  12.996
15404W        W86933   3.730  30.613  11.988
15405W        W86934  39.248  26.145   2.860
15406W        W86935  31.078  31.637   2.112
15407W        W86936  28.758  25.914   4.558
15408W        W86937  18.512  32.727  13.863
15409W        W86938  14.324  27.699   4.074
15410W        W86939   1.219  20.972   4.596
15411W        W86940   6.714   5.479   2.373
15412W        W86941  18.276  40.316  12.112
15413W        W86942  26.701  25.027  10.597
15414W        W86943  18.214  40.027   2.069
15415W        W86944  40.712  17.232   2.760
15416W        W86945  31.233   1.007  14.430
15417W        W86946  20.168  13.134   2.062
15418W        W86947  34.931  42.461   0.516
15419W        W86948  28.529   6.248  14.576
15420W        W86949  32.871  21.754   3.789
15421W        W86950   7.182  33.650   0.790
15422W        W86951  24.383   1.848  13.884
15423W        W86952  20.671   9.966  11.571
15424W        W86953  13.232  40.123   2.824
15425W        W86954  40.137  21.663   3.077
15426W        W86955  44.859  13.684   0.861
15427W        W86956  21.376   2.272  12.358
15428W        W86957  25.090   8.691   3.860
15429W        W86958  12.815  13.384  14.878
15430W        W86959  36.537   0.998  12.640
15431W        W86960  44.372  12.116   1.192
15432W        W86961  44.595  22.594   4.666
15433W        W86962  25.137  36.897   3.891
15434W        W86963  27.651   7.489  14.795
15435W        W86964  24.534  33.035  12.409
15436W        W86965  43.325  30.662   4.125
15437W        W86966   4.064  23.110   0.391
15438W        W86967   3.373   6.327  12.517
15439W        W86968  29.946  14.115   0.281
15440W        W86969  27.910  20.692   0.767
15441W        W86970  16.952  41.229  10.981
15442W        W86971   4.235   9.650   0.217
15443W        W86972  21.637  22.074   4.393
15444W        W86973  12.379   9.728  10.980
15445W        W86974  17.050  25.574  13.924
15446W        W86975   5.905   7.877   0.325
15447W        W86976  20.093  27.062  14.827
15448W        W86977   1.807  42.801  13.475
15449W        W86978  35.080  39.952   2.336
15450W        W86979   0.263  38.683   1.120
15451W        W86980  18.107  26.429  13.581
15452W        W86981   2.752   4.193  12.068
15453W        W86982  32.122  18.470  10.701
15454W        W86983  14.760  43.877   3.357
15455W        W86984  39.556  12.189  12.079
15456W        W86985  44.846  27.775   3.600
15457W        W86986  32.095  24.056   4.621
15458W        W86987  22.008  19.537  13.256
15459W        W86988  37.850  33.166  10.481
15460W        W86989   3.516  39.490   0.599
15461W        W86990   0.875  38.802   0.449
15462W        W86991  31.018  11.840  12.487
15463W        W86992  25.917   1.436  13.450
15464W        W86993  38.439  32.922   4.064
15465W        W86994  17.798  13.618   4.194
15466W        W86995  36.505  16.264   1.246
15467W        W86996  26.114  20.236  10.675
15468W        W86997   3.667  17.484   4.380
15469W        W86998   0.277  19.845   0.267
15470W        W86999  13.061  25.483   4.552
15471W        W87000  21.712  18.793   4.020
15472W        W87001  33.722   6.225  11.478
15473W        W87002   3.771  18.524   3.079
15474W        W87003  40.641  21.815  11.977
15475W        W87004  28.969  16.631   2.316
15476W        W87005  12.469  26.238   0.659
15477W        W87006  12.194  18.078  11.723
15478W        W87007  32.998   9.174   4.522
15479W        W87008  26.719   6.368   3.690
15480W        W87009  31.550  18.363   2.795
15481W        W87010   7.224  20.285  14.612
15482W        W87011  37.084   3.384   2.772
15483W        W87012  18.743  29.943  14.541
15484W        W87013  16.003  24.416  11.612
15485W        W87014  17.864  31.607   4.239
15486W        W87015   0.187  22.810   1.871
15487W        W87016  32.495   7.918   4.216
15488W        W87017  38.782  15.650   4.617
15489W        W87018  29.390  42.767  10.321
15490W        W87019  40.562   9.874   1.473
15491W        W87020  39.455   6.460  10.384
15492W        W87021  23.433   4.981   3.291
15493W        W87022  40.852  27.850  14.239
15494W        W87023  32.958  34.414  10.354
15495W        W87024  24.991  20.241  12.150
15496W        W87025   4.849  24.608  12.267
15497W        W87026  31.631  31.902   3.098
15498W        W87027  28.196   4.997   3.168
15499W        W87028  35.923  36.073  13.915
15500W        W87029  39.150   5.064  13.563
15501W        W87030   7.431  26.283  13.409
15502W        W87031  27.590  13.516   4.132
15503W        W87032  42.352  32.305   0.747
15504W        W87033  39.760  10.770  11.705
15505W        W87034  23.072  31.250   4.016
15506W        W87035  11.381  38.416  12.426
15507W        W87036  11.418  34.134   2.355
15508W        W87037   6.490  25.735   4.535
15509W        W87038  23.181  34.581   3.710
15510W        W87039  16.480   3.295   3.240
15511W        W87040  39.707  12.495   3.557
15512W        W87041  16.184  37.466  12.871
15513W        W87042   1.071  13.784   0.972
15514W        W87043  44.570  20.010   2.462
15515W        W87044  21.251  18.369   3.274
15516W        W87045  32.002  34.277  11.566
15517W        W87046   2.820   0.186  10.675
15518W        W87047  11.169   9.228   1.763
15519W        W87048  42.287  39.421   0.970
15520W        W87049  44.546  34.084   2.418
15521W        W87050   6.525  43.205  14.950
15522W        W87051  27.194   2.753   1.454
15523W        W87052  37.941   5.817   0.745
15524W        W87053  24.253  25.758  14.809
15525W        W87054  22.838  35.620  14.777
15526W        W87055  22.340  26.416  12.848
15527W        W87056  26.146  15.253  12.446
15528W        W87057  18.557  36.571   3.567
15529W        W87058   8.823  10.323   1.371
15530W        W87059   2.563  11.573  14.332
15531W        W87060  32.605  37.073   2.321
15532W        W87061  23.729  42.680  10.936
15533W        W87062  18.684   3.702  11.655
15534W        W87063   6.564  21.998  14.534
15535W        W87064   4.936   5.412   3.149
15536W        W87065  24.082  19.579  11.554
15537W        W87066  40.970  42.791  14.050
15538W        W87067  10.611  40.337   1.183
15539W        W87068   2.926  18.175  14.044
15540W        W87069  24.764  16.886   0.739
15541W        W87070  36.479  19.601   2.762
15542W        W87071  21.457  31.953  12.417
15543W        W87072   0.843  19.480   3.783
15544W        W87073   3.789  13.339   3.755
15545W        W87074   2.068  32.454   4.187
15546W        W87075   1.811   2.425   2.202
15547W        W87076  42.700  44.719   4.209
15548W        W87077  35.999  34.113  11.619
15549W        W87078   2.333   6.300  14.349
15550W        W87079  29.106  32.850  11.629
15551W        W87080  14.271   5.802   1.775
15552W        W87081  16.568  15.832   2.802
15553W        W87082  42.999  21.158   3.170
15554W        W87083  19.139  30.087   3.425
15555W        W87084  34.511  33.571  13.936
15556W        W87085   9.143  13.403  13.960
15557W        W87086  21.075  34.680   4.587
15558W        W87087  12.075  33.185  13.570
15559W        W87088  33.624  44.280  10.594
15560W        W87089  29.621  43.023   3.539
15561W        W87090  26.182   1.596  14.787
15562W        W87091   2.750  40.519  14.158
15563W        W87092  30.441  19.679   2.203
15564W        W87093  33.833   9.670  11.146
15565W        W87094  15.754  30.460   2.289
15566W        W87095  12.334  34.586  13.405
15567W        W87096  15.310  36.367   3.109
15568W        W87097  19.070   6.446  10.717
15569W        W87098  15.847  17.260   0.612
15570W        W87099  30.337  16.636  12.643
15571W        W87100  10.590   3.516   4.537
15572W        W87101   0.900  29.813   1.407
15573W        W87102   9.102  38.078   0.444
15574W        W87103  34.429  16.714  12.352
15575W        W87104  44.855  21.233  11.365
15576W        W87105   3.354  30.154   0.343
15577W        W87106  29.409  43.213  12.050
15578W        W87107  14.531   0.953  10.558
15579W        W87108  38.401  40.289  12.864
15580W        W87109  35.918  20.894  12.016
15581W        W87110  11.447  26.022   0.730
15582W        W87111  23.669   9.247  14.422
15583W        W87112  27.076  26.932  11.072
15584W        W87113   3.338  27.736  12.482
15585W        W87114  23.674  15.743   2.828
15586W        W87115   0.014  32.439  12.100
15587W        W87116  20.657  21.456  13.988
15588W        W87117  35.119   5.028   4.205
15589W        W87118  35.298  11.162  13.889
15590W        W87119   5.348   2.293  12.453
15591W        W87120  24.908  18.326   4.655
15592W        W87121  36.396  42.030   1.846
15593W        W87122  22.597   4.900  12.379
15594W        W87123  44.273  12.055  12.471
15595W        W87124  38.958  37.569   0.993
15596W        W87125   7.193  24.945   3.109
15597W        W87126   4.576  28.404   4.815
15598W        W87127  24.202  33.415  12.383
15599W        W87128   1.482  22.062   0.489
15600W        W87129  16.815  43.019   3.061
15601W        W87130  15.514   6.526  13.578
15602W        W87131  20.476  38.923  13.284
15603W        W87132  27.731  17.084  10.670
15604W        W87133  36.612  35.498  13.963
15605W        W87134  14.139  26.896  11.196
15606W        W87135  39.089   4.288   0.351
15607W        W87136  26.282   5.867  11.840
15608W        W87137  22.087  15.276   4.060
15609W        W87138  14.601  29.315   2.031
15610W        W87139  31.070  34.988  14.830
15611W        W87140   3.658   9.360   4.565
15612W        W87141  31.846  13.069  14.526
15613W        W87142  43.993   8.705  11.586
15614W        W87143  21.153  19.542  10.308
15615W        W87144   7.171  43.479   0.475
15616W        W87145   3.868  40.024   2.701
15617W        W87146  22.595   4.367  12.557
15618W        W87147   7.878   3.115  11.475
15619W        W87148  30.661   0.727  12.513
15620W        W87149  29.597  17.702   0.410
15621W        W87150   6.183  22.243  13.868
15622W        W87151  37.588  32.055   0.183
15623W        W87152  36.913  10.448   2.885
15624W        W87153  29.951  41.534  11.056
15625W        W87154   0.522   6.306   0.878
15626W        W87155   0.786   7.387   3.373
15627W        W87156  17.604  31.423   1.741
15628W        W87157  39.978  15.157  11.017
15629W        W87158  22.069  14.592   3.487
15630W        W87159   3.349  43.617  14.944
15631W        W87160   2.454  11.290  12.333
15632W        W87161  38.617   0.962   3.108
15633W        W87162   2.350  29.360   0.979
15634W        W87163  37.393   1.544  12.643
15635W        W87164  23.205  27.292  14.363
15636W        W87165  33.623  12.124   0.315
15637W        W87166   4.915  40.384   2.462
15638W        W87167  21.404  13.112  14.073
15639W        W87168  19.021  44.885   4.582
15640W        W87169  10.801  11.330  12.323
15641W        W87170  10.120  44.010   4.095
15642W        W87171   4.434   5.969  13.985
15643W        W87172   2.080  20.199  13.844
15644W        W87173  18.070  17.152  11.501
15645W        W87174   2.674   2.474  10.421
15646W        W87175   8.418  27.380  12.517
15647W        W87176  16.871  22.242   5.554
15648W        W87177  11.278  44.740   3.686
15649W        W87178  11.341   2.435  13.908
15650W        W87179  43.367  35.038  12.856
15651W        W87180  18.679   7.947   1.773
15652W        W87181   0.787  23.515  12.263
15653W        W87182  32.876   4.845  11.918
15654W        W87183   1.307  25.261   0.343
15655W        W87184  35.972  26.171   1.880
15656W        W87185  42.580   4.844  12.190
15657W        W87186  30.586   9.405  12.826
15658W        W87187  31.873   9.900  12.415
15659W        W87188  26.486  24.891   3.403
15660W        W87189  19.678  44.769   4.138
15661W        W87190  25.223   8.387   0.905
15662W        W87191  41.492  29.985   4.128
15663W        W87192  30.861   8.818  11.906
15664W        W87193   9.307  44.358  13.843
15665W        W87194   9.823   5.389   1.945
15666W        W87195   7.179  31.322  13.636
15667W        W87196  42.803  12.821  12.087
15668W        W87197  19.866  19.767  14.814
15669W        W87198  16.293  16.222  14.933
15670W        W87199  39.626  14.556  14.998
15671W        W87200  26.641  24.763  13.819
15672W        W87201  37.885  41.445   2.630
15673W        W87202  28.964  40.601  11.052
15674W        W87203   6.420   9.792   3.585
15675W        W87204  17.658  17.591  14.584
15676W        W87205  42.953  39.984   3.408
15677W        W87206  19.312  40.475   0.298
15678W        W87207  14.574  32.957   4.246
15679W        W87208  29.445  13.196   4.053
15680W        W87209  30.710  25.008   1.878
15681W        W87210  39.810  30.152   0.708
15682W        W87211  17.777   5.547  11.648
15683W        W87212  29.604   0.969   4.726
15684W        W87213  16.289  43.119  11.904
15685W        W87214  36.331  12.694  14.774
15686W        W87215  22.270   2.668   4.166
15687W        W87216  34.935  30.548   0.327
15688W        W87217  24.209   9.298   3.688
15689W        W87218  29.172  42.466   1.807
15690W        W87219   7.008   1.341   0.316
15691W        W87220   2.494  35.453   0.269
15692W        W87221   8.239   7.406  14.830
15693W        W87222  19.120   3.927   2.281
15694W        W87223  42.872  41.095   3.205
15695W        W87224  36.052  20.128   2.415
15696W        W87225  38.242  39.485   4.245
15697W        W87226   1.441  37.480   3.892
15698W        W87227  30.967  39.061   2.420
15699W        W87228  20.481   5.306   2.163
15700W        W87229  44.214   1.274  11.167
15701W        W87230   3.450  10.091   0.795
15702W        W87231  23.714   8.866  12.050
15703W        W87232  44.035  30.050  14.918
15704W        W87233  16.365  29.851  14.358
15705W        W87234  43.689   0.852   3.792
15706W        W87235  30.400  18.495   3.154
15707W        W87236   8.818  28.381  14.411
15708W        W87237  25.124  14.244   3.444
15709W        W87238  33.489  26.592   2.746
15710W        W87239   9.626   8.274  13.966
15711W        W87240  35.472  18.078  12.417
15712W        W87241  24.322  39.269   3.787
15713W        W87242  16.191  25.638   2.762
15714W        W87243   5.223  13.690   0.403
15715W        W87244  36.931  27.144  13.996
15716W        W87245   1.302  38.810   1.910
15717W        W87246  13.267  37.108   1.169
15718W        W87247   3.754  34.509  11.892
15719W        W87248  44.983  43.650  13.862
15720W        W87249  41.309  24.602   4.373
15721W        W87250  16.602  38.190   2.833
15722W        W87251  27.482   7.524   0.822
15723W        W87252  10.783  35.869   3.685
15724W        W87253  14.669   8.752   2.782
15725W        W87254   4.918  23.288   3.589
15726W        W87255   1.035  29.566   5.297
15727W        W87256   4.943  38.061  10.763
15728W        W87257  36.443  24.952  12.888
15729W        W87258  14.927  10.168   3.642
15730W        W87259   0.817  40.525   2.218
15731W        W87260  17.174  25.141  10.759
15732W        W87261  21.047  11.799   5.079
15733W        W87262  35.549  15.297   0.458
15734W        W87263  18.012  31.287   9.929
15735W        W87264   0.257  18.464  11.506
15736W        W87265  27.158   0.920   4.078
15737W        W87266  16.376  14.199   4.178
15738W        W87267  17.467   9.548   4.676
15739W        W87268  24.050  43.909   3.668
15740W        W87269  21.097   1.347  12.677
15741W        W87270  42.852  42.975  11.871
15742W        W87271   1.208  24.759   0.319
15743W        W87272  18.159   8.529  14.956
15744W        W87273  16.218   4.965  11.758
15745W        W87274  29.665   4.951   2.120
15746W        W87275   0.364  28.016  12.115
15747W        W87276  33.571  15.732   1.218
15748W        W87277  18.775  33.883   4.583
15749W        W87278  36.940  15.592  12.061
15750W        W87279  30.151  22.089   0.791
15751W        W87280   1.974  25.489  12.812
15752W        W87281  30.119  13.843  14.864
15753W        W87282   5.665  16.069   0.312
15754W        W87283  36.623  44.958   2.224
15755W        W87284  31.452  39.542   2.282
15756W        W87285  41.443   4.193  11.982
15757W        W87286  27.231   5.293  13.652
15758W        W87287  14.845  27.091  14.947
15759W        W87288  15.993   0.175  14.687
15760W        W87289  39.616  11.851  14.965
15761W        W87290  39.033  11.576   1.361
15762W        W87291   7.702  34.415   4.310
15763W        W87292   9.837  39.882   2.284
15764W        W87293  23.073  35.682  13.929
15765W        W87294  41.818  17.153  14.066
15766W        W87295  33.039   0.414  10.962
15767W        W87296  23.227  28.862  11.033
15768W        W87297  14.162  38.406  10.720
15769W        W87298  16.395  44.034  12.021
15770W        W87299  24.760  26.625  12.570
15771W        W87300   6.293   0.552   3.227
15772W        W87301  27.085  37.071  13.958
15773W        W87302   5.246  25.055  14.936
15774W        W87303  14.056  28.108  13.031
15775W        W87304  41.817   4.421  14.519
15776W        W87305  13.636   1.379   4.093
15777W        W87306  40.435   7.753   0.093
15778W        W87307  29.565   1.717   1.195
15779W        W87308  40.005  12.709  12.686
15780W        W87309  42.808  42.062  13.995
15781W        W87310  40.961   4.254  14.930
15782W        W87311  30.798  25.610   0.742
15783W        W87312  10.081  27.875  11.116
15784W        W87313   1.941  38.589   0.825
15785W        W87314  35.977  18.005  13.607
15786W        W87315   6.955  15.381   0.390
15787W        W87316  18.779  39.534   4.127
15788W        W87317  44.786  26.235   1.853
15789W        W87318  40.134  28.643  11.127
15790W        W87319   8.768  17.130  14.286
15791W        W87320   0.658  12.180   3.523
15792W        W87321  14.745  35.524   3.742
15793W        W87322   1.435  40.451  13.307
15794W        W87323   4.843  19.046  11.211
15795W        W87324   8.194   6.044  12.132
15796W        W87325   7.381   7.147   4.215
15797W        W87326  14.854   1.373  13.448
15798W        W87327   5.434   5.307   3.257
15799W        W87328  21.210  29.037  11.052
15800W        W87329  34.594  31.411   3.094
15801W        W87330  36.341  15.703   3.694
15802W        W87331   2.694  44.206   0.941
15803W        W87332  13.242  10.658   1.325
15804W        W87333  13.650  35.010   4.562
15805W        W87334   0.784  40.819  14.076
15806W        W87335  26.063  38.124   2.341
15807W        W87336  27.912  34.502   3.706
15808W        W87337  24.900  34.138  11.220
15809W        W87338  11.569  39.868  11.061
15810W        W87339  21.786  14.757   4.028
15811W        W87340  21.148  41.468  10.273
15812W        W87341  29.587   8.054   2.342
15813W        W87342  39.425   1.177   4.382
15814W        W87343  18.340   3.338   2.766
15815W        W87344  10.457  24.672  12.863
15816W        W87345  10.009  34.995  11.603
15817W        W87346  17.307  19.821   4.493
15818W        W87347  40.472  17.756  12.619
15819W        W87348  44.312  15.249   1.960
15820W        W87349   9.912  17.862  14.040
15821W        W87350  39.348  17.506  10.658
15822W        W87351  11.100  38.403  12.859
15823W        W87352  40.589  23.695   3.149
15824W        W87353  18.675  37.141   1.428
15825W        W87354  21.811  19.501   1.296
15826W        W87355  13.365  40.555   4.229
15827W        W87356  13.071  44.369  13.066
15828W        W87357  18.830  31.464   3.124
15829W        W87358   1.515  41.062   2.051
15830W        W87359   4.773  11.399  14.843
15831W        W87360  23.546  42.800   0.557
15832W        W87361  24.379  40.140  12.119
15833W        W87362  22.446  10.149  10.687
15834W        W87363  41.468  44.293   4.598
15835W        W87364  15.650  18.601  14.311
15836W        W87365  36.145  29.061  14.291
15837W        W87366  33.501  27.988   2.393
15838W        W87367  19.250  26.466   3.046
15839W        W87368  33.416   0.828   0.843
15840W        W87369  28.013   7.786  14.498
15841W        W87370   3.410  11.453  11.554
15842W        W87371  12.724   5.911   0.452
15843W        W87372  44.267  23.843   1.198
15844W        W87373   2.724  26.539   3.175
15845W        W87374  31.375  13.365  14.544
15846W        W87375  37.073  34.918  11.994
15847W        W87376  34.844   3.428  14.664
15848W        W87377  40.047   7.139   1.208
15849W        W87378  31.767  14.650   0.789
15850W        W87379  33.450   2.001   4.765
15851W        W87380  18.323  42.992  11.203
15852W        W87381   1.845   7.665   3.184
15853W        W87382  19.301   1.686   0.408
15854W        W87383  11.537   0.561   4.048
15855W        W87384  32.105  29.405  13.918
15856W        W87385  18.516  39.902   2.872
15857W        W87386  23.417  41.495   2.791
15858W        W87387  34.323  23.574  10.703
15859W        W87388  13.593  19.486  11.722
15860W        W87389  17.109  13.762  12.552
15861W        W87390   0.242   8.220   1.385
15862W        W87391  31.959  43.474  14.815
15863W        W87392   8.112   9.894  12.986
15864W        W87393  21.582   3.536   4.979
15865W        W87394  36.594   4.002  14.793
15866W        W87395   9.659  24.690  12.615
15867W        W87396  43.094  33.051   2.608
15868W        W87397  42.672   6.114   3.298
15869W        W87398  42.514   2.693   3.685
15870W        W87399   5.131  17.815   0.185
15871W        W87400   6.769  40.397  13.838
15872W        W87401   8.588  14.704  12.589
15873W        W87402  32.902  23.716  13.958
15874W        W87403  25.439  43.784  13.948
15875W        W87404   8.877  29.180   0.589
15876W        W87405  26.215  44.810  14.310
15877W        W87406   3.512   2.300  12.897
15878W        W87407   8.652  40.836  10.542
15879W        W87408  44.270  13.666  13.144
15880W        W87409  39.752   3.482   3.832
15881W        W87410  41.597  16.364   4.654
15882W        W87411   7.268  11.267  11.796
15883W        W87412  33.244  43.558  12.998
15884W        W87413  25.619   4.628   3.151
15885W        W87414   3.416   7.218  13.973
15886W        W87415  34.467   3.442   3.717
15887W        W87416  34.740  28.684   4.528
15888W        W87417  12.771   1.059  13.119
15889W        W87418  25.993  34.471   3.317
15890W        W87419  12.043  36.445  13.947
15891W        W87420  25.700  15.302   2.635
15892W        W87421   5.953  22.186   4.402
15893W        W87422   1.373  14.447   1.681
15894W        W87423   9.404  37.337   3.141
15895W        W87424   2.792   6.149   4.723
15896W        W87425  44.937   2.880  14.418
15897W        W87426  24.168   9.006  14.377
15898W        W87427  37.553  44.489   3.182
15899W        W87428   4.276  12.390   2.325
15900W        W87429  43.970  37.301   3.712
15901W        W87430  11.454  39.596   0.693
15902W        W87431  22.024   4.921   3.627
15903W        W87432  35.850  18.265   3.653
15904W        W87433  19.497  10.042   0.653
15905W        W87434   9.420   3.816  13.152
15906W        W87435  29.403  29.483   2.838
15907W        W87436   9.017  10.384   9.853
15908W        W87437  21.397  20.613   3.557
15909W        W87438  18.673  10.158   0.441
15910W        W87439  14.135   8.236   3.931
15911W        W87440  18.015  26.102   3.351
15912W        W87441  15.567  31.650  10.514
15913W        W87442  38.377   3.337  10.664
15914W        W87443  35.406   1.976   0.392
15915W        W87444   1.272  23.227  13.836
15916W        W87445  16.721  34.633   3.839
15917W        W87446  29.133  39.882  14.310
15918W        W87447   8.012  15.583  13.032
15919W        W87448   3.389   3.720  14.470
15920W        W87449   2.930  24.598  11.559
15921W        W87450  38.770  18.008   0.282
15922W        W87451  34.723   9.742   2.322
15923W        W87452  26.714   3.813   3.298
15924W        W87453  23.224  26.318   4.938
15925W        W87454  27.023  37.701  11.147
15926W        W87455  24.467  14.145  14.520
15927W        W87456   8.216  44.910  13.467
15928W        W87457  10.149  33.335  14.692
15929W        W87458  22.250   6.947   2.809
15930W        W87459  15.392  10.565  14.370
15931W        W87460  28.672  30.434  13.955
15932W        W87461  21.552   6.747   0.901
15933W        W87462  31.682   9.993  11.922
15934W        W87463  44.346  35.043  13.766
15935W        W87464  30.716  14.291   1.598
15936W        W87465  33.592   1.801   0.756
15937W        W87466  43.987  27.283  10.619
15938W        W87467  23.730   8.091   4.672
15939W        W87468  41.303  11.359   3.647
15940W        W87469  32.873  20.461  11.365
15941W        W87470  17.040  14.905   3.256
15942W        W87471  28.381   4.336  12.785
15943W        W87472   5.095  26.989  12.064
15944W        W87473  34.643  35.204   1.149
15945W        W87474  21.652   0.054  14.080
15946W        W87475  28.441  39.817  13.297
15947W        W87476  13.983  31.457   4.247
15948W        W87477   9.188  41.604  10.362
15949W        W87478  37.492  18.246  13.426
15950W        W87479  30.205  26.267  14.853
15951W        W87480  18.551  13.714  11.520
15952W        W87481  14.136   2.236  12.420
15953W        W87482  38.412  34.389   4.612
15954W        W87483  15.299  40.064  14.727
15955W        W87484  36.120   2.018  13.439
15956W        W87485  27.527  36.852  13.793
15957W        W87486  36.389  16.585   0.851
15958W        W87487  35.762  24.164   3.144
15959W        W87488  11.249  30.378   3.291
15960W        W87489  41.913  44.195   2.826
15961W        W87490  42.972  22.277   0.831
15962W        W87491  37.061   0.297  14.420
15963W        W87492  35.128   0.363   2.151
15964W        W87493  16.301  44.984   1.756
15965W        W87494  41.090  24.995   1.831
15966W        W87495  13.315  28.721   3.127
15967W        W87496  31.403   9.860   2.613
15968W        W87497  34.952  22.482  14.945
15969W        W87498  31.609   5.175   2.323
15970W        W87499  43.405   5.218  14.462
15971W        W87500  11.153  22.705  12.746
15972W        W87501   7.803  41.219   4.184
15973W        W87502  42.694   5.229  11.206
15974W        W87503   0.821  10.069   1.900
15975W        W87504  17.061  36.685   3.555
15976W        W87505  41.831  38.922   3.246
15977W        W87506  34.153   2.215   4.336
15978W        W87507  42.616   2.986  14.341
15979W        W87508  19.647   5.979  13.873
15980W        W87509  19.584  10.320   1.071
15981W        W87510   8.815  16.847  14.916
15982W        W87511  10.244  18.930   4.185
15983W        W87512  17.301  41.576   4.217
15984W        W87513  19.077   9.581   1.430
15985W        W87514  44.041  43.901   2.163
15986W        W87515   6.856  34.377  10.524
15987W        W87516  26.384  22.914   3.404
15988W        W87517  23.440  31.991   4.663
15989W        W87518  34.268  17.801  12.025
15990W        W87519  22.588   9.234  14.756
15991W        W87520  20.943  27.253  13.773
15992W        W87521  10.911   4.144  13.499
15993W        W87522  14.174  32.884   0.371
15994W        W87523  38.045  40.786   0.779
15995W        W87524  30.898  32.904  13.905
15996W        W87525   3.496  26.075   4.098
15997W        W87526  30.654  23.137  12.510
15998W        W87527  23.854  16.441   3.742
15999W        W87528   5.637  21.970  13.327
16000W        W87529  12.813  43.502  13.504
16001W        W87530  40.935  28.741   4.154
16002W        W87531   4.368   9.181   0.001
16003W        W87532  33.282   0.479   1.798
16004W        W87533   4.246  34.880   0.060
16005W        W87534  33.492   3.327  12.631
16006W        W87535  39.573  26.142  12.406
16007W        W87536  38.344  31.165  12.466
16008W        W87537  38.754   0.362  14.809
16009W        W87538   2.012  20.426   2.274
16010W        W87539  35.723   2.655  14.904
16011W        W87540  28.131  27.063  11.641
16012W        W87541  38.683  36.086   4.314
16013W        W87542  16.306   6.722   5.176
16014W        W87543  20.688  44.116  13.882
16015W        W87544   1.961  14.368  10.632
16016W        W87545  25.656  22.965   1.403
16017W        W87546  37.142   7.667  11.683
16018W        W87547  41.021   4.882   0.761
16019W        W87548  38.540  33.582  10.809
16020W        W87549  39.860   9.299   0.253
16021W        W87550  31.965  33.677   1.168
16022W        W87551   2.937   8.318  11.225
16023W        W87552  40.443   6.164  11.234
16024W        W87553  29.123  40.990   4.533
16025W        W87554  24.596  37.660  14.651
16026W        W87555  41.602  40.007   2.255
16027W        W87556  40.329  33.635  11.584
16028W        W87557  36.462  11.346   2.259
16029W        W87558   5.373  21.062   4.183
16030W        W87559  18.088  14.231  13.450
16031W        W87560   3.266  29.598  14.492
16032W        W87561   2.678   5.271  13.331
16033W        W87562  28.411  40.960   1.262
16034W        W87563  28.272  37.123  10.965
16035W        W87564  12.824  14.750  13.858
16036W        W87565   6.898  21.989   3.162
16037W        W87566  14.142  33.241  12.795
16038W        W87567  26.088  24.566   4.480
16039W        W87568  14.326  37.188   9.977
16040W        W87569  37.504   6.275  10.784
16041W        W87570   9.059  43.520   3.221
16042W        W87571  13.798  30.466  14.310
16043W        W87572  20.698  41.220   3.607
16044W        W87573  23.327  37.807  14.769
16045W        W87574   4.369   8.923   1.602
16046W        W87575  16.309  35.099   1.287
16047W        W87576  33.396  14.002  14.060
16048W        W87577  40.732  44.463  13.299
16049W        W87578  19.076  18.173   0.753
16050W        W87579   2.466  37.500   3.673
16051W        W87580  44.492  14.114  13.341
16052W        W87581  20.032  36.446   3.809
16053W        W87582  36.117   0.805  12.410
16054W        W87583  20.821  25.724   4.700
16055W        W87584  44.971  32.413   3.736
16056W        W87585  33.593  21.337   1.919
16057W        W87586   0.452  33.074   3.661
16058W        W87587   1.919  41.939   0.785
16059W        W87588   0.602  43.546   2.815
16060W        W87589   3.824  20.129   1.415
16061W        W87590  38.032  16.708   1.380
16062W        W87591  20.982  36.444   1.651
16063W        W87592  16.643  12.789   4.430
16064W        W87593  44.493   9.581   1.923
16065W        W87594  14.560  16.271  12.356
16066W        W87595  23.547  17.200   3.207
16067W        W87596  16.744  41.840   3.654
16068W        W87597   1.516  34.663  11.004
16069W        W87598  11.790  44.830   3.668
16070W        W87599  10.202  22.050  13.959
16071W        W87600  30.054  42.461   1.236
16072W        W87601  29.831  13.296  14.859
16073W        W87602   5.469   1.757  14.291
16074W        W87603  21.349   5.112  12.514
16075W        W87604  37.788  30.453  10.409
16076W        W87605  29.004  10.100  11.140
16077W        W87606  24.768  26.938   2.410
16078W        W87607  42.027  16.237   3.382
16079W        W87608  33.288  28.190  11.541
16080W        W87609  14.574  26.404   0.212
16081W        W87610  19.632   2.891   1.293
16082W        W87611  13.584  37.030  14.286
16083W        W87612  31.431  13.578  10.889
16084W        W87613   1.885  15.143  11.121
16085W        W87614   6.507   4.399   4.081
16086W        W87615  27.232  41.516  14.256
16087W        W87616  33.207  41.716   0.675
16088W        W87617  35.005  25.274   0.040
16089W        W87618  33.090  27.908  14.932
16090W        W87619  29.700  43.814   4.184
16091W        W87620   5.970  23.642   3.373
16092W        W87621  37.808  35.521   4.694
16093W        W87622  23.607  34.153   1.731
16094W        W87623  39.358   4.628   1.683
16095W        W87624   7.790  28.904  12.009
16096W        W87625  39.743  44.772   1.464
16097W        W87626   0.396  19.623   1.235
16098W        W87627   1.769   8.780   5.025
16099W        W87628   7.066   5.180   2.725
16100W        W87629  29.902   9.261   3.162
16101W        W87630  37.570  20.523  12.397
16102W        W87631  10.826  27.950  12.762
16103W        W87632   1.010  24.156  14.106
16104W        W87633  16.228  15.837  13.013
16105W        W87634   5.181  10.770   1.355
16106W        W87635   2.024  34.503  12.659
16107W        W87636  10.587  17.890   4.747
16108W        W87637  27.372  31.726  10.930
16109W        W87638  27.416  14.234  12.982
16110W        W87639  15.197  21.610  12.410
16111W        W87640   9.795  26.218  12.608
16112W        W87641  38.636  27.077  14.707
16113W        W87642  29.444  33.890  14.476
16114W        W87643   7.116  15.341  13.906
16115W        W87644  40.409  44.720   3.835
16116W        W87645   1.972  33.870  12.536
16117W        W87646  39.821  18.419  13.355
16118W        W87647  24.502  44.392   0.636
16119W        W87648  37.111  13.895   4.519
16120W        W87649  23.320  29.757  10.740
16121W        W87650  39.055  26.798   3.457
16122W        W87651   4.319  42.159  11.584
16123W        W87652  11.248  22.136  14.004
16124W        W87653  44.370  38.529  14.324
16125W        W87654  22.539  20.192   3.598
16126W        W87655  13.408  42.693   5.200
16127W        W87656   9.838   3.130   0.724
16128W        W87657  12.385   0.932   3.620
16129W        W87658  31.059  29.103  12.966
16130W        W87659  16.463  10.873   5.007
16131W        W87660  40.653  10.883   2.325
16132W        W87661  28.944   5.777   4.035
16133W        W87662  10.574  10.412   1.842
16134W        W87663  29.614  21.754   4.304
16135W        W87664  15.201  20.278   3.669
16136W        W87665  31.502  38.092  13.296
16137W        W87666  32.572  32.772  12.027
16138W        W87667  15.618  36.425   4.489
16139W        W87668  30.335  35.445   4.118
16140W        W87669  18.586   1.731  14.711
16141W        W87670  33.314   2.272  11.959
16142W        W87671  10.450  44.971  14.967
16143W        W87672  11.727   1.942   1.221
16144W        W87673  35.027  11.589   4.944
16145W        W87674  40.293  17.755  14.523
16146W        W87675  15.156  36.868  11.699
16147W        W87676   2.321  13.811   5.096
16148W        W87677  25.849  20.606   2.935
16149W        W87678  34.535   2.450  13.972
16150W        W87679  16.849  23.653  11.563
16151W        W87680  13.843   4.329  12.903
16152W        W87681   9.220  27.578   1.653
16153W        W87682  40.266  42.097   3.178
16154W        W87683  32.651  35.465   4.724
16155W        W87684   4.992  26.302   1.897
16156W        W87685  13.584   8.487   0.805
16157W        W87686  30.962   9.829   2.884
16158W        W87687   2.886  26.636   5.217
16159W        W87688  11.862   6.740   4.317
16160W        W87689  38.524  38.512  10.841
16161W        W87690  16.058  38.783   0.930
16162W        W87691  13.375  13.041  11.649
16163W        W87692  38.992  44.921  12.134
16164W        W87693   3.709  17.798  12.411
16165W        W87694  28.224  15.664  13.856
16166W        W87695  28.221   2.145  11.359
16167W        W87696  41.814  40.985   4.723
16168W        W87697   8.620  19.764   5.063
16169W        W87698   4.920  32.445   3.341
16170W        W87699  19.673  20.224   1.422
16171W        W87700  14.224  17.604  13.789
16172W        W87701  25.067  15.138  10.695
16173W        W87702  34.383  16.744   0.876
16174W        W87703  38.118  28.842  13.835
16175W        W87704   5.118   6.266  12.069
16176W        W87705  11.225  14.085  12.869
16177W        W87706  41.499  21.573   4.481
16178W        W87707  39.422  23.672   4.739
16179W        W87708   6.551  23.456  11.635
16180W        W87709  20.698  13.650  13.978
16181W        W87710  30.809   6.948   2.284
16182W        W87711  17.176  41.501   2.867
16183W        W87712  36.099  24.383  13.733
16184W        W87713  30.143  12.612   2.249
16185W        W87714  18.829  23.740   4.149
16186W        W87715  36.927  30.446  12.447
16187W        W87716  13.704  23.610   1.073
16188W        W87717  33.326  27.360   3.153
16189W        W87718   6.906  20.743   3.169
16190W        W87719  25.412   9.457   4.221
16191W        W87720  12.718  20.841   4.310
16192W        W87721   7.938  38.195   3.277
16193W        W87722  19.346  16.274  10.682
16194W        W87723  35.329   7.538   1.385
16195W        W87724  18.688  42.595  14.884
16196W        W87725   5.654   2.544   0.448
16197W        W87726  38.948  33.078   0.226
16198W        W87727  14.010  29.573  14.307
16199W        W87728  16.572   7.301   2.722
16200W        W87729  44.955  25.512  10.814
16201W        W87730  38.203   6.280   4.268
16202W        W87731  25.364   3.973  14.082
16203W        W87732   5.670  26.928   2.639
16204W        W87733  20.061   4.271  13.512
16205W        W87734  16.755  41.410  13.071
16206W        W87735  32.668  25.469  13.919
16207W        W87736  18.134  22.797   0.794
16208W        W87737   9.261  16.273  10.645
16209W        W87738  15.475  14.149  14.404
16210W        W87739   5.138  11.866  12.039
16211W        W87740  20.033   3.899  11.889
16212W        W87741  40.341  23.102   0.714
16213W        W87742  16.009  28.950   1.330
16214W        W87743  27.016  10.947  12.081
16215W        W87744  33.004  39.004   0.516
16216W        W87745  26.914  31.887   3.610
16217W        W87746  16.956  30.902  12.192
16218W        W87747   1.184  12.819   0.365
16219W        W87748  20.081  39.840   0.398
16220W        W87749  42.611   3.207   3.650
16221W        W87750  42.001   3.827  10.898
16222W        W87751  31.282  43.525   2.936
16223W        W87752  44.965  20.600  12.072
16224W        W87753  35.790   6.379  12.909
16225W        W87754   5.580  26.619  14.746
16226W        W87755   0.440  34.418   2.611
16227W        W87756  12.528  34.622  11.102
16228W        W87757  23.143  26.331  10.327
16229W        W87758  10.813  16.126  14.562
16230W        W87759  15.391  35.815  14.893
16231W        W87760  33.482   4.293   4.985
16232W        W87761  28.900  37.529  14.310
16233W        W87762  28.560  14.137   0.482
16234W        W87763  35.157  40.557   4.829
16235W        W87764   4.655  29.847  11.468
16236W        W87765   7.252  17.503  12.079
16237W        W87766  14.564  11.560   1.264
16238W        W87767  23.963  29.015   4.093
16239W        W87768   3.048  16.724   2.782
16240W        W87769   3.752  20.113  14.570
16241W        W87770  36.014  35.016   1.226
16242W        W87771  41.071  42.996   2.654
16243W        W87772  43.855  17.170   2.663
16244W        W87773  19.983  14.319   4.934
16245W        W87774  39.084  34.380  14.998
16246W        W87775  38.386  20.032  12.618
16247W        W87776  43.167  40.583  13.372
16248W        W87777  42.912   7.805   0.346
16249W        W87778  26.974  13.798  11.533
16250W        W87779  24.945  25.137   2.828
16251W        W87780  28.188  21.207   4.740
16252W        W87781  18.940   9.735  11.458
16253W        W87782  27.630  11.289  14.989
16254W        W87783  30.327  18.845  13.409
16255W        W87784   1.559   7.160   1.922
16256W        W87785  10.102  18.062  11.881
16257W        W87786  42.900  44.859  10.792
16258W        W87787   4.255  17.298   1.932
16259W        W87788   6.072  25.153   0.433
16260W        W87789   5.054  22.584   4.693
16261W        W87790  18.644  28.021   9.774
16262W        W87791   2.442  35.358  13.445
16263W        W87792  41.448  17.495  13.482
16264W        W87793  27.383  39.416  13.957
16265W        W87794  25.137  22.126  11.164
16266W        W87795   3.888  27.415   4.340
16267W        W87796  21.414   7.508  12.614
16268W        W87797   1.856   3.362   0.295
16269W        W87798  11.939   6.700   2.892
16270W        W87799  38.953  39.858   0.355
16271W        W87800  28.461   6.581   2.421
16272W        W87801   3.024  10.207  12.533
16273W        W87802  40.235  23.131   1.737
16274W        W87803  22.975  30.589   0.389
16275W        W87804  19.095  39.285   3.631
16276W        W87805  39.808  18.471  10.771
16277W        W87806  42.744  24.583   2.343
16278W        W87807   2.325  43.748  11.136
16279W        W87808  19.811  35.354   3.872
16280W        W87809  23.454  17.805   1.643
16281W        W87810  44.456  22.235  10.931
16282W        W87811  10.877   6.060  12.282
16283W        W87812  17.191   3.931  11.338
16284W        W87813  26.981  36.129   0.488
16285W        W87814  12.315  36.409   2.130
16286W        W87815   6.695  38.302  13.041
16287W        W87816  43.258  34.324   2.003
16288W        W87817   3.777  43.876  14.862
16289W        W87818  29.809  31.445   0.802
16290W        W87819   4.174  19.870  14.777
16291W        W87820   4.288  31.892  12.410
16292W        W87821   7.428  21.529  11.116
16293W        W87822  36.139  42.401  13.851
16294W        W87823  24.228   2.944   2.850
16295W        W87824  34.349  27.768   2.598
16296W        W87825  11.168  11.737  12.391
16297W        W87826  19.371   9.822   1.790
16298W        W87827  34.833  32.707   4.057
16299W        W87828  26.821   0.417   0.371
16300W        W87829  28.789  10.867  12.103
16301W        W87830   4.267  34.395  14.869
16302W        W87831  24.642  29.569  11.587
16303W        W87832  24.533  15.617  11.193
16304W        W87833  39.608  29.107   1.320
16305W        W87834  19.729   9.608  12.016
16306W        W87835  38.380   2.305   1.004
16307W        W87836  22.064  33.007   1.828
16308W        W87837   1.193  31.835  10.420
16309W        W87838  34.402  35.774  14.152
16310W        W87839  19.704  34.488  10.969
16311W        W87840  20.389   5.686  13.411
16312W        W87841  23.777   5.312  13.948
16313W        W87842  21.578   0.572   1.698
16314W        W87843  18.052  27.725   0.478
16315W        W87844  12.347  37.581   2.595
16316W        W87845  10.225  40.609  14.015
16317W        W87846  39.491  10.155   2.292
16318W        W87847  44.502  28.802   2.317
16319W        W87848  24.510  24.963   1.407
16320W        W87849  25.614  23.718   4.411
16321W        W87850  39.783  20.421  13.923
16322W        W87851  20.791  13.534  12.636
16323W        W87852  28.291  41.596   0.448
16324W        W87853  22.554  14.712  12.311
16325W        W87854  37.610  41.558  10.930
16326W        W87855  30.067  31.641   4.202
16327W        W87856  37.932  15.095  13.684
16328W        W87857  43.491  16.184  12.601
16329W        W87858   7.240  20.375   0.934
16330W        W87859  27.231  39.113  14.510
16331W        W87860  33.639   0.902  11.662
16332W        W87861   8.286  10.671   0.762
16333W        W87862  28.551  16.864   3.517
16334W        W87863  17.614  29.729  14.041
16335W        W87864  26.012  22.105   0.862
16336W        W87865   1.563   1.201   3.337
16337W        W87866  38.602   9.628  12.857
16338W        W87867  19.741   4.637  10.295
16339W        W87868  19.121   3.709   1.221
16340W        W87869  19.191  41.827  11.345
16341W        W87870  37.046  27.459   4.460
16342W        W87871  38.856  10.349   4.570
16343W        W87872  14.740  11.679  14.073
16344W        W87873  33.700  35.149   1.380
16345W        W87874   5.883  11.557   2.293
16346W        W87875  13.124  11.666   1.385
16347W        W87876  42.583  14.753   2.486
16348W        W87877  29.511   9.364   2.314
16349W        W87878   7.758   2.758  14.483
16350W        W87879  32.551  32.688   0.255
16351W        W87880  20.954  31.287   1.035
16352W        W87881  13.696  22.161  14.585
16353W        W87882  10.799   4.311   0.469
16354W        W87883  26.969  30.173  12.077
16355W        W87884   2.908  29.585   2.933
16356W        W87885  29.873   2.448   4.039
16357W        W87886  15.568   6.408  11.983
16358W        W87887  35.370  20.023  14.511
16359W        W87888   6.349  18.479   0.373
16360W        W87889  32.882   6.890   3.084
16361W        W87890  16.340  31.924  12.561
16362W        W87891   5.308  44.358   4.609
16363W        W87892  20.294   6.424   1.818
16364W        W87893   1.982  27.173   0.743
16365W        W87894  14.722  25.622   5.046
16366W        W87895   7.021  41.454  13.896
16367W        W87896  43.297   2.410   4.602
16368W        W87897  38.945   4.712  13.236
16369W        W87898  32.452  44.091   2.294
16370W        W87899   8.268   3.184  11.123
16371W        W87900  41.977  42.802  11.917
16372W        W87901  41.954  12.810  14.224
16373W        W87902  11.320   9.858   4.088
16374W        W87903  32.698  36.399  12.540
16375W        W87904  18.772  41.436   3.105
16376W        W87905   1.390  14.395  11.121
16377W        W87906  32.948  38.734  12.871
16378W        W87907   7.224   8.162   4.128
16379W        W87908  18.396  12.521   4.081
16380W        W87909  14.942  32.566   4.359
16381W        W87910   1.508  43.042  14.314
16382W        W87911  44.171  37.899  14.784
16383W        W87912  39.409  35.672  14.858
16384W        W87913   1.813  27.472  13.565
16385W        W87914  40.399  13.290   1.955
16386W        W87915  41.350  36.352  10.643
16387W        W87916  11.337  25.477   3.206
16388W        W87917  33.249  19.812  10.219
16389W        W87918  22.766  16.778   1.041
16390W        W87919  23.188  31.084  14.728
16391W        W87920  33.234  28.425  13.660
16392W        W87921   8.220  43.608   4.070
16393W        W87922  23.593  31.968  11.984
16394W        W87923  22.669  42.281  12.610
16395W        W87924  15.327  32.038   2.846
16396W        W87925  41.933   0.883  10.765
16397W        W87926   9.082  23.079  14.968
16398W        W87927  36.496  36.111   2.801
16399W        W87928  29.195  39.127   0.786
16400W        W87929  26.899  21.254  14.361
16401W        W87930  15.191  43.100   1.456
16402W        W87931  38.897  18.281  10.782
16403W        W87932  40.005   8.265   3.390
16404W        W87933  25.701  28.455  13.858
16405W        W87934  23.513  41.746  14.044
16406W        W87935  21.213  15.596  13.125
16407W        W87936  11.691   5.516   0.561
16408W        W87937   6.340  27.697  11.647
16409W        W87938  42.976  44.994   2.383
16410W        W87939  18.163  37.063  14.896
16411W        W87940  36.780   6.184   4.669
16412W        W87941  10.481  28.348   4.487
16413W        W87942   3.725  43.401   4.614
16414W        W87943  41.791  27.495  11.221
16415W        W87944  11.621  35.525   2.719
16416W        W87945  10.194  23.656   0.473
16417W        W87946  33.066   3.290  13.390
16418W        W87947   8.652  19.115  10.732
16419W        W87948  38.486  16.851   1.204
16420W        W87949   5.307  38.992  13.609
16421W        W87950  42.022  31.575  13.955
16422W        W87951  36.118  14.325   1.866
16423W        W87952  12.953  44.969   0.764
16424W        W87953   4.416  35.639  11.627
16425W        W87954  36.442  36.328   4.343
16426W        W87955  11.143   5.715  12.032
16427W        W87956   1.400   2.372  13.462
16428W        W87957  19.475  21.091  13.321
16429W        W87958  43.364  42.896   0.807
16430W        W87959   1.363  15.147  14.929
16431W        W87960   7.067   4.436  10.712
16432W        W87961  39.936  19.100  13.943
16433W        W87962  29.781   9.790   2.486
16434W        W87963   7.894  44.031   0.849
16435W        W87964  14.343  29.695   1.829
16436W        W87965   3.727  13.875   1.737
16437W        W87966  44.088  30.168   2.690
16438W        W87967  42.751   0.274  13.822
16439W        W87968   8.437  15.531   2.307
16440W        W87969  19.633  28.893   4.080
16441W        W87970  20.778   9.030  10.740
16442W        W87971  17.354  31.862  14.914
16443W        W87972  43.969   2.521  13.767
16444W        W87973  23.056   5.745  14.752
16445W        W87974  30.407  40.858  12.032
16446W        W87975   4.460  33.047   0.824
16447W        W87976   7.434   8.482  13.589
16448W        W87977  36.858  16.775   2.672
16449W        W87978  37.658  31.129   5.011
16450W        W87979  36.492  41.610   0.319
16451W        W87980  28.849  14.277  11.448
16452W        W87981  23.590  42.580  12.968
16453W        W87982  34.800  27.984   2.702
16454W        W87983  16.780  35.143  13.405
16455W        W87984   6.169  20.257  14.013
16456W        W87985   3.322   0.350  10.710
16457W        W87986  32.012  15.216   1.803
16458W        W87987  38.032  11.399  11.529
16459W        W87988  33.785  31.673   2.861
16460W        W87989  36.539  36.367  10.427
16461W        W87990  16.321  25.727  10.816
16462W        W87991  22.650  13.197   4.397
16463W        W87992  25.737  34.215  10.663
16464W        W87993  27.092  15.891  10.245
16465W        W87994   9.597   3.261   2.891
16466W        W87995  15.774   5.801   1.918
16467W        W87996  23.093  23.250   3.779
16468W        W87997   1.177  30.543  13.428
16469W        W87998  39.433  16.098   1.224
16470W        W87999  18.056  40.922   1.153
16471W        W88000   5.660  39.763   3.387
16472W        W88001  36.389  16.532   1.691
16473W        W88002   1.203  29.646   2.356
16474W        W88003  29.662  31.488   3.658
16475W        W88004   2.412   5.125  11.590
16476W        W88005  22.140   6.979  13.063
16477W        W88006  24.264  39.987  14.079
16478W        W88007  28.899  21.071  14.016
16479W        W88008  30.519   5.669  13.388
16480W        W88009  18.545  42.247   0.257
16481W        W88010  39.652  28.475  13.905
16482W        W88011   5.348  16.616  11.533
16483W        W88012  34.536  41.624   4.232
16484W        W88013  17.093  29.244   0.442
16485W        W88014  16.575  12.919  10.444
16486W        W88015  32.570  11.403   1.348
16487W        W88016   9.803  28.206  12.020
16488W        W88017  39.015  22.555   4.481
16489W        W88018  37.557  28.596   3.177
16490W        W88019   1.915   5.626   4.495
16491W        W88020   1.185  39.928  14.405
16492W        W88021   1.177  24.569  11.568
16493W        W88022  30.971  35.763   3.257
16494W        W88023  11.666  30.773   0.323
16495W        W88024  12.415   6.401   1.757
16496W        W88025   5.227  42.916  11.939
16497W        W88026  36.989  36.570  12.127
16498W        W88027  10.494  30.468   4.072
16499W        W88028  18.199   9.852   2.280
16500W        W88029  21.978  26.136   0.733
16501W        W88030   4.464  37.371  14.267
16502W        W88031  38.296  42.534  12.386
16503W        W88032  16.945  28.109   4.192
16504W        W88033  15.303  25.015  11.105
16505W        W88034  10.945   0.855  10.977
16506W        W88035   8.588  36.928   2.303
16507W        W88036   8.271  25.892  12.589
16508W        W88037  24.143   7.166   3.985
16509W        W88038  26.390  42.299  14.223
16510W        W88039  17.707  32.149  13.134
16511W        W88040  31.940  17.667   2.871
16512W        W88041  37.599   5.006  11.978
16513W        W88042  23.424   5.849   2.621
16514W        W88043  42.512   4.915  10.595
16515W        W88044  26.696  20.923  13.128
16516W        W88045  31.581  10.637   1.801
16517W        W88046  37.835  22.639  13.872
16518W        W88047  29.659  41.755   0.085
16519W        W88048  27.231  17.708  12.507
16520W        W88049  27.127  11.430   1.286
16521W        W88050  21.839  11.595   2.692
16522W        W88051   8.536  27.932  13.364
16523W        W88052   4.678  41.357  14.500
16524W        W88053  43.733  35.810  11.981
16525W        W88054  30.430  28.567  13.467
16526W        W88055  22.037   3.883   1.646
16527W        W88056  39.547   6.628  11.203
16528W        W88057  10.147  29.087  14.999
16529W        W88058   4.151   5.852  11.565
16530W        W88059  35.325   1.977  13.844
16531W        W88060  43.356   6.422  12.010
16532W        W88061  24.813   7.723  14.535
16533W        W88062  38.840   8.305  13.538
16534W        W88063  36.177  38.796  13.879
16535W        W88064   6.291  15.271   1.196
16536W        W88065  31.882  35.959   3.728
16537W        W88066  18.179  33.617  11.581
16538W        W88067  21.544  20.665  11.138
16539W        W88068  12.190  36.083   2.921
16540W        W88069   4.915  34.160   1.275
16541W        W88070  42.445   2.251   2.277
16542W        W88071   4.550  17.245  10.244
16543W        W88072  41.312  40.991  14.877
16544W        W88073  27.659  22.708   1.216
16545W        W88074  12.820  33.615   2.111
16546W        W88075  17.321   7.179   4.271
16547W        W88076  19.979  25.180  14.896
16548W        W88077  42.515  34.814  10.971
16549W        W88078  26.270  13.238  13.886
16550W        W88079  31.475  44.895   4.791
16551W        W88080   8.902   1.991  11.582
16552W        W88081  12.043   8.841  13.774
16553W        W88082   2.920   3.729  11.696
16554W        W88083   5.713  41.328   2.416
16555W        W88084  36.965   7.127  13.016
16556W        W88085  27.232  13.623   1.567
16557W        W88086  41.858  41.398   4.414
16558W        W88087  43.837  37.607   1.670
16559W        W88088   8.889  42.547  13.264
16560W        W88089  30.055  42.360  12.771
16561W        W88090   6.286  24.962  11.593
16562W        W88091  30.569  16.699  14.347
16563W        W88092  37.339  40.355  14.822
16564W        W88093  36.005  21.775  14.282
16565W        W88094  22.964  23.238   2.777
16566W        W88095   4.126  11.861  14.484
16567W        W88096  39.980  10.612   3.400
16568W        W88097  35.598   5.786  14.717
16569W        W88098  39.997  17.524   0.023
16570W        W88099  40.859  44.765  11.933
16571W        W88100  22.523  15.310   2.292
16572W        W88101  32.919  19.368   4.153
16573W        W88102  27.042  19.462  12.995
16574W        W88103  31.630  23.942   3.139
16575W        W88104  15.156  31.320  14.286
16576W        W88105   0.248   5.734   0.464
16577W        W88106  38.881  33.724   3.298
16578W        W88107  35.971  26.144  13.444
16579W        W88108  14.230  27.068  13.018
16580W        W88109   6.331  21.297  13.887
16581W        W88110  21.238   7.246  13.041
16582W        W88111  27.637  18.446   2.003
16583W        W88112   7.377  34.975   2.227
16584W        W88113   9.748  13.689   3.279
16585W        W88114  29.051  15.387  11.835
16586W        W88115  15.515  24.913   1.261
16587W        W88116   7.012  43.887   0.214
16588W        W88117  22.920  23.040   2.302
16589W        W88118  22.833  19.636   4.451
16590W        W88119  20.451  38.087  12.790
16591W        W88120  42.506  39.338   3.848
16592W        W88121  36.936   8.466   1.998
16593W        W88122  34.369  27.540   4.073
16594W        W88123  44.854  28.026   2.663
16595W        W88124  31.969  18.675  11.210
16596W        W88125  19.242  41.059   4.827
16597W        W88126  12.742  35.364  12.656
16598W        W88127  29.712  23.109   4.574
16599W        W88128  15.553   4.491  10.140
16600W        W88129  34.298  22.760   1.803
16601W        W88130   3.750  33.398   1.001
16602W        W88131  30.439  22.111   0.307
16603W        W88132  13.749  44.099   2.300
16604W        W88133  37.401  31.224   1.197
16605W        W88134  10.830  13.653  10.745
16606W        W88135  10.531   9.208   4.513
16607W        W88136  10.205  19.823  10.376
16608W        W88137  39.784  37.833   0.026
16609W        W88138  11.689  21.645   4.888
16610W        W88139   8.165   0.466  11.258
16611W        W88140  19.771  37.610   2.768
16612W        W88141  22.423  10.949   4.116
16613W        W88142  16.692  10.156   0.833
16614W        W88143  32.038  13.676   4.680
16615W        W88144  42.148  40.943   4.329
16616W        W88145  31.444  20.798   2.201
16617W        W88146  40.555   3.435  12.480
16618W        W88147   8.405  14.190  11.538
16619W        W88148  42.312  13.085  11.456
16620W        W88149  22.511  18.557  11.539
16621W        W88150  23.981  31.532   0.456
16622W        W88151  40.560  32.663   1.452
16623W        W88152  10.722  20.302  12.565
16624W        W88153   6.959  19.087  13.550
16625W        W88154  34.023   8.681  14.316
16626W        W88155  43.136  19.536  13.788
16627W        W88156  24.996  29.903  14.764
16628W        W88157  44.740  12.882  13.220
16629W        W88158  44.860  18.321   4.596
16630W        W88159  33.325  11.088  12.632
16631W        W88160   7.016  28.502   3.712
16632W        W88161  37.485   0.701  13.234
16633W        W88162  18.193  15.354  11.390
16634W        W88163  15.344   4.713  12.765
16635W        W88164  38.128  11.889  12.825
16636W        W88165  32.913  31.694   3.243
16637W        W88166  16.256  12.625  12.448
16638W        W88167  28.251  21.506   4.300
16639W        W88168   5.410  14.119  13.031
16640W        W88169  10.881  20.640  13.791
16641W        W88170   4.647  22.948   3.217
16642W        W88171  36.576   0.831   0.818
16643W        W88172  36.801  24.511   0.873
16644W        W88173   5.982  13.684   1.469
16645W        W88174  38.823  27.959   4.055
16646W        W88175   4.375  38.465   4.181
16647W        W88176  37.002   4.293   0.476
16648W        W88177  25.379  21.207   5.245
16649W        W88178  15.847  12.201  11.133
16650W        W88179  10.069  19.991  10.927
16651W        W88180  10.747  38.503  14.575
16652W        W88181   2.319  21.716   1.355
16653W        W88182  20.063  30.017  13.820
16654W        W88183  42.310  19.221  13.846
16655W        W88184  39.970  39.001  12.509
16656W        W88185  43.338  17.244  12.478
16657W        W88186  11.058  27.914  11.199
16658W        W88187  35.571  41.847  12.503
16659W        W88188  36.066  43.419   2.385
16660W        W88189  14.375  11.917  13.319
16661W        W88190  13.626  28.516  11.084
16662W        W88191   5.562   5.625   1.316
16663W        W88192  12.278   5.835  14.856
16664W        W88193  17.547   8.718   2.645
16665W        W88194   6.362  17.894   1.248
16666W        W88195   1.364   2.888  13.198
16667W        W88196  23.000  30.753   4.775
16668W        W88197  39.972   0.313  14.240
16669W        W88198   4.385   5.706   0.777
16670W        W88199  19.782  39.338   1.972
16671W        W88200  31.131  19.996   1.730
16672W        W88201  21.774  10.468   1.885
16673W        W88202  43.483   4.044  12.430
16674W        W88203  36.787  39.858  12.438
16675W        W88204   7.348  29.065  13.042
16676W        W88205   0.345  24.481  10.714
16677W        W88206  29.254  38.051  12.785
16678W        W88207  18.647  28.762   2.364
16679W        W88208  35.995  34.662  11.618
16680W        W88209  25.562  29.630  13.592
16681W        W88210  31.271  19.705   2.714
16682W        W88211  20.735  26.323  13.348
16683W        W88212  39.609  11.115   1.146
16684W        W88213  26.403   5.206  11.476
16685W        W88214  15.208  14.722   2.083
16686W        W88215  28.239  39.480   2.823
16687W        W88216  35.790  26.663  11.079
16688W        W88217  12.293   1.857   0.757
16689W        W88218   5.441  15.202   0.379
16690W        W88219  17.554  18.567   4.175
16691W        W88220  32.208  20.611   1.804
16692W        W88221   7.678  15.173  13.049
16693W        W88222  31.582  11.671  14.296
16694W        W88223  39.564   0.926  10.814
16695W        W88224  19.283  35.993  11.166
16696W        W88225  33.660   0.689  10.677
16697W        W88226  17.194  29.040  14.986
16698W        W88227  28.239   6.815  14.899
16699W        W88228  23.994  25.033  12.072
16700W        W88229  15.907  37.081  13.570
16701W        W88230  12.031  18.816   2.740
16702W        W88231   3.559   8.283  12.495
16703W        W88232  12.298   5.416  10.424
16704W        W88233  25.494  23.150  11.957
16705W        W88234   0.047  10.855   1.127
16706W        W88235   0.025  30.164   1.857
16707W        W88236  32.645  19.664   4.488
16708W        W88237  31.342  40.447   4.487
16709W        W88238  39.064  14.773  10.508
16710W        W88239  23.733   3.224   4.242
16711W        W88240  29.867  37.515  13.454
16712W        W88241  29.383  29.542  12.529
16713W        W88242  24.255  29.210  14.669
16714W        W88243  11.298  38.620  14.980
16715W        W88244  12.221  28.697   3.627
16716W        W88245  34.487  18.585  13.911
16717W        W88246  24.105   3.009   1.501
16718W        W88247   3.955  44.354   1.939
16719W        W88248  21.001  35.537  10.679
16720W        W88249  38.328  44.345   0.675
16721W        W88250   9.376  18.922  12.651
16722W        W88251  32.479   7.571  13.887
16723W        W88252  35.743  33.577  13.769
16724W        W88253  20.644   3.130   4.756
16725W        W88254   4.306  27.655  11.867
16726W        W88255  31.103  26.513   4.284
16727W        W88256  31.597  26.840  10.330
16728W        W88257  20.427  41.311   1.785
16729W        W88258  19.241  42.846   0.315
16730W        W88259  19.613  44.664  11.494
16731W        W88260  11.938   3.629  10.754
16732W        W88261   9.617  39.147  11.147
16733W        W88262   7.228   7.071   0.395
16734W        W88263   4.928   5.837  12.908
16735W        W88264  39.204  16.900  12.193
16736W        W88265  15.093   4.851  13.767
16737W        W88266  16.296  15.799  11.701
16738W        W88267  32.655  24.259   4.695
16739W        W88268  11.259  42.574   3.464
16740W        W88269  14.677  22.022   3.820
16741W        W88270  37.939  12.041  14.023
16742W        W88271  15.646   0.384  10.166
16743W        W88272  19.774   8.031   5.011
16744W        W88273  33.420  25.625  12.147
16745W        W88274  27.622  38.051  11.576
16746W        W88275  23.632  17.720   3.196
16747W        W88276  14.742  24.976   0.886
16748W        W88277  38.822  24.675  10.753
16749W        W88278   9.563  44.819   2.676
16750W        W88279  27.589  17.335  12.557
16751W        W88280  14.498  11.281   2.846
16752W        W88281   4.856  11.129   4.799
16753W        W88282  33.914  23.551  14.082
16754W        W88283   5.911  41.504   0.015
16755W        W88284  14.822  27.071  14.415
16756W        W88285   4.945  16.182   1.564
16757W        W88286  14.069  13.354  12.930
16758W        W88287   9.517  33.329   0.563
16759W        W88288  41.865  35.496   1.881
16760W        W88289   9.757  33.846  12.073
16761W        W88290  43.482  23.626  14.538
16762W        W88291   7.593  21.612   1.229
16763W        W88292  28.252  42.580   1.576
16764W        W88293  25.656   1.853  14.473
16765W        W88294  34.163  18.028   1.816
16766W        W88295  38.432  42.299   1.379
16767W        W88296  15.190  10.117   4.106
16768W        W88297  17.492  13.070  14.453
16769W        W88298  25.092   1.279   2.052
16770W        W88299   4.779  42.805  11.258
16771W        W88300  17.734  28.512   2.173
16772W        W88301  16.271   3.461   2.713
16773W        W88302  35.354  31.291  13.988
16774W        W88303  16.846  27.769   0.867
16775W        W88304  22.432  36.045   2.380
16776W        W88305  32.182   5.720   4.183
16777W        W88306   0.956   6.671  14.278
16778W        W88307   7.419   0.230   2.142
16779W        W88308  33.364   6.330  11.138
16780W        W88309  16.564  15.354   2.601
16781W        W88310   0.133   6.223   3.263
16782W        W88311  36.928  37.009  14.313
16783W        W88312  14.896  19.201  13.408
16784W        W88313   6.241  16.431   3.733
16785W        W88314  35.632  14.022  11.499
16786W        W88315  34.069  24.847   3.176
16787W        W88316  12.146  13.100   3.653
16788W        W88317  44.966  43.116  14.770
16789W        W88318   0.726  24.658   1.934
16790W        W88319  44.747  16.634  11.134
16791W        W88320  38.067  13.372  14.074
16792W        W88321  40.387  43.437  12.547
16793W        W88322  40.833  31.657  13.795
16794W        W88323  27.975  36.227   1.270
16795W        W88324   6.315  10.352   3.132
16796W        W88325   5.780  29.009  13.808
16797W        W88326  32.200  13.608   5.169
16798W        W88327   0.243  41.440   0.051
16799W        W88328  44.438  38.452   2.890
16800W        W88329  21.313   6.688   3.838
16801W        W88330   1.933  29.897   1.362
16802W        W88331  40.071  35.786   3.752
16803W        W88332  42.380   9.347   4.283
16804W        W88333  25.735  32.217  14.120
16805W        W88334  17.040  31.503   1.694
16806W        W88335  36.628  33.541   4.275
16807W        W88336  39.503  20.605   1.191
16808W        W88337  10.923  20.309   0.491
16809W        W88338  13.057  11.581   4.111
16810W        W88339  39.613   0.155  14.770
16811W        W88340  23.536  36.905  13.094
16812W        W88341  41.362  20.327   3.775
16813W        W88342  15.403   2.895  12.347
16814W        W88343  10.540  28.785  14.321
16815W        W88344  28.349  16.095   4.166
16816W        W88345  40.157  30.672  11.552
16817W        W88346  37.608  22.663   4.630
16818W        W88347  10.350  15.383  11.358
16819W        W88348  23.005  35.347  12.046
16820W        W88349   9.940  30.992   0.964
16821W        W88350  27.886   1.388  12.010
16822W        W88351  14.141   3.264  12.538
16823W        W88352  33.517  18.144  12.654
16824W        W88353   7.291  40.676  13.969
16825W        W88354  15.228  11.138   0.666
16826W        W88355  40.236  42.512  10.434
16827W        W88356   6.330  11.866  13.832
16828W        W88357  13.158  14.569   0.355
16829W        W88358  19.162  13.520  10.751
16830W        W88359  21.570   7.213   0.248
16831W        W88360   8.410   5.735   0.760
16832W        W88361  15.795  26.877   0.172
16833W        W88362  44.856  38.807  14.364
16834W        W88363  35.484  40.282  10.761
16835W        W88364   3.195  14.683  11.965
16836W        W88365   8.164   1.384  14.323
16837W        W88366   9.946  37.833   2.672
16838W        W88367   1.511  44.325  10.036
16839W        W88368  20.937   2.430  10.918
16840W        W88369  31.145  35.315  12.928
16841W        W88370  17.795  38.144  13.379
16842W        W88371  14.697   7.748  10.705
16843W        W88372  10.821  34.825  10.557
16844W        W88373  22.590  37.461  14.804
16845W        W88374  16.781  25.360   4.762
16846W        W88375  30.735  25.137   3.863
16847W        W88376   1.478  19.089   1.201
16848W        W88377  22.242   2.929   0.369
16849W        W88378  20.651  38.089   2.743
16850W        W88379  13.266  42.075   1.320
16851W        W88380  37.359  36.781  13.855
16852W        W88381  39.810  37.491   2.270
16853W        W88382  39.590  25.568   0.806
16854W        W88383  15.451   5.530   3.620
16855W        W88384  16.307  17.166   0.881
16856W        W88385  22.187  41.026   0.350
16857W        W88386  17.626  42.116   3.327
16858W        W88387  13.800   0.908   2.261
16859W        W88388  30.320  31.093  12.438
16860W        W88389  20.924  24.016  13.510
16861W        W88390  33.435  35.582   3.309
16862W        W88391  13.639  40.343   3.459
16863W        W88392  29.175  36.903  11.700
16864W        W88393  37.000  19.668   1.431
16865W        W88394  14.325  44.968   3.162
16866W        W88395  37.003  17.154   4.327
16867W        W88396  23.971   5.199   0.739
16868W        W88397  39.323  32.375  13.835
16869W        W88398  44.579  18.072  12.157
16870W        W88399   4.456   2.688  14.399
16871W        W88400  44.506  21.780  10.691
16872W        W88401  36.661   8.767  13.088
16873W        W88402  34.951   1.960  12.484
16874W        W88403   4.185  32.504   3.986
16875W        W88404  44.803  32.575   2.530
16876W        W88405   2.893  12.753  10.734
16877W        W88406  21.000  17.824  14.484
16878W        W88407  13.553   6.990  12.465
16879W        W88408  19.579  39.997  13.790
16880W        W88409  18.312  24.240   0.707
16881W        W88410  31.080  10.908  12.058
16882W        W88411  36.856  23.114   3.162
16883W        W88412  20.757   2.364   0.962
16884W        W88413   2.714   9.877   2.710
16885W        W88414  35.450   4.475   1.723
16886W        W88415   0.780  43.354   2.378
16887W        W88416  15.735   8.751  12.443
16888W        W88417  10.294  27.690   3.120
16889W        W88418  35.088  24.088   1.023
16890W        W88419  12.549   8.649   4.666
16891W        W88420  43.001  13.400   0.204
16892W        W88421  23.086  22.046  12.426
16893W        W88422   9.071  37.936   2.332
16894W        W88423  38.048   3.410   1.012
16895W        W88424  11.738  13.380  13.481
16896W        W88425  14.386  22.779   3.227
16897W        W88426   9.711  36.856  13.603
16898W        W88427   1.858  13.187  11.877
16899W        W88428  13.331  14.045   4.592
16900W        W88429  40.894  36.899   4.119
16901W        W88430  23.783  26.709  14.793
16902W        W88431  27.441   2.209  11.828
16903W        W88432  14.597  36.378  12.570
16904W        W88433  10.592  43.719   1.234
16905W        W88434  39.676   2.946  14.867
16906W        W88435  30.113  28.535   3.897
16907W        W88436   5.955   5.836   3.628
16908W        W88437   4.663  24.729   0.713
16909W        W88438  25.059  14.009   0.330
16910W        W88439  10.658  39.439  13.502
16911W        W88440   4.019  10.008  10.672
16912W        W88441  19.089  15.775   0.788
16913W        W88442   5.696  23.936   1.776
16914W        W88443   6.635  43.799   4.229
16915W        W88444  38.584  17.691   4.043
16916W        W88445  40.952   9.102   4.145
16917W        W88446  16.908   9.934   2.586
16918W        W88447  41.940  28.695  11.580
16919W        W88448  41.465  19.097  11.924
16920W        W88449  35.849   6.839   4.248
16921W        W88450  35.564   0.477   0.349
16922W        W88451  23.058   6.851   4.753
16923W        W88452  37.004  10.649   1.876
16924W        W88453   5.204  22.513  13.345
16925W        W88454  25.749  13.595   2.275
16926W        W88455   3.480  34.210  14.473
16927W        W88456  44.044  12.145  12.965
16928W        W88457   3.506  29.490   2.206
16929W        W88458  40.938   9.398  12.609
16930W        W88459  40.941  33.231  12.843
16931W        W88460   0.007  40.175  13.198
16932W        W88461  23.642   4.248  14.606
16933W        W88462   7.349  36.260  14.193
16934W        W88463   5.748  22.112   1.671
16935W        W88464  27.532  21.468  12.091
16936W        W88465  12.625  25.228   4.754
16937W        W88466   3.627  38.125   1.754
16938W        W88467  41.307  24.648   2.391
16939W        W88468  13.613  38.452  13.485
16940W        W88469   8.304  39.749   2.157
16941W        W88470  32.817  12.128  13.755
16942W        W88471  12.609   2.269   2.695
16943W        W88472   5.779   4.954   3.121
16944W        W88473  43.538  23.002   3.736
16945W        W88474   4.403  44.460   1.713
16946W        W88475  44.184  40.480  11.965
16947W        W88476  26.616  15.204  12.675
16948W        W88477   0.650  14.014  14.692
16949W        W88478  29.994  39.560   0.342
16950W        W88479  36.801  10.650   2.397
16951W        W88480  43.343   5.645   1.338
16952W        W88481  32.137  32.506   2.840
16953W        W88482   3.209  37.760   4.519
16954W        W88483   1.292  10.887  11.986
16955W        W88484  43.824  38.397   2.224
16956W        W88485   4.553  29.340  11.539
16957W        W88486  25.200  37.880  12.840
16958W        W88487   9.349  37.307  14.578
16959W        W88488  28.079  28.092   1.683
16960W        W88489  16.844  40.819  13.812
16961W        W88490   1.235  22.142   1.912
16962W        W88491  21.613  19.651  12.064
16963W        W88492   5.532  23.442   3.733
16964W        W88493  39.374  29.583  12.313
16965W        W88494  31.593  23.121   2.257
16966W        W88495  13.431   4.063  11.111
16967W        W88496  30.415  13.899   3.805
16968W        W88497  30.102  23.355  10.814
16969W        W88498  18.656  19.032  11.132
16970W        W88499  18.367   5.181  13.975
16971W        W88500  44.492   2.734   3.125
16972W        W88501  24.014   2.210  10.703
16973W        W88502   7.141  25.527  10.656
16974W        W88503  41.054  39.891   0.225
16975W        W88504  40.412   8.342   2.284
16976W        W88505  17.171  36.670  13.361
16977W        W88506  24.505   0.915   2.343
16978W        W88507  15.191  10.608  13.887
16979W        W88508  22.291  37.000  11.594
16980W        W88509  28.483  36.902   3.216
16981W        W88510  30.449  17.577  11.626
16982W        W88511  44.443  19.053   0.215
16983W        W88512  23.033  29.087  13.119
16984W        W88513  27.693  23.802   2.805
16985W        W88514  10.820  36.370  14.801
16986W        W88515  25.197  42.031   5.025
16987W        W88516  17.595  12.895  12.023
16988W        W88517  37.384  36.874   0.882
16989W        W88518   6.275  26.683  14.049
16990W        W88519   3.426  34.429   2.168
16991W        W88520   7.480  18.310  14.587
16992W        W88521  13.587  27.424   0.491
16993W        W88522  16.079   4.391  12.544
16994W        W88523  13.363  37.919  10.823
16995W        W88524  39.005  11.844  13.035
16996W        W88525  26.877  22.680   1.497
16997W        W88526  40.137  27.597   4.004
16998W        W88527  38.049   4.716  12.962
16999W        W88528   8.837  30.936  14.023
17000W        W88529  26.577  42.339  12.819
17001W        W88530  39.291  31.420   0.182
17002W        W88531  37.530  34.995  12.189
17003W        W88532  29.430  15.791  12.288
17004W        W88533  12.062  31.565  14.843
17005W        W88534  44.823  25.220   2.667
17006W        W88535  32.548  29.887   4.599
17007W        W88536  38.982  26.021   5.068
17008W        W88537  28.258  37.960  10.643
17009W        W88538  44.534  24.403  11.120
17010W        W88539   5.230  22.653   1.451
17011W        W88540   5.278  29.845  13.605
17012W        W88541  40.470  24.987  12.082
17013W        W88542  35.511  43.090  13.312
17014W        W88543  26.191  22.060  11.663
17015W        W88544  40.428  24.782  11.611
17016W        W88545  19.269   3.005   2.425
17017W        W88546  26.580   6.295   4.769
17018W        W88547  27.939  37.530   0.904
17019W        W88548   7.769  41.802  12.241
17020W        W88549  14.702   0.907   3.315
17021W        W88550  32.676  20.368  14.831
17022W        W88551   3.953  23.873  12.501
17023W        W88552  44.869  40.892   0.392
17024W        W88553  27.072  36.809  14.936
17025W        W88554  28.210  23.567  10.732
17026W        W88555   7.434  44.776  12.941
17027W        W88556  36.930  36.441   4.537
17028W        W88557  29.466  14.398  13.040
17029W        W88558  10.354  43.986  12.937
17030W        W88559  43.191  14.522  11.935
17031W        W88560  20.935  34.585   9.881
17032W        W88561   0.760  20.616   3.760
17033W        W88562  36.037  27.571  10.694
17034W        W88563  39.949  19.631  12.561
17035W        W88564   8.235  31.958   2.230
17036W        W88565  14.094  19.178   2.255
17037W        W88566   0.025  40.373  12.436
17038W        W88567   4.892  38.512   3.093
17039W        W88568  34.525  11.897   4.641
17040W        W88569   0.823  39.657   0.128
17041W        W88570  21.224  18.538   1.863
17042W        W88571   3.996  31.036   2.047
17043W        W88572  31.482  34.109  10.571
17044W        W88573  15.731   0.978  14.964
17045W        W88574   9.537  35.090   3.308
17046W        W88575  17.776  41.906   3.770
17047W        W88576   2.433  36.967  12.120
17048W        W88577  40.589   6.750   2.708
17049W        W88578  14.271  12.913   1.928
17050W        W88579  21.653  42.050   3.741
17051W        W88580   6.313  13.195  13.176
17052W        W88581  32.257   0.375   1.644
17053W        W88582   2.951  21.583  11.222
17054W        W88583  26.053  43.662   1.544
17055W        W88584   7.970  37.455  11.193
17056W        W88585  20.472  44.417  12.425
17057W        W88586  15.626  42.799   1.370
17058W        W88587  24.785  31.643   0.882
17059W        W88588   0.809  44.893   4.550
17060W        W88589  39.951   5.866  14.754
17061W        W88590  29.068   5.100   2.088
17062W        W88591   0.147  29.451   3.234
17063W        W88592   9.952   2.945  11.125
17064W        W88593  30.756  35.841   5.058
17065W        W88594  27.069   8.792  13.409
17066W        W88595  28.055   4.218   1.108
17067W        W88596  12.257  43.575  11.353
17068W        W88597  35.559  22.270  11.196
17069W        W88598   1.280  33.884  12.098
17070W        W88599  28.081  38.444  10.181
17071W        W88600  31.644  19.052   2.229
17072W        W88601  10.566  21.223  13.083
17073W        W88602   2.584  39.774   2.905
17074W        W88603  25.063  33.028   3.646
17075W        W88604  17.042  26.868  11.102
17076W        W88605  32.851  17.805   2.802
17077W        W88606  14.339  44.238   2.472
17078W        W88607  18.490  12.444  11.943
17079W        W88608   6.331  44.064   5.093
17080W        W88609  35.370  39.242   4.752
17081W        W88610  12.987  44.056  11.369
17082W        W88611   1.814   4.416   0.124
17083W        W88612  28.058  15.704  12.023
17084W        W88613  22.626  12.167   0.230
17085W        W88614  38.352  32.155  12.465
17086W        W88615  12.702  43.379  11.185
17087W        W88616  14.732  34.640  10.756
17088W        W88617   7.176  41.172   4.754
17089W        W88618  26.487  31.282  11.157
17090W        W88619   5.348   7.311  10.635
17091W        W88620  20.549  25.963   1.008
17092W        W88621  18.262   9.922   1.221
17093W        W88622  39.280  32.907   4.106
17094W        W88623  26.629  16.550   1.739
17095W        W88624   8.668  12.914   0.358
17096W        W88625  27.680  20.716  10.729
17097W        W88626  23.135  19.480  13.460
17098W        W88627  38.554   4.483  13.920
17099W        W88628   7.979  41.796  13.873
17100W        W88629  32.124  30.172  13.567
17101W        W88630  44.868  27.223   1.863
17102W        W88631  27.402  32.013   3.649
17103W        W88632  41.484  41.045   1.920
17104W        W88633  21.100  18.696  14.521
17105W        W88634  38.907   3.098  10.689
17106W        W88635  31.182  37.517   3.394
17107W        W88636   8.740  35.590  10.552
17108W        W88637   6.885  35.426  10.552
17109W        W88638  14.282  20.999  14.783
17110W        W88639   2.721  38.479   0.218
17111W        W88640  19.753  37.423   0.280
17112W        W88641  11.231  31.472  11.513
17113W        W88642   3.813  39.713   2.282
17114W        W88643  21.910   5.438   3.244
17115W        W88644   6.474  14.347   3.252
17116W        W88645  10.629   5.833  10.632
17117W        W88646  22.065   1.676   2.331
17118W        W88647  36.866  32.309   1.769
17119W        W88648  23.926   4.947   3.968
17120W        W88649  44.253  31.312   4.124
17121W        W88650  43.027  25.535   3.711
17122W        W88651  32.142  24.689  10.657
17123W        W88652  44.256  15.752   4.221
17124W        W88653  23.230   1.008  14.772
17125W        W88654  13.446  17.562  11.562
17126W        W88655  41.046  18.786   3.072
17127W        W88656  34.986   4.304  14.961
17128W        W88657   9.122   6.308   2.242
17129W        W88658  36.067   5.339   1.815
17130W        W88659  12.229  25.826   3.560
17131W        W88660   2.915  19.320   0.235
17132W        W88661  29.723  18.577   3.050
17133W        W88662  18.546  23.527  11.566
17134W        W88663  41.711  43.228  14.527
17135W        W88664  18.816  26.695   3.224
17136W        W88665  16.657  10.733  14.905
17137W        W88666  39.984  16.905  14.363
17138W        W88667  41.470  22.797   2.574
17139W        W88668  19.573  21.371   1.985
17140W        W88669  19.022  12.200  11.570
17141W        W88670  26.278  27.058   1.931
17142W        W88671  33.037  28.635  11.589
17143W        W88672  43.263   7.759  12.023
17144W        W88673  25.881  30.961  10.363
17145W        W88674  33.568  40.720  13.545
17146W        W88675  38.031  32.527   2.388
17147W        W88676  15.888  10.232  13.486
17148W        W88677  25.645  27.952  13.815
17149W        W88678   2.997  20.581   2.262
17150W        W88679   2.210  24.059  11.712
17151W        W88680  41.519  17.266   1.930
17152W        W88681   3.820  24.089   0.683
17153W        W88682  25.429   6.261   0.459
17154W        W88683  37.798  19.220  13.153
17155W        W88684   2.848  10.446  11.115
17156W        W88685  42.301  39.099   3.406
17157W        W88686  25.323  10.259   3.602
17158W        W88687  40.507  27.587   3.131
17159W        W88688  16.327  28.008   5.013
17160W        W88689  31.192  28.417  12.192
17161W        W88690  37.956  42.866   2.792
17162W        W88691  42.844  22.066   4.185
17163W        W88692  31.031  36.591  14.561
17164W        W88693  25.538  41.934  12.537
17165W        W88694   3.215   4.948  14.905
17166W        W88695  26.188  17.280  14.818
17167W        W88696  21.517  29.158  11.479
17168W        W88697  34.110  34.753   3.569
17169W        W88698   6.622   6.627  10.861
17170W        W88699  14.060  22.520   2.917
17171W        W88700  33.153  38.500   4.055
17172W        W88701  28.569  20.034   0.510
17173W        W88702  11.340  40.860   2.316
17174W        W88703  41.344   5.311   2.808
17175W        W88704  23.111  39.420   1.156
17176W        W88705  12.762  38.092   2.657
17177W        W88706  29.121  36.592   2.370
17178W        W88707  20.165   5.592   1.432
17179W        W88708   9.307  28.861   1.669
17180W        W88709  27.980  33.504  11.213
17181W        W88710  24.241   0.872  11.134
17182W        W88711  41.224  15.138  13.496
17183W        W88712  27.684  27.616   4.664
17184W        W88713  21.091  33.117  13.509
17185W        W88714   1.965  30.961   2.321
17186W        W88715  38.029  15.693   3.326
17187W        W88716   7.514  19.386   0.546
17188W        W88717  16.630  16.578  14.737
17189W        W88718   1.386  15.411  11.274
17190W        W88719  30.545  19.608  10.913
17191W        W88720   4.375  25.221  14.593
17192W        W88721  23.962  31.198   2.255
17193W        W88722  38.840   7.333  13.021
17194W        W88723   9.189  12.562   2.300
17195W        W88724  36.947   9.639  14.023
17196W        W88725   1.701  32.946  12.094
17197W        W88726  18.318  16.208  11.645
17198W        W88727  12.461  17.775  10.694
17199W        W88728   9.584   3.795   4.450
17200W        W88729  37.102  39.100   2.711
17201W        W88730  42.402  39.412  13.504
17202W        W88731  41.715  21.161   3.562
17203W        W88732  43.749  43.681  13.847
17204W        W88733  12.210  41.706   3.608
17205W        W88734  15.040  38.461   0.903
17206W        W88735   3.846  30.943   3.548
17207W        W88736  34.841  31.578   1.755
17208W        W88737   7.803  17.829  14.804
17209W        W88738  16.315  44.350   4.012
17210W        W88739  44.016  23.518  10.303
17211W        W88740  34.983  30.537   3.404
17212W        W88741  15.246  22.786   0.340
17213W        W88742  21.740  35.327  13.780
17214W        W88743  27.581  13.049  10.579
17215W        W88744  40.426  30.518   2.565
17216W        W88745  22.001  15.620  11.894
17217W        W88746   2.807  16.644   2.330
17218W        W88747  21.506  31.402  13.884
17219W        W88748  36.475  35.584  12.458
17220W        W88749  29.452  10.411  14.827
17221W        W88750   3.706  43.858  14.038
17222W        W88751   9.309  27.710  10.437
17223W        W88752  33.158  17.391   3.695
17224W        W88753  36.182  14.708  11.584
17225W        W88754   9.795  32.377  10.472
17226W        W88755  13.837   4.730   0.187
17227W        W88756  27.887  22.143  11.660
17228W        W88757  12.210  25.548   0.629
17229W        W88758  18.250  26.166  11.364
17230W        W88759  33.305  14.285  10.687
17231W        W88760  36.878  17.082   3.812
17232W        W88761  18.663  12.387  14.322
17233W        W88762  12.191  38.364   4.269
17234W        W88763   8.719  43.101  12.399
17235W        W88764  11.292  36.539   0.797
17236W        W88765   1.444  13.811  12.485
17237W        W88766   4.437  30.688  12.658
17238W        W88767  41.355  11.282   2.837
17239W        W88768  41.978   3.370   3.634
17240W        W88769  27.327  42.917   5.054
17241W        W88770  40.791  15.103   4.189
17242W        W88771  38.363  41.607   3.739
17243W        W88772  11.700  16.180   0.467
17244W        W88773   6.635   6.412   2.240
17245W        W88774  40.898   5.934   3.671
17246W        W88775  22.456  29.912   4.664
17247W        W88776   3.748  19.545  13.753
17248W        W88777   8.320  32.656  13.862
17249W        W88778  10.458   9.736  12.260
17250W        W88779  27.548  17.021   3.688
17251W        W88780  25.278  40.277  10.679
17252W        W88781  37.809  39.601  13.958
17253W        W88782   4.796  16.129  11.254
17254W        W88783  13.607  39.898   1.341
17255W        W88784   5.001  21.393  12.559
17256W        W88785  39.601  37.803   3.213
17257W        W88786  29.156  34.850   5.480
17258W        W88787  31.871  31.548  12.741
17259W        W88788  13.918   8.717   2.333
17260W        W88789  41.035  27.572   4.868
17261W        W88790   5.045  25.641   4.626
17262W        W88791  19.745   6.454   1.358
17263W        W88792  18.629  10.644   1.764
17264W        W88793  18.342  36.531  11.115
17265W        W88794  38.844  18.836  10.749
17266W        W88795  12.393  20.840   3.734
17267W        W88796  13.213  29.842   2.240
17268W        W88797  41.896  15.464   2.783
17269W        W88798  35.602  44.820  11.136
17270W        W88799  15.213  42.428   0.887
17271W        W88800  20.370  30.669   4.903
17272W        W88801   8.763  34.109  14.718
17273W        W88802  22.655   3.289  11.960
17274W        W88803  25.687  25.522   2.577
17275W        W88804  26.196  39.955  14.300
17276W        W88805  36.369  30.662   0.385
17277W        W88806  17.542  27.457  10.208
17278W        W88807  13.210   8.942  11.853
17279W        W88808  29.623  22.101  14.281
17280W        W88809   1.072  26.143  11.128
17281W        W88810   2.491   3.235  11.033
17282W        W88811  13.698  34.627   1.303
17283W        W88812  19.167  10.632   4.188
17284W        W88813  12.885  43.820   4.358
17285W        W88814  44.981  25.206   0.520
17286W        W88815  23.616  36.005   1.622
17287W        W88816  37.066  44.047  12.994
17288W        W88817   2.792  34.946  10.200
17289W        W88818  37.423  19.547   3.246
17290W        W88819  29.662  38.818   3.323
17291W        W88820  42.814   6.268  10.634
17292W        W88821  18.325   4.611   2.796
17293W        W88822  39.917  26.269   4.057
17294W        W88823  44.477  15.801  14.207
17295W        W88824  35.897  17.520  13.693
17296W        W88825  35.647   0.518   1.393
17297W        W88826  43.065   2.739   1.354
17298W        W88827  17.002  26.169   0.767
17299W        W88828  21.567  43.296   4.096
17300W        W88829  15.616  12.869   1.045
17301W        W88830  19.469  41.705   0.671
17302W        W88831  16.266  30.421   2.235
17303W        W88832  17.259  20.647   3.553
17304W        W88833   4.258   4.609  10.797
17305W        W88834   3.356  42.893  13.935
17306W        W88835  44.817   9.723   4.092
17307W        W88836  25.861   8.237   2.339
17308W        W88837   2.970  18.871  14.986
17309W        W88838  39.286  26.962  11.113
17310W        W88839   8.420  44.057  10.076
17311W        W88840   0.235  41.679   3.362
17312W        W88841  15.224  15.462  12.357
17313W        W88842  39.088  37.476   2.773
17314W        W88843   8.700  18.193  13.830
17315W        W88844  14.576   8.082   0.728
17316W        W88845  34.498  28.618  14.298
17317W        W88846  32.419   5.942   0.465
17318W        W88847   8.896   8.674  13.986
17319W        W88848  39.078  33.068   1.694
17320W        W88849  32.534  26.238  14.381
17321W        W88850  35.876  21.611   3.092
17322W        W88851  27.932  14.730  14.963
17323W        W88852  16.228   9.345   1.608
17324W        W88853  15.019   1.474  14.367
17325W        W88854  37.445  21.317   1.317
17326W        W88855  38.923  26.018  12.018
17327W        W88856  30.328  40.412   4.540
17328W        W88857  21.094  17.623  14.940
17329W        W88858  28.412  22.587  14.752
17330W        W88859  23.037  24.519   0.967
17331W        W88860  23.104   1.197   1.059
17332W        W88861  37.093  30.413   1.325
17333W        W88862  14.766  28.507   0.298
17334W        W88863  25.647   0.389   4.922
17335W        W88864  11.669  17.313   1.403
17336W        W88865  40.775  42.313   3.210
17337W        W88866  31.562   7.041  10.697
17338W        W88867  35.663  31.530  14.313
17339W        W88868  39.034  34.963   0.831
17340W        W88869  30.011  33.428  11.944
17341W        W88870   0.388  19.795  13.442
17342W        W88871  26.508  35.083   2.703
17343W        W88872  44.356  20.440   2.746
17344W        W88873  30.667   6.942   3.246
17345W        W88874  16.201  19.893   3.705
17346W        W88875  15.479  22.914   2.604
17347W        W88876  33.118  44.318   1.639
17348W        W88877   1.188  17.588  10.406
17349W        W88878  29.536  41.830   0.625
17350W        W88879  28.893  31.105   4.561
17351W        W88880   9.715   5.529   4.145
17352W        W88881   1.623  22.529  10.623
17353W        W88882  38.718  12.308   2.658
17354W        W88883  29.191   0.122  14.254
17355W        W88884  28.619   8.871   0.459
17356W        W88885  33.647  37.001   0.509
17357W        W88886  11.402  32.698  14.922
17358W        W88887  14.131  22.980   1.343
17359W        W88888  15.783  23.677   1.543
17360W        W88889  24.360  35.385  14.350
17361W        W88890   6.460  35.753   4.421
17362W        W88891  27.315  11.096   0.949
17363W        W88892  19.720  11.701  11.947
17364W        W88893   6.907  34.869   3.113
17365W        W88894  27.228  16.708  10.973
17366W        W88895  35.775   8.690   1.392
17367W        W88896  23.783  17.457   3.640
17368W        W88897  39.227  31.354   4.507
17369W        W88898  25.076  10.959   1.012
17370W        W88899   6.665   0.909   2.344
17371W        W88900  34.555  34.821  11.393
17372W        W88901  42.752  13.215   3.316
17373W        W88902  29.487   5.260  13.952
17374W        W88903  35.118  36.550   1.380
17375W        W88904  44.176   3.503  12.835
17376W        W88905   7.623   5.893   0.670
17377W        W88906  18.489  22.198   0.357
17378W        W88907  15.166   1.746  14.767
17379W        W88908  15.030  39.921   2.931
17380W        W88909  33.149   4.932  11.490
17381W        W88910  14.128  14.686   1.199
17382W        W88911  29.577   7.169   9.779
17383W        W88912   6.911  38.917   2.700
17384W        W88913  31.981  41.556   4.997
17385W        W88914  27.941  16.631  13.028
17386W        W88915   4.371  38.450   2.888
17387W        W88916  36.627   3.832  10.715
17388W        W88917  19.651  25.482   9.951
17389W        W88918  10.363  16.775  12.313
17390W        W88919  41.794   3.325  11.188
17391W        W88920  40.326  27.144  11.160
17392W        W88921  38.144   4.502  12.497
17393W        W88922  39.994  12.785   4.517
17394W        W88923   0.573  24.510  14.032
17395W        W88924   6.872  39.386   0.449
17396W        W88925  12.064  38.915   2.872
17397W        W88926  23.179  22.071  11.478
17398W        W88927  29.548  42.241  11.000
17399W        W88928  16.716  27.600  11.199
17400W        W88929  29.156  44.401  11.723
17401W        W88930  33.106  24.463   4.522
17402W        W88931   4.518   7.794   2.016
17403W        W88932  39.101  20.294   1.354
17404W        W88933  33.721  36.930  13.433
17405W        W88934  29.027  34.483   2.690
17406W        W88935  40.921  20.702   1.422
17407W        W88936  14.611  21.395  10.907
17408W        W88937  34.739  34.092   2.933
17409W        W88938  16.614  39.488  10.587
17410W        W88939  25.947   6.262  14.987
17411W        W88940  24.652   3.201   2.144
17412W        W88941  20.097  31.022   4.336
17413W        W88942  40.502  23.221   3.308
17414W        W88943  40.813  43.432   4.764
17415W        W88944  41.963  12.485   3.559
17416W        W88945   3.810  20.654   3.758
17417W        W88946  22.283  28.036   1.772
17418W        W88947  11.198  32.049   4.425
17419W        W88948  12.237   1.325   0.805
17420W        W88949  16.214  43.279   0.156
17421W        W88950  39.847  22.201  14.496
17422W        W88951  11.300  35.463  11.439
17423W        W88952  35.625  39.694   2.432
17424W        W88953  36.061  23.090  11.425
17425W        W88954  27.066  28.376   4.705
17426W        W88955   2.534  18.180   3.741
17427W        W88956  36.794  17.107  11.488
17428W        W88957  16.175  35.592   1.382
17429W        W88958  15.578  26.543   4.049
17430W        W88959  23.466  12.416  13.893
17431W        W88960  15.617  21.785  14.866
17432W        W88961   7.862  11.180   2.876
17433W        W88962  31.433  26.537  11.232
17434W        W88963  28.697   5.876  12.568
17435W        W88964   3.915  31.603  13.574
17436W        W88965  27.110   2.404  13.997
17437W        W88966  44.988  21.679   4.804
17438W        W88967  12.450   1.087  11.684
17439W        W88968  29.148  28.139   1.746
17440W        W88969  42.362  44.332   3.581
17441W        W88970  17.342   0.413   1.271
17442W        W88971  31.578  32.238  11.317
17443W        W88972  33.502   9.852   3.839
17444W        W88973   8.277  16.872   0.530
17445W        W88974  28.982  13.858   0.402
17446W        W88975  13.822  27.633   3.861
17447W        W88976   9.818   5.412   2.770
17448W        W88977  27.055  17.186   0.723
17449W        W88978  22.672  33.350   3.363
17450W        W88979  30.435  19.550  10.384
17451W        W88980  36.325  31.298  10.823
17452W        W88981  33.336  20.794   0.244
17453W        W88982  24.720   7.988   1.810
17454W        W88983  37.969  32.293  14.316
17455W        W88984  34.036  12.326  10.849
17456W        W88985  21.715  36.027   0.669
17457W        W88986   3.653  37.014  12.573
17458W        W88987  13.831  14.573   0.794
17459W        W88988  33.105  18.750  12.930
17460W        W88989  33.442  15.976  12.704
17461W        W88990  20.663  36.220  14.865
17462W        W88991  28.041   3.257  12.042
17463W        W88992  16.907  42.912  12.020
17464W        W88993  24.120  13.226  13.965
17465W        W88994  20.843  29.137  12.971
17466W        W88995  30.984  42.831   3.212
17467W        W88996  19.475  36.781  14.403
17468W        W88997  40.784  27.417  13.958
17469W        W88998  43.823  44.846  12.676
17470W        W88999  37.887  24.127  10.769
17471W        W89000  23.408  13.073   1.493
17472W        W89001   3.824   9.770  12.562
17473W        W89002   2.725  19.060  12.510
17474W        W89003  17.837   5.197   4.203
17475W        W89004  40.745  31.082  14.468
17476W        W89005  13.277  37.319  12.980
17477W        W89006  26.078  36.903  12.086
17478W        W89007  34.130  36.142   3.003
17479W        W89008   3.394  43.527   0.905
17480W        W89009  41.932  15.574   1.803
17481W        W89010  40.721  22.886   4.104
17482W        W89011  10.780  25.791  12.544
17483W        W89012  33.478  35.920   4.584
17484W        W89013  43.770  24.496  11.496
17485W        W89014  25.001  34.311   0.174
17486W        W89015  13.964  14.177  12.403
17487W        W89016  22.732  39.697   3.301
17488W        W89017  22.388   0.909  12.338
17489W        W89018  35.032  13.112  11.303
17490W        W89019   8.340   7.493   4.213
17491W        W89020   6.706   7.789  14.705
17492W        W89021  16.337  35.948  14.700
17493W        W89022  34.485  33.093  10.780
17494W        W89023   0.569  19.139   2.386
17495W        W89024  23.150  26.094  12.103
17496W        W89025  26.131  42.445   3.196
17497W        W89026  11.427  38.903  13.568
17498W        W89027  29.727   0.778  14.366
17499W        W89028  38.500  30.553  14.545
17500W        W89029  37.087  27.658  13.529
17501W        W89030  27.069   4.756  14.878
17502W        W89031   8.741  25.638  14.145
17503W        W89032  24.175   6.802  13.883
17504W        W89033  13.343   2.013   3.333
17505W        W89034   7.166  29.010   1.022
17506W        W89035  43.729  20.962   1.788
17507W        W89036  12.137  43.518  12.959
17508W        W89037  18.031  12.379  13.961
17509W        W89038   9.618  33.479   3.831
17510W        W89039  31.551  13.291  11.551
17511W        W89040  34.235   2.789  12.574
17512W        W89041   0.580  15.610  14.887
17513W        W89042  30.703  28.011   2.244
17514W        W89043  25.033  17.784  11.108
17515W        W89044  19.298  41.903   4.643
17516W        W89045  42.840   4.793   1.127
17517W        W89046  35.425  29.471  14.507
17518W        W89047  42.898  30.810   1.752
17519W        W89048   3.887  14.888   0.353
17520W        W89049  27.287  18.181  11.479
17521W        W89050  35.547  24.454   0.129
17522W        W89051  42.288  13.927  13.050
17523W        W89052  40.739  28.986   0.930
17524W        W89053  41.977  32.147  14.804
17525W        W89054  38.249  40.264  13.868
17526W        W89055  33.585   3.315  14.136
17527W        W89056  40.861  30.201   3.084
17528W        W89057  18.641  39.259  11.637
17529W        W89058   1.251  36.011  13.064
17530W        W89059  37.016  11.240   0.516
17531W        W89060   1.796  39.017  13.980
17532W        W89061   1.142  26.946   1.367
17533W        W89062  16.705  29.149  13.815
17534W        W89063  40.904  33.609  14.489
17535W        W89064   3.857  42.894  11.301
17536W        W89065  33.923  34.300  12.517
17537W        W89066  12.835  34.636   0.692
17538W        W89067   9.667  15.719   3.365
17539W        W89068  11.826   4.168  10.660
17540W        W89069   2.187  13.673   3.158
17541W        W89070  28.944  26.614  14.063
17542W        W89071   8.452  23.950   0.820
17543W        W89072   5.934   2.840   1.315
17544W        W89073  33.657   1.656  12.010
17545W        W89074  28.910   8.203   1.925
17546W        W89075  28.671  10.624   2.742
17547W        W89076   4.645  43.510  11.678
17548W        W89077  31.012   0.936  11.502
17549W        W89078  12.851  31.658   0.272
17550W        W89079  29.563  43.254   0.331
17551W        W89080   2.829  42.829  10.545
17552W        W89081   4.472  16.298   2.238
17553W        W89082  35.376  44.821  11.604
17554W        W89083   7.638   0.032   3.162
17555W        W89084  34.088  18.746  12.120
17556W        W89085  43.274  38.018  13.608
17557W        W89086  28.529  37.744  13.361
17558W        W89087  35.147   3.710  12.943
17559W        W89088  36.716  26.666  12.123
17560W        W89089   2.918   6.128   1.807
17561W        W89090  11.809  34.467  10.566
17562W        W89091  33.443  34.487   0.035
17563W        W89092  20.002  32.439   4.377
17564W        W89093   2.004  31.635  14.784
17565W        W89094   0.495  25.666   0.072
17566W        W89095  43.880  18.710  14.369
17567W        W89096  37.475  35.888  12.064
17568W        W89097  39.188  27.667   3.150
17569W        W89098  16.863  10.394   0.348
17570W        W89099  44.475  22.741  13.646
17571W        W89100   4.679  15.614   1.804
17572W        W89101  41.553  32.145   2.216
17573W        W89102   5.885  40.477   0.196
17574W        W89103  38.988  15.372  14.781
17575W        W89104  41.982   8.289   0.485
17576W        W89105   0.869   2.280   2.653
17577W        W89106  41.658   2.469   2.858
17578W        W89107  42.785  36.586  12.409
17579W        W89108  26.902   3.677   1.274
17580W        W89109  41.968  15.788   1.293
17581W        W89110  19.227  26.864  14.361
17582W        W89111   4.243   8.939  10.740
17583W        W89112  41.958   5.038  12.773
17584W        W89113  18.037  24.531   1.287
17585W        W89114  36.091  31.800   3.702
17586W        W89115   6.676  27.713  10.357
17587W        W89116  32.413  24.674  14.819
17588W        W89117  10.444  12.131  11.988
17589W        W89118  29.095   9.078  11.012
17590W        W89119  14.302   7.608  12.592
17591W        W89120  34.417  37.004  12.798
17592W        W89121  39.819   0.879  14.906
17593W        W89122  29.552  32.949  11.867
17594W        W89123  17.324  44.417  10.654
17595W        W89124  28.920  13.087  10.627
17596W        W89125  43.012  27.711   1.473
17597W        W89126  29.086   5.661  10.573
17598W        W89127  26.517   2.284  13.167
17599W        W89128  44.338   1.046  12.058
17600W        W89129  26.565  20.583  10.679
17601W        W89130   8.465  21.567  12.101
17602W        W89131  30.902   5.202   3.881
17603W        W89132  34.539  41.015   1.002
17604W        W89133  27.214  41.521  13.001
17605W        W89134  15.683  40.573   0.714
17606W        W89135  16.286   1.417   4.549
17607W        W89136  31.087  26.581   1.310
17608W        W89137  38.236   4.981   0.648
17609W        W89138   8.004  42.314  13.846
17610W        W89139  34.245  35.476   4.626
17611W        W89140  38.868   8.621   0.757
17612W        W89141  39.497   5.848   1.110
17613W        W89142  34.456   2.365  13.007
17614W        W89143  18.538  19.604  11.866
17615W        W89144  22.431  21.053  13.363
17616W        W89145   3.360  39.812  12.408
17617W        W89146  31.424  27.082  14.803
17618W        W89147  30.857  30.560  13.486
17619W        W89148  27.640  31.538   3.740
17620W        W89149  10.430  44.733  14.495
17621W        W89150  22.191  20.033  12.633
17622W        W89151  18.735  30.726   9.926
17623W        W89152  38.894  35.242   5.257
17624W        W89153  32.932  15.029  13.457
17625W        W89154  39.872  28.690   3.753
17626W        W89155   7.973  30.863  13.808
17627W        W89156   3.633   9.856  13.465
17628W        W89157  25.777  25.701   0.485
17629W        W89158  23.602  43.294   1.877
17630W        W89159   4.431  36.008  11.182
17631W        W89160   2.249  23.988   3.575
17632W        W89161  35.911  41.456   3.713
17633W        W89162  44.687  26.734  11.047
17634W        W89163  41.077   6.544  13.019
17635W        W89164  20.709  25.941  14.830
17636W        W89165  13.139   5.948  13.039
17637W        W89166   7.178  35.383  12.852
17638W        W89167  18.254   9.587   0.766
17639W        W89168  40.281  13.007   0.411
17640W        W89169  19.723  17.527  11.117
17641W        W89170   6.920  28.932   2.893
17642W        W89171  38.104  21.172   1.719
17643W        W89172   4.297  10.616  14.945
17644W        W89173  26.071   4.819   4.445
17645W        W89174  15.166  33.197  14.738
17646W        W89175  35.558   0.251  14.357
17647W        W89176  44.839  30.693  14.262
17648W        W89177  32.507  21.679   3.417
17649W        W89178   7.828  36.133   2.169
17650W        W89179   3.670  23.671   0.918
17651W        W89180  13.816   9.625  13.174
17652W        W89181  10.999   0.515   1.797
17653W        W89182  40.240  21.180   3.667
17654W        W89183   1.217  34.778   0.361
17655W        W89184   4.208  11.217  12.114
17656W        W89185  17.280   4.674  10.303
17657W        W89186   4.496  44.505  13.957
17658W        W89187  26.127  44.017  12.572
17659W        W89188  33.860  35.497  14.267
17660W        W89189   8.804  26.711   3.273
17661W        W89190   0.729  30.335  13.322
17662W        W89191  11.372  43.531   3.135
17663W        W89192  12.286  13.848  14.309
17664W        W89193  28.975  15.407   4.079
17665W        W89194  35.427  31.144   4.106
17666W        W89195  42.407  38.856  13.473
17667W        W89196  38.890  17.720  14.411
17668W        W89197  28.098  32.902  12.013
17669W        W89198  28.523  12.670  12.059
17670W        W89199  39.991  26.456  13.657
17671W        W89200   0.771  19.156  13.811
17672W        W89201   1.823   4.828   3.271
17673W        W89202  10.205  16.480  10.413
17674W        W89203  12.495  40.520  13.969
17675W        W89204  17.523   4.314  11.195
17676W        W89205  30.050  22.176  12.797
17677W        W89206  23.160  10.300  14.772
17678W        W89207  33.772  24.639  11.889
17679W        W89208  18.733   2.860  11.911
17680W        W89209  44.396  13.904   0.813
17681W        W89210  10.329  12.902   0.170
17682W        W89211  38.258   7.428  12.201
17683W        W89212  43.372  32.574  10.865
17684W        W89213  15.552  15.910   1.634
17685W        W89214  43.590  19.134   1.283
17686W        W89215   8.800  33.981   2.186
17687W        W89216  12.074  35.363  13.009
17688W        W89217  44.800  42.520   3.748
17689W        W89218  15.174  33.120  13.869
17690W        W89219  27.320  18.852   1.921
17691W        W89220   5.772   7.644   3.269
17692W        W89221   4.378   1.371   1.904
17693W        W89222  43.185  42.739   0.349
17694W        W89223   5.245  12.293  14.775
17695W        W89224  26.896  17.035  11.971
17696W        W89225  12.846  19.492  14.814
17697W        W89226  41.474  17.569   1.480
17698W        W89227  36.048  39.300  11.989
17699W        W89228  21.199  15.103   1.964
17700W        W89229  25.102  13.910   3.819
17701W        W89230  20.979  17.476   1.863
17702W        W89231  15.740  42.451   3.598
17703W        W89232  11.171  42.217   2.059
17704W        W89233  24.097  11.299   4.434
17705W        W89234  40.893  11.898  14.567
17706W        W89235  27.761  29.472   0.863
17707W        W89236  40.714  38.825  12.122
17708W        W89237  35.494  33.149  13.938
17709W        W89238  28.146  33.126   1.396
17710W        W89239  40.762  33.035  11.067
17711W        W89240  43.776   5.444  11.136
17712W        W89241  10.205  27.855   5.233
17713W        W89242   0.867  15.242   3.781
17714W        W89243   1.962   6.224   2.702
17715W        W89244   8.917   9.020   2.872
17716W        W89245  39.877  36.465  10.892
17717W        W89246  40.060  39.493  14.693
17718W        W89247  26.095  24.358  14.966
17719W        W89248   0.871  37.347  12.587
17720W        W89249  43.341  17.270  13.329
17721W        W89250  27.042  29.555   0.038
17722W        W89251  22.209  40.273  11.588
17723W        W89252  38.471  38.890   0.780
17724W        W89253  28.989   3.960   1.962
17725W        W89254  34.568   1.928   1.759
17726W        W89255   5.929  20.581  12.806
17727W        W89256  29.700  24.659   0.474
17728W        W89257  35.276  19.638  13.811
17729W        W89258  16.516  33.130   4.939
17730W        W89259  30.191   9.305  14.260
17731W        W89260  22.034  28.590  14.015
17732W        W89261  27.086  35.786   0.079
17733W        W89262  27.272   1.009  13.671
17734W        W89263  27.482  26.270  14.971
17735W        W89264  30.335  12.275  11.053
17736W        W89265  18.550  35.584  12.915
17737W        W89266  35.901  38.264   3.993
17738W        W89267  44.883  24.633  14.717
17739W        W89268  12.332  13.080  10.519
17740W        W89269  29.678  17.629  14.436
17741W        W89270   1.675   4.465  12.852
17742W        W89271  16.283  19.048   1.893
17743W        W89272  12.332  21.675   3.666
17744W        W89273  42.267   0.945   4.423
17745W        W89274  26.722  43.696   4.674
17746W        W89275  13.846  41.484  10.522
17747W        W89276  25.087  14.075  12.202
17748W        W89277  42.643   8.364  13.736
17749W        W89278  28.707  39.769   4.928
17750W        W89279  35.459  42.323   3.659
17751W        W89280  22.159  18.704  13.549
17752W        W89281  19.412  30.560  13.535
17753W        W89282  23.156  43.785  10.840
17754W        W89283   9.885  43.291   0.714
17755W        W89284  18.810  31.155  10.466
17756W        W89285  32.164  29.117  11.596
17757W        W89286  30.127  13.746   4.232
17758W        W89287  14.670  11.187   1.966
17759W        W89288  37.756  22.266   0.265
17760W        W89289   4.497  17.448   4.635
17761W        W89290  34.754  28.559   3.683
17762W        W89291  12.831  32.894   3.685
17763W        W89292  39.535  19.621   2.661
17764W        W89293  15.477  40.712   1.182
17765W        W89294  10.691   3.896  13.989
17766W        W89295   3.198  28.031   0.672
17767W        W89296  37.284   4.280   2.221
17768W        W89297  38.967  33.880   2.819
17769W        W89298  32.128   0.287   0.540
17770W        W89299  41.279  23.211   0.247
17771W        W89300  27.358  14.119  11.601
17772W        W89301  19.475  37.558   4.129
17773W        W89302  13.576  25.615  10.948
17774W        W89303  37.630  39.212   2.790
17775W        W89304  35.175  24.504   2.361
17776W        W89305  11.372  22.729   2.187
17777W        W89306  31.594   8.021  14.863
17778W        W89307  25.735  39.842   3.588
17779W        W89308  27.685  44.045  11.932
17780W        W89309  14.275  32.412   4.038
17781W        W89310  38.898  21.686  12.647
17782W        W89311  17.314  20.769  14.831
17783W        W89312  24.397  12.895  13.070
17784W        W89313  32.024   3.141   1.883
17785W        W89314  29.546  21.568   4.770
17786W        W89315  15.146  41.929   3.459
17787W        W89316  36.604   4.192   1.217
17788W        W89317  23.787  28.564   1.010
17789W        W89318  26.586  25.226  11.063
17790W        W89319  14.700  20.887  10.824
17791W        W89320  41.515  24.597  12.135
17792W        W89321  20.526  28.762  14.001
17793W        W89322  26.034   5.178   3.212
17794W        W89323  29.836  32.389  10.399
17795W        W89324  30.017  35.921   3.345
17796W        W89325  37.305  34.406   0.361
17797W        W89326   1.438  11.968  12.170
17798W        W89327  30.372  34.408  12.064
17799W        W89328   3.702   1.733  13.784
17800W        W89329  44.078  28.852  13.696
17801W        W89330  26.248  41.762   1.844
17802W        W89331  28.476  26.392  14.026
17803W        W89332  16.873  37.957  13.089
17804W        W89333  44.288   7.176  12.600
17805W        W89334  19.514  23.538   0.061
17806W        W89335  32.416  35.926   4.620
17807W        W89336  34.324  35.354  14.441
17808W        W89337  39.109  16.491  12.551
17809W        W89338  29.923  29.627  14.705
17810W        W89339  36.882  18.044  14.737
17811W        W89340  35.510  25.776  11.050
17812W        W89341  14.513  27.129  13.542
17813W        W89342  43.472  41.212  10.458
17814W        W89343  21.682  38.873  12.394
17815W        W89344  40.902   8.128   3.072
17816W        W89345  35.639  27.508  10.362
17817W        W89346   7.174  36.473  12.251
17818W        W89347  39.884  33.535   1.822
17819W        W89348  30.115  33.179  14.270
17820W        W89349  17.771  11.264  14.500
17821W        W89350   7.278  31.149   1.929
17822W        W89351  13.690  44.450  14.772
17823W        W89352  13.016  11.065   4.137
17824W        W89353  11.906  24.240  13.768
17825W        W89354  38.276   6.936   0.851
17826W        W89355  37.940  26.244  12.898
17827W        W89356  23.876  43.748   0.652
17828W        W89357  32.374   5.315   3.678
17829W        W89358  42.899  36.936   3.705
17830W        W89359  40.289  12.872  12.242
17831W        W89360  32.177  25.055   2.779
17832W        W89361   0.971  12.158  12.275
17833W        W89362  27.754  10.398  10.056
17834W        W89363  29.009  40.731  13.723
17835W        W89364  17.076   0.849  14.011
17836W        W89365  35.974   0.702   4.095
17837W        W89366  27.454  18.482  12.986
17838W        W89367   9.892   5.077   0.429
17839W        W89368  27.424  44.339  14.468
17840W        W89369  24.985  22.127  12.621
17841W        W89370   0.977  39.455   2.791
17842W        W89371  42.294   8.315   1.366
17843W        W89372   6.309  44.348   4.652
17844W        W89373  20.582  36.054  14.204
17845W        W89374  43.072  18.485  10.279
17846W        W89375  25.991  24.879  14.005
17847W        W89376  21.681  32.347   0.969
17848W        W89377  25.311  34.985   5.129
17849W        W89378   3.710  10.562  14.848
17850W        W89379  44.806  35.289  13.785
17851W        W89380  10.647  17.860  12.162
17852W        W89381   2.209  19.684  11.590
17853W        W89382  30.633  21.092   3.605
17854W        W89383  11.063  33.026  11.531
17855W        W89384  41.570  33.545  12.784
17856W        W89385   0.017  24.083   4.772
17857W        W89386  22.018   0.963   4.247
17858W        W89387  44.996  35.670   1.600
17859W        W89388  40.779  42.348  13.252
17860W        W89389  11.641  18.676  14.704
17861W        W89390  37.094   1.746  14.308
17862W        W89391  33.399  30.997  11.202
17863W        W89392   3.821  26.933  10.692
17864W        W89393  32.868  17.153  13.778
17865W        W89394  38.186   9.368  10.822
17866W        W89395  27.906  31.072   3.784
17867W        W89396  33.832  36.328   4.435
17868W        W89397  12.277   3.040   3.866
17869W        W89398   8.396  16.626   3.760
17870W        W89399  21.209  29.472  12.912
17871W        W89400  15.079  23.257   1.243
17872W        W89401  18.521  37.858  10.542
17873W        W89402  42.499  38.274   2.187
17874W        W89403   2.208  28.477  13.396
17875W        W89404  18.164  33.648   0.637
17876W        W89405   8.075  14.596   0.577
17877W        W89406   6.408  23.776   0.096
17878W        W89407  33.440  17.024   0.374
17879W        W89408  25.098  27.706  12.506
17880W        W89409  42.221  30.489  13.812
17881W        W89410  39.691   1.629   4.625
17882W        W89411  29.458  31.178  10.451
17883W        W89412  11.818   4.863   1.209
17884W        W89413  19.070  28.394   3.128
17885W        W89414  38.491   3.924   1.400
17886W        W89415  41.473  24.360   1.337
17887W        W89416  22.773  34.783  11.581
17888W        W89417  16.592  18.415   5.037
17889W        W89418  11.225  27.073  13.153
17890W        W89419   6.732  21.591  10.393
17891W        W89420  26.049  21.078   2.866
17892W        W89421   8.128  38.130   2.808
17893W        W89422  10.909  12.718   3.254
17894W        W89423  41.511  20.616  13.541
17895W        W89424  14.560   0.285  14.486
17896W        W89425  42.867  23.663  12.815
17897W        W89426  24.152  20.018  12.675
17898W        W89427  10.387  26.625  10.251
17899W        W89428   9.159  44.383  12.846
17900W        W89429  20.200  12.664  14.340
17901W        W89430  38.398   4.015  13.835
17902W        W89431  36.919  26.975   4.649
17903W        W89432  12.183  39.368   2.613
17904W        W89433  22.524  11.455  13.500
17905W        W89434  15.623   4.827  11.137
17906W        W89435  23.601   0.494  13.983
17907W        W89436  29.424  26.560  12.330
17908W        W89437  32.470  44.983   2.755
17909W        W89438   3.924  21.079   2.689
17910W        W89439  11.442  25.743  14.383
17911W        W89440  31.439  23.571   0.330
17912W        W89441  43.097   3.661  14.812
17913W        W89442  43.522  13.060  10.824
17914W        W89443  15.277  26.137   2.392
17915W        W89444  11.825  19.673   4.592
17916W        W89445  10.856   6.686   3.408
17917W        W89446  20.423   2.030   0.753
17918W        W89447  16.960   6.384   3.710
17919W        W89448  37.960  18.297   3.833
17920W        W89449  39.880  24.705  13.016
17921W        W89450  18.747   2.360   1.329
17922W        W89451  29.829  26.763   4.052
17923W        W89452  24.240  16.127   3.551
17924W        W89453   8.972  18.823   9.794
17925W        W89454  27.077  28.113  13.986
17926W        W89455  41.462   6.133   0.324
17927W        W89456   0.475  44.217  11.080
17928W        W89457  12.177   5.326   4.800
17929W        W89458  22.087  38.213   3.625
17930W        W89459  32.146  14.813  10.920
17931W        W89460  32.157  40.437  12.424
17932W        W89461   2.425   0.503  10.494
17933W        W89462  26.388   9.199  13.344
17934W        W89463  33.642   9.603  13.465
17935W        W89464  37.159   1.203   1.914
17936W        W89465   6.867  15.987  13.928
17937W        W89466   2.894  33.172   1.339
17938W        W89467  30.436  12.873  13.041
17939W        W89468  33.020  26.525  12.193
17940W        W89469  27.044  15.673   2.669
17941W        W89470   2.200   0.735   4.100
17942W        W89471  42.301  29.130  12.884
17943W        W89472  36.076  25.469   1.080
17944W        W89473   9.616  22.158  10.943
17945W        W89474   6.327   6.821   2.973
17946W        W89475  20.207   5.822  12.909
17947W        W89476  15.569  36.423  12.645
17948W        W89477  34.361  37.362   3.284
17949W        W89478  26.195   3.340   4.721
17950W        W89479  18.650  36.119   3.777
17951W        W89480  44.751  20.431  13.266
17952W        W89481  26.584  16.265   4.090
17953W        W89482   5.485   5.390   4.496
17954W        W89483  38.400  34.350  14.581
17955W        W89484  15.742  27.398  11.141
17956W        W89485  41.514  16.172  13.287
17957W        W89486  23.005   6.431   0.846
17958W        W89487  11.304  17.006   2.005
17959W        W89488  42.569  38.359  13.787
17960W        W89489  39.778  29.946  10.979
17961W        W89490  29.415   1.358   3.391
17962W        W89491  14.180  24.446  14.939
17963W        W89492  26.590  40.703  11.928
17964W        W89493  24.762  22.783   2.753
17965W        W89494  30.031  30.395  14.078
17966W        W89495  26.786  26.981   1.846
17967W        W89496  29.674  27.986   0.801
17968W        W89497   3.117  32.506  14.883
17969W        W89498  17.042   5.850   0.779
17970W        W89499  26.187  24.253  13.522
17971W        W89500   5.449  34.434   0.263
17972W        W89501  21.737   3.160  12.087
17973W        W89502  31.975  41.823  12.912
17974W        W89503  37.975  16.277   1.660
17975W        W89504  20.206  11.410   3.488
17976W        W89505  16.315  25.515  13.344
17977W        W89506   1.250   2.457  14.360
17978W        W89507  10.971   1.230   5.540
17979W        W89508  39.581  31.674   2.741
17980W        W89509  11.723  12.312   3.893
17981W        W89510  31.083  20.547  14.210
17982W        W89511  34.179  21.623  11.985
17983W        W89512  22.580  12.230  12.877
17984W        W89513  30.644  11.738   3.386
17985W        W89514  40.369  35.203  11.533
17986W        W89515  18.016  11.773   1.076
17987W        W89516  41.725   3.616  14.817
17988W        W89517  22.912  20.685  11.555
17989W        W89518  28.501  44.003   2.345
17990W        W89519  35.116  31.648  13.524
17991W        W89520   3.309  26.473   2.354
17992W        W89521   0.088   8.728   4.191
17993W        W89522  32.948   5.986  12.567
17994W        W89523  19.025   4.256   2.841
17995W        W89524  27.882  22.752  10.418
17996W        W89525  31.363  41.549   3.900
17997W        W89526  20.247  22.038   3.234
17998W        W89527  20.604  14.527  11.188
17999W        W89528  27.461   2.981  12.582
18000W        W89529  40.341  19.580   3.352
18001W        W89530  26.237  42.266  13.282
18002W        W89531  26.869  25.966   0.408
18003W        W89532  24.688  30.425  12.135
18004W        W89533  29.557  10.331   3.622
18005W        W89534  21.373  15.621   0.014
18006W        W89535  27.087   6.903   0.376
18007W        W89536   6.017  31.318   4.626
18008W        W89537  32.507  18.821  14.838
18009W        W89538  25.505  19.738   2.827
18010W        W89539  17.471  28.932  14.406
18011W        W89540  31.646  26.665   2.753
18012W        W89541   9.758  39.212   0.937
18013W        W89542  14.481  36.270   3.612
18014W        W89543  12.333  21.210   4.124
18015W        W89544  21.149  42.357   3.304
18016W        W89545  14.678   4.825  14.197
18017W        W89546   9.412  40.897   1.348
18018W        W89547  17.715  22.228   1.482
18019W        W89548  28.955  32.641  13.942
18020W        W89549   0.831  28.479   4.491
18021W        W89550  33.924  37.881  11.507
18022W        W89551  42.619  37.881   3.757
18023W        W89552  22.135  32.557   3.171
18024W        W89553  44.503   6.195   4.298
18025W        W89554  21.068  15.215   0.582
18026W        W89555  36.791  22.578   2.904
18027W        W89556  35.136  31.635  14.321
18028W        W89557  15.595  16.822   1.892
18029W        W89558  28.903  25.999   3.896
18030W        W89559  36.302  35.939   5.268
18031W        W89560  11.774   1.598  10.697
18032W        W89561   3.314  40.802   0.169
18033W        W89562  21.565  28.420   4.215
18034W        W89563  41.156  26.127  14.823
18035W        W89564  29.490  13.530  13.345
18036W        W89565  31.835  28.699  11.620
18037W        W89566  32.663  29.560   3.135
18038W        W89567   4.634  10.774   2.667
18039W        W89568  23.463  44.548   4.022
18040W        W89569  15.827  15.467  10.249
18041W        W89570  32.901  43.244   3.824
18042W        W89571   6.693  10.196   3.846
18043W        W89572  41.217  17.020  13.435
18044W        W89573  25.538  29.922   0.373
18045W        W89574   5.758  28.217   4.207
18046W        W89575   1.937  14.198   0.476
18047W        W89576  18.642  27.495   9.721
18048W        W89577  20.231  39.819  12.996
18049W        W89578  12.071  25.250  11.995
18050W        W89579  22.225  39.390   2.214
18051W        W89580  15.344  41.303  13.882
18052W        W89581  27.681  21.622   3.466
18053W        W89582  20.844   2.478  11.518
18054W        W89583  28.808  23.415   3.656
18055W        W89584  30.471  28.654   3.234
18056W        W89585  42.278  37.863  13.462
18057W        W89586   8.865  36.908  11.052
18058W        W89587  19.636  25.569   3.439
18059W        W89588  30.403  28.019  10.216
18060W        W89589  24.647  23.183  13.344
18061W        W89590  29.913  18.752   0.018
18062W        W89591  38.918  40.629  10.718
18063W        W89592   6.376  36.700  12.014
18064W        W89593  39.780  36.019  12.561
18065W        W89594  36.762  42.060  10.938
18066W        W89595   1.703  36.423   0.292
18067W        W89596   9.793   4.808   3.629
18068W        W89597  35.887  17.197   1.216
18069W        W89598  41.260   2.840   0.888
18070W        W89599  37.515   8.874  12.113
18071W        W89600  43.527  37.763  10.703
18072W        W89601  34.382  35.412  14.949
18073W        W89602  41.013  22.551  13.342
18074W        W89603  25.822  26.859  11.605
18075W        W89604   9.259  26.329   4.707
18076W        W89605  33.155  25.320   0.730
18077W        W89606   6.154  22.029  13.336
18078W        W89607   7.804  33.057   0.267
18079W        W89608  25.935   1.877  12.423
18080W        W89609  37.709  11.802  11.561
18081W        W89610  33.301   8.842  14.907
18082W        W89611  44.402  21.046   3.606
18083W        W89612   1.058  22.501  14.230
18084W        W89613  43.050  33.946   4.631
18085W        W89614  41.008  19.328   1.327
18086W        W89615   3.467   3.867   1.308
18087W        W89616  12.860  24.434   1.810
18088W        W89617  33.509  21.068  11.756
18089W        W89618  23.031  41.990   4.678
18090W        W89619  35.521  17.141   0.857
18091W        W89620  40.478  33.259   5.223
18092W        W89621  18.574  31.386  11.497
18093W        W89622  37.655  11.049  11.044
18094W        W89623  38.362  29.590   4.651
18095W        W89624  22.503  13.234  10.091
18096W        W89625  34.825  36.155  12.453
18097W        W89626  31.548  12.021  12.016
18098W        W89627  26.532  18.388   0.255
18099W        W89628   6.806   7.134   1.818
18100W        W89629  38.767  35.125   0.180
18101W        W89630  34.680  23.181   2.616
18102W        W89631  42.243   4.682  14.057
18103W        W89632   4.425  40.321   2.321
18104W        W89633   9.458  40.641  12.565
18105W        W89634  44.378  42.894  12.871
18106W        W89635  30.227  23.722   1.236
18107W        W89636  28.891  43.363  11.989
18108W        W89637  21.198  31.173   3.297
18109W        W89638  12.512  10.677  14.425
18110W        W89639  11.197  21.215   2.642
18111W        W89640  18.614  20.002  10.434
18112W        W89641   7.375   2.889   1.443
18113W        W89642  15.041  36.171   4.329
18114W        W89643  32.840  42.901   2.172
18115W        W89644  23.018   5.652  12.471
18116W        W89645  40.845  23.568  12.597
18117W        W89646  18.618  35.134  12.413
18118W        W89647  15.670  22.230  11.982
18119W        W89648   0.528  33.246  12.864
18120W        W89649  25.277  20.946   1.107
18121W        W89650  10.962  33.833  11.607
18122W        W89651  34.817   0.107   5.028
18123W        W89652   5.251   8.874  14.561
18124W        W89653  12.136   2.782   0.318
18125W        W89654  16.574  33.369  10.907
18126W        W89655  26.614  39.883  11.272
18127W        W89656   0.643   5.192   3.564
18128W        W89657  32.546  38.621   3.927
18129W        W89658  39.397  27.911  11.975
18130W        W89659  42.679   9.139   0.492
18131W        W89660  34.060   8.656  13.773
18132W        W89661  19.521  36.942  11.166
18133W        W89662  13.826  11.960   0.863
18134W        W89663  28.424   1.670  10.473
18135W        W89664  11.482  34.652   4.203
18136W        W89665  32.391  17.812  14.759
18137W        W89666  38.046  38.855   1.866
18138W        W89667  27.079  21.210  12.268
18139W        W89668  42.006  13.330   0.066
18140W        W89669  44.034  14.274  11.497
18141W        W89670  31.904  15.285  11.783
18142W        W89671   5.997  40.462  14.312
18143W        W89672  41.223  38.773   0.276
18144W        W89673  23.718  35.995   2.151
18145W        W89674  37.567  25.120  11.107
18146W        W89675  43.397  21.676  14.980
18147W        W89676  13.403   8.630   1.442
18148W        W89677  27.555  25.231  13.711
18149W        W89678  31.355   0.843   5.027
18150W        W89679  42.947  36.593  13.297
18151W        W89680   1.949  11.862   4.714
18152W        W89681  26.728  19.622   4.246
18153W        W89682  10.273  23.578   4.148
18154W        W89683   6.873  35.867   4.138
18155W        W89684  26.690   4.390  10.991
18156W        W89685  42.884  36.618   3.134
18157W        W89686  37.464  10.324  14.839
18158W        W89687  11.818  43.751  10.770
18159W        W89688  43.155  15.704   2.266
18160W        W89689   5.636   1.274   2.347
18161W        W89690  32.055  43.056  13.464
18162W        W89691  15.637  37.061  13.138
18163W        W89692  13.093  36.447  12.934
18164W        W89693  15.245   1.428   4.843
18165W        W89694   7.231  38.335   0.459
18166W        W89695  33.001  35.726  12.977
18167W        W89696   3.201  26.659   0.810
18168W        W89697   7.369   1.637   3.319
18169W        W89698   9.562   4.739   1.487
18170W        W89699   7.312  34.532  10.818
18171W        W89700  29.925  11.938   3.106
18172W        W89701   4.503  24.997  12.087
18173W        W89702  32.533  31.348   2.238
18174W        W89703  39.465  44.277   4.620
18175W        W89704  10.026  31.429  11.888
18176W        W89705   5.437  43.227   2.439
18177W        W89706   4.794  18.945   2.324
18178W        W89707  28.470  31.675   2.672
18179W        W89708  22.432  22.108   1.915
18180W        W89709  41.558  26.254   2.698
18181W        W89710  31.004  37.111   0.634
18182W        W89711  11.578   4.045  14.819
18183W        W89712  27.035  14.149   1.842
18184W        W89713  24.993   6.807   1.479
18185W        W89714  36.392  30.769  10.709
18186W        W89715  25.229   9.339  11.784
18187W        W89716  33.926  12.601   1.449
18188W        W89717   9.812   9.904   1.567
18189W        W89718  16.242  36.042   2.344
18190W        W89719   1.791  41.044   1.277
18191W        W89720   2.909  44.903   2.472
18192W        W89721  31.274  32.318   3.194
18193W        W89722  17.143   3.462   4.586
18194W        W89723  27.665  35.174  12.765
18195W        W89724  34.563  26.013  11.219
18196W        W89725  11.962  26.084   0.717
18197W        W89726  31.275  11.176   4.669
18198W        W89727  11.791  20.131  10.548
18199W        W89728   5.737   1.031   1.019
18200W        W89729  14.566  25.189  13.580
18201W        W89730  36.481  21.230   4.711
18202W        W89731  17.489  35.962  11.105
18203W        W89732  34.967  29.582  11.565
18204W        W89733  33.809  20.035   3.160
18205W        W89734  37.473  38.940   0.686
18206W        W89735  31.220  24.128  14.819
18207W        W89736  26.122  14.990  14.305
18208W        W89737  26.812   0.476  13.096
18209W        W89738  20.190  16.540  14.825
18210W        W89739  38.446  11.121   4.336
18211W        W89740  18.602  43.138   4.905
18212W        W89741  17.493   7.624   1.280
18213W        W89742  18.139   8.093   2.832
18214W        W89743  12.925  14.588  14.862
18215W        W89744  35.976  37.389   4.066
18216W        W89745  19.983   7.784   1.446
18217W        W89746  24.618  16.741   4.120
18218W        W89747  43.382  26.460   1.887
18219W        W89748  13.127  27.517   0.684
18220W        W89749  36.976  29.139   1.008
18221W        W89750  11.766  34.373   1.674
18222W        W89751   1.401   6.751  13.510
18223W        W89752  14.262   3.763   1.419
18224W        W89753  27.512  44.234  12.450
18225W        W89754   5.663  29.160   0.739
18226W        W89755  17.620  36.847  11.514
18227W        W89756  11.910   2.826   2.673
18228W        W89757  16.755  22.524  13.900
18229W        W89758  16.280  40.797   4.373
18230W        W89759  21.748  40.960   2.029
18231W        W89760   8.462   5.236  14.534
18232W        W89761  38.008  19.315   4.599
18233W        W89762  10.188   7.405   3.490
18234W        W89763  37.967  10.774  13.349
18235W        W89764  15.059  22.315  10.423
18236W        W89765  39.785  26.057   1.251
18237W        W89766  28.167  38.459  12.160
18238W        W89767  22.062  35.337   0.980
18239W        W89768  13.102   7.841   3.240
18240W        W89769  36.161  20.645   1.039
18241W        W89770   0.831  10.418  14.443
18242W        W89771   8.883  31.149  13.152
18243W        W89772  22.806  40.811   3.563
18244W        W89773   6.017  32.100  11.586
18245W        W89774   1.280   1.053  10.769
18246W        W89775  39.299  20.192  10.882
18247W        W89776  27.374  14.261  10.699
18248W        W89777  14.316  10.298  12.391
18249W        W89778  25.178  11.368   0.730
18250W        W89779  29.104  43.905  14.980
18251W        W89780   0.530   8.346   0.048
18252W        W89781   2.651  10.142   3.782
18253W        W89782  36.609   7.009   0.387
18254W        W89783   0.361   7.197  13.293
18255W        W89784  18.709  18.009   3.251
18256W        W89785  25.454  41.874   2.122
18257W        W89786  29.058   7.204   2.142
18258W        W89787   3.970   9.011   2.310
18259W        W89788  28.134  30.653   1.370
18260W        W89789  22.654  39.016  14.974
18261W        W89790  41.998  20.233  13.900
18262W        W89791   5.627  33.124   3.098
18263W        W89792   8.297  37.353  11.602
18264W        W89793  18.162  12.247  13.173
18265W        W89794  22.000   3.144  13.369
18266W        W89795  14.548  30.996  11.972
18267W        W89796   5.203  16.689  12.393
18268W        W89797   4.063  43.335   2.169
18269W        W89798  14.286  18.977  10.625
18270W        W89799  40.137   8.244  12.383
18271W        W89800   9.233  31.397   1.488
18272W        W89801  38.342  20.993  13.046
18273W        W89802   6.084  17.941  11.518
18274W        W89803  44.417  24.221  13.532
18275W        W89804  11.209   5.404  14.790
18276W        W89805  28.160  30.465   2.198
18277W        W89806  29.691   7.886   3.064
18278W        W89807  29.216  37.495   4.047
18279W        W89808   9.867   6.644   2.500
18280W        W89809  27.209  12.402   0.694
18281W        W89810  21.007  12.398   0.482
18282W        W89811  35.260   6.339   1.113
18283W        W89812  11.629   3.943  11.077
18284W        W89813   8.965  35.122   1.159
18285W        W89814  17.309   8.878  13.167
18286W        W89815  20.216   0.315   3.076
18287W        W89816  14.298  31.068  14.807
18288W        W89817  25.727  26.563   0.104
18289W        W89818  23.997  41.886  12.373
18290W        W89819  41.767  34.525   2.978
18291W        W89820  40.688  38.178   2.289
18292W        W89821   6.360  18.110   0.768
18293W        W89822  44.756  44.514  11.538
18294W        W89823   4.461  35.606   0.729
18295W        W89824  10.141  24.734   0.347
18296W        W89825   0.724  12.882   1.395
18297W        W89826  16.337   1.958   4.543
18298W        W89827  39.979  36.486   4.075
18299W        W89828  42.958  12.370  14.371
18300W        W89829  37.024  14.864   4.838
18301W        W89830  10.281  13.799  12.161
18302W        W89831  23.151  27.482   2.798
18303W        W89832  29.189   2.965  11.978
18304W        W89833  16.058  33.665  13.903
18305W        W89834   4.244  12.743  11.613
18306W        W89835  40.520  36.721   3.229
18307W        W89836   6.288  40.318   2.777
18308W        W89837   7.521  30.551   0.846
18309W        W89838   3.265  13.103  13.611
18310W        W89839  17.479  11.746   2.479
18311W        W89840  19.763   0.883   1.226
18312W        W89841  13.579  18.260   0.267
18313W        W89842   0.675   5.775   0.176
18314W        W89843  21.974  44.954  10.602
18315W        W89844  10.711   4.179  10.940
18316W        W89845  30.726  16.292   5.016
18317W        W89846   5.492   4.822   1.337
18318W        W89847  30.030  32.835  13.456
18319W        W89848  18.675  25.610  14.968
18320W        W89849  16.070  33.667  14.924
18321W        W89850   9.484  13.988   0.265
18322W        W89851   2.220  14.759  11.408
18323W        W89852  29.342  41.903  10.658
18324W        W89853  24.060   9.907  11.614
18325W        W89854  19.441  36.154  12.029
18326W        W89855  18.264  26.176   0.238
18327W        W89856  38.795   4.295   2.663
18328W        W89857   3.929  23.680  12.971
18329W        W89858   8.990   7.527   1.849
18330W        W89859  13.412   5.497  11.173
18331W        W89860  27.180   4.267   4.636
18332W        W89861  17.571   7.303  12.954
18333W        W89862  26.131  11.830   0.004
18334W        W89863   7.275  35.811   2.736
18335W        W89864  17.291  11.148  11.498
18336W        W89865  24.694   6.852   4.436
18337W        W89866  25.215  32.776   2.796
18338W        W89867  40.932  43.269  14.284
18339W        W89868   7.390  42.427  14.889
18340W        W89869  25.182  40.710   3.195
18341W        W89870  20.701  33.100  13.182
18342W        W89871   0.482  26.593  11.521
18343W        W89872  42.972  21.428   1.757
18344W        W89873  43.767  22.064   0.495
18345W        W89874  36.176  11.482  10.263
18346W        W89875  38.600  16.538  14.351
18347W        W89876   5.953   7.997   3.640
18348W        W89877   8.840  20.634  13.521
18349W        W89878  12.808  41.760   3.298
18350W        W89879  24.710  18.013  12.105
18351W        W89880  14.190   0.290  14.095
18352W        W89881  14.790  42.247   2.190
18353W        W89882  33.127  31.936  14.866
18354W        W89883  29.589  33.696  12.108
18355W        W89884  26.699  42.504  13.294
18356W        W89885   4.271  21.151   4.901
18357W        W89886  32.773  18.816  13.365
18358W        W89887  24.997  16.079   3.381
18359W        W89888  39.280  43.776   1.439
18360W        W89889  15.474  39.888   0.796
18361W        W89890  20.125   2.752   1.947
18362W        W89891  33.047  41.119  10.350
18363W        W89892  13.915   8.150  10.692
18364W        W89893  37.713   5.862   4.660
18365W        W89894  23.998  41.979  14.746
18366W        W89895  37.090   9.389  12.824
18367W        W89896   7.828  26.555   4.667
18368W        W89897  21.248  39.445   1.882
18369W        W89898  29.949   1.041   2.729
18370W        W89899  32.435  42.871  14.399
18371W        W89900  12.898  17.507  10.249
18372W        W89901   0.283  38.316   3.229
18373W        W89902   0.762  36.869   0.780
18374W        W89903  12.481  41.333  10.658
18375W        W89904  18.093  18.173  12.879
18376W        W89905  38.793  44.760   3.194
18377W        W89906  40.023  13.330  11.083
18378W        W89907  33.620  32.083  14.872
18379W        W89908  28.945  40.861   3.713
18380W        W89909  35.308  29.271  13.092
18381W        W89910  23.604  18.103  14.648
18382W        W89911   1.340  38.746  11.830
18383W        W89912  14.333  38.245   2.959
18384W        W89913  37.937  33.569   1.413
18385W        W89914   2.600  11.620  11.530
18386W        W89915  19.636  41.344  14.361
18387W        W89916  36.506  22.560   1.909
18388W        W89917  17.302  44.601  11.441
18389W        W89918  43.515  10.279   4.306
18390W        W89919  11.612  33.199  12.891
18391W        W89920  13.817  16.175  13.424
18392W        W89921  44.895   4.685  14.947
18393W        W89922  17.278  18.480   4.644
18394W        W89923  35.348  23.551  11.555
18395W        W89924  34.201  15.636  13.040
18396W        W89925  36.377   6.696  12.884
18397W        W89926  14.936  19.758  14.007
18398W        W89927   6.735  39.714  11.015
18399W        W89928  21.188  28.433   2.569
18400W        W89929   2.845   2.148   0.821
18401W        W89930  43.256  12.679  10.501
18402W        W89931  17.259  29.075  12.555
18403W        W89932  44.731  29.919   0.979
18404W        W89933  23.211  21.351  14.747
18405W        W89934  18.951  33.130   1.155
18406W        W89935   5.865  34.626  10.378
18407W        W89936  28.052  18.062   0.794
18408W        W89937  23.637   7.396  14.867
18409W        W89938  36.051  35.334   4.582
18410W        W89939  16.082   4.936  10.828
18411W        W89940  23.029  11.336  13.465
18412W        W89941   7.205   1.110  13.831
18413W        W89942  33.139  16.305   0.876
18414W        W89943  37.439  21.259   3.906
18415W        W89944  38.848  23.480  11.935
18416W        W89945  23.136  22.282   1.418
18417W        W89946  43.720  26.039  13.998
18418W        W89947  25.003  13.769  11.512
18419W        W89948  24.418  14.241   0.023
18420W        W89949   9.037  26.231   3.461
18421W        W89950   0.238   0.191   2.302
18422W        W89951  24.933  35.902   2.871
18423W        W89952  25.553  30.971  11.542
18424W        W89953  24.474  29.050   4.095
18425W        W89954  17.426  24.592   4.087
18426W        W89955  32.404  20.152   0.786
18427W        W89956  35.529  10.757   3.598
18428W        W89957   1.873  44.311  14.906
18429W        W89958  21.698  30.452   1.786
18430W        W89959   4.514  27.008   1.229
18431W        W89960  41.886   6.765   0.679
18432W        W89961  27.876   7.374  10.115
18433W        W89962  28.928   3.991   1.443
18434W        W89963  34.776  17.203  12.997
18435W        W89964  38.856  26.674  11.551
18436W        W89965   0.366  10.783   3.882
18437W        W89966  24.007  25.963   0.756
18438W        W89967   2.537  38.308   2.171
18439W        W89968  44.990  19.672  11.337
18440W        W89969  13.408   8.828   2.365
18441W        W89970   3.358  17.501  11.967
18442W        W89971  26.013  13.077  14.335
18443W        W89972  37.579  37.389   3.565
18444W        W89973  17.261   4.260   0.848
18445W        W89974   2.207  26.409   1.822
18446W        W89975   0.188  31.004   0.488
18447W        W89976  17.084  30.098  13.467
18448W        W89977  32.109  28.860  14.769
18449W        W89978  31.771  13.054   3.802
18450W        W89979  16.294   4.855  12.667
18451W        W89980   9.172   7.399  11.548
18452W        W89981  36.267   9.107   3.639
18453W        W89982  20.593   0.278   3.712
18454W        W89983   9.747  21.063  14.054
18455W        W89984  38.858  31.113   1.338
18456W        W89985  42.465  36.060  13.095
18457W        W89986  23.449  26.952   1.798
18458W        W89987  35.972  27.331   3.579
18459W        W89988  35.903  24.873  13.766
18460W        W89989  28.258  40.472  11.502
18461W        W89990  41.815  10.952  11.688
18462W        W89991  41.452  44.334   2.619
18463W        W89992  18.141  34.886  12.505
18464W        W89993  37.842  43.760  12.473
18465W        W89994  43.372  23.569  12.169
18466W        W89995  21.610  38.432   3.893
18467W        W89996  12.231  14.111  13.354
18468W        W89997   6.382  38.958  14.756
18469W        W89998  31.692  40.001   2.306
18470W        W89999  17.664   0.333   1.698
18471W        W90000  30.050  22.275  10.430
18472W        W90001  25.553  29.323  14.015
18473W        W90002  24.136  17.563   3.255
18474W        W90003   6.025  35.001   3.337
18475W        W90004  38.799  31.868   3.759
18476W        W90005  18.350  35.018   2.922
18477W        W90006  42.272  41.939  14.898
18478W        W90007  20.717  35.165  13.896
18479W        W90008  23.783  44.211  11.575
18480W        W90009  32.528  42.311  10.924
18481W        W90010  25.644  41.767  14.762
18482W        W90011  28.787  34.981   2.660
18483W        W90012  10.279  30.816  12.926
18484W        W90013  36.131  30.169  14.469
18485W        W90014   6.760  39.754  14.700
18486W        W90015  27.974  32.260  13.151
18487W        W90016  17.260  18.174   1.711
18488W        W90017  17.609  35.563   1.256
18489W        W90018  17.124  36.939  11.325
18490W        W90019   3.129  12.551   4.975
18491W        W90020   5.696  10.259   1.714
18492W        W90021  17.591   6.599  12.148
18493W        W90022  33.341  35.573  14.282
18494W        W90023  44.046  15.749   1.215
18495W        W90024  10.162  44.713  11.563
18496W        W90025  40.208   7.118  13.216
18497W        W90026  21.443  29.684   3.206
18498W        W90027   1.928  41.076  13.865
18499W        W90028  12.762  18.971  10.486
18500W        W90029  23.487  38.137  11.618
18501W        W90030  39.480  20.512  11.674
18502W        W90031  37.088   5.465   2.785
18503W        W90032  32.568  24.334  10.596
18504W        W90033  37.209  11.625  14.396
18505W        W90034   8.447  40.610   2.829
18506W        W90035  27.076  29.094   4.035
18507W        W90036  17.197  27.556   4.004
18508W        W90037   6.898  16.230  14.879
18509W        W90038  17.197  29.506  11.173
18510W        W90039  12.568   2.473   3.144
18511W        W90040   6.448  42.772   0.526
18512W        W90041  30.449   7.778   1.839
18513W        W90042  27.574  41.263  13.924
18514W        W90043  31.261  15.939   4.540
18515W        W90044  43.774   3.536   0.862
18516W        W90045  11.094  14.055   1.858
18517W        W90046   0.353  41.756   2.467
18518W        W90047  28.729   8.156   1.425
18519W        W90048  37.011  33.422   0.417
18520W        W90049  13.498  13.554   3.260
18521W        W90050  34.945  39.415   3.736
18522W        W90051  19.570  33.969   2.175
18523W        W90052  42.873   7.721   4.149
18524W        W90053  38.000  12.239   0.409
18525W        W90054   1.855  42.770   4.570
18526W        W90055  12.698  13.099  11.366
18527W        W90056   2.234  23.948   0.345
18528W        W90057  30.760  22.728  14.469
18529W        W90058  43.296   5.759   2.406
18530W        W90059  41.725  36.921  14.403
18531W        W90060  15.462   2.336   4.666
18532W        W90061   1.749  38.407   4.655
18533W        W90062  12.431   4.211   1.257
18534W        W90063  16.767  27.151  11.471
18535W        W90064   8.715  10.866  14.432
18536W        W90065  10.598  22.605   0.731
18537W        W90066   7.650  25.595  11.114
18538W        W90067  39.418  26.004   3.795
18539W        W90068  40.956  12.896   1.749
18540W        W90069  30.247   2.633  10.707
18541W        W90070  32.116  12.558  12.578
18542W        W90071  13.218  38.356  14.412
18543W        W90072  25.740  29.529   2.846
18544W        W90073  32.221  12.827   2.798
18545W        W90074  19.030   5.944  13.936
18546W        W90075  37.544  28.589   4.071
18547W        W90076  35.453  11.645  12.196
18548W        W90077  35.666   3.654   2.878
18549W        W90078  14.760  32.066  14.040
18550W        W90079  18.256  42.300   1.170
18551W        W90080   9.171  19.716  14.854
18552W        W90081  42.951  40.379   2.174
18553W        W90082  35.406  11.383  11.230
18554W        W90083   5.790  23.312  12.725
18555W        W90084  14.579  42.005  12.565
18556W        W90085  36.454  14.567  11.989
18557W        W90086  17.163  27.999  13.849
18558W        W90087  10.237  17.661  11.003
18559W        W90088   9.853  15.234  12.589
18560W        W90089  34.373  30.056  11.215
18561W        W90090  41.463  42.669  11.989
18562W        W90091   1.907  37.886   4.741
18563W        W90092  34.810  20.225  10.950
18564W        W90093  35.834  12.185   2.549
18565W        W90094   1.953  30.810  12.495
18566W        W90095  10.555   2.786  13.815
18567W        W90096  15.676  32.164   3.766
18568W        W90097  28.597  29.649  11.119
18569W        W90098   1.454  30.648  14.795
18570W        W90099  25.591  31.945  12.392
18571W        W90100  18.245  21.265   0.993
18572W        W90101  19.548  22.201  12.531
18573W        W90102  32.406  27.713   5.536
18574W        W90103  26.578  11.070  14.308
18575W        W90104  24.710  12.802  11.584
18576W        W90105  25.979  17.275  11.599
18577W        W90106  28.744  26.765   5.061
18578W        W90107  35.033  16.545   0.313
18579W        W90108   3.186  23.101  13.912
18580W        W90109  12.489  43.979  11.572
18581W        W90110  22.177  19.540   2.247
18582W        W90111  44.501  33.154   3.648
18583W        W90112  31.838   1.010  11.900
18584W        W90113  32.650  17.533  13.496
18585W        W90114  42.605  27.638   5.023
18586W        W90115  34.303   6.192   1.484
18587W        W90116  21.304  24.035   0.780
18588W        W90117   1.326   2.455   2.420
18589W        W90118  19.602  41.084   4.000
18590W        W90119  21.140  38.361   4.115
18591W        W90120   3.459  31.746  11.500
18592W        W90121  40.233  12.338   1.798
18593W        W90122   9.139  14.310  12.914
18594W        W90123  10.282  12.703  11.211
18595W        W90124  10.764   1.747  14.556
18596W        W90125  31.107  34.858   2.269
18597W        W90126  36.271  38.993  12.401
18598W        W90127  23.796  24.962  14.363
18599W        W90128  14.124  13.080   2.406
18600W        W90129  24.236  16.958   0.743
18601W        W90130  43.549  20.983   4.060
18602W        W90131   0.348  17.185  14.214
18603W        W90132  40.540  25.495   3.162
18604W        W90133  36.237   9.096  11.345
18605W        W90134   6.225   9.989  12.431
18606W        W90135   8.325  27.613   1.352
18607W        W90136  24.705   7.270  11.962
18608W        W90137  37.427  39.191   4.268
18609W        W90138   2.142  26.643  14.923
18610W        W90139  38.075  11.151   2.304
18611W        W90140   1.344  21.472   2.696
18612W        W90141  10.793  24.768  12.479
18613W        W90142  40.021  43.479  13.911
18614W        W90143  12.222   4.285  13.994
18615W        W90144  41.820  14.332   0.026
18616W        W90145  13.142  11.900   2.264
18617W        W90146  41.551   1.285   3.083
18618W        W90147   4.728  12.366  12.884
18619W        W90148  33.263  26.260  14.948
18620W        W90149  25.220  12.138  11.043
18621W        W90150  16.753  18.454   0.975
18622W        W90151  38.321   0.807  12.870
18623W        W90152  36.346  17.281   3.620
18624W        W90153  20.520  29.576   4.609
18625W        W90154  31.153  27.968  11.478
18626W        W90155  15.336   2.305  12.930
18627W        W90156  29.098  19.971  14.246
18628W        W90157  32.577   1.476  14.340
18629W        W90158  33.417  22.414   0.838
18630W        W90159  34.816  43.055  11.885
18631W        W90160  44.539  10.105   1.830
18632W        W90161  22.319   8.902   2.408
18633W        W90162  37.192  14.411   5.054
18634W        W90163  20.123  18.200   0.751
18635W        W90164   1.318   7.610   1.784
18636W        W90165  34.828  15.726   0.835
18637W        W90166  16.455  33.640   2.905
18638W        W90167   8.839   3.659  14.553
18639W        W90168  21.613  30.389   5.049
18640W        W90169   0.020  24.622   4.102
18641W        W90170   3.387   2.697   4.560
18642W        W90171  33.623  36.507  11.411
18643W        W90172   1.122  20.219   3.618
18644W        W90173  24.134  34.144  14.133
18645W        W90174  42.841  25.695  10.519
18646W        W90175   7.913  41.584  11.653
18647W        W90176  10.156  17.600   4.819
18648W        W90177   3.937   1.518  14.297
18649W        W90178  10.023   6.227   2.243
18650W        W90179   7.612  42.107  11.067
18651W        W90180  18.222  27.393  14.671
18652W        W90181  32.317  43.825  14.874
18653W        W90182   6.482  26.143   3.756
18654W        W90183   8.111  18.817  14.860
18655W        W90184  34.974   3.649   2.298
18656W        W90185  38.017  21.764   2.889
18657W        W90186   3.108  42.014  11.097
18658W        W90187   6.786  40.090   1.152
18659W        W90188   0.790   9.416  12.599
18660W        W90189  43.479  22.077  14.039
18661W        W90190  28.631  15.500  14.981
18662W        W90191   7.261   8.897   4.982
18663W        W90192  19.621  24.387   1.333
18664W        W90193  24.203  37.061  10.906
18665W        W90194  23.996  36.660  11.172
18666W        W90195   7.395  10.697   3.654
18667W        W90196  16.693  10.072  14.447
18668W        W90197  13.192   8.431  11.150
18669W        W90198  36.431  22.519  12.365
18670W        W90199  14.804   2.978   4.487
18671W        W90200  32.881  44.192   0.286
18672W        W90201  18.706  34.364  12.024
18673W        W90202   7.649  10.376  12.561
18674W        W90203  43.038  30.685  11.634
18675W        W90204  28.113  19.840   4.657
18676W        W90205   8.518  26.540   0.380
18677W        W90206  44.236  15.244  11.561
18678W        W90207  23.471  20.019   0.279
18679W        W90208  19.231  39.302  14.753
18680W        W90209   5.347   4.501   4.542
18681W        W90210  25.878  33.581  13.424
18682W        W90211   0.531  25.980   3.695
18683W        W90212   5.236  41.957   4.786
18684W        W90213  32.091  20.168   4.590
18685W        W90214  16.806  18.600   2.824
18686W        W90215   9.721  33.077  11.567
18687W        W90216  18.089  24.690   0.286
18688W        W90217  27.897  32.558   9.906
18689W        W90218  30.485  43.836   3.012
18690W        W90219  35.190  34.421   4.166
18691W        W90220   2.169  15.748  12.450
18692W        W90221  36.464  25.815   3.946
18693W        W90222  16.854  27.704   4.957
18694W        W90223  17.114  12.769   2.650
18695W        W90224   1.952  22.758  11.939
18696W        W90225   5.838  31.309  13.039
18697W        W90226  18.593  41.812  11.991
18698W        W90227   9.601  35.666  10.935
18699W        W90228  25.470   8.738   0.249
18700W        W90229  40.576  17.149   1.277
18701W        W90230  32.018  33.086  14.005
18702W        W90231  44.325  32.846   0.593
18703W        W90232  22.755  33.941  14.598
18704W        W90233  15.526  18.927   4.370
18705W        W90234  32.688   9.374   3.615
18706W        W90235   4.938  41.521  12.126
18707W        W90236  22.796  36.356   2.130
18708W        W90237  12.866   7.251  14.790
18709W        W90238  17.843   4.804  14.303
18710W        W90239  21.632   1.360  13.665
18711W        W90240  11.590  22.548   4.931
18712W        W90241   3.737  17.306  10.540
18713W        W90242  16.628  21.942  14.712
18714W        W90243   4.262   8.670  14.295
18715W        W90244  32.134  19.595  11.002
18716W        W90245  10.899  12.197  13.674
18717W        W90246   4.991  30.198   1.941
18718W        W90247  30.915  30.383   4.998
18719W        W90248  39.785  28.279   1.302
18720W        W90249  37.777  27.189   1.232
18721W        W90250  23.655   7.890   4.185
18722W        W90251   0.887  19.797  11.466
18723W        W90252  22.558  11.867  14.358
18724W        W90253   3.468  32.693   0.236
18725W        W90254  27.700  19.273   3.641
18726W        W90255  20.381  33.136   2.697
18727W        W90256  22.596   9.194  13.261
18728W        W90257  13.684  21.572  12.161
18729W        W90258  37.780  27.251  14.910
18730W        W90259  23.146  25.421  11.442
18731W        W90260   3.869  44.706  14.057
18732W        W90261  43.525   8.713   3.715
18733W        W90262  39.827   4.851  13.924
18734W        W90263   7.432  29.709   0.921
18735W        W90264  29.754   4.401   4.172
18736W        W90265  44.261   3.769  13.718
18737W        W90266  39.482   3.943   3.804
18738W        W90267  37.311  11.644   3.171
18739W        W90268  17.030  10.787  11.141
18740W        W90269  12.282  38.893   4.352
18741W        W90270  35.065  17.797  13.543
18742W        W90271  31.089  18.228   0.950
18743W        W90272  13.676   7.465   4.683
18744W        W90273  23.944   6.344   2.253
18745W        W90274  29.235  31.983  11.465
18746W        W90275  10.425  30.463   3.264
18747W        W90276  21.908  25.286  14.800
18748W        W90277   9.938  42.495  13.378
18749W        W90278   7.355   3.182   3.218
18750W        W90279   6.076   8.000  11.669
18751W        W90280  10.802   1.924  10.637
18752W        W90281  16.578  16.715  11.639
18753W        W90282  21.118   4.823  14.003
18754W        W90283  30.911  10.585  11.652
18755W        W90284  17.808  26.821   4.194
18756W        W90285  12.223  31.714   0.831
18757W        W90286  30.637  34.817  14.116
18758W        W90287  18.329  13.283   2.381
18759W        W90288  35.451   6.961  12.384
18760W        W90289  31.470  41.522  13.479
18761W        W90290  23.078  32.038  12.705
18762W        W90291  16.753   1.421  11.638
18763W        W90292  20.388  19.729  14.716
18764W        W90293  32.666  40.326   0.476
18765W        W90294  32.967  19.820   3.265
18766W        W90295   9.223   6.564   2.690
18767W        W90296  23.875  28.705   3.684
18768W        W90297   6.107   3.843  14.503
18769W        W90298   1.727   7.360  11.594
18770W        W90299  28.026  31.575   1.322
18771W        W90300  30.478  35.367   1.197
18772W        W90301  20.977   3.071  10.223
18773W        W90302  15.641  25.922   3.156
18774W        W90303   0.679  14.841  13.350
18775W        W90304  14.064   0.709   0.367
18776W        W90305  21.440  38.728  10.731
18777W        W90306  28.565  38.811  12.119
18778W        W90307  44.006  23.750  12.874
18779W        W90308  12.235  20.048   3.372
18780W        W90309  19.485  41.625  10.990
18781W        W90310   7.852  37.587  13.990
18782W        W90311  38.809  11.411  14.796
18783W        W90312  39.516   3.426  14.263
18784W        W90313  38.073  21.856  12.392
18785W        W90314  31.365  12.377  13.377
18786W        W90315  10.239  24.678   2.841
18787W        W90316  26.091  37.818  12.331
18788W        W90317  25.874  30.931   4.838
18789W        W90318  13.478  44.989  11.350
18790W        W90319  14.776   0.245   4.048
18791W        W90320   6.202  34.993   0.790
18792W        W90321  16.725  38.920  11.442
18793W        W90322  34.435  31.442  11.677
18794W        W90323  20.026  18.445  11.625
18795W        W90324  33.407  12.221   2.280
18796W        W90325  40.471  27.293   4.769
18797W        W90326  29.588   6.786   0.020
18798W        W90327  41.181  29.807   3.184
18799W        W90328   9.779  42.485   3.859
18800W        W90329  30.654  23.399   1.293
18801W        W90330  43.772  21.125   4.519
18802W        W90331  36.252  26.447  12.128
18803W        W90332  26.396  30.313   2.146
18804W        W90333   5.881  21.290   2.946
18805W        W90334  42.306   9.137   0.136
18806W        W90335  23.389  14.967  13.175
18807W        W90336  37.520  24.819   4.370
18808W        W90337  21.735  26.472  10.861
18809W        W90338  16.909  18.157  14.355
18810W        W90339  22.965   9.907  12.519
18811W        W90340   5.082  35.047   3.319
18812W        W90341  34.109  25.534   2.725
18813W        W90342  33.872  44.768   1.406
18814W        W90343  29.437  35.466  14.750
18815W        W90344  35.937  38.068   1.020
18816W        W90345  10.158  40.336   0.940
18817W        W90346  36.082   2.907  14.374
18818W        W90347  44.519   5.397   5.096
18819W        W90348  27.546   4.997  14.424
18820W        W90349  44.513   5.355   4.593
18821W        W90350  10.293  33.834  12.790
18822W        W90351  12.956  39.918   3.211
18823W        W90352   8.827  21.687   0.711
18824W        W90353  25.266  10.588  11.575
18825W        W90354  18.288  16.321  13.481
18826W        W90355   1.781  25.639   1.459
18827W        W90356  27.288  10.710  14.522
18828W        W90357   7.770  13.853   0.856
18829W        W90358  11.865  31.362   1.952
18830W        W90359  29.317  33.932  12.543
18831W        W90360  10.551  17.137   4.145
18832W        W90361   4.908  23.780   3.728
18833W        W90362  21.622  18.075   4.480
18834W        W90363   1.084  35.249   5.342
18835W        W90364   9.667  39.729  12.421
18836W        W90365  26.802   1.437   4.918
18837W        W90366  35.389  14.182   2.353
18838W        W90367  25.205  30.596   0.112
18839W        W90368   5.803  25.573   1.378
18840W        W90369  17.537  28.957   0.375
18841W        W90370  31.352   4.089  12.488
18842W        W90371  39.736  42.474  10.273
18843W        W90372  22.429  41.459   2.862
18844W        W90373  33.582  30.017   0.186
18845W        W90374   7.262  22.040  11.838
18846W        W90375   3.932  16.799   3.767
18847W        W90376  39.204  15.259   0.277
18848W        W90377  22.914  23.608  12.619
18849W        W90378  27.142  25.083   2.771
18850W        W90379   3.502  14.261  12.055
18851W        W90380   2.168  37.445   4.656
18852W        W90381  24.678  41.500   2.328
18853W        W90382  36.466  18.250  12.320
18854W        W90383  35.539  26.286  13.742
18855W        W90384  23.677  39.146  10.608
18856W        W90385   2.897  41.497   2.079
18857W        W90386  27.243  28.129   3.663
18858W        W90387   5.480   3.095   0.445
18859W        W90388  10.755   5.662  11.103
18860W        W90389   2.239  20.711   1.058
18861W        W90390  21.618   7.784  13.073
18862W        W90391  42.837  15.833   5.035
18863W        W90392   8.681  17.471   4.592
18864W        W90393  23.741  12.224   4.180
18865W        W90394  39.751  44.019   2.822
18866W        W90395  37.803   6.711   0.808
18867W        W90396  17.724  13.542  10.912
18868W        W90397  30.500  10.034  10.696
18869W        W90398  31.976  15.755   4.635
18870W        W90399  32.371  40.446   0.931
18871W        W90400  14.724  24.792  11.949
18872W        W90401  30.914  38.567  12.052
18873W        W90402  43.395  27.153   4.700
18874W        W90403  43.192   0.728  10.475
18875W        W90404  11.084  42.959   1.731
18876W        W90405  38.881  28.415  14.361
18877W        W90406  12.746  27.742  12.480
18878W        W90407  12.686  32.865  11.967
18879W        W90408  12.379  18.613   0.866
18880W        W90409  40.829   7.270  10.625
18881W        W90410   1.236  32.941   4.111
18882W        W90411   5.932  18.803   3.541
18883W        W90412  13.842   2.415   2.235
18884W        W90413  33.949  26.546  13.795
18885W        W90414  21.099  19.746  12.021
18886W        W90415  15.428   9.622   4.154
18887W        W90416  41.448   6.642  13.368
18888W        W90417   1.721  36.923  11.655
18889W        W90418   7.953  35.192   5.032
18890W        W90419  13.081  32.704  13.551
18891W        W90420  31.427   0.278   3.930
18892W        W90421  20.737   2.810  10.625
18893W        W90422  22.119  37.278  13.865
18894W        W90423   0.433   8.859   2.446
18895W        W90424   9.132  16.250   0.251
18896W        W90425  26.908  24.504  12.187
18897W        W90426  35.146  26.490  12.909
18898W        W90427  38.146  34.115   3.367
18899W        W90428  41.044  38.303  13.934
18900W        W90429   9.057   5.807  11.555
18901W        W90430  42.259  44.465   0.325
18902W        W90431  40.928  36.445   4.444
18903W        W90432  21.490  35.045  12.765
18904W        W90433  14.184  23.629  11.454
18905W        W90434  15.550  28.539  14.455
18906W        W90435   9.492  16.819  11.309
18907W        W90436  37.843  41.775   0.791
18908W        W90437  19.054   0.315   3.705
18909W        W90438  25.782   0.874  11.894
18910W        W90439  29.036  16.175  12.974
18911W        W90440  15.496   0.759   0.417
18912W        W90441  37.464   2.932  12.927
18913W        W90442   6.391  30.423  14.308
18914W        W90443  12.502  17.004   1.027
18915W        W90444  42.360   8.870   0.858
18916W        W90445  28.015  13.916   1.216
18917W        W90446  35.438   7.873  13.000
18918W        W90447  44.512  34.565  13.588
18919W        W90448   8.270  21.996   4.120
18920W        W90449  37.604   3.898  11.023
18921W        W90450  18.441  23.330   3.332
18922W        W90451  39.270  23.743  10.998
18923W        W90452   8.645  26.187  14.128
18924W        W90453  30.510   8.383   0.810
18925W        W90454   1.006  21.974  14.285
18926W        W90455   4.216  35.126  13.865
18927W        W90456  27.263  19.599  14.837
18928W        W90457   8.606   0.814  13.566
18929W        W90458  43.788  19.164  11.211
18930W        W90459  13.675  44.401  11.755
18931W        W90460  37.099  42.815   4.224
18932W        W90461  15.332  32.565   0.537
18933W        W90462  44.701  17.530  10.676
18934W        W90463   1.416  17.343  11.243
18935W        W90464   2.658  42.894   3.156
18936W        W90465  24.007  37.508  13.496
18937W        W90466   3.181  37.345   2.839
18938W        W90467  13.553   9.011   0.766
18939W        W90468  29.783  13.332   5.382
18940W        W90469  41.239   6.341   1.447
18941W        W90470  15.755  39.640   3.335
18942W        W90471  31.537  23.578  13.373
18943W        W90472   8.630  36.435   4.153
18944W        W90473  10.124  17.044   2.760
18945W        W90474  13.856   2.372  13.725
18946W        W90475   0.587  31.182   4.641
18947W        W90476   0.946  33.308   1.460
18948W        W90477  36.845   3.279  12.281
18949W        W90478  17.815  36.730  12.400
18950W        W90479  25.774   1.414   2.385
18951W        W90480  22.688  41.216   0.370
18952W        W90481  15.879  41.159   4.399
18953W        W90482  37.269  40.763   3.384
18954W        W90483   9.821  11.808   4.484
18955W        W90484   8.855  25.467  14.630
18956W        W90485  18.055  17.574  12.364
18957W        W90486  40.294  34.288   2.885
18958W        W90487  14.333  35.015   0.474
18959W        W90488  40.925  11.261  14.815
18960W        W90489  12.534  43.053  13.411
18961W        W90490  44.545  28.065   4.656
18962W        W90491  39.842  26.885  13.980
18963W        W90492  10.573   2.690  10.700
18964W        W90493  16.222  17.868  12.998
18965W        W90494  25.151  33.290   2.785
18966W        W90495  34.858  37.252  14.904
18967W        W90496  40.787  13.765  14.781
18968W        W90497  26.532  17.162   2.388
18969W        W90498  25.085  26.661  14.323
18970W        W90499  11.276   8.791   5.009
18971W        W90500  28.271   3.890  13.513
18972W        W90501   8.661   9.695  11.796
18973W        W90502  21.627   5.878  12.417
18974W        W90503  24.482  34.436  12.014
18975W        W90504  24.925  30.885  14.746
18976W        W90505  40.937  19.353  13.038
18977W        W90506  29.088  36.731   3.247
18978W        W90507  18.281  38.586  14.304
18979W        W90508   0.697  10.906  12.534
18980W        W90509   1.354  14.110  13.453
18981W        W90510  41.412   5.387  11.865
18982W        W90511  37.834  23.452   4.104
18983W        W90512  20.566  11.949   3.208
18984W        W90513  42.608  31.951   1.058
18985W        W90514  13.120   4.336  12.359
18986W        W90515  13.640  26.043  11.233
18987W        W90516  28.401   6.919   3.224
18988W        W90517   3.320  42.383   4.691
18989W        W90518  37.000  33.991  11.546
18990W        W90519  31.964   2.970   4.114
18991W        W90520  12.471  36.181  13.914
18992W        W90521  25.644  34.701   4.736
18993W        W90522  20.068  27.467  14.508
18994W        W90523   1.866  36.458   3.698
18995W        W90524   2.680   2.225  13.816
18996W        W90525   0.488   4.242   2.677
18997W        W90526   5.471  13.232  12.119
18998W        W90527  10.672  42.256  11.818
18999W        W90528  30.778  28.704  13.124
19000W        W90529  25.706  12.611   0.343
19001W        W90530   9.126  13.840   3.915
19002W        W90531  13.659  22.704   3.940
19003W        W90532  23.252   8.698  11.856
19004W        W90533   4.170  12.632  12.528
19005W        W90534  41.489  19.324  10.429
19006W        W90535  35.219   5.264  13.870
19007W        W90536  39.785  42.212   1.928
19008W        W90537  14.873  12.346   3.433
19009W        W90538  28.637   3.493  13.052
19010W        W90539  19.109  10.676  12.435
19011W        W90540   8.556  28.031  12.462
19012W        W90541  25.154  24.090  11.562
19013W        W90542  28.930  16.086   1.446
19014W        W90543  15.633   1.933   2.870
19015W        W90544  28.138  28.907   0.877
19016W        W90545  16.313  39.808   0.947
19017W        W90546   4.323  29.967   0.262
19018W        W90547   2.270  28.161  12.357
19019W        W90548  25.784  40.940  11.103
19020W        W90549  20.180   5.722   0.528
19021W        W90550  37.419  40.132  11.894
19022W        W90551  36.527  36.275   4.868
19023W        W90552  17.549   3.976   2.742
19024W        W90553  30.596   3.954   4.068
19025W        W90554  17.381  38.581  11.356
19026W        W90555   8.993   2.548  14.857
19027W        W90556   5.611  42.993  14.883
19028W        W90557  12.571  39.464   4.577
19029W        W90558  16.864   2.299  14.516
19030W        W90559   7.296   9.787  11.764
19031W        W90560  30.083  11.837   4.705
19032W        W90561  31.445  26.601   3.475
19033W        W90562  17.547  35.095   3.768
19034W        W90563  35.838  25.027   2.487
19035W        W90564  15.619  28.176   3.765
19036W        W90565  25.207  15.642  10.755
19037W        W90566  44.252  11.589  11.424
19038W        W90567  39.044  23.734   2.765
19039W        W90568  19.644  40.052   1.214
19040W        W90569  15.740  43.589   0.967
19041W        W90570   4.918  21.969   0.414
19042W        W90571  20.729  33.815   2.436
19043W        W90572  18.321  39.400   0.313
19044W        W90573   9.164  22.028  12.953
19045W        W90574  40.866  26.630  13.351
19046W        W90575   9.873  22.468   2.439
19047W        W90576  29.168   1.310  11.390
19048W        W90577  20.166  34.074  11.860
19049W        W90578  41.910  18.877  13.769
19050W        W90579  33.683  36.080  10.159
19051W        W90580  41.620  34.929  11.619
19052W        W90581  44.628  15.016  14.005
19053W        W90582  13.256  15.067  12.155
19054W        W90583  19.168  21.998  11.750
19055W        W90584  30.376  21.263  12.884
19056W        W90585  21.952  10.456   4.098
19057W        W90586  24.095  23.457   1.903
19058W        W90587   4.310  39.312  12.925
19059W        W90588  16.111   6.244   0.849
19060W        W90589  11.318   3.061  11.982
19061W        W90590  10.243   0.065   4.083
19062W        W90591   0.502  40.934   2.326
19063W        W90592  13.802   7.411   0.747
19064W        W90593   8.843   4.348   0.727
19065W        W90594   3.036  23.440  12.814
19066W        W90595   8.002   3.944  13.037
19067W        W90596  28.445  14.758  13.805
19068W        W90597  19.007  22.697  12.486
19069W        W90598  16.676  28.916   0.266
19070W        W90599  44.411   6.429   0.705
19071W        W90600   8.255  10.607   0.250
19072W        W90601  22.629  10.721  11.842
19073W        W90602  42.831   6.459  12.103
19074W        W90603  41.604  12.719   3.904
19075W        W90604  19.278   7.780   3.653
19076W        W90605  25.000   7.900   3.170
19077W        W90606  29.116  22.341  10.366
19078W        W90607  31.517  34.589   1.373
19079W        W90608  11.385  18.090  12.856
19080W        W90609  30.741  17.208  14.218
19081W        W90610  10.664   3.475  11.662
19082W        W90611   1.422   0.273  13.300
19083W        W90612  41.781  33.099   1.836
19084W        W90613  26.763  20.033   1.267
19085W        W90614  28.612  24.023   1.915
19086W        W90615  43.824  40.889   2.471
19087W        W90616  14.605  11.224  14.305
19088W        W90617  12.680  34.864   2.648
19089W        W90618  14.055  43.365   3.461
19090W        W90619  23.625  25.211  11.598
19091W        W90620   9.334  42.257  12.033
19092W        W90621  13.616  38.008  12.082
19093W        W90622  12.051  41.895   0.765
19094W        W90623  17.169  19.054   0.232
19095W        W90624  32.660  19.961  11.416
19096W        W90625  16.873  19.161  14.793
19097W        W90626  20.317  44.813  13.451
19098W        W90627  44.425  39.879   3.612
19099W        W90628   1.914  20.806  11.138
19100W        W90629  42.810  34.931   4.551
19101W        W90630  43.207  31.201  13.147
19102W        W90631   1.910  20.281   4.600
19103W        W90632  40.083  37.867  10.625
19104W        W90633  33.215  23.211   3.944
19105W        W90634  32.048  16.846  12.990
19106W        W90635  22.265  20.386   2.696
19107W        W90636  29.991  44.554  13.691
19108W        W90637  15.856  24.161   2.274
19109W        W90638  17.453  13.835   3.851
19110W        W90639   8.008  14.174  10.258
19111W        W90640  40.925  11.624  12.517
19112W        W90641   8.679  17.556  10.630
19113W        W90642  28.148  35.498   4.419
19114W        W90643   2.899  39.021  13.514
19115W        W90644   0.414  43.963  13.993
19116W        W90645  41.493   3.187   3.385
19117W        W90646  15.344  42.407   0.040
19118W        W90647  39.995  10.790  12.153
19119W        W90648  36.898  31.526  10.118
19120W        W90649  40.552  35.549   3.349
19121W        W90650  21.532  11.101  11.095
19122W        W90651   6.933  34.594   3.709
19123W        W90652  40.055   4.857   4.145
19124W        W90653  30.536  29.229   2.757
19125W        W90654  10.237  34.610  12.536
19126W        W90655  40.846  31.698  13.261
19127W        W90656  38.044  14.778   1.642
19128W        W90657  41.922  43.342  13.307
19129W        W90658   6.558   7.901   2.638
19130W        W90659   9.855   9.350  13.475
19131W        W90660  12.517  10.890  10.705
19132W        W90661   8.852  25.901  13.693
19133W        W90662  33.207   1.272  11.183
19134W        W90663  18.607  16.380   4.053
19135W        W90664  13.420  20.517   5.081
19136W        W90665  21.814  15.348  14.102
19137W        W90666  43.834  37.295  12.070
19138W        W90667  24.979  33.385  14.814
19139W        W90668  15.897  14.879   1.035
19140W        W90669   8.903  18.644  10.640
19141W        W90670  33.280   9.323   0.735
19142W        W90671  32.654  28.244   1.424
19143W        W90672  31.193  26.549  11.678
19144W        W90673  18.966   5.722   3.340
19145W        W90674  35.959  35.904   1.711
19146W        W90675  18.778  43.757   2.362
19147W        W90676  24.709  23.256  14.818
19148W        W90677  22.517  35.931   3.281
19149W        W90678  21.477   2.155  14.327
19150W        W90679  11.772  40.981   3.809
19151W        W90680  30.594  36.077   4.140
19152W        W90681  17.300   4.311  10.725
19153W        W90682  39.479  14.671  10.230
19154W        W90683  14.232   0.591   2.273
19155W        W90684   0.463   2.294  11.248
19156W        W90685  37.909  34.461  14.479
19157W        W90686  16.262  30.927  11.646
19158W        W90687  31.004   2.106   1.069
19159W        W90688  37.019  21.749  14.741
19160W        W90689  28.065  23.587  13.976
19161W        W90690  19.323  10.429   3.720
19162W        W90691  14.143  42.362  14.751
19163W        W90692  34.771   3.722  12.076
19164W        W90693  27.747  10.347  10.982
19165W        W90694  30.713  20.598  12.265
19166W        W90695  21.306   8.961  13.505
19167W        W90696  34.371  25.239  12.400
19168W        W90697  16.842   5.047   1.024
19169W        W90698  37.421   3.413   1.819
19170W        W90699   0.244  36.844   9.481
19171W        W90700  17.666   1.990  13.879
19172W        W90701  37.442   7.705   0.682
19173W        W90702  31.619  39.664  13.394
19174W        W90703  25.496  44.850   1.328
19175W        W90704  22.042  35.290   0.043
19176W        W90705  30.711  34.104   4.053
19177W        W90706   3.492   9.621  12.106
19178W        W90707  34.678   6.888  11.971
19179W        W90708  25.132  32.124  12.027
19180W        W90709  19.980   2.802  11.768
19181W        W90710  20.873  15.248   3.776
19182W        W90711  23.031  13.598  14.371
19183W        W90712  43.784  36.615  11.132
19184W        W90713  20.636  13.334   0.352
19185W        W90714  18.388   1.852  11.075
19186W        W90715  34.408   7.314   2.860
19187W        W90716  44.438   6.990   4.114
19188W        W90717   2.510  33.368   4.278
19189W        W90718  10.195  29.072  13.307
19190W        W90719  35.563  13.968  14.535
19191W        W90720  14.597  41.433   5.077
19192W        W90721   3.818  30.180  14.981
19193W        W90722  35.875  11.732  11.009
19194W        W90723   0.233  25.969  13.894
19195W        W90724  29.621  10.334  13.934
19196W        W90725  30.680  11.733   0.464
19197W        W90726  36.793  24.237   0.401
19198W        W90727  21.108  24.530   3.844
19199W        W90728   4.335   2.295   0.421
19200W        W90729   4.934  34.764  10.652
19201W        W90730  18.631  40.044   2.389
19202W        W90731  31.386  27.824  10.245
19203W        W90732  29.707  30.816   4.279
19204W        W90733  44.071  29.861  11.932
19205W        W90734  14.236  35.326  10.865
19206W        W90735  32.867  38.121  14.994
19207W        W90736  22.135  33.532  10.649
19208W        W90737   0.275  19.213   1.950
19209W        W90738  24.587  10.836   0.377
19210W        W90739  23.477   2.469   4.947
19211W        W90740   8.696   4.680  12.661
19212W        W90741  34.662  27.190  10.542
19213W        W90742  21.945  26.585   1.640
19214W        W90743  38.800   2.719   1.228
19215W        W90744  38.060  22.987   3.864
19216W        W90745  41.107  43.351   4.269
19217W        W90746  30.974  23.799  10.615
19218W        W90747  31.353  35.948   3.740
19219W        W90748  32.582  26.703   4.104
19220W        W90749  14.294  13.425   4.850
19221W        W90750  44.221  44.629   0.722
19222W        W90751  22.654   0.484   0.164
19223W        W90752   6.825  42.064  11.901
19224W        W90753  26.080  32.158   1.783
19225W        W90754   4.448  12.032   1.749
19226W        W90755  44.744  32.166   2.215
19227W        W90756  35.261  12.061   4.283
19228W        W90757  43.132  29.343   3.706
19229W        W90758  26.116  23.052   1.671
19230W        W90759   4.015   2.712   0.355
19231W        W90760  41.772   2.510   3.980
19232W        W90761   6.366   9.454  11.597
19233W        W90762  30.590  43.806   1.440
19234W        W90763  24.336  30.125   4.818
19235W        W90764  36.079  18.591  12.796
19236W        W90765  12.796   6.757   3.446
19237W        W90766  41.280   1.384   4.676
19238W        W90767  36.580  10.187   2.210
19239W        W90768  14.448  38.332   4.122
19240W        W90769  24.624  33.475   4.953
19241W        W90770   0.233  31.421  14.896
19242W        W90771  44.550  39.750   9.891
19243W        W90772  44.993   0.231  14.862
19244W        W90773  24.300  27.639  10.916
19245W        W90774  12.657  15.672  14.397
19246W        W90775   8.867  15.699  13.859
19247W        W90776  26.094   4.924   1.833
19248W        W90777  18.590   7.908  14.392
19249W        W90778   8.569   0.936   4.483
19250W        W90779  11.582  12.692  14.128
19251W        W90780  41.941   6.804  13.350
19252W        W90781  19.219  34.946  13.606
19253W        W90782   0.469  23.995   0.798
19254W        W90783   2.193  12.245  12.856
19255W        W90784   3.749  28.636   2.759
19256W        W90785  16.022  11.190   2.788
19257W        W90786  15.109  31.902  13.404
19258W        W90787  32.511   9.965  11.594
19259W        W90788  42.764  17.270   4.881
19260W        W90789   9.021   4.495   2.336
19261W        W90790  36.294  33.386  11.132
19262W        W90791  15.359  19.675   3.202
19263W        W90792  26.606   4.416   1.315
19264W        W90793  24.036  42.335  10.642
19265W        W90794   3.302   5.482  14.996
19266W        W90795  37.062   5.453  12.479
19267W        W90796  38.698  27.956   1.462
19268W        W90797  17.565  25.847  14.398
19269W        W90798  43.977   0.347  10.660
19270W        W90799  31.488   3.208   0.265
19271W        W90800  19.293  34.038   1.720
19272W        W90801  22.522  15.273   4.344
19273W        W90802  10.621  34.421  14.953
19274W        W90803   4.147   0.957   3.687
19275W        W90804  40.453  40.740  13.099
19276W        W90805  39.116   5.717   0.258
19277W        W90806  19.094  40.074   2.154
19278W        W90807  25.201  13.187   1.882
19279W        W90808   3.126  32.991  11.056
19280W        W90809   1.631  23.625  12.898
19281W        W90810  44.021  37.863   4.313
19282W        W90811   0.292  39.993   0.410
19283W        W90812   3.817   5.327  11.102
19284W        W90813  34.940  13.892   2.354
19285W        W90814  27.991  36.971  13.018
19286W        W90815   5.905  18.205   0.494
19287W        W90816   3.685  25.224   3.788
19288W        W90817  35.601  29.173  13.835
19289W        W90818   7.401   6.237  14.360
19290W        W90819  30.634  11.959   2.214
19291W        W90820  16.975  31.843   1.284
19292W        W90821  39.006  15.513   2.858
19293W        W90822  40.024  38.530  13.964
19294W        W90823  34.759  34.183  11.460
19295W        W90824  26.185  37.461  13.431
19296W        W90825  18.205  33.184  14.368
19297W        W90826  42.523  36.745   1.874
19298W        W90827  20.295  13.628   1.613
19299W        W90828  38.116  11.893   3.600
19300W        W90829   1.263  20.247  13.500
19301W        W90830  24.296   0.989   3.300
19302W        W90831  16.600   7.442   0.356
19303W        W90832  44.921  16.160  14.890
19304W        W90833  27.530  36.090  10.502
19305W        W90834  12.408  30.575   3.773
19306W        W90835  33.149  30.905   0.186
19307W        W90836  35.357  14.806  14.309
19308W        W90837  34.063   3.371  13.880
19309W        W90838   2.582  31.535   4.591
19310W        W90839  15.569  19.714  12.897
19311W        W90840  11.652  33.417   4.652
19312W        W90841  31.325   3.851   3.902
19313W        W90842   8.655   8.207  13.992
19314W        W90843   0.678  32.966  11.126
19315W        W90844  18.781  10.263  12.604
19316W        W90845  28.608  37.348  14.732
19317W        W90846   0.356  24.593   3.655
19318W        W90847  17.693  44.724  12.519
19319W        W90848  12.553  44.806  13.353
19320W        W90849   4.850  18.766  14.242
19321W        W90850  25.446  13.651   1.789
19322W        W90851  29.493  17.850  14.883
19323W        W90852  42.961  19.031   2.801
19324W        W90853  28.973  40.927   2.755
19325W        W90854   2.853   0.267   1.152
19326W        W90855  16.792  23.346   3.816
19327W        W90856  15.639  33.372  14.007
19328W        W90857  27.101  20.446   1.149
19329W        W90858  25.747  26.703  13.337
19330W        W90859  24.147  26.192   2.791
19331W        W90860  35.858   5.705   2.142
19332W        W90861  34.083  37.314  13.321
19333W        W90862   9.913   1.747  12.289
19334W        W90863   6.231  21.337   4.141
19335W        W90864  44.887  43.094   4.432
19336W        W90865  41.233  17.187  12.432
19337W        W90866  41.038   1.758   0.137
19338W        W90867   1.179  36.188  11.528
19339W        W90868  26.134  35.056  14.013
19340W        W90869  40.389  35.355  10.757
19341W        W90870  31.138  41.596  11.893
19342W        W90871  20.159  41.479   3.036
19343W        W90872  29.678  32.206   2.311
19344W        W90873  23.653  44.180  14.973
19345W        W90874  10.970  28.715   1.689
19346W        W90875  24.948  41.543   0.821
19347W        W90876  27.008   4.101   1.585
19348W        W90877  26.554   5.417   1.157
19349W        W90878  24.611   1.316  11.068
19350W        W90879  12.862  10.316   0.331
19351W        W90880  42.036  30.871  11.092
19352W        W90881   9.732  38.098   4.649
19353W        W90882  22.963  27.973  13.035
19354W        W90883   4.418  21.325   1.535
19355W        W90884  28.453  40.957   2.627
19356W        W90885  28.879  37.085   4.120
19357W        W90886   8.050  22.652  12.879
19358W        W90887  34.032   3.187  13.407
19359W        W90888   1.455   4.062  11.457
19360W        W90889  20.568   1.969   1.252
19361W        W90890  22.021   6.676  11.540
19362W        W90891  30.060  26.707   1.890
19363W        W90892   6.384  19.166   3.184
19364W        W90893  21.048   8.879   0.386
19365W        W90894  10.562  17.464  14.476
19366W        W90895  23.692   9.157   3.711
19367W        W90896  34.903  40.213  13.552
19368W        W90897  31.780  25.688  11.703
19369W        W90898   6.820  24.590   2.970
19370W        W90899  42.264  32.202  12.935
19371W        W90900  34.033  27.861   3.736
19372W        W90901  36.258  34.393  12.004
19373W        W90902   9.446   4.386   2.614
19374W        W90903   6.820  17.783  12.070
19375W        W90904  11.097  29.546   2.628
19376W        W90905  37.832   7.645   2.316
19377W        W90906  17.863  15.255  14.449
19378W        W90907  31.091   6.739  13.046
19379W        W90908  41.787  20.220  11.224
19380W        W90909  24.953   8.877   3.396
19381W        W90910  27.034   0.978  12.663
19382W        W90911   5.944  43.045  13.053
19383W        W90912   8.929  15.076   1.883
19384W        W90913  15.643  36.097   0.903
19385W        W90914   7.087  36.500  12.764
19386W        W90915   3.549  41.221   4.046
19387W        W90916  44.762  12.598   4.771
19388W        W90917  39.687  16.367   2.334
19389W        W90918   0.316  16.780  12.515
19390W        W90919  26.222   8.314  11.313
19391W        W90920  29.570  44.533  12.605
19392W        W90921   3.213  14.114   1.333
19393W        W90922   2.136  10.997  14.827
19394W        W90923  37.530  30.574   3.324
19395W        W90924  18.614  37.017   2.850
19396W        W90925  38.843  22.048   0.832
19397W        W90926  37.870  12.390  10.723
19398W        W90927  20.182  28.823  12.239
19399W        W90928  17.618  37.953  12.950
19400W        W90929  28.454  18.806   0.803
19401W        W90930  22.765  19.836   1.193
19402W        W90931  42.326  35.368  14.895
19403W        W90932  35.333   1.906   3.597
19404W        W90933   4.340  31.375  10.500
19405W        W90934   4.105  33.412  14.435
19406W        W90935  17.327  38.905  10.607
19407W        W90936  29.142  26.925   4.233
19408W        W90937  29.987  21.332   2.337
19409W        W90938   0.551   9.645   0.455
19410W        W90939  35.383  13.686   0.847
19411W        W90940  42.776  18.725  10.700
19412W        W90941  25.105  28.132  14.492
19413W        W90942   3.559   6.774  12.349
19414W        W90943  22.188  12.757  10.724
19415W        W90944  40.503  17.726  13.146
19416W        W90945   1.963  14.901  10.662
19417W        W90946  41.742  39.502  10.503
19418W        W90947  21.975  13.921  11.491
19419W        W90948  36.966  36.528  11.593
19420W        W90949  35.160  40.365  14.474
19421W        W90950   1.461  27.093   1.961
19422W        W90951  15.059  30.958  12.142
19423W        W90952   2.404  38.392   4.615
19424W        W90953   9.094  23.257   4.203
19425W        W90954  42.416  10.319   2.268
19426W        W90955  17.580  19.620  12.802
19427W        W90956  33.401   4.660  14.481
19428W        W90957   1.267   5.316  10.921
19429W        W90958  31.530  43.212  14.854
19430W        W90959  38.316  36.401   2.120
19431W        W90960  35.652  36.336   2.727
19432W        W90961  20.279   3.074  12.143
19433W        W90962  10.519  28.288   3.666
19434W        W90963   7.385  43.853  12.070
19435W        W90964  44.338  19.251  13.915
19436W        W90965  16.191  17.786   4.180
19437W        W90966  24.195   7.790  12.813
19438W        W90967  19.226   4.453   2.356
19439W        W90968  27.496  16.851   4.443
19440W        W90969  40.766  25.461   2.669
19441W        W90970  33.525  17.526   4.082
19442W        W90971   8.605  23.968   4.023
19443W        W90972  17.637  13.377   3.762
19444W        W90973  20.463   9.500  13.861
19445W        W90974  37.718  23.686  10.561
19446W        W90975  14.662  16.276  13.783
19447W        W90976  20.542  37.889  13.351
19448W        W90977  18.508   4.869  12.579
19449W        W90978   3.425   0.205   4.189
19450W        W90979  31.393  16.173  11.750
19451W        W90980  42.894  22.689   3.141
19452W        W90981  22.685  10.343   0.001
19453W        W90982  12.209   4.779  11.197
19454W        W90983  25.388  15.837   1.313
19455W        W90984  17.172   5.542  12.006
19456W        W90985  11.623   7.856  12.046
19457W        W90986  40.873  44.733  14.573
19458W        W90987  43.091  20.326  13.005
19459W        W90988   6.683  43.057  13.413
19460W        W90989   0.630  28.717  11.860
19461W        W90990  34.361  35.015   0.686
19462W        W90991  26.147  38.924  14.859
19463W        W90992  42.384  32.023   3.826
19464W        W90993  17.912   2.385   0.715
19465W        W90994  25.531  26.519   1.462
19466W        W90995  42.020  33.623  11.821
19467W        W90996  19.678  12.170   3.202
19468W        W90997  39.294  39.419  13.980
19469W        W90998  11.860  30.647  14.339
19470W        W90999  31.849  27.681  14.506
19471W        W91000  23.355  22.848   4.030
19472W        W91001  20.065  11.355  13.139
19473W        W91002  36.415  11.267  11.601
19474W        W91003   3.821   7.141   2.215
19475W        W91004  25.345  21.149   4.166
19476W        W91005  29.450  24.708  10.472
19477W        W91006   6.083  16.155  14.484
19478W        W91007  17.982  12.573   1.213
19479W        W91008  28.089   0.252   0.078
19480W        W91009  24.294  10.354  11.523
19481W        W91010  42.873   5.146  14.377
19482W        W91011  45.000  27.012   0.033
19483W        W91012   9.963   4.280   3.482
19484W        W91013   7.164  34.486  13.251
19485W        W91014  10.696   4.307   0.972
19486W        W91015  20.319  18.189  14.478
19487W        W91016  12.652   0.428  10.927
19488W        W91017  27.917  32.201   4.237
19489W        W91018   1.474  30.643   1.440
19490W        W91019  37.440   2.555  14.398
19491W        W91020  21.540  10.068   0.474
19492W        W91021  13.228  17.529   4.651
19493W        W91022   4.755  32.698  12.387
19494W        W91023  32.035  25.713   2.210
19495W        W91024   5.320  21.942  12.519
19496W        W91025   8.244  25.370  14.271
19497W        W91026  28.114   8.707   4.579
19498W        W91027  35.344  16.122   0.348
19499W        W91028  15.686  21.486   0.288
19500W        W91029  25.582   5.214   0.769
19501W        W91030   9.595   5.781   1.638
19502W        W91031  27.173  26.749  11.646
19503W        W91032   2.453  41.510   4.093
19504W        W91033  33.145  12.357   0.293
19505W        W91034   5.682  36.021   1.912
19506W        W91035   2.969  26.495  12.413
19507W        W91036  37.054  43.543  12.882
19508W        W91037  24.687  30.343   4.033
19509W        W91038  36.525  10.473   1.740
19510W        W91039  23.223   3.392   1.876
19511W        W91040   4.752   9.798  12.682
19512W        W91041  32.832  43.476  13.575
19513W        W91042  35.664   9.120   0.891
19514W        W91043   4.424  10.258   5.115
19515W        W91044  15.449  18.428   4.465
19516W        W91045  42.730  10.444   1.139
19517W        W91046   7.364  44.234   0.312
19518W        W91047  43.389  12.415   1.940
19519W        W91048   5.753  10.188   3.805
19520W        W91049  40.489  29.236  11.594
19521W        W91050  34.832  23.734  12.000
19522W        W91051  35.072  10.172  14.488
19523W        W91052  37.854  24.159   1.234
19524W        W91053  21.474  17.646  12.639
19525W        W91054   1.474  23.358  12.489
19526W        W91055  34.996  33.170  10.632
19527W        W91056  37.430  37.831   3.236
19528W        W91057  32.868  16.118   0.456
19529W        W91058  39.487   2.852   4.573
19530W        W91059  26.659  10.643  11.891
19531W        W91060  21.199   6.680   4.332
19532W        W91061   9.603  38.177  13.115
19533W        W91062  25.061  38.323   1.522
19534W        W91063  31.395  15.821  13.342
19535W        W91064  14.415  27.983   4.504
19536W        W91065  15.729   8.209   4.071
19537W        W91066   4.800  25.110  12.502
19538W        W91067  39.928  21.652   2.611
19539W        W91068  29.918  29.434   1.132
19540W        W91069  25.691   3.927   1.880
19541W        W91070  40.447  21.043   3.161
19542W        W91071  14.686   6.698  12.998
19543W        W91072  27.349  18.524   4.144
19544W        W91073  26.426  38.613  11.155
19545W        W91074   0.988  35.138  14.543
19546W        W91075  15.855   9.729  11.845
19547W        W91076   2.236  28.657  12.072
19548W        W91077   1.694  25.593  11.503
19549W        W91078  22.558  42.927  13.265
19550W        W91079  25.172   7.870   0.239
19551W        W91080  24.707  38.791  13.346
19552W        W91081   1.882  44.367  13.476
19553W        W91082  38.149  28.568  12.435
19554W        W91083   1.837  43.833  13.429
19555W        W91084  27.578  15.533  11.855
19556W        W91085   8.344  31.625   3.133
19557W        W91086  41.728  17.231   0.347
19558W        W91087  12.588   0.773  11.309
19559W        W91088   5.289  18.071  12.537
19560W        W91089   5.142  12.811   3.263
19561W        W91090   0.927  29.402   0.325
19562W        W91091  31.081  16.814  14.167
19563W        W91092   2.030  36.641  13.000
19564W        W91093  13.854  36.770   3.156
19565W        W91094   4.953  40.448   1.383
19566W        W91095  29.480  30.615   1.013
19567W        W91096   4.913  28.204   2.578
19568W        W91097   2.711   4.754  14.906
19569W        W91098  27.343   7.164   4.614
19570W        W91099   7.289  34.469  13.745
19571W        W91100  43.396  38.552   1.297
19572W        W91101  31.358   9.818  10.698
19573W        W91102  41.884  33.925   2.589
19574W        W91103  36.782   1.174   3.249
19575W        W91104  40.829  22.601   3.671
19576W        W91105  11.857  19.772   3.658
19577W        W91106   9.299  35.548   3.326
19578W        W91107  24.293  39.843   4.953
19579W        W91108  24.561  33.557   3.877
19580W        W91109  25.917   3.395  11.228
19581W        W91110  32.962   1.465   1.183
19582W        W91111  23.533   4.197   4.173
19583W        W91112  35.423  32.139   3.692
19584W        W91113  18.000  36.347  14.320
19585W        W91114  42.087  17.656  14.140
19586W        W91115   6.149  43.022  14.655
19587W        W91116  24.996  37.980   2.860
19588W        W91117   7.751  19.524   4.105
19589W        W91118  40.500  28.676   0.341
19590W        W91119  44.741   0.445   0.252
19591W        W91120  15.172  31.849   4.911
19592W        W91121   2.031   8.832  13.517
19593W        W91122  24.862  42.749  10.985
19594W        W91123  16.386   4.859   0.850
19595W        W91124  43.420   0.898   1.430
19596W        W91125  13.638  35.913   0.711
19597W        W91126  22.268   0.024   0.634
19598W        W91127  24.996  14.141   1.306
19599W        W91128  44.742  27.611  11.807
19600W        W91129  42.214  32.435   4.107
19601W        W91130  15.334  39.120   2.759
19602W        W91131  41.371   8.821  13.907
19603W        W91132   2.480   7.874   1.334
19604W        W91133  27.513  42.449  12.666
19605W        W91134  24.701  35.122  11.940
19606W        W91135  35.996  40.983   0.244
19607W        W91136  16.603  37.527  13.152
19608W        W91137  34.614  43.161   3.277
19609W        W91138  12.196  22.245  13.046
19610W        W91139  12.765  12.607   1.205
19611W        W91140  41.324  37.065   3.795
19612W        W91141  22.031  42.057   1.088
19613W        W91142  43.557  25.271  14.119
19614W        W91143  33.925  21.131   2.265
19615W        W91144   2.810  26.900  13.759
19616W        W91145  37.457   2.683   0.530
19617W        W91146  20.245  44.220  11.227
19618W        W91147  36.859  36.754   4.122
19619W        W91148  29.920  29.483   3.538
19620W        W91149  10.817  42.452   2.362
19621W        W91150  10.375  15.405   0.236
19622W        W91151  43.336   3.235  13.060
19623W        W91152  15.405  44.525   2.321
19624W        W91153   9.348   5.220  14.426
19625W        W91154   7.470  34.018  13.950
19626W        W91155  26.042  36.128   1.998
19627W        W91156  15.145  41.555  14.305
19628W        W91157  16.709  31.556  10.953
19629W        W91158  15.128  12.389   1.735
19630W        W91159   2.694   8.737   1.373
19631W        W91160  38.891  44.773   1.007
19632W        W91161  44.865  24.353  11.841
19633W        W91162  22.397  25.111  11.645
19634W        W91163  33.906  25.510   1.752
19635W        W91164  39.025  37.725   3.758
19636W        W91165  12.103  36.442   0.304
19637W        W91166  44.193  44.404   2.225
19638W        W91167  21.695  14.654  11.435
19639W        W91168  10.702  14.184  12.875
19640W        W91169   1.917  43.030  12.980
19641W        W91170  30.427   9.228  13.286
19642W        W91171  29.292   0.028  12.495
19643W        W91172   6.975  29.614   3.124
19644W        W91173  35.648  11.332   0.146
19645W        W91174   1.824   9.668  14.504
19646W        W91175  32.018  21.596   1.766
19647W        W91176   7.782   3.942   0.382
19648W        W91177  23.114  11.269  10.959
19649W        W91178   5.427  23.640   1.384
19650W        W91179  33.678  14.695  10.224
19651W        W91180  41.815  29.391  10.687
19652W        W91181  11.097  29.061  12.049
19653W        W91182  37.127   8.183   2.391
19654W        W91183  33.186  12.580  14.404
19655W        W91184  44.019  31.588   0.385
19656W        W91185  19.940   0.941  12.028
19657W        W91186  21.222  16.693   2.815
19658W        W91187   6.352   0.401  10.759
19659W        W91188  19.608  33.957  12.379
19660W        W91189  21.899   9.392   3.308
19661W        W91190   2.820   4.843   0.430
19662W        W91191   8.336  39.874  11.241
19663W        W91192  41.597  24.667  11.166
19664W        W91193   1.490  40.552   4.217
19665W        W91194   6.387  24.181  11.135
19666W        W91195  12.406  20.780  14.631
19667W        W91196  38.909  16.731  10.596
19668W        W91197  26.225  32.192  13.517
19669W        W91198  25.626  27.694  12.462
19670W        W91199   3.268  22.745   1.249
19671W        W91200   7.247   5.427   2.299
19672W        W91201  39.325  30.412  12.572
19673W        W91202  41.590  15.777   2.147
19674W        W91203  25.534  30.015   3.737
19675W        W91204  31.099  24.646  11.487
19676W        W91205  33.557   9.945  12.076
19677W        W91206  40.566  41.086   3.562
19678W        W91207  20.129  26.535   0.820
19679W        W91208  10.258  22.530  11.373
19680W        W91209   3.502   2.734   0.344
19681W        W91210  14.064  44.594  14.451
19682W        W91211  23.979  29.371   1.063
19683W        W91212  22.523  38.572  12.166
19684W        W91213  34.160  14.771   2.874
19685W        W91214   6.649  43.083  11.961
19686W        W91215  28.525  26.128   0.313
19687W        W91216  18.650   0.473   4.696
19688W        W91217  36.723  17.473  14.005
19689W        W91218  44.266  15.315   3.825
19690W        W91219  28.241  39.740   0.205
19691W        W91220  26.219  28.588  13.867
19692W        W91221  25.969  11.306   4.242
19693W        W91222  15.813  41.489   3.205
19694W        W91223  44.390  13.229  12.379
19695W        W91224   3.207  12.168   3.548
19696W        W91225  39.948  33.409  12.516
19697W        W91226  15.575  23.263  13.881
19698W        W91227  29.468  32.036  12.114
19699W        W91228  42.380  44.304  13.833
19700W        W91229  16.344   8.002  10.296
19701W        W91230  24.753  28.274  13.760
19702W        W91231   0.032  26.135  12.014
19703W        W91232   7.130  16.591  11.063
19704W        W91233  10.291  20.278  13.935
19705W        W91234  24.034   8.352   3.222
19706W        W91235  20.964  43.252  12.139
19707W        W91236  22.923   5.663  10.735
19708W        W91237  32.813  12.890  10.960
19709W        W91238  29.993  12.197   1.839
19710W        W91239  40.197  10.152   3.252
19711W        W91240  23.645  43.300   0.790
19712W        W91241  34.394  19.280   0.928
19713W        W91242  16.296  12.727  11.597
19714W        W91243  11.632  16.344  10.734
19715W        W91244  36.008  31.994   4.587
19716W        W91245  24.627  21.036  13.018
19717W        W91246   3.682  10.866  14.379
19718W        W91247   7.885  20.639  11.386
19719W        W91248  12.051  15.174  14.930
19720W        W91249   4.686  39.057  10.792
19721W        W91250  19.710  15.156  14.713
19722W        W91251  38.676  15.387   0.187
19723W        W91252  39.352  34.145   2.636
19724W        W91253  28.016   6.872  10.115
19725W        W91254  40.096   7.445  11.156
19726W        W91255  40.886  20.789   3.251
19727W        W91256  23.389  43.912  11.437
19728W        W91257  30.348  37.613  13.603
19729W        W91258   2.226  21.136   2.058
19730W        W91259  44.121  25.104  10.933
19731W        W91260  40.432  12.122   2.733
19732W        W91261  14.805  26.632   3.567
19733W        W91262  27.518   4.328  10.667
19734W        W91263  10.744  38.881   3.285
19735W        W91264  31.352   8.345   0.190
19736W        W91265  28.649  19.367   3.530
19737W        W91266  22.754   8.352   3.745
19738W        W91267  26.426  17.090  12.178
19739W        W91268  15.216  29.648  11.883
19740W        W91269   8.254  41.335  11.332
19741W        W91270  38.753  43.950  14.983
19742W        W91271  39.011  44.678   2.725
19743W        W91272  24.471  27.726  13.126
19744W        W91273  39.534  16.620  14.885
19745W        W91274  27.032  36.893   3.365
19746W        W91275  24.705  33.379   3.438
19747W        W91276  35.352   7.798   4.559
19748W        W91277  14.639  13.363   3.806
19749W        W91278  28.089   4.749  14.052
19750W        W91279  25.771  34.372   2.774
19751W        W91280  34.940  29.566  14.313
19752W        W91281  40.318  37.513   5.162
19753W        W91282  15.089   0.359   2.239
19754W        W91283   8.299  24.690   1.235
19755W        W91284  17.256  41.454  12.902
19756W        W91285   3.886  31.096  12.145
19757W        W91286   9.245  18.776  10.238
19758W        W91287   5.173  38.166  13.899
19759W        W91288   8.938  28.234   3.106
19760W        W91289  27.096  11.781  13.272
19761W        W91290  18.983  34.914  11.097
19762W        W91291  40.847  12.172   1.289
19763W        W91292   2.388  14.666  13.607
19764W        W91293  38.164   3.150   1.458
19765W        W91294  17.256  18.693   1.871
19766W        W91295  35.052   7.321  13.438
19767W        W91296  25.458   9.154   1.944
19768W        W91297  43.315  16.160   2.480
19769W        W91298   8.108  14.354   5.067
19770W        W91299  12.309  36.038   1.317
19771W        W91300  24.093  41.110   3.568
19772W        W91301  14.379  20.548   0.055
19773W        W91302  32.056   6.327   2.202
19774W        W91303  34.799   3.786  13.800
19775W        W91304   9.802  25.606   0.999
19776W        W91305   5.565   3.874  10.418
19777W        W91306  11.346   4.350  12.151
19778W        W91307  39.797  13.642  14.997
19779W        W91308  19.977  33.313   0.287
19780W        W91309  43.766  39.162   1.734
19781W        W91310  27.476  12.794   0.894
19782W        W91311  27.204  24.904  12.376
19783W        W91312  42.990  33.608   4.017
19784W        W91313  41.285  39.076  11.085
19785W        W91314  20.558   6.113   4.704
19786W        W91315  11.207  28.810  12.478
19787W        W91316  22.297  10.429  11.109
19788W        W91317  23.179   7.756   1.303
19789W        W91318   9.262  29.946   3.189
19790W        W91319  22.058  33.385  14.573
19791W        W91320  14.542  23.214  13.878
19792W        W91321   3.169  15.297   1.779
19793W        W91322   4.680   1.257   4.206
19794W        W91323  26.974  31.938   0.438
19795W        W91324  34.656  14.175  11.204
19796W        W91325  35.930  42.591   0.287
19797W        W91326   4.267  29.116  10.591
19798W        W91327  38.624  25.136  10.897
19799W        W91328  40.941  30.603  14.724
19800W        W91329  28.634  41.011  11.604
19801W        W91330  24.571  27.395   4.906
19802W        W91331  12.254  44.441  11.394
19803W        W91332  23.521  33.833  11.998
19804W        W91333  19.710  25.222  13.887
19805W        W91334  40.947  18.268   3.102
19806W        W91335  19.041  28.893   3.250
19807W        W91336  23.517  18.095  12.384
19808W        W91337  21.712  32.991  11.119
19809W        W91338  16.050  22.144   4.045
19810W        W91339   4.101   6.144  11.969
19811W        W91340   2.560  42.381  10.661
19812W        W91341   6.020  27.900   3.663
19813W        W91342   3.929  25.876  10.761
19814W        W91343  12.920  30.318   1.790
19815W        W91344  38.204  34.494  13.106
19816W        W91345  33.479  38.018   0.908
19817W        W91346  38.031   7.192  10.859
19818W        W91347  44.293  12.632   1.188
19819W        W91348  32.900  18.551   3.643
19820W        W91349  44.319  25.986   2.871
19821W        W91350  38.027  13.431  11.980
19822W        W91351  23.418  35.548  11.145
19823W        W91352   4.215  14.860   4.582
19824W        W91353  39.238  21.274  14.550
19825W        W91354  40.368  40.569  11.596
19826W        W91355  33.899   3.440   0.707
19827W        W91356  15.263  32.043  13.878
19828W        W91357   8.856  38.934   3.710
19829W        W91358   0.460   2.596  13.659
19830W        W91359  34.142  36.482   2.621
19831W        W91360  28.675  14.084   3.919
19832W        W91361   9.267  27.708   4.199
19833W        W91362   8.522  22.918  13.060
19834W        W91363  32.640   1.911   4.256
19835W        W91364  11.226  28.711   0.820
19836W        W91365  33.341  25.343  11.301
19837W        W91366  28.619  37.369   0.281
19838W        W91367   0.345   2.305   3.317
19839W        W91368   5.842  29.021   3.597
19840W        W91369  29.960  39.912  12.030
19841W        W91370   5.935   3.144   4.761
19842W        W91371  16.210  18.877  12.315
19843W        W91372  39.290  11.828  12.602
19844W        W91373  25.791  19.229   3.655
19845W        W91374  15.565   8.247  10.706
19846W        W91375  23.742  20.703   1.969
19847W        W91376  44.094  10.909   4.654
19848W        W91377  39.428  41.171  12.464
19849W        W91378  41.288  42.008   4.137
19850W        W91379  13.775   1.259  11.490
19851W        W91380  21.968  44.362  12.074
19852W        W91381  31.113  27.504  11.256
19853W        W91382  37.978  32.091  12.050
19854W        W91383   8.412  14.196  13.335
19855W        W91384   3.498  41.882   1.866
19856W        W91385  23.030   7.985  12.354
19857W        W91386   5.514  36.447  10.666
19858W        W91387  13.745  25.012   3.755
19859W        W91388  30.452  27.556   0.503
19860W        W91389   7.349   7.606   0.282
19861W        W91390  18.902  22.001   2.888
19862W        W91391   7.003  32.891   4.232
19863W        W91392  28.931  26.183  13.755
19864W        W91393  31.270  17.243  11.282
19865W        W91394   9.578  38.055  11.897
19866W        W91395  34.374  39.170   3.571
19867W        W91396  38.538  20.187   4.779
19868W        W91397   2.651   9.434   1.909
19869W        W91398  24.514   8.203  12.966
19870W        W91399   2.202   2.913  12.653
19871W        W91400   8.557  44.617   2.896
19872W        W91401   9.214  17.622   4.568
19873W        W91402   6.937  16.639   2.926
19874W        W91403   6.708  32.621   3.908
19875W        W91404  23.131  32.997   0.786
19876W        W91405  13.208  28.511  14.776
19877W        W91406  39.891   2.286  13.558
19878W        W91407   5.258  27.850  10.844
19879W        W91408   1.134  19.362   9.539
19880W        W91409  12.865  17.307  13.593
19881W        W91410  41.777   1.190   1.697
19882W        W91411  20.785  13.074   5.086
19883W        W91412   9.392  41.543  11.700
19884W        W91413  30.073  27.709   4.543
19885W        W91414   6.709  21.587  14.907
19886W        W91415  16.371   6.821   2.681
19887W        W91416  14.578   2.018   0.969
19888W        W91417  10.618  19.253  14.043
19889W        W91418  26.599  29.642   0.334
19890W        W91419  42.990  20.010  13.949
19891W        W91420  33.823  28.573   4.983
19892W        W91421  10.720  15.762  13.033
19893W        W91422  31.010  30.876   4.727
19894W        W91423  36.076  44.474  12.927
19895W        W91424  44.923   8.383  13.462
19896W        W91425  16.693  19.777   3.659
19897W        W91426   4.086  32.437   2.716
19898W        W91427  38.399  35.290   4.094
19899W        W91428   6.812  42.832  10.603
19900W        W91429  40.877  19.713   4.163
19901W        W91430  20.187  27.978  13.978
19902W        W91431  44.039   5.000  11.135
19903W        W91432  34.560  15.277   3.005
19904W        W91433  12.566  40.699   4.172
19905W        W91434  24.569  34.435  14.216
19906W        W91435  32.442  31.528  12.627
19907W        W91436  27.056  35.167  11.618
19908W        W91437  10.367  12.126   2.915
19909W        W91438  41.370  23.257   1.677
19910W        W91439  22.220  24.038   0.058
19911W        W91440  31.546  29.230  11.147
19912W        W91441  16.668  36.619   0.533
19913W        W91442  15.180  27.141   0.377
19914W        W91443  13.684   3.241   3.259
19915W        W91444  10.754  28.509   0.744
19916W        W91445  44.942  15.390  13.778
19917W        W91446  11.867  15.323  14.478
19918W        W91447  37.493  39.267   1.947
19919W        W91448  28.098  20.170   0.719
19920W        W91449   1.722  30.498  10.635
19921W        W91450  39.988   7.807   1.802
19922W        W91451  25.751   1.287  10.942
19923W        W91452  34.372  23.491   2.350
19924W        W91453  28.587   7.398  14.371
19925W        W91454  31.153  14.308  12.346
19926W        W91455  11.909  30.110   1.062
19927W        W91456   1.318  14.155   4.846
19928W        W91457  22.130   2.061  11.650
19929W        W91458  42.575  36.951  13.499
19930W        W91459  10.130  41.475   4.111
19931W        W91460  39.553  38.469   1.195
19932W        W91461  25.790  32.600  13.756
19933W        W91462  10.766   2.509   3.608
19934W        W91463  14.047  15.074  10.528
19935W        W91464  36.826  10.561   0.913
19936W        W91465  42.198  36.446   2.141
19937W        W91466  39.888  32.377  13.518
19938W        W91467  11.423  37.906  11.258
19939W        W91468   1.755   1.517  11.595
19940W        W91469  35.939  20.322   1.951
19941W        W91470   9.961  11.734  14.558
19942W        W91471  43.096  43.931  10.775
19943W        W91472  43.705  18.478   2.775
19944W        W91473   1.516  15.550  11.751
19945W        W91474   9.555  33.110   1.588
19946W        W91475  34.861  44.276  13.397
19947W        W91476  13.176  44.458  11.911
19948W        W91477  13.764  20.663  10.658
19949W        W91478  37.567   2.024  10.885
19950W        W91479  26.980  10.738   1.431
19951W        W91480   1.877  43.308  14.032
19952W        W91481  30.214  38.960  11.556
19953W        W91482  13.601  24.976   4.653
19954W        W91483  31.166  15.659  13.785
19955W        W91484  26.095   5.641  11.426
19956W        W91485  39.147  16.938  11.155
19957W        W91486  24.653   6.583   3.506
19958W        W91487  37.347  13.693   0.955
19959W        W91488  21.014  24.133   2.550
19960W        W91489  36.451  34.716   1.912
19961W        W91490  33.484  32.224   3.718
19962W        W91491  30.391  35.823  13.800
19963W        W91492   6.512   4.312  13.410
19964W        W91493  23.454  18.356   1.123
19965W        W91494  24.736  18.445   3.345
19966W        W91495  41.035   4.040   2.688
19967W        W91496  29.721  22.562  11.577
19968W        W91497  43.855  12.100   1.766
19969W        W91498  23.315  15.271  10.994
19970W        W91499  14.549  28.050  11.633
19971W        W91500  19.722   5.237  14.070
19972W        W91501  39.273   6.274   0.312
19973W        W91502   5.985  37.565   1.911
19974W        W91503  26.245  39.367  11.665
19975W        W91504  13.693  16.420   0.477
19976W        W91505  18.964  27.243   2.450
19977W        W91506  18.371  29.050  11.737
19978W        W91507  41.476  22.680  13.564
19979W        W91508   0.492  11.048   4.669
19980W        W91509  33.800  18.138  14.989
19981W        W91510  41.484  21.178  10.892
19982W        W91511  19.734   1.360   0.362
19983W        W91512   9.137  30.481  10.352
19984W        W91513  13.040  18.518  14.219
19985W        W91514  14.834  20.012   4.599
19986W        W91515  23.012  33.930   4.804
19987W        W91516  38.624  21.209   1.751
19988W        W91517  32.653  15.732   3.217
19989W        W91518  19.638  14.344   0.296
19990W        W91519  11.304   6.034   0.478
19991W        W91520  14.205  28.678  12.350
19992W        W91521  41.109  10.176  13.728
19993W        W91522   4.683  32.910   3.214
19994W        W91523  23.948   2.307   0.815
19995W        W91524   6.633   9.113   0.258
19996W        W91525  44.729  40.421  12.010
19997W        W91526   3.973  35.813   3.235
19998W        W91527  27.442  18.798   4.567
19999W        W91528  40.376   5.118   4.647
20000W        W91529  44.283  26.193  10.665
20001W        W91530   3.882   5.943  10.738
20002W        W91531  25.669  16.772  13.011
20003W        W91532  17.245  24.708   2.793
20004W        W91533   9.377   9.853  12.452
20005W        W91534   3.470  12.553   3.750
20006W        W91535   0.399  33.671   0.208
20007W        W91536  18.859   8.267   1.402
20008W        W91537  17.126  14.662   2.308
20009W        W91538  31.570  13.341   3.406
20010W        W91539  42.028  34.851  14.837
20011W        W91540   0.901  36.391   2.843
20012W        W91541  18.044  39.038  14.454
20013W        W91542  20.214  24.481   1.484
20014W        W91543  36.879  14.561  13.069
20015W        W91544   2.560  12.592   2.177
20016W        W91545   1.048   8.577  11.287
20017W        W91546  10.222  12.130  12.493
20018W        W91547  34.094  43.362  14.245
20019W        W91548  15.248  19.696   4.670
20020W        W91549  26.999  33.430   1.703
20021W        W91550  41.734  19.321   2.803
20022W        W91551  18.664  30.218   1.293
20023W        W91552  23.119  35.678   4.176
20024W        W91553  10.890   8.247   1.777
20025W        W91554   1.524  31.906   3.740
20026W        W91555   8.591  33.963  14.186
20027W        W91556   9.906  31.036   1.964
20028W        W91557  24.457  40.016  10.824
20029W        W91558  44.817  24.213  14.451
20030W        W91559  41.491  29.561   1.466
20031W        W91560  32.844   4.257  12.900
20032W        W91561  25.685  43.377   4.884
20033W        W91562  40.004  30.077   1.183
20034W        W91563  17.358  36.912  12.414
20035W        W91564  44.938  11.364  11.183
20036W        W91565   3.254  21.515   3.308
20037W        W91566  26.629   8.752  14.316
20038W        W91567  40.837  32.573   0.433
20039W        W91568  10.285  44.206  11.583
20040W        W91569   5.989   8.918   0.345
20041W        W91570  23.232   7.636   4.066
20042W        W91571  18.672   4.552   0.391
20043W        W91572  34.843  27.648  13.627
20044W        W91573  17.007  23.275   1.376
20045W        W91574  33.120  18.613  11.619
20046W        W91575   2.194  24.167  13.341
20047W        W91576   1.452  39.266  10.677
20048W        W91577  12.164   0.512  12.235
20049W        W91578   0.617  32.546   3.201
20050W        W91579  40.338   5.263   1.925
20051W        W91580   9.410   2.857  11.985
20052W        W91581  18.596  28.625   3.300
20053W        W91582   8.874  42.900   1.282
20054W        W91583  24.022  19.487   2.762
20055W        W91584  34.691   8.752  12.050
20056W        W91585  20.704   4.202   4.980
20057W        W91586  40.952  24.209   4.388
20058W        W91587  26.408  39.312   0.449
20059W        W91588  41.876  41.873  10.649
20060W        W91589  11.686  40.948  12.894
20061W        W91590   6.462  41.862   2.632
20062W        W91591  24.374  26.248   0.963
20063W        W91592  24.065  30.874   0.894
20064W        W91593  41.493  33.883  11.973
20065W        W91594  12.843  40.954   2.855
20066W        W91595  27.455  43.697   0.958
20067W        W91596  26.113  36.809  11.585
20068W        W91597  18.092  39.423  10.736
20069W        W91598  24.957  12.259   2.734
20070W        W91599  35.035  32.940  14.065
20071W        W91600   7.799  39.284   1.383
20072W        W91601  40.328  16.333  11.629
20073W        W91602  13.669   4.020   2.058
20074W        W91603  35.571  25.964   2.130
20075W        W91604   6.153  41.585   2.232
20076W        W91605  20.764  24.789   4.554
20077W        W91606  33.365  17.751  10.970
20078W        W91607   0.357  33.968   1.032
20079W        W91608  41.385  20.776  10.570
20080W        W91609  19.049   9.141  11.170
20081W        W91610   9.790   8.160   1.026
20082W        W91611  24.127  27.092   4.238
20083W        W91612  34.978  44.003   3.327
20084W        W91613   5.411   0.559   3.117
20085W        W91614   7.800   0.476  13.413
20086W        W91615  33.896   3.335   1.717
20087W        W91616  15.191   1.571   0.252
20088W        W91617  13.355  40.838  10.941
20089W        W91618  25.897  13.593   0.407
20090W        W91619  11.724  41.431   4.633
20091W        W91620  40.961  40.867   1.908
20092W        W91621   9.818  33.497   1.831
20093W        W91622  38.476  38.558   3.814
20094W        W91623  38.004  23.350  13.358
20095W        W91624  37.646  21.524  13.146
20096W        W91625  44.706  17.062   1.207
20097W        W91626   3.472  23.093   2.906
20098W        W91627   6.811   2.384   0.464
20099W        W91628  32.944  19.142   4.625
20100W        W91629   3.936   2.392  14.455
20101W        W91630   9.584  33.880  14.407
20102W        W91631  37.506  44.983  14.442
20103W        W91632  14.124  27.578  13.180
20104W        W91633  28.479   8.792  10.923
20105W        W91634   6.738  23.726   2.036
20106W        W91635   4.006  36.905   1.002
20107W        W91636  22.052  33.505   0.506
20108W        W91637  40.001  24.414   4.594
20109W        W91638  32.112   7.344  13.429
20110W        W91639   1.464  17.144   4.282
20111W        W91640   2.346  29.330   2.342
20112W        W91641   1.523  25.411   2.792
20113W        W91642  17.561  34.729   0.782
20114W        W91643  33.110  10.627  12.572
20115W        W91644   9.651  28.051  10.243
20116W        W91645   6.936   2.735  11.158
20117W        W91646  40.967   6.277  14.092
20118W        W91647  13.764   8.217   2.661
20119W        W91648   0.802  13.478   0.625
20120W        W91649  18.576  17.021   2.280
20121W        W91650  17.501  33.479  13.513
20122W        W91651  36.531  30.035   2.183
20123W        W91652  22.078  33.845   2.663
20124W        W91653  16.620  35.683  14.327
20125W        W91654  39.792  34.388  11.649
20126W        W91655   3.914  41.493   2.054
20127W        W91656   8.771  26.505  10.363
20128W        W91657  37.857  23.756   3.156
20129W        W91658  30.157  29.962   4.304
20130W        W91659  32.904  24.221   1.326
20131W        W91660  38.690   6.921  14.913
20132W        W91661  12.632  27.292  11.182
20133W        W91662  42.489  10.372  11.985
20134W        W91663  16.990  23.141  10.046
20135W        W91664  27.916  28.371  14.720
20136W        W91665  31.902  24.571  11.096
20137W        W91666   5.150  14.711  13.181
20138W        W91667  10.462  21.731  10.974
20139W        W91668   8.195  28.915  13.395
20140W        W91669  23.464  29.136   4.081
20141W        W91670   1.467  34.888  14.440
20142W        W91671  13.204  28.808   2.099
20143W        W91672  25.613  42.592   0.947
20144W        W91673  21.329  27.213   1.343
20145W        W91674  26.108   0.648  11.555
20146W        W91675  12.571  40.558   1.841
20147W        W91676   8.040  15.291   0.748
20148W        W91677  13.587  34.272  13.715
20149W        W91678   2.354  31.059   4.510
20150W        W91679  28.960   0.249   0.877
20151W        W91680   8.150  14.437   3.699
20152W        W91681  17.232  44.795   2.460
20153W        W91682  11.592  27.625   2.141
20154W        W91683  33.448  30.187  10.756
20155W        W91684  19.723  20.619  13.961
20156W        W91685  12.819  44.467   2.444
20157W        W91686   1.414  10.996  14.098
20158W        W91687  21.070  19.257  12.131
20159W        W91688  27.187  30.434   0.310
20160W        W91689  38.527  34.700   0.803
20161W        W91690   9.178  33.319   3.106
20162W        W91691  22.014   4.176   4.144
20163W        W91692  14.007  41.813   0.833
20164W        W91693  33.895   4.917   1.892
20165W        W91694  13.647  14.164  14.431
20166W        W91695  26.986  10.206   1.502
20167W        W91696   0.985   7.603  14.002
20168W        W91697  42.274   3.521  14.970
20169W        W91698   5.426  29.073   3.943
20170W        W91699  18.057  20.631  14.823
20171W        W91700   6.746  41.191   1.931
20172W        W91701  21.137  38.103  14.865
20173W        W91702   2.503  44.264   3.199
20174W        W91703  13.153  32.613  12.548
20175W        W91704  29.846  24.515   2.701
20176W        W91705   1.450  25.528   3.714
20177W        W91706  41.997  30.001   3.536
20178W        W91707   7.796  31.713  12.494
20179W        W91708  13.100  34.656   2.885
20180W        W91709  32.682  33.120   4.210
20181W        W91710  30.651  27.167   4.128
20182W        W91711  39.637  24.335  13.925
20183W        W91712   6.727   8.897   2.259
20184W        W91713   4.415   3.854  12.618
20185W        W91714  32.386   1.266  14.770
20186W        W91715  41.982  21.529  11.927
20187W        W91716   8.333   3.301  11.625
20188W        W91717  24.152  35.859  11.400
20189W        W91718  20.334  15.711   0.321
20190W        W91719  31.930  43.444   3.746
20191W        W91720   7.785   2.996   0.471
20192W        W91721  25.033  16.381  13.294
20193W        W91722   5.847  11.939  11.102
20194W        W91723  21.074  38.799   0.312
20195W        W91724  25.042   0.830  14.854
20196W        W91725  36.972   7.164   2.314
20197W        W91726  25.139   2.298  12.975
20198W        W91727  20.738  28.743   4.262
20199W        W91728  10.904   0.873  13.756
20200W        W91729  17.553  34.451   1.545
20201W        W91730  26.998   2.707   4.533
20202W        W91731   7.202  12.060  11.086
20203W        W91732  40.414  37.073   3.602
20204W        W91733  37.952   8.149   4.630
20205W        W91734  29.968  17.615  12.591
20206W        W91735  36.511   3.483   0.689
20207W        W91736  12.325  43.303  10.388
20208W        W91737  22.273  11.705   3.616
20209W        W91738  41.715  37.294   4.309
20210W        W91739  19.042  36.827   4.133
20211W        W91740  23.138  40.009  11.206
20212W        W91741  17.615  27.018   1.507
20213W        W91742   5.804  14.572  11.804
20214W        W91743  42.325   4.344   2.736
20215W        W91744  23.699   3.733  12.832
20216W        W91745   7.775   9.941   3.294
20217W        W91746  41.616   5.788  12.089
20218W        W91747  42.747  40.310  13.505
20219W        W91748   7.277  20.883   4.761
20220W        W91749  43.499  30.869   5.324
20221W        W91750  13.909  36.849   4.055
20222W        W91751  42.392  15.675   2.759
20223W        W91752  41.155   0.428   0.284
20224W        W91753  38.293  36.319  14.390
20225W        W91754  34.505  16.103  10.540
20226W        W91755  22.193  30.925  14.107
20227W        W91756  41.060  39.110   2.269
20228W        W91757  13.327  39.502  13.606
20229W        W91758  28.106  18.700   1.248
20230W        W91759  16.370  12.947   4.035
20231W        W91760  35.844  15.592  14.805
20232W        W91761  17.327  43.246  11.151
20233W        W91762  28.763  22.459  14.339
20234W        W91763  20.764  10.660  13.301
20235W        W91764  42.532  38.065   2.671
20236W        W91765  27.584  19.927  12.007
20237W        W91766  17.287   6.161   1.902
20238W        W91767   5.204  41.896  11.013
20239W        W91768   3.837  11.595  12.755
20240W        W91769  37.696  30.169   1.964
20241W        W91770  31.893  22.522   4.704
20242W        W91771  21.714  38.103  11.996
20243W        W91772   9.225   4.430  14.904
20244W        W91773  41.439  14.795  12.374
20245W        W91774   6.186  34.351  10.723
20246W        W91775  33.405  23.662  14.021
20247W        W91776  12.658   2.171   4.468
20248W        W91777   8.489   4.782  10.393
20249W        W91778  12.500  30.022   1.856
20250W        W91779   0.748   9.329   1.274
20251W        W91780  44.356  21.227  11.224
20252W        W91781  21.100  18.201   3.745
20253W        W91782   1.696   6.817   1.379
20254W        W91783  16.388  41.449   2.231
20255W        W91784  24.022  22.405  13.995
20256W        W91785  21.468  34.101  12.855
20257W        W91786  40.534  19.560   0.686
20258W        W91787  34.430   0.948  10.735
20259W        W91788  35.533  14.635   3.279
20260W        W91789   1.745  44.847  12.025
20261W        W91790   0.723  40.815   1.775
20262W        W91791  16.896  32.635  14.604
20263W        W91792   5.993  29.084   0.334
20264W        W91793  13.412  31.977   0.815
20265W        W91794  44.895  32.725   0.852
20266W        W91795   4.819  33.638   1.735
20267W        W91796   3.673  37.820  10.586
20268W        W91797  22.454  30.105   1.642
20269W        W91798  29.638  22.214   4.081
20270W        W91799  27.437  22.319   0.295
20271W        W91800  36.020  31.390   0.422
20272W        W91801  41.778  34.961  13.463
20273W        W91802  27.885   0.838   1.457
20274W        W91803  41.253  36.011  11.405
20275W        W91804   3.779  36.793   2.276
20276W        W91805  18.592   2.813   4.671
20277W        W91806  40.297  18.994   3.913
20278W        W91807  42.041   6.858  14.756
20279W        W91808  31.488  26.813   4.979
20280W        W91809   3.805   8.208   4.213
20281W        W91810  23.564  39.580  12.863
20282W        W91811  43.037  31.063   0.976
20283W        W91812   9.541   0.221   3.746
20284W        W91813  40.106   9.196  10.924
20285W        W91814   1.285   8.804  14.938
20286W        W91815  12.672  15.195  14.113
20287W        W91816   6.943   3.787  14.719
20288W        W91817   6.424  21.808  14.029
20289W        W91818  23.971  36.525  12.045
20290W        W91819  36.496  32.398  14.992
20291W        W91820  29.092  19.978   3.081
20292W        W91821  44.135   5.276   1.358
20293W        W91822  20.546   6.801  11.233
20294W        W91823  13.774  34.154  12.993
20295W        W91824  18.942  11.588   1.364
20296W        W91825   2.826   3.230  11.457
20297W        W91826  21.666  21.332  12.453
20298W        W91827  40.602  12.999  14.377
20299W        W91828  17.203  10.859  14.598
20300W        W91829  37.157  42.051   0.519
20301W        W91830  19.114  41.965  12.947
20302W        W91831  31.867  26.744   0.892
20303W        W91832  14.631  41.880  10.774
20304W        W91833  35.400   2.486   0.267
20305W        W91834  10.179   2.372  14.976
20306W        W91835  35.577  22.343  13.349
20307W        W91836  44.835  38.393   4.313
20308W        W91837   5.961  16.665   4.130
20309W        W91838   1.224  30.445   3.269
20310W        W91839  28.686   6.684   2.869
20311W        W91840  37.557  21.729  10.889
20312W        W91841   8.968  30.132  14.484
20313W        W91842   2.783   1.844   2.800
20314W        W91843  10.709  34.200   1.227
20315W        W91844   1.256  41.339  13.628
20316W        W91845  30.975  40.765  10.727
20317W        W91846  11.885  13.875   0.956
20318W        W91847  27.555  25.347   0.887
20319W        W91848  31.329  31.011   0.726
20320W        W91849   4.189  25.173   3.795
20321W        W91850  19.309   9.690   2.692
20322W        W91851  24.729  28.436  12.554
20323W        W91852  16.167  15.593   3.671
20324W        W91853   3.837  39.074   4.738
20325W        W91854  14.597  19.792   4.177
20326W        W91855  26.611  30.752   5.126
20327W        W91856  44.991  11.741  12.023
20328W        W91857   2.663   2.015  14.271
20329W        W91858  27.150  33.655   3.184
20330W        W91859  13.570  13.223   0.898
20331W        W91860   3.059  11.681  14.485
20332W        W91861   7.797  43.815  11.343
20333W        W91862  31.930  29.916  14.005
20334W        W91863  35.652  21.281  11.090
20335W        W91864  33.528  33.572   0.938
20336W        W91865  38.435   6.049  12.975
20337W        W91866  31.483  39.390   1.346
20338W        W91867  37.039   8.597  14.809
20339W        W91868  12.350  19.116  11.385
20340W        W91869   2.734  17.294  12.928
20341W        W91870  43.523  12.135  11.703
20342W        W91871  22.198  22.049  13.401
20343W        W91872  20.113  25.144  11.503
20344W        W91873  12.855  35.054  11.773
20345W        W91874  26.929  33.068   5.526
20346W        W91875  37.996  21.309  12.436
20347W        W91876   4.529  42.166  13.933
20348W        W91877  24.614  10.923   3.865
20349W        W91878  32.506  34.449   2.822
20350W        W91879  33.996  44.741   3.787
20351W        W91880  28.678  23.778   3.217
20352W        W91881   3.291  42.629  14.996
20353W        W91882  19.491   2.659   3.657
20354W        W91883  17.306  22.788   0.917
20355W        W91884  44.980  35.493  10.469
20356W        W91885   5.352   6.290   4.244
20357W        W91886  11.340  14.101  14.433
20358W        W91887   2.189  34.549   1.789
20359W        W91888  21.177  36.378  12.006
20360W        W91889   0.924  26.982   2.357
20361W        W91890  40.170   5.918   1.783
20362W        W91891   7.003   4.485   4.054
20363W        W91892  20.780  31.069  14.728
20364W        W91893   3.467  25.715   1.892
20365W        W91894   1.352  16.201   4.357
20366W        W91895   9.229  31.161   4.093
20367W        W91896   6.654  28.005  13.300
20368W        W91897  11.422  29.015  14.169
20369W        W91898  36.303  21.806   2.348
20370W        W91899  14.770  39.025  10.091
20371W        W91900  39.071  10.284  11.964
20372W        W91901   9.187   2.463   3.275
20373W        W91902  39.532   7.064  11.466
20374W        W91903  26.668  44.761  12.601
20375W        W91904  27.058   6.185   2.758
20376W        W91905   3.792   5.441  10.583
20377W        W91906  14.189  11.421   2.012
20378W        W91907   2.642  19.245   3.339
20379W        W91908  11.625  29.238   0.437
20380W        W91909  42.344  44.882   1.698
20381W        W91910  28.626  25.912   2.733
20382W        W91911   9.686  42.311   3.103
20383W        W91912  40.744  43.286  11.386
20384W        W91913   0.210  38.957   3.862
20385W        W91914  39.468  17.614   4.424
20386W        W91915  32.545  23.799   2.964
20387W        W91916  40.411  32.485   2.860
20388W        W91917  21.948  39.345   0.667
20389W        W91918  16.022  14.845  13.770
20390W        W91919   2.346  30.162   0.331
20391W        W91920  16.799  44.823   3.616
20392W        W91921  30.536  26.459  11.109
20393W        W91922   7.479  25.569   4.338
20394W        W91923  34.971  40.445  10.737
20395W        W91924   1.672  43.205   2.299
20396W        W91925   2.447  27.188  13.513
20397W        W91926  41.370  23.958  14.641
20398W        W91927  28.137  21.413  14.794
20399W        W91928  20.101  23.370  11.976
20400W        W91929  44.436  14.923  14.719
20401W        W91930  23.588  32.858  13.093
20402W        W91931  17.988  15.707   1.591
20403W        W91932  18.017   6.304   3.846
20404W        W91933   6.888  17.852  13.914
20405W        W91934  30.007  26.220   4.606
20406W        W91935   1.698   9.794  11.395
20407W        W91936  39.927   1.929   1.430
20408W        W91937  39.938  23.715   2.925
20409W        W91938   4.907  30.794   3.675
20410W        W91939  33.845  38.439   1.421
20411W        W91940  33.376  42.340   4.073
20412W        W91941  44.507   0.581   4.377
20413W        W91942  25.703  28.498  12.384
20414W        W91943  42.515  43.011   3.008
20415W        W91944  39.610   9.630  12.091
20416W        W91945   2.460  30.003  13.344
20417W        W91946  14.756  42.276  13.049
20418W        W91947  24.496  26.341   4.979
20419W        W91948  16.970  26.935  11.914
20420W        W91949  27.889  41.835  10.529
20421W        W91950   6.378  30.399   0.240
20422W        W91951   6.330  35.334   3.652
20423W        W91952   3.505   0.447   4.758
20424W        W91953  11.586  44.010   3.894
20425W        W91954  43.501   1.251  12.086
20426W        W91955  35.403   5.048  14.323
20427W        W91956  18.791  25.153  12.766
20428W        W91957  26.231  37.986  12.790
20429W        W91958  24.413  44.286   3.697
20430W        W91959  23.027   7.188   2.125
20431W        W91960   0.509  22.245   1.346
20432W        W91961  38.387  34.027  10.538
20433W        W91962  12.544  40.559  10.889
20434W        W91963  33.865  15.372  11.416
20435W        W91964  28.080  41.801  13.956
20436W        W91965  10.183  32.923  11.736
20437W        W91966  27.302   1.995   0.950
20438W        W91967  13.728   0.317   2.928
20439W        W91968  32.207  41.952  13.356
20440W        W91969  28.463   8.879  13.926
20441W        W91970   7.896  25.778   3.205
20442W        W91971  34.657  22.521   0.381
20443W        W91972  16.267  34.798   1.699
20444W        W91973   5.221  41.486   5.289
20445W        W91974  38.754  23.861   4.118
20446W        W91975  44.910  13.146   2.776
20447W        W91976   7.722  37.805   4.207
20448W        W91977   9.240   8.175  12.789
20449W        W91978  32.649   2.940  12.366
20450W        W91979  25.926  43.798   4.042
20451W        W91980   3.718  29.474  13.545
20452W        W91981  26.449  18.064  11.673
20453W        W91982  41.287  42.183  12.059
20454W        W91983  34.096   4.976  14.005
20455W        W91984   9.500   1.054  13.794
20456W        W91985  31.451  37.345   0.914
20457W        W91986  28.922  12.333  12.163
20458W        W91987  26.080  15.174  13.813
20459W        W91988  36.468   6.521   0.331
20460W        W91989  13.207  30.885  11.939
20461W        W91990  36.089   5.858  13.934
20462W        W91991  27.585  35.820  13.895
20463W        W91992  40.008  28.066   4.695
20464W        W91993  44.194  12.256  10.606
20465W        W91994  18.832  44.806  10.716
20466W        W91995  39.689  31.148   4.594
20467W        W91996  34.449  27.225   4.486
20468W        W91997   8.834  25.714  12.061
20469W        W91998  34.523  11.264   0.913
20470W        W91999  22.188  29.967   2.443
20471W        W92000   3.382  11.238   4.775
20472W        W92001  15.888  24.165  14.742
20473W        W92002  27.524   2.743  13.042
20474W        W92003   4.829   2.248  13.487
20475W        W92004  12.210  34.317  12.046
20476W        W92005  25.569  18.515   4.069
20477W        W92006  12.576   4.535  14.265
20478W        W92007  13.637  31.981  11.480
20479W        W92008  39.518  25.298  14.396
20480W        W92009  19.159  33.878  12.162
20481W        W92010  16.032  15.724  14.945
20482W        W92011   8.372   9.183   4.532
20483W        W92012   7.989   4.162   4.074
20484W        W92013  38.759   8.155   4.656
20485W        W92014   0.642   9.241   4.878
20486W        W92015  20.224  23.200   1.100
20487W        W92016  39.828  31.278  11.082
20488W        W92017  34.136  23.346   3.538
20489W        W92018  43.956  30.351  13.820
20490W        W92019  24.623  31.957   1.401
20491W        W92020  12.737  13.838  12.410
20492W        W92021  41.674  27.646  14.029
20493W        W92022  20.729   6.830   0.444
20494W        W92023  19.757  28.693  12.018
20495W        W92024  36.282  23.974  14.566
20496W        W92025  25.907  34.142   1.880
20497W        W92026  10.089  33.837  14.557
20498W        W92027  20.628  36.058   0.364
20499W        W92028  32.449  21.078  10.826
20500W        W92029  18.061  15.688   2.628
20501W        W92030  22.756  44.907   0.800
20502W        W92031  19.751  43.634   0.046
20503W        W92032  41.312  31.600   3.507
20504W        W92033  19.391  37.282  14.230
20505W        W92034  44.412  24.755   2.312
20506W        W92035  18.621  10.797  12.468
20507W        W92036  26.630  40.073   0.509
20508W        W92037  32.642   7.002   4.324
20509W        W92038  25.509  16.755  11.167
20510W        W92039   5.626  23.296   3.145
20511W        W92040  38.961  39.365  10.603
20512W        W92041   2.316  19.664  13.589
20513W        W92042  12.457  15.654   1.598
20514W        W92043   4.769  27.230  12.908
20515W        W92044   8.708  35.341  11.546
20516W        W92045  28.044  31.182  12.865
20517W        W92046  38.561   9.564   4.769
20518W        W92047   7.698  34.557   4.800
20519W        W92048   8.207  40.381   4.335
20520W        W92049  36.858  30.507  12.976
20521W        W92050   6.914  16.319   0.764
20522W        W92051  44.552   1.076   4.567
20523W        W92052  43.763  36.935   4.072
20524W        W92053  22.929  36.398  12.143
20525W        W92054   1.331  44.994   0.053
20526W        W92055  32.445  23.438   1.335
20527W        W92056  21.837  22.256  10.554
20528W        W92057  36.543  12.899   1.144
20529W        W92058  37.506   7.988   3.696
20530W        W92059  12.473  21.125   2.219
20531W        W92060   5.264   0.836   1.217
20532W        W92061  24.031  14.433   4.568
20533W        W92062  38.920  36.922  10.824
20534W        W92063   2.400  42.044  14.933
20535W        W92064  14.322  16.170   1.364
20536W        W92065  22.546  35.585  11.998
20537W        W92066  11.749  23.261  13.927
20538W        W92067  35.368   8.420  10.659
20539W        W92068  17.125   7.694   0.900
20540W        W92069  32.030  37.499   3.428
20541W        W92070  19.848  18.744   4.516
20542W        W92071  18.540  40.154  11.505
20543W        W92072  30.552  26.023   2.376
20544W        W92073  10.669  23.385  13.043
20545W        W92074   6.649  15.637  12.539
20546W        W92075  37.498  18.709  12.213
20547W        W92076  12.153   7.225   3.313
20548W        W92077  39.231  26.653  14.248
20549W        W92078  44.235   6.574   1.857
20550W        W92079  42.026  42.815   4.956
20551W        W92080  34.002  29.687   1.330
20552W        W92081  43.878  11.618  11.078
20553W        W92082  31.740  37.390   1.357
20554W        W92083   2.752  17.656  11.181
20555W        W92084  10.086   8.783  10.650
20556W        W92085  23.503   3.231  14.729
20557W        W92086   9.642  36.351   0.397
20558W        W92087  29.593  16.564  13.940
20559W        W92088   1.903  23.971   1.875
20560W        W92089  36.496  21.129  13.848
20561W        W92090  26.583   4.915  10.200
20562W        W92091   5.703  32.806   4.849
20563W        W92092  18.929  30.303   4.424
20564W        W92093  34.381   7.148  14.915
20565W        W92094   6.573  37.841  11.021
20566W        W92095   0.813  18.903  14.300
20567W        W92096  40.319  25.691   0.356
20568W        W92097  32.352  13.291   2.578
20569W        W92098   1.400  31.552  11.687
20570W        W92099  43.504   8.435  11.217
20571W        W92100  35.575  31.859  13.385
20572W        W92101  35.477  20.701   4.723
20573W        W92102   8.831  22.571  14.985
20574W        W92103  19.769  30.895  13.352
20575W        W92104  30.885   4.427  14.473
20576W        W92105  20.319  32.839   3.644
20577W        W92106  39.477  33.100  11.419
20578W        W92107  15.705  13.399   0.998
20579W        W92108  10.317  20.981   1.299
20580W        W92109  20.625  37.593   2.891
20581W        W92110  20.586  28.710  12.945
20582W        W92111  11.652  23.445  11.130
20583W        W92112   1.047  18.200   2.569
20584W        W92113  24.203  13.902   3.815
20585W        W92114  13.233   8.133   2.779
20586W        W92115   7.755  12.223  12.549
20587W        W92116  39.839  14.375   0.927
20588W        W92117   6.381   2.166  14.380
20589W        W92118  20.579   0.433  10.975
20590W        W92119  28.941   1.667   4.370
20591W        W92120  11.287  38.921   4.238
20592W        W92121  11.942  24.835   1.832
20593W        W92122  43.998   8.244   2.117
20594W        W92123  42.650  38.498  14.690
20595W        W92124  14.352  17.254   4.021
20596W        W92125  18.314  21.888  11.216
20597W        W92126  24.115  22.685   4.675
20598W        W92127  13.588  22.535  11.496
20599W        W92128  29.103  34.221   4.910
20600W        W92129   7.150   6.745  13.271
20601W        W92130  22.634   2.717  11.903
20602W        W92131   8.261  21.126  11.901
20603W        W92132  27.047   3.744  11.923
20604W        W92133  40.227  25.613  11.211
20605W        W92134  29.094  43.506   3.325
20606W        W92135  35.013   4.164   2.368
20607W        W92136  17.694  24.114   1.175
20608W        W92137  14.336  15.561   3.797
20609W        W92138   3.199  37.372  12.509
20610W        W92139   2.723  36.713  13.973
20611W        W92140   5.614   8.341   3.882
20612W        W92141  31.557  14.839  13.774
20613W        W92142  14.582  23.738  14.624
20614W        W92143  17.291  36.388   1.184
20615W        W92144  35.431  29.083   1.886
20616W        W92145  11.393   2.814   0.825
20617W        W92146  18.783   1.031  12.005
20618W        W92147  20.162  40.010  12.510
20619W        W92148   5.198  32.377  11.691
20620W        W92149  24.062   3.501  12.545
20621W        W92150  16.117  32.694  13.024
20622W        W92151  23.041  17.075   3.142
20623W        W92152  38.286  24.624   4.023
20624W        W92153  29.032  38.117   0.842
20625W        W92154  28.413  32.301   1.404
20626W        W92155   5.339  14.694   3.717
20627W        W92156  11.336  29.882   3.242
20628W        W92157  15.817  25.694  10.704
20629W        W92158  12.829  17.932   3.113
20630W        W92159   6.740  13.016   0.403
20631W        W92160  17.894   9.678  13.607
20632W        W92161  21.190  18.351  11.158
20633W        W92162  19.612   2.498   0.946
20634W        W92163  23.743  40.559   2.417
20635W        W92164  35.279  12.965   0.291
20636W        W92165  15.222  17.771  14.766
20637W        W92166  44.435  20.761   3.177
20638W        W92167  26.561  23.987  13.296
20639W        W92168   7.319  19.736   4.691
20640W        W92169  27.991  24.338   4.973
20641W        W92170  17.317  18.575   2.850
20642W        W92171  12.254   0.954   4.951
20643W        W92172  33.839  41.500  11.576
20644W        W92173  36.551  44.029  10.585
20645W        W92174   5.910  31.890  13.870
20646W        W92175  21.103  26.890   2.779
20647W        W92176  44.998  23.678  10.618
20648W        W92177  42.317  31.522   0.288
20649W        W92178  41.943   8.113   0.996
20650W        W92179  13.864  26.052   2.183
20651W        W92180  44.272   9.442   3.212
20652W        W92181   4.336   6.397   0.434
20653W        W92182  42.129   2.828  11.156
20654W        W92183  21.646   4.973   1.443
20655W        W92184   8.963  10.283  11.143
20656W        W92185   4.140  19.401  10.247
20657W        W92186  31.207  10.099   2.212
20658W        W92187  16.621  31.887   1.666
20659W        W92188  32.690  13.240  13.974
20660W        W92189  39.103  20.502   2.600
20661W        W92190   4.405  38.946  13.927
20662W        W92191  18.084   6.186   4.336
20663W        W92192  26.350   8.431   3.239
20664W        W92193   5.226  43.074  14.543
20665W        W92194  33.483  28.741  13.980
20666W        W92195  44.009  41.720  10.793
20667W        W92196  25.949  38.999   0.783
20668W        W92197  39.880  20.793   2.274
20669W        W92198  14.033  44.792  12.929
20670W        W92199  12.725  19.970  12.892
20671W        W92200  38.030  28.141  11.561
20672W        W92201  11.296  14.496  13.206
20673W        W92202  35.997   1.514  12.948
20674W        W92203   2.241  21.716   2.343
20675W        W92204  24.247   2.279  11.150
20676W        W92205   2.701  24.151   0.486
20677W        W92206  17.238  16.621  11.145
20678W        W92207  21.702  11.016  12.371
20679W        W92208  16.803  42.077  10.636
20680W        W92209   8.202  11.167   3.793
20681W        W92210  21.224  19.630   4.354
20682W        W92211  20.031   0.477  14.012
20683W        W92212  42.296  26.718   2.420
20684W        W92213  24.159   4.833  10.778
20685W        W92214  13.641  30.640  10.506
20686W        W92215  16.248  34.064   4.583
20687W        W92216  24.325   8.617   2.455
20688W        W92217  38.621   4.824   2.325
20689W        W92218  22.619  13.704   1.346
20690W        W92219  33.440  39.531   3.924
20691W        W92220  33.108  13.827   4.115
20692W        W92221  25.716  36.698  12.978
20693W        W92222  16.308  27.470  12.590
20694W        W92223  12.709  16.286   0.326
20695W        W92224  24.616  42.567  13.892
20696W        W92225  14.186  34.605   0.038
20697W        W92226  10.175  43.013   0.382
20698W        W92227  15.973  44.870   1.341
20699W        W92228  20.225  29.151   1.099
20700W        W92229   8.746  31.221   0.870
20701W        W92230  40.030  17.493  10.988
20702W        W92231  43.313   5.988   4.889
20703W        W92232  40.153   6.499  13.867
20704W        W92233   5.911  43.906  12.788
20705W        W92234  15.752  35.421  14.138
20706W        W92235  20.627  33.989   4.424
20707W        W92236  21.046  10.810  14.573
20708W        W92237  30.581  44.702   2.652
20709W        W92238  32.833  20.105  12.180
20710W        W92239  39.991  16.493  11.229
20711W        W92240   4.306  35.123  13.347
20712W        W92241  21.273  44.451   4.961
20713W        W92242  19.068   8.536  12.918
20714W        W92243   4.520  21.605   4.631
20715W        W92244  25.137  21.223  14.760
20716W        W92245  24.993  40.305  12.962
20717W        W92246  40.043   0.166  11.323
20718W        W92247   1.774   1.653  14.506
20719W        W92248  27.483  20.639  13.924
20720W        W92249  17.276  44.925  11.832
20721W        W92250  13.562  29.051   1.841
20722W        W92251  22.082  38.057   2.733
20723W        W92252  40.082  11.835   4.632
20724W        W92253  44.295  24.262  14.438
20725W        W92254  28.981  31.550   4.256
20726W        W92255  27.206  13.314   3.815
20727W        W92256  13.681  28.188   2.912
20728W        W92257  22.721  25.940   4.128
20729W        W92258  40.274  14.312   1.264
20730W        W92259  19.543  17.838  12.503
20731W        W92260  15.564  24.663   0.448
20732W        W92261   6.189  35.692  13.571
20733W        W92262  39.557  39.733  14.304
20734W        W92263  17.306  37.411  12.369
20735W        W92264   4.503  29.649  14.022
20736W        W92265  37.913  15.782   0.363
20737W        W92266  26.324   0.819   1.816
20738W        W92267  34.162  29.919   4.098
20739W        W92268  18.328  41.860   3.865
20740W        W92269   2.878   2.121  14.773
20741W        W92270  11.382  29.655  13.165
20742W        W92271   8.608   3.456  14.982
20743W        W92272  34.960  28.311   0.905
20744W        W92273  29.459  21.330   1.775
20745W        W92274  23.314  41.359  11.498
20746W        W92275  36.195  15.208   1.877
20747W        W92276  38.844  28.438  12.880
20748W        W92277  40.025   3.695  13.436
20749W        W92278  25.192  26.561   0.985
20750W        W92279  21.584  23.047  11.127
20751W        W92280  25.426  38.340   4.737
20752W        W92281  29.851   2.180  13.894
20753W        W92282  44.319  14.035  14.087
20754W        W92283  34.932  44.892   3.428
20755W        W92284  40.685  39.356  12.829
20756W        W92285   1.463  15.680  12.859
20757W        W92286  44.602  24.689  14.254
20758W        W92287   5.199  23.325  14.429
20759W        W92288  19.170  12.729  11.262
20760W        W92289   3.924  21.619   0.678
20761W        W92290  19.010   7.782   1.264
20762W        W92291  39.612  41.463   2.245
20763W        W92292   6.631   3.514   4.127
20764W        W92293  17.691  11.709   1.472
20765W        W92294  41.742  31.143   1.420
20766W        W92295   2.485  40.883   0.943
20767W        W92296  41.839  30.577   0.205
20768W        W92297   8.392  16.658  13.439
20769W        W92298  40.824  38.490  13.487
20770W        W92299  28.667  12.053  13.074
20771W        W92300  42.217  42.464  14.798
20772W        W92301  39.352  37.988   2.788
20773W        W92302   2.631  15.433  14.003
20774W        W92303   8.778   4.798   4.590
20775W        W92304  19.086   2.341  13.048
20776W        W92305  28.816   3.165   4.075
20777W        W92306  30.659  17.075   3.212
20778W        W92307  19.184  44.428  11.191
20779W        W92308   6.387  32.583  12.980
20780W        W92309  10.423  25.005   0.748
20781W        W92310  26.735  39.076   2.234
20782W        W92311  10.269   7.697  11.436
20783W        W92312   2.245   8.394   4.955
20784W        W92313  42.111   1.440  10.244
20785W        W92314  38.223  32.897   1.263
20786W        W92315  22.909  13.845   0.828
20787W        W92316  17.688  24.668  13.534
20788W        W92317  20.675  18.305   2.675
20789W        W92318   8.050  35.347   0.717
20790W        W92319  30.217  21.242   2.791
20791W        W92320   2.907  32.507   4.737
20792W        W92321  34.184  24.522   0.790
20793W        W92322  18.433   9.635  11.444
20794W        W92323  19.413  37.549   5.027
20795W        W92324   4.788  18.272  11.562
20796W        W92325  13.267  38.775  10.180
20797W        W92326   1.808  25.443   0.429
20798W        W92327  12.302  35.910  14.364
20799W        W92328   1.156  44.968  13.612
20800W        W92329   3.052  20.538   1.481
20801W        W92330   1.711  42.699   2.253
20802W        W92331   9.207  13.632  10.623
20803W        W92332  19.719  30.459   1.014
20804W        W92333  42.921  44.718   2.831
20805W        W92334   6.072   7.851  10.756
20806W        W92335  25.172   4.990   2.565
20807W        W92336   7.463  41.752  14.009
20808W        W92337   9.813   2.334   0.338
20809W        W92338  17.891   4.397   1.429
20810W        W92339   5.248  30.567  12.594
20811W        W92340  40.226  32.949  10.993
20812W        W92341  39.860  22.031   4.427
20813W        W92342  36.371  17.461  14.377
20814W        W92343   8.229  20.253  12.431
20815W        W92344  21.974  14.742   0.866
20816W        W92345  13.202  21.863  10.422
20817W        W92346  11.807  24.297   1.772
20818W        W92347  30.051  31.061  14.875
20819W        W92348  11.449  39.966   2.279
20820W        W92349  21.488  22.383  10.193
20821W        W92350   1.157   2.472  12.988
20822W        W92351  34.865  17.860   0.893
20823W        W92352  15.342  38.873  10.496
20824W        W92353   1.273  19.094  14.974
20825W        W92354  15.684   4.294  12.951
20826W        W92355   3.406   3.606  13.584
20827W        W92356   5.063  24.578  13.187
20828W        W92357  15.694  43.307   1.437
20829W        W92358  23.101  40.548   3.225
20830W        W92359  31.177   4.911   2.151
20831W        W92360  44.332  40.534   1.802
20832W        W92361  34.500  40.505   4.299
20833W        W92362  14.094  32.137   1.808
20834W        W92363  36.798  44.753   4.604
20835W        W92364  10.160  23.035   1.190
20836W        W92365  19.324  26.979  11.440
20837W        W92366  38.340  35.433  11.919
20838W        W92367  12.316   1.475   2.841
20839W        W92368  17.739  11.631   4.079
20840W        W92369  15.849  44.316   2.786
20841W        W92370  13.192  39.632  14.394
20842W        W92371  26.922  25.191  12.717
20843W        W92372   4.837  28.536   3.423
20844W        W92373  20.964  19.544  12.923
20845W        W92374   4.148  17.339   4.254
20846W        W92375  15.459  32.633   4.157
20847W        W92376  30.016   6.397  14.385
20848W        W92377  13.947  40.103   5.162
20849W        W92378  35.651   8.727  14.359
20850W        W92379  34.471  12.366  11.132
20851W        W92380  30.170  44.978   1.304
20852W        W92381  20.268  19.928   3.866
20853W        W92382  32.450   1.329   0.812
20854W        W92383  12.662  12.820   4.856
20855W        W92384  14.661  40.988   2.779
20856W        W92385  40.553  30.746   4.134
20857W        W92386  31.472  31.974  14.410
20858W        W92387  15.847   9.865  10.877
20859W        W92388  30.949  22.776   3.307
20860W        W92389  16.499  31.492  14.743
20861W        W92390  36.824   4.961  13.409
20862W        W92391  40.379  15.296   0.724
20863W        W92392  26.566  39.491  10.958
20864W        W92393  40.802  14.549  12.192
20865W        W92394  26.016  12.763   0.807
20866W        W92395  16.303   9.561  11.645
20867W        W92396  15.003  33.016  12.371
20868W        W92397  19.567  23.441   3.677
20869W        W92398  28.925  16.361  11.467
20870W        W92399  25.003   5.776   4.331
20871W        W92400  23.964  15.609   1.658
20872W        W92401  25.148   1.485   3.014
20873W        W92402  41.430  25.919   3.065
20874W        W92403   9.208  34.235   2.782
20875W        W92404  44.010  31.418  12.959
20876W        W92405   9.191  15.383   3.726
20877W        W92406  24.608   2.176   2.798
20878W        W92407   3.397   0.793   5.151
20879W        W92408  21.265   5.405   2.684
20880W        W92409  10.979  32.272   2.346
20881W        W92410  16.182  35.704  12.005
20882W        W92411  26.520  19.659   0.976
20883W        W92412   0.986  11.288   4.825
20884W        W92413  31.070  23.360  13.497
20885W        W92414  34.480  37.308   1.796
20886W        W92415  25.225  34.993   4.539
20887W        W92416  11.226  12.902  11.049
20888W        W92417  40.600   1.733  10.336
20889W        W92418  29.118  13.942  12.980
20890W        W92419  22.187  15.247  10.976
20891W        W92420  41.478  16.598  13.602
20892W        W92421  39.858  41.641   3.287
20893W        W92422   8.335   3.811  12.418
20894W        W92423  38.864  35.626   4.133
20895W        W92424  24.954  25.914   0.300
20896W        W92425  38.441  35.504   2.272
20897W        W92426  23.189  15.339   2.815
20898W        W92427   4.211  11.084   2.839
20899W        W92428  31.336  35.175   0.264
20900W        W92429   5.221  43.362   0.515
20901W        W92430  22.550  22.494   0.280
20902W        W92431   9.329  36.801   1.879
20903W        W92432  27.145  14.859  14.532
20904W        W92433  27.586   0.281  12.475
20905W        W92434  17.530  34.536   3.896
20906W        W92435  36.804  13.744  11.165
20907W        W92436  15.512   0.472  14.446
20908W        W92437  10.354   1.878  13.768
20909W        W92438  19.603  42.598   1.946
20910W        W92439   5.420  16.643   2.704
20911W        W92440  32.938  38.789   1.798
20912W        W92441  42.708  31.167  14.376
20913W        W92442   9.333  28.610   3.135
20914W        W92443  13.804  22.089   3.115
20915W        W92444  15.507  23.788   0.076
20916W        W92445  26.897  28.483  13.432
20917W        W92446   3.080  14.579  14.248
20918W        W92447  29.110  17.190   4.040
20919W        W92448   0.939   4.783   4.202
20920W        W92449  28.047  20.075   1.212
20921W        W92450  41.010  23.456   2.235
20922W        W92451  40.477  13.147   1.442
20923W        W92452  14.873  28.588  13.763
20924W        W92453  13.067  25.675   1.771
20925W        W92454  35.041  31.899  13.070
20926W        W92455  39.504   8.542   4.553
20927W        W92456  22.465  41.513  12.047
20928W        W92457  14.048  30.469  10.817
20929W        W92458   8.334  27.070   2.476
20930W        W92459   0.194   3.123  12.403
20931W        W92460  24.937   1.346   0.502
20932W        W92461  24.224  44.522  12.463
20933W        W92462  14.042  13.681   3.195
20934W        W92463  17.028   4.770  10.744
20935W        W92464  35.812  37.825   0.029
20936W        W92465   7.858   1.393  10.899
20937W        W92466  37.493  20.118  13.925
20938W        W92467  19.643   3.191   2.086
20939W        W92468  15.178  28.913  12.054
20940W        W92469  43.868  32.600  10.598
20941W        W92470  13.111  43.468  12.048
20942W        W92471   1.977  31.190  12.980
20943W        W92472   3.397   3.237   3.785
20944W        W92473   3.926  43.428  13.822
20945W        W92474   8.285  32.958  14.291
20946W        W92475   1.732  19.066  13.994
20947W        W92476  19.582  10.894  11.672
20948W        W92477  40.696   4.439  13.601
20949W        W92478  40.125  16.600  14.778
20950W        W92479  38.964  29.828   0.529
20951W        W92480   7.120  35.973   3.680
20952W        W92481  32.242   0.790  13.248
20953W        W92482  43.306  22.070   2.715
20954W        W92483  27.971  20.312   3.189
20955W        W92484  18.545  21.409   1.816
20956W        W92485  22.071  18.360   2.754
20957W        W92486   4.726  36.979   4.806
20958W        W92487  13.612  20.234  12.113
20959W        W92488   1.776  23.096  11.540
20960W        W92489  39.550  10.687   2.368
20961W        W92490   1.771  14.200  11.972
20962W        W92491  15.581  15.159   3.092
20963W        W92492  10.461  37.861   2.823
20964W        W92493   5.456  14.390  13.479
20965W        W92494  22.595   5.027   0.755
20966W        W92495   5.874  29.680  11.963
20967W        W92496  23.782  35.630   4.885
20968W        W92497  34.051   6.970   2.742
20969W        W92498  20.191  20.801  11.046
20970W        W92499  13.222   7.529  10.255
20971W        W92500  12.495  42.675   1.274
20972W        W92501   9.755  37.240   3.508
20973W        W92502  42.330  22.584   1.333
20974W        W92503  43.857  24.548  13.486
20975W        W92504  20.041  19.228   0.835
20976W        W92505  41.667  16.953  11.069
20977W        W92506  35.630  42.127   3.200
20978W        W92507  30.456   7.790  14.306
20979W        W92508  18.934  40.533   4.196
20980W        W92509   6.119   9.113   1.853
20981W        W92510  29.899  29.322  13.298
20982W        W92511   1.228   8.312   3.662
20983W        W92512  22.412  21.388  12.501
20984W        W92513  12.732  27.142   2.650
20985W        W92514  10.787   5.276   2.488
20986W        W92515  19.143  20.255   0.964
20987W        W92516   6.593   0.894  14.481
20988W        W92517   5.111   5.213  10.856
20989W        W92518  28.716  20.930   4.465
20990W        W92519  35.630  35.406  12.971
20991W        W92520   6.649  16.306   4.582
20992W        W92521  22.069  15.690  10.397
20993W        W92522  30.966  28.455  13.545
20994W        W92523  26.487   6.566   4.135
20995W        W92524  40.792  26.079  13.925
20996W        W92525   8.104  34.630   3.716
20997W        W92526   0.925  14.585  11.166
20998W        W92527   2.645  30.852   2.827
20999W        W92528  16.224   5.939  14.063
21000W        W92529   8.071  19.763  12.372
21001W        W92530  40.303  16.725  13.019
21002W        W92531   6.300  43.520  10.854
21003W        W92532  38.816  42.052   3.765
21004W        W92533  43.250  15.660   0.766
21005W        W92534  28.702  35.240   0.869
21006W        W92535  21.068   9.201  14.074
21007W        W92536   2.472  31.229   0.387
21008W        W92537  34.755  38.795  13.509
21009W        W92538  21.702   2.237   4.691
21010W        W92539  41.531  15.628   4.590
21011W        W92540  28.459  27.621   4.252
21012W        W92541  41.823  38.649  12.605
21013W        W92542  44.799  38.702   5.067
21014W        W92543   3.898  16.603   2.361
21015W        W92544   5.318  29.820   3.808
21016W        W92545  18.037  37.829  11.628
21017W        W92546  21.034  44.248  11.018
21018W        W92547   3.562  23.617   1.671
21019W        W92548  15.652  33.705   1.242
21020W        W92549  33.440  35.969   3.692
21021W        W92550  22.733   1.341   3.886
21022W        W92551   4.677   0.740  14.371
21023W        W92552  42.171  16.149   0.093
21024W        W92553  13.225  27.840  10.272
21025W        W92554  38.456  42.442   2.440
21026W        W92555  12.135  33.936   0.151
21027W        W92556   0.443  32.406   1.705
21028W        W92557  23.233   5.324  14.513
21029W        W92558  10.560  29.524   1.919
21030W        W92559   5.567  21.504  14.990
21031W        W92560  42.734  22.469  11.544
21032W        W92561   8.268   1.234   0.309
21033W        W92562  27.967  23.066  14.202
21034W        W92563  42.347  38.795  12.501
21035W        W92564  43.985  24.464   0.715
21036W        W92565   5.421  40.380   4.812
21037W        W92566   1.572   1.002  13.086
21038W        W92567  31.226  39.758  10.713
21039W        W92568  31.914  12.149  12.369
21040W        W92569   6.273  30.485   2.411
21041W        W92570  28.112  30.112   1.407
21042W        W92571  17.711   3.885   4.507
21043W        W92572  44.685  20.636  14.295
21044W        W92573  31.250  42.235   1.740
21045W        W92574  23.688   4.643  10.803
21046W        W92575  19.875  30.370  13.348
21047W        W92576  12.219  37.338   1.736
21048W        W92577  13.557   0.463   5.486
21049W        W92578  12.071  40.065   3.356
21050W        W92579  18.819  27.722  13.376
21051W        W92580  33.222  22.249   3.705
21052W        W92581  39.276   0.568   2.755
21053W        W92582  36.380  25.463  12.692
21054W        W92583  44.092   0.728   4.112
21055W        W92584  34.082  44.351  14.905
21056W        W92585  26.443  13.994   4.559
21057W        W92586   1.050   7.106   1.853
21058W        W92587  32.008  12.870  12.969
21059W        W92588  41.700  13.715  11.638
21060W        W92589   0.792   5.742  13.879
21061W        W92590   5.545  41.331  14.166
21062W        W92591  28.485  13.380  11.506
21063W        W92592  15.039  11.306   1.621
21064W        W92593  41.301  26.377   4.210
21065W        W92594  11.834  38.580   3.623
21066W        W92595   9.817  43.053   2.993
21067W        W92596  16.113  14.796   2.554
21068W        W92597  18.495  11.685   4.818
21069W        W92598  38.850   0.326  13.422
21070W        W92599   6.771  27.799   0.116
21071W        W92600  30.285  37.131  13.427
21072W        W92601  22.184  25.407   1.204
21073W        W92602  36.547  14.801   4.610
21074W        W92603  21.731  28.654   4.655
21075W        W92604   4.049  22.446   4.572
21076W        W92605  10.612  17.088   1.236
21077W        W92606  44.429  27.537   0.250
21078W        W92607  10.833  27.005   2.205
21079W        W92608   8.753  37.059  11.908
21080W        W92609  28.675  12.409  11.635
21081W        W92610  39.532   6.381   3.474
21082W        W92611   6.130  29.146   2.283
21083W        W92612  11.025  21.055   4.714
21084W        W92613  38.275   5.920   0.343
21085W        W92614  42.716  30.461  10.339
21086W        W92615  19.247   8.111  13.100
21087W        W92616  41.233   6.376  10.924
21088W        W92617  28.640  32.359   5.436
21089W        W92618  17.238   4.821   0.772
21090W        W92619  21.703   3.827   4.425
21091W        W92620  41.327  33.760   3.307
21092W        W92621  27.579  44.229   4.485
21093W        W92622  21.467  38.183  10.745
21094W        W92623  11.211   1.815   1.266
21095W        W92624  39.456  44.287  12.094
21096W        W92625  24.052  42.953  11.243
21097W        W92626  28.755  18.848  11.585
21098W        W92627  43.762  23.509  12.490
21099W        W92628  11.405  13.247  10.682
21100W        W92629  31.123   2.723   3.721
21101W        W92630   4.474  26.492   1.247
21102W        W92631  29.100  12.575  10.484
21103W        W92632  29.143  41.413  14.436
21104W        W92633  39.010   4.607   4.931
21105W        W92634   4.547  14.425  13.022
21106W        W92635  20.186  37.377   3.063
21107W        W92636  13.229  25.087   0.976
21108W        W92637  27.949  35.618   3.298
21109W        W92638  12.231  19.698   0.782
21110W        W92639  13.613  10.947   1.533
21111W        W92640   0.041   5.473   2.972
21112W        W92641  24.996   3.197  11.082
21113W        W92642  31.609  39.468  11.618
21114W        W92643  34.964   6.692  10.780
21115W        W92644  16.539   2.751  11.961
21116W        W92645  35.686  17.990   2.717
21117W        W92646  15.646  23.764   2.555
21118W        W92647  26.715  40.910  12.858
21119W        W92648  12.822   0.254  13.419
21120W        W92649  39.891  27.457  13.496
21121W        W92650  18.990  20.546   1.923
21122W        W92651   6.695   4.800  10.674
21123W        W92652   2.251  33.896  14.021
21124W        W92653  29.470  44.234  12.137
21125W        W92654  14.810  15.784   3.762
21126W        W92655  23.680  21.573  12.969
21127W        W92656  22.739  40.406  13.594
21128W        W92657  34.390   7.315  10.792
21129W        W92658  11.722  10.148   4.234
21130W        W92659  43.314  44.454   4.088
21131W        W92660   4.065  35.381   1.474
21132W        W92661   0.205   5.901   1.806
21133W        W92662  33.431  42.546   4.540
21134W        W92663  36.929  18.156   0.237
21135W        W92664  35.260  26.888  12.602
21136W        W92665  28.086  37.257  14.048
21137W        W92666  22.489  15.576   1.703
21138W        W92667  14.902   4.958  12.823
21139W        W92668  24.204  14.164  13.962
21140W        W92669  19.035  29.040   0.411
21141W        W92670  28.726  12.564   3.972
21142W        W92671   7.935  11.974  12.099
21143W        W92672  33.670  11.308  12.956
21144W        W92673  33.028  41.251   4.165
21145W        W92674  14.896  24.071  13.977
21146W        W92675   3.915   5.801   2.533
21147W        W92676  19.318  13.693  13.422
21148W        W92677  33.502  21.614  13.362
21149W        W92678  10.591  18.369   4.530
21150W        W92679  11.222   2.324   3.839
21151W        W92680  15.861   7.577  11.176
21152W        W92681  10.701  10.842   0.798
21153W        W92682  14.193  35.210  11.585
21154W        W92683  26.144  37.569   0.387
21155W        W92684  33.067  19.036   3.745
21156W        W92685  17.255  12.211  13.353
21157W        W92686  19.478  44.953  11.901
21158W        W92687  36.495  16.713  11.640
21159W        W92688   4.579  23.030   0.380
21160W        W92689  21.780  12.875   0.256
21161W        W92690  29.407  43.746   0.371
21162W        W92691   9.655   1.903  10.474
21163W        W92692  36.050  20.521   0.040
21164W        W92693  13.174   5.768   1.885
21165W        W92694   6.128   1.954   0.886
21166W        W92695  29.613   3.397  14.902
21167W        W92696  28.019  20.085  10.718
21168W        W92697  41.411   9.734  13.539
21169W        W92698   5.496   1.083   4.127
21170W        W92699  16.039   6.531   1.291
21171W        W92700  35.730  19.017   4.202
21172W        W92701  41.661  20.258   3.049
21173W        W92702  19.009  22.192   1.915
21174W        W92703  27.875   3.710   4.005
21175W        W92704  27.253  16.220  12.609
21176W        W92705  36.953  39.603  13.109
21177W        W92706   6.797  26.026   4.177
21178W        W92707  30.539  41.022  12.969
21179W        W92708  10.609  37.323  13.779
21180W        W92709   2.532  36.294   3.336
21181W        W92710  37.744   9.631  12.548
21182W        W92711  35.366   1.930   1.362
21183W        W92712   2.794  15.316   2.732
21184W        W92713  16.347  13.190   1.364
21185W        W92714  26.439  34.041  14.516
21186W        W92715   6.712  43.979  13.773
21187W        W92716  32.953   9.246  14.136
21188W        W92717  10.139  43.864  11.942
21189W        W92718  26.459  17.489  13.115
21190W        W92719   3.004  16.177   4.526
21191W        W92720  32.611   5.727   1.883
21192W        W92721  40.759  24.120   1.833
21193W        W92722  21.673   6.713  13.008
21194W        W92723   6.901  29.728   0.867
21195W        W92724  33.407  10.601  13.448
21196W        W92725  35.998  34.152  12.377
21197W        W92726  14.607  28.750   2.870
21198W        W92727  32.967  11.345   3.300
21199W        W92728   8.203  15.590  12.547
21200W        W92729  27.987  24.227   3.046
21201W        W92730  29.808  39.755   0.959
21202W        W92731  33.130   7.238   2.149
21203W        W92732  31.938  28.891  11.164
21204W        W92733  25.701  24.929  12.282
21205W        W92734  23.662   6.423   1.310
21206W        W92735   5.169  31.000   0.969
21207W        W92736  37.641  10.199   4.102
21208W        W92737  31.723   8.711  11.488
21209W        W92738   6.987   4.516  13.303
21210W        W92739   0.887  10.202  13.089
21211W        W92740  41.135   2.478   2.786
21212W        W92741  14.793  34.862   0.285
21213W        W92742  27.999  26.001  10.891
21214W        W92743   3.458  24.401   0.455
21215W        W92744   9.799  18.503  11.926
21216W        W92745   6.799  25.656   3.140
21217W        W92746  20.417  13.594   2.113
21218W        W92747  44.344  41.761  12.076
21219W        W92748  10.910  25.227  11.164
21220W        W92749  24.090   1.534   1.279
21221W        W92750   6.758  17.786   3.826
21222W        W92751   2.044   4.166  12.607
21223W        W92752   9.694   7.405  13.051
21224W        W92753   7.749   0.752  12.300
21225W        W92754   8.716  27.012   2.844
21226W        W92755  35.055  17.644  13.052
21227W        W92756  35.080   9.856  13.832
21228W        W92757  17.303  42.406   0.941
21229W        W92758  25.617  36.010   2.317
21230W        W92759  20.673  17.045  12.033
21231W        W92760  36.182   4.987   2.693
21232W        W92761   3.815  19.334   0.356
21233W        W92762   6.546  15.961  13.518
21234W        W92763   7.877  33.686  12.509
21235W        W92764  14.916  16.291  14.420
21236W        W92765  43.804  11.358   0.335
21237W        W92766  39.034  19.480   2.633
21238W        W92767  43.434   8.447  13.020
21239W        W92768   9.878  11.308  14.841
21240W        W92769  34.329   5.076  13.545
21241W        W92770  36.067  31.874  12.876
21242W        W92771  25.618  16.180   2.141
21243W        W92772   2.035  35.016   2.775
21244W        W92773  34.029  39.874  12.413
21245W        W92774  20.999  14.633   3.651
21246W        W92775  10.386  43.230   3.782
21247W        W92776   6.370   4.507  11.258
21248W        W92777   0.241  14.402  12.054
21249W        W92778   7.873   0.957  10.175
21250W        W92779   8.230  25.698   3.732
21251W        W92780  24.666  42.987   0.116
21252W        W92781  25.191  14.086   1.928
21253W        W92782   9.161  13.870  11.106
21254W        W92783  41.851  34.318   3.447
21255W        W92784   6.357  39.131   4.564
21256W        W92785  24.636  34.065  10.397
21257W        W92786   8.987  31.534  12.807
21258W        W92787  15.570  10.212  11.147
21259W        W92788  26.577   9.289  11.541
21260W        W92789  40.769  33.898  11.568
21261W        W92790   1.977  10.291  13.914
21262W        W92791  36.078  29.518  13.234
21263W        W92792  41.810  44.254  11.987
21264W        W92793  37.826  27.748  14.975
21265W        W92794   9.814  42.447  14.246
21266W        W92795  40.248   1.709  11.163
21267W        W92796  19.674  29.486  14.938
21268W        W92797  36.146  23.767   1.814
21269W        W92798   0.387  11.660   0.312
21270W        W92799   5.687  19.486  14.029
21271W        W92800  39.607  29.036  10.544
21272W        W92801  29.162  31.504   3.495
21273W        W92802  28.547  20.536  13.109
21274W        W92803  38.598  24.279  12.382
21275W        W92804  21.523  20.493  14.082
21276W        W92805  28.509  24.522  11.356
21277W        W92806  14.208  28.767   1.272
21278W        W92807   6.975  10.454   1.334
21279W        W92808  37.318  23.573   0.971
21280W        W92809  21.653  31.900   0.707
21281W        W92810  19.426  26.080  10.474
21282W        W92811  36.924   8.994   2.898
21283W        W92812   4.937   0.998  12.504
21284W        W92813  20.760  16.597  11.152
21285W        W92814  42.157  19.677   2.797
21286W        W92815  28.049   6.315  13.176
21287W        W92816  39.506  26.245  14.372
21288W        W92817  32.527  41.432   4.222
21289W        W92818  22.687   9.281  10.705
21290W        W92819  11.728  17.185   0.450
21291W        W92820  10.445  20.985  14.911
21292W        W92821   4.718  16.759   3.448
21293W        W92822  41.070   2.760   4.771
21294W        W92823  22.495  39.860   2.328
21295W        W92824  16.110  11.970  14.530
21296W        W92825   9.241  39.080   1.021
21297W        W92826  33.799  43.815   0.023
21298W        W92827  12.814  18.455   3.126
21299W        W92828  36.066  18.725  12.312
21300W        W92829   9.385  28.154   0.912
21301W        W92830   1.276  35.996  11.064
21302W        W92831  41.873  35.349  13.807
21303W        W92832   7.634  33.698  13.290
21304W        W92833  29.678  17.213  13.000
21305W        W92834  21.842  42.195   4.967
21306W        W92835  16.600  20.256   0.435
21307W        W92836  29.010   7.686   1.911
21308W        W92837   6.270  28.014   4.103
21309W        W92838  19.694  30.831  14.754
21310W        W92839  11.812  13.126  13.954
21311W        W92840   0.554  16.429  11.133
21312W        W92841   5.735  43.370   2.879
21313W        W92842  15.903  27.595  12.921
21314W        W92843  39.672  29.211  13.554
21315W        W92844  37.579  36.552  14.649
21316W        W92845  28.369   4.950   1.306
21317W        W92846  19.765  36.551  12.014
21318W        W92847  42.848  44.056   0.910
21319W        W92848  19.153  27.385  14.391
21320W        W92849  43.746  36.813  11.953
21321W        W92850  40.090   1.330  14.765
21322W        W92851  42.039   4.634  11.308
21323W        W92852  29.502  43.041  14.850
21324W        W92853  28.940  43.713   4.691
21325W        W92854  42.702  29.956  11.525
21326W        W92855  15.010  18.724   4.365
21327W        W92856  34.312  42.989   2.711
21328W        W92857  27.095  26.438  11.236
21329W        W92858  16.732  21.473  11.454
21330W        W92859   9.032  15.646  12.907
21331W        W92860   8.794   5.756   3.754
21332W        W92861  20.467  20.562   0.773
21333W        W92862   6.932  14.557  11.637
21334W        W92863  25.560  32.385   0.395
21335W        W92864  44.867   9.445   3.669
21336W        W92865  32.115  26.396   2.724
21337W        W92866  31.477  24.529  14.365
21338W        W92867  16.756  42.510   3.178
21339W        W92868  17.538  38.814   3.291
21340W        W92869  40.456   6.352  13.356
21341W        W92870  10.794  29.562   4.769
21342W        W92871  24.085  10.322   4.446
21343W        W92872   5.395  41.043   1.827
21344W        W92873  15.150  31.315  13.430
21345W        W92874  21.641  13.888  10.239
21346W        W92875  30.187  23.841   4.566
21347W        W92876  33.007  22.473  10.575
21348W        W92877  39.604  29.112   3.674
21349W        W92878  11.802  13.297   1.933
21350W        W92879  20.032  33.652   1.480
21351W        W92880   2.996  22.191  11.889
21352W        W92881  34.505  11.078  13.178
21353W        W92882  42.911  22.089  13.454
21354W        W92883  27.365  30.350   1.840
21355W        W92884  39.481  24.630   0.512
21356W        W92885  34.758  33.320   5.073
21357W        W92886  33.516  24.179  13.459
21358W        W92887  15.943  37.855  12.592
21359W        W92888  22.728   9.686  14.367
21360W        W92889  26.944  43.724  11.513
21361W        W92890  42.973  13.133  14.770
21362W        W92891  14.880   2.712   4.001
21363W        W92892   1.468  40.311  10.880
21364W        W92893  28.485   1.746   1.656
21365W        W92894  24.544  17.573  11.182
21366W        W92895  22.311  31.622  12.145
21367W        W92896  41.766  28.044  14.809
21368W        W92897   5.338  39.461  13.335
21369W        W92898  10.364  14.815   4.370
21370W        W92899   3.181  12.808   3.162
21371W        W92900  14.177  43.870   0.293
21372W        W92901   1.323  33.919  14.872
21373W        W92902  41.815  20.659  11.469
21374W        W92903  15.593  24.070  11.741
21375W        W92904  33.751  42.909  12.507
21376W        W92905  43.011  13.189   1.950
21377W        W92906  28.076  34.700   3.231
21378W        W92907   6.998  26.687  11.470
21379W        W92908  16.501   4.276  14.713
21380W        W92909  41.347  18.231  14.929
21381W        W92910  11.221  25.944  11.604
21382W        W92911  13.093  38.592   0.290
21383W        W92912   6.122  36.890  13.739
21384W        W92913  18.288  18.680   2.695
21385W        W92914  44.452  44.061  10.247
21386W        W92915  19.605   3.130  11.559
21387W        W92916  27.809  13.170  13.023
21388W        W92917  34.105  22.491  14.310
21389W        W92918  21.704  27.952   4.070
21390W        W92919  27.723  22.728  12.556
21391W        W92920  37.108  32.152   2.709
21392W        W92921   7.843  14.326  13.366
21393W        W92922  29.717  38.512   0.220
21394W        W92923  39.310  37.919   0.827
21395W        W92924  36.606  25.029  12.405
21396W        W92925   5.982  20.097  11.966
21397W        W92926  26.040  42.023   1.451
21398W        W92927   8.196  44.490   0.791
21399W        W92928  39.019  38.479  13.024
21400W        W92929  17.808  27.954  11.651
21401W        W92930  30.240  29.562  14.285
21402W        W92931  27.076   0.909  13.190
21403W        W92932  27.861  30.695  14.464
21404W        W92933   1.644   1.303  13.527
21405W        W92934  25.448   7.397   4.144
21406W        W92935  14.225  12.095  12.056
21407W        W92936  35.588  31.345   0.711
21408W        W92937  19.812  40.671   9.871
21409W        W92938  33.916  14.634  14.792
21410W        W92939  22.489  30.401   0.369
21411W        W92940  15.205   2.855  10.739
21412W        W92941  24.653   6.352   1.462
21413W        W92942  42.233  14.098   2.830
21414W        W92943  39.109  24.682   1.455
21415W        W92944  41.069  21.444   0.875
21416W        W92945   1.913  40.303  14.378
21417W        W92946  34.506  40.070  12.471
21418W        W92947  18.896  21.346   4.919
21419W        W92948  24.326  19.718  10.165
21420W        W92949  13.668   1.899   4.641
21421W        W92950  42.255  42.419  11.626
21422W        W92951  33.837  31.112   3.794
21423W        W92952  27.985  40.641   4.018
21424W        W92953  37.435   1.981  11.510
21425W        W92954   5.319   9.868  14.474
21426W        W92955  12.349  23.678   3.394
21427W        W92956  18.937   3.213   0.776
21428W        W92957  10.074  11.793   2.276
21429W        W92958   3.649  38.584   3.754
21430W        W92959  39.805  19.813  11.688
21431W        W92960   4.901   4.835  11.145
21432W        W92961  40.403  26.963   4.341
21433W        W92962  43.373  13.096  13.877
21434W        W92963  25.665  18.046  12.632
21435W        W92964  42.343  23.432   2.265
21436W        W92965  16.526  13.401   1.848
21437W        W92966   4.869   0.472  13.968
21438W        W92967  12.731   0.319  11.480
21439W        W92968  42.929  10.036   1.411
21440W        W92969  37.312   1.608  13.516
21441W        W92970  27.252  41.816   1.696
21442W        W92971   2.154   8.800  14.010
21443W        W92972  26.560  23.664   0.476
21444W        W92973  14.931  41.673  14.767
21445W        W92974  13.321  22.887  14.438
21446W        W92975  44.820   3.660   0.754
21447W        W92976  44.054  33.940  14.764
21448W        W92977  12.400  24.158   2.382
21449W        W92978   7.768  31.011   1.006
21450W        W92979   0.211  29.002  11.915
21451W        W92980  38.415  37.830  11.568
21452W        W92981  19.451   1.938  14.955
21453W        W92982  42.325  26.091  11.689
21454W        W92983   6.804  40.356  12.893
21455W        W92984   5.318  28.561   2.185
21456W        W92985  31.250  17.118  11.981
21457W        W92986   8.778  15.746   1.352
21458W        W92987  15.042  15.674   4.238
21459W        W92988   2.783   9.731  10.706
21460W        W92989  21.235  32.257  10.250
21461W        W92990   7.285  29.359  14.612
21462W        W92991  22.040  31.576   2.164
21463W        W92992  44.024   6.977   3.294
21464W        W92993  28.227  40.865  10.717
21465W        W92994  13.634  40.863   1.183
21466W        W92995  32.681  15.719  11.233
21467W        W92996  34.092  30.018   0.297
21468W        W92997  35.093  24.513  14.883
21469W        W92998   3.626  20.118  10.768
21470W        W92999  20.480  20.473  13.914
21471W        W93000  26.999  17.244  12.431
21472W        W93001  20.031   1.827  13.480
21473W        W93002  41.711  13.403   2.336
21474W        W93003  26.089  41.492  14.628
21475W        W93004  39.154   7.845  14.793
21476W        W93005  44.396  18.294   4.832
21477W        W93006  33.442  38.644  13.923
21478W        W93007   8.671  38.593  12.875
21479W        W93008  30.630  18.292   0.246
21480W        W93009   4.415  33.562  11.005
21481W        W93010  36.649  28.443  12.527
21482W        W93011  20.628  37.634   1.894
21483W        W93012  41.945  14.777  13.171
21484W        W93013  38.248   3.975   1.850
21485W        W93014   9.626  28.194   4.736
21486W        W93015  17.779   1.493  13.967
21487W        W93016  32.825  25.888   2.610
21488W        W93017  24.002  15.679  11.213
21489W        W93018   7.265   9.324  12.597
21490W        W93019  11.339  14.863   3.255
21491W        W93020   2.762   8.404   4.841
21492W        W93021  22.966   5.237  12.186
21493W        W93022  12.818  28.130   1.236
21494W        W93023  35.614   0.349  12.963
21495W        W93024   8.236  21.085  10.887
21496W        W93025  27.222  41.488   3.227
21497W        W93026  12.398  28.152  12.414
21498W        W93027  39.363  20.606  14.327
21499W        W93028   6.403  22.753   2.350
21500W        W93029  23.806   3.900  13.293
21501W        W93030  40.966  39.313   0.908
21502W        W93031   5.325  35.842   0.587
21503W        W93032   3.942  27.485  14.031
21504W        W93033  20.324  42.376   0.800
21505W        W93034  33.883  16.786   4.448
21506W        W93035   3.963   3.856  11.639
21507W        W93036  20.707  11.377   1.802
21508W        W93037  42.492  44.800   3.756
21509W        W93038   1.520   8.659  13.419
21510W        W93039  10.787  40.270  10.721
21511W        W93040  14.973  33.963   4.017
21512W        W93041  38.385  18.045  14.343
21513W        W93042   3.350  12.646  10.983
21514W        W93043  43.886  27.107  13.472
21515W        W93044   3.934  26.181  12.418
21516W        W93045   4.990  32.469  14.486
21517W        W93046  40.054   5.882   4.173
21518W        W93047  18.638  21.158   2.719
21519W        W93048  26.994   0.129  14.569
21520W        W93049  40.773  40.226   4.187
21521W        W93050  23.465  42.484   1.376
21522W        W93051  10.496  40.522  11.932
21523W        W93052  44.751  19.529  12.188
21524W        W93053  12.415  42.737   5.065
21525W        W93054  40.012   5.123  12.067
21526W        W93055   2.491  31.935  11.587
21527W        W93056  29.849   1.317   4.131
21528W        W93057  19.094  36.457  13.121
21529W        W93058  34.701  43.885   1.040
21530W        W93059  28.234  12.580  13.610
21531W        W93060  38.001  43.295  10.657
21532W        W93061  39.346   7.165   2.295
21533W        W93062  10.411  17.826   1.742
21534W        W93063  22.986  17.740  11.056
21535W        W93064  37.583  35.613  10.720
21536W        W93065  10.166  24.689  13.511
21537W        W93066  33.443  24.045   3.277
21538W        W93067  42.412  27.145  12.339
21539W        W93068  39.801  10.934   0.249
21540W        W93069  20.680  24.770   4.035
21541W        W93070  31.422   6.921   3.704
21542W        W93071   1.456   8.718  11.005
21543W        W93072  21.105  33.368   0.429
21544W        W93073  19.057  12.938  12.105
21545W        W93074  14.372  29.584   0.770
21546W        W93075  23.244  40.910   1.055
21547W        W93076  30.329   0.488   4.539
21548W        W93077  32.807  34.686  14.221
21549W        W93078  10.619  20.745  11.019
21550W        W93079  33.507  42.454   2.835
21551W        W93080  33.512  28.270  12.665
21552W        W93081  34.615  22.197  13.527
21553W        W93082  44.245  26.468   3.833
21554W        W93083  38.848   9.388  13.588
21555W        W93084   3.775  37.972  12.553
21556W        W93085  25.210  28.481   4.049
21557W        W93086  40.642  12.657   1.313
21558W        W93087  32.680  14.244  12.172
21559W        W93088  33.233  13.281  12.594
21560W        W93089  35.573  29.195   4.398
21561W        W93090  33.061  21.569   3.346
21562W        W93091  13.591  27.953   4.208
21563W        W93092  23.942  25.521  11.921
21564W        W93093  10.622  20.601   0.194
21565W        W93094  17.556  28.503   3.595
21566W        W93095  17.539  40.369  14.453
21567W        W93096   3.366   4.702  13.899
21568W        W93097  33.704  38.842  11.061
21569W        W93098   9.976  18.774   3.776
21570W        W93099  37.020  38.375  11.978
21571W        W93100   2.474  13.146   4.401
21572W        W93101  24.230   8.496  14.400
21573W        W93102  18.964  37.476  14.985
21574W        W93103  37.939   7.285   2.674
21575W        W93104   3.679  17.289  13.443
21576W        W93105   7.163  37.380  14.439
21577W        W93106  16.696  13.282   0.247
21578W        W93107   1.742  19.231  11.141
21579W        W93108   6.379  16.978  11.962
21580W        W93109   4.463  22.202   0.479
21581W        W93110  41.537   8.162  10.671
21582W        W93111  27.123  18.565   3.239
21583W        W93112  11.318  31.440   3.609
21584W        W93113  42.595  11.817  11.979
21585W        W93114  19.273   1.967  10.678
21586W        W93115  10.170  17.959   2.987
21587W        W93116   1.035  44.435  10.253
21588W        W93117  29.112  24.761   2.284
21589W        W93118  23.767  23.217  13.952
21590W        W93119  38.913  44.444  13.044
21591W        W93120  10.278   2.543   3.739
21592W        W93121  24.798  25.717  14.790
21593W        W93122  32.154  41.996   0.037
21594W        W93123  31.198   1.285   3.820
21595W        W93124  42.753   7.823   2.725
21596W        W93125  44.652  38.087   2.173
21597W        W93126  38.827  19.207  13.014
21598W        W93127  18.105   5.163   3.212
21599W        W93128  14.210   8.220   1.420
21600W        W93129  11.066  44.437   4.076
21601W        W93130  21.283  42.334  13.975
21602W        W93131  34.992  16.811   3.366
21603W        W93132   5.204  31.609  14.360
21604W        W93133   5.266  41.458  10.706
21605W        W93134   5.946   0.069   2.117
21606W        W93135  29.559  40.207  12.984
21607W        W93136  32.319  36.036   1.874
21608W        W93137   4.764  23.962   1.981
21609W        W93138   8.784  24.812   1.346
21610W        W93139   3.973  27.661   3.297
21611W        W93140  25.919  29.039   4.697
21612W        W93141   7.253   1.485  12.849
21613W        W93142   4.329  23.330  11.542
21614W        W93143  44.804  33.721  14.000
21615W        W93144   5.728  24.841  14.201
21616W        W93145  19.640  37.057  12.073
21617W        W93146  40.527  39.926   0.276
21618W        W93147   0.539  40.511  11.358
21619W        W93148   8.155  17.118   1.472
21620W        W93149  17.544  26.597   1.969
21621W        W93150   2.400  11.601   1.685
21622W        W93151  39.439  41.194  11.120
21623W        W93152  13.848   9.653   2.425
21624W        W93153  37.558   3.827   0.426
21625W        W93154  20.144  14.197  13.476
21626W        W93155  12.879  12.688  14.282
21627W        W93156  28.724  27.626  11.707
21628W        W93157  25.075  29.973  11.432
21629W        W93158  20.407  36.948   2.750
21630W        W93159  20.093  43.357  10.961
21631W        W93160   0.796  44.568  13.494
21632W        W93161  38.460  33.969   3.955
21633W        W93162  21.731  19.784  12.574
21634W        W93163   7.479   7.844  14.277
21635W        W93164  15.462  11.076  14.440
21636W        W93165  40.553  23.226   2.395
21637W        W93166  14.582  44.233  11.722
21638W        W93167  32.448   7.765   2.730
21639W        W93168  21.591  29.174   3.299
21640W        W93169  10.902  33.020  13.510
21641W        W93170  17.257  38.063   3.716
21642W        W93171  27.107  39.868   2.905
21643W        W93172  35.859  26.130  10.730
21644W        W93173  22.566  22.566   1.681
21645W        W93174  29.431  27.732   1.937
21646W        W93175   8.364  10.582   2.187
21647W        W93176  32.398  31.190  10.859
21648W        W93177  25.497  28.720   3.187
21649W        W93178   1.644  18.389   4.224
21650W        W93179   2.723  17.138   2.625
21651W        W93180  30.062  14.898  12.077
21652W        W93181   0.021   4.354  12.085
21653W        W93182   8.793  24.590   3.577
21654W        W93183  25.771  42.752   1.873
21655W        W93184  10.798  10.289   2.771
21656W        W93185  28.441  19.711  12.168
21657W        W93186  26.100  32.462  13.046
21658W        W93187  43.967  28.635   2.212
21659W        W93188  20.593   5.821  14.241
21660W        W93189   8.855   4.382  14.166
21661W        W93190  15.179   3.313   4.586
21662W        W93191  24.001  39.681   3.991
21663W        W93192  16.783  27.222   3.084
21664W        W93193  33.958  43.880  14.048
21665W        W93194  21.507  41.557   3.728
21666W        W93195   1.170  35.753   5.379
21667W        W93196  42.231   0.517  14.358
21668W        W93197  26.638  16.129   1.329
21669W        W93198  28.446  26.163  13.562
21670W        W93199  16.573  38.734  10.967
21671W        W93200   2.440   1.530   4.498
21672W        W93201  42.014  14.779   3.846
21673W        W93202  21.594   1.455   2.154
21674W        W93203  20.790  28.662  14.461
21675W        W93204  22.825  20.159   3.163
21676W        W93205   5.138  26.195   0.596
21677W        W93206  36.922  27.549  12.741
21678W        W93207  31.924  12.264   4.160
21679W        W93208  19.122  40.705  11.791
21680W        W93209  35.416  21.676   4.323
21681W        W93210  12.848  16.835   1.418
21682W        W93211  36.097  37.011   1.436
21683W        W93212  31.430   2.633  11.245
21684W        W93213  19.193  28.328  12.347
21685W        W93214  27.896  36.774   1.844
21686W        W93215  19.620  44.921  12.869
21687W        W93216   6.797  30.224   0.524
21688W        W93217  43.902  27.997   4.523
21689W        W93218  23.096  26.511  14.037
21690W        W93219   5.395  41.468   1.484
21691W        W93220  25.397   2.157  12.548
21692W        W93221   6.854   3.344   0.536
21693W        W93222   8.792  17.059  10.622
21694W        W93223   9.365  16.181   0.773
21695W        W93224  15.040   6.329  13.645
21696W        W93225  21.224  13.874  13.284
21697W        W93226   4.507   7.821  12.503
21698W        W93227   8.854  29.895  11.974
21699W        W93228   7.155   0.133   3.334
21700W        W93229  40.479  29.735  11.559
21701W        W93230  26.532  31.279  11.662
21702W        W93231  13.695  33.640  12.043
21703W        W93232  32.696  33.350   1.860
21704W        W93233  20.066  20.376   1.060
21705W        W93234  41.247  27.482  13.740
21706W        W93235  10.192  35.356   1.084
21707W        W93236  37.946  22.044  14.831
21708W        W93237  22.705  23.959   0.254
21709W        W93238  20.151  35.901   4.564
21710W        W93239  40.429  36.176   4.655
21711W        W93240  26.814   4.895   0.416
21712W        W93241   6.591  15.032  11.643
21713W        W93242  44.750  31.767   2.592
21714W        W93243  38.872  36.861  14.759
21715W        W93244  14.173  29.230  13.937
21716W        W93245   8.909  20.580  11.362
21717W        W93246   7.899  38.916   3.837
21718W        W93247  43.501  42.943  14.959
21719W        W93248  25.086  13.323   4.586
21720W        W93249   3.429  36.810   0.286
21721W        W93250  19.254   2.846  13.633
21722W        W93251  40.612  30.930  13.947
21723W        W93252  17.336  23.044  14.410
21724W        W93253   7.137  32.029  10.536
21725W        W93254  42.976  33.140  13.805
21726W        W93255  43.051   8.405  14.705
21727W        W93256  15.737  29.069   3.953
21728W        W93257   0.290  24.450  11.596
21729W        W93258  24.280  44.068  11.640
21730W        W93259  31.088   6.467  12.548
21731W        W93260  32.479  11.913   1.940
21732W        W93261  27.073   3.445   1.718
21733W        W93262  21.107  26.168  13.047
21734W        W93263  30.158  37.139  12.560
21735W        W93264   2.945  43.457   4.167
21736W        W93265  31.344  35.969   0.809
21737W        W93266  31.083  29.375   0.288
21738W        W93267  15.050  11.253  10.699
21739W        W93268  41.582   0.977  10.403
21740W        W93269   7.215  14.775  14.548
21741W        W93270  37.404   4.719  14.296
21742W        W93271  36.527   5.565   0.905
21743W        W93272  21.708  37.350  13.318
21744W        W93273  30.630  38.957  12.790
21745W        W93274  21.174  13.838  12.356
21746W        W93275  32.497  23.779  11.445
21747W        W93276   0.873  34.188  11.631
21748W        W93277  43.401   7.926  14.617
21749W        W93278  42.805  10.595  11.636
21750W        W93279   1.542  28.038   4.694
21751W        W93280   3.828  21.949  13.440
21752W        W93281  34.677  15.175  14.424
21753W        W93282   6.239  38.329   2.364
21754W        W93283  20.193  30.895  10.953
21755W        W93284  36.349  37.586  13.615
21756W        W93285  20.240  30.365  12.474
21757W        W93286   9.925  15.179  13.105
21758W        W93287  24.017  38.995   0.647
21759W        W93288  17.374  19.541   1.374
21760W        W93289   3.014  13.293   3.091
21761W        W93290  34.121   0.760  12.005
21762W        W93291  29.532  28.974  14.438
21763W        W93292   7.745  37.086   3.702
21764W        W93293  18.512  39.072   3.274
21765W        W93294  29.520   3.761   3.165
21766W        W93295   2.104  33.561   0.481
21767W        W93296  11.144  23.219  12.865
21768W        W93297   2.673  21.230   3.392
21769W        W93298  30.038  18.302   4.370
21770W        W93299  11.526  15.703  12.011
21771W        W93300  13.911   4.832   3.703
21772W        W93301  16.153  32.546  13.884
21773W        W93302  25.537   7.445  13.435
21774W        W93303  15.860  34.620   3.296
21775W        W93304  11.412  30.514  13.475
21776W        W93305  30.096   8.904   2.345
21777W        W93306  19.968  22.822  13.672
21778W        W93307  31.956  28.966   1.277
21779W        W93308  26.634  30.651   0.346
21780W        W93309  23.340  25.024  11.162
21781W        W93310  22.616  22.448  11.677
21782W        W93311  44.758  38.862   1.117
21783W        W93312  13.188  12.566  10.696
21784W        W93313   5.863   2.320  12.233
21785W        W93314   4.486  29.928   2.841
21786W        W93315  43.720   0.736   2.786
21787W        W93316  36.829   1.959  14.814
21788W        W93317  44.486  40.897  11.964
21789W        W93318  10.247  34.058   0.005
21790W        W93319  17.183  15.333  11.609
21791W        W93320  11.393  16.140  14.646
21792W        W93321  35.664  35.083  12.558
21793W        W93322  21.469  44.828  10.472
21794W        W93323  38.118  39.885   2.524
21795W        W93324  36.987  26.960   2.588
21796W        W93325  18.082  19.189   0.930
21797W        W93326  23.616  21.329   4.367
21798W        W93327  44.448  11.267  12.290
21799W        W93328  29.033  32.558  12.510
21800W        W93329  13.736  26.517  12.417
21801W        W93330  43.023  40.939   0.216
21802W        W93331  27.621  17.243   1.414
21803W        W93332  17.668  11.742   1.988
21804W        W93333   5.124  33.401  12.724
21805W        W93334  37.251  34.050  11.992
21806W        W93335  42.535  27.714   3.253
21807W        W93336  12.861   2.264   1.866
21808W        W93337  29.144  40.852  14.743
21809W        W93338  24.795  19.873   3.170
21810W        W93339   5.334  25.265  14.475
21811W        W93340  10.330  25.960  13.914
21812W        W93341  29.166  29.966   4.132
21813W        W93342  16.393  22.085  13.451
21814W        W93343  39.640  18.724  12.967
21815W        W93344   4.971  17.201   0.771
21816W        W93345  11.153  16.586  14.589
21817W        W93346  44.574  24.129  14.014
21818W        W93347  14.668  27.364   0.508
21819W        W93348  33.439  28.488   4.630
21820W        W93349  23.470  18.791   4.437
21821W        W93350  41.762  18.289   3.649
21822W        W93351  44.149  43.301   3.592
21823W        W93352   1.565  13.854  13.938
21824W        W93353  13.375  30.238  14.548
21825W        W93354  38.125  39.426  13.541
21826W        W93355  42.464  15.283  11.107
21827W        W93356  31.995  19.934   2.257
21828W        W93357  11.604  34.568  10.062
21829W        W93358  22.103  33.671   4.884
21830W        W93359  25.943  40.545  12.986
21831W        W93360  15.933  12.652   9.894
21832W        W93361  21.042  33.030   4.222
21833W        W93362  21.785  29.173  14.716
21834W        W93363  23.963  12.672   4.051
21835W        W93364   3.836  34.909   0.697
21836W        W93365   2.647  28.458   4.811
21837W        W93366  16.572  42.937  14.925
21838W        W93367  10.334  10.089   2.753
21839W        W93368  33.634  24.569   0.992
21840W        W93369  28.369  13.079   0.059
21841W        W93370  33.493  11.868  10.637
21842W        W93371  24.086  29.428  11.073
21843W        W93372  13.554  44.457  12.265
21844W        W93373  32.299  12.894  11.587
21845W        W93374   4.388  44.432  10.109
21846W        W93375  12.406   4.928  12.643
21847W        W93376  11.360  16.769   4.649
21848W        W93377  36.879  32.571  13.842
21849W        W93378  29.001  30.157   1.216
21850W        W93379  23.492  25.995   2.143
21851W        W93380  44.196  17.788   0.705
21852W        W93381  31.196  24.117   4.459
21853W        W93382  18.620  43.819  11.645
21854W        W93383   1.819  37.888   0.282
21855W        W93384   7.027  10.206  11.994
21856W        W93385   9.207  17.092   2.691
21857W        W93386  32.920  33.023  12.968
21858W        W93387  42.800  25.606  13.581
21859W        W93388  20.991   1.946   3.159
21860W        W93389  39.314  27.900  11.112
21861W        W93390  43.326  37.887   0.487
21862W        W93391  27.435  37.370   4.494
21863W        W93392  19.704  44.643   3.106
21864W        W93393  13.754  30.374   1.778
21865W        W93394   5.787  41.147  13.384
21866W        W93395  31.836   3.787   0.800
21867W        W93396  25.171  29.172  13.484
21868W        W93397  29.870  31.459  11.245
21869W        W93398  11.355   9.669   3.584
21870W        W93399  42.071   1.857  12.410
21871W        W93400  35.375  35.991   3.450
21872W        W93401  17.029  17.645   0.422
21873W        W93402  24.467   9.677   0.317
21874W        W93403  34.901  25.357  12.244
21875W        W93404  36.867   0.795   3.633
21876W        W93405   4.464  20.289  14.948
21877W        W93406  19.513  23.983   2.725
21878W        W93407  43.755  12.379  14.486
21879W        W93408  17.205  10.118  14.358
21880W        W93409  13.789  12.640  10.526
21881W        W93410  41.315   3.953   1.724
21882W        W93411  40.770  14.328   1.044
21883W        W93412  29.227  10.926  10.719
21884W        W93413  44.799  26.366  10.693
21885W        W93414  11.560  11.666   3.317
21886W        W93415  10.189  39.527  10.836
21887W        W93416  29.289   7.564   4.459
21888W        W93417   8.338   3.773   1.186
21889W        W93418  16.682   6.874   1.798
21890W        W93419  11.547  28.764  13.404
21891W        W93420   4.787  34.528   2.130
21892W        W93421  13.235  10.872   1.896
21893W        W93422  16.342  36.613  12.987
21894W        W93423  18.610  23.546   1.054
21895W        W93424  37.086  32.694   2.703
21896W        W93425  25.902  14.726  12.503
21897W        W93426  28.524   1.939   4.540
21898W        W93427  22.933  34.396   5.047
21899W        W93428  23.314  44.142   2.787
21900W        W93429   6.398  18.496  14.344
21901W        W93430  39.965   2.479   2.300
21902W        W93431  32.381  25.224   3.203
21903W        W93432  21.514  18.642  13.300
21904W        W93433  19.115  36.108   0.780
21905W        W93434  22.832  35.523   4.572
21906W        W93435   7.883  42.535   2.881
21907W        W93436   4.332  28.030   2.234
21908W        W93437  28.524  44.032   1.458
21909W        W93438  15.656  25.661   2.691
21910W        W93439  22.085  12.809   3.061
21911W        W93440   9.669   1.544   2.249
21912W        W93441  39.090  14.801   3.454
21913W        W93442  33.137  43.062   1.104
21914W        W93443  39.002  30.105  12.837
21915W        W93444   7.723  14.301   4.703
21916W        W93445  24.221  28.353  12.590
21917W        W93446  41.577  39.367  11.633
21918W        W93447  18.684  21.686   0.406
21919W        W93448  33.932  21.308   0.435
21920W        W93449  30.973  29.597  11.682
21921W        W93450  43.940  17.680   2.432
21922W        W93451  16.662  23.456  10.279
21923W        W93452   0.742  21.625   3.454
21924W        W93453  41.494  24.146   4.210
21925W        W93454   5.342   7.956  12.392
21926W        W93455  35.573   5.867   3.729
21927W        W93456  32.588  33.329   2.407
21928W        W93457  22.197  32.814   3.612
21929W        W93458  13.597   0.947  12.491
21930W        W93459   5.141  10.688   2.770
21931W        W93460   3.815  26.997   0.130
21932W        W93461  27.579  37.700   3.658
21933W        W93462   4.701   3.668  13.604
21934W        W93463   5.895  22.482  12.432
21935W        W93464  20.681   4.700   0.722
21936W        W93465  23.075  27.471  14.825
21937W        W93466   7.201  13.250   4.598
21938W        W93467  18.177  11.721   1.858
21939W        W93468  14.731  25.931   2.709
21940W        W93469  44.942   7.904  12.333
21941W        W93470  10.691  16.197   0.462
21942W        W93471  28.455  36.553  10.682
21943W        W93472   6.908  26.854   2.681
21944W        W93473  28.871  23.137   0.450
21945W        W93474   6.825   8.628   4.862
21946W        W93475   7.351  26.722  11.069
21947W        W93476  27.537  26.965  10.651
21948W        W93477  16.791  31.903  13.987
21949W        W93478   1.775   1.254  12.491
21950W        W93479  25.577  32.077   3.213
21951W        W93480  31.093  13.412   0.585
21952W        W93481   5.359  10.404   4.584
21953W        W93482  12.249   7.204  13.081
21954W        W93483  17.226  23.079   1.805
21955W        W93484  43.520   8.208  12.046
21956W        W93485  40.436  32.333   1.824
21957W        W93486  21.180   7.740   3.749
21958W        W93487   3.937  27.250   1.879
21959W        W93488   9.453  23.771   2.176
21960W        W93489  44.216  29.962   0.764
21961W        W93490   0.569  18.002  10.643
21962W        W93491  43.735  33.574  11.524
21963W        W93492  16.312  15.395  14.379
21964W        W93493  10.140  40.917  11.986
21965W        W93494  28.055  18.270  10.789
21966W        W93495   3.047  21.453  11.705
21967W        W93496  43.679  20.263  13.508
21968W        W93497   9.442  15.931  12.770
21969W        W93498  15.705   9.844  10.386
21970W        W93499  33.501  28.921   2.371
21971W        W93500  31.812  20.427   2.142
21972W        W93501  10.231  44.754  13.454
21973W        W93502  10.306  24.143   4.742
21974W        W93503  12.357  42.016   3.207
21975W        W93504  33.982  32.566   2.624
21976W        W93505   5.676  30.585   1.316
21977W        W93506  28.920  22.941   2.758
21978W        W93507  13.949  33.451  14.513
21979W        W93508  14.678  14.627  11.364
21980W        W93509   3.460  40.256   4.361
21981W        W93510  16.558  22.782   1.983
21982W        W93511  38.096  13.196   2.813
21983W        W93512  18.678  20.347   3.097
21984W        W93513  17.788   0.875   2.254
21985W        W93514  32.563  19.849  14.816
21986W        W93515   7.270   0.976  12.910
21987W        W93516   1.215  12.314   2.662
21988W        W93517  41.360   3.940   0.053
21989W        W93518  30.934  43.884  11.887
21990W        W93519  40.213  40.405  11.126
21991W        W93520  33.696  35.986   1.931
21992W        W93521  11.629  16.752   2.759
21993W        W93522  37.539  22.580  14.319
21994W        W93523  44.040   2.453   0.037
21995W        W93524   7.623  20.764   3.775
21996W        W93525  42.569  32.517  10.836
21997W        W93526   8.156  16.600   3.277
21998W        W93527   9.160  38.400  12.977
21999W        W93528  13.392   3.556   2.581
22000W        W93529  38.451  36.489   4.102
22001W        W93530  11.732  43.480   1.984
22002W        W93531  21.090  41.647  11.110
22003W        W93532  32.380  26.564  12.994
22004W        W93533  41.348   1.778   0.930
22005W        W93534  31.004  44.183   9.994
22006W        W93535  20.048  29.663   5.886
22007W        W93536  42.290  15.733   0.354
22008W        W93537  39.320   8.099   1.784
22009W        W93538   2.822  16.588  10.366
22010W        W93539  25.729  37.474  13.677
22011W        W93540  33.409  30.894   2.507
22012W        W93541  28.732  44.986   1.289
22013W        W93542  19.685  15.365   1.240
22014W        W93543   7.162  38.779   2.236
22015W        W93544  29.840   8.789  10.857
22016W        W93545  14.768  34.437   4.637
22017W        W93546  44.202  29.501  14.105
22018W        W93547  15.770   1.870  11.553
22019W        W93548  39.499  17.530   4.953
22020W        W93549  26.713  26.607   4.313
22021W        W93550  25.385   7.812  12.809
22022W        W93551  31.923   0.753  11.038
22023W        W93552  18.535  37.984  12.507
22024W        W93553  10.129  36.030  13.843
22025W        W93554  26.270  21.175   0.687
22026W        W93555  36.107  20.644   2.334
22027W        W93556  42.261  15.782   3.250
22028W        W93557  31.546  16.207   1.357
22029W        W93558  13.474  24.037   0.828
22030W        W93559  32.422  27.320  11.486
22031W        W93560   3.547  28.490  12.117
22032W        W93561   1.381   1.458  14.780
22033W        W93562  43.333  16.163   0.945
22034W        W93563   1.295  44.900   1.878
22035W        W93564  22.750  22.855   3.674
22036W        W93565   3.994  34.878  10.600
22037W        W93566   9.654  38.905   0.089
22038W        W93567   9.574  18.150   0.336
22039W        W93568  40.512   5.351  13.329
22040W        W93569  31.364  29.176   4.218
22041W        W93570  41.931  37.775  13.835
22042W        W93571   1.546  37.429  12.958
22043W        W93572  41.004  23.420  13.064
22044W        W93573   1.930  23.705  13.305
22045W        W93574  26.969  32.468   0.494
22046W        W93575  19.795  17.862   4.600
22047W        W93576  24.552  17.366   0.790
22048W        W93577  43.662  12.332  10.623
22049W        W93578  22.094  33.827   3.559
22050W        W93579  24.928  14.592   2.697
22051W        W93580  38.318  44.593  12.325
22052W        W93581  26.671  34.339   2.191
22053W        W93582   2.751  44.879  12.106
22054W        W93583  30.715  23.601  14.596
22055W        W93584  41.669   6.586   2.167
22056W        W93585  33.811  17.524  12.045
22057W        W93586  35.034   2.981  14.466
22058W        W93587  37.809   5.573   0.309
22059W        W93588   8.612  21.256   4.363
22060W        W93589   3.505   0.001  13.103
22061W        W93590  12.087   8.762   1.909
22062W        W93591  16.285  13.844   2.576
22063W        W93592  34.614  36.167  14.400
22064W        W93593  32.578  24.038  11.016
22065W        W93594   6.039  26.343   4.897
22066W        W93595  36.850  41.928  13.610
22067W        W93596  14.427  19.508  12.591
22068W        W93597  11.114  29.579  11.531
22069W        W93598  32.145  36.557   1.807
22070W        W93599  32.546  16.002  10.664
22071W        W93600   7.848   3.255  11.985
22072W        W93601  41.116  18.730  12.024
22073W        W93602  20.277  37.923   3.703
22074W        W93603  16.131  24.089   5.049
22075W        W93604  38.888  12.652  10.711
22076W        W93605   1.405   6.630  14.032
22077W        W93606  26.582  40.762  11.428
22078W        W93607  13.634  24.560  12.450
22079W        W93608   4.910   8.708  12.608
22080W        W93609  35.480  24.660   0.608
22081W        W93610  11.813  29.136  14.486
22082W        W93611  26.909  40.343   2.913
22083W        W93612  25.150   9.235  10.774
22084W        W93613   0.417  28.286  12.623
22085W        W93614  22.404  13.584  11.517
22086W        W93615  30.521  12.173   1.741
22087W        W93616  20.736  36.936  10.540
22088W        W93617   3.439  43.834  11.463
22089W        W93618   1.550  21.175   1.549
22090W        W93619  34.275  29.724  10.806
22091W        W93620  28.804  33.902   4.475
22092W        W93621  34.874  23.511   2.226
22093W        W93622  22.930  33.340  11.531
22094W        W93623  38.490  43.360   3.463
22095W        W93624  42.615   6.900  12.835
22096W        W93625  42.808  12.237   2.347
22097W        W93626  15.529  23.993   0.663
22098W        W93627  38.430   5.328   2.178
22099W        W93628  22.669  30.578   0.838
22100W        W93629   7.420   0.710   2.382
22101W        W93630  21.206  21.134   5.118
22102W        W93631  23.596  34.111  13.415
22103W        W93632  23.295  39.904   1.886
22104W        W93633   4.281  21.766   3.106
22105W        W93634  15.901   3.276   0.288
22106W        W93635  31.537  20.101  13.444
22107W        W93636   2.130  15.243  11.564
22108W        W93637   0.447   6.412   4.054
22109W        W93638  26.504  25.523  10.647
22110W        W93639  33.327   9.552   4.268
22111W        W93640  41.845  16.385  10.021
22112W        W93641  25.508  15.827   0.386
22113W        W93642  33.008  33.685   3.212
22114W        W93643  17.198   7.181  13.789
22115W        W93644  32.362  16.694  11.107
22116W        W93645   7.776   7.439  11.170
22117W        W93646  31.415   4.501  13.939
22118W        W93647  30.339  43.755  13.407
22119W        W93648   4.329  24.315   0.795
22120W        W93649  25.279  17.078   2.343
22121W        W93650  44.901  42.880   1.868
22122W        W93651   5.770  11.840   0.248
22123W        W93652  19.711  14.250   2.707
22124W        W93653  15.600  23.696   2.044
22125W        W93654  29.794  19.730  10.306
22126W        W93655  40.446  15.803  11.651
22127W        W93656  22.382  36.553   0.352
22128W        W93657  39.336  14.349   1.111
22129W        W93658  17.799  19.237   1.385
22130W        W93659   0.261   2.465  13.199
22131W        W93660  14.801   6.157   1.656
22132W        W93661  44.743  37.448   2.712
22133W        W93662  24.012  10.147   3.157
22134W        W93663  35.032  18.409   4.084
22135W        W93664  31.810  20.530   3.090
22136W        W93665   2.992   2.789  12.128
22137W        W93666   8.413  38.432   0.003
22138W        W93667  30.342  20.015   1.335
22139W        W93668  31.683   2.146  13.545
22140W        W93669  29.150   0.396  12.928
22141W        W93670  16.667  10.308   2.842
22142W        W93671  16.780  39.761   1.910
22143W        W93672  31.375   4.189  11.402
22144W        W93673  40.809  35.940  14.532
22145W        W93674  29.624  22.444  12.891
22146W        W93675  24.803  12.702   4.415
22147W        W93676  23.420  38.569   1.636
22148W        W93677  44.710  27.899  12.650
22149W        W93678  43.494  28.948   3.695
22150W        W93679  44.123  22.808  14.478
22151W        W93680  25.624  21.972   2.710
22152W        W93681  10.067  40.402   0.406
22153W        W93682  35.189  26.902  14.374
22154W        W93683  26.478  14.263   3.120
22155W        W93684  27.936  16.213  13.921
22156W        W93685  40.448  13.788  13.886
22157W        W93686   8.465  27.780  14.269
22158W        W93687  20.547  31.075  14.216
22159W        W93688   4.748  39.563  14.782
22160W        W93689  18.744  37.152  10.687
22161W        W93690  42.395  39.845   3.222
22162W        W93691   0.495  10.451  12.417
22163W        W93692  21.831  43.962  13.418
22164W        W93693  12.827  36.898   0.031
22165W        W93694  18.300  38.523   2.685
22166W        W93695  32.298  42.804   0.948
22167W        W93696   7.556  43.006   1.038
22168W        W93697  40.963  38.398  11.981
22169W        W93698  10.326   2.269   4.350
22170W        W93699  32.555  16.098   4.141
22171W        W93700  40.250  31.660   4.087
22172W        W93701  18.818  35.306   4.050
22173W        W93702   6.306  17.243  14.000
22174W        W93703  27.257   3.821   2.012
22175W        W93704  19.055  33.434  11.903
22176W        W93705  25.628  38.310   3.762
22177W        W93706  36.198  43.015   3.146
22178W        W93707  35.013  36.527   3.375
22179W        W93708  29.644  19.594   0.416
22180W        W93709  18.342  22.328   4.155
22181W        W93710  22.091  26.437   3.181
22182W        W93711  33.947   5.447   2.639
22183W        W93712  30.683   0.308  14.469
22184W        W93713  28.441  20.628   3.531
22185W        W93714  34.829   9.680  11.107
22186W        W93715  16.411  39.444   3.801
22187W        W93716  30.055  28.212  14.958
22188W        W93717  15.845  13.156   1.438
22189W        W93718  14.878  24.309   4.388
22190W        W93719  40.009  33.000  12.834
22191W        W93720  39.454  41.776   4.112
22192W        W93721  19.774  40.720  12.070
22193W        W93722  33.405   0.758  13.059
22194W        W93723  16.270  20.706  13.620
22195W        W93724  34.301  41.366  12.475
22196W        W93725  10.100  28.020  12.407
22197W        W93726   2.432  30.088   3.420
22198W        W93727   7.209  35.195   3.358
22199W        W93728  18.644   9.115  13.538
22200W        W93729  34.493  33.738  11.355
22201W        W93730   5.899  39.978  14.201
22202W        W93731  14.381  24.035  13.942
22203W        W93732  12.432  15.298   3.152
22204W        W93733  30.656  36.571   4.851
22205W        W93734  34.544  41.067   0.478
22206W        W93735  17.385  43.840  11.154
22207W        W93736  24.696  30.781   0.221
22208W        W93737  43.439  40.004  11.175
22209W        W93738   2.998  13.715  11.717
22210W        W93739  44.313  12.367   1.649
22211W        W93740   4.900   9.339  13.397
22212W        W93741  15.876   8.466  13.317
22213W        W93742   1.775   8.892   0.613
22214W        W93743   6.690  41.438   2.879
22215W        W93744  23.529  38.391  13.653
22216W        W93745   5.192  34.892  12.811
22217W        W93746  13.261  35.125  12.726
22218W        W93747  25.684  30.811  14.446
22219W        W93748  36.377  44.494   1.493
22220W        W93749  19.267  26.963   3.227
22221W        W93750  26.610   4.480  12.876
22222W        W93751   8.239  40.487   3.293
22223W        W93752  26.827   4.488   4.328
22224W        W93753  25.844  15.701   2.065
22225W        W93754  14.571   4.460   2.139
22226W        W93755  25.445  11.175   1.329
22227W        W93756  37.151  24.359  11.264
22228W        W93757  44.054  44.799  13.140
22229W        W93758  24.302  16.092  11.217
22230W        W93759  31.506   7.894  13.963
22231W        W93760  12.345  15.617  14.840
22232W        W93761   1.411  12.219  11.733
22233W        W93762  34.049   2.499  13.886
22234W        W93763  33.091  15.576  11.527
22235W        W93764  35.592   1.259   2.317
22236W        W93765  34.602  19.810   0.893
22237W        W93766  31.084  23.631  14.963
22238W        W93767  24.540  36.066   1.604
22239W        W93768   4.259  14.845  12.314
22240W        W93769   0.431  10.209  12.859
22241W        W93770  31.978   5.995   0.209
22242W        W93771  12.371  16.147  14.916
22243W        W93772  41.579  24.731  10.658
22244W        W93773  40.906   8.397   1.733
22245W        W93774  13.624   7.805  13.272
22246W        W93775  26.596   6.879   0.141
22247W        W93776   2.069  18.603   1.750
22248W        W93777   5.695  31.135   2.719
22249W        W93778  40.464  27.708  11.549
22250W        W93779  22.796  13.671  14.892
22251W        W93780  38.884  18.790  13.776
22252W        W93781   4.677   6.406   4.557
22253W        W93782  24.086  30.497  14.199
22254W        W93783  11.215  14.362   3.253
22255W        W93784  14.820  13.835  13.293
22256W        W93785  41.966  29.194  11.551
22257W        W93786  21.355   3.505   3.649
22258W        W93787   7.873  18.379  11.476
22259W        W93788  17.098  32.312  13.970
22260W        W93789  34.791   4.844   4.671
22261W        W93790  31.962  31.997  11.591
22262W        W93791   2.921  16.693  12.116
22263W        W93792  26.477  26.050  10.722
22264W        W93793   1.374  14.141   1.226
22265W        W93794   5.400  18.296   0.330
22266W        W93795  10.432  26.110  10.966
22267W        W93796  44.699  44.314  14.673
22268W        W93797   1.229  14.079   3.162
22269W        W93798  28.618  27.943  10.732
22270W        W93799  43.805  21.854   4.693
22271W        W93800  25.602  32.340  12.863
22272W        W93801  31.421  12.543  12.892
22273W        W93802  24.925  10.938  10.682
22274W        W93803  27.377  23.995  11.133
22275W        W93804  42.315  39.481   4.311
22276W        W93805  13.691  33.320  14.079
22277W        W93806  33.051   0.470  10.442
22278W        W93807  42.568   8.197  14.776
22279W        W93808   2.464  24.300   4.260
22280W        W93809  40.802  35.549  13.433
22281W        W93810  19.981   1.191   3.820
22282W        W93811  27.098  37.134   0.391
22283W        W93812   9.693   6.742  10.916
22284W        W93813  10.167  28.967   3.244
22285W        W93814   4.925  13.263   5.078
22286W        W93815   9.748   7.023  12.636
22287W        W93816  38.159  41.545  14.945
22288W        W93817  24.121  39.336   5.009
22289W        W93818  36.808  31.446  13.438
22290W        W93819  30.692  39.631  12.701
22291W        W93820   1.217  20.572   2.873
22292W        W93821  22.024   5.871   2.415
22293W        W93822  39.340  18.317  13.123
22294W        W93823  39.170  30.071   2.206
22295W        W93824  39.839  39.364   2.153
22296W        W93825  39.271  24.598  11.523
22297W        W93826  20.090   8.302  14.376
22298W        W93827  20.210  35.182  12.224
22299W        W93828   3.111  35.962   0.046
22300W        W93829   8.814  23.709  12.034
22301W        W93830   9.819  41.056   0.264
22302W        W93831  16.247  37.477   4.634
22303W        W93832  29.589  17.755   3.203
22304W        W93833   0.447  20.101  13.022
22305W        W93834  38.946  29.371  11.055
22306W        W93835  40.441  26.578  14.443
22307W        W93836  29.076  42.793   2.199
22308W        W93837  30.201  37.889   1.676
22309W        W93838  28.651  27.038  14.877
22310W        W93839   6.602  31.486   2.339
22311W        W93840  43.474  29.633  10.997
22312W        W93841  11.525  41.985  10.911
22313W        W93842  21.611  38.498   1.144
22314W        W93843  44.215  12.216  14.336
22315W        W93844  44.693  41.436   3.307
22316W        W93845  43.349  33.183  12.335
22317W        W93846  21.785   5.902   0.463
22318W        W93847   9.874   1.698   2.766
22319W        W93848  21.627  42.078   1.406
22320W        W93849  31.217  13.586   1.302
22321W        W93850  39.660  26.557  11.938
22322W        W93851  31.200  28.434  14.009
22323W        W93852  26.230   6.169   1.324
22324W        W93853  41.019  20.286  14.244
22325W        W93854   8.256  13.095   4.562
22326W        W93855  39.591  30.659  12.212
22327W        W93856  21.809  19.101  14.522
22328W        W93857  30.517   9.109   4.146
22329W        W93858   4.413  36.945   4.381
22330W        W93859  36.863  11.775  13.398
22331W        W93860   2.985  13.658   1.320
22332W        W93861  41.469  42.821  10.864
22333W        W93862   9.668  44.237  13.501
22334W        W93863  25.988  20.722  14.868
22335W        W93864   9.493  22.504  10.223
22336W        W93865  38.475   5.821   2.371
22337W        W93866  29.624   9.988   2.988
22338W        W93867  18.201  19.772   4.021
22339W        W93868  35.331   7.473   3.758
22340W        W93869  30.556  44.196   2.572
22341W        W93870   1.933  40.290  12.656
22342W        W93871  15.375  16.544  14.372
22343W        W93872  36.283  15.267  12.567
22344W        W93873  10.170   7.238  14.809
22345W        W93874  39.372  38.075   0.335
22346W        W93875   3.649  12.636   4.219
22347W        W93876  24.474  28.603  13.438
22348W        W93877  38.331  38.007  14.046
22349W        W93878  29.152  23.946  10.820
22350W        W93879  15.161  12.912   1.736
22351W        W93880  43.373  14.517  14.507
22352W        W93881  44.964   9.453   1.715
22353W        W93882  13.644  21.670  11.015
22354W        W93883  31.593   1.002   4.161
22355W        W93884  32.107  18.205   4.571
22356W        W93885  39.755   1.186  12.440
22357W        W93886  14.941  30.383   0.816
22358W        W93887  35.542   9.388  10.750
22359W        W93888  34.842   3.201   4.653
22360W        W93889  35.331   2.764   2.412
22361W        W93890  38.594  20.469   1.254
22362W        W93891  34.374  40.357  14.176
22363W        W93892  43.725  39.807  10.788
22364W        W93893  37.988  26.766  14.029
22365W        W93894  28.104  16.684  12.534
22366W        W93895  13.644  38.955  13.821
22367W        W93896  35.269   2.812   1.309
22368W        W93897  20.697  27.954   0.195
22369W        W93898  14.673  44.390  10.952
22370W        W93899  28.449  24.933   1.000
22371W        W93900  17.769   0.536  10.727
22372W        W93901  13.034  34.119  14.674
22373W        W93902  33.658   4.162   0.303
22374W        W93903  29.091  43.829   2.419
22375W        W93904  36.418   4.103  11.605
22376W        W93905  23.471  29.566  14.221
22377W        W93906  21.680   9.880  13.354
22378W        W93907  21.510  18.313   4.036
22379W        W93908  42.419  24.718  12.142
22380W        W93909  13.627   3.901  14.926
22381W        W93910  42.999   2.339   3.346
22382W        W93911  16.796  31.076  10.741
22383W        W93912  37.565  32.080  12.892
22384W        W93913  37.019  18.381   3.392
22385W        W93914  12.385  12.358  12.102
22386W        W93915  16.738  11.848  11.547
22387W        W93916  14.620  28.469   1.188
22388W        W93917  26.096  34.672  13.624
22389W        W93918  25.862  33.674   4.460
22390W        W93919  10.221  29.588   0.054
22391W        W93920   0.130  19.987   4.075
22392W        W93921  28.166  14.620   1.819
22393W        W93922  33.579  29.339   1.413
22394W        W93923  10.375  23.613   4.659
22395W        W93924  37.966  37.734   2.395
22396W        W93925  29.127  11.833  12.925
22397W        W93926  32.868  31.124  12.200
22398W        W93927  19.193  26.774  13.845
22399W        W93928  42.190   6.830   3.221
22400W        W93929  20.061  39.840  13.948
22401W        W93930  36.144   3.411   1.415
22402W        W93931  13.823  32.449   2.150
22403W        W93932  11.287   1.852   2.713
22404W        W93933  34.037  11.162  14.561
22405W        W93934  35.007   0.901   0.932
22406W        W93935   7.695  18.994   3.091
22407W        W93936  39.796   4.249  14.528
22408W        W93937  17.124  42.855   2.266
22409W        W93938  26.962  32.492   4.840
22410W        W93939  21.834  14.366   4.441
22411W        W93940  10.115  14.501   4.026
22412W        W93941  28.801  35.621   2.392
22413W        W93942   0.412  28.757  10.744
22414W        W93943  15.849  24.039  11.310
22415W        W93944   6.462   5.466  11.041
22416W        W93945  23.741  11.121  12.497
22417W        W93946  24.948   7.399   3.390
22418W        W93947  44.395  43.322   1.495
22419W        W93948  14.224  10.217  12.898
22420W        W93949  26.555  37.300   5.418
22421W        W93950  27.941  28.647  13.772
22422W        W93951  38.333  41.438   2.353
22423W        W93952  12.482  21.147  14.251
22424W        W93953  25.224  43.319   3.610
22425W        W93954  43.208   7.192  12.549
22426W        W93955  32.137  15.795   3.168
22427W        W93956  12.182  44.939  13.011
22428W        W93957   7.847  26.671  14.527
22429W        W93958   1.329  27.478  13.399
22430W        W93959  14.023  21.526  10.153
22431W        W93960  38.360  18.780   2.179
22432W        W93961   6.046   3.842  10.704
22433W        W93962  37.829  10.846  10.526
22434W        W93963  26.267  43.229  12.659
22435W        W93964  23.825  20.838   2.919
22436W        W93965  33.718  12.755   2.831
22437W        W93966  12.286  35.935   4.278
22438W        W93967  30.196  31.381  12.055
22439W        W93968  28.196  34.073   1.319
22440W        W93969  44.289  37.855  13.434
22441W        W93970   0.962  39.299   0.963
22442W        W93971  19.659  30.957   1.195
22443W        W93972   2.533  16.657  13.120
22444W        W93973   1.008  23.467  13.475
22445W        W93974  24.959  31.012  12.830
22446W        W93975  33.075  30.484   1.007
22447W        W93976  41.406  13.807   4.143
22448W        W93977  14.865  24.129  11.201
22449W        W93978  30.432  28.611  12.389
22450W        W93979   3.800  33.610  10.334
22451W        W93980  18.447   8.909  14.482
22452W        W93981   4.145  17.007   5.123
22453W        W93982  30.035   0.240  11.186
22454W        W93983  12.214  14.637  11.593
22455W        W93984  32.317  21.179  11.315
22456W        W93985  11.958   2.049   3.849
22457W        W93986   0.517  11.747   0.825
22458W        W93987  44.855  39.329  14.400
22459W        W93988   0.716  28.065   1.670
22460W        W93989  37.288  34.927  13.915
22461W        W93990  33.679  34.146   1.352
22462W        W93991   1.988   4.166   1.355
22463W        W93992  42.810   5.637   0.215
22464W        W93993  39.838  33.470  13.476
22465W        W93994   5.827   0.558   3.423
22466W        W93995  36.023   0.292  11.561
22467W        W93996   5.113  15.713  11.118
22468W        W93997  26.568  31.541   0.085
22469W        W93998  37.649  38.193   2.868
22470W        W93999  43.055  32.473  14.450
22471W        W94000   4.192  38.243   4.607
22472W        W94001  21.781  11.322  11.505
22473W        W94002  27.278  40.097   4.496
22474W        W94003  26.540  23.211  13.822
22475W        W94004  41.203  27.176   3.640
22476W        W94005  37.076  16.707  11.620
22477W        W94006  25.145  20.986  11.393
22478W        W94007  28.132   7.512   1.986
22479W        W94008   7.686  31.736   0.043
22480W        W94009  36.627  38.061  13.738
22481W        W94010  33.773  20.088  11.161
22482W        W94011  16.378   9.216  14.006
22483W        W94012  23.070  13.359   0.539
22484W        W94013  26.521   9.739  11.908
22485W        W94014  25.648  14.812  14.320
22486W        W94015  12.403  12.317  13.839
22487W        W94016  30.909   6.891  14.827
22488W        W94017  27.941  19.203  11.664
22489W        W94018  26.787  39.257   0.891
22490W        W94019  29.523  35.175  11.596
22491W        W94020  42.965  34.606  10.751
22492W        W94021   8.950  10.594   3.085
22493W        W94022  26.513  34.330  13.771
22494W        W94023   0.413   9.130  14.546
22495W        W94024  44.241  41.742   2.382
22496W        W94025  20.648  38.872   4.202
22497W        W94026  43.546  37.016  12.446
22498W        W94027  39.760  40.051  13.910
22499W        W94028  32.964  34.058  13.507
22500W        W94029  27.070  29.497   3.668
22501W        W94030   5.258  20.112   1.967
22502W        W94031  26.920  16.528  12.855
22503W        W94032  19.155  37.332   1.271
22504W        W94033  26.244   2.235   1.917
22505W        W94034   1.752   7.401  12.514
22506W        W94035  38.427  42.516  12.913
22507W        W94036  22.224   9.008   3.161
22508W        W94037  39.594   0.050  13.934
22509W        W94038  39.503   5.437  13.915
22510W        W94039  38.520  18.205  13.470
22511W        W94040  25.731  10.329  13.955
22512W        W94041   0.379   2.980  13.298
22513W        W94042  17.298  25.114  14.014
22514W        W94043   4.671  34.982   1.881
22515W        W94044  12.222  16.537   3.350
22516W        W94045  32.055  41.504   2.389
22517W        W94046  43.406  19.857   0.046
22518W        W94047   9.612  41.581  12.252
22519W        W94048  15.323  29.414   3.748
22520W        W94049  28.395  44.575   0.906
22521W        W94050   9.160  19.654  10.280
22522W        W94051  28.249  34.923   0.003
22523W        W94052  21.527   0.313  13.380
22524W        W94053  21.395  33.245  12.391
22525W        W94054  44.966   9.758   2.139
22526W        W94055  28.466  21.543   0.476
22527W        W94056  26.962  36.018   3.431
22528W        W94057  39.782  33.232   3.039
22529W        W94058  29.556   3.969  11.585
22530W        W94059  14.278  33.640   3.169
22531W        W94060  11.835   8.857   3.634
22532W        W94061  22.367   5.653   3.316
22533W        W94062  15.114   3.740  12.889
22534W        W94063  21.417   3.989   2.306
22535W        W94064  40.056  23.592  10.579
22536W        W94065  36.594  37.288   4.560
22537W        W94066  34.998  18.613  14.858
22538W        W94067  25.262  23.982  13.839
22539W        W94068  39.120  31.767  14.839
22540W        W94069  41.497  10.889  12.510
22541W        W94070  10.739  31.717  11.524
22542W        W94071  38.342  31.214   1.270
22543W        W94072  27.448  14.854  14.106
22544W        W94073   0.516   9.199  12.032
22545W        W94074   9.428  23.866  10.465
22546W        W94075   6.926  24.517  14.908
22547W        W94076  10.929  12.062  11.006
22548W        W94077  43.744  30.676   0.408
22549W        W94078  19.469  36.804  11.660
22550W        W94079  35.333  33.888  13.865
22551W        W94080  40.376  38.986   3.073
22552W        W94081  11.121   8.819  14.963
22553W        W94082  23.260  16.741  14.070
22554W        W94083  37.557  39.615   0.229
22555W        W94084   8.520  14.345   3.164
22556W        W94085  30.022   6.319  11.700
22557W        W94086   2.473   9.448  11.071
22558W        W94087  35.031   0.823   3.270
22559W        W94088  36.051   2.544  10.222
22560W        W94089  30.505  33.810   0.239
22561W        W94090  10.967  22.697  10.976
22562W        W94091  31.451  19.303   0.244
22563W        W94092  17.895  27.449   1.749
22564W        W94093  26.618  32.227  11.319
22565W        W94094  40.742   0.829  11.233
22566W        W94095  22.658   1.006  13.872
22567W        W94096   1.519  16.738  13.042
22568W        W94097  31.874  21.070  14.347
22569W        W94098  34.866  10.351  10.592
22570W        W94099   2.870  37.636   5.075
22571W        W94100  21.269  17.617  13.592
22572W        W94101  39.929  29.568  14.490
22573W        W94102  36.183   5.391  13.577
22574W        W94103  18.350  36.773   2.340
22575W        W94104   0.817  17.800   4.628
22576W        W94105  23.797  29.677   3.700
22577W        W94106  34.007   5.410   1.768
22578W        W94107  13.775  18.967   1.333
22579W        W94108  19.398  35.887   0.298
22580W        W94109  41.896  44.668   1.870
22581W        W94110   9.377   8.308   0.746
22582W        W94111  30.442  32.031   1.005
22583W        W94112  14.666  22.954  12.508
22584W        W94113  29.647  23.198  12.566
22585W        W94114  22.670  29.552  14.786
22586W        W94115  26.580  11.226   2.215
22587W        W94116   5.157  18.231  14.851
22588W        W94117  23.777  35.038  10.876
22589W        W94118  27.000  20.506  13.977
22590W        W94119  32.669  29.131   3.572
22591W        W94120  12.878  18.924   3.374
22592W        W94121  21.265  24.670  11.636
22593W        W94122  16.145  12.185   5.076
22594W        W94123   1.377  32.617   0.392
22595W        W94124  12.280  42.989  12.070
22596W        W94125  18.175  39.103   2.408
22597W        W94126  33.937  13.682   3.620
22598W        W94127   9.176   8.323   2.242
22599W        W94128  24.705  13.691   1.367
22600W        W94129   2.296  31.929   4.337
22601W        W94130  14.894  18.355  12.130
22602W        W94131   3.042  43.156  11.490
22603W        W94132  14.058  17.553  10.638
22604W        W94133  37.956  32.874   2.886
22605W        W94134  38.610   4.707   4.615
22606W        W94135   3.413  43.690   4.284
22607W        W94136  11.471  26.441   2.650
22608W        W94137  35.385  12.827  10.981
22609W        W94138  17.190  35.828   3.823
22610W        W94139   5.700  39.885   0.034
22611W        W94140  10.196  44.551   4.241
22612W        W94141  14.683   4.449   0.324
22613W        W94142   6.268  12.249  14.740
22614W        W94143   9.523  26.157   3.712
22615W        W94144   0.904  44.813  11.553
22616W        W94145  33.991  12.977  11.955
22617W        W94146  26.208  30.407  13.132
22618W        W94147  13.053  25.496  11.144
22619W        W94148   9.140  23.065   1.279
22620W        W94149  14.230  25.692   2.764
22621W        W94150  43.661   8.761   4.246
22622W        W94151  44.918   5.349   0.315
22623W        W94152  44.373  34.581   9.906
22624W        W94153  14.231  42.954  12.911
22625W        W94154  32.235   9.095   4.595
22626W        W94155   1.268   7.157  13.936
22627W        W94156  27.620  37.795   2.664
22628W        W94157  35.354  36.026  11.774
22629W        W94158  32.640  30.998   0.329
22630W        W94159  10.369   9.107  14.413
22631W        W94160  23.222  34.030   1.392
22632W        W94161  14.703  42.320   0.820
22633W        W94162  13.304   1.928   4.253
22634W        W94163  43.452  27.590  12.963
22635W        W94164  38.597  10.864  14.469
22636W        W94165  44.503  35.460  11.264
22637W        W94166  26.607   2.796  11.217
22638W        W94167  11.416  21.899  13.571
22639W        W94168  20.316  30.874  12.383
22640W        W94169   6.433  28.453  14.373
22641W        W94170  19.619  24.540  12.414
22642W        W94171  33.140  39.063  11.943
22643W        W94172  26.987  40.119   0.877
22644W        W94173   0.569  35.966  12.544
22645W        W94174   8.375  34.005  13.698
22646W        W94175  38.628  35.390   1.799
22647W        W94176   6.703  40.009   4.522
22648W        W94177  43.061   2.852   0.258
22649W        W94178  18.404  30.704   2.930
22650W        W94179  34.540  19.511   0.453
22651W        W94180  34.984  26.274   3.673
22652W        W94181  15.335  35.096   1.614
22653W        W94182  36.147   9.690   1.350
22654W        W94183  18.538  17.178   3.647
22655W        W94184  10.261  24.481  10.411
22656W        W94185  35.761  26.354   2.684
22657W        W94186  33.683  41.778   1.941
22658W        W94187  35.026  34.570   0.954
22659W        W94188  30.315  30.773  12.834
22660W        W94189  13.424   9.338  11.574
22661W        W94190  34.776  27.485   2.461
22662W        W94191  16.772  43.065  13.379
22663W        W94192   6.824  35.524  11.044
22664W        W94193  17.055   0.800  10.664
22665W        W94194  16.084  13.035   0.926
22666W        W94195  23.062  12.396  11.883
22667W        W94196  32.328   3.713  13.335
22668W        W94197   2.399  24.565  12.431
22669W        W94198  16.854  38.483   1.411
22670W        W94199  30.973  12.195   3.283
22671W        W94200   3.666  29.163   3.506
22672W        W94201  15.778  26.651  10.762
22673W        W94202   9.643  25.214   0.362
22674W        W94203  35.889   0.474   4.544
22675W        W94204  44.007  24.092  13.273
22676W        W94205  14.377  24.675  12.334
22677W        W94206  13.909  44.396  13.266
22678W        W94207  40.423  34.635   0.794
22679W        W94208  14.332  37.929  14.870
22680W        W94209  13.547  29.479  10.761
22681W        W94210   4.601  26.483  11.541
22682W        W94211  14.554   8.548  12.616
22683W        W94212  24.518   6.809  13.488
22684W        W94213  14.102   0.349  12.129
22685W        W94214   7.303   8.158   0.244
22686W        W94215  18.384   8.601   5.163
22687W        W94216   2.328  30.136  11.969
22688W        W94217  18.000  33.693   2.836
22689W        W94218  35.537  29.200   4.938
22690W        W94219  16.848  38.644   2.884
22691W        W94220  37.821  30.314  12.935
22692W        W94221  11.347   7.879   4.177
22693W        W94222  24.270  44.062   3.238
22694W        W94223  42.711  19.321   3.137
22695W        W94224  34.265  27.872  11.669
22696W        W94225   6.841  32.410   2.346
22697W        W94226  12.937  24.299  13.991
22698W        W94227  10.786  44.336   1.785
22699W        W94228  43.394   4.860  10.081
22700W        W94229  33.505  28.485  14.435
22701W        W94230  21.233   9.719  11.991
22702W        W94231  28.657  26.982   0.862
22703W        W94232  18.737  30.407   2.652
22704W        W94233  21.199  16.309  11.145
22705W        W94234   7.569  39.533   3.153
22706W        W94235  17.042  16.549  13.271
22707W        W94236  16.792  40.648   4.279
22708W        W94237  31.522  18.502   0.852
22709W        W94238  11.581   8.615  12.545
22710W        W94239  11.885   5.663  11.562
22711W        W94240  13.560  29.811   5.011
22712W        W94241  17.270   0.941   2.338
22713W        W94242   4.299   4.376  12.722
22714W        W94243  13.564   0.195   3.429
22715W        W94244  42.763  12.582  10.768
22716W        W94245   5.433  35.499  14.296
22717W        W94246   5.129  27.942   0.492
22718W        W94247  12.440  39.410  12.561
22719W        W94248  33.535  37.487  10.231
22720W        W94249  26.621  24.033  14.218
22721W        W94250   7.369  28.170   0.386
22722W        W94251  38.011   7.806   1.430
22723W        W94252  32.861  12.967  10.074
22724W        W94253  17.826   6.191   3.365
22725W        W94254  19.858   5.254  12.372
22726W        W94255   2.435  32.067  10.733
22727W        W94256  34.397  21.165   3.596
22728W        W94257  29.273  18.581  13.906
22729W        W94258  12.333  36.861  10.885
22730W        W94259  14.210  23.284   3.281
22731W        W94260  12.767   3.410   4.976
22732W        W94261  21.433   0.162  12.886
22733W        W94262  42.772  35.558  13.508
22734W        W94263  24.123  38.512   3.466
22735W        W94264  33.369  33.998   1.784
22736W        W94265  42.261  17.132   1.373
22737W        W94266  34.503  31.496   1.306
22738W        W94267  22.508  37.006   0.045
22739W        W94268  23.686  31.928   2.719
22740W        W94269  35.260   4.209  13.860
22741W        W94270  19.219  16.343   3.838
22742W        W94271   0.478  20.692  12.057
22743W        W94272  34.673  39.566   4.470
22744W        W94273  24.057  34.667  14.217
22745W        W94274   5.374  12.348   3.218
22746W        W94275  42.849  37.135  11.558
22747W        W94276  26.374  25.198  13.879
22748W        W94277  43.294   2.118  14.836
22749W        W94278   6.680  37.522   0.371
22750W        W94279   5.131   8.361   3.719
22751W        W94280  38.639  34.650  14.944
22752W        W94281  14.526  19.653   3.671
22753W        W94282  35.730  28.679  12.576
22754W        W94283   1.803  14.966  14.669
22755W        W94284  16.379  22.987  11.114
22756W        W94285   2.344  22.064   4.617
22757W        W94286   4.212  19.343   4.265
22758W        W94287   4.816  44.167   0.054
22759W        W94288  30.172  17.205  12.837
22760W        W94289  32.141  17.256   0.893
22761W        W94290  16.600  43.961  10.729
22762W        W94291  38.190  21.119  14.579
22763W        W94292   0.417  31.386   2.400
22764W        W94293  18.805  36.376   0.374
22765W        W94294   5.867  18.023  13.814
22766W        W94295  44.734   9.177  13.402
22767W        W94296  21.109  34.633  11.193
22768W        W94297  39.317   9.075  12.877
22769W        W94298  12.186  26.758  14.728
22770W        W94299  11.951  24.499  12.909
22771W        W94300  20.900   0.723  11.254
22772W        W94301  10.935   1.057   9.980
22773W        W94302  33.653  42.415  11.460
22774W        W94303  36.929  38.312  14.497
22775W        W94304   7.403  22.964   3.497
22776W        W94305   4.917  30.562   0.734
22777W        W94306  35.144  20.502  12.256
22778W        W94307   5.004   9.750   4.120
22779W        W94308  21.607  11.846   0.213
22780W        W94309   8.157  42.528  14.527
22781W        W94310  11.140  17.635   0.765
22782W        W94311  32.528   9.879  12.978
22783W        W94312  10.925  26.925  11.531
22784W        W94313  22.668  29.675  12.027
22785W        W94314  35.470   8.326   0.483
22786W        W94315  18.785   2.880  13.441
22787W        W94316   2.652  35.580  10.765
22788W        W94317   8.877  33.981   0.817
22789W        W94318  16.709  12.294   4.424
22790W        W94319  24.698  41.531  13.455
22791W        W94320  30.093   2.243  11.670
22792W        W94321  14.773   3.139   1.663
22793W        W94322   2.773   8.624  11.597
22794W        W94323  20.197  29.590  11.984
22795W        W94324   8.052  12.529   1.280
22796W        W94325  31.272  10.167  11.637
22797W        W94326   5.327  33.504  14.674
22798W        W94327  32.623  41.035   2.248
22799W        W94328  21.207  36.340  12.923
22800W        W94329  25.206  14.019  13.458
22801W        W94330  29.991   6.411  13.143
22802W        W94331  31.638   2.273  14.543
22803W        W94332  23.993  26.675   0.990
22804W        W94333  26.252  42.839   0.929
22805W        W94334  37.838  14.822  12.974
22806W        W94335  39.015  12.767   1.941
22807W        W94336  35.036  25.559   0.851
22808W        W94337  16.726   4.028   0.736
22809W        W94338   2.764  32.371   2.828
22810W        W94339  11.651  30.949  13.073
22811W        W94340  36.577  40.401  13.440
22812W        W94341  20.555  36.969  11.031
22813W        W94342  12.874  13.669   0.736
22814W        W94343  33.445  19.572  10.654
22815W        W94344   8.516  39.677   0.930
22816W        W94345  30.214  25.231   3.781
22817W        W94346  21.298  31.528   1.343
22818W        W94347  44.338  21.551   3.670
22819W        W94348   0.947  30.862   1.445
22820W        W94349   9.058  25.173  14.245
22821W        W94350  34.426  35.011  12.401
22822W        W94351  20.126  16.911  11.824
22823W        W94352  38.165   4.710  10.711
22824W        W94353  31.447  32.323   0.871
22825W        W94354  39.385   4.590   4.555
22826W        W94355  15.173  37.748   3.092
22827W        W94356  35.012  36.460   1.941
22828W        W94357   7.130  15.722   3.274
22829W        W94358  33.193  24.897   4.251
22830W        W94359   8.795  27.403  14.453
22831W        W94360   9.166  19.027  11.586
22832W        W94361   6.794  40.967   1.461
22833W        W94362  16.698  35.684   3.706
22834W        W94363   7.159   6.338  14.820
22835W        W94364  15.638  17.652  12.158
22836W        W94365   7.728  37.481  11.653
22837W        W94366  28.638  35.092  13.811
22838W        W94367  16.124   8.306   3.733
22839W        W94368  27.087   6.224   4.011
22840W        W94369  14.235  14.686  12.644
22841W        W94370  39.636  31.025   0.176
22842W        W94371  26.960  14.586  14.953
22843W        W94372   8.087  11.681   2.899
22844W        W94373   3.690  17.296  12.362
22845W        W94374  39.044  29.877  13.793
22846W        W94375  11.208  31.173  12.241
22847W        W94376  32.499  22.742   2.390
22848W        W94377   3.298   1.246   4.323
22849W        W94378  20.279  14.782  14.414
22850W        W94379  40.941   0.551   2.783
22851W        W94380  32.957   8.165   1.410
22852W        W94381  24.467  40.010   1.216
22853W        W94382  26.731  28.018   3.831
22854W        W94383  42.195  27.743  13.469
22855W        W94384   3.339  32.458   3.964
22856W        W94385  15.910  23.177   0.821
22857W        W94386  24.978  14.338  11.299
22858W        W94387  14.081   5.789  12.876
22859W        W94388   9.412   0.407   3.276
22860W        W94389  37.335  16.972   2.622
22861W        W94390  36.578  10.374  11.678
22862W        W94391   1.520  11.587   3.364
22863W        W94392  41.901   2.170   2.119
22864W        W94393   8.350   7.651  11.113
22865W        W94394   0.768  38.728  10.991
22866W        W94395   0.236  33.860  12.102
22867W        W94396  26.008  37.670   2.099
22868W        W94397  41.759  37.356  13.565
22869W        W94398  33.513  26.032  11.017
22870W        W94399  16.184  27.527  13.678
22871W        W94400   5.716  42.921  12.104
22872W        W94401  21.008  22.634  11.526
22873W        W94402  39.088  19.620   1.745
22874W        W94403  19.735  22.050  13.467
22875W        W94404   6.013  35.626   0.850
22876W        W94405  10.064  33.829   3.142
22877W        W94406  25.584  44.353  10.618
22878W        W94407  32.518  22.125   3.143
22879W        W94408  25.184   0.014   1.777
22880W        W94409  21.011  21.698   4.420
22881W        W94410  28.102  39.478  13.512
22882W        W94411  25.167  34.525   0.851
22883W        W94412  12.124   7.197  13.963
22884W        W94413  14.360   4.111  12.671
22885W        W94414  20.641  17.372  13.434
22886W        W94415  32.471   6.764   2.835
22887W        W94416  22.726  13.742  12.376
22888W        W94417  25.655  24.069  14.950
22889W        W94418   6.361  17.171   0.936
22890W        W94419  43.218  18.790   5.078
22891W        W94420   6.326  43.814   2.484
22892W        W94421  21.698  28.897  11.067
22893W        W94422  20.591  14.837  13.079
22894W        W94423  18.372  24.277  13.129
22895W        W94424  23.113  40.081  12.012
22896W        W94425  39.289   2.387  10.817
22897W        W94426  13.834  21.184  10.885
22898W        W94427  41.898  31.137   4.307
22899W        W94428  15.863   5.324  10.503
22900W        W94429   8.161  11.232   4.770
22901W        W94430  34.854  33.541  13.444
22902W        W94431  36.928  13.309  12.826
22903W        W94432  20.124   0.656  14.495
22904W        W94433  14.086  20.089  14.360
22905W        W94434  19.522  32.378  13.446
22906W        W94435  43.205  41.648   3.884
22907W        W94436  37.129  16.169   3.212
22908W        W94437  30.993   3.813  11.279
22909W        W94438  43.802  17.416  12.489
22910W        W94439  21.099  38.389   1.122
22911W        W94440   8.679  41.946   1.723
22912W        W94441   2.153  38.817  14.298
22913W        W94442  21.090  12.594  12.906
22914W        W94443   3.615  42.067  11.121
22915W        W94444   5.607  44.306   1.969
22916W        W94445  13.314  24.130   5.035
22917W        W94446  34.428   4.173  12.479
22918W        W94447  43.509  34.380   1.211
22919W        W94448   1.386   2.911  13.712
22920W        W94449  44.462  36.053  13.404
22921W        W94450  40.606  15.693   2.347
22922W        W94451  25.256  22.488  11.576
22923W        W94452  13.813  15.057  14.496
22924W        W94453  39.244  12.334  12.456
22925W        W94454  26.041   1.437   2.852
22926W        W94455  41.354   3.539   2.021
22927W        W94456  34.585  16.908   1.694
22928W        W94457  31.041  38.343  11.167
22929W        W94458   7.686  17.743  12.007
22930W        W94459  11.124  28.081   2.798
22931W        W94460  20.811  44.292  14.762
22932W        W94461  27.109  37.964  11.565
22933W        W94462  29.372  17.129  12.121
22934W        W94463  38.395  28.729  12.865
22935W        W94464  23.837  15.435   1.180
22936W        W94465  36.191  36.832  13.267
22937W        W94466  42.402   0.419  13.472
22938W        W94467  42.347  41.061  10.825
22939W        W94468  39.912  14.446  13.766
22940W        W94469  42.510  33.986  13.436
22941W        W94470  19.766   6.315  11.187
22942W        W94471   5.831   2.191   2.864
22943W        W94472   7.724  29.402  12.895
22944W        W94473  13.345  36.815   2.390
22945W        W94474  15.894  35.784  13.748
22946W        W94475  36.629  39.021   1.800
22947W        W94476  24.742   0.953   1.855
22948W        W94477  19.868  38.762   3.585
22949W        W94478  23.301  16.172  11.978
22950W        W94479  33.902  22.904  10.644
22951W        W94480  29.170  17.984  11.071
22952W        W94481  38.752   8.892   2.670
22953W        W94482  27.113  23.467  14.832
22954W        W94483   7.364  25.925  12.314
22955W        W94484  20.046   4.410  11.966
22956W        W94485   0.111  22.027  12.405
22957W        W94486  38.490  32.047  12.958
22958W        W94487  17.114  20.452   0.432
22959W        W94488  29.084  17.630   4.359
22960W        W94489   9.277  11.232   4.559
22961W        W94490  38.418  44.456   2.467
22962W        W94491  38.535   8.781   1.625
22963W        W94492  43.334   0.705   9.951
22964W        W94493  19.152  42.426   2.136
22965W        W94494  15.267  13.042   4.770
22966W        W94495  17.194  10.834  12.564
22967W        W94496   2.572  27.524   4.225
22968W        W94497  30.836  43.322  12.598
22969W        W94498  41.401  30.983   2.667
22970W        W94499  23.329  37.336  12.918
22971W        W94500  26.250  30.637   1.236
22972W        W94501   8.155  38.838  10.937
22973W        W94502  41.750  42.034  12.409
22974W        W94503   9.848   5.218   1.462
22975W        W94504  30.277  10.608  13.053
22976W        W94505  18.187   1.383   4.109
22977W        W94506  35.786  37.025   2.448
22978W        W94507  32.078  41.018  14.850
22979W        W94508  26.249  29.574   2.769
22980W        W94509  17.564   8.344  12.148
22981W        W94510  14.288   4.988  14.507
22982W        W94511  26.573  32.153  11.935
22983W        W94512  12.969  38.746   0.805
22984W        W94513  12.713  11.138   0.706
22985W        W94514  44.799  28.480  13.807
22986W        W94515  10.697  44.236   1.295
22987W        W94516  29.250  22.551   3.953
22988W        W94517  21.241  40.501  10.122
22989W        W94518  21.186  30.661   2.243
22990W        W94519   8.412  34.555  11.849
22991W        W94520  15.783  15.719  13.494
22992W        W94521  44.887  23.344   3.675
22993W        W94522  33.620  33.049   0.827
22994W        W94523  36.456  21.137  14.722
22995W        W94524  29.429   1.336   0.231
22996W        W94525  19.459  42.051   1.821
22997W        W94526  16.656  23.888  11.146
22998W        W94527  19.454  28.529  11.090
22999W        W94528   0.421   6.413   2.633
23000W        W94529  32.359  33.860   0.920
23001W        W94530  44.408  21.196   4.964
23002W        W94531   8.460  23.530  11.303
23003W        W94532  26.357  29.110  14.059
23004W        W94533  17.691  10.549  11.494
23005W        W94534  21.584  34.489  10.722
23006W        W94535  33.620   0.679  12.142
23007W        W94536   2.500  31.932  13.505
23008W        W94537  17.419  36.467  11.240
23009W        W94538  40.330  16.921   2.621
23010W        W94539   9.936   5.806  14.495
23011W        W94540  29.759  41.550  11.509
23012W        W94541  43.813   2.857   2.210
23013W        W94542   4.596  32.022   3.302
23014W        W94543   0.732  36.935   3.337
23015W        W94544  40.305  39.291  14.252
23016W        W94545  20.216  38.826  13.972
23017W        W94546   1.783  41.304  14.297
23018W        W94547  24.774  22.490   4.258
23019W        W94548  38.803  41.868  11.152
23020W        W94549   1.664  39.468   2.228
23021W        W94550   1.090  20.457   0.955
23022W        W94551   1.840   7.866  14.266
23023W        W94552  13.068   2.324  10.088
23024W        W94553  10.806  35.775  14.821
23025W        W94554  39.949   7.127   2.907
23026W        W94555  41.018   8.825  12.014
23027W        W94556  10.161  39.929   0.136
23028W        W94557   6.576  20.316  10.162
23029W        W94558  24.270  19.067   1.328
23030W        W94559   4.952   3.118   0.455
23031W        W94560  13.697  30.589  12.744
23032W        W94561  17.768  26.526  11.026
23033W        W94562  41.766   2.365   4.481
23034W        W94563  19.304  27.735  13.873
23035W        W94564  38.982   7.735  12.491
23036W        W94565   7.936  20.566   3.144
23037W        W94566  40.548  21.424  12.958
23038W        W94567   6.460  33.643  12.604
23039W        W94568  26.455  11.552   1.366
23040W        W94569  28.050  13.715   4.318
23041W        W94570  14.172  21.708   4.547
23042W        W94571  36.481   8.733   2.747
23043W        W94572   0.464   8.531  13.398
23044W        W94573  42.629  33.723   4.373
23045W        W94574  31.891  14.358  11.661
23046W        W94575   4.711  20.662   2.690
23047W        W94576  18.787  34.106  12.473
23048W        W94577  40.733  39.447   2.641
23049W        W94578  23.287  38.658  10.193
23050W        W94579  28.439  16.355   3.603
23051W        W94580  26.226  12.232   0.752
23052W        W94581  30.905  18.200   2.318
23053W        W94582  34.896  36.640  10.998
23054W        W94583  19.459  34.539  13.933
23055W        W94584  28.274  35.381  10.476
23056W        W94585  44.392  15.311   0.563
23057W        W94586  18.538  15.748   1.677
23058W        W94587  17.292   5.172  10.494
23059W        W94588  12.231  15.410  11.615
23060W        W94589   3.403  25.606  12.111
23061W        W94590  20.603   2.389  13.413
23062W        W94591  21.564  35.030  11.996
23063W        W94592  37.311  18.676  13.658
23064W        W94593  18.330  44.039   3.209
23065W        W94594  42.420  11.754  13.331
23066W        W94595  16.294  19.779  14.862
23067W        W94596   8.123  39.023  12.891
23068W        W94597   9.734  15.394  11.659
23069W        W94598  10.391  14.743   4.902
23070W        W94599  40.956  15.150   0.993
23071W        W94600  33.549  42.482  12.848
23072W        W94601  17.970  42.609  11.007
23073W        W94602  21.048  18.164  14.956
23074W        W94603  33.172  38.840   2.273
23075W        W94604  24.979  30.136  13.030
23076W        W94605   3.687  16.802   1.196
23077W        W94606  41.360  35.871   0.282
23078W        W94607  43.150   6.247   3.186
23079W        W94608  21.631  13.806  12.046
23080W        W94609  17.244  17.148   4.695
23081W        W94610  37.394   0.954   4.681
23082W        W94611  18.009  24.137   2.658
23083W        W94612  36.566  32.632   3.465
23084W        W94613   1.324  38.881   4.382
23085W        W94614  44.053   1.786  12.389
23086W        W94615  37.130  26.365  11.998
23087W        W94616   4.635  12.578   1.385
23088W        W94617  11.780  26.445  13.174
23089W        W94618  40.498  11.190  14.500
23090W        W94619   9.676   9.620  11.055
23091W        W94620   4.673  28.589  12.761
23092W        W94621   3.008   0.341   2.183
23093W        W94622   1.486  19.870   0.365
23094W        W94623  29.785   2.029  14.849
23095W        W94624  18.643   2.927  12.889
23096W        W94625  42.278   3.932  12.238
23097W        W94626  39.903  33.158   2.542
23098W        W94627  43.235  25.186  13.045
23099W        W94628   0.469   5.359   0.796
23100W        W94629  39.028  39.788  13.398
23101W        W94630  19.260   5.293   3.623
23102W        W94631  24.747   7.303  14.272
23103W        W94632  44.055   2.001  13.667
23104W        W94633   7.537  35.877  14.973
23105W        W94634  12.474   8.162  11.568
23106W        W94635   6.126   7.634  12.901
23107W        W94636  15.646   6.233   1.119
23108W        W94637  11.332  31.584  12.536
23109W        W94638   6.728  34.393   1.148
23110W        W94639   6.720  32.078  12.188
23111W        W94640  17.073  37.039  13.727
23112W        W94641  25.895  26.950   1.582
23113W        W94642  39.339   6.820   1.055
23114W        W94643  21.208  33.088   0.918
23115W        W94644   4.945   7.189   1.249
23116W        W94645  19.979  17.747  12.892
23117W        W94646  27.542  32.243   1.893
23118W        W94647  25.482  14.773   4.595
23119W        W94648  19.700  38.599   3.130
23120W        W94649  38.669  11.672   0.311
23121W        W94650   0.563  16.698  14.954
23122W        W94651  22.412  12.437   3.976
23123W        W94652  18.060   7.494   0.027
23124W        W94653  29.201  25.669  14.792
23125W        W94654  25.194   1.850  13.484
23126W        W94655  17.774   1.196   3.883
23127W        W94656  12.319  25.206  13.360
23128W        W94657   9.238  15.903   1.935
23129W        W94658  41.003   8.349  12.183
23130W        W94659  15.122  30.317  12.843
23131W        W94660  44.674   5.197   3.260
23132W        W94661   9.339  34.006  10.911
23133W        W94662  35.126  17.285   4.558
23134W        W94663  34.604   4.462   0.250
23135W        W94664  12.388   2.451  10.672
23136W        W94665  33.631  27.966   3.143
23137W        W94666  12.520  23.461   0.224
23138W        W94667  26.968  35.949  10.496
23139W        W94668  10.174  31.145  11.108
23140W        W94669  38.911  32.388   3.759
23141W        W94670  31.760   3.915   3.190
23142W        W94671  23.033  25.980  14.025
23143W        W94672   9.945  33.368  11.950
23144W        W94673   0.903  31.164   2.407
23145W        W94674   5.328   0.144  11.608
23146W        W94675   3.901   6.248   1.193
23147W        W94676  14.074  18.571   2.714
23148W        W94677  39.544  26.916   4.538
23149W        W94678  32.593   9.959   0.421
23150W        W94679  22.056  36.789  14.811
23151W        W94680  35.988  29.713  11.594
23152W        W94681  13.700  26.151   0.304
23153W        W94682  34.842  44.790  11.558
23154W        W94683  32.974   5.086  10.703
23155W        W94684  43.004  32.057   2.448
23156W        W94685   0.243   6.579  11.479
23157W        W94686  14.423  13.859   2.845
23158W        W94687  26.685  18.201   4.105
23159W        W94688   0.874  37.873  12.564
23160W        W94689  10.283   5.956   3.008
23161W        W94690   9.230  29.165  10.664
23162W        W94691  29.831  20.658   0.998
23163W        W94692  24.364  22.299  14.878
23164W        W94693   4.599  32.314  10.631
23165W        W94694   7.795   7.394   0.447
23166W        W94695   7.129   4.853  14.194
23167W        W94696  21.787  19.973  11.677
23168W        W94697  12.544  41.887   0.920
23169W        W94698  36.765  35.743  13.435
23170W        W94699  19.603  16.201  12.960
23171W        W94700  12.293   8.588   3.721
23172W        W94701  37.128  42.885  14.824
23173W        W94702   4.241  19.568   2.485
23174W        W94703  39.003  32.922   4.614
23175W        W94704  23.680   7.086   3.741
23176W        W94705  26.729  15.196  11.680
23177W        W94706   6.007  37.522  12.964
23178W        W94707   5.692  11.177   0.305
23179W        W94708  26.462   5.300  10.531
23180W        W94709  42.228  42.855   0.341
23181W        W94710   4.611  25.159   0.434
23182W        W94711  19.946  22.279  10.769
23183W        W94712  14.091  32.226   3.156
23184W        W94713  26.153  23.740   2.255
23185W        W94714  30.511   2.363   0.390
23186W        W94715  42.457  25.516  11.655
23187W        W94716   4.697  20.808   4.077
23188W        W94717  14.112   7.626  14.870
23189W        W94718  44.233   0.800   1.652
23190W        W94719   7.564  44.217  10.622
23191W        W94720   8.328   8.396   0.773
23192W        W94721  21.609   8.131   1.689
23193W        W94722  26.099  25.664   2.843
23194W        W94723  43.281   1.326  11.628
23195W        W94724  32.049  12.167  11.890
23196W        W94725  10.659  10.483  11.198
23197W        W94726  16.996  22.133  14.398
23198W        W94727   9.830   5.592   0.323
23199W        W94728  20.517  37.831  11.259
23200W        W94729  36.195   8.707  14.404
23201W        W94730  12.208  21.271  14.686
23202W        W94731  29.481   5.838   4.043
23203W        W94732  30.201  13.756   3.362
23204W        W94733   4.234   3.295  11.531
23205W        W94734  14.691  10.820   0.941
23206W        W94735  39.473  40.072  13.462
23207W        W94736  23.425  43.958  14.226
23208W        W94737  27.312  43.714   0.086
23209W        W94738  25.621   7.298  13.932
23210W        W94739   8.247  11.926  14.901
23211W        W94740  43.987   4.819   1.144
23212W        W94741  19.988   6.947  14.104
23213W        W94742  31.510  36.868   1.317
23214W        W94743  17.125  37.545  13.231
23215W        W94744  39.983  23.304   3.209
23216W        W94745  38.762  39.863   1.270
23217W        W94746  40.131  37.811   1.339
23218W        W94747  43.308  21.675  11.837
23219W        W94748   4.708  44.369   5.224
23220W        W94749  18.073  36.498  13.811
23221W        W94750   3.694  12.438   1.436
23222W        W94751  42.567  25.827   1.893
23223W        W94752  29.713  39.489  12.192
23224W        W94753  10.671  14.489   1.645
23225W        W94754   4.389   7.181  13.420
23226W        W94755  17.549   6.056   4.591
23227W        W94756  17.093  14.997  13.353
23228W        W94757  39.507  13.919   0.864
23229W        W94758   3.712  14.278   1.289
23230W        W94759  36.531  29.727  13.286
23231W        W94760  12.013  25.069  14.260
23232W        W94761  44.540  42.744   3.113
23233W        W94762  44.010  31.822  13.920
23234W        W94763  10.334  22.694  13.355
23235W        W94764  10.770  17.295  10.685
23236W        W94765  12.355  10.379  10.636
23237W        W94766  25.661  35.578   1.086
23238W        W94767   8.722  23.187  12.028
23239W        W94768  35.131   7.850  14.384
23240W        W94769  14.026  19.194   3.065
23241W        W94770  41.691  21.043  12.647
23242W        W94771  25.085  16.392   2.973
23243W        W94772  25.809  12.669   4.480
23244W        W94773  15.742   0.509   4.393
23245W        W94774   4.356   8.376   1.464
23246W        W94775  34.074  31.413   2.210
23247W        W94776  21.161  20.608   1.342
23248W        W94777  16.377  15.254  13.873
23249W        W94778  43.532  38.243   3.696
23250W        W94779   1.585   6.938   0.503
23251W        W94780  36.627   3.307  13.098
23252W        W94781   2.923   0.690  10.575
23253W        W94782  36.603  13.898   4.724
23254W        W94783  17.516  41.784   1.355
23255W        W94784  31.415   8.888   4.233
23256W        W94785  20.280  40.828   1.890
23257W        W94786  24.454   1.305  12.151
23258W        W94787  31.756  38.041  14.470
23259W        W94788   0.254  24.554  13.602
23260W        W94789  19.209  19.032   1.613
23261W        W94790   9.801  35.786  13.530
23262W        W94791  32.464   8.424   4.074
23263W        W94792  16.025  25.432  11.119
23264W        W94793  43.117   1.798   2.666
23265W        W94794   0.340  10.092   3.686
23266W        W94795   7.611  30.151   3.676
23267W        W94796   9.922  41.720  14.740
23268W        W94797  29.691  16.873  14.780
23269W        W94798   0.922  10.374  11.704
23270W        W94799  42.709  21.208  11.562
23271W        W94800  17.621  19.592   1.824
23272W        W94801   7.651  18.165   0.193
23273W        W94802  10.155  12.313   4.359
23274W        W94803  27.383  19.170   0.127
23275W        W94804  34.582  44.365  14.934
23276W        W94805   0.901  15.285   0.133
23277W        W94806  33.139  35.290  10.837
23278W        W94807  20.415  32.419  14.441
23279W        W94808  41.823   4.957  13.259
23280W        W94809  22.688  13.946   1.918
23281W        W94810   6.299  34.875  10.728
23282W        W94811   4.353  42.420  14.370
23283W        W94812  30.666   2.438  14.881
23284W        W94813  10.146  33.614  12.351
23285W        W94814  26.138  14.162  13.964
23286W        W94815   5.340  37.378   4.402
23287W        W94816   0.996  30.386  14.900
23288W        W94817  43.036  27.049  11.081
23289W        W94818   5.239  28.971  12.209
23290W        W94819  27.073  30.168  12.592
23291W        W94820  19.437  19.618  12.927
23292W        W94821  36.963  29.981  10.625
23293W        W94822   9.429  34.135  12.384
23294W        W94823   3.347  11.584   1.272
23295W        W94824   0.014   1.101   1.723
23296W        W94825  15.286   1.454  10.687
23297W        W94826  22.680  20.200  11.620
23298W        W94827  14.504  22.307  11.115
23299W        W94828  18.023  38.641  13.866
23300W        W94829  37.081  23.044  11.598
23301W        W94830  22.076  14.616  12.142
23302W        W94831  35.638   8.210   4.420
23303W        W94832  17.500   8.654   3.159
23304W        W94833  11.377  13.370  13.864
23305W        W94834  34.036   0.787  11.016
23306W        W94835  40.287   1.498   1.901
23307W        W94836  39.323  35.841  13.404
23308W        W94837  39.747  23.004   1.860
23309W        W94838   5.196  26.962  14.904
23310W        W94839  11.733  33.973  10.387
23311W        W94840  19.488  16.114   0.846
23312W        W94841  37.345  25.080   3.396
23313W        W94842  24.930  24.324  11.137
23314W        W94843  25.946   1.757  11.884
23315W        W94844  37.366  25.999  12.915
23316W        W94845  25.337   2.824   3.512
23317W        W94846  43.466  24.446  10.726
23318W        W94847  39.332   5.670  11.666
23319W        W94848  41.083   3.353  11.269
23320W        W94849  17.689  43.435   3.898
23321W        W94850   4.450  24.666   3.897
23322W        W94851   4.900  31.364  12.952
23323W        W94852  15.727  30.660  12.140
23324W        W94853  18.501  13.856  12.151
23325W        W94854  11.402  33.389  10.448
23326W        W94855  35.721   3.886  10.984
23327W        W94856  10.285  36.361   3.062
23328W        W94857  32.518  22.600  12.552
23329W        W94858   8.596  26.012  12.965
23330W        W94859  14.414   1.793   0.521
23331W        W94860   4.877  28.626  12.302
23332W        W94861  20.146   1.338  12.302
23333W        W94862  24.079  44.559   3.350
23334W        W94863  33.888  16.750   0.980
23335W        W94864  14.503  33.113  11.631
23336W        W94865  24.665   7.753  12.168
23337W        W94866   6.201   6.629  12.927
23338W        W94867  35.916  42.852   1.794
23339W        W94868   7.758  13.541  14.910
23340W        W94869   5.446  23.771  10.792
23341W        W94870   1.862   9.341  13.566
23342W        W94871  19.558  43.326   1.276
23343W        W94872   7.968  20.031   4.217
23344W        W94873  11.575  38.610  12.884
23345W        W94874  18.551   1.420   1.801
23346W        W94875  34.858  14.385   2.215
23347W        W94876  17.686  25.017  10.736
23348W        W94877  38.282  13.743   3.135
23349W        W94878  19.781  27.675   2.415
23350W        W94879  31.206  17.190   5.049
23351W        W94880  41.820  33.738   4.357
23352W        W94881  19.867  32.099   4.791
23353W        W94882   7.405  29.711   2.152
23354W        W94883  28.785  28.298   0.330
23355W        W94884   6.123   1.887   2.541
23356W        W94885  14.664  37.575   0.675
23357W        W94886  12.096   6.410  13.458
23358W        W94887   7.182   5.323  14.889
23359W        W94888  39.457  36.578  10.540
23360W        W94889  37.013   4.741  12.090
23361W        W94890   7.502  36.032  10.707
23362W        W94891  24.785  32.047  13.439
23363W        W94892  34.560  26.786   0.725
23364W        W94893   3.375  32.772   4.648
23365W        W94894  29.238  35.034  12.485
23366W        W94895  35.448   8.569   5.164
23367W        W94896  12.884  23.120  12.085
23368W        W94897   2.963   4.389   0.200
23369W        W94898  37.799  33.071  12.048
23370W        W94899  40.662   7.780   1.387
23371W        W94900  15.346  27.715  13.973
23372W        W94901  33.955  23.891  10.518
23373W        W94902  19.872   1.379   1.302
23374W        W94903   3.932   4.592  12.405
23375W        W94904  33.073  39.956  11.967
23376W        W94905  28.664   7.060   2.480
23377W        W94906   6.090  20.525   0.246
23378W        W94907   0.309  24.035  13.377
23379W        W94908  10.626  23.985   4.371
23380W        W94909  12.259  36.826   2.441
23381W        W94910  23.713   9.156  10.744
23382W        W94911   5.101  40.712   2.112
23383W        W94912  14.326  37.437   5.028
23384W        W94913   3.674  42.935   0.462
23385W        W94914  36.563  24.747   2.336
23386W        W94915  24.690  43.646   2.934
23387W        W94916  26.903  34.154  14.808
23388W        W94917  44.172  41.260  12.942
23389W        W94918   8.430  38.890   0.267
23390W        W94919  32.826   5.339  11.590
23391W        W94920  12.802  43.409   0.978
23392W        W94921  35.569  10.912   2.086
23393W        W94922  22.034   5.193  13.479
23394W        W94923  38.323  16.633   3.545
23395W        W94924  44.242  33.996  12.034
23396W        W94925   9.188  40.386  10.966
23397W        W94926  10.206  33.686   4.954
23398W        W94927  20.818  14.639   1.672
23399W        W94928   5.438  10.193   0.695
23400W        W94929  44.885   4.823  11.255
23401W        W94930  23.235  40.425   1.234
23402W        W94931   4.650  19.494  10.288
23403W        W94932  41.822  43.129  11.525
23404W        W94933  37.522  29.887  13.078
23405W        W94934  25.974  13.653  13.986
23406W        W94935  30.139  41.936   2.466
23407W        W94936  16.693  24.206  10.734
23408W        W94937   7.410  11.824   0.937
23409W        W94938  31.395  20.565  13.196
23410W        W94939  35.474  43.457   3.086
23411W        W94940  39.038  22.093  14.910
23412W        W94941   7.917  20.237   1.269
23413W        W94942  42.460  26.668  10.608
23414W        W94943  26.013  16.462  13.961
23415W        W94944  18.595  43.216   4.247
23416W        W94945   2.338  12.054  11.401
23417W        W94946   3.566  32.196  10.805
23418W        W94947  12.426  18.656   1.803
23419W        W94948  25.505  17.772   4.613
23420W        W94949  14.556  37.099   1.463
23421W        W94950  27.820  11.134   0.881
23422W        W94951  14.786  20.510   3.476
23423W        W94952  17.654   8.258   2.871
23424W        W94953  15.177  30.456   4.608
23425W        W94954  16.257  23.972   0.450
23426W        W94955   7.560   5.784  11.755
23427W        W94956  42.367  10.751   3.459
23428W        W94957  12.305  19.900   4.626
23429W        W94958  37.628  20.957   4.290
23430W        W94959  25.497  28.548  11.047
23431W        W94960  29.177  41.928   0.263
23432W        W94961   9.138  17.228   1.302
23433W        W94962   5.987  29.532  11.168
23434W        W94963  44.851  16.882  13.793
23435W        W94964   0.945   0.320  11.498
23436W        W94965   0.451   0.323  13.065
23437W        W94966   6.907  34.359   3.262
23438W        W94967  23.122  38.398  10.634
23439W        W94968  17.859  35.286   4.137
23440W        W94969  26.629  13.426  11.501
23441W        W94970  23.225  23.582  12.219
23442W        W94971  12.900  36.463  13.588
23443W        W94972  39.768  24.982   0.237
23444W        W94973  42.377  27.158   2.669
23445W        W94974  32.974  15.826   0.877
23446W        W94975  33.021  15.890   4.015
23447W        W94976   0.886  38.859   2.789
23448W        W94977  29.805  24.167  13.781
23449W        W94978  44.442  13.376   0.800
23450W        W94979  26.532   6.913   2.906
23451W        W94980   7.594   1.940   0.935
23452W        W94981  11.380  39.557  14.828
23453W        W94982  33.816  42.920   4.605
23454W        W94983  37.334  24.084   3.194
23455W        W94984  15.802   1.858   0.412
23456W        W94985  31.042  11.625   1.483
23457W        W94986  39.340  17.181   0.452
23458W        W94987  35.409  17.298   1.358
23459W        W94988   7.844  23.048  12.399
23460W        W94989  21.138  42.178   1.278
23461W        W94990  21.591  39.913   0.010
23462W        W94991  37.026   2.930   0.743
23463W        W94992   6.639  17.603   0.928
23464W        W94993   8.244  13.176  12.337
23465W        W94994  43.038  17.503  11.676
23466W        W94995  28.402  10.112  10.336
23467W        W94996  43.022  14.103  11.546
23468W        W94997  44.673  18.182   2.408
23469W        W94998  43.324  11.387   1.935
23470W        W94999  42.241  17.047  12.509
23471W        W95000  32.370   8.305   2.234
23472W        W95001  38.396   8.440  13.327
23473W        W95002  21.168  15.561  14.527
23474W        W95003   1.755  24.793   2.154
23475W        W95004  28.028  33.040  12.497
23476W        W95005  36.885  23.731   0.381
23477W        W95006  31.228  43.870  10.380
23478W        W95007  15.167  42.004  11.502
23479W        W95008  43.893   9.620  11.632
23480W        W95009  27.844  26.186  14.578
23481W        W95010  17.651   1.294   1.333
23482W        W95011  14.030   8.774  13.308
23483W        W95012   0.733  13.446   5.041
23484W        W95013  30.711   2.787  12.333
23485W        W95014   9.015  37.032  10.540
23486W        W95015  16.925   0.837  12.224
23487W        W95016  23.575  43.085   3.698
23488W        W95017  31.668   2.326  13.040
23489W        W95018  16.381   5.953  10.914
23490W        W95019  28.393   8.338   3.977
23491W        W95020  21.016  37.969  13.547
23492W        W95021  28.493   4.674   2.872
23493W        W95022  19.255  12.611   3.223
23494W        W95023  40.988   1.342   3.093
23495W        W95024  24.744   7.694   0.467
23496W        W95025  18.674   1.228   3.353
23497W        W95026  24.230  34.397  12.476
23498W        W95027   9.322  38.843   2.440
23499W        W95028   0.080   3.661  11.566
23500W        W95029  10.076   9.308  12.974
23501W        W95030  21.673  25.167   2.890
23502W        W95031  44.872  43.527   3.211
23503W        W95032  25.561  38.452   2.353
23504W        W95033   6.133  31.131   3.329
23505W        W95034  11.169  39.363  13.361
23506W        W95035  35.346  28.675  13.895
23507W        W95036  14.742  14.659   3.853
23508W        W95037  13.392  33.032   1.593
23509W        W95038  39.619  43.862  11.030
23510W        W95039  35.404  23.957  11.902
23511W        W95040  14.021  25.742   1.766
23512W        W95041  15.479  29.036   2.234
23513W        W95042  16.582  22.279  11.631
23514W        W95043   2.237  21.588   2.849
23515W        W95044  37.411  24.209  13.499
23516W        W95045  20.406  38.949   3.573
23517W        W95046  14.141  36.783   1.303
23518W        W95047  13.985   0.245  12.635
23519W        W95048  26.122   9.747  11.126
23520W        W95049  11.778  19.197   4.371
23521W        W95050  27.915  25.052   1.854
23522W        W95051  17.171  15.947   0.771
23523W        W95052  16.361   0.921  13.518
23524W        W95053  38.958  18.271   4.769
23525W        W95054  27.468  13.710  12.854
23526W        W95055  15.421  32.521  11.598
23527W        W95056  22.042  30.740  12.123
23528W        W95057  34.081  20.132  13.361
23529W        W95058  28.453  26.919   4.660
23530W        W95059  33.398  43.844   1.843
23531W        W95060  44.699  22.692   1.930
23532W        W95061  10.532  36.333   2.057
23533W        W95062  44.319  18.191  13.653
23534W        W95063   8.400  28.429   4.359
23535W        W95064   7.477  28.052  14.901
23536W        W95065  18.079  31.152  12.498
23537W        W95066  11.564  41.356   1.212
23538W        W95067   7.548  27.708   3.792
23539W        W95068  18.696   3.905   1.476
23540W        W95069  24.468  20.543  12.964
23541W        W95070  41.760  29.681   1.936
23542W        W95071   2.820  22.966   1.387
23543W        W95072  33.603  25.172  10.503
23544W        W95073  10.635   2.720   2.216
23545W        W95074  33.506  35.525   1.722
23546W        W95075  41.269  12.027  13.288
23547W        W95076  15.702   6.410  14.437
23548W        W95077  35.788  10.788  14.381
23549W        W95078  23.541  32.105  12.499
23550W        W95079  29.607  23.139   4.052
23551W        W95080  43.830  31.899   4.664
23552W        W95081  44.840  18.481  14.449
23553W        W95082  33.865  14.690  12.568
23554W        W95083  28.067  40.033  12.704
23555W        W95084  22.228   3.006  12.050
23556W        W95085  12.222  41.211  12.393
23557W        W95086   2.799   9.858  13.843
23558W        W95087  33.182  39.918   0.378
23559W        W95088  26.749  13.687   1.429
23560W        W95089  12.729  33.605  13.127
23561W        W95090   7.253  29.797  13.605
23562W        W95091  21.547  38.967   3.258
23563W        W95092  40.731  44.679  12.434
23564W        W95093  34.098  35.257   3.711
23565W        W95094  40.448   9.652   0.554
23566W        W95095   6.360  15.933  11.957
23567W        W95096  14.247  17.114   1.393
23568W        W95097  35.353  16.552  13.499
23569W        W95098   6.933  43.385   3.084
23570W        W95099  16.183  15.326  11.978
23571W        W95100  38.388   2.842  14.523
23572W        W95101  17.673  18.402  12.477
23573W        W95102  23.990  25.568   3.603
23574W        W95103   5.203  14.321  13.988
23575W        W95104  10.768  33.975   0.197
23576W        W95105  29.447  22.826  11.929
23577W        W95106   6.215   9.342  13.860
23578W        W95107  21.130  22.705   1.815
23579W        W95108  29.494  33.346   4.152
23580W        W95109  34.095  17.280   2.772
23581W        W95110  28.199   9.158  12.319
23582W        W95111  40.786  40.307   0.047
23583W        W95112  43.978  24.934   3.171
23584W        W95113  20.748  38.385  13.367
23585W        W95114  17.025  19.230   3.924
23586W        W95115   3.027  28.293  11.661
23587W        W95116  28.545  24.771   3.948
23588W        W95117  21.191  25.693  10.626
23589W        W95118  37.435   4.209   2.724
23590W        W95119   4.968   0.522   0.882
23591W        W95120  33.784   2.089  11.230
23592W        W95121  38.392  15.604   2.167
23593W        W95122  40.081   9.825  12.036
23594W        W95123  30.624   1.421   2.445
23595W        W95124  15.087   1.701   2.590
23596W        W95125  21.167  22.977   4.210
23597W        W95126  19.056  25.274   0.074
23598W        W95127  25.312  30.535  13.149
23599W        W95128  11.707   8.667   4.087
23600W        W95129  29.366  21.460   2.871
23601W        W95130   8.131  21.122   4.536
23602W        W95131  28.994  13.202  11.607
23603W        W95132  41.674   6.129  10.766
23604W        W95133  12.862  26.633   4.809
23605W        W95134  19.234  16.354  11.469
23606W        W95135   2.576   7.233  14.298
23607W        W95136  11.373  33.515   2.977
23608W        W95137  10.412  16.100   3.138
23609W        W95138  11.151  22.254  10.785
23610W        W95139   0.516  42.866  11.491
23611W        W95140   4.190  21.917  13.987
23612W        W95141  31.259  23.818   0.760
23613W        W95142   2.848  40.885   0.367
23614W        W95143   4.583  37.255  13.445
23615W        W95144  19.387   4.090   3.232
23616W        W95145  18.165  40.478  12.982
23617W        W95146  16.737  23.619  12.069
23618W        W95147   6.364   5.081   2.332
23619W        W95148  21.105  14.843  13.980
23620W        W95149  28.125  39.069   1.218
23621W        W95150  19.027  17.243   9.691
23622W        W95151   4.753  27.761  10.692
23623W        W95152   9.131   7.707   0.460
23624W        W95153  40.979  36.612   2.330
23625W        W95154  32.381  19.129  11.151
23626W        W95155  41.216   4.648   3.359
23627W        W95156   3.143  39.415   2.248
23628W        W95157  11.234  42.472  10.416
23629W        W95158  35.071   8.682   2.373
23630W        W95159   6.299   7.775   4.404
23631W        W95160  14.858  34.816  13.377
23632W        W95161   0.155  15.094   1.708
23633W        W95162  41.006  43.242  13.774
23634W        W95163  31.459   3.682  13.465
23635W        W95164  27.990  12.685  12.913
23636W        W95165  18.606  26.220  13.653
23637W        W95166  10.033  41.948  14.264
23638W        W95167   4.297  14.709  14.267
23639W        W95168  37.230  11.208   1.842
23640W        W95169  26.654  15.679  12.349
23641W        W95170   2.734   2.765   2.652
23642W        W95171   7.523  33.396   5.025
23643W        W95172  14.869  18.585   2.481
23644W        W95173  25.513  18.980  14.947
23645W        W95174   6.799   2.694  12.457
23646W        W95175  39.436  11.375   4.042
23647W        W95176  23.439  11.147  12.920
23648W        W95177  15.113  24.129  13.495
23649W        W95178  33.674  20.117  14.782
23650W        W95179   5.367  41.495   4.175
23651W        W95180  31.057  44.030  13.785
23652W        W95181  41.897  22.151  14.562
23653W        W95182  22.678  10.207   4.586
23654W        W95183  23.098  37.648   1.825
23655W        W95184  44.380  28.394  12.092
23656W        W95185  44.871  22.444   2.372
23657W        W95186   2.681   7.618  14.649
23658W        W95187  17.253   5.958  14.405
23659W        W95188  30.985  18.992   2.022
23660W        W95189  12.211  42.502  12.024
23661W        W95190  38.569  33.591   0.002
23662W        W95191  35.629  37.280  12.589
23663W        W95192  23.294  28.357  10.955
23664W        W95193  34.648  30.439  11.995
23665W        W95194  19.233  40.404  14.395
23666W        W95195   6.706   8.359  12.943
23667W        W95196  23.198  37.049   0.652
23668W        W95197  16.764  14.230   0.727
23669W        W95198  15.458   8.090   2.722
23670W        W95199  13.634  43.112  14.383
23671W        W95200  31.113  44.456   1.751
23672W        W95201   0.872  14.309   1.356
23673W        W95202  36.594  35.867  11.065
23674W        W95203  37.959  40.822  12.406
23675W        W95204  32.892  38.415  10.621
23676W        W95205  37.806  31.078   2.124
23677W        W95206  29.066  38.289   0.204
23678W        W95207   9.371   1.778   3.799
23679W        W95208  33.496  21.055  12.304
23680W        W95209  31.475  31.864  12.915
23681W        W95210  19.414  38.145  11.531
23682W        W95211  20.469   3.483   5.089
23683W        W95212  13.877  18.664  10.663
23684W        W95213  37.390  12.165   1.601
23685W        W95214  10.536  13.873  10.356
23686W        W95215  12.649  35.889  14.785
23687W        W95216  37.769   4.347  14.465
23688W        W95217  32.464  33.735  14.963
23689W        W95218  40.350   2.430   1.979
23690W        W95219   7.863  33.989   0.450
23691W        W95220  29.578  33.722   2.355
23692W        W95221  29.367   0.887  12.327
23693W        W95222  19.708  19.556   0.567
23694W        W95223   6.694  22.136  11.155
23695W        W95224  15.949  40.611  12.434
23696W        W95225  40.926  37.373  12.900
23697W        W95226  44.803  10.759   0.688
23698W        W95227  41.947  15.932   2.583
23699W        W95228  11.238  16.841  12.469
23700W        W95229  26.661  31.171   1.906
23701W        W95230  38.493  16.759  13.346
23702W        W95231  35.836  36.322  12.624
23703W        W95232   1.258  36.995   4.052
23704W        W95233  40.561  34.007   3.766
23705W        W95234  10.233  30.865   2.312
23706W        W95235  32.794  18.169   2.448
23707W        W95236  20.169  11.342   0.874
23708W        W95237  38.366  35.063  10.705
23709W        W95238   9.121  24.104   3.630
23710W        W95239  38.985   2.084   1.835
23711W        W95240  34.562  18.769  12.485
23712W        W95241  33.234  35.261  12.948
23713W        W95242  28.599   4.666   3.385
23714W        W95243  43.660  34.363   2.326
23715W        W95244  35.334  16.084  10.514
23716W        W95245   2.196   0.774   0.900
23717W        W95246  38.273  15.149  14.591
23718W        W95247  37.828   1.802  12.586
23719W        W95248  22.070  38.346   0.926
23720W        W95249  15.208  41.520   1.094
23721W        W95250  14.656  15.136   0.247
23722W        W95251  27.989  37.785  14.551
23723W        W95252  29.897  19.679  11.612
23724W        W95253   9.504  22.984   3.316
23725W        W95254  30.925  22.520   4.604
23726W        W95255  18.547  27.537   5.764
23727W        W95256   4.350  32.049   1.817
23728W        W95257   6.504  10.150  12.020
23729W        W95258  36.952  43.729   3.198
23730W        W95259  20.936  44.484  11.845
23731W        W95260  11.245  34.351   2.848
23732W        W95261   0.214  42.373  13.998
23733W        W95262  18.169  19.167   1.783
23734W        W95263   2.760  16.014  13.378
23735W        W95264  16.915  39.863  13.804
23736W        W95265   6.104   2.310  10.840
23737W        W95266   8.925  42.513  11.893
23738W        W95267   3.760  22.002   4.639
23739W        W95268  29.818  22.069  11.380
23740W        W95269   9.199  33.461   4.541
23741W        W95270   3.791  35.768   1.683
23742W        W95271  18.581  13.081   1.933
23743W        W95272  24.348  38.036  12.581
23744W        W95273  26.402  12.299  10.563
23745W        W95274  29.556  13.377  11.903
23746W        W95275  24.105   3.229   0.343
23747W        W95276  39.612  43.600   1.029
23748W        W95277  29.115  37.508  10.377
23749W        W95278   7.162  38.834  11.897
23750W        W95279   6.933  14.308  14.496
23751W        W95280   2.343  28.047   3.563
23752W        W95281  13.190  21.469   0.923
23753W        W95282  17.181  18.323  12.649
23754W        W95283   9.319  34.341  14.464
23755W        W95284  27.163  10.910   2.855
23756W        W95285  17.346  25.096   4.114
23757W        W95286  19.398  27.315   0.367
23758W        W95287  38.535  35.931  12.978
23759W        W95288  43.294  13.517  10.974
23760W        W95289   0.943  31.967   0.791
23761W        W95290  20.006  32.068   2.506
23762W        W95291   8.375  16.122  13.375
23763W        W95292  34.928  13.898   0.980
23764W        W95293  20.042  31.476  14.213
23765W        W95294  33.364  33.519  12.098
23766W        W95295  34.859   1.052  13.967
23767W        W95296  33.011   8.800  13.266
23768W        W95297   3.936  19.779   4.173
23769W        W95298  30.491  14.121   4.267
23770W        W95299  24.094  41.989   1.923
23771W        W95300  41.602  40.798   2.923
23772W        W95301  28.217  32.499  12.329
23773W        W95302  31.918  19.281   0.944
23774W        W95303  15.845   2.823   0.914
23775W        W95304   9.190  22.061  14.401
23776W        W95305  43.596  15.387  11.980
23777W        W95306  31.310  31.967   1.217
23778W        W95307  41.721  44.941  12.723
23779W        W95308   5.895   6.863  12.069
23780W        W95309  21.043   5.805  12.546
23781W        W95310  21.444  37.859   4.108
23782W        W95311  37.298  20.300  14.795
23783W        W95312  10.162  26.027  10.525
23784W        W95313   8.953  31.932   5.122
23785W        W95314  30.162  15.981   2.699
23786W        W95315   8.245  26.942  14.677
23787W        W95316  28.837  21.315   2.659
23788W        W95317  22.312   5.922   2.868
23789W        W95318   7.242  43.120  11.487
23790W        W95319  33.707  35.896   4.139
23791W        W95320  26.272   6.162   3.877
23792W        W95321   1.889  32.288   3.708
23793W        W95322  21.282   1.848   1.987
23794W        W95323  41.736  17.400  14.520
23795W        W95324  34.238   1.276  11.182
23796W        W95325  26.093  27.613  14.258
23797W        W95326  38.474  24.978   0.806
23798W        W95327  33.400   4.430  14.946
23799W        W95328  28.137   0.735  14.826
23800W        W95329  36.996  37.535   1.456
23801W        W95330  43.107  27.928  11.187
23802W        W95331  43.491  25.189  12.578
23803W        W95332  16.795   7.935   0.535
23804W        W95333  28.660  36.076  13.875
23805W        W95334  22.522   0.829   0.967
23806W        W95335  39.332  12.275  14.840
23807W        W95336  34.564  27.577   3.035
23808W        W95337  14.111  34.588  13.798
23809W        W95338  12.856   4.515   1.259
23810W        W95339  35.333  40.405  13.299
23811W        W95340  26.557   8.732   1.232
23812W        W95341  42.742  40.145   0.733
23813W        W95342  29.508   4.825   4.924
23814W        W95343  37.121  20.189  14.313
23815W        W95344  17.127  32.918  14.977
23816W        W95345  11.603   6.213   2.252
23817W        W95346  18.315  12.590   1.618
23818W        W95347   4.734  33.235  12.429
23819W        W95348  22.243   3.998  11.227
23820W        W95349  40.662  36.096   0.848
23821W        W95350  42.374  13.480  13.975
23822W        W95351   7.774  39.050  12.493
23823W        W95352   7.720   3.271   3.613
23824W        W95353   6.247  44.852  13.575
23825W        W95354  41.713  23.783   0.538
23826W        W95355   8.942  26.952  10.112
23827W        W95356   8.562  26.531  12.886
23828W        W95357   8.571  28.556   1.349
23829W        W95358  27.256  11.917   0.470
23830W        W95359  18.823   0.015   0.964
23831W        W95360  41.570  33.078   3.729
23832W        W95361  32.336   4.245  13.562
23833W        W95362  36.660  20.228  10.629
23834W        W95363  32.454  28.979  14.074
23835W        W95364   8.936  10.573   3.627
23836W        W95365  40.635  32.936  11.943
23837W        W95366  17.143   3.522  10.413
23838W        W95367  42.970  28.057  11.658
23839W        W95368  35.219   1.445   1.428
23840W        W95369  20.230  29.633   0.727
23841W        W95370  22.825  27.803   4.823
23842W        W95371   5.782   4.965   2.239
23843W        W95372  28.039  17.237  13.883
23844W        W95373   0.766  25.082   3.183
23845W        W95374   4.205   6.331  12.856
23846W        W95375  44.020  18.813  14.926
23847W        W95376   6.649  19.328  13.021
23848W        W95377  33.061  18.649   2.278
23849W        W95378  27.729  14.266  12.519
23850W        W95379  35.934  42.557   3.233
23851W        W95380  31.410  21.613   4.566
23852W        W95381  24.035  35.908   1.328
23853W        W95382  27.116  21.901   1.409
23854W        W95383  23.646  35.651  13.487
23855W        W95384  27.086  29.185  13.823
23856W        W95385  13.666  12.657  12.440
23857W        W95386  16.821   9.659   0.755
23858W        W95387  44.966   8.686  10.761
23859W        W95388  43.723  35.941   1.140
23860W        W95389  35.466   5.478   2.770
23861W        W95390   2.846  31.291  11.979
23862W        W95391   2.421   9.784   4.623
23863W        W95392  42.490  17.165   1.842
23864W        W95393  17.697  42.929  14.266
23865W        W95394   1.151  25.675  12.378
23866W        W95395  32.899  16.070  11.537
23867W        W95396  30.627   5.793   1.571
23868W        W95397   8.196  44.802  14.459
23869W        W95398   8.711  21.129  10.617
23870W        W95399  23.470  18.712   3.429
23871W        W95400  36.534   1.787  12.147
23872W        W95401   9.246  20.173  14.128
23873W        W95402  44.722   2.247   0.964
23874W        W95403  43.879  19.639  10.640
23875W        W95404   8.706  28.524  13.901
23876W        W95405  44.809  39.799   0.297
23877W        W95406   4.170  36.976   0.087
23878W        W95407  32.528  22.942   1.239
23879W        W95408  37.986  27.468  11.209
23880W        W95409  30.861  25.080   0.784
23881W        W95410   4.701   5.354   1.152
23882W        W95411   9.171  21.932   0.383
23883W        W95412  36.511  40.600   0.204
23884W        W95413   6.552   2.999   4.151
23885W        W95414   2.473  28.852   2.442
23886W        W95415  39.979  30.924  12.414
23887W        W95416   0.933  36.373  11.001
23888W        W95417   6.974  41.066   3.073
23889W        W95418  37.960  37.568  13.037
23890W        W95419  36.268  15.484  10.402
23891W        W95420  19.693  32.590   1.985
23892W        W95421  30.519  30.960  14.609
23893W        W95422   1.961   8.055   2.794
23894W        W95423   8.723  32.310  12.152
23895W        W95424  17.737  39.327   3.044
23896W        W95425  23.265   1.976   2.839
23897W        W95426  10.152  17.456  14.825
23898W        W95427   2.717  43.392  12.550
23899W        W95428  12.590  43.552   3.770
23900W        W95429  43.718  26.508   1.319
23901W        W95430  39.700  10.077   4.094
23902W        W95431  31.558  34.193  12.322
23903W        W95432  18.599  11.332   3.138
23904W        W95433  32.681  37.024   4.691
23905W        W95434   4.973  33.245  14.929
23906W        W95435  44.326  29.128   3.292
23907W        W95436  10.386  20.740   1.819
23908W        W95437  41.357   9.126   2.891
23909W        W95438   5.784  33.993  13.115
23910W        W95439   5.488  16.848  11.985
23911W        W95440  22.065  31.116   3.102
23912W        W95441  31.506  17.768  14.003
23913W        W95442  31.250  23.653   9.824
23914W        W95443  12.355  10.473  12.273
23915W        W95444  24.500  32.587   3.529
23916W        W95445  19.486   9.400  11.115
23917W        W95446  24.039  36.832  12.969
23918W        W95447  36.933   9.626  11.965
23919W        W95448  13.599  10.644  14.075
23920W        W95449  29.109  34.652   4.617
23921W        W95450  13.815  29.961   0.129
23922W        W95451  39.137   5.574  13.576
23923W        W95452   2.668   2.057  12.932
23924W        W95453   3.191  25.556  13.894
23925W        W95454  16.225   1.357  13.740
23926W        W95455   8.275   9.859   4.069
23927W        W95456  23.600  12.108  14.832
23928W        W95457  11.365  36.682  13.905
23929W        W95458  29.154  30.919   0.365
23930W        W95459  21.078  24.244   4.866
23931W        W95460  26.082  26.711  14.336
23932W        W95461  36.677  36.992   3.698
23933W        W95462   0.298  24.642   0.030
23934W        W95463  24.222  27.991   4.175
23935W        W95464  39.927  24.941  11.649
23936W        W95465  31.420   2.914  12.189
23937W        W95466  19.892  19.625  10.303
23938W        W95467  44.865  21.674   1.729
23939W        W95468  18.529  27.219   1.285
23940W        W95469  34.865   0.751  10.888
23941W        W95470  25.221  32.604   3.303
23942W        W95471  14.805   7.445  13.572
23943W        W95472  32.404  35.531   1.767
23944W        W95473  43.695  22.659   2.590
23945W        W95474  28.830   9.697  12.424
23946W        W95475  41.447   5.943  14.815
23947W        W95476   7.135  26.810  14.080
23948W        W95477  22.237   5.705  13.324
23949W        W95478  23.544  33.093  12.598
23950W        W95479  28.297  32.247   2.288
23951W        W95480  23.135   3.017   0.035
23952W        W95481   8.862   8.887   4.597
23953W        W95482  42.629  41.027  12.783
23954W        W95483  11.327  12.020  10.643
23955W        W95484   5.038   0.908   4.350
23956W        W95485  25.584   2.821   4.361
23957W        W95486   9.681  27.687  10.796
23958W        W95487   4.417  43.565  13.559
23959W        W95488  34.042  25.084  12.022
23960W        W95489  40.076   3.258   0.962
23961W        W95490  26.085   8.250   2.817
23962W        W95491   7.175  38.822  11.392
23963W        W95492  36.357   0.278   2.902
23964W        W95493   9.598  22.162   4.589
23965W        W95494   5.302  43.823   3.685
23966W        W95495  25.168  36.938   4.417
23967W        W95496  14.706  16.709  12.724
23968W        W95497  10.166  11.120  12.965
23969W        W95498  27.946  36.303  14.294
23970W        W95499  33.403  15.265  13.637
23971W        W95500  28.615  39.919  14.268
23972W        W95501   9.569  43.245   4.095
23973W        W95502  27.005  22.020  12.568
23974W        W95503  31.662  28.169  10.517
23975W        W95504  23.147  14.544   4.358
23976W        W95505  14.351   2.691  13.534
23977W        W95506  36.773  15.275  13.509
23978W        W95507   5.699  35.103   1.765
23979W        W95508  24.793  16.112  12.061
23980W        W95509   0.262  40.364  11.959
23981W        W95510  37.629  16.486  12.503
23982W        W95511  27.755  20.377  11.123
23983W        W95512  39.066  30.703  12.212
23984W        W95513  32.065  29.396   4.950
23985W        W95514  41.772  25.556   2.155
23986W        W95515   0.974  29.368   1.948
23987W        W95516   2.339  43.766  12.583
23988W        W95517  18.041  10.997  13.431
23989W        W95518  38.113  14.350  11.890
23990W        W95519  44.955  32.636  12.590
23991W        W95520   8.750  32.015   4.231
23992W        W95521   2.447   7.909  13.819
23993W        W95522  10.515   7.891   4.784
23994W        W95523  24.448   6.460   2.314
23995W        W95524   4.110  21.667   1.172
23996W        W95525  41.935  15.277  11.403
23997W        W95526   2.324   8.993  12.400
23998W        W95527  38.992  40.608   1.622
23999W        W95528  25.411   2.325  13.407
24000W        W95529   9.890   8.154  10.797
24001W        W95530   5.030  28.668   4.766
24002W        W95531  28.249  32.775   2.389
24003W        W95532  23.139   3.618   3.195
24004W        W95533  36.665  32.424   2.564
24005W        W95534  37.095  38.311   0.319
24006W        W95535   5.835  20.574   3.344
24007W        W95536   1.883  31.185   1.860
24008W        W95537  38.456  27.054  12.826
24009W        W95538  36.352  19.903   4.187
24010W        W95539   7.859  36.175  13.764
24011W        W95540   6.137  21.572   3.318
24012W        W95541   8.825  27.032   2.291
24013W        W95542  43.949  20.094  11.395
24014W        W95543  31.442  44.067   1.873
24015W        W95544  39.470  39.026   3.786
24016W        W95545  40.357  16.329  13.840
24017W        W95546  34.454  29.428   1.476
24018W        W95547   9.225  26.826   0.877
24019W        W95548  22.088   2.354   2.757
24020W        W95549  34.094  34.964  12.019
24021W        W95550  32.787  20.449  12.584
24022W        W95551   8.155  22.227   3.668
24023W        W95552  44.377  22.546   2.300
24024W        W95553  20.173   1.691   1.044
24025W        W95554  10.706  43.714  11.175
24026W        W95555  23.821   7.177  12.123
24027W        W95556  42.439   4.180   4.328
24028W        W95557  29.812  16.319   1.764
24029W        W95558  39.456  21.162  10.637
24030W        W95559   4.606  10.559   4.220
24031W        W95560  24.555   7.722  13.160
24032W        W95561   0.807  42.911  10.180
24033W        W95562   2.251  28.630  11.103
24034W        W95563  20.839  39.912   0.725
24035W        W95564  40.774   9.287  12.093
24036W        W95565  26.589  31.926  14.723
24037W        W95566  30.778  14.458   1.069
24038W        W95567  39.880  32.068  12.453
24039W        W95568   8.250  42.234   1.773
24040W        W95569  28.626  13.389  13.317
24041W        W95570  21.671   6.198  13.222
24042W        W95571  15.644  10.069   0.275
24043W        W95572   7.954   0.626   3.834
24044W        W95573  13.328  31.854   3.641
24045W        W95574   2.290   9.095  11.475
24046W        W95575  38.586  25.553   4.388
24047W        W95576  24.998  16.599  12.074
24048W        W95577  33.809  27.191   3.283
24049W        W95578  16.255  24.280  14.372
24050W        W95579  24.896  42.415  12.103
24051W        W95580  17.064  34.176   4.587
24052W        W95581  37.161  28.553  12.612
24053W        W95582  13.218  26.604   5.175
24054W        W95583  44.394  22.361  14.001
24055W        W95584  30.473  41.066  14.495
24056W        W95585  35.529  14.323  14.154
24057W        W95586   2.253  21.875  12.783
24058W        W95587   5.081  41.412   3.672
24059W        W95588  34.561  12.807  11.429
24060W        W95589   2.508   9.332   2.408
24061W        W95590  41.845  36.305   3.742
24062W        W95591   7.777  17.061  11.383
24063W        W95592   4.883  39.755  13.453
24064W        W95593   2.533  20.658  11.235
24065W        W95594  12.815  31.032   2.749
24066W        W95595  17.798  16.634   4.615
24067W        W95596  38.819  11.635   4.262
24068W        W95597  44.777  42.839  12.070
24069W        W95598  44.354  12.055   4.060
24070W        W95599  40.078  13.744  12.227
24071W        W95600  15.327  21.988  12.909
24072W        W95601  15.264   0.389  13.006
24073W        W95602  31.435  22.478  13.456
24074W        W95603  26.783  38.243  14.823
24075W        W95604  37.617  10.023   9.729
24076W        W95605  26.401   3.864  13.901
24077W        W95606   3.287  17.881   0.018
24078W        W95607  28.968  14.264  13.769
24079W        W95608  23.703   8.599   3.689
24080W        W95609   8.869   5.883  13.556
24081W        W95610  23.507  44.314   1.781
24082W        W95611  13.613  44.671   3.541
24083W        W95612  42.427  11.237   2.731
24084W        W95613  20.014  26.030   0.945
24085W        W95614  23.304  25.184  13.566
24086W        W95615  12.322  30.326  14.301
24087W        W95616  12.871  36.928  11.042
24088W        W95617  33.053   0.929   3.822
24089W        W95618  18.761   8.700   0.777
24090W        W95619  34.351  24.137   2.753
24091W        W95620  32.491  34.184   4.331
24092W        W95621  34.013  30.116   4.622
24093W        W95622   1.344  29.140  12.094
24094W        W95623  27.697  22.018  12.998
24095W        W95624   5.281  37.445  11.928
24096W        W95625  36.935  38.355   4.030
24097W        W95626  26.059   5.488  13.318
24098W        W95627   5.287  24.237   4.643
24099W        W95628  11.934  30.048  14.976
24100W        W95629  26.479  17.210   3.911
24101W        W95630   0.541  32.463   2.676
24102W        W95631  42.835  25.972   2.850
24103W        W95632  30.508  38.578  11.732
24104W        W95633  30.625  10.407   4.632
24105W        W95634  11.319   8.629  14.276
24106W        W95635  10.230  15.528  12.816
24107W        W95636  28.511   8.298  11.170
24108W        W95637  25.643  12.646  10.241
24109W        W95638   8.762  41.352  10.584
24110W        W95639   1.662  23.021   0.060
24111W        W95640  14.799  31.212   3.916
24112W        W95641   9.046  29.647  10.778
24113W        W95642  36.664  24.553  13.147
24114W        W95643  20.158  33.617  11.052
24115W        W95644  41.223  32.381  12.058
24116W        W95645  41.268  32.503   0.824
24117W        W95646  23.824  17.305  14.488
24118W        W95647  33.626  29.759  14.020
24119W        W95648  41.411  20.770  13.006
24120W        W95649  13.037  12.329   0.874
24121W        W95650  25.635  24.516  13.168
24122W        W95651  22.558  15.679  12.119
24123W        W95652  15.718  24.142   4.157
24124W        W95653  17.826  16.671  12.641
24125W        W95654  19.062  38.357   1.272
24126W        W95655  15.789  31.133  11.924
24127W        W95656  36.652  26.926   1.849
24128W        W95657  44.235  10.881  10.264
24129W        W95658   1.901  23.467  14.956
24130W        W95659  24.455  13.833   1.795
24131W        W95660   9.820  36.627  10.710
24132W        W95661  15.264  27.953  12.363
24133W        W95662  17.095  15.236   0.473
24134W        W95663  38.835  34.076  10.269
24135W        W95664  15.172  36.811   2.805
24136W        W95665   1.258  37.775   0.891
24137W        W95666  24.544  33.033   3.790
24138W        W95667   4.653  26.700   0.792
24139W        W95668  24.108  12.817  12.211
24140W        W95669  18.563  12.785   2.348
24141W        W95670   4.171  14.703   1.271
24142W        W95671  21.753  44.307  14.414
24143W        W95672  43.386  18.244   1.715
24144W        W95673  21.634  21.281  10.540
24145W        W95674  13.491  21.731   4.160
24146W        W95675  19.989  13.862   3.729
24147W        W95676   5.236   6.923  13.162
24148W        W95677   0.876   4.639   3.680
24149W        W95678  21.262  42.777  10.575
24150W        W95679  37.657  30.890   0.334
24151W        W95680  11.686  25.915  11.395
24152W        W95681  33.019  34.359   1.583
24153W        W95682   8.714  33.148   3.288
24154W        W95683  36.444  36.399   2.346
24155W        W95684  25.761   6.704   1.768
24156W        W95685  13.656  17.661   0.931
24157W        W95686  16.271  25.907  12.048
24158W        W95687  34.719  42.236   0.078
24159W        W95688  18.238  43.409  13.006
24160W        W95689  29.110  23.906   1.733
24161W        W95690   2.118   6.111   1.747
24162W        W95691  14.790  35.544   2.369
24163W        W95692  39.084  27.233  10.705
24164W        W95693   4.770  36.285  14.967
24165W        W95694   8.558  17.038   2.057
24166W        W95695  14.264  25.016  11.844
24167W        W95696  12.189   5.206   1.401
24168W        W95697  11.579  33.616  14.877
24169W        W95698  28.210  17.249  14.506
24170W        W95699   6.040  27.859   2.816
24171W        W95700  14.019   6.791  12.320
24172W        W95701   7.156  23.488   0.824
24173W        W95702  30.682  13.804   1.198
24174W        W95703  26.507  34.397   1.272
24175W        W95704  10.670   6.398  11.946
24176W        W95705  11.342  21.930  11.616
24177W        W95706  35.028   5.433  14.326
24178W        W95707  24.270  32.293  12.124
24179W        W95708   5.706  38.452   2.328
24180W        W95709   7.750  20.191  11.064
24181W        W95710  42.780  21.557  10.625
24182W        W95711  35.071  42.298   1.899
24183W        W95712   9.280  11.883  11.719
24184W        W95713  42.600   8.619  14.481
24185W        W95714  37.928  24.408  13.306
24186W        W95715   7.191  24.604  14.264
24187W        W95716  11.298  26.428  13.859
24188W        W95717  23.811   3.513   3.145
24189W        W95718  17.809  44.118   2.304
24190W        W95719   1.515  11.916   1.920
24191W        W95720  31.355  35.370   3.234
24192W        W95721  43.058  18.471  11.178
24193W        W95722  15.874  22.078  13.559
24194W        W95723   3.936  40.512  10.203
24195W        W95724  35.852  12.108   1.191
24196W        W95725   5.053  26.686  11.667
24197W        W95726  34.548  12.424  12.533
24198W        W95727  11.653  19.615  10.723
24199W        W95728  29.749   5.945  14.445
24200W        W95729  21.243  29.698  13.378
24201W        W95730   3.012  39.448   0.404
24202W        W95731  36.858  13.073  14.293
24203W        W95732  29.591  40.643   1.769
24204W        W95733  14.754   8.319  14.389
24205W        W95734   6.161  19.493  13.531
24206W        W95735  22.703  35.253   2.686
24207W        W95736  40.942   4.322   0.854
24208W        W95737   4.392  16.524   3.782
24209W        W95738  44.702  37.381  13.571
24210W        W95739  38.413  12.215   4.533
24211W        W95740  39.304  40.751   0.314
24212W        W95741   9.195  19.074  10.690
24213W        W95742  24.479   2.339   4.338
24214W        W95743  34.326  11.406  10.681
24215W        W95744  26.205  28.222   2.598
24216W        W95745   5.335  34.451  10.548
24217W        W95746   2.005  27.022  13.757
24218W        W95747  28.947  36.380  11.726
24219W        W95748  23.241  23.521  11.206
24220W        W95749  29.980  26.206   1.702
24221W        W95750  14.461   9.625  12.022
24222W        W95751  40.701  36.351  12.876
24223W        W95752  11.540  16.010   5.199
24224W        W95753  42.072  38.562  14.705
24225W        W95754  44.820  26.665   4.168
24226W        W95755  39.851  15.020   2.612
24227W        W95756  43.859  19.966  14.820
24228W        W95757   9.396  20.341   0.040
24229W        W95758  30.952  32.008   3.704
24230W        W95759  16.013   1.437   4.086
24231W        W95760   6.658  30.542   3.673
24232W        W95761  25.488  35.500  11.261
24233W        W95762  31.589  33.034   3.686
24234W        W95763  13.589  44.863   1.573
24235W        W95764  41.065  17.394   1.168
24236W        W95765  10.822  42.606   0.885
24237W        W95766  30.945   2.139   2.619
24238W        W95767  29.140  21.533   4.292
24239W        W95768  25.525  21.796  11.115
24240W        W95769  41.036  20.388  11.052
24241W        W95770  21.330  16.617   0.957
24242W        W95771   4.846  31.397  10.326
24243W        W95772  16.623  26.069   1.111
24244W        W95773  41.818   3.550   2.709
24245W        W95774  38.787  16.322   2.320
24246W        W95775  23.992  30.605   1.331
24247W        W95776  15.105   6.409   3.924
24248W        W95777  39.313  13.561   3.319
24249W        W95778  35.119  42.439   2.778
24250W        W95779  44.877  23.792   1.863
24251W        W95780   5.541  36.304   2.326
24252W        W95781  43.904  27.940  11.578
24253W        W95782  22.078  35.239   4.673
24254W        W95783  18.974  26.792  14.905
24255W        W95784  10.201  31.820   0.026
24256W        W95785  26.041  40.466   4.177
24257W        W95786  36.022  37.491  12.282
24258W        W95787  44.226  44.309   0.297
24259W        W95788  14.281  42.443   3.344
24260W        W95789  14.532  40.332   2.145
24261W        W95790   2.648  22.664  10.743
24262W        W95791  21.265  11.785  12.527
24263W        W95792  14.240  26.389  12.599
24264W        W95793  41.591  18.639  14.077
24265W        W95794   9.558  11.710   3.095
24266W        W95795  27.882   6.902   3.157
24267W        W95796  41.825  32.181   0.709
24268W        W95797  32.483  27.175   0.516
24269W        W95798  22.030   7.480  11.486
24270W        W95799  40.089   0.347   3.127
24271W        W95800  12.721  14.309  12.667
24272W        W95801  19.029   8.423  12.424
24273W        W95802  22.060  36.292  12.007
24274W        W95803  31.197   8.478   4.780
24275W        W95804  24.968  40.441  13.883
24276W        W95805  22.074   7.375   0.814
24277W        W95806  12.361  19.501  13.561
24278W        W95807  31.021  13.683  14.280
24279W        W95808  15.613   6.686   3.289
24280W        W95809  28.278  37.277  12.703
24281W        W95810  31.266  41.084   3.717
24282W        W95811  22.529  27.717  12.891
24283W        W95812  13.264  44.240  10.941
24284W        W95813  40.855  24.441   2.714
24285W        W95814  31.161  27.677   3.695
24286W        W95815  17.780  31.933  11.612
24287W        W95816  40.266   7.828  12.037
24288W        W95817  40.820  15.507   1.916
24289W        W95818  28.828  41.951  10.627
24290W        W95819   4.538  14.462   5.123
24291W        W95820  40.769   1.504  13.387
24292W        W95821   7.680  25.626  10.581
24293W        W95822  37.825  15.940  13.987
24294W        W95823  38.317  16.541  11.072
24295W        W95824  13.215  34.325   2.510
24296W        W95825  40.122  23.938   0.914
24297W        W95826  20.069  31.859   9.777
24298W        W95827  21.487   3.262   4.553
24299W        W95828   2.266  35.701   4.142
24300W        W95829   7.693  30.703   2.883
24301W        W95830  37.872  10.655   4.325
24302W        W95831  37.633  35.960   1.345
24303W        W95832  13.543  37.388  10.775
24304W        W95833  11.162  22.060   4.796
24305W        W95834   2.705  29.711   4.772
24306W        W95835  17.373  34.573   2.588
24307W        W95836  41.248   1.713  13.384
24308W        W95837   0.935  29.910   0.143
24309W        W95838  19.267  16.289   0.387
24310W        W95839  15.475   6.759   4.094
24311W        W95840  32.399  26.350  11.560
24312W        W95841  37.998  26.472   1.677
24313W        W95842  42.924  23.964   1.649
24314W        W95843  30.639  33.969  12.074
24315W        W95844  22.179  28.188  13.489
24316W        W95845  16.248  17.141  13.595
24317W        W95846  34.552  36.635  11.614
24318W        W95847  26.951  13.449   3.332
24319W        W95848  33.045  12.125  14.798
24320W        W95849   4.051  25.163  11.874
24321W        W95850   0.890   9.567   1.732
24322W        W95851   6.818   0.714   4.333
24323W        W95852  20.559  36.034  13.688
24324W        W95853  19.060  36.488  14.538
24325W        W95854   8.853  21.254   2.257
24326W        W95855  21.614  37.994   3.642
24327W        W95856   6.872  40.396   0.276
24328W        W95857   1.455  35.020   1.871
24329W        W95858  40.387  36.518   0.957
24330W        W95859  27.649  31.909   0.881
24331W        W95860  33.631   9.888  10.703
24332W        W95861  18.336  19.534   4.878
24333W        W95862   7.732  22.927   1.270
24334W        W95863  15.745  22.258  10.553
24335W        W95864  16.864  10.694   4.762
24336W        W95865  31.378   8.704  10.607
24337W        W95866  29.800  33.217  13.190
24338W        W95867  28.797  43.998   1.930
24339W        W95868  40.712  16.985   0.344
24340W        W95869  23.040  28.272   0.123
24341W        W95870  40.815  23.172   4.545
24342W        W95871  19.221  24.039   3.170
24343W        W95872  25.622  33.628  12.172
24344W        W95873   1.414   3.722  11.853
24345W        W95874  31.151  31.612  11.949
24346W        W95875  36.071  17.026   5.022
24347W        W95876   7.608  20.423   4.189
24348W        W95877  42.839   9.052   1.363
24349W        W95878  36.076  23.786   4.074
24350W        W95879   4.959  35.956  12.059
24351W        W95880  11.220  14.843  10.692
24352W        W95881  17.125   0.437  12.602
24353W        W95882  15.349  18.160  14.400
24354W        W95883  17.242  23.298   0.911
24355W        W95884  15.983  18.550  13.428
24356W        W95885   1.541  24.256   4.146
24357W        W95886   3.534  42.407   1.161
24358W        W95887  27.043  39.687  11.090
24359W        W95888  23.683  44.536   0.958
24360W        W95889  38.394  31.558   4.052
24361W        W95890   9.126   9.606   1.188
24362W        W95891  15.895  24.554   4.935
24363W        W95892  43.204  37.408   0.316
24364W        W95893  37.343  28.864   0.752
24365W        W95894   1.977  34.760   1.251
24366W        W95895  24.744   1.898  10.493
24367W        W95896  41.896  37.508   2.470
24368W        W95897   6.221  36.211  13.463
24369W        W95898   5.876  18.354   2.836
24370W        W95899   4.202   8.984   3.285
24371W        W95900  14.927  41.243   3.660
24372W        W95901  23.032   4.155   3.231
24373W        W95902  11.633  30.959   1.759
24374W        W95903  15.550  30.961   4.221
24375W        W95904   1.937  36.217   5.923
24376W        W95905   5.893   2.063  13.052
24377W        W95906   7.137  25.174  13.504
24378W        W95907  22.074  33.773  11.129
24379W        W95908  39.887  12.556  14.271
24380W        W95909  24.958  21.906   0.954
24381W        W95910  28.581  40.826   1.719
24382W        W95911  19.136   3.210  12.568
24383W        W95912  14.393  42.942  14.203
24384W        W95913   0.338  32.160   4.723
24385W        W95914  36.040  20.440   3.644
24386W        W95915  22.255  25.875   2.926
24387W        W95916  15.023   2.736   3.488
24388W        W95917  30.183  36.561   3.276
24389W        W95918  24.016  22.160   4.618
24390W        W95919  29.807  26.720   3.210
24391W        W95920  42.413  41.818   3.393
24392W        W95921  12.216  26.060  10.610
24393W        W95922   4.274  33.230  12.173
24394W        W95923  10.672   5.138  12.102
24395W        W95924  19.189  10.682  11.434
24396W        W95925  17.064  25.443  11.193
24397W        W95926  26.453  33.977   0.926
24398W        W95927  26.105   0.766   0.299
24399W        W95928  39.762  16.612   0.368
24400W        W95929  25.332  41.931  13.771
24401W        W95930  37.993   9.484   1.864
24402W        W95931   8.546  19.855  10.638
24403W        W95932  10.195   5.731  14.965
24404W        W95933   3.250   4.090  12.018
24405W        W95934  24.487  26.371  12.074
24406W        W95935  27.980  42.717  10.557
24407W        W95936  10.392  13.236   1.483
24408W        W95937  23.110  19.818  11.235
24409W        W95938  18.046   4.522  11.653
24410W        W95939  13.200  18.216  10.729
24411W        W95940  27.464  36.031  14.379
24412W        W95941  24.143   1.720  12.005
24413W        W95942   7.727  44.997  13.285
24414W        W95943  36.264  38.133  12.778
24415W        W95944   6.611  38.277  12.109
24416W        W95945  32.631   6.626   4.804
24417W        W95946  17.121  31.684  13.458
24418W        W95947   3.925  27.714  10.672
24419W        W95948  34.063  34.037  12.091
24420W        W95949   0.558  25.275  11.091
24421W        W95950   1.706   9.180   3.415
24422W        W95951  38.777  15.084  14.427
24423W        W95952  38.448  20.042  11.423
24424W        W95953  31.319  23.466  12.068
24425W        W95954  33.499   1.066   2.700
24426W        W95955  33.101  29.108   3.867
24427W        W95956  44.550  31.900  11.660
24428W        W95957  28.756  34.925  14.911
24429W        W95958  18.985  14.674  10.698
24430W        W95959  21.115   4.747   4.671
24431W        W95960  39.913   1.321   2.723
24432W        W95961  26.793  34.468  11.343
24433W        W95962   4.266  28.449  14.469
24434W        W95963   0.214  41.525   0.559
24435W        W95964  36.807  32.460   0.479
24436W        W95965  30.654  17.037  12.802
24437W        W95966  13.940  13.736  10.625
24438W        W95967   4.700  12.735  13.296
24439W        W95968   3.755  32.961  14.267
24440W        W95969   2.169  15.644   3.246
24441W        W95970  41.607   2.752  14.450
24442W        W95971  36.935  26.245   4.696
24443W        W95972  41.948  26.444   0.701
24444W        W95973   8.470  10.732   3.527
24445W        W95974  43.247  26.701   1.396
24446W        W95975  37.547  24.056   0.800
24447W        W95976  12.238  34.885   2.893
24448W        W95977  15.756  41.747   1.352
24449W        W95978  13.813  19.754  12.107
24450W        W95979  27.113  12.750  14.098
24451W        W95980  42.817  20.535  10.633
24452W        W95981  41.530  20.007  11.612
24453W        W95982  17.447  34.664   2.019
24454W        W95983   7.046  42.726   2.800
24455W        W95984  19.008  23.707  12.456
24456W        W95985  29.010  12.315   0.181
24457W        W95986  24.562  19.255  14.955
24458W        W95987  39.076  33.694   5.097
24459W        W95988  22.969  16.748   0.558
24460W        W95989   6.481  42.844   4.704
24461W        W95990   4.997   7.172   4.831
24462W        W95991  32.503   9.199   2.676
24463W        W95992  22.484  27.600  11.484
24464W        W95993   7.914  41.029   3.189
24465W        W95994  32.669  35.077  14.832
24466W        W95995  18.213  35.493   0.302
24467W        W95996  19.543  22.741   4.560
24468W        W95997  37.372  43.051   4.723
24469W        W95998  42.585  30.053  14.872
24470W        W95999  35.783  29.757  12.503
24471W        W96000  28.430  11.393   2.623
24472W        W96001  43.581  33.235   2.610
24473W        W96002  37.982  20.866  14.067
24474W        W96003  28.448  24.508  10.342
24475W        W96004   8.666  24.187   4.484
24476W        W96005  40.056  43.918  12.550
24477W        W96006   1.048  18.762  13.582
24478W        W96007   9.560  14.422   2.817
24479W        W96008  33.735  43.776  13.582
24480W        W96009  23.597  42.824  13.423
24481W        W96010   9.942  20.664  12.375
24482W        W96011   9.272  33.354  10.287
24483W        W96012  11.371  33.042   4.081
24484W        W96013   2.190  38.825  10.539
24485W        W96014  18.122   1.253  12.278
24486W        W96015  22.764  21.627  13.750
24487W        W96016   5.818   0.297  11.604
24488W        W96017   4.640  23.766   0.068
24489W        W96018  27.734   3.770   3.493
24490W        W96019  37.020   4.108   3.263
24491W        W96020  36.373  23.931   0.411
24492W        W96021  22.074  43.947  12.966
24493W        W96022   8.697   2.467  11.607
24494W        W96023  20.819  25.545  11.351
24495W        W96024  20.636   3.667  13.061
24496W        W96025  25.031  31.869  12.455
24497W        W96026   6.606  12.085   0.443
24498W        W96027  33.041  32.673   4.203
24499W        W96028  16.695  44.027  11.616
24500W        W96029  16.621  21.322  11.961
24501W        W96030  24.863  20.649   1.304
24502W        W96031  34.773  38.667  11.030
24503W        W96032  35.980  27.792   3.779
24504W        W96033  18.680  42.411   2.819
24505W        W96034  10.860  21.632   0.295
24506W        W96035  33.567  27.982   1.452
24507W        W96036   9.620  26.659  11.929
24508W        W96037   7.205  35.036  10.707
24509W        W96038   9.233  13.667   3.434
24510W        W96039  24.854  41.714   1.383
24511W        W96040  38.566  14.532   4.333
24512W        W96041   7.235   7.853  14.764
24513W        W96042  14.671  39.416   4.652
24514W        W96043  44.538  11.670   1.867
24515W        W96044  27.943  21.130  12.540
24516W        W96045  29.716   0.375  11.577
24517W        W96046  14.663   7.914  13.418
24518W        W96047  13.111  36.636   2.838
24519W        W96048  27.913  44.879   1.582
24520W        W96049  16.573   4.733   3.230
24521W        W96050  16.092   5.696   0.058
24522W        W96051   0.748   3.214   0.498
24523W        W96052   9.412  14.058  13.342
24524W        W96053  19.368  32.082   4.591
24525W        W96054  41.425  42.845  11.363
24526W        W96055   0.884  23.575   1.793
24527W        W96056  18.631  42.074  10.704
24528W        W96057  31.448  31.492   2.820
24529W        W96058  30.699  43.381   4.506
24530W        W96059   1.501  12.100  14.957
24531W        W96060   1.802  18.645   1.289
24532W        W96061  44.407  26.621  12.425
24533W        W96062  15.860  15.460  13.005
24534W        W96063  21.428  42.031  11.054
24535W        W96064  32.372  19.459  12.479
24536W        W96065  25.967  24.210  12.531
24537W        W96066   0.222  17.262   2.115
24538W        W96067   9.731  44.576  11.267
24539W        W96068  10.212   4.449  10.893
24540W        W96069  38.783  38.852   2.290
24541W        W96070  26.107  12.760  12.375
24542W        W96071  25.756   2.996  12.982
24543W        W96072   2.477   9.340  10.558
24544W        W96073   6.732  20.444  13.921
24545W        W96074  28.770  37.134  12.584
24546W        W96075  41.812  39.414   1.185
24547W        W96076  20.074  34.369   3.739
24548W        W96077   5.504  27.906   1.455
24549W        W96078  16.027   2.740  11.975
24550W        W96079   7.140  42.414  12.372
24551W        W96080  38.922  40.624  13.971
24552W        W96081  38.327  33.056  10.743
24553W        W96082  31.907   6.126   4.341
24554W        W96083  24.510  11.396   1.255
24555W        W96084  29.967  17.622  13.097
24556W        W96085  19.059  17.089   2.427
24557W        W96086   6.949  37.553  11.177
24558W        W96087  30.048   5.022   4.916
24559W        W96088  20.033  33.472   5.025
24560W        W96089  43.740  25.650  13.435
24561W        W96090  42.982  37.640  10.639
24562W        W96091  42.598  13.235  13.453
24563W        W96092  34.541   2.794  14.457
24564W        W96093  19.587  40.503   3.149
24565W        W96094  28.221  19.242   3.807
24566W        W96095  12.863  28.911   4.383
24567W        W96096   9.323  17.565   2.433
24568W        W96097  33.395  42.677   1.974
24569W        W96098  29.338  36.670  13.937
24570W        W96099  38.877   1.211  14.315
24571W        W96100  29.059  27.707   0.960
24572W        W96101  23.597  16.725   4.170
24573W        W96102   9.257  37.867   4.823
24574W        W96103  22.737  16.694  14.601
24575W        W96104  38.330  38.497   1.641
24576W        W96105  24.076  26.774  11.192
24577W        W96106  31.223  44.141   5.072
24578W        W96107   2.494  10.400  12.863
24579W        W96108   8.167   1.910   2.714
24580W        W96109  33.578  23.349  13.448
24581W        W96110   5.013  33.932  13.829
24582W        W96111  42.733  17.450   0.223
24583W        W96112  10.278  29.303  10.296
24584W        W96113  24.166  29.749  11.480
24585W        W96114  25.749   0.307   1.341
24586W        W96115   3.820  18.055   1.699
24587W        W96116  40.841  15.335  14.602
24588W        W96117  37.944   0.252  13.533
24589W        W96118  43.306  37.479  12.397
24590W        W96119  35.321  17.622   0.742
24591W        W96120  21.725   4.170  12.164
24592W        W96121  32.262  20.114  12.110
24593W        W96122  36.475  40.906   0.903
24594W        W96123  18.464  40.399   5.084
24595W        W96124   6.688  11.867   4.479
24596W        W96125   8.473  29.033   0.286
24597W        W96126  41.916  10.695   2.589
24598W        W96127  31.047  43.881   3.832
24599W        W96128   4.354  14.423   2.222
24600W        W96129   5.713   0.302  14.169
24601W        W96130  15.861  37.477   1.232
24602W        W96131   3.032  18.170  10.582
24603W        W96132  41.046  28.466   3.261
24604W        W96133  40.409  21.506  14.820
24605W        W96134  32.132  26.235   3.206
24606W        W96135  25.897  29.014   1.641
24607W        W96136  26.638  19.758   0.468
24608W        W96137  33.127  26.968   1.122
24609W        W96138  19.769   0.701  10.328
24610W        W96139   6.370   2.428   4.799
24611W        W96140  11.256   7.458   4.503
24612W        W96141  24.147  40.434   4.104
24613W        W96142  26.365  10.300   3.350
24614W        W96143  15.694  44.012  10.330
24615W        W96144   6.120  44.266   1.832
24616W        W96145  38.033   7.684  11.580
24617W        W96146  20.512  40.394  12.339
24618W        W96147  19.637  42.296  14.308
24619W        W96148  25.543  22.310   0.334
24620W        W96149  32.473  33.180   3.734
24621W        W96150  32.013  37.440   0.070
24622W        W96151  26.528  35.354  13.885
24623W        W96152   4.571  31.494  12.172
24624W        W96153  11.139  41.771  12.452
24625W        W96154  21.285  11.399  10.269
24626W        W96155   8.766  39.222   4.982
24627W        W96156  38.503  35.479  11.436
24628W        W96157  26.108  19.328  11.106
24629W        W96158  36.907  21.061  11.601
24630W        W96159  23.297   0.900   1.585
24631W        W96160  35.082  39.745  13.486
24632W        W96161   8.480  34.341  12.327
24633W        W96162  29.545  24.359   4.221
24634W        W96163  20.674  24.164   3.333
24635W        W96164  25.795   3.525  12.939
24636W        W96165  39.897  26.581  10.591
24637W        W96166  37.993   1.261  14.482
24638W        W96167   5.246  33.111   0.388
24639W        W96168  28.067  38.969  13.416
24640W        W96169  35.484  13.743  14.001
24641W        W96170   2.632  12.080  12.522
24642W        W96171  18.673  12.210  12.410
24643W        W96172  19.285  23.167  13.371
24644W        W96173  35.847  32.111  12.368
24645W        W96174   9.596  41.801   3.132
24646W        W96175  25.987  23.614   0.417
24647W        W96176  22.036  11.742   3.152
24648W        W96177  28.676  19.475   4.082
24649W        W96178   8.138  28.010  10.649
24650W        W96179  13.702  18.461  12.572
24651W        W96180  28.075  37.978  13.302
24652W        W96181  12.331  35.904  12.005
24653W        W96182  15.229  12.921   0.356
24654W        W96183  21.082  13.629   4.610
24655W        W96184  36.858  43.843   1.257
24656W        W96185  35.459  27.632   1.481
24657W        W96186  26.600   5.201  13.428
24658W        W96187  15.382  17.664   1.648
24659W        W96188   8.154  36.296   4.193
24660W        W96189  28.691  36.407   3.310
24661W        W96190   5.233  41.008   0.514
24662W        W96191  43.370  23.111  14.495
24663W        W96192  28.373  17.577  14.151
24664W        W96193   8.618  34.465  13.359
24665W        W96194  29.219  13.184   2.011
24666W        W96195  25.673   5.387   4.897
24667W        W96196   1.156  14.645  14.232
24668W        W96197  24.286  37.720  13.878
24669W        W96198   1.731  22.026  10.665
24670W        W96199   0.929  17.331  14.538
24671W        W96200  17.046  28.610   4.065
24672W        W96201  37.077  29.863   3.653
24673W        W96202  26.011  21.722   3.813
24674W        W96203  25.823  20.358  11.133
24675W        W96204  28.593  30.404   4.731
24676W        W96205  35.322  14.918   4.110
24677W        W96206  41.837  43.927   5.018
24678W        W96207  44.096  13.101   3.948
24679W        W96208  27.132   9.632  14.930
24680W        W96209  36.082  17.635   1.399
24681W        W96210  28.092   7.264   4.794
24682W        W96211  37.428  43.754   4.083
24683W        W96212  43.312   3.732  12.838
24684W        W96213  28.626  36.433   0.218
24685W        W96214   1.158  14.730   2.553
24686W        W96215  28.567  34.116   2.699
24687W        W96216   4.974  37.412   0.976
24688W        W96217   5.747  33.056  12.591
24689W        W96218  36.343  32.524  13.137
24690W        W96219  21.580  33.209   4.217
24691W        W96220  17.442   1.727  10.907
24692W        W96221  19.020  32.462  13.519
24693W        W96222  36.443  18.293   1.326
24694W        W96223  41.837  40.378   2.717
24695W        W96224  28.415  13.870   2.692
24696W        W96225  27.645  24.571   3.877
24697W        W96226   1.489  29.925   2.793
24698W        W96227  11.801  12.227   3.357
24699W        W96228  35.968  39.878   2.785
24700W        W96229  35.549  29.713   2.533
24701W        W96230  14.784  39.039  11.646
24702W        W96231   3.733  27.746  11.158
24703W        W96232  39.319  31.856   3.141
24704W        W96233  44.823   8.918   4.602
24705W        W96234  44.755  35.755  12.919
24706W        W96235  24.651  17.202  13.324
24707W        W96236  43.343   7.680  13.787
24708W        W96237  15.318   9.700   3.322
24709W        W96238  23.517   4.931   2.328
24710W        W96239  13.812  39.919   3.209
24711W        W96240  42.452   5.894   2.856
24712W        W96241  43.490  35.087  12.348
24713W        W96242  26.581  36.413   0.260
24714W        W96243  28.555  16.183  13.166
24715W        W96244  18.366  37.348  11.535
24716W        W96245   4.460  15.653   4.142
24717W        W96246  40.215  31.156  10.712
24718W        W96247   4.238  35.371   3.330
24719W        W96248  34.500  22.711  12.869
24720W        W96249  36.064  35.577  13.989
24721W        W96250  30.065  43.405  13.699
24722W        W96251  25.441  22.549  14.856
24723W        W96252  28.601  22.834   4.520
24724W        W96253  12.802   3.937   4.109
24725W        W96254  36.854  40.568  14.820
24726W        W96255   4.814  40.441  11.222
24727W        W96256  30.586  40.005   2.968
24728W        W96257  34.840  37.573   3.412
24729W        W96258  30.960  19.284   0.051
24730W        W96259  28.589  30.526  12.639
24731W        W96260  39.987  24.039   3.813
24732W        W96261  42.910   3.334   3.216
24733W        W96262  17.129  24.750   0.736
24734W        W96263  12.757  17.061  11.174
24735W        W96264   4.950  25.456   1.621
24736W        W96265  32.775  29.465  12.403
24737W        W96266  15.560  37.623   0.822
24738W        W96267  29.133  36.363  13.535
24739W        W96268  27.697  10.122  14.474
24740W        W96269  20.526  24.462  12.829
24741W        W96270  40.357   2.209  11.226
24742W        W96271  11.795   4.322   2.402
24743W        W96272  14.161  27.507  13.696
24744W        W96273  14.627   1.004  13.717
24745W        W96274  25.871  14.209   1.855
24746W        W96275  19.789  42.611  13.006
24747W        W96276  44.101  34.376   5.060
24748W        W96277   3.848   5.768   3.526
24749W        W96278  15.792   9.310  10.330
24750W        W96279   1.169  11.291  11.738
24751W        W96280  38.567   1.856  10.537
24752W        W96281  14.261  33.136   4.641
24753W        W96282  36.638  25.432  13.670
24754W        W96283   5.879  35.114  10.630
24755W        W96284  10.145  19.254  12.460
24756W        W96285  42.578  19.730  11.467
24757W        W96286  43.775  25.696  14.402
24758W        W96287  35.073  28.972   1.510
24759W        W96288  30.366   1.375   4.840
24760W        W96289  41.492  25.238  13.531
24761W        W96290  32.024  21.826  12.411
24762W        W96291   1.514  41.519   1.841
24763W        W96292  15.633  44.491  12.514
24764W        W96293  27.031  39.849  11.596
24765W        W96294  40.437  41.745   2.816
24766W        W96295  14.138  21.634  13.449
24767W        W96296  43.440  24.973  10.792
24768W        W96297  39.197  19.868  12.406
24769W        W96298  28.260   9.692   2.754
24770W        W96299  44.380  20.493   4.472
24771W        W96300  32.911  29.588   2.648
24772W        W96301  40.584  27.091   2.313
24773W        W96302  41.542  35.400   4.848
24774W        W96303  35.080  29.542   0.382
24775W        W96304  31.575  28.441   4.158
24776W        W96305  14.130  20.046  10.654
24777W        W96306  43.322  12.270   3.767
24778W        W96307  38.472  12.121  14.144
24779W        W96308  41.318  29.555   2.766
24780W        W96309   2.222   3.968  13.047
24781W        W96310  21.921  22.046   1.851
24782W        W96311  30.295  43.370  11.295
24783W        W96312  25.879  30.454  10.225
24784W        W96313  32.199  31.466  10.377
24785W        W96314  39.811  43.471   4.278
24786W        W96315  44.490  32.310   4.015
24787W        W96316  11.389  12.226  12.395
24788W        W96317  26.369   1.733  13.867
24789W        W96318  32.455  21.600   4.748
24790W        W96319   3.918   6.904  14.448
24791W        W96320  22.051  29.428  14.298
24792W        W96321  40.381  31.962  11.108
24793W        W96322  30.100  11.558   4.066
24794W        W96323  14.562   5.256   1.789
24795W        W96324  31.948   4.329   2.184
24796W        W96325  40.280   0.957   1.924
24797W        W96326   2.620  40.820  13.380
24798W        W96327   1.557  37.533  11.236
24799W        W96328  19.607  10.670  12.536
24800W        W96329   5.438  21.018  13.396
24801W        W96330  10.155  31.716  14.509
24802W        W96331   8.444  18.779  12.677
24803W        W96332  25.830  10.367   3.475
24804W        W96333  18.600  38.926  12.193
24805W        W96334   8.368   4.903  13.004
24806W        W96335   1.838  38.049  10.985
24807W        W96336  24.945   5.429  10.526
24808W        W96337  30.490  32.669   1.783
24809W        W96338   4.878  37.501   2.354
24810W        W96339  39.616   0.559  13.893
24811W        W96340  21.473  12.110  13.670
24812W        W96341   6.974  20.790  11.108
24813W        W96342  22.814  27.179  11.431
24814W        W96343  21.256  37.925  11.144
24815W        W96344  38.853  22.038  13.032
24816W        W96345  42.918   5.886   1.112
24817W        W96346   8.750  26.205   4.176
24818W        W96347  33.101  41.972   1.198
24819W        W96348   8.226  41.304   2.203
24820W        W96349  34.889  10.920   3.285
24821W        W96350  23.232  23.427  10.705
24822W        W96351  26.896   9.230  13.041
24823W        W96352  16.870  23.985   2.333
24824W        W96353   0.924  25.063   1.664
24825W        W96354  21.302   3.841  14.145
24826W        W96355  33.190  35.931   4.149
24827W        W96356  28.671  28.817  13.363
24828W        W96357   8.643   6.257   0.044
24829W        W96358  23.624  34.656   1.879
24830W        W96359  44.760  12.153   1.893
24831W        W96360  41.473  41.250  12.816
24832W        W96361  10.558  24.423   0.514
24833W        W96362  22.693   1.761  14.748
24834W        W96363  25.198  43.832   2.185
24835W        W96364  44.859  44.478  14.189
24836W        W96365  33.940  12.674  12.627
24837W        W96366  12.129   7.946  11.902
24838W        W96367  32.303   7.095  13.865
24839W        W96368  13.778   6.868   0.450
24840W        W96369  18.143  42.282   3.641
24841W        W96370  18.344  28.631  11.019
24842W        W96371  37.830  21.754   2.401
24843W        W96372  17.436  20.312  14.454
24844W        W96373   8.273   5.062   3.825
24845W        W96374  32.147  27.346   3.656
24846W        W96375  39.413  18.483  11.641
24847W        W96376  28.251  37.428   4.870
24848W        W96377  19.136   9.857   3.157
24849W        W96378  26.124  29.630  11.935
24850W        W96379  33.445  17.883   1.457
24851W        W96380  29.810   3.171   1.224
24852W        W96381  38.008  35.931   2.618
24853W        W96382   7.836  12.675   4.602
24854W        W96383  26.340   5.376   9.959
24855W        W96384  13.853  44.075   4.118
24856W        W96385  10.856   4.682  13.480
24857W        W96386  42.048   4.915  10.339
24858W        W96387   6.764  20.685  13.384
24859W        W96388  24.969  11.754  13.460
24860W        W96389  11.626  43.853  11.244
24861W        W96390  40.545  16.791  14.059
24862W        W96391   4.739  22.966   4.495
24863W        W96392   9.338  22.223  12.481
24864W        W96393  18.630  34.887  12.857
24865W        W96394   7.665  39.270  12.942
24866W        W96395  26.041  14.284   0.804
24867W        W96396  26.236  16.912   1.690
24868W        W96397  15.296  12.410   0.327
24869W        W96398  17.655  41.359   2.730
24870W        W96399  31.962  34.058   3.891
24871W        W96400  13.769  37.406   3.757
24872W        W96401  36.015   6.872  11.989
24873W        W96402  29.264  35.023  14.991
24874W        W96403  35.951  38.752  11.076
24875W        W96404  11.454  18.549  10.567
24876W        W96405  41.919  43.694   3.858
24877W        W96406  14.893  29.707   0.727
24878W        W96407  37.505   5.316  10.577
24879W        W96408  42.307  20.104  11.189
24880W        W96409   9.129   6.473   1.753
24881W        W96410  25.741  44.459   0.604
24882W        W96411   4.344  16.796   1.397
24883W        W96412   2.206   2.804  11.834
24884W        W96413  41.435  43.929  13.331
24885W        W96414  27.256  18.968   2.895
24886W        W96415  36.779  38.134  12.785
24887W        W96416  25.290  26.651  14.826
24888W        W96417  16.666  30.201   1.160
24889W        W96418   9.233  26.333  13.525
24890W        W96419  26.686   1.920   3.622
24891W        W96420  43.446  44.971   4.104
24892W        W96421  27.080  26.049   3.676
24893W        W96422  19.199  28.679  13.375
24894W        W96423  14.811  18.721   3.904
24895W        W96424  12.815  38.086  12.667
24896W        W96425   3.801  29.536   4.798
24897W        W96426   9.687  30.018   2.403
24898W        W96427  42.984  17.101   3.228
24899W        W96428  18.963  43.999   4.575
24900W        W96429   7.054  36.864  11.642
24901W        W96430  11.989   0.315  14.037
24902W        W96431  10.743  10.148   1.442
24903W        W96432  14.986  27.909  10.836
24904W        W96433  40.926  33.958  12.617
24905W        W96434  28.306  43.589   1.270
24906W        W96435  32.630  21.939   1.361
24907W        W96436  39.436  27.383   0.323
24908W        W96437  35.989   6.358  10.641
24909W        W96438  28.896  21.694   3.854
24910W        W96439  10.279   3.095  10.103
24911W        W96440  42.714  39.526   4.672
24912W        W96441  32.427   2.861  11.367
24913W        W96442  11.338   9.254  11.619
24914W        W96443  40.080   6.661   2.732
24915W        W96444  24.182  27.582   3.749
24916W        W96445  27.010   5.179   2.594
24917W        W96446  34.645  23.451   3.444
24918W        W96447  32.981  34.272  13.969
24919W        W96448  36.607   2.480   1.493
24920W        W96449  11.569  17.665   4.519
24921W        W96450  20.353  26.000  13.374
24922W        W96451  18.661  18.685  14.008
24923W        W96452  27.463  11.097  10.735
24924W        W96453   5.989  29.920  11.519
24925W        W96454  14.571   5.385   3.649
24926W        W96455  35.291  18.248   5.060
24927W        W96456  31.915  41.794  14.284
24928W        W96457  23.034  10.860  11.250
24929W        W96458   4.127  11.709  10.791
24930W        W96459   8.534  44.077   2.910
24931W        W96460  43.888  14.334   4.170
24932W        W96461  41.842  36.397   1.270
24933W        W96462   7.274   4.015   0.401
24934W        W96463  41.977  33.042  14.938
24935W        W96464   1.755  29.430  13.203
24936W        W96465   4.800   5.945   2.150
24937W        W96466   3.602  20.556  11.085
24938W        W96467  11.484  36.851  11.207
24939W        W96468  14.217   0.787  13.931
24940W        W96469  15.867  43.014   1.863
24941W        W96470  17.119  44.891   3.225
24942W        W96471   3.507   5.962  14.962
24943W        W96472   1.790  26.971   3.650
24944W        W96473  12.128  42.895  13.715
24945W        W96474  33.783  23.112   3.216
24946W        W96475  18.797  36.143   3.293
24947W        W96476  30.679  42.249  10.603
24948W        W96477  11.136  16.229  10.647
24949W        W96478  10.138  32.123  10.135
24950W        W96479  35.595   6.598  12.014
24951W        W96480  41.862  11.922  11.747
24952W        W96481  24.062  23.622  12.249
24953W        W96482  14.118  38.115  12.095
24954W        W96483  28.071  34.159   3.150
24955W        W96484  42.123  25.203   4.201
24956W        W96485   9.917   3.844  13.082
24957W        W96486  36.967  43.754  10.671
24958W        W96487  27.419  14.291  14.902
24959W        W96488  20.502  43.081  10.654
24960W        W96489  16.397  43.387   2.822
24961W        W96490  38.439   7.417  10.594
24962W        W96491   6.512  20.832   0.258
24963W        W96492  19.291   0.463   2.622
24964W        W96493  42.971  28.190  14.812
24965W        W96494  26.476  40.858   1.593
24966W        W96495   4.747  41.527   2.320
24967W        W96496  10.347  36.724   0.707
24968W        W96497   0.153   5.102  13.900
24969W        W96498   4.899  20.649   0.911
24970W        W96499  28.720  36.360  11.250
24971W        W96500  41.837  43.265   3.578
24972W        W96501  38.539  44.342   1.947
24973W        W96502  41.522  25.087  11.977
24974W        W96503  37.418  30.559   4.122
24975W        W96504   5.383   0.657  11.585
24976W        W96505  22.482  35.409   1.313
24977W        W96506  21.672  39.633  11.952
24978W        W96507  33.860  23.612   3.909
24979W        W96508  19.057  21.939  13.032
24980W        W96509   7.846   8.864  10.337
24981W        W96510  26.735  12.169  13.526
24982W        W96511  30.528  40.369  13.948
24983W        W96512   4.104  17.034   0.968
24984W        W96513  26.095  44.841   4.265
24985W        W96514  12.859  18.176  14.584
24986W        W96515  26.275  38.530   1.450
24987W        W96516   6.176  20.730  14.781
24988W        W96517  13.754  44.752   4.907
24989W        W96518  37.338  15.569   2.334
24990W        W96519  21.088  30.498  14.787
24991W        W96520  37.469  37.254   2.519
24992W        W96521  24.852  41.557  14.031
24993W        W96522  38.550  13.460  13.861
24994W        W96523   5.012  12.530   3.679
24995W        W96524  43.720  21.608   2.447
24996W        W96525  29.601  35.321   5.715
24997W        W96526  13.296  40.242   3.826
24998W        W96527  21.040   2.374   2.853
24999W        W96528  35.098  25.150  10.142
25000W        W96529  30.934   5.641   3.608
25001W        W96530   0.179   3.216  14.850
25002W        W96531  33.717  33.453  14.507
25003W        W96532  20.125  25.547  13.360
25004W        W96533  40.669  11.142  10.775
25005W        W96534  14.637  39.824  13.341
25006W        W96535  38.082  36.659   3.804
25007W        W96536  42.579  25.317   1.730
25008W        W96537  14.688   5.402   4.498
25009W        W96538  40.875  23.304  14.460
25010W        W96539  24.313   1.275   3.735
25011W        W96540  44.818  36.643  10.151
25012W        W96541  42.486   7.542   0.336
25013W        W96542  12.827  32.538   0.946
25014W        W96543  25.580  42.892   5.104
25015W        W96544  43.169  14.508  11.173
25016W        W96545  39.423  25.599  13.521
25017W        W96546   8.008  35.044  13.525
25018W        W96547   6.254  30.383  11.119
25019W        W96548  43.669  35.857  14.972
25020W        W96549  19.083  27.998  12.872
25021W        W96550  25.257  29.503   0.489
25022W        W96551   6.794  33.132   4.615
25023W        W96552   2.522  42.260  11.627
25024W        W96553  38.559  31.310   3.155
25025W        W96554   7.579  12.706   3.614
25026W        W96555  42.324  26.898  14.527
25027W        W96556  41.418  29.865  14.262
25028W        W96557  21.925  40.613   1.043
25029W        W96558  29.138  43.365  13.790
25030W        W96559   1.248  29.763  14.438
25031W        W96560   4.428  42.326  10.644
25032W        W96561  16.718  42.829   3.577
25033W        W96562   7.240   9.304   4.625
25034W        W96563  12.193  22.539   1.796
25035W        W96564  14.626  25.467   2.487
25036W        W96565  30.076  32.145  14.308
25037W        W96566  43.715   3.660   4.100
25038W        W96567  15.016  40.982  14.890
25039W        W96568  38.064   6.173   2.275
25040W        W96569   9.751  20.049  14.216
25041W        W96570  20.343  16.998  14.609
25042W        W96571  21.288   3.424   1.187
25043W        W96572  19.216  11.707   0.236
25044W        W96573  18.752  39.890  13.785
25045W        W96574   6.295  38.640  10.900
25046W        W96575  19.663  26.271  13.889
25047W        W96576  18.531  32.091   1.829
25048W        W96577  17.050  22.504   0.231
25049W        W96578   8.281   2.300  10.833
25050W        W96579  18.147  22.087   1.247
25051W        W96580   8.369  12.845   3.698
25052W        W96581  22.893  43.924  11.264
25053W        W96582  16.167   7.052   1.724
25054W        W96583  32.079  14.785  13.122
25055W        W96584  30.235  40.131   3.814
25056W        W96585  29.790  31.305   4.727
25057W        W96586   6.403  17.586  12.951
25058W        W96587  21.495  21.079   2.764
25059W        W96588  21.926  21.616   3.884
25060W        W96589   3.726  39.483  12.219
25061W        W96590   3.247  29.127   0.433
25062W        W96591  15.072  10.563   4.908
25063W        W96592  41.495  26.928  14.486
25064W        W96593  33.573   1.457  12.477
25065W        W96594  26.984  19.297  13.464
25066W        W96595  27.655  42.849   0.606
25067W        W96596  40.140   2.797  11.980
25068W        W96597  26.961  12.708  12.840
25069W        W96598  33.646  43.331  11.647
25070W        W96599  35.153  16.145   0.848
25071W        W96600  35.159  25.769   3.694
25072W        W96601  38.577  38.366  13.765
25073W        W96602  17.172  15.523  13.426
25074W        W96603  16.155  23.582   3.119
25075W        W96604  29.676  13.015   0.644
25076W        W96605  44.450   6.763   1.124
25077W        W96606  20.662  34.872   2.628
25078W        W96607  25.523  24.501   1.290
25079W        W96608   1.781   3.486  12.109
25080W        W96609  20.174  25.550   0.360
25081W        W96610   2.884  22.477   2.259
25082W        W96611  10.360   8.340  10.738
25083W        W96612  13.993  43.182   1.056
25084W        W96613  35.528  29.401   3.378
25085W        W96614   5.844  39.566   0.423
25086W        W96615  30.372   9.905  11.197
25087W        W96616  40.502  17.670  14.999
25088W        W96617   3.926  12.080   1.768
25089W        W96618  37.047  17.110   1.825
25090W        W96619  34.609  27.495  12.719
25091W        W96620  32.828  34.846  12.987
25092W        W96621  37.300  44.858   0.520
25093W        W96622  39.089  33.234  12.334
25094W        W96623  33.532  33.448  13.099
25095W        W96624  12.899  38.593   3.666
25096W        W96625   5.662   7.764   1.477
25097W        W96626  22.269  27.129   1.657
25098W        W96627   5.852  29.622   0.847
25099W        W96628  36.814  40.039   3.173
25100W        W96629  43.036  35.172  11.593
25101W        W96630  17.317   9.715   0.914
25102W        W96631  30.837  20.462   4.522
25103W        W96632   8.897  25.053  12.409
25104W        W96633  40.490  43.013   2.654
25105W        W96634   8.212  24.491  13.781
25106W        W96635  12.910  30.587   4.902
25107W        W96636  26.113   4.691   3.353
25108W        W96637  20.228  33.850   3.699
25109W        W96638  25.114  10.233  14.882
25110W        W96639  12.747  43.966   2.620
25111W        W96640  13.244  42.121  12.449
25112W        W96641  24.607  19.777   0.081
25113W        W96642  10.973  20.996   2.238
25114W        W96643  24.448   0.068  11.065
25115W        W96644  17.127   3.742   2.572
25116W        W96645   6.763   1.279   0.804
25117W        W96646   7.882   4.640  14.814
25118W        W96647   0.386  26.445  10.734
25119W        W96648  12.723  26.801  12.509
25120W        W96649  36.331  22.005   4.143
25121W        W96650  31.493   2.524   3.256
25122W        W96651  13.441  21.109  12.210
25123W        W96652  10.680  10.200  12.110
25124W        W96653   1.920  30.278  13.940
25125W        W96654  33.552  35.630   1.212
25126W        W96655  35.857  35.691  10.626
25127W        W96656  43.437  32.637   1.722
25128W        W96657  16.202   2.487   0.035
25129W        W96658  25.029   9.910   3.315
25130W        W96659  35.342  24.482  12.062
25131W        W96660  39.381  29.442   4.015
25132W        W96661  38.236  19.574  12.454
25133W        W96662  17.161   1.673  12.177
25134W        W96663  16.679  44.675  12.406
25135W        W96664   3.676  38.760  11.577
25136W        W96665  22.759  28.198   1.708
25137W        W96666  10.101  31.505  10.717
25138W        W96667  10.924   0.336   2.924
25139W        W96668  37.053  21.547  14.280
25140W        W96669  10.328  36.055   1.612
25141W        W96670  19.334  32.407  14.388
25142W        W96671  42.550  34.399   2.820
25143W        W96672  31.602  31.127   0.310
25144W        W96673  21.419  23.663   0.280
25145W        W96674  10.660  41.661   0.732
25146W        W96675   3.325   2.693  13.831
25147W        W96676  31.889  42.852   4.576
25148W        W96677  42.043  12.133  12.853
25149W        W96678  31.067  24.150  12.332
25150W        W96679  39.102  32.145   1.221
25151W        W96680  37.415  42.337   2.226
25152W        W96681  28.508  38.387   2.919
25153W        W96682  37.494  32.832   1.826
25154W        W96683  12.682   1.571   3.207
25155W        W96684  29.260  12.310   1.296
25156W        W96685   2.455   2.862  14.818
25157W        W96686  30.470  27.860  12.876
25158W        W96687   3.714  30.499   3.245
25159W        W96688  24.269  21.104   2.164
25160W        W96689  36.822  34.613   2.714
25161W        W96690  13.741  36.052  14.359
25162W        W96691  44.312  16.633   4.803
25163W        W96692  41.741  14.837   3.407
25164W        W96693  30.762   7.050   0.512
25165W        W96694  25.184  23.752   1.407
25166W        W96695  30.954  22.623  13.650
25167W        W96696   6.130   1.703   1.860
25168W        W96697  43.287  17.285  14.259
25169W        W96698  23.966  33.605   2.303
25170W        W96699  41.993  40.758  12.075
25171W        W96700  30.012   7.702  13.494
25172W        W96701  33.589  31.138   1.597
25173W        W96702  14.612  19.560  13.084
25174W        W96703  35.157   8.300   2.814
25175W        W96704  29.645  44.963  14.008
25176W        W96705  18.109  34.326  13.523
25177W        W96706  37.714  23.290  12.433
25178W        W96707   7.093  22.451   1.780
25179W        W96708  38.169   3.746  14.263
25180W        W96709   6.803  22.469   4.048
25181W        W96710  20.706  36.280  12.965
25182W        W96711   4.989  22.967   0.717
25183W        W96712  39.396   9.339  12.453
25184W        W96713  31.847   2.980   1.221
25185W        W96714   6.321  30.430  13.410
25186W        W96715  15.627   7.221   0.554
25187W        W96716  27.595  44.874   3.861
25188W        W96717  30.401  17.254   1.192
25189W        W96718  39.243  16.386   4.121
25190W        W96719  16.754   9.125  12.597
25191W        W96720   7.417  34.124   0.708
25192W        W96721  43.643  23.629   0.485
25193W        W96722  23.128   4.385   1.720
25194W        W96723  42.865  23.180  10.646
25195W        W96724   6.608  28.483   1.500
25196W        W96725  18.123  14.180  12.900
25197W        W96726   5.920  13.721  13.821
25198W        W96727  25.960  22.968  14.392
25199W        W96728   4.220  36.943  11.695
25200W        W96729  38.475  23.811   1.860
25201W        W96730  36.325  44.969   1.227
25202W        W96731  15.603  27.165  10.694
25203W        W96732  36.944  10.098  13.788
25204W        W96733  42.431  31.888  14.804
25205W        W96734  41.454  28.342   1.846
25206W        W96735  26.030  29.604  11.406
25207W        W96736  22.653  32.183  12.990
25208W        W96737  25.709  14.711  13.402
25209W        W96738   0.963  43.748  10.661
25210W        W96739  27.507  44.730   1.029
25211W        W96740  18.111  34.066   0.318
25212W        W96741  39.126   7.940   2.898
25213W        W96742  42.732  13.697  11.730
25214W        W96743   0.072  29.611   1.824
25215W        W96744  18.717  41.648  11.476
25216W        W96745  31.573  30.434  14.496
25217W        W96746  42.256  39.793  13.882
25218W        W96747  25.072  30.835  10.734
25219W        W96748   1.791  37.669   0.750
25220W        W96749  17.614  17.061   4.339
25221W        W96750  41.340   5.147  11.011
25222W        W96751  14.716  29.917   2.867
25223W        W96752  33.435  38.645  11.797
25224W        W96753   0.012  16.375  12.026
25225W        W96754  11.903  41.511  14.057
25226W        W96755  10.791  35.558  11.657
25227W        W96756  18.171  39.533   1.931
25228W        W96757  44.510  28.963   3.762
25229W        W96758  40.807  19.228   3.242
25230W        W96759  33.358  35.547   0.740
25231W        W96760   9.277  20.099  12.032
25232W        W96761  43.022  33.962   1.729
25233W        W96762  18.675  35.402   0.567
25234W        W96763  41.316   7.836   2.179
25235W        W96764  39.971  23.186   1.298
25236W        W96765  34.134  40.862   3.661
25237W        W96766   3.511  32.394   2.233
25238W        W96767   3.022  17.566   0.339
25239W        W96768  28.929  20.618   1.527
25240W        W96769  22.108  17.494  13.796
25241W        W96770  21.431  15.347   0.979
25242W        W96771   7.440  33.587   1.308
25243W        W96772   0.669  22.739  12.888
25244W        W96773  15.356   9.086  14.045
25245W        W96774  33.400  18.510   4.157
25246W        W96775  31.709  28.458   0.469
25247W        W96776  14.345  20.746   3.614
25248W        W96777  20.582   7.795   2.866
25249W        W96778  33.965  32.582  11.335
25250W        W96779  12.391  38.526   2.771
25251W        W96780   0.373  31.864  10.753
25252W        W96781  39.508   9.811   0.874
25253W        W96782  24.188  37.673  11.245
25254W        W96783  14.762  20.701  12.163
25255W        W96784   7.112  22.955   1.633
25256W        W96785  23.637   5.243   4.278
25257W        W96786  33.049  13.066   3.740
25258W        W96787  17.807  14.013   0.747
25259W        W96788   1.313  44.473  13.573
25260W        W96789   4.146  19.314   0.764
25261W        W96790  17.037  12.247   1.755
25262W        W96791  38.977  26.532   2.491
25263W        W96792  26.957  13.675   2.848
25264W        W96793  44.797   1.476  12.549
25265W        W96794  36.199  22.098   1.893
25266W        W96795  16.772  13.274  14.733
25267W        W96796  10.917  44.983  11.648
25268W        W96797  29.573   9.594  13.014
25269W        W96798  22.316  39.210   3.399
25270W        W96799  19.610  36.266  12.542
25271W        W96800  43.426  40.810   3.838
25272W        W96801   5.486   3.889  13.750
25273W        W96802   3.963  17.255   4.718
25274W        W96803  36.821  11.539   4.468
25275W        W96804  12.364  25.038   0.807
25276W        W96805   2.575   2.694  13.971
25277W        W96806  42.234  32.091   1.425
25278W        W96807  19.243  37.591   1.729
25279W        W96808  28.435   9.239  10.593
25280W        W96809  25.966  36.247   3.615
25281W        W96810  43.361  40.556   2.466
25282W        W96811   2.167  29.555  12.555
25283W        W96812  31.867  32.969   1.921
25284W        W96813  40.876  17.190  14.867
25285W        W96814  12.195  27.700  12.628
25286W        W96815  41.587   3.482  12.650
25287W        W96816  43.897  39.980  11.939
25288W        W96817  21.695   0.755   2.479
25289W        W96818  44.296   6.667   0.234
25290W        W96819   4.689  15.639  12.439
25291W        W96820  16.622  29.457   0.427
25292W        W96821  33.056  41.460   2.211
25293W        W96822  11.960  11.131  14.869
25294W        W96823  10.620  42.201  12.810
25295W        W96824  42.868  34.668  11.658
25296W        W96825   0.890  14.731   3.791
25297W        W96826  17.666  38.920  11.820
25298W        W96827  20.736   7.763  13.811
25299W        W96828  35.419  41.319  11.664
25300W        W96829  31.327  28.532  14.506
25301W        W96830  19.494   1.845   4.166
25302W        W96831   0.148  22.698  13.074
25303W        W96832  13.649  19.171  10.745
25304W        W96833  38.825   2.883  13.389
25305W        W96834  33.881   7.001   3.822
25306W        W96835  26.177   2.878  13.390
25307W        W96836   6.678   6.818  13.011
25308W        W96837   1.078  12.552  11.984
25309W        W96838   9.374  11.039   1.211
25310W        W96839   0.878  33.345  11.947
25311W        W96840  31.274   2.943   0.869
25312W        W96841  27.086   0.009   3.639
25313W        W96842  38.606  41.480   1.049
25314W        W96843  15.718   4.173   3.139
25315W        W96844  19.757  41.465   3.345
25316W        W96845  27.891  27.997   9.968
25317W        W96846  13.236   1.857   2.815
25318W        W96847  15.979  39.535  13.815
25319W        W96848  12.639   6.503  11.110
25320W        W96849  25.909  40.967   4.062
25321W        W96850  22.482  12.973   3.312
25322W        W96851  25.238  12.653  14.463
25323W        W96852  36.939  11.125   2.292
25324W        W96853  34.497  18.653   2.381
25325W        W96854  28.935  30.759  13.419
25326W        W96855  15.222  13.352  14.313
25327W        W96856  13.834  23.114  13.105
25328W        W96857   0.357  26.160  12.871
25329W        W96858  11.213  18.021   1.734
25330W        W96859  14.752  11.341   0.838
25331W        W96860   4.255  21.118  13.912
25332W        W96861  38.967  38.929  11.688
25333W        W96862  20.626   5.921   4.219
25334W        W96863  28.076  27.893  14.898
25335W        W96864  17.851  30.885   0.651
25336W        W96865  15.750   3.888   3.590
25337W        W96866  36.830   7.382  11.412
25338W        W96867  32.161  13.214  14.085
25339W        W96868   3.074  31.346   4.702
25340W        W96869  21.142  39.388   4.123
25341W        W96870   9.323   5.816   2.106
25342W        W96871  20.019  33.091  11.985
25343W        W96872  41.969  35.226   2.308
25344W        W96873  43.461  14.298  13.253
25345W        W96874  23.617  36.247  12.655
25346W        W96875  39.068   1.158  13.823
25347W        W96876   4.911   9.815  11.181
25348W        W96877   4.798   3.170  13.445
25349W        W96878  28.777  14.057   2.345
25350W        W96879  14.185  10.651   0.944
25351W        W96880  35.014  25.453  14.542
25352W        W96881  15.947  13.377   3.242
25353W        W96882  18.465  34.828  14.784
25354W        W96883  43.348  35.140   4.219
25355W        W96884  23.912  19.764  13.052
25356W        W96885  24.511   0.959  10.722
25357W        W96886  38.093   4.442   1.987
25358W        W96887   1.344  33.144   0.324
25359W        W96888  25.566  31.354   1.243
25360W        W96889  29.445  37.855  13.589
25361W        W96890  26.763  30.143   0.353
25362W        W96891  21.252  14.810  11.218
25363W        W96892  44.942  24.723   2.682
25364W        W96893   9.894   9.206   0.931
25365W        W96894  11.888  14.686  14.931
25366W        W96895  19.269  24.516  13.789
25367W        W96896  23.651  32.068   4.182
25368W        W96897  44.881   1.410   2.101
25369W        W96898  32.948  19.566   1.348
25370W        W96899  13.633  20.183  10.944
25371W        W96900  18.043   1.638   1.914
25372W        W96901  42.029  27.580   3.300
25373W        W96902  23.588  11.169   4.621
25374W        W96903  41.798  43.958  10.379
25375W        W96904  30.949  41.087  13.813
25376W        W96905  29.738  16.285  14.461
25377W        W96906  13.325  11.222  14.515
25378W        W96907  43.335  39.252  12.519
25379W        W96908  16.933   6.004  11.896
25380W        W96909  10.812  13.070   1.166
25381W        W96910  31.860  31.364  10.749
25382W        W96911  39.420  43.963  14.337
25383W        W96912  32.627   4.566  13.298
25384W        W96913  15.252   0.843   2.367
25385W        W96914   2.964   1.480  11.275
25386W        W96915  25.067   2.227  10.781
25387W        W96916   7.226  26.708   0.359
25388W        W96917  20.832  44.080   3.472
25389W        W96918  23.078  14.663  12.433
25390W        W96919  25.975  43.626  12.886
25391W        W96920  34.771  34.604  12.456
25392W        W96921  11.300  16.627  13.785
25393W        W96922  31.515   6.145   0.004
25394W        W96923   6.106  10.750   4.408
25395W        W96924  13.213  42.430   0.907
25396W        W96925  16.054  21.072  11.066
25397W        W96926  41.538  22.611  14.436
25398W        W96927  11.891  39.571  13.968
25399W        W96928  23.804  16.876   2.846
25400W        W96929  32.631  34.580  14.688
25401W        W96930  21.656  23.650   0.743
25402W        W96931  30.761  28.213   3.256
25403W        W96932  16.318   7.323   2.277
25404W        W96933   2.051  44.500  14.370
25405W        W96934  22.227  41.412   3.350
25406W        W96935  41.837  20.489  12.330
25407W        W96936   0.329   3.217  11.593
25408W        W96937  13.834  31.131  13.297
25409W        W96938  31.295  37.266  14.558
25410W        W96939   7.183  43.738  13.582
25411W        W96940  14.958   8.480   0.905
25412W        W96941  27.137  15.652   1.811
25413W        W96942  31.528  30.963  14.460
25414W        W96943  35.002   6.411   5.097
25415W        W96944  29.166  36.486  12.186
25416W        W96945  13.629  16.786  11.147
25417W        W96946  30.546  11.604  10.371
25418W        W96947   3.188  25.653   4.141
25419W        W96948  31.829   7.267   1.178
25420W        W96949  25.691   5.700  10.266
25421W        W96950  34.354  18.530  10.731
25422W        W96951  42.893   5.462  13.036
25423W        W96952  39.459  35.342  11.053
25424W        W96953  40.704   7.653  11.132
25425W        W96954  21.822  12.292  11.571
25426W        W96955  14.684  18.178   3.150
25427W        W96956  23.981  29.463   0.526
25428W        W96957  38.872  10.209  13.494
25429W        W96958  20.272  10.130   1.622
25430W        W96959  35.695  15.307   1.876
25431W        W96960   4.644  37.549   3.242
25432W        W96961  11.312  40.814   4.110
25433W        W96962  17.851  10.839   0.923
25434W        W96963  42.336  18.953   0.740
25435W        W96964  11.302   9.056  13.421
25436W        W96965  39.978  22.062   3.945
25437W        W96966  14.294  32.326  13.260
25438W        W96967  12.671  11.110  13.885
25439W        W96968  37.295   7.219   1.532
25440W        W96969  37.853  35.694   3.672
25441W        W96970   9.763   2.403  13.952
25442W        W96971  12.375  16.551  12.531
25443W        W96972   8.135   3.677  11.962
25444W        W96973  13.727  13.909  12.005
25445W        W96974  14.031  11.693   1.266
25446W        W96975   1.433  28.525  10.552
25447W        W96976  43.862  39.030  13.933
25448W        W96977  13.539  38.053   4.617
25449W        W96978  27.610  32.810  10.253
25450W        W96979   4.803  38.558  13.899
25451W        W96980  18.341  40.419  14.890
25452W        W96981  24.785  29.489  10.672
25453W        W96982  15.288  41.343   0.586
25454W        W96983  32.241   4.182  12.021
25455W        W96984   0.924  24.145  10.741
25456W        W96985  16.276  35.094  11.143
25457W        W96986   3.325   8.264   1.264
25458W        W96987  12.264   2.525  14.359
25459W        W96988  15.270  37.093   1.926
25460W        W96989  17.850  30.839   5.008
25461W        W96990   0.444   8.706   1.454
25462W        W96991  26.471  17.448   1.442
25463W        W96992  20.296  22.373  11.130
25464W        W96993   7.096  26.010   0.741
25465W        W96994  10.733  22.044  14.047
25466W        W96995  31.675  41.061  13.287
25467W        W96996   7.901  22.046   3.244
25468W        W96997  44.886  31.050  12.489
25469W        W96998  29.068  39.063  14.644
25470W        W96999  43.292  10.458  11.658
25471W        W97000  19.297  21.022  10.541
25472W        W97001  25.710  39.300   3.691
25473W        W97002   2.080  33.026   1.809
25474W        W97003  36.074   0.512  12.843
25475W        W97004   3.389  24.149   4.945
25476W        W97005  17.958  14.667  12.201
25477W        W97006  12.308  41.371  12.867
25478W        W97007  33.535   6.217   1.877
25479W        W97008  37.006  25.967  14.527
25480W        W97009  40.410  23.539  10.943
25481W        W97010  41.820   1.569   0.821
25482W        W97011   9.710   4.993  11.568
25483W        W97012  23.660  10.257  10.928
25484W        W97013  25.422  15.684  14.537
25485W        W97014  31.705  37.976  13.917
25486W        W97015  29.830  10.678  12.795
25487W        W97016   0.457  15.516   3.600
25488W        W97017  11.959  43.982  13.392
25489W        W97018   8.873  36.580  14.905
25490W        W97019  33.363  38.575  11.301
25491W        W97020  25.723   4.952  13.121
25492W        W97021  30.597   2.887   2.197
25493W        W97022  18.983  17.295  12.327
25494W        W97023  16.451   5.383   0.308
25495W        W97024  31.871  43.265   2.211
25496W        W97025  13.300   4.942  10.037
25497W        W97026  23.105   7.994  14.377
25498W        W97027   2.672  44.410   0.450
25499W        W97028  25.530  31.528   4.374
25500W        W97029   8.951  19.637   3.696
25501W        W97030   7.956   9.468   4.225
25502W        W97031  44.011  38.939   2.152
25503W        W97032  42.255  35.253  12.061
25504W        W97033  35.035  19.180   1.296
25505W        W97034  37.584  39.794  11.035
25506W        W97035  44.394  29.455   3.732
25507W        W97036  23.231   7.753  11.382
25508W        W97037   4.686  23.683   2.542
25509W        W97038  29.898  33.604  13.505
25510W        W97039  12.757  38.939  13.251
25511W        W97040   5.998  35.316  12.350
25512W        W97041  24.635   4.252   2.739
25513W        W97042  17.440   6.615  13.387
25514W        W97043   6.640  44.729   0.048
25515W        W97044  21.012   3.848  14.582
25516W        W97045  22.622   8.756  14.976
25517W        W97046  32.400   9.786  14.963
25518W        W97047   2.651  36.048   0.286
25519W        W97048  12.810  16.772  10.750
25520W        W97049  10.258  16.061  10.760
25521W        W97050  39.293  39.141  14.425
25522W        W97051  26.512  20.679   3.426
25523W        W97052   0.553  27.068  12.094
25524W        W97053  24.993  30.156   3.611
25525W        W97054  28.673  42.700  13.262
25526W        W97055   0.973   1.420   0.862
25527W        W97056  40.028  41.133   2.208
25528W        W97057  12.244  34.357   1.436
25529W        W97058  17.714   1.820  14.362
25530W        W97059  24.547  35.363   3.235
25531W        W97060   2.746  24.898   4.735
25532W        W97061  42.518   5.162   0.913
25533W        W97062  44.645  29.947  13.023
25534W        W97063   5.753  37.400  12.140
25535W        W97064  27.650   0.382   3.847
25536W        W97065   7.162  37.984   2.868
25537W        W97066  39.283  35.951   3.235
25538W        W97067  15.617  24.145   5.120
25539W        W97068  26.263  11.353  13.617
25540W        W97069  28.672  30.973  10.438
25541W        W97070  23.049   7.492   0.807
25542W        W97071  38.478  39.334   3.169
25543W        W97072  12.736  12.893  12.806
25544W        W97073  16.884  42.324   2.267
25545W        W97074  19.862  36.243  13.299
25546W        W97075  37.057  25.394  13.963
25547W        W97076  36.498  41.741  14.490
25548W        W97077  34.390  21.134  14.141
25549W        W97078  35.456  27.780  12.914
25550W        W97079   7.037  23.801  13.459
25551W        W97080  34.447   8.268  11.312
25552W        W97081  31.669  33.954  13.786
25553W        W97082  42.015   0.957   2.421
25554W        W97083  13.199   2.015  14.468
25555W        W97084  17.538   9.626   0.191
25556W        W97085  32.430  19.769  13.538
25557W        W97086  27.910  41.528  13.561
25558W        W97087  34.067   8.199  14.062
25559W        W97088  13.797   0.510   3.769
25560W        W97089   4.871   9.627  10.703
25561W        W97090   9.909  41.041   1.128
25562W        W97091  39.177  41.057   3.644
25563W        W97092   3.787  30.383  12.892
25564W        W97093  12.637   3.731  13.023
25565W        W97094  38.446   8.000  14.294
25566W        W97095   9.094   1.604   4.193
25567W        W97096  21.638  18.623  14.539
25568W        W97097  10.451  42.952  10.147
25569W        W97098  34.307  31.607   2.647
25570W        W97099  42.469  11.284   2.220
25571W        W97100  32.249  29.253  12.470
25572W        W97101  38.580  39.285  11.688
25573W        W97102  33.092   7.741   3.230
25574W        W97103   4.806   8.169  14.232
25575W        W97104  43.172  27.226   1.376
25576W        W97105  12.495  28.889   1.032
25577W        W97106  29.990  29.586  10.663
25578W        W97107   9.850  22.131  12.513
25579W        W97108  25.232  31.597  11.175
25580W        W97109  39.622   9.327   4.147
25581W        W97110  15.736  19.790   0.947
25582W        W97111  28.118  28.185  13.012
25583W        W97112  13.667  36.851   0.961
25584W        W97113  40.881  41.806  12.422
25585W        W97114  36.528  13.132  11.404
25586W        W97115   2.377  16.795  14.984
25587W        W97116  32.013   6.967   2.784
25588W        W97117  24.956  16.611   4.513
25589W        W97118  15.315   8.261  14.513
25590W        W97119  19.112   9.018  12.801
25591W        W97120  30.501   5.460  14.228
25592W        W97121  27.549  44.975  13.067
25593W        W97122   1.840   9.372  10.684
25594W        W97123  44.740  23.048  13.057
25595W        W97124  24.925  30.626  14.260
25596W        W97125  32.524  28.440  13.324
25597W        W97126  42.765  42.395   0.385
25598W        W97127  15.920  38.621  12.004
25599W        W97128  39.287   8.047   0.277
25600W        W97129  12.081  29.407  10.741
25601W        W97130  43.005  44.734  13.066
25602W        W97131  42.725  30.616   2.321
25603W        W97132  44.796  40.218   4.802
25604W        W97133  44.929  15.540   1.428
25605W        W97134  41.267  44.031  11.830
25606W        W97135  34.974  18.539   2.760
25607W        W97136   8.678  22.514   3.211
25608W        W97137   1.767  23.099  10.448
25609W        W97138   7.300   8.969  13.550
25610W        W97139  41.054   1.917  14.257
25611W        W97140  38.143  37.468  11.027
25612W        W97141  37.593  16.941  10.893
25613W        W97142  11.371  10.729  11.303
25614W        W97143  36.410   8.202   1.426
25615W        W97144  17.357  20.090   1.366
25616W        W97145  16.256  26.570  12.093
25617W        W97146   4.914   8.054   1.224
25618W        W97147  27.512  34.239   1.729
25619W        W97148   8.679  14.196   0.115
25620W        W97149  21.216   2.110   4.823
25621W        W97150  11.556  15.508  11.147
25622W        W97151  43.047  29.041  11.526
25623W        W97152  17.236  31.772  12.167
25624W        W97153  30.551  25.057   3.397
25625W        W97154  37.491  43.501   5.017
25626W        W97155  25.337  18.042   0.808
25627W        W97156   4.109  28.976  14.461
25628W        W97157  34.091  15.236  12.489
25629W        W97158  39.270  39.797   1.450
25630W        W97159   0.550   8.499  11.190
25631W        W97160  14.332  17.689   2.666
25632W        W97161  24.893  11.384   3.200
25633W        W97162  38.351  17.472   1.884
25634W        W97163  29.332   0.518   4.929
25635W        W97164  27.958  30.037  13.639
25636W        W97165  21.473  24.533   0.752
25637W        W97166   4.600   7.958   3.763
25638W        W97167   7.767  27.124  14.836
25639W        W97168  37.072  32.408  12.418
25640W        W97169   4.219  39.905  14.014
25641W        W97170   2.101  43.566   0.400
25642W        W97171  27.830  31.671   5.060
25643W        W97172  41.325  41.265   2.839
25644W        W97173  36.680  27.208   2.277
25645W        W97174   4.602   3.910  10.085
25646W        W97175  39.047  36.291   2.407
25647W        W97176   8.960  23.267   4.709
25648W        W97177  22.024  35.983  11.535
25649W        W97178  44.835  40.652  13.975
25650W        W97179  39.959   6.426  14.821
25651W        W97180  18.135   4.520  12.525
25652W        W97181  40.541  42.639   4.168
25653W        W97182  30.073  44.222  13.303
25654W        W97183   4.250  17.330  10.681
25655W        W97184   9.558  30.359  11.157
25656W        W97185  21.385  31.293   4.628
25657W        W97186  38.409  14.610   2.466
25658W        W97187  22.038   8.212  10.900
25659W        W97188   7.494  33.471   0.297
25660W        W97189  43.779  33.056  10.791
25661W        W97190   2.120  24.469   1.902
25662W        W97191  26.363   8.628  11.704
25663W        W97192  29.751  19.775  12.559
25664W        W97193  24.258  15.050  14.552
25665W        W97194  17.265  14.147  12.152
25666W        W97195  14.748  34.028   2.294
25667W        W97196   8.923  33.453  11.989
25668W        W97197  10.154   3.972   2.234
25669W        W97198  22.689  30.003  13.424
25670W        W97199  38.800  27.600  11.588
25671W        W97200  20.535  35.326  10.992
25672W        W97201  25.520   0.344  12.555
25673W        W97202  27.932   0.551   4.610
25674W        W97203  23.199  23.943  10.888
25675W        W97204   3.441   0.910   0.227
25676W        W97205  10.390  18.241  14.779
25677W        W97206  18.218   2.293  11.300
25678W        W97207  28.488  42.206  13.391
25679W        W97208  41.734  20.532   2.268
25680W        W97209   2.863  37.403  10.788
25681W        W97210   6.676  39.784   0.737
25682W        W97211  22.777  33.613  13.774
25683W        W97212  42.969  39.071   3.755
25684W        W97213  19.790  11.706  13.464
25685W        W97214  31.427  15.563   2.177
25686W        W97215  29.342  39.448  11.612
25687W        W97216  39.501  44.680  14.979
25688W        W97217  34.903  21.581  14.376
25689W        W97218  32.411  26.063  14.871
25690W        W97219   3.649  35.048  13.841
25691W        W97220  28.377  17.919   9.649
25692W        W97221  16.118  20.609   3.098
25693W        W97222  25.551   2.226   2.863
25694W        W97223  12.246  35.668  13.474
25695W        W97224  42.467  22.235  10.731
25696W        W97225  35.547  12.821  12.918
25697W        W97226   9.073  43.901   3.581
25698W        W97227  32.883  43.402  12.079
25699W        W97228  10.226  17.106  12.809
25700W        W97229  25.319   3.284   3.232
25701W        W97230  28.742  39.539   2.745
25702W        W97231   9.236  37.405  14.089
25703W        W97232  28.379  39.094  13.792
25704W        W97233  25.471  41.076  11.993
25705W        W97234  42.506  44.946   0.366
25706W        W97235  23.780   9.011   0.812
25707W        W97236  31.610  38.443  10.902
25708W        W97237  29.697  37.633  13.972
25709W        W97238  10.344  16.735   3.938
25710W        W97239  40.434   8.410   0.661
25711W        W97240  12.040  28.093   0.565
25712W        W97241  35.928  22.461   3.647
25713W        W97242  23.987  41.335  10.690
25714W        W97243   6.786  43.746   3.731
25715W        W97244   9.824  24.572  13.884
25716W        W97245   4.335  35.124   2.866
25717W        W97246   7.754   9.369  12.457
25718W        W97247  19.368   6.822   0.462
25719W        W97248   3.208  16.355  11.149
25720W        W97249  34.648  31.538  12.514
25721W        W97250   3.310  10.987  11.809
25722W        W97251  12.704  25.714   0.480
25723W        W97252   5.725  19.805   1.259
25724W        W97253  36.193  36.863  11.146
25725W        W97254  32.035  28.973  10.278
25726W        W97255  41.044  32.566   1.310
25727W        W97256  15.603  41.551  12.540
25728W        W97257   2.187  20.663   1.845
25729W        W97258  33.899  16.643  11.949
25730W        W97259  10.657   5.793   3.722
25731W        W97260  37.937  19.593   2.459
25732W        W97261  44.519   1.435  14.370
25733W        W97262   3.899  12.121  13.672
25734W        W97263  44.586  11.585   0.349
25735W        W97264   0.127  17.865  13.998
25736W        W97265  23.517  13.411   0.250
25737W        W97266  20.422   5.491   3.121
25738W        W97267  29.163  14.618  11.682
25739W        W97268  37.786  13.296   2.363
25740W        W97269   7.633   4.892   4.499
25741W        W97270  26.457  35.852  13.806
25742W        W97271  22.011  22.551   3.278
25743W        W97272  12.659  41.209   2.441
25744W        W97273  39.820  43.313   0.461
25745W        W97274   8.240   5.557  11.924
25746W        W97275  12.280  31.754  14.407
25747W        W97276  12.331  38.846   1.918
25748W        W97277   6.796  18.457   0.006
25749W        W97278   7.416  33.705  14.749
25750W        W97279  27.248  18.966  12.976
25751W        W97280  23.181  31.669   2.217
25752W        W97281   1.033  33.474   3.247
25753W        W97282   3.642  43.805   3.834
25754W        W97283   2.831  26.481  11.410
25755W        W97284  20.907  31.984   4.678
25756W        W97285   0.538  19.177   1.485
25757W        W97286   8.086  32.156  10.707
25758W        W97287   1.015  37.809  10.496
25759W        W97288   4.301  38.779   3.259
25760W        W97289   8.203   1.122   0.801
25761W        W97290  18.789  33.411   4.341
25762W        W97291   7.147   9.817  12.643
25763W        W97292  44.923  28.872   0.645
25764W        W97293  17.378  23.932   2.427
25765W        W97294  17.693  12.710  13.777
25766W        W97295  14.785   0.444   3.574
25767W        W97296  10.345  36.124  11.027
25768W        W97297  15.777  11.287  10.197
25769W        W97298  27.663  11.432  12.652
25770W        W97299  12.319  27.716  11.195
25771W        W97300  38.962  12.795   4.257
25772W        W97301  30.158  14.107   2.176
25773W        W97302  16.854  12.807  14.045
25774W        W97303   7.834  44.885   2.157
25775W        W97304  25.690  10.660  14.373
25776W        W97305  16.030  28.482  13.521
25777W        W97306  36.995  27.716   0.417
25778W        W97307  19.771  14.291  11.712
25779W        W97308  40.562   7.015   1.159
25780W        W97309  26.221  17.167   4.388
25781W        W97310  20.010   6.848   1.690
25782W        W97311  42.287  29.653  14.050
25783W        W97312  30.341   7.799  11.519
25784W        W97313  39.321  34.872  10.895
25785W        W97314  35.332  26.541  11.454
25786W        W97315   7.085  28.217  11.148
25787W        W97316  15.377  10.819  10.739
25788W        W97317  11.366  29.869  14.375
25789W        W97318  44.136  24.573  12.343
25790W        W97319  14.844  41.886   4.815
25791W        W97320   1.464  26.546   2.865
25792W        W97321  28.746  30.290   4.205
25793W        W97322  26.205  41.024   3.138
25794W        W97323  24.708  27.568  14.315
25795W        W97324   5.431  35.532   1.959
25796W        W97325  13.164  35.115   0.249
25797W        W97326  38.794  34.328   2.647
25798W        W97327  43.669  36.494   3.825
25799W        W97328  41.249   0.998   1.884
25800W        W97329  40.929  20.241   1.715
25801W        W97330  19.497  23.187   4.299
25802W        W97331  43.488  13.174   4.616
25803W        W97332  24.556  15.199  10.457
25804W        W97333  41.596  34.532  10.705
25805W        W97334  22.596   8.823   3.902
25806W        W97335  26.560   7.391  11.417
25807W        W97336  17.549  12.867   1.310
25808W        W97337   1.343  28.455   1.217
25809W        W97338  21.257  33.736   0.065
25810W        W97339  33.788  15.981  13.097
25811W        W97340  15.762  24.598   4.422
25812W        W97341   3.479  19.267   2.720
25813W        W97342  26.744  12.620   2.265
25814W        W97343  39.369   1.908   2.567
25815W        W97344  32.359  20.252   1.337
25816W        W97345  35.809  38.965  14.775
25817W        W97346  33.134  14.662  11.608
25818W        W97347  44.028  11.626   3.124
25819W        W97348  44.953  15.325   0.956
25820W        W97349   8.314  24.926   4.195
25821W        W97350  20.677  19.587   3.190
25822W        W97351  25.282   8.323  14.982
25823W        W97352  11.388  15.675   2.261
25824W        W97353  20.627   9.247   2.829
25825W        W97354  22.872  19.377   3.686
25826W        W97355  23.961   5.200   2.194
25827W        W97356  40.132  18.882  12.128
25828W        W97357  13.815  21.065   4.676
25829W        W97358  18.486  17.703  13.788
25830W        W97359  11.075  17.245  11.682
25831W        W97360   4.768   8.746  11.668
25832W        W97361  32.860  24.149  12.800
25833W        W97362  36.932   8.186   4.412
25834W        W97363   2.283  16.232   2.740
25835W        W97364   0.191  12.106  10.664
25836W        W97365  39.829  36.615   2.695
25837W        W97366   4.254  39.357  14.839
25838W        W97367  18.484   8.419   1.742
25839W        W97368   5.980  12.347  11.639
25840W        W97369  27.157   0.517   3.762
25841W        W97370  20.779  28.114   2.695
25842W        W97371  22.077  35.098   1.443
25843W        W97372  28.723  21.741   1.995
25844W        W97373   0.276   7.624   1.768
25845W        W97374  42.425   9.807  12.643
25846W        W97375  39.953  21.153   3.204
25847W        W97376   8.892   0.918  11.625
25848W        W97377  14.186  42.836   4.587
25849W        W97378  30.491   4.303  14.128
25850W        W97379  24.656  13.687   3.707
25851W        W97380   5.397  40.271   2.189
25852W        W97381  26.372  29.399   5.046
25853W        W97382   3.732  17.113   0.358
25854W        W97383  18.425   0.768  13.365
25855W        W97384  27.213  10.156  12.303
25856W        W97385  35.246  34.812  12.472
25857W        W97386  24.407  28.718  12.923
25858W        W97387   9.407  28.172  10.687
25859W        W97388  43.759   9.447   4.651
25860W        W97389  15.713  26.035   4.192
25861W        W97390  19.793  34.783   0.334
25862W        W97391  29.208   1.392  13.970
25863W        W97392  18.253  41.203   0.622
25864W        W97393  24.685  40.565  14.750
25865W        W97394   6.804  17.547  11.148
25866W        W97395   4.672   8.689  10.673
25867W        W97396   2.311   3.728   0.501
25868W        W97397  12.716   9.934   1.260
25869W        W97398  19.625   7.475  12.494
25870W        W97399  23.065  26.250  14.486
25871W        W97400  11.824  35.609  12.585
25872W        W97401   3.768  42.038   1.455
25873W        W97402  44.868  18.012  12.589
25874W        W97403   4.516  35.041  10.551
25875W        W97404  20.347  38.893   0.935
25876W        W97405  29.522  11.045   0.230
25877W        W97406  38.981  15.299  14.003
25878W        W97407   6.641  15.112  12.494
25879W        W97408   8.284  10.904  13.301
25880W        W97409  33.529  30.300   1.788
25881W        W97410  44.700  27.570   4.576
25882W        W97411  44.782  40.761   1.820
25883W        W97412  19.090  34.127  13.078
25884W        W97413  28.716  16.110   4.514
25885W        W97414  31.581   6.961  12.949
25886W        W97415  34.575  21.014   1.269
25887W        W97416  28.575   7.465  11.468
25888W        W97417  30.414  23.731   4.098
25889W        W97418  10.597   0.796  12.946
25890W        W97419  38.072  21.547  14.861
25891W        W97420   6.364  27.896   2.041
25892W        W97421   3.269  12.625   1.196
25893W        W97422   9.346  39.982  10.691
25894W        W97423  44.519  39.527   1.778
25895W        W97424  23.689  23.785  11.440
25896W        W97425   6.651   0.975   0.378
25897W        W97426  11.207   1.946  13.741
25898W        W97427   0.685  19.776   4.182
25899W        W97428  14.665  35.825   5.185
25900W        W97429  19.069   2.787   2.855
25901W        W97430  12.575   4.492   1.698
25902W        W97431   1.300  30.080   0.487
25903W        W97432  41.500  12.224   0.176
25904W        W97433   5.412   9.714   0.880
25905W        W97434  36.394  12.814   4.475
25906W        W97435   0.312  44.766  14.371
25907W        W97436   1.302  35.836   2.251
25908W        W97437  23.989  20.481   1.529
25909W        W97438  25.801  15.612  13.415
25910W        W97439   9.892  12.419  11.607
25911W        W97440   4.790  29.591   2.617
25912W        W97441  15.372  41.020   4.492
25913W        W97442  15.695  29.967   4.172
25914W        W97443   1.388  32.978   1.296
25915W        W97444  14.133  44.690   2.760
25916W        W97445   7.708   0.572  11.024
25917W        W97446   7.761  23.828   4.563
25918W        W97447  29.692  22.160  14.810
25919W        W97448  30.735   8.316   1.317
25920W        W97449  11.265  44.944  13.881
25921W        W97450   4.887   4.841   4.542
25922W        W97451  41.983   4.785  11.789
25923W        W97452  25.606  39.266  10.728
25924W        W97453  43.352   8.980   4.629
25925W        W97454  35.827  17.508   0.577
25926W        W97455  38.158  10.681   1.331
25927W        W97456  35.400  10.292   2.433
25928W        W97457   0.421   9.681  11.448
25929W        W97458  23.748  43.469  10.991
25930W        W97459  27.303   5.689  10.691
25931W        W97460  27.589   5.478  11.097
25932W        W97461  19.339  15.719   5.378
25933W        W97462  42.579   6.771   1.251
25934W        W97463   2.162  37.387  13.565
25935W        W97464  27.670  37.240   4.006
25936W        W97465   7.040  31.988   4.227
25937W        W97466   6.617  27.613  12.067
25938W        W97467  44.463   1.738  11.361
25939W        W97468  30.097   4.324   3.805
25940W        W97469   9.639   2.415   2.352
25941W        W97470  39.270  30.923   1.084
25942W        W97471  25.380   5.985  14.855
25943W        W97472   8.481  22.631   1.902
25944W        W97473  10.199  39.220  11.937
25945W        W97474  31.920  19.274   0.014
25946W        W97475  44.876   0.401  14.397
25947W        W97476   5.993   2.796  11.561
25948W        W97477  15.200  40.857   0.771
25949W        W97478  16.115  33.556   0.879
25950W        W97479  41.925  33.732  14.124
25951W        W97480  17.637  40.591   0.911
25952W        W97481  42.078   3.051  12.017
25953W        W97482  20.173  14.190   0.959
25954W        W97483   7.324   8.823  11.228
25955W        W97484  19.222  32.485   1.726
25956W        W97485   8.105   5.849  14.762
25957W        W97486  22.242  17.575  12.410
25958W        W97487   6.337  20.959  13.420
25959W        W97488  16.438  16.649   4.332
25960W        W97489  15.227  35.531  14.434
25961W        W97490   9.732  43.193   1.650
25962W        W97491  34.909  24.551  10.804
25963W        W97492  28.949  21.742   2.953
25964W        W97493  18.899  41.482   4.976
25965W        W97494   1.598   1.776  11.141
25966W        W97495  13.227  25.055   3.734
25967W        W97496  35.924   8.704   3.705
25968W        W97497  10.257  20.222  12.336
25969W        W97498  38.778  24.860  14.955
25970W        W97499  22.115  26.465  12.392
25971W        W97500  43.967  28.409   3.613
25972W        W97501  17.321  14.137  11.224
25973W        W97502  32.524  10.299   2.790
25974W        W97503  26.030   8.455   1.895
25975W        W97504  28.286  35.843  13.446
25976W        W97505  43.955  23.283   4.629
25977W        W97506  18.812  40.639   0.284
25978W        W97507  25.137  19.478   3.105
25979W        W97508  37.102   8.161   0.079
25980W        W97509   6.156  11.187   3.613
25981W        W97510  32.602   9.385   4.842
25982W        W97511  14.886  36.921   3.235
25983W        W97512  43.849  22.061   3.361
25984W        W97513  21.010  26.917   3.644
25985W        W97514   9.628  28.990   3.874
25986W        W97515  18.344  31.486   2.266
25987W        W97516  12.266  24.511  10.690
25988W        W97517  37.600   9.553  10.574
25989W        W97518  20.700  12.043  14.075
25990W        W97519  42.750  41.801  13.495
25991W        W97520  10.701  18.738  10.975
25992W        W97521  23.202  18.045   3.217
25993W        W97522  11.562  24.765   3.986
25994W        W97523  21.521  30.537   0.347
25995W        W97524  10.396  16.743   0.528
25996W        W97525   6.868  42.351  14.985
25997W        W97526  14.619  30.090  13.910
25998W        W97527  39.618   9.695   2.469
25999W        W97528  42.567   8.047   2.257
26000W        W97529  36.339  34.311   1.562
26001W        W97530  41.852  35.373   1.375
26002W        W97531   0.735  37.438  14.909
26003W        W97532  37.325   8.413  12.020
26004W        W97533  16.825  13.358   1.378
26005W        W97534  17.718  11.168   3.179
26006W        W97535  28.430  17.736  13.291
26007W        W97536   8.741   0.996   1.361
26008W        W97537  13.070  36.540   0.311
26009W        W97538  29.512  27.105   0.297
26010W        W97539  28.497  38.445  10.485
26011W        W97540  36.053   0.002  12.962
26012W        W97541  18.868   6.801   4.635
26013W        W97542  14.090  33.638  14.028
26014W        W97543  14.379  15.227   1.866
26015W        W97544  33.399  12.190   3.290
26016W        W97545  12.676  12.386   4.100
26017W        W97546  32.839  27.900  14.352
26018W        W97547   8.083  36.863   2.381
26019W        W97548  26.078   1.009   4.565
26020W        W97549  33.075  24.182  13.774
26021W        W97550  41.545  10.037   3.334
26022W        W97551  17.608  13.880  12.422
26023W        W97552   0.835  25.551   1.864
26024W        W97553  10.665  41.300  10.712
26025W        W97554  34.574  21.502   4.311
26026W        W97555  21.974  23.532  13.887
26027W        W97556  39.892  35.593  10.884
26028W        W97557  19.079  40.844  11.012
26029W        W97558  30.776  19.250  14.582
26030W        W97559  40.452  18.027  12.071
26031W        W97560  21.652  31.425  11.156
26032W        W97561   8.343  13.843   3.310
26033W        W97562  27.618  21.890   3.894
26034W        W97563  18.273  44.503  11.648
26035W        W97564   9.278  31.412  12.410
26036W        W97565  39.545  15.637   0.406
26037W        W97566  27.738  18.265  11.233
26038W        W97567  18.823   2.839  12.407
26039W        W97568  25.630   0.327   4.392
26040W        W97569   2.331  12.615  13.603
26041W        W97570  30.101  40.811  11.592
26042W        W97571   2.319  28.857   0.902
26043W        W97572  16.070  33.081   2.197
26044W        W97573  28.099  31.482   4.649
26045W        W97574  20.672  35.368   1.300
26046W        W97575  34.373  40.509   1.321
26047W        W97576  10.905  32.663   3.246
26048W        W97577  30.597  10.260  12.871
26049W        W97578  22.933  14.216  11.550
26050W        W97579   2.737  25.270   5.081
26051W        W97580  27.878   9.168   3.356
26052W        W97581  43.197  35.679   3.444
26053W        W97582  37.089  19.156   3.216
26054W        W97583  42.530   6.188  11.057
26055W        W97584  21.184  38.269   0.631
26056W        W97585  36.839  26.217   1.325
26057W        W97586  44.043  40.004   2.878
26058W        W97587  21.019   1.987  12.107
26059W        W97588  21.517  12.900   2.217
26060W        W97589  13.859  24.045  14.841
26061W        W97590  19.962  23.824   3.695
26062W        W97591  14.290  26.507   4.990
26063W        W97592  26.169  15.775  14.961
26064W        W97593  24.816  27.651   0.705
26065W        W97594  12.599  14.226   0.069
26066W        W97595  41.646  28.987  11.184
26067W        W97596  10.599  22.113   3.622
26068W        W97597  43.018  24.255   4.216
26069W        W97598  33.650  14.815   0.912
26070W        W97599  44.849  24.847  13.338
26071W        W97600   0.234  44.468   0.339
26072W        W97601  27.186  16.990  12.838
26073W        W97602  26.013   6.627   1.327
26074W        W97603  14.685  34.401   4.109
26075W        W97604  27.719  23.479   4.593
26076W        W97605  42.554  34.875  13.850
26077W        W97606   0.764  30.423  14.428
26078W        W97607  27.990   3.201   2.679
26079W        W97608  36.416   3.599  11.642
26080W        W97609  35.487  33.630  12.922
26081W        W97610   4.401  25.512  12.034
26082W        W97611  41.385  18.345   0.852
26083W        W97612  21.719  30.716   2.218
26084W        W97613  28.917  17.101  13.403
26085W        W97614  26.900   3.814   2.414
26086W        W97615  17.697  22.623  12.214
26087W        W97616   5.787   3.616   4.901
26088W        W97617  28.165  11.363   3.087
26089W        W97618   6.863  27.655   3.321
26090W        W97619   7.243   5.800  10.733
26091W        W97620  25.155   3.243   2.287
26092W        W97621  36.298  27.954   2.777
26093W        W97622   5.447  22.243   4.496
26094W        W97623   6.556   6.069   3.196
26095W        W97624   7.290  42.409  13.550
26096W        W97625  36.263  12.328   0.351
26097W        W97626  19.597  34.149  14.946
26098W        W97627   0.009   1.249   0.027
26099W        W97628  16.531  11.294   2.709
26100W        W97629  43.267  44.495   0.540
26101W        W97630   4.385   3.317   4.053
26102W        W97631  20.376  16.349  10.885
26103W        W97632  42.786   2.947  13.010
26104W        W97633  42.447  15.599   1.843
26105W        W97634  37.007   5.175   2.324
26106W        W97635  37.155  10.882   1.415
26107W        W97636  21.029  21.264   2.576
26108W        W97637   5.739  39.281  11.935
26109W        W97638   6.840  11.468   3.306
26110W        W97639   5.771   9.275  14.962
26111W        W97640   8.834  44.340   3.250
26112W        W97641   0.184  30.111  11.109
26113W        W97642  39.872  42.210  14.503
26114W        W97643  22.180  10.124   4.423
26115W        W97644  35.916  10.820  13.367
26116W        W97645  22.110   1.279  13.902
26117W        W97646  10.491   7.725  13.308
26118W        W97647  22.749   1.318   3.325
26119W        W97648  10.664  32.317  12.429
26120W        W97649  20.176   0.220   4.601
26121W        W97650  30.708  19.275   2.375
26122W        W97651  11.886  40.863   2.380
26123W        W97652  22.070  31.824   2.774
26124W        W97653  36.820  17.374   3.383
26125W        W97654  12.119  23.988   2.784
26126W        W97655  24.663  32.955   4.314
26127W        W97656  25.600  21.782   0.276
26128W        W97657   5.389  18.993  12.362
26129W        W97658  21.251  29.440  12.084
26130W        W97659  35.384  24.177  14.222
26131W        W97660   0.753  17.288   2.834
26132W        W97661   2.640  39.942  12.935
26133W        W97662  34.689  14.872   2.011
26134W        W97663   9.967  11.196  11.916
26135W        W97664  13.360  36.418  14.512
26136W        W97665  39.102  42.795  14.984
26137W        W97666  34.416  40.631  13.094
26138W        W97667  13.499  38.774   1.170
26139W        W97668  43.180  37.537   4.334
26140W        W97669   1.979   5.278   2.814
26141W        W97670   9.254  33.655  12.471
26142W        W97671  25.303  10.897   0.555
26143W        W97672  42.254  18.660  10.670
26144W        W97673  36.174  28.675   0.340
26145W        W97674  35.375  11.208   3.382
26146W        W97675   7.112  44.752  12.545
26147W        W97676  26.461  13.723   1.858
26148W        W97677  43.237  21.110   4.473
26149W        W97678  18.364  36.072  14.016
26150W        W97679  25.634  26.068   2.472
26151W        W97680  27.608  25.706   3.578
26152W        W97681  13.805  40.852  14.168
26153W        W97682   9.848   6.397   0.791
26154W        W97683  40.603  42.982  12.178
26155W        W97684  27.869  26.161   0.320
26156W        W97685  33.121  33.192   2.472
26157W        W97686  43.512   9.624   0.234
26158W        W97687  13.118  29.266   0.382
26159W        W97688   5.406  27.617  14.256
26160W        W97689   7.911  29.169   1.307
26161W        W97690  31.650  30.122  13.360
26162W        W97691   1.294   1.887  14.477
26163W        W97692  33.865  10.875  13.476
26164W        W97693  33.639  44.696  10.186
26165W        W97694  27.424  40.050   3.971
26166W        W97695  20.073  27.926  11.422
26167W        W97696   0.394  25.955   0.504
26168W        W97697  12.077   3.450   0.755
26169W        W97698  22.744  23.507   1.612
26170W        W97699  20.534  13.765  11.528
26171W        W97700   8.851  39.916  12.904
26172W        W97701  38.301  17.748  13.459
26173W        W97702  43.845   6.537  13.095
26174W        W97703  17.329   1.281  14.049
26175W        W97704   3.837  13.060  12.478
26176W        W97705  42.351  43.409   3.701
26177W        W97706  30.207  23.236  11.716
26178W        W97707   2.826  25.588  11.095
26179W        W97708  27.496  16.040   4.164
26180W        W97709  17.050  12.350  14.354
26181W        W97710  29.500   2.194   4.349
26182W        W97711  16.523  27.975   3.705
26183W        W97712  28.709   0.261  13.231
26184W        W97713  11.910  17.355  13.448
26185W        W97714  43.834  43.390   1.411
26186W        W97715  21.849  33.809   0.898
26187W        W97716  18.862  19.986  14.887
26188W        W97717   6.749  10.575   4.281
26189W        W97718  24.800  10.783  11.842
26190W        W97719  15.279  13.802  14.057
26191W        W97720  16.804  22.783  13.432
26192W        W97721   8.121  29.663  13.102
26193W        W97722  23.466  36.012  11.754
26194W        W97723  25.016  36.865  12.886
26195W        W97724  16.313  15.335  11.473
26196W        W97725  24.736  35.980  10.984
26197W        W97726  19.770  40.549   1.281
26198W        W97727  10.698  39.051  12.128
26199W        W97728   6.768  17.578   3.361
26200W        W97729  36.063   2.883  12.183
26201W        W97730   4.377  20.733  13.478
26202W        W97731   4.274  13.174   3.742
26203W        W97732  44.070  41.457   4.058
26204W        W97733   9.630  32.579  11.710
26205W        W97734   6.891  19.928   3.573
26206W        W97735  12.568  41.073   4.633
26207W        W97736  38.353  30.066   2.728
26208W        W97737  11.549  12.700  12.279
26209W        W97738  27.642  44.953   2.367
26210W        W97739   4.202  34.687   0.976
26211W        W97740  21.078  27.153  10.918
26212W        W97741   5.141  15.849   3.204
26213W        W97742  34.641  37.891  14.024
26214W        W97743  38.151   3.076   2.622
26215W        W97744  32.846  28.509   9.592
26216W        W97745   6.794  41.677   1.729
26217W        W97746   7.174  18.781   1.398
26218W        W97747  37.466  26.324  11.598
26219W        W97748   3.355  43.873   2.205
26220W        W97749  31.501  38.863  11.154
26221W        W97750   7.351   8.300  14.474
26222W        W97751   7.470  37.609  11.166
26223W        W97752  12.812  25.146   4.050
26224W        W97753  35.054   2.752  11.939
26225W        W97754  39.052  16.272   3.153
26226W        W97755  33.709  16.666  13.931
26227W        W97756  12.195  34.033  14.650
26228W        W97757  42.227   4.670  13.113
26229W        W97758  23.212  34.418   0.344
26230W        W97759  22.675  39.525  13.094
26231W        W97760  16.549   4.216  14.013
26232W        W97761  20.639  12.889   2.679
26233W        W97762  27.725   4.737   2.289
26234W        W97763   8.022  37.487   3.903
26235W        W97764  38.993   4.786  14.380
26236W        W97765  32.339  36.428  12.149
26237W        W97766   9.193  39.528  13.722
26238W        W97767  19.142   1.058  10.573
26239W        W97768  31.610  35.460  13.116
26240W        W97769  39.259  44.805  10.875
26241W        W97770  18.724  27.994   4.448
26242W        W97771  25.246  21.743   1.383
26243W        W97772  37.934  16.326   4.807
26244W        W97773   9.991  34.379   3.170
26245W        W97774  34.046  25.179   0.215
26246W        W97775   3.738  14.785  10.562
26247W        W97776  20.342  43.009   4.598
26248W        W97777   1.451  37.928  12.169
26249W        W97778  43.439  25.122   4.704
26250W        W97779  42.057  16.524   4.231
26251W        W97780  41.203  10.133  13.246
26252W        W97781   2.688  22.580   0.029
26253W        W97782   4.787  33.774  10.716
26254W        W97783   3.883  15.230  12.282
26255W        W97784  34.317   2.155  12.052
26256W        W97785  23.407  14.505  13.923
26257W        W97786   0.399   7.425   2.332
26258W        W97787  26.680  18.244   3.228
26259W        W97788  10.110  39.093  10.470
26260W        W97789  25.114  17.291  11.035
26261W        W97790  44.337   8.375   2.464
26262W        W97791  29.334  43.840  13.566
26263W        W97792  37.441  27.926   0.702
26264W        W97793  18.244   5.611  12.917
26265W        W97794  19.071  29.684  13.988
26266W        W97795  18.237  21.076   0.067
26267W        W97796  26.596  27.445   0.296
26268W        W97797  30.145  33.890   2.849
26269W        W97798  44.331  17.703  11.899
26270W        W97799  26.269  31.589  11.965
26271W        W97800   5.914  41.431  13.816
26272W        W97801  42.465   0.694  13.927
26273W        W97802  37.587  13.146   5.087
26274W        W97803  29.508  33.575  11.599
26275W        W97804  31.890  36.661  14.376
26276W        W97805   9.618  24.690   4.900
26277W        W97806   7.855  17.693   3.235
26278W        W97807  21.548  10.349   1.449
26279W        W97808  33.680  22.616   2.683
26280W        W97809   5.733  34.049  12.616
26281W        W97810   8.791  41.226  14.087
26282W        W97811   5.198  12.599  13.425
26283W        W97812  29.141  23.568   3.291
26284W        W97813  30.144   4.747  11.310
26285W        W97814  32.434  17.521  11.401
26286W        W97815  11.271  10.189   3.631
26287W        W97816  25.299  19.938   3.311
26288W        W97817  17.816  18.587   2.825
26289W        W97818  19.971  28.457  11.090
26290W        W97819  29.922  12.938  11.565
26291W        W97820  29.857  16.779  12.797
26292W        W97821  43.802  41.030  11.220
26293W        W97822  12.689  13.763   4.724
26294W        W97823  34.399  15.238   3.989
26295W        W97824   9.669  43.803  12.417
26296W        W97825  14.065  34.434   3.398
26297W        W97826  26.937  43.449  14.821
26298W        W97827   9.861  39.915  12.000
26299W        W97828  11.314  39.165   5.105
26300W        W97829  21.432  27.136  13.943
26301W        W97830  30.174  25.727   3.903
26302W        W97831   7.656  42.371   4.626
26303W        W97832  14.337  27.817  14.485
26304W        W97833   6.837  38.938   0.134
26305W        W97834   4.707  38.535  10.767
26306W        W97835  10.765  38.640  13.165
26307W        W97836  29.899   7.367   4.698
26308W        W97837  40.790   0.694  14.727
26309W        W97838   7.501  37.575   0.925
26310W        W97839  29.155  44.302   2.260
26311W        W97840   6.244   3.356  12.875
26312W        W97841  30.511  23.198  14.252
26313W        W97842  40.923  34.141  13.100
26314W        W97843  19.455   0.253  12.514
26315W        W97844  11.115  30.864  14.237
26316W        W97845  25.252  25.578   0.028
26317W        W97846  24.500  21.690  12.204
26318W        W97847  15.610  20.395   1.737
26319W        W97848  12.045  42.798  11.624
26320W        W97849  44.810  17.747  11.679
26321W        W97850   9.689  23.796   0.378
26322W        W97851  20.793  37.449   0.279
26323W        W97852   7.312  29.927  14.923
26324W        W97853  44.008  32.506   0.853
26325W        W97854  13.183  24.283  14.449
26326W        W97855   8.672  44.812   0.351
26327W        W97856  31.933  13.288   2.887
26328W        W97857  15.838  31.916  12.581
26329W        W97858  36.035  17.256  14.710
26330W        W97859  25.581  13.824   3.662
26331W        W97860  21.225  44.949  11.920
26332W        W97861  36.979  35.111   2.701
26333W        W97862  32.948  21.526   1.387
26334W        W97863  21.344  41.419   0.879
26335W        W97864  29.968  28.593  11.515
26336W        W97865  36.427  43.245   4.577
26337W        W97866  32.639  40.960   4.399
26338W        W97867   0.381   9.453  13.347
26339W        W97868  10.220   3.713  13.802
26340W        W97869  39.060  14.585  14.477
26341W        W97870  34.531   4.344   2.998
26342W        W97871   5.048  21.501   2.204
26343W        W97872  10.766  21.025  14.489
26344W        W97873   5.329  25.941   3.378
26345W        W97874  21.304  13.654   1.920
26346W        W97875  14.163   3.166  14.098
26347W        W97876  25.147  10.297   2.322
26348W        W97877  38.284  28.632   3.662
26349W        W97878   6.158  15.261  14.827
26350W        W97879   5.904   6.831  14.969
26351W        W97880  14.888   4.723   3.735
26352W        W97881  31.088  10.820   1.946
26353W        W97882  30.684  34.755   3.177
26354W        W97883   5.367  38.864   2.328
26355W        W97884  30.548  34.232  12.508
26356W        W97885  30.679  28.466   0.356
26357W        W97886  11.323   9.406   0.799
26358W        W97887   5.705  12.060   4.611
26359W        W97888  11.274  13.305   1.325
26360W        W97889   6.879  33.044  12.127
26361W        W97890  18.669   1.926   1.634
26362W        W97891  18.404   8.251  11.664
26363W        W97892  38.113  34.511  14.970
26364W        W97893  40.841   4.718   3.743
26365W        W97894  21.791  35.946  13.735
26366W        W97895  19.784  15.312   2.861
26367W        W97896  16.596   9.647   2.946
26368W        W97897   8.901   3.216  10.725
26369W        W97898  39.838   2.866  11.543
26370W        W97899  19.534  14.681  14.902
26371W        W97900  41.072   8.747   1.386
26372W        W97901   3.862  18.018   3.132
26373W        W97902  20.029  15.641  13.748
26374W        W97903   0.483   0.241  11.722
26375W        W97904   8.034  30.721   4.958
26376W        W97905  30.002  37.611  12.525
26377W        W97906  37.516  19.834  14.882
26378W        W97907   1.005  42.205   3.667
26379W        W97908   7.514  37.512   4.569
26380W        W97909  38.325  21.693  13.933
26381W        W97910  28.373   6.365   4.812
26382W        W97911  21.060  37.354   2.000
26383W        W97912  22.136  25.023  12.173
26384W        W97913  15.453  26.946  12.032
26385W        W97914   3.777  40.554   1.865
26386W        W97915  16.024  14.644  12.520
26387W        W97916  41.547  18.717   1.934
26388W        W97917  24.058   2.872   3.802
26389W        W97918  38.300   3.129  12.585
26390W        W97919  31.439  36.607  10.588
26391W        W97920  32.077  15.290   3.796
26392W        W97921  36.624   4.984  10.783
26393W        W97922  25.553   6.810   3.446
26394W        W97923  30.572  33.980  13.968
26395W        W97924  33.915  38.056   4.830
26396W        W97925  31.150  44.938  13.039
26397W        W97926  18.781  10.563   2.722
26398W        W97927  11.655  34.918   0.550
26399W        W97928  12.604  22.525   0.270
26400W        W97929   3.266  17.063  12.182
26401W        W97930   4.309  22.917  14.937
26402W        W97931   8.106   1.684  13.416
26403W        W97932  13.252  27.596   2.151
26404W        W97933  19.891  23.738   2.386
26405W        W97934  23.992  38.116   2.962
26406W        W97935  39.277  20.279   0.848
26407W        W97936  41.124  26.392  12.084
26408W        W97937  43.330   6.902   2.691
26409W        W97938   7.695  44.491   0.967
26410W        W97939  41.317  43.328  14.831
26411W        W97940  14.426  13.751  10.811
26412W        W97941  28.693  40.498  12.451
26413W        W97942  41.376  19.376  14.379
26414W        W97943  16.615  10.632  10.882
26415W        W97944  33.892  18.444   4.255
26416W        W97945   6.229  11.181   1.762
26417W        W97946   0.485  44.068   0.557
26418W        W97947  10.773   6.813   0.346
26419W        W97948  10.592  35.409   0.724
26420W        W97949  33.875  33.547  12.112
26421W        W97950  43.411  39.336   3.581
26422W        W97951  22.933  24.222  13.374
26423W        W97952  34.506   7.698   4.040
26424W        W97953  16.200  30.943  13.799
26425W        W97954  21.048  15.956  11.508
26426W        W97955  13.508  40.918   4.566
26427W        W97956   4.714  27.250   5.043
26428W        W97957  12.871  39.981   3.729
26429W        W97958  39.525  39.387   4.629
26430W        W97959  22.187  29.539   0.655
26431W        W97960  18.195  23.049   4.583
26432W        W97961  15.286  33.461  12.503
26433W        W97962  36.122  17.912   1.843
26434W        W97963  15.408   7.965  11.127
26435W        W97964   4.692  33.547  13.948
26436W        W97965  13.230  13.076  10.640
26437W        W97966   9.330  33.977   2.157
26438W        W97967  41.622  30.282   1.906
26439W        W97968   1.888  38.169  12.023
26440W        W97969  27.918  43.500  14.591
26441W        W97970   8.615  18.322   3.109
26442W        W97971  33.237  32.626  10.619
26443W        W97972  44.677  17.327  12.012
26444W        W97973  28.017  13.799  14.440
26445W        W97974   7.448  44.448   2.285
26446W        W97975  15.786  17.163  10.325
26447W        W97976  18.284  31.327   5.701
26448W        W97977  14.335  27.796   1.307
26449W        W97978  30.050   0.809   3.917
26450W        W97979  11.176  31.834   1.901
26451W        W97980  39.811   3.255   0.530
26452W        W97981  39.359  43.591   0.551
26453W        W97982  15.735  14.686  14.550
26454W        W97983   7.289  29.659  11.280
26455W        W97984  44.985  19.422  13.431
26456W        W97985  40.266  29.706   3.552
26457W        W97986   9.406  44.871   3.304
26458W        W97987   7.837  16.613   2.866
26459W        W97988  14.596  27.669  11.090
26460W        W97989  12.555  41.334   1.416
26461W        W97990  38.484  40.359   1.912
26462W        W97991  33.471  29.198  13.105
26463W        W97992   4.319   3.498   2.951
26464W        W97993  39.049  15.172  12.246
26465W        W97994  30.696  35.324  10.282
26466W        W97995  38.908  41.041  12.592
26467W        W97996  27.144  44.357   2.312
26468W        W97997  29.482  10.877   2.337
26469W        W97998  31.977  28.429   1.802
26470W        W97999  40.560  38.145  13.165
26471W        W98000   5.096   8.449   5.039
26472W        W98001  19.207  39.031   4.951
26473W        W98002  16.928  35.461   3.203
26474W        W98003  43.099  23.079   3.429
26475W        W98004  28.033  40.540   9.950
26476W        W98005   8.396  22.957   3.200
26477W        W98006  29.886  17.673   0.860
26478W        W98007  32.693  16.642   1.728
26479W        W98008   4.843  16.650  10.638
26480W        W98009  23.995   2.212  11.989
26481W        W98010  31.374  16.363  13.956
26482W        W98011  39.354  44.807  11.373
26483W        W98012  43.597  37.101  11.047
26484W        W98013  32.421  22.570   0.911
26485W        W98014  28.423   5.956   4.034
26486W        W98015   1.874  34.935   5.100
26487W        W98016  28.157  15.717   0.783
26488W        W98017   3.553   2.319  14.108
26489W        W98018   6.721  10.253   1.885
26490W        W98019  27.283  34.715  11.530
26491W        W98020  15.125  12.381  14.330
26492W        W98021  23.639  27.568  14.426
26493W        W98022  38.581  31.919   4.539
26494W        W98023  12.115   1.320  14.908
26495W        W98024  43.764   0.340   0.336
26496W        W98025  39.947   0.097   0.516
26497W        W98026  35.220  39.855  14.417
26498W        W98027   7.738  13.710  11.729
26499W        W98028  24.609   7.758   4.561
26500W        W98029  10.838   7.193   0.814
26501W        W98030  13.428  26.070   2.991
26502W        W98031  33.666  23.719   1.720
26503W        W98032  11.119   4.957  11.178
26504W        W98033  35.165  20.579   3.634
26505W        W98034  24.291  42.528   1.000
26506W        W98035  23.617  36.935   1.646
26507W        W98036  29.175  38.892  12.784
26508W        W98037  40.447  44.445   1.646
26509W        W98038   2.942  31.817   2.765
26510W        W98039  26.853  42.972   1.804
26511W        W98040  30.030  42.931  10.928
26512W        W98041   2.083   2.003   3.387
26513W        W98042   2.145   3.897   1.787
26514W        W98043  10.300   8.690   3.960
26515W        W98044  27.705  26.211   3.108
26516W        W98045   9.937  25.933   4.188
26517W        W98046  37.245   3.294  13.847
26518W        W98047  22.796   8.824  11.620
26519W        W98048  17.500   9.805   1.403
26520W        W98049  31.477  21.375   4.110
26521W        W98050   4.948   7.748   0.026
26522W        W98051  12.581  24.853  11.927
26523W        W98052  26.165  16.276  14.958
26524W        W98053  22.437  25.582   3.703
26525W        W98054  40.547  31.067  12.381
26526W        W98055  44.685  39.869   2.133
26527W        W98056  42.468  31.686  11.128
26528W        W98057   6.341  16.629  14.499
26529W        W98058  10.853  30.823  12.074
26530W        W98059   7.075  17.700  11.617
26531W        W98060   5.958  20.590   0.766
26532W        W98061  27.961  24.150  13.537
26533W        W98062  40.075  36.970   0.980
26534W        W98063   7.191  14.329   2.736
26535W        W98064   8.628   5.278   0.954
26536W        W98065  42.022  21.521  11.017
26537W        W98066   9.581  19.806   1.435
26538W        W98067  15.343  18.114   1.919
26539W        W98068  33.180  25.042  11.685
26540W        W98069   4.480  19.134  14.271
26541W        W98070  12.224   4.456  12.465
26542W        W98071  24.863   2.837  14.879
26543W        W98072  14.615  29.611   3.273
26544W        W98073   2.504  19.545  12.606
26545W        W98074   5.048  29.728  14.772
26546W        W98075  10.655  37.815   4.101
26547W        W98076  44.766  37.316  14.079
26548W        W98077  25.190  43.803   1.302
26549W        W98078  34.554  44.371   0.894
26550W        W98079   0.676  31.071  14.086
26551W        W98080  23.874  22.588  10.401
26552W        W98081  42.824  11.635  11.524
26553W        W98082  20.890  35.232  14.395
26554W        W98083   5.352  32.224   1.677
26555W        W98084  18.557  33.115   3.189
26556W        W98085  11.724  14.840  13.288
26557W        W98086  31.634  22.723  11.697
26558W        W98087  31.905  11.306  14.435
26559W        W98088  37.668   8.970  13.009
26560W        W98089  14.077  35.602  11.274
26561W        W98090  27.472  37.901   2.174
26562W        W98091  19.534  15.588  11.206
26563W        W98092  41.388  35.700   0.770
26564W        W98093  35.975  31.135  14.974
26565W        W98094  36.902   5.581  14.486
26566W        W98095  13.094  41.997  14.489
26567W        W98096  42.824  13.341  12.407
26568W        W98097  41.807  31.208  10.770
26569W        W98098   0.720   0.305   2.969
26570W        W98099  32.999  30.010   4.069
26571W        W98100  37.889   0.019   1.785
26572W        W98101  31.205   6.197  14.370
26573W        W98102  20.603  26.459  14.077
26574W        W98103  14.941  34.971   1.276
26575W        W98104  21.355  11.770   4.522
26576W        W98105  10.657   0.931   0.075
26577W        W98106   8.393  17.607   1.409
26578W        W98107  42.885   2.841   2.901
26579W        W98108  20.608  12.288   1.883
26580W        W98109  39.132  12.900   0.940
26581W        W98110   0.471  10.643   3.391
26582W        W98111  30.632  26.534  14.995
26583W        W98112  32.054   5.944  13.771
26584W        W98113  20.273   1.043   1.260
26585W        W98114  12.672  26.688   2.874
26586W        W98115  44.112  39.013   4.598
26587W        W98116   9.664  27.682   4.639
26588W        W98117   4.141  10.617   2.654
26589W        W98118  19.669  41.151  11.091
26590W        W98119  32.490  23.742   3.465
26591W        W98120  31.694  43.616   4.208
26592W        W98121  44.742  10.697  10.985
26593W        W98122  43.458  29.012  13.292
26594W        W98123  17.784  19.647   3.744
26595W        W98124  12.482  18.944   3.719
26596W        W98125  26.536  28.869   0.400
26597W        W98126  14.730  17.033  13.128
26598W        W98127  20.902   4.058   2.348
26599W        W98128  17.100   2.747   2.199
26600W        W98129  38.216   6.773  11.094
26601W        W98130  19.748  21.720  12.581
26602W        W98131   1.713  34.966   0.362
26603W        W98132   3.232  10.115   0.333
26604W        W98133  42.509   0.782   0.421
26605W        W98134  15.107  35.467   2.778
26606W        W98135   1.485  16.733   0.552
26607W        W98136  41.345   3.707   3.381
26608W        W98137   7.052  15.709  13.494
26609W        W98138  29.929  16.652   2.301
26610W        W98139  29.356  20.383  14.876
26611W        W98140  29.755   9.939   4.752
26612W        W98141  43.267  21.237  11.551
26613W        W98142  38.997  40.314   1.146
26614W        W98143  27.996  34.996   4.415
26615W        W98144  10.749   3.181  10.670
26616W        W98145   8.117   0.226  13.061
26617W        W98146  35.543   4.522   2.801
26618W        W98147  33.738  37.371   1.319
26619W        W98148  36.643  31.848   1.812
26620W        W98149  28.398  11.449  11.402
26621W        W98150  11.831  34.194  12.412
26622W        W98151  20.179   1.474   4.937
26623W        W98152  34.332  18.175   2.388
26624W        W98153  30.711   1.974  10.573
26625W        W98154   7.656  16.552  11.243
26626W        W98155  17.020  40.340  13.615
26627W        W98156  23.289   8.774  12.826
26628W        W98157   5.389  40.036   3.733
26629W        W98158  33.890  38.720  13.398
26630W        W98159   3.511   5.412   2.619
26631W        W98160  26.455   5.359  12.513
26632W        W98161  39.486  16.564  11.355
26633W        W98162  22.212  13.112  12.983
26634W        W98163  23.689  19.779   1.626
26635W        W98164  26.416  22.706  14.625
26636W        W98165   7.293   0.423   4.172
26637W        W98166  32.057  34.534  14.806
26638W        W98167  20.831  24.933   0.236
26639W        W98168  12.279   6.681  13.026
26640W        W98169  34.430  24.725  13.099
26641W        W98170  41.960  27.174   2.978
26642W        W98171  44.786   5.321   3.776
26643W        W98172  24.713  15.091   1.602
26644W        W98173   0.816  38.537  14.473
26645W        W98174  16.067  35.074   3.230
26646W        W98175   0.558  41.458   3.711
26647W        W98176   0.562   0.706  11.535
26648W        W98177   1.507  27.976  11.094
26649W        W98178   0.213  36.291   0.739
26650W        W98179   8.664   6.741   3.509
26651W        W98180   8.110  40.410  14.888
26652W        W98181  44.400   2.960   0.400
26653W        W98182  12.113   9.652  11.741
26654W        W98183  37.418   8.015   4.992
26655W        W98184  38.425  24.399   2.524
26656W        W98185  36.227  33.155   2.324
26657W        W98186   6.247  40.880  13.440
26658W        W98187   5.713  26.020  12.089
26659W        W98188  39.959  43.794   3.634
26660W        W98189   4.849   4.875   3.093
26661W        W98190   7.294  29.160  12.141
26662W        W98191  36.334  27.742   3.275
26663W        W98192  18.639  33.578  10.083
26664W        W98193  10.149  20.584   2.303
26665W        W98194  34.631  25.548  11.542
26666W        W98195  17.653  41.175   4.211
26667W        W98196  18.634  42.515  12.547
26668W        W98197  38.360  31.733   1.390
26669W        W98198  42.477  28.167  13.331
26670W        W98199  28.686  10.384   2.266
26671W        W98200   3.329  21.748  14.336
26672W        W98201   9.123   8.233   1.233
26673W        W98202  39.112   1.352  14.765
26674W        W98203   1.398  38.195  10.426
26675W        W98204  39.140  24.144  14.840
26676W        W98205  42.895  30.625   1.232
26677W        W98206  32.073  13.156   3.384
26678W        W98207  22.037  10.096  12.025
26679W        W98208   1.139  43.315   4.515
26680W        W98209   3.990  26.435  10.814
26681W        W98210  22.479   4.898  13.367
26682W        W98211   6.608   8.699   4.022
26683W        W98212  19.652  40.797   0.520
26684W        W98213  17.311  32.176  13.481
26685W        W98214  19.278  13.692   3.355
26686W        W98215  23.624  34.106   0.423
26687W        W98216  30.902   5.883   9.731
26688W        W98217  14.085  43.747  11.121
26689W        W98218  31.672  10.766   4.665
26690W        W98219  42.268  10.974  11.113
26691W        W98220  37.530  19.250  10.587
26692W        W98221  14.048  12.012  13.989
26693W        W98222  40.135  10.311   3.947
26694W        W98223  41.196  23.489  14.804
26695W        W98224  37.088   5.398   1.856
26696W        W98225  39.875   8.382   2.913
26697W        W98226  30.922  37.718  11.812
26698W        W98227  19.271   6.346   3.755
26699W        W98228  35.125  10.289   0.499
26700W        W98229  18.408  16.535   2.280
26701W        W98230  44.421  29.973  13.948
26702W        W98231  29.921  23.935   4.138
26703W        W98232  41.445  31.421   4.359
26704W        W98233  10.878  42.782   0.313
26705W        W98234  22.583  32.484  11.203
26706W        W98235  33.348  24.320  11.900
26707W        W98236   3.516  17.993  11.983
26708W        W98237  28.884  24.251   3.258
26709W        W98238   9.309  23.474  14.740
26710W        W98239  16.313  24.442   0.637
26711W        W98240  38.532   7.819   1.213
26712W        W98241  39.058  22.179  12.564
26713W        W98242  17.322   9.702   2.332
26714W        W98243  19.696   2.007   0.403
26715W        W98244  15.859  23.555   4.198
26716W        W98245  38.434  16.202   4.898
26717W        W98246  14.729  24.098   1.818
26718W        W98247   2.816  36.358  13.345
26719W        W98248  41.981  43.071  12.409
26720W        W98249  11.207  38.001  13.616
26721W        W98250  34.108  44.403  10.486
26722W        W98251  15.643  31.186   2.339
26723W        W98252  22.985  32.356   2.653
26724W        W98253  24.615  25.748   1.750
26725W        W98254  33.246  15.780   1.719
26726W        W98255   8.644   0.437   3.639
26727W        W98256  37.794   3.021   2.277
26728W        W98257   4.165   1.140   4.172
26729W        W98258  30.383  21.616   0.038
26730W        W98259  25.523  44.355   4.859
26731W        W98260  22.432  18.569  13.981
26732W        W98261  25.989  41.971  14.396
26733W        W98262  29.569   6.662   9.574
26734W        W98263  37.769  26.926   0.325
26735W        W98264  25.163  36.771   4.934
26736W        W98265   9.349  23.579  13.710
26737W        W98266  40.948  35.435   4.285
26738W        W98267  41.846  19.671   2.018
26739W        W98268   3.414  21.578  10.950
26740W        W98269  26.576  36.163  14.753
26741W        W98270   2.441   0.897  14.516
26742W        W98271   2.253  15.652   2.335
26743W        W98272   6.609  36.636  12.848
26744W        W98273  40.032  17.949  13.274
26745W        W98274  18.645  39.338   4.611
26746W        W98275  40.464   3.736   0.247
26747W        W98276   8.912   8.350   0.307
26748W        W98277  24.810  20.664  11.169
26749W        W98278  34.926  43.966  13.835
26750W        W98279   1.770  28.946   1.841
26751W        W98280  20.385   7.649  11.611
26752W        W98281  16.580  37.611  11.906
26753W        W98282  35.666   9.175   2.819
26754W        W98283  44.338  16.202   3.992
26755W        W98284  11.289  13.596  11.530
26756W        W98285  10.572   5.853   1.880
26757W        W98286  42.042  23.752  12.176
26758W        W98287  42.785  22.533  13.202
26759W        W98288  25.529  10.486  12.056
26760W        W98289   9.404  27.946  13.466
26761W        W98290  19.932  36.059  12.116
26762W        W98291  21.509   0.370   2.172
26763W        W98292   3.255  23.629  11.929
26764W        W98293   1.870   1.417  12.997
26765W        W98294   8.244  13.710  10.496
26766W        W98295  11.704   1.487   0.957
26767W        W98296  32.386  30.519  10.325
26768W        W98297  10.812  20.259   0.988
26769W        W98298  40.958  16.553   0.459
26770W        W98299  10.442  25.001   3.699
26771W        W98300  32.547  14.243  14.876
26772W        W98301  19.747   9.829  11.044
26773W        W98302  43.512  25.611  12.884
26774W        W98303  19.182  19.559   1.694
26775W        W98304  32.539  12.741  12.860
26776W        W98305  37.897  28.933  12.165
26777W        W98306  25.443  25.637  11.660
26778W        W98307  10.722  16.631  14.845
26779W        W98308  32.519  15.893  13.645
26780W        W98309  19.241   1.045  13.886
26781W        W98310   5.415  32.459   4.121
26782W        W98311  30.473   7.249   2.858
26783W        W98312  11.573  16.231   3.925
26784W        W98313  27.479  28.308  11.964
26785W        W98314   3.785  38.554   4.626
26786W        W98315  24.615  23.811  14.922
26787W        W98316   0.743   8.207   3.145
26788W        W98317  36.455   1.487   0.201
26789W        W98318  19.160  38.629  11.576
26790W        W98319   3.318  18.181  11.556
26791W        W98320  28.019  36.111  14.779
26792W        W98321   9.173   7.216   4.638
26793W        W98322  36.037   8.930  13.459
26794W        W98323  39.355  30.862  11.814
26795W        W98324   8.767  12.425   4.338
26796W        W98325  22.617   7.315  13.500
26797W        W98326  17.616  26.042   3.684
26798W        W98327  26.984  10.925  10.713
26799W        W98328  15.641   0.059  11.554
26800W        W98329  16.729   0.392  14.938
26801W        W98330  10.457   5.998  14.575
26802W        W98331   3.476  14.858  14.083
26803W        W98332  12.189   1.119   2.165
26804W        W98333  35.343  22.671   4.299
26805W        W98334  33.121   8.321  13.047
26806W        W98335  21.837   0.874  13.532
26807W        W98336  25.244  36.642  13.956
26808W        W98337  13.785   8.939   3.689
26809W        W98338  39.847  39.734  11.780
26810W        W98339  31.916   4.968   0.401
26811W        W98340   0.040   0.010   0.351
26812W        W98341  13.076  33.427   1.686
26813W        W98342  38.484  38.312   3.369
26814W        W98343  22.190   2.478  12.025
26815W        W98344  31.114  26.229   3.375
26816W        W98345  21.273  43.932   2.434
26817W        W98346  18.700   7.105  12.475
26818W        W98347   9.318  16.232  11.941
26819W        W98348   1.417   4.291   3.091
26820W        W98349  16.011   2.019  14.971
26821W        W98350   1.936   2.750   3.571
26822W        W98351   6.254  31.437  11.149
26823W        W98352  35.092  34.927   3.144
26824W        W98353  42.550  36.679  11.617
26825W        W98354  21.444  42.691  12.552
26826W        W98355  35.404  30.072  12.334
26827W        W98356  17.994   1.921  11.603
26828W        W98357  35.479  13.208  13.958
26829W        W98358  24.302  43.407  13.525
26830W        W98359  30.949  27.706   0.739
26831W        W98360   4.789   0.719   1.377
26832W        W98361  13.630  10.383  11.126
26833W        W98362  37.943  38.031  11.716
26834W        W98363  26.879  37.592   2.715
26835W        W98364  35.029   9.891  11.523
26836W        W98365  19.883   5.809  13.422
26837W        W98366  41.358  40.532  13.603
26838W        W98367   5.497   1.671   0.370
26839W        W98368  29.150  27.167  12.427
26840W        W98369  21.244  16.110  13.265
26841W        W98370  18.608  14.161  12.650
26842W        W98371  41.437  39.961  12.404
26843W        W98372  14.340   8.275  12.112
26844W        W98373  17.142   1.642   0.644
26845W        W98374  20.517  29.952  11.838
26846W        W98375  34.594  40.032   0.321
26847W        W98376  18.497  22.388   4.959
26848W        W98377  24.780  39.965   1.738
26849W        W98378  24.965  15.215  11.913
26850W        W98379  15.770   6.942   3.691
26851W        W98380  29.534  26.858  13.256
26852W        W98381   7.375  24.109  14.278
26853W        W98382  41.548  42.067   3.694
26854W        W98383  39.985  16.679  13.903
26855W        W98384  22.133   3.957  13.008
26856W        W98385  27.214  36.393  11.207
26857W        W98386  34.375  30.774  10.686
26858W        W98387   8.832  20.130   3.822
26859W        W98388   4.908  21.533  10.157
26860W        W98389  14.480   7.283  10.715
26861W        W98390   5.954  22.070   0.298
26862W        W98391  38.811  38.956  13.054
26863W        W98392  26.210  21.457  13.844
26864W        W98393  40.777  11.094   3.605
26865W        W98394  32.575  16.748  13.025
26866W        W98395  32.487  32.193  12.881
26867W        W98396  35.351  14.266   3.656
26868W        W98397  21.649  21.605   1.850
26869W        W98398  10.546   6.235   2.248
26870W        W98399  34.266  29.289  13.288
26871W        W98400  24.107  11.403   4.956
26872W        W98401  36.872  28.494  10.626
26873W        W98402  41.785  15.330   1.141
26874W        W98403   0.539  27.848  14.893
26875W        W98404  30.437  18.729   3.619
26876W        W98405  38.572  43.995  14.112
26877W        W98406  17.104   1.176   0.879
26878W        W98407  38.332  19.760   2.187
26879W        W98408   8.120  26.548   0.020
26880W        W98409  17.790   0.308  13.960
26881W        W98410  34.364  22.488   0.901
26882W        W98411  35.860  14.446   2.294
26883W        W98412   3.457  30.720  11.559
26884W        W98413   6.369  41.180  14.683
26885W        W98414  38.482  35.967  12.078
26886W        W98415   7.437  37.555  13.129
26887W        W98416  17.534  17.756   0.462
26888W        W98417  31.854  43.751  11.412
26889W        W98418  23.545  19.625   0.634
26890W        W98419  17.638  11.661   3.258
26891W        W98420  13.830  42.329   4.729
26892W        W98421  15.389  28.168  11.539
26893W        W98422  15.672  10.383  10.684
26894W        W98423  29.078   0.227   4.610
26895W        W98424  20.294  13.220  13.207
26896W        W98425  30.167  20.499  13.859
26897W        W98426   0.738  12.494   0.423
26898W        W98427  37.031  10.178  12.428
26899W        W98428   4.446  21.684   0.714
26900W        W98429  13.793   8.216   1.751
26901W        W98430  33.933  20.201  13.866
26902W        W98431  30.347  32.253   5.255
26903W        W98432  25.878  37.259  11.615
26904W        W98433  28.449  13.769  14.164
26905W        W98434  42.836  32.243   3.348
26906W        W98435   8.332  19.716  11.550
26907W        W98436  43.284   8.487   1.839
26908W        W98437  23.939  44.700  13.857
26909W        W98438  43.328  42.135   3.705
26910W        W98439  40.316   4.121   4.639
26911W        W98440  20.976  37.428   5.198
26912W        W98441  42.419  29.132  14.862
26913W        W98442  42.374  20.522   3.771
26914W        W98443  30.132   9.374  12.516
26915W        W98444   8.184  23.130  11.492
26916W        W98445  38.458  26.659   1.438
26917W        W98446  29.117  23.752   4.561
26918W        W98447  26.034  30.910  13.665
26919W        W98448   5.867   0.896   3.799
26920W        W98449  14.916   8.151  11.000
26921W        W98450  10.917  17.703  13.909
26922W        W98451   8.711   2.986   4.974
26923W        W98452  30.638  14.384  13.827
26924W        W98453   5.546  29.892  14.577
26925W        W98454  25.222   2.699  14.097
26926W        W98455  41.962   9.225  11.104
26927W        W98456  24.548  36.670  14.285
26928W        W98457  38.431  35.055  13.766
26929W        W98458  26.096  10.816   3.482
26930W        W98459  35.516  13.992   4.061
26931W        W98460  31.967  44.605   4.260
26932W        W98461  21.685  37.085   3.161
26933W        W98462  33.988  14.782  11.655
26934W        W98463  26.495  22.323  10.572
26935W        W98464  18.992  17.179   1.273
26936W        W98465  38.912  44.652  14.410
26937W        W98466  12.101  35.394  13.900
26938W        W98467  38.350  11.599   4.049
26939W        W98468  33.582   2.733  11.957
26940W        W98469  21.185  43.200   2.820
26941W        W98470  42.616  11.307  13.575
26942W        W98471  35.088  22.956   0.246
26943W        W98472  43.787  23.023   1.691
26944W        W98473   0.681  20.703  11.560
26945W        W98474  25.711   7.187  14.451
26946W        W98475  20.134  13.063   4.690
26947W        W98476  25.004  13.221  14.046
26948W        W98477  37.569  39.029  10.666
26949W        W98478  23.538  24.334  12.209
26950W        W98479  17.250  17.489   4.289
26951W        W98480  30.740   5.909  11.689
26952W        W98481  22.607  15.320   3.853
26953W        W98482  17.729   1.548  10.524
26954W        W98483  10.358  38.514  13.424
26955W        W98484  44.909  11.127  10.723
26956W        W98485  16.793  36.721   4.009
26957W        W98486  40.258  26.710   2.132
26958W        W98487  35.530   8.314   3.399
26959W        W98488  14.706  43.105  10.420
26960W        W98489  18.494   6.096  13.450
26961W        W98490  31.668  32.852  14.332
26962W        W98491  43.411  38.980   0.348
26963W        W98492  29.530  17.448   3.647
26964W        W98493  12.939  17.627  11.565
26965W        W98494  28.959  38.865   2.183
26966W        W98495   1.941  13.293   0.192
26967W        W98496  21.764  31.607  14.330
26968W        W98497  26.467  37.459  12.995
26969W        W98498  36.147   8.692   1.796
26970W        W98499  31.811  15.345  10.373
26971W        W98500   1.233  18.931   0.715
26972W        W98501  20.054  37.443   3.576
26973W        W98502  25.045  10.176   0.393
26974W        W98503  23.544  25.462  14.456
26975W        W98504  31.439  44.287  12.469
26976W        W98505  21.719  35.178   2.787
26977W        W98506  42.519   0.308  11.148
26978W        W98507  29.250   8.343  14.724
26979W        W98508  33.865  17.711   2.949
26980W        W98509   3.451  35.532   2.699
26981W        W98510  21.701   6.408   2.285
26982W        W98511  26.221   9.249  11.135
26983W        W98512  26.618  32.941  10.182
26984W        W98513  11.440  21.495  14.769
26985W        W98514  24.128   0.964  14.847
26986W        W98515  29.103  10.173  12.466
26987W        W98516  11.262  43.832   2.695
26988W        W98517  31.903  26.551   4.859
26989W        W98518  18.326  44.765   0.940
26990W        W98519   1.283  18.646   1.436
26991W        W98520   0.812  11.880   1.236
26992W        W98521  34.544   7.786  11.668
26993W        W98522   3.773  10.289  11.416
26994W        W98523  29.657  10.593  10.701
26995W        W98524  23.691  15.316  12.962
26996W        W98525  14.328   5.196  14.982
26997W        W98526  26.173  18.267   4.138
26998W        W98527  11.182  22.532   4.604
26999W        W98528  43.099   6.961  13.008
27000W        W98529  19.036  38.306   3.510
27001W        W98530  30.607   3.755  12.561
27002W        W98531  10.161  12.295   3.353
27003W        W98532  43.592  28.308   3.227
27004W        W98533  29.791   6.737   1.965
27005W        W98534  11.854   3.635   1.259
27006W        W98535  22.945  41.973   0.795
27007W        W98536   4.801  34.252  14.781
27008W        W98537  36.812  18.973   4.209
27009W        W98538   1.790  38.900   0.437
27010W        W98539   8.157  38.502  12.904
27011W        W98540   7.813  22.491   4.131
27012W        W98541  26.103  10.887  13.431
27013W        W98542  28.748  40.793   2.228
27014W        W98543   6.203  17.857  10.726
27015W        W98544  36.058  10.914  11.551
27016W        W98545  36.288  16.106   2.879
27017W        W98546  41.936  37.384   1.525
27018W        W98547  31.118  34.211   4.431
27019W        W98548  24.450  27.521   4.221
27020W        W98549  39.841  31.397  14.256
27021W        W98550  35.164  25.028   4.623
27022W        W98551   7.757  13.828  11.217
27023W        W98552   3.894  14.490   1.730
27024W        W98553  25.252  28.473   0.009
27025W        W98554  10.863  10.332  10.736
27026W        W98555  10.177  32.554   1.332
27027W        W98556  23.804  38.042  13.355
27028W        W98557  34.899  24.686   4.902
27029W        W98558  22.158  19.089   3.198
27030W        W98559   1.762  25.746   0.000
27031W        W98560  29.574   2.964  10.623
27032W        W98561  40.039  13.907   0.968
27033W        W98562  11.726  27.111   0.373
27034W        W98563  28.581  11.230  14.849
27035W        W98564   4.839  12.346   4.829
27036W        W98565  42.446  31.061  12.465
27037W        W98566  12.738   2.379  12.629
27038W        W98567  40.680  36.344   0.377
27039W        W98568  14.571  32.462   2.641
27040W        W98569  13.657  33.133  12.051
27041W        W98570  15.674  39.004  14.710
27042W        W98571   9.134  34.610   1.278
27043W        W98572  11.711  12.118  14.762
27044W        W98573  30.532   0.571  13.018
27045W        W98574  24.810  35.004  13.043
27046W        W98575  20.165   0.822  13.015
27047W        W98576  33.656  27.016   3.763
27048W        W98577  26.940  13.639   1.991
27049W        W98578  11.757   9.648   4.290
27050W        W98579  24.037  38.628  13.819
27051W        W98580  14.662  33.536  13.914
27052W        W98581  32.998  25.084  13.767
27053W        W98582  26.717  13.122   0.279
27054W        W98583  20.712  12.028  11.054
27055W        W98584  25.066  28.212   1.868
27056W        W98585  39.718  38.819  12.103
27057W        W98586   5.190   8.508  14.952
27058W        W98587  39.494   3.889  14.804
27059W        W98588   6.811  17.661   0.442
27060W        W98589  19.658   1.263  12.508
27061W        W98590   7.198  36.311   2.461
27062W        W98591  14.629  30.139  11.156
27063W        W98592  22.097   0.784   3.778
27064W        W98593  12.282   7.352   2.384
27065W        W98594  26.588  36.942   2.184
27066W        W98595  13.716  11.456   3.327
27067W        W98596  20.267  23.210   4.673
27068W        W98597   8.761  29.062   1.917
27069W        W98598  37.145  23.780  14.842
27070W        W98599  35.909  12.944   0.850
27071W        W98600   6.020  28.883   2.721
27072W        W98601  38.626  37.344  10.929
27073W        W98602  30.518  22.591   0.934
27074W        W98603  10.848  29.827  14.480
27075W        W98604   8.703  10.832   0.428
27076W        W98605  37.633  11.775   4.531
27077W        W98606  42.516  35.395  12.625
27078W        W98607   2.868   2.862  12.642
27079W        W98608  13.429   7.766  13.796
27080W        W98609  25.665  27.835   1.269
27081W        W98610   7.373   0.996   0.045
27082W        W98611   6.347   7.753  12.048
27083W        W98612  37.684  32.000  14.665
27084W        W98613  28.192  35.380   0.832
27085W        W98614  42.844  13.823  12.629
27086W        W98615  17.471   0.077   2.854
27087W        W98616   1.957   0.085   1.367
27088W        W98617   4.744  33.005  11.952
27089W        W98618   8.823  12.238   1.936
27090W        W98619  23.205  40.944  11.215
27091W        W98620  29.609  11.235   1.194
27092W        W98621  29.392  40.000   3.409
27093W        W98622  33.086  40.591  12.626
27094W        W98623  33.248  29.723  12.487
27095W        W98624  36.073   0.548  11.123
27096W        W98625  32.539  36.513   2.817
27097W        W98626  31.196  17.086   2.558
27098W        W98627  13.815  36.254   0.367
27099W        W98628  42.228   5.987   4.670
27100W        W98629  15.645  34.437   2.862
27101W        W98630  33.158  16.587   3.300
27102W        W98631  20.082  10.669   4.183
27103W        W98632  44.917  43.707  10.557
27104W        W98633   3.468   9.850   4.601
27105W        W98634  21.758  43.514  12.434
27106W        W98635  10.587  41.481  13.464
27107W        W98636  39.970   5.279  11.558
27108W        W98637  30.137  16.086  10.537
27109W        W98638  25.782   0.417  14.892
27110W        W98639  38.253   7.522   4.141
27111W        W98640   4.844  33.849  11.653
27112W        W98641  11.048  29.457   3.142
27113W        W98642  30.702  37.380   4.127
27114W        W98643  17.771  30.574   2.533
27115W        W98644  35.972  30.013   0.628
27116W        W98645  37.545   7.433   2.944
27117W        W98646  16.969  13.252  10.974
27118W        W98647  43.358  27.476   1.838
27119W        W98648  32.219  27.933   2.818
27120W        W98649  42.953   3.892  10.601
27121W        W98650  24.712  18.854   0.763
27122W        W98651  33.393   1.952  12.342
27123W        W98652   4.436  25.180  13.952
27124W        W98653  18.745  41.033   0.623
27125W        W98654  36.168  25.258  13.482
27126W        W98655  30.073  44.548   4.681
27127W        W98656  39.418  22.073  10.255
27128W        W98657   1.162  14.589  12.900
27129W        W98658  36.772   9.723   2.364
27130W        W98659   9.736  20.654   0.247
27131W        W98660  32.496  16.302  13.307
27132W        W98661  19.229  18.046  13.784
27133W        W98662  30.965  40.060   4.542
27134W        W98663  35.472  15.895   2.626
27135W        W98664  22.620   7.173   4.699
27136W        W98665  25.945   2.797  11.996
27137W        W98666  43.977  29.162   2.702
27138W        W98667  35.755  16.361  11.977
27139W        W98668  41.727  30.748   2.270
27140W        W98669   1.549  28.351   3.814
27141W        W98670   4.893   2.300  11.910
27142W        W98671  18.112   1.009   4.924
27143W        W98672   6.894  21.837  13.346
27144W        W98673   8.492  15.627  14.896
27145W        W98674  18.688  20.343   1.237
27146W        W98675  34.619  39.515  11.792
27147W        W98676  22.257   7.234  14.551
27148W        W98677  18.519  42.965  12.943
27149W        W98678  33.430  42.287  10.618
27150W        W98679  22.426   5.883   1.476
27151W        W98680  41.451  44.798  11.049
27152W        W98681  30.162  26.164  14.311
27153W        W98682  15.095  40.018   0.211
27154W        W98683  13.948  38.619  11.157
27155W        W98684  30.597  35.002   2.300
27156W        W98685  14.851  17.055  14.460
27157W        W98686   9.712  10.232   1.177
27158W        W98687   6.270  43.439   2.851
27159W        W98688  36.562  30.806  13.457
27160W        W98689  22.517  22.491  13.454
27161W        W98690  21.696  38.024  14.957
27162W        W98691  44.730  17.194  12.901
27163W        W98692  19.270   6.739  12.975
27164W        W98693  27.745  24.948  11.417
27165W        W98694  38.457  42.260   0.521
27166W        W98695  34.359  26.066  10.755
27167W        W98696  23.964   0.969   2.362
27168W        W98697   6.396  27.891   3.332
27169W        W98698  39.426  30.967   2.636
27170W        W98699  11.764  31.020   1.268
27171W        W98700  40.383  15.680   4.018
27172W        W98701  15.835  43.512  13.989
27173W        W98702  35.682  14.750  12.443
27174W        W98703   6.756   7.163   4.811
27175W        W98704   9.919   2.216   2.737
27176W        W98705  38.530  11.690   1.522
27177W        W98706   3.375  12.161   2.583
27178W        W98707  18.242  41.437   1.439
27179W        W98708  28.592  43.377   3.754
27180W        W98709  36.861  39.454  11.650
27181W        W98710  41.300  44.966  13.973
27182W        W98711   1.007  32.441  10.304
27183W        W98712  25.243   5.686  11.936
27184W        W98713  24.567  34.167  11.595
27185W        W98714  41.394   6.355  14.443
27186W        W98715  24.542  23.465   3.155
27187W        W98716  28.919  43.745   0.993
27188W        W98717  26.259  35.342   3.811
27189W        W98718  30.716  40.810   0.977
27190W        W98719   8.095  30.394  14.657
27191W        W98720  22.147  38.545  14.404
27192W        W98721  20.529  32.597   4.309
27193W        W98722  21.828  23.291  12.907
27194W        W98723  19.146  27.320  13.507
27195W        W98724   7.317  19.168   0.096
27196W        W98725  32.468   7.215   3.133
27197W        W98726   6.184   5.680  11.468
27198W        W98727  26.264  24.286   2.177
27199W        W98728  44.943  24.750  12.742
27200W        W98729  16.872  13.749   1.744
27201W        W98730  38.593  16.000  14.328
27202W        W98731  30.093  11.555  12.005
27203W        W98732  37.661  18.463  13.976
27204W        W98733   7.396  14.784  11.484
27205W        W98734  35.973  19.100   3.773
27206W        W98735   3.447  44.200   4.130
27207W        W98736   6.697   5.293  13.056
27208W        W98737  43.100  16.793  14.302
27209W        W98738   5.291  31.094  12.653
27210W        W98739  16.603  36.578   2.702
27211W        W98740  21.688  11.416   0.540
27212W        W98741  43.635  20.659  12.579
27213W        W98742  25.126  17.087  10.548
27214W        W98743  22.147  23.489   0.778
27215W        W98744  35.457   0.312   4.802
27216W        W98745  13.095  28.565  10.912
27217W        W98746  38.401  33.987  13.784
27218W        W98747  15.666  41.061   1.848
27219W        W98748  15.532  35.603   1.681
27220W        W98749  34.545  34.143   2.259
27221W        W98750  43.903  39.772   0.313
27222W        W98751  15.787   5.894  14.383
27223W        W98752  33.950  18.120  11.410
27224W        W98753  16.080  26.070   1.029
27225W        W98754  41.828  30.982  14.378
27226W        W98755   6.781  23.330   1.726
27227W        W98756   0.210  35.693   4.170
27228W        W98757  17.132  31.509   2.646
27229W        W98758   3.871  13.133   1.651
27230W        W98759  40.477  34.859   1.338
27231W        W98760  35.893  23.696   2.263
27232W        W98761   8.930  19.187  10.270
27233W        W98762  32.426   3.845  13.837
27234W        W98763  30.516  35.611  10.713
27235W        W98764   8.765  25.981  14.608
27236W        W98765  23.569  43.773   4.471
27237W        W98766  26.534  16.563  14.046
27238W        W98767  33.931   3.771  10.524
27239W        W98768  23.018  15.361  11.399
27240W        W98769   2.336  39.297   2.803
27241W        W98770  11.572  28.130   0.302
27242W        W98771  20.655  34.846  11.094
27243W        W98772  18.757  40.373  11.933
27244W        W98773  28.081  44.945  14.240
27245W        W98774  17.250  36.524   3.094
27246W        W98775  40.050  35.894   1.744
27247W        W98776  12.331  13.776  10.788
27248W        W98777  26.287  33.899   2.222
27249W        W98778  29.997  33.049   0.618
27250W        W98779  16.558   1.741  13.787
27251W        W98780  35.642  14.514   4.099
27252W        W98781  19.184  28.529  12.851
27253W        W98782  13.606  35.938  11.952
27254W        W98783  16.703  39.604  13.367
27255W        W98784  44.231  23.681  10.751
27256W        W98785  25.523   8.720  14.735
27257W        W98786   1.307   9.314  14.770
27258W        W98787  23.436  10.072  10.491
27259W        W98788  22.633  32.421   3.452
27260W        W98789  30.505  42.547  12.883
27261W        W98790  17.830  13.342   4.656
27262W        W98791  20.290  15.479  11.219
27263W        W98792   6.580  34.768  14.490
27264W        W98793   1.891   2.365  11.979
27265W        W98794   5.265  19.276  12.823
27266W        W98795  37.121  41.770   3.459
27267W        W98796  41.593  10.296  14.908
27268W        W98797  38.466  32.347   2.119
27269W        W98798  39.614  20.140  11.327
27270W        W98799  37.815  31.859  11.592
27271W        W98800  37.416  37.090  13.409
27272W        W98801   8.651  33.538  11.459
27273W        W98802  24.209   9.692   3.041
27274W        W98803  27.087   8.589   3.855
27275W        W98804  19.624  33.141   3.319
27276W        W98805   8.319  42.320   3.607
27277W        W98806  10.347  12.791   1.153
27278W        W98807  30.392  42.685  10.660
27279W        W98808   3.800  27.959  13.904
27280W        W98809   8.340  38.737  13.320
27281W        W98810  40.852  43.414  12.345
27282W        W98811   3.425   6.484   2.903
27283W        W98812  15.283   0.312   0.749
27284W        W98813  21.106  14.772   2.799
27285W        W98814   4.488   3.868   0.309
27286W        W98815  20.108  27.523   2.825
27287W        W98816   3.210   7.787   3.280
27288W        W98817  39.445   4.306  10.510
27289W        W98818  12.917  20.812   2.246
27290W        W98819  21.585   2.183  13.770
27291W        W98820   1.434  28.985  10.786
27292W        W98821  10.865  21.586   3.426
27293W        W98822  43.894  20.039  11.908
27294W        W98823  24.932  36.439  12.598
27295W        W98824   7.879   6.313  10.766
27296W        W98825  37.226  43.269  13.625
27297W        W98826  26.294  42.518  11.983
27298W        W98827   9.737  39.678  11.108
27299W        W98828  16.233  38.538  10.651
27300W        W98829  18.724  43.920  14.129
27301W        W98830   6.023  42.373  14.053
27302W        W98831   9.005   0.673  11.147
27303W        W98832  15.611  34.963   2.947
27304W        W98833  27.464  33.719   1.721
27305W        W98834  27.674  17.594  11.173
27306W        W98835  13.361  18.976   0.357
27307W        W98836  23.613  41.093   3.719
27308W        W98837   6.403   9.632  12.087
27309W        W98838   3.794  33.066   4.523
27310W        W98839  41.358  40.005   3.132
27311W        W98840  34.479  29.738  11.625
27312W        W98841   0.536  33.577   3.049
27313W        W98842  25.700  26.554   0.976
27314W        W98843  10.113  34.472   4.493
27315W        W98844  39.830   4.931   1.721
27316W        W98845  11.381  13.450  14.754
27317W        W98846   4.873   6.111   0.810
27318W        W98847  33.358  44.709  10.638
27319W        W98848  14.239  24.670   0.770
27320W        W98849  20.820  35.178  11.450
27321W        W98850  42.079  37.501   1.988
27322W        W98851  24.590  32.878   0.854
27323W        W98852  35.515  12.160   0.758
27324W        W98853  42.451   8.378   4.558
27325W        W98854  18.478   8.771   2.903
27326W        W98855  32.941  39.348  12.755
27327W        W98856  21.617   5.135  11.468
27328W        W98857   2.983  40.533  11.194
27329W        W98858  16.758  29.387  11.521
27330W        W98859   8.001  33.081  12.133
27331W        W98860  16.145  19.089   2.398
27332W        W98861  23.204  22.780   2.898
27333W        W98862  22.176  42.454   0.298
27334W        W98863  22.272   0.485  10.038
27335W        W98864  31.390  13.368  13.404
27336W        W98865  21.746  27.623  12.760
27337W        W98866  30.644   3.355   2.438
27338W        W98867  12.264  15.429   4.003
27339W        W98868   7.129  39.631   1.389
27340W        W98869  37.000  12.661   3.711
27341W        W98870  17.761  19.851   4.735
27342W        W98871  28.054  29.901   0.005
27343W        W98872  13.287   8.817  14.353
27344W        W98873  10.124  43.426   3.236
27345W        W98874  16.617  43.505  12.032
27346W        W98875   6.431   8.657   0.400
27347W        W98876  28.305   8.927  12.777
27348W        W98877  13.076  16.077  10.624
27349W        W98878  15.253  14.279   1.794
27350W        W98879  26.773  16.079  10.648
27351W        W98880  25.621  26.913   3.736
27352W        W98881  24.558  22.607   3.436
27353W        W98882   8.679  26.045  11.646
27354W        W98883  39.680  25.630   3.041
27355W        W98884  42.890  28.079   5.033
27356W        W98885   1.957  26.586   4.797
27357W        W98886   4.379  24.805   1.868
27358W        W98887  30.628   4.272   1.842
27359W        W98888  32.626  41.028   3.895
27360W        W98889  44.179  24.419   3.846
27361W        W98890  25.074   9.811  14.546
27362W        W98891  20.581   4.678   4.730
27363W        W98892  42.481  39.095   2.396
27364W        W98893  39.304  27.362   4.475
27365W        W98894   0.678  37.860   2.781
27366W        W98895   3.233  26.752   1.940
27367W        W98896  29.596  36.841  11.113
27368W        W98897  13.338   6.912   4.080
27369W        W98898  43.581  14.837   2.876
27370W        W98899  44.410  43.283  11.194
27371W        W98900  41.869  14.089   1.003
27372W        W98901  23.180  23.094  11.499
27373W        W98902   2.762  37.703  12.441
27374W        W98903  36.961   1.560   4.104
27375W        W98904   8.625  18.965  11.553
27376W        W98905  37.334  31.318   3.645
27377W        W98906  41.594  35.068   3.783
27378W        W98907  21.070  11.594   1.461
27379W        W98908  28.069  28.453   3.609
27380W        W98909  18.680  44.392  14.846
27381W        W98910  34.504  41.632  13.580
27382W        W98911   0.212  27.490   1.364
27383W        W98912  17.174  44.545  12.381
27384W        W98913  33.349  31.449  12.115
27385W        W98914   4.433  43.662   4.933
27386W        W98915  21.704  11.088   2.885
27387W        W98916  41.441  29.301  11.554
27388W        W98917  10.569  39.158   1.313
27389W        W98918  15.253  25.948  13.399
27390W        W98919  16.164  41.927   2.913
27391W        W98920  25.179   6.784   4.237
27392W        W98921   4.706  20.320  11.432
27393W        W98922  18.067  38.952  12.164
27394W        W98923   6.191  23.819   0.566
27395W        W98924   6.197   4.418   2.718
27396W        W98925   9.425  34.859  13.102
27397W        W98926   2.004  11.386  12.116
27398W        W98927  37.417  17.479   2.702
27399W        W98928  28.986   0.619   3.516
27400W        W98929  21.487  20.685   0.865
27401W        W98930  16.988  23.968  12.383
27402W        W98931  12.375  43.955   4.498
27403W        W98932   4.830  16.640  13.338
27404W        W98933  23.520   8.309   3.303
27405W        W98934  43.304  44.904   3.159
27406W        W98935  28.395  28.482  14.895
27407W        W98936   3.633   2.899  10.449
27408W        W98937  36.127  39.375   2.844
27409W        W98938  19.196  10.138  14.382
27410W        W98939  33.155  36.045   3.249
27411W        W98940  37.270  31.726  14.926
27412W        W98941  42.952  41.261  14.429
27413W        W98942  12.537   7.296  12.374
27414W        W98943  37.859  10.923  11.502
27415W        W98944  37.938   8.985   0.984
27416W        W98945   9.280  16.261   4.576
27417W        W98946   6.956  39.509   1.866
27418W        W98947  13.522  43.977  12.043
27419W        W98948  21.570  19.115  11.920
27420W        W98949  44.920  22.075  11.085
27421W        W98950  29.625  34.126  14.055
27422W        W98951  31.499  31.683  10.900
27423W        W98952  20.611   1.138  12.983
27424W        W98953   5.501  26.545   3.124
27425W        W98954   7.623  32.105  13.419
27426W        W98955  38.957  37.473  12.225
27427W        W98956   9.717  10.443  13.549
27428W        W98957  20.774  44.445   0.259
27429W        W98958   5.351  34.383   1.406
27430W        W98959  43.972   7.748  10.756
27431W        W98960  29.180  16.730   4.249
27432W        W98961  25.748  23.673   5.098
27433W        W98962  10.970  22.478   2.411
27434W        W98963  10.599  30.489   0.945
27435W        W98964  29.612  16.384  14.966
27436W        W98965  27.236  13.219   1.920
27437W        W98966   2.911  30.885  14.343
27438W        W98967  17.268  16.086   2.680
27439W        W98968  23.223  23.567  11.699
27440W        W98969  14.345  20.102  11.617
27441W        W98970  34.867  39.361  14.966
27442W        W98971  13.093  10.111   2.675
27443W        W98972   9.280  41.907   1.267
27444W        W98973  26.252  26.526   0.855
27445W        W98974  38.451  25.241  14.877
27446W        W98975  23.903  27.176   1.907
27447W        W98976  30.129  11.308   4.513
27448W        W98977  32.414  33.199  14.910
27449W        W98978  30.119   2.286   2.612
27450W        W98979  28.504  10.441  12.118
27451W        W98980  39.867  30.965   2.898
27452W        W98981  22.329  34.451  13.810
27453W        W98982   1.536   2.323   0.307
27454W        W98983  40.039  23.884   4.849
27455W        W98984  14.320  29.956   0.419
27456W        W98985   2.263  32.492   3.094
27457W        W98986  28.237  18.771  13.958
27458W        W98987  13.528   8.780   3.284
27459W        W98988   3.366  28.545  14.266
27460W        W98989   4.787   1.154   2.746
27461W        W98990   2.463  24.187   2.222
27462W        W98991  40.814   1.190  11.612
27463W        W98992  34.701  20.686  11.205
27464W        W98993  21.196  17.367   3.176
27465W        W98994  20.503  19.153   4.271
27466W        W98995   4.722  37.018  12.599
27467W        W98996  10.691  23.933   2.628
27468W        W98997  27.883  12.047   1.234
27469W        W98998  30.928   8.270  12.602
27470W        W98999   2.461  34.561  10.292
27471W        W99000  18.748  35.680   3.047
27472W        W99001  17.626  38.926  10.174
27473W        W99002  39.359  26.075  10.951
27474W        W99003  29.479   2.665  11.019
27475W        W99004  23.085  38.978  14.372
27476W        W99005  22.174   6.658   2.384
27477W        W99006   1.867  31.990   4.616
27478W        W99007  27.472  36.526  10.770
27479W        W99008  33.872   9.716   1.901
27480W        W99009  22.044  28.839   3.153
27481W        W99010  31.510  34.348  11.798
27482W        W99011  19.134  28.195   2.240
27483W        W99012   2.392  31.056   3.230
27484W        W99013  14.183  37.646  12.889
27485W        W99014  11.591  14.842  11.855
27486W        W99015  11.942   5.765   3.195
27487W        W99016  38.913  27.975  12.638
27488W        W99017  22.646  38.480   4.597
27489W        W99018   7.626  31.664   2.618
27490W        W99019  42.099  31.131   0.750
27491W        W99020  15.813  10.474   5.399
27492W        W99021  13.628  34.769  13.794
27493W        W99022   4.385  32.741   0.356
27494W        W99023   7.153  17.047   4.528
27495W        W99024   1.061  19.312   3.350
27496W        W99025  12.378  31.873  12.070
27497W        W99026  19.747  28.597  12.942
27498W        W99027  15.194   1.793   3.632
27499W        W99028  27.546  28.645   2.066
27500W        W99029   7.238  28.425  11.614
27501W        W99030  37.448  34.580  14.264
27502W        W99031  10.086  11.774  13.566
27503W        W99032  15.012  41.352   4.290
27504W        W99033  12.112   7.163   0.411
27505W        W99034  23.606   8.055   2.460
27506W        W99035  22.183   0.757  13.923
27507W        W99036  14.088   8.139  12.550
27508W        W99037   3.861  32.022   4.851
27509W        W99038  15.177  20.497  11.870
27510W        W99039   1.544  38.103   4.114
27511W        W99040  43.083   4.057   3.709
27512W        W99041  31.412  34.669   0.246
27513W        W99042   4.566   2.816   4.727
27514W        W99043  19.065  33.380   3.834
27515W        W99044  29.675   8.208  11.841
27516W        W99045  24.203  22.788   2.684
27517W        W99046  32.461   9.204  11.099
27518W        W99047  41.737  10.948  13.270
27519W        W99048  17.065  26.055   3.923
27520W        W99049  19.050  29.749  12.975
27521W        W99050  34.699  29.252   2.778
27522W        W99051   4.852  22.460   2.163
27523W        W99052  32.610  21.124   2.734
27524W        W99053  15.379  10.287  13.435
27525W        W99054  22.418  28.172   4.018
27526W        W99055  30.639  41.542   4.529
27527W        W99056  11.600  34.354   1.184
27528W        W99057  11.616  33.453   0.698
27529W        W99058  31.146   8.914  11.049
27530W        W99059  29.666  43.247   2.710
27531W        W99060  17.794  14.755  11.703
27532W        W99061  21.552  33.687   0.478
27533W        W99062  12.074  23.238  14.763
27534W        W99063  39.756  10.529   4.345
27535W        W99064   5.628  26.065  14.350
27536W        W99065  37.987  16.785   0.274
27537W        W99066  32.969   2.618  12.086
27538W        W99067   0.554  23.153  11.921
27539W        W99068  34.091   9.638   0.460
27540W        W99069  26.429  34.817   2.257
27541W        W99070  36.781  16.663  11.205
27542W        W99071  17.261  26.005   0.349
27543W        W99072  37.871  36.257   1.794
27544W        W99073  43.796  32.354  12.083
27545W        W99074   8.298   9.719   4.575
27546W        W99075  41.916  42.872   2.349
27547W        W99076   5.294   1.487   3.348
27548W        W99077  31.100  37.465   4.425
27549W        W99078  18.708   0.526   0.857
27550W        W99079  18.246  27.838   4.597
27551W        W99080  42.472  10.202   0.715
27552W        W99081  29.628   8.748   3.111
27553W        W99082  32.161   5.067  11.142
27554W        W99083  36.502   5.478  10.576
27555W        W99084  26.345   4.511   4.154
27556W        W99085  13.298  30.037  12.698
27557W        W99086  32.805  40.607   1.991
27558W        W99087  22.672   0.768   2.520
27559W        W99088  11.897  29.804  13.767
27560W        W99089  30.014  40.062  12.518
27561W        W99090  10.681  32.982  14.330
27562W        W99091  19.048  22.965   4.429
27563W        W99092   6.557  35.870  14.999
27564W        W99093  13.680  38.117   3.712
27565W        W99094  39.010  28.591  13.359
27566W        W99095  12.360  22.967   3.366
27567W        W99096   8.631  19.391   3.035
27568W        W99097  28.460  27.533  14.926
27569W        W99098   4.083  39.291  14.349
27570W        W99099  43.931  23.636   2.822
27571W        W99100  15.764  21.248   2.407
27572W        W99101  38.663  35.071  11.708
27573W        W99102  32.611  34.067  14.543
27574W        W99103   4.256  23.318   1.700
27575W        W99104   3.635  27.038  13.837
27576W        W99105   8.620  27.515  12.067
27577W        W99106  34.128  38.488   3.901
27578W        W99107  22.976  28.467  12.855
27579W        W99108  41.230  39.064   4.036
27580W        W99109  13.567  10.139   2.175
27581W        W99110   7.706   8.651  14.421
27582W        W99111  25.704  31.322  14.411
27583W        W99112  11.360  32.582   0.783
27584W        W99113  20.321  32.548  12.023
27585W        W99114  10.745  34.145  11.237
27586W        W99115  25.634  20.230   2.652
27587W        W99116  25.113  29.964   0.693
27588W        W99117  32.942  29.158  11.098
27589W        W99118  23.566   3.212  10.490
27590W        W99119  28.065  28.930   3.397
27591W        W99120  22.961  42.929  12.949
27592W        W99121  34.518  22.503  11.463
27593W        W99122  24.978  24.258   3.523
27594W        W99123  39.433  12.568   1.654
27595W        W99124  24.954  17.285  14.907
27596W        W99125  24.753  37.480  13.964
27597W        W99126  21.559  43.550  14.783
27598W        W99127  18.797  23.731   3.233
27599W        W99128  38.243  28.486   4.541
27600W        W99129  35.115  10.196  12.601
27601W        W99130   1.014   4.765   0.566
27602W        W99131  13.850  24.116   2.314
27603W        W99132  39.039   9.326   4.244
27604W        W99133  30.030   5.230   3.889
27605W        W99134   4.248   3.644  13.948
27606W        W99135   6.878  26.160   3.241
27607W        W99136  31.160   7.394   3.289
27608W        W99137  20.024   8.201  13.537
27609W        W99138  41.546  39.532  12.121
27610W        W99139  22.031   5.887  14.553
27611W        W99140  32.589   3.381  12.651
27612W        W99141  27.877   1.255   3.312
27613W        W99142  34.364  17.424   0.351
27614W        W99143  27.719  25.526  13.284
27615W        W99144  13.688  42.989  14.915
27616W        W99145  38.095  31.606   0.965
27617W        W99146  13.350  24.035   2.354
27618W        W99147  32.018  37.547  11.299
27619W        W99148  41.118  18.424  12.580
27620W        W99149  13.035   8.879   3.262
27621W        W99150  28.848  13.126  11.125
27622W        W99151   2.461  10.291   2.422
27623W        W99152  20.256  41.963  11.519
27624W        W99153   6.219  43.425  14.311
27625W        W99154  27.876  32.223   0.500
27626W        W99155  10.365  27.063  10.533
27627W        W99156  29.577  16.838  11.405
27628W        W99157   1.057  39.930  13.868
27629W        W99158   5.607  12.645  12.990
27630W        W99159  28.084  29.018   2.427
27631W        W99160  40.697  26.951  14.186
27632W        W99161  22.191   2.550   3.228
27633W        W99162   4.169  37.812  11.667
27634W        W99163  33.545  33.065  11.926
27635W        W99164  25.933  37.582  12.959
27636W        W99165  13.400  11.947   1.818
27637W        W99166  10.299  21.586   4.172
27638W        W99167  42.717   9.410   0.031
27639W        W99168  25.523  33.487   5.069
27640W        W99169   5.379  14.328   1.470
27641W        W99170  23.425  36.879  14.922
27642W        W99171  21.174  42.584  11.581
27643W        W99172  34.497  34.353  13.614
27644W        W99173  29.565  21.112  13.331
27645W        W99174   9.611  22.216   0.137
27646W        W99175  26.318  29.063  10.092
27647W        W99176  19.782  35.943  11.125
27648W        W99177  22.530   0.215   1.798
27649W        W99178  33.850  29.616  11.064
27650W        W99179  18.375  27.099  10.488
27651W        W99180  40.519  24.268  11.570
27652W        W99181  32.545  27.969  13.524
27653W        W99182  20.654  34.336  11.155
27654W        W99183  23.071   5.407   1.800
27655W        W99184   7.406  14.198  10.690
27656W        W99185  33.889  17.794  10.527
27657W        W99186  11.064  13.260  14.273
27658W        W99187  20.230   3.457   2.739
27659W        W99188  43.005  11.331  10.553
27660W        W99189   9.501  31.480  11.945
27661W        W99190  23.108  44.285  10.983
27662W        W99191  35.294  25.110   0.834
27663W        W99192   4.198  19.703  13.449
27664W        W99193   5.721  39.874  13.743
27665W        W99194  32.509  37.306  13.933
27666W        W99195   4.379  18.050  13.286
27667W        W99196   6.000  33.586   0.355
27668W        W99197  28.028   5.172   2.215
27669W        W99198  21.168  32.352  13.862
27670W        W99199  42.861  18.692  12.464
27671W        W99200  13.843  30.547  11.298
27672W        W99201   4.009   7.839  14.547
27673W        W99202  16.828   9.116  14.248
27674W        W99203  17.256  24.662  12.325
27675W        W99204  13.173   6.167   4.576
27676W        W99205  14.310  41.139  12.503
27677W        W99206  32.442  38.637  13.290
27678W        W99207  14.303  11.635   0.808
27679W        W99208  15.151   5.339  13.413
27680W        W99209  20.457   1.660  11.107
27681W        W99210   1.343   1.180   4.200
27682W        W99211   5.481   1.187  13.027
27683W        W99212   4.709  36.439  11.079
27684W        W99213  18.574   7.320   0.640
27685W        W99214  27.199  31.141  13.992
27686W        W99215  20.068   2.390  12.062
27687W        W99216  30.548  22.635  12.532
27688W        W99217  30.042  14.594   0.397
27689W        W99218  25.518  22.563   2.093
27690W        W99219  40.038  29.872  12.857
27691W        W99220  22.009  15.337   1.546
27692W        W99221  14.660  30.637   5.282
27693W        W99222  23.487   7.880  14.729
27694W        W99223  24.484   6.365  14.790
27695W        W99224  37.180  19.618   4.775
27696W        W99225  38.279  32.465   0.152
27697W        W99226  19.831  23.163  14.872
27698W        W99227  24.151  28.232  14.381
27699W        W99228  27.056  14.819   3.783
27700W        W99229   8.562  41.184   4.419
27701W        W99230  20.747   2.033   4.597
27702W        W99231  31.551  12.083   0.810
27703W        W99232  40.978  39.361   3.100
27704W        W99233   3.820  18.336   3.550
27705W        W99234  24.483  43.738  12.870
27706W        W99235  15.636  29.632   3.389
27707W        W99236  29.780   7.267   0.340
27708W        W99237  34.274  37.509   3.782
27709W        W99238   4.894  41.695   4.084
27710W        W99239   2.125  40.745  13.532
27711W        W99240  32.472  10.676   3.168
27712W        W99241  14.880  29.718  11.004
27713W        W99242   8.909   0.109  12.558
27714W        W99243  29.386  24.096  14.747
27715W        W99244  39.022  21.248  12.379
27716W        W99245   8.880  42.305  13.858
27717W        W99246  24.775  22.231  13.069
27718W        W99247   2.163  11.971  14.355
27719W        W99248  29.425  37.115   3.202
27720W        W99249  37.683  40.335   2.681
27721W        W99250  19.622   6.456   3.239
27722W        W99251  37.870  40.396   4.071
27723W        W99252  44.824  22.348  14.884
27724W        W99253  24.730  14.105  12.690
27725W        W99254  23.914  43.006  12.768
27726W        W99255  26.904  11.342   2.626
27727W        W99256  36.205  44.331   3.310
27728W        W99257  20.633  11.172  13.027
27729W        W99258   5.935   0.490   0.083
27730W        W99259   3.399  19.161   1.436
27731W        W99260  40.129   9.111   4.270
27732W        W99261   6.276  44.448  14.303
27733W        W99262  30.907  42.744   0.924
27734W        W99263  15.127  17.098  11.979
27735W        W99264   6.415  16.724  10.174
27736W        W99265  38.416  32.610  14.169
27737W        W99266  19.356  32.697   3.248
27738W        W99267   5.855  34.873   2.764
27739W        W99268   5.537  10.421  11.117
27740W        W99269  44.698  20.354   0.718
27741W        W99270  13.909  15.152  11.588
27742W        W99271  33.470   5.711   4.678
27743W        W99272  12.370  22.281  11.177
27744W        W99273  43.236  24.658   2.201
27745W        W99274   0.857  19.079  11.435
27746W        W99275   8.314  38.929   0.776
27747W        W99276   9.194  22.240   0.873
27748W        W99277  21.247  38.443   5.454
27749W        W99278  40.319  12.218   1.269
27750W        W99279  38.040  34.254  13.532
27751W        W99280  42.732  15.328   4.888
27752W        W99281  41.460  27.801   0.792
27753W        W99282  42.881  44.058  14.428
27754W        W99283   5.225  44.078   1.738
27755W        W99284  21.226   4.311  13.927
27756W        W99285  34.335  14.935   3.340
27757W        W99286  30.588  24.548  11.390
27758W        W99287  29.593  36.041  14.764
27759W        W99288  20.218  29.308  12.414
27760W        W99289  12.653  42.012   3.726
27761W        W99290   3.946  35.646  11.461
27762W        W99291   7.967  15.845  13.492
27763W        W99292  36.978  21.469   1.172
27764W        W99293  35.348  28.479   1.968
27765W        W99294  42.354  41.502   1.992
27766W        W99295   4.706  14.812   2.075
27767W        W99296   6.144  17.622  14.331
27768W        W99297  37.375   2.959   2.743
27769W        W99298  15.935  30.869   2.016
27770W        W99299  42.979  41.858  13.017
27771W        W99300  10.276   3.524  11.977
27772W        W99301  44.736  29.885  12.489
27773W        W99302  10.935  42.549   2.854
27774W        W99303  19.558  32.404  11.135
27775W        W99304  25.695   2.601  12.462
27776W        W99305   1.701   2.166  14.328
27777W        W99306  34.782   0.596  12.679
27778W        W99307  31.076   0.302  13.803
27779W        W99308  34.130  39.757  11.106
27780W        W99309  31.143  37.032  12.408
27781W        W99310  26.963  35.249   1.180
27782W        W99311  44.560  25.309  13.442
27783W        W99312  26.360  13.785   4.077
27784W        W99313  16.292  18.639  11.376
27785W        W99314  43.451  33.425   0.334
27786W        W99315  11.952  22.481  10.972
27787W        W99316  27.757  36.967   3.591
27788W        W99317   7.802  17.600  11.546
27789W        W99318  37.997  30.460   4.601
27790W        W99319  32.101  27.207  13.136
27791W        W99320   4.362  30.899   3.719
27792W        W99321   9.307  30.989  11.966
27793W        W99322  33.595  43.507   3.719
27794W        W99323  25.738   7.244   0.374
27795W        W99324  33.907   9.620   4.708
27796W        W99325   6.465   6.849   2.469
27797W        W99326  23.036   6.156  12.529
27798W        W99327  40.567  37.918  14.521
27799W        W99328  26.189  14.016   0.349
27800W        W99329  18.242  41.958   0.621
27801W        W99330  42.872   7.916  10.584
27802W        W99331  20.392  34.971   3.341
27803W        W99332  28.075   2.385  10.795
27804W        W99333  29.735  36.303   1.642
27805W        W99334   8.411  13.534   2.840
27806W        W99335  41.574  32.415   3.224
27807W        W99336  12.144  30.968   0.352
27808W        W99337   5.792  11.165   4.575
27809W        W99338   4.223   9.273   3.719
27810W        W99339  43.103  38.755   5.078
27811W        W99340  33.393  33.267   3.717
27812W        W99341  37.513  18.715   3.648
27813W        W99342  30.984  15.849   4.968
27814W        W99343  35.962  25.239   0.131
27815W        W99344  43.361  41.613   2.857
27816W        W99345   8.140  15.273  14.830
27817W        W99346  29.961  43.270  14.895
27818W        W99347  27.303  34.196  11.589
27819W        W99348  38.737  38.871  11.243
27820W        W99349   7.417   4.937   3.359
27821W        W99350  32.139  22.547  13.995
27822W        W99351  39.407  26.401   3.311
27823W        W99352  37.292  11.278  13.752
27824W        W99353  23.754   7.990   2.938
27825W        W99354   7.748  36.616  14.058
27826W        W99355  37.447  35.545   4.318
27827W        W99356  14.834   4.641  11.939
27828W        W99357  10.075   2.415  14.472
27829W        W99358  18.684  38.411   0.861
27830W        W99359  22.741  25.022   3.803
27831W        W99360   8.169   5.845  11.063
27832W        W99361  12.359   6.720   3.192
27833W        W99362  40.714  21.146  14.538
27834W        W99363   6.246  23.256  12.970
27835W        W99364   9.301  22.856  12.688
27836W        W99365  36.273  35.842  13.582
27837W        W99366  27.460  25.730  11.022
27838W        W99367   2.504  33.194  14.751
27839W        W99368  41.340  31.700   2.357
27840W        W99369   6.978  44.319  14.935
27841W        W99370   1.354  26.626   1.757
27842W        W99371  27.057  23.677   0.298
27843W        W99372  25.449  37.608  13.220
27844W        W99373  13.778  31.429  12.390
27845W        W99374  15.214  33.451   3.699
27846W        W99375  40.539   7.663   4.080
27847W        W99376   1.287  14.623  14.738
27848W        W99377  44.540  35.613  14.126
27849W        W99378  13.252  11.123  13.588
27850W        W99379  19.361  10.656  10.433
27851W        W99380  15.846   9.674   0.759
27852W        W99381  31.032  26.479   0.770
27853W        W99382  32.758  41.162  14.298
27854W        W99383   8.640  38.463   3.679
27855W        W99384  11.761  44.485   1.831
27856W        W99385  18.738  38.837  14.993
27857W        W99386  31.636  10.341  13.834
27858W        W99387  15.616  11.387  14.049
27859W        W99388  19.415  17.032   4.166
27860W        W99389  13.818  16.554   3.214
27861W        W99390  30.445  29.532   3.182
27862W        W99391  34.976  33.882  11.096
27863W        W99392   5.098   3.665  12.378
27864W        W99393  33.410   2.320   0.658
27865W        W99394  22.488  24.415   0.326
27866W        W99395  39.729   6.798   1.396
27867W        W99396  26.603  31.920  10.456
27868W        W99397  37.966  41.921   4.535
27869W        W99398  12.176   3.263   2.682
27870W        W99399  20.192  10.920   3.218
27871W        W99400  36.584   9.868  10.413
27872W        W99401  42.126  16.231   1.546
27873W        W99402  42.735  27.677   4.440
27874W        W99403  42.444  28.091   2.882
27875W        W99404  43.003  41.897  10.754
27876W        W99405  11.079   6.327  14.493
27877W        W99406  26.902   7.790  11.518
27878W        W99407  29.108   2.262  13.178
27879W        W99408   2.148  20.450  13.015
27880W        W99409   5.036   0.899   0.260
27881W        W99410  33.548   8.274  13.316
27882W        W99411   6.812  44.613  14.537
27883W        W99412  20.290   4.808   4.319
27884W        W99413  25.012  32.987   0.150
27885W        W99414  43.882  35.167   2.991
27886W        W99415  30.967  23.773   3.209
27887W        W99416  18.582  43.464  11.289
27888W        W99417  18.727  11.222  10.716
27889W        W99418  26.578  43.336  11.655
27890W        W99419   3.785  30.935  14.330
27891W        W99420  43.098  42.817   1.265
27892W        W99421   9.357  43.435   0.724
27893W        W99422  38.532  11.903  10.742
27894W        W99423  10.953  36.956  11.201
27895W        W99424  28.022   2.468  13.474
27896W        W99425   2.327   5.358   1.491
27897W        W99426   1.718  42.489  11.103
27898W        W99427  37.194  37.821   1.887
27899W        W99428   8.262   9.388  11.945
27900W        W99429  19.976  27.940   5.021
27901W        W99430  18.318  31.204   4.669
27902W        W99431  20.036  37.843   3.254
27903W        W99432  27.491   3.328   2.708
27904W        W99433  32.603  15.523  12.682
27905W        W99434   2.999   6.778   3.616
27906W        W99435  25.601  13.176   4.597
27907W        W99436  14.336  26.299  13.115
27908W        W99437  44.467   1.996   1.415
27909W        W99438  43.786  27.739   4.088
27910W        W99439  35.450   7.825  11.214
27911W        W99440  16.982  25.923  14.365
27912W        W99441  30.964  37.295  12.843
27913W        W99442  36.627  23.157   2.192
27914W        W99443   3.405  11.144  13.782
27915W        W99444   2.702  19.717   2.720
27916W        W99445  27.143   3.917  13.325
27917W        W99446   9.285  39.932  11.204
27918W        W99447  11.854  36.221  11.608
27919W        W99448  44.977   8.249  12.960
27920W        W99449   6.825  28.566   4.710
27921W        W99450   8.338  18.500  13.152
27922W        W99451  33.035   7.420  12.577
27923W        W99452  29.631  26.466   3.633
27924W        W99453   7.339  33.048   1.424
27925W        W99454  25.177   6.032  11.540
27926W        W99455  17.377   9.928  10.047
27927W        W99456  16.859  33.052  13.603
27928W        W99457  39.901  42.286  13.551
27929W        W99458  22.144  39.656   2.696
27930W        W99459  28.101  10.821   0.096
27931W        W99460  24.591  13.278   4.810
27932W        W99461  42.825  41.067  13.958
27933W        W99462   5.997  31.279  14.381
27934W        W99463  44.441   4.877   1.421
27935W        W99464  26.114  19.133  11.981
27936W        W99465  11.973  14.142   3.744
27937W        W99466  14.111  35.386   0.798
27938W        W99467  15.620  44.010   3.620
27939W        W99468  32.330  11.583   2.784
27940W        W99469  23.259  31.025   0.424
27941W        W99470  15.245  35.412  10.710
27942W        W99471  20.137   0.314  14.966
27943W        W99472  43.040  16.490  12.488
27944W        W99473  21.562  33.556  14.012
27945W        W99474  41.810  23.805   2.790
27946W        W99475  23.307   3.750   1.442
27947W        W99476   7.778  10.686  13.301
27948W        W99477  35.443   5.188  12.978
27949W        W99478  30.031  16.456   2.751
27950W        W99479  40.342  42.033  13.301
27951W        W99480  17.719  33.183   2.188
27952W        W99481  24.950  35.866   4.922
27953W        W99482  32.540   4.069  11.026
27954W        W99483  26.100   4.156   1.270
27955W        W99484  32.864  27.418  11.947
27956W        W99485  41.860  18.016   1.709
27957W        W99486  30.507  37.802   3.900
27958W        W99487  35.277  25.470  12.638
27959W        W99488  10.301  32.926   2.293
27960W        W99489  12.393  16.594  13.930
27961W        W99490  17.720  39.964  14.757
27962W        W99491   4.450  11.149  14.045
27963W        W99492   1.694  37.534   1.234
27964W        W99493  37.291  33.782   3.652
27965W        W99494  32.868  18.758   1.689
27966W        W99495  44.979   2.246  11.431
27967W        W99496  36.844  33.392  12.920
27968W        W99497  25.186  24.885  12.338
27969W        W99498   8.753  12.755   1.778
27970W        W99499  22.808  11.888   1.810
27971W        W99500  39.003  22.405  13.412
27972W        W99501  30.549   6.544  10.989
27973W        W99502   9.696  15.359   3.743
27974W        W99503  44.737  23.976   1.376
27975W        W99504  35.855  24.846  10.716
27976W        W99505   9.849  29.910   2.892
27977W        W99506  18.932   3.393   3.198
27978W        W99507  28.927  17.537   1.314
27979W        W99508  19.249   7.323   2.665
27980W        W99509  35.083  21.058   1.464
27981W        W99510  27.091  32.977  13.799
27982W        W99511  33.999  43.814   4.401
27983W        W99512  33.471  15.142   4.293
27984W        W99513  27.980   1.727  12.954
27985W        W99514   0.462  39.506  12.431
27986W        W99515  23.190  24.500  11.605
27987W        W99516  35.515  19.486   2.770
27988W        W99517  30.650  38.565  13.624
27989W        W99518  31.987   7.654  13.977
27990W        W99519  34.900  19.567  11.499
27991W        W99520   1.653  35.197  13.979
27992W        W99521  31.046  31.035  13.374
27993W        W99522   0.763   1.175   3.064
27994W        W99523  41.835  27.366   4.790
27995W        W99524  26.620  28.180  10.306
27996W        W99525  27.233   0.449  14.912
27997W        W99526  43.009  40.203  12.600
27998W        W99527  15.354  19.568  11.072
27999W        W99528  19.174  22.395  12.075
28000W        W99529  18.846  11.686  13.748
28001W        W99530  23.092   9.139  13.379
28002W        W99531  44.038   1.036  12.805
28003W        W99532  31.383  17.677  12.849
28004W        W99533  37.934  24.628   1.814
28005W        W99534  11.356  27.152   4.049
28006W        W99535  14.932   9.344  11.615
28007W        W99536  32.566  30.517  11.172
28008W        W99537   0.303   1.382  11.246
28009W        W99538  34.671   9.917  14.288
28010W        W99539  14.211  32.170  10.813
28011W        W99540  20.463  27.953   1.701
28012W        W99541  25.711  42.281  14.711
28013W        W99542   2.668  25.492  13.875
28014W        W99543  22.654  29.698   0.800
28015W        W99544  16.764  22.508   3.336
28016W        W99545   5.915  23.481   2.316
28017W        W99546   9.631  28.088  12.577
28018W        W99547   2.514  17.674   0.343
28019W        W99548  23.961  12.111   2.854
28020W        W99549  32.584   5.113   2.866
28021W        W99550   5.257  44.609   1.735
28022W        W99551   3.091  25.243   2.828
28023W        W99552  30.202   5.287  12.525
28024W        W99553  23.174  41.016  12.100
28025W        W99554  22.059   8.640   4.074
28026W        W99555  11.464  32.725  11.598
28027W        W99556  40.866   6.177   4.114
28028W        W99557  28.963  21.111  12.469
28029W        W99558   0.528   4.218  14.508
28030W        W99559   9.889  25.743   1.501
28031W        W99560  10.703  13.040  11.158
28032W        W99561  42.116   6.410  14.463
28033W        W99562   7.521  40.369   2.625
28034W        W99563  27.399  38.900  11.106
28035W        W99564  38.094  15.647   4.265
28036W        W99565  21.077  27.125  14.319
28037W        W99566   1.077  27.965  13.408
28038W        W99567  30.676  16.622  11.565
28039W        W99568   7.287  19.575  13.890
28040W        W99569  13.212  38.683  13.962
28041W        W99570  17.703  10.329  10.636
28042W        W99571   3.262  35.636   4.557
28043W        W99572  39.466  32.607  11.297
28044W        W99573   2.321  32.826  13.874
28045W        W99574  20.807  10.386  14.750
28046W        W99575  43.916  28.123   2.356
28047W        W99576   3.689   2.954  11.530
28048W        W99577   9.704  22.155  13.797
28049W        W99578  35.279  22.507   4.797
28050W        W99579  12.423  10.602   0.317
28051W        W99580   4.877  17.675   0.614
28052W        W99581  28.763  17.739   1.810
28053W        W99582  41.032  15.743  14.340
28054W        W99583   6.776  38.168   4.518
28055W        W99584   5.670  39.338   1.281
28056W        W99585  37.414  18.811   2.207
28057W        W99586  36.446  34.416   1.059
28058W        W99587   3.494  23.728  12.686
28059W        W99588  40.976  30.045   3.564
28060W        W99589  40.808   2.151  12.129
28061W        W99590  41.548  16.746  12.574
28062W        W99591  32.673  16.416   2.736
28063W        W99592  18.898  17.154   4.368
28064W        W99593  30.432  40.119  11.127
28065W        W99594  22.912  37.832  14.451
28066W        W99595  36.094  20.246  14.029
28067W        W99596   7.581  28.776  10.711
28068W        W99597  33.483  40.430   1.642
28069W        W99598  24.794  26.533  14.730
28070W        W99599  14.257  14.710   3.227
28071W        W99600  17.398   6.441  14.458
28072W        W99601  37.758  29.385   3.817
28073W        W99602  12.925  39.567  13.954
28074W        W99603  35.017  24.507   4.435
28075W        W99604  11.496  24.482   1.358
28076W        W99605  22.148  28.527  11.675
28077W        W99606  36.345  28.444  14.903
28078W        W99607   5.901  40.366  13.783
28079W        W99608  29.975  33.946   0.729
28080W        W99609  37.225  27.179  11.126
28081W        W99610  13.869  34.001   3.180
28082W        W99611  13.731  18.734  13.576
28083W        W99612   2.066  36.129  13.161
28084W        W99613  27.665  30.651   2.168
28085W        W99614  31.904   5.877  10.778
28086W        W99615  38.910  30.540  11.738
28087W        W99616  29.605  19.725   1.816
28088W        W99617  23.179  41.517   3.317
28089W        W99618  13.758   4.236   4.621
28090W        W99619   9.208   4.983  12.572
28091W        W99620  11.592  37.522   2.214
28092W        W99621   6.730  13.444   2.408
28093W        W99622  23.891  32.783   1.902
28094W        W99623  18.079  27.350   2.251
28095W        W99624  21.321  16.038  14.671
28096W        W99625  41.907   4.182   0.481
28097W        W99626  37.518  19.410   1.274
28098W        W99627   3.261  38.916  13.978
28099W        W99628  23.752  30.153   1.324
28100W        W99629  38.999  27.416   2.592
28101W        W99630   6.466  13.686   4.323
28102W        W99631  31.162  42.466  12.104
28103W        W99632  28.693   5.500   0.356
28104W        W99633  40.065  16.905   4.772
28105W        W99634   2.768   2.895   3.169
28106W        W99635  41.266  25.701  13.530
28107W        W99636   5.089  27.623   1.812
28108W        W99637  38.081  31.803  14.319
28109W        W99638  26.204  40.983  12.903
28110W        W99639  17.609   3.446  13.968
28111W        W99640  30.736  13.547  11.442
28112W        W99641  36.485  22.929   0.224
28113W        W99642   6.677   3.284   1.862
28114W        W99643  35.702  13.074  11.327
28115W        W99644  43.768   9.175   2.344
28116W        W99645  13.284   0.505   3.124
28117W        W99646  36.393  35.871   4.082
28118W        W99647  29.623   9.432   0.691
28119W        W99648  42.319  16.085  12.750
28120W        W99649  24.513  26.733   1.106
28121W        W99650  19.658  30.419   1.921
28122W        W99651   3.176   4.008  14.903
28123W        W99652   0.897  32.303   3.664
28124W        W99653  10.023   6.836   3.749
28125W        W99654  23.622  39.513   2.026
28126W        W99655  29.962  20.082   4.658
28127W        W99656  30.194   1.395  12.163
28128W        W99657  38.286  22.327   4.083
28129W        W99658   5.689  11.550   2.837
28130W        W99659   3.625  15.858  12.588
28131W        W99660  30.051   2.990  12.832
28132W        W99661  29.472   6.635   3.657
28133W        W99662  24.093  35.128   3.159
28134W        W99663  27.005   8.139   4.764
28135W        W99664   0.280   9.581   4.468
28136W        W99665   6.787  26.534   1.074
28137W        W99666  20.795  14.334  10.714
28138W        W99667   5.348  35.960  10.763
28139W        W99668  36.851  25.113   1.278
28140W        W99669  18.648  25.364   1.297
28141W        W99670   5.672  42.628   4.969
28142W        W99671  21.070  13.794   0.675
28143W        W99672  30.945  30.961  10.721
28144W        W99673  24.468   0.998  13.516
28145W        W99674  38.376  18.818   2.723
28146W        W99675  35.638   0.278   2.334
28147W        W99676  27.749  42.312  13.099
28148W        W99677   6.335  17.462   0.378
28149W        W99678  19.308   5.278   2.738
28150W        W99679  15.628   9.856  13.220
28151W        W99680   3.896  41.322  10.698
28152W        W99681  40.082  38.338   0.725
28153W        W99682  28.563  38.029  13.993
28154W        W99683  13.129   4.222  11.495
28155W        W99684  41.868  10.437   3.631
28156W        W99685  12.373  39.171   1.505
28157W        W99686   4.135   1.600  12.910
28158W        W99687  41.212   7.228  14.519
28159W        W99688  21.348  41.878   9.933
28160W        W99689  30.454   6.259  11.449
28161W        W99690  13.264  19.148   1.348
28162W        W99691  15.820  39.963  10.699
28163W        W99692  18.597  26.713   1.382
28164W        W99693  11.117  25.151   2.439
28165W        W99694  41.932  41.753   4.036
28166W        W99695   4.356  16.723  13.490
28167W        W99696   7.372   7.677   4.331
28168W        W99697  30.536  27.519  14.484
28169W        W99698  18.805  33.958   2.727
28170W        W99699  14.054  12.138  14.497
28171W        W99700  30.235   5.813  12.475
28172W        W99701  28.477  16.662  12.896
28173W        W99702   0.114  33.456  14.325
28174W        W99703   3.452  39.998   3.423
28175W        W99704  28.668  20.718  10.740
28176W        W99705  17.079  18.596   5.116
28177W        W99706  31.665  43.102  10.562
28178W        W99707  40.580  24.609  12.519
28179W        W99708  42.900  16.993  12.534
28180W        W99709   7.200  35.694   3.239
28181W        W99710  27.994  18.346  14.280
28182W        W99711  37.429  15.376  10.801
28183W        W99712   7.128  16.969   1.826
28184W        W99713  21.596  13.808   3.725
28185W        W99714  17.985   9.439  12.769
28186W        W99715  14.678  12.945   1.179
28187W        W99716  12.043  10.381  10.193
28188W        W99717  36.871  37.562  11.410
28189W        W99718  21.614  21.205   0.904
28190W        W99719  31.947  34.173   0.858
28191W        W99720  32.204  44.167  10.165
28192W        W99721  39.168  17.204   5.407
28193W        W99722  26.447  12.160   0.267
28194W        W99723  37.962   5.785   3.611
28195W        W99724   3.540   2.822  13.368
28196W        W99725  39.634  36.424   0.479
28197W        W99726   0.729  41.024   0.868
28198W        W99727  30.693  17.205   2.677
28199W        W99728  20.834  24.955   3.178
28200W        W99729  21.691  21.014  13.962
28201W        W99730  11.842   1.479   0.412
28202W        W99731  29.214   1.892   3.480
28203W        W99732  10.497  12.573   2.082
28204W        W99733  33.902  31.403  13.855
28205W        W99734  41.065  13.310  14.509
28206W        W99735  10.731   5.286   0.939
28207W        W99736   9.367  10.862   3.666
28208W        W99737  35.826  44.321  12.446
28209W        W99738  28.392  44.435   2.845
28210W        W99739  30.618  19.300   0.473
28211W        W99740  41.992  36.342  13.007
28212W        W99741  41.948  13.598  12.381
28213W        W99742   4.905  22.755  14.717
28214W        W99743   1.692  38.605   4.173
28215W        W99744  26.088  14.760   4.262
28216W        W99745  12.229  10.823  14.007
28217W        W99746  10.858   2.789  13.391
28218W        W99747  43.827  24.031   3.778
28219W        W99748  21.225   8.339   4.649
28220W        W99749  43.803  13.574  11.130
28221W        W99750   8.782  15.255  13.161
28222W        W99751   8.484  30.000  12.378
28223W        W99752  28.913  16.251   1.938
28224W        W99753   1.926  12.211  11.655
28225W        W99754  24.899  19.101   0.319
28226W        W99755  36.372  41.883   3.783
28227W        W99756   8.845  15.878  13.358
28228W        W99757  10.843  33.485   2.944
28229W        W99758  17.253  43.383  13.059
28230W        W99759  13.588  44.493  14.255
28231W        W99760  24.523  42.640   3.171
28232W        W99761  12.442  33.604  11.380
28233W        W99762  31.986  20.808  12.411
28234W        W99763   1.008  18.792   3.438
28235W        W99764  10.440  33.501  11.931
28236W        W99765  21.657  11.622  14.331
28237W        W99766  12.546  11.251   4.094
28238W        W99767   5.568  23.910   3.122
28239W        W99768  38.504   2.379  14.721
28240W        W99769  10.087  28.599   3.632
28241W        W99770  18.302   6.855   0.549
28242W        W99771   9.862  36.874   2.727
28243W        W99772  21.949  17.656  10.911
28244W        W99773  23.962  32.387   2.742
28245W        W99774  13.858  20.165   5.076
28246W        W99775  10.708  31.924   4.590
28247W        W99776  19.454  11.104  11.204
28248W        W99777  17.500   7.728  10.741
28249W        W99778   6.201   8.540  13.646
28250W        W99779  25.123  44.129  10.673
28251W        W99780  31.798  41.275   3.805
28252W        W99781  14.314   9.905   1.760
28253W        W99782  25.990  42.859  13.913
28254W        W99783   5.303  44.335   1.286
28255W        W99784  16.278   1.874  11.460
28256W        W99785  30.892  21.168  12.997
28257W        W99786  21.584  42.036  13.023
28258W        W99787  20.062   4.203  11.480
28259W        W99788  35.500  10.682  11.880
28260W        W99789  21.309  40.020  11.462
28261W        W99790  22.504  17.562   0.728
28262W        W99791  34.475  12.338   0.231
28263W        W99792   5.187  42.786  10.926
28264W        W99793  42.818  42.902   1.711
28265W        W99794   3.149  40.040  11.546
28266W        W99795  41.460  12.605   3.426
28267W        W99796  21.391   3.382  13.929
28268W        W99797  23.278  24.972   4.068
28269W        W99798  15.175  34.960   3.747
28270W        W99799   4.770  37.708  14.494
28271W        W99800   7.764  33.040   4.742
28272W        W99801  10.574  39.212  10.650
28273W        W99802  19.765  11.599   1.787
28274W        W99803   0.355  20.951  14.018
28275W        W99804   5.902  24.966   3.718
28276W        W99805  40.118   2.368   0.924
28277W        W99806  21.172  36.214  11.518
28278W        W99807  15.765  42.972  10.633
28279W        W99808  36.519  42.968   1.168
28280W        W99809  38.987  42.689   3.159
28281W        W99810  17.443  43.730   2.946
28282W        W99811  23.266  25.054  14.338
28283W        W99812  22.592  15.081  11.285
28284W        W99813   1.226  18.142   3.398
28285W        W99814  21.628  44.298   1.856
28286W        W99815  17.309  30.105   1.949
28287W        W99816   4.482   5.508   2.923
28288W        W99817  13.217  29.095   3.542
28289W        W99818  27.067   6.400  11.834
28290W        W99819  22.619  11.316  11.168
28291W        W99820  12.480  38.939  14.468
28292W        W99821   7.378   7.388   0.764
28293W        W99822  40.775  24.001   0.310
28294W        W99823  22.530   4.607  11.485
28295W        W99824  24.575  12.249   4.597
28296W        W99825  26.480  32.322   1.308
28297W        W99826   1.738  15.638   2.367
28298W        W99827  21.078   6.203   1.594
28299W        W99828   7.656  29.476  13.835
28300W        W99829  20.624  14.002  12.465
28301W        W99830  23.604  10.276   1.600
28302W        W99831  20.268  17.603  11.213
28303W        W99832  20.804  34.459  12.534
28304W        W99833   1.999  25.497  14.575
28305W        W99834  42.687  27.072   4.113
28306W        W99835   8.566  34.432   3.817
28307W        W99836  15.441  29.572  10.915
28308W        W99837  38.912   1.546  11.980
28309W        W99838  39.001   5.365  14.015
28310W        W99839  36.356  43.427  14.128
28311W        W99840  23.997   4.436   4.060
28312W        W99841   1.333  21.509  13.021
28313W        W99842  16.537  20.107   3.283
28314W        W99843  27.259  33.205   0.884
28315W        W99844  25.160   8.683  12.523
28316W        W99845   3.698   2.242  10.505
28317W        W99846  38.059   2.317  14.448
28318W        W99847  17.334  25.681  12.509
28319W        W99848  33.983  20.233   4.398
28320W        W99849  37.817  30.189   4.197
28321W        W99850  20.983   0.293  14.992
28322W        W99851  25.512  29.071   2.814
28323W        W99852  44.207   0.807  10.727
28324W        W99853  43.210  24.788  12.681
28325W        W99854  23.166  26.701   0.341
28326W        W99855  14.467  10.736  14.371
28327W        W99856  41.269  40.261   0.986
28328W        W99857  34.437  10.324  11.646
28329W        W99858  17.538   9.050   0.413
28330W        W99859  17.302  32.113   4.623
28331W        W99860  36.744   4.756   0.335
28332W        W99861  29.167  43.644  14.532
28333W        W99862  25.098  22.182  14.381
28334W        W99863  36.322  32.054   5.044
28335W        W99864  42.316  31.714  13.074
28336W        W99865  36.133   1.501   3.683
28337W        W99866  17.545  16.301   0.808
28338W        W99867  13.300   7.605   3.670
28339W        W99868  39.899   3.871  11.508
28340W        W99869   9.376  44.185  11.508
28341W        W99870  27.791  22.265  12.181
28342W        W99871  36.932  30.198  11.965
28343W        W99872  10.027  41.033   2.774
28344W        W99873   5.566   7.624  11.595
28345W        W99874  13.751  35.964  11.468
28346W        W99875  16.373   4.603  14.308
28347W        W99876  34.114  10.740  14.868
28348W        W99877  32.359  17.199  13.240
28349W        W99878   1.034   3.420  14.350
28350W        W99879   9.290  33.835   4.198
28351W        W99880  31.487  26.764   1.901
28352W        W99881   4.201  11.601   1.863
28353W        W99882  30.886  24.153   0.945
28354W        W99883  38.126  22.168   2.585
28355W        W99884  18.127  19.663   2.676
28356W        W99885  41.259  29.898  14.737
28357W        W99886   3.859  32.746   9.731
28358W        W99887  42.838  31.650  11.519
28359W        W99888  18.998   8.229  14.484
28360W        W99889  15.657  36.649  10.514
28361W        W99890  35.079  30.412  11.125
28362W        W99891  36.979   8.154  11.703
28363W        W99892  26.076  15.371   4.340
28364W        W99893   4.885  17.572  13.798
28365W        W99894  19.540   3.372   4.102
28366W        W99895   2.364  41.909   3.283
28367W        W99896   0.583   5.509   9.947
28368W        W99897  19.720  37.798   4.678
28369W        W99898  35.330  22.212  14.173
28370W        W99899  17.552   9.570  14.510
28371W        W99900  11.120  30.923   3.609
28372W        W99901   6.631  11.561   0.419
28373W        W99902  43.398  26.546  12.370
28374W        W99903   5.756  35.083   4.873
28375W        W99904  10.744  32.052  12.890
28376W        W99905  26.408  18.718   3.965
28377W        W99906  21.280  36.464   1.228
28378W        W99907  36.585   9.426   4.524
28379W        W99908  15.586  15.264  10.665
28380W        W99909  10.847  25.693   3.194
28381W        W99910  12.733  23.346   3.335
28382W        W99911  15.953   7.044   1.244
28383W        W99912  19.343  38.228   2.551
28384W        W99913  35.568  38.022   1.395
28385W        W99914  43.745  24.446   2.083
28386W        W99915  27.131   8.147  12.836
28387W        W99916  43.507  37.479  14.319
28388W        W99917   3.311  35.040  13.022
28389W        W99918  19.482  43.647  11.492
28390W        W99919  16.752   5.707  11.523
28391W        W99920  19.117  14.143  12.495
28392W        W99921  10.912  20.799  11.471
28393W        W99922   6.479  41.260  12.173
28394W        W99923  22.222  23.063  10.432
28395W        W99924  44.248  20.710  14.039
28396W        W99925  38.446  43.890   0.418
28397W        W99926  11.162   4.396   1.166
28398W        W99927  38.793  16.375  13.001
28399W        W99928  43.501   2.680  13.998
28400W        W99929  35.138  43.693  10.754
28401W        W99930  35.566  25.531  13.055
28402W        W99931  35.334  29.604   3.819
28403W        W99932  24.157  25.068  10.312
28404W        W99933   9.753  20.165  12.919
28405W        W99934  40.533   3.957  10.715
28406W        W99935  14.910  24.308   3.867
28407W        W99936   9.302  36.851  14.798
28408W        W99937  19.518   1.351   2.429
28409W        W99938  31.112  32.235  10.041
28410W        W99939  24.165  10.384   3.574
28411W        W99940   6.883  30.554  14.349
28412W        W99941  35.723  15.796   1.165
28413W        W99942  41.858  30.614   4.655
28414W        W99943   4.712  41.947   0.543
28415W        W99944   2.243  36.133   3.742
28416W        W99945  10.639  18.948   1.467
28417W        W99946  32.816  37.434  11.632
28418W        W99947  13.706  18.215  13.529
28419W        W99948   3.491  16.352  13.758
28420W        W99949  33.783  17.618   4.895
28421W        W99950  36.527   4.336   3.226
28422W        W99951  15.845  26.433   1.312
28423W        W99952  17.565   2.382   4.174
28424W        W99953   9.772  10.069  12.697
28425W        W99954  27.208  12.549   4.354
28426W        W99955  43.755  18.073   0.873
28427W        W99956  26.595  31.787  14.215
28428W        W99957  36.369  17.010   0.043
28429W        W99958  23.179  10.952   0.308
28430W        W99959  43.290  37.028   0.632
28431W        W99960  23.061  18.961  13.247
28432W        W99961  16.617  29.451   1.850
28433W        W99962  37.355  36.085   1.788
28434W        W99963  13.226   1.022   4.097
28435W        W99964  14.321   9.661   3.122
28436W        W99965  44.216  13.793  13.644
28437W        W99966   7.460  28.653   4.392
28438W        W99967  11.600   9.701  11.674
28439W        W99968   6.379  28.093   0.279
28440W        W99969  41.930  31.648   2.635
28441W        W99970   3.919  28.181   3.177
28442W        W99971  34.593   3.959   0.048
28443W        W99972   8.695  18.346  11.873
28444W        W99973  32.673   4.398   0.105
28445W        W99974  19.614  29.150   0.351
28446W        W99975  25.814  42.562  13.308
28447W        W99976   9.256   7.378  10.696
28448W        W99977  26.601  21.975  11.960
28449W        W99978   1.143   6.742  11.312
28450W        W99979  13.319  35.507  13.494
28451W        W99980  37.761  25.213   4.619
28452W        W99981   1.978  35.376  11.537
28453W        W99982  27.875  21.057   1.426
28454W        W99983   5.702  14.276   4.061
28455W        W99984  35.312   7.767  13.489
28456W        W99985   7.366   8.365   1.613
28457W        W99986  33.359   3.862  13.977
28458W        W99987  20.019  33.412  14.437
28459W        W99988  27.624  30.945  13.771
28460W        W99989  32.979  13.044  13.542
28461W        W99990  13.570  28.881  12.049
28462W        W99991  42.269   0.831   3.428
28463W        W99992   4.563   4.182  14.888
28464W        W99993  25.750  23.806  14.515
28465W        W99994  11.791  42.880   2.217
28466W        W99995  38.518  30.852   3.363
28467W        W99996   7.164  22.273  13.543
28468W        W99997  10.207  28.144   4.066
28469W        W99998   9.118  40.809  12.218
28470W        W99999   5.268   1.411   4.931
28471W        W    0  38.348  34.882   0.335
28472W        W    1  30.486   6.713   2.717
28473W        W    2   1.718  17.563  13.010
28474W        W    3  37.938  16.250   1.140
28475W        W    4  18.553  19.219   2.696
28476W        W    5   0.340  18.527   4.602
28477W        W    6  21.805  14.288   3.794
28478W        W    7   1.144   9.340  12.964
28479W        W    8  39.803  26.889   2.423
28480W        W    9   5.483  24.376   3.353
28481W        W   10  33.907   8.811   1.677
28482W        W   11  36.661   8.170  14.821
28483W        W   12  34.235  22.155   0.533
28484W        W   13  28.391  24.980  11.143
28485W        W   14  20.466   4.387  14.392
28486W        W   15   0.920  22.704   2.372
28487W        W   16  35.350  11.881   0.058
28488W        W   17  19.556  28.723  14.444
28489W        W   18  18.881  18.223   3.734
28490W        W   19  28.798   2.172   3.305
28491W        W   20  30.211  29.581  12.905
28492W        W   21  25.047   0.273  13.256
28493W        W   22   9.959  24.516  14.913
28494W        W   23   3.374  38.120   4.177
28495W        W   24  12.797  44.656  10.650
28496W        W   25  41.406  44.271  10.493
28497W        W   26  43.550  32.460  14.312
28498W        W   27  10.937  38.733  10.590
28499W        W   28  12.562  38.554   3.255
28500W        W   29   3.827   3.370  12.846
28501W        W   30  27.637  20.252   0.933
28502W        W   31   2.690   6.252  10.900
28503W        W   32  15.228  27.365  14.335
28504W        W   33   2.360  29.187  14.735
28505W        W   34  29.531  39.320  12.628
28506W        W   35  32.592  14.996   5.592
28507W        W   36  36.659   0.805  14.469
28508W        W   37  14.809  12.653  10.647
28509W        W   38  17.073  40.014   0.492
28510W        W   39   6.129  13.126  14.941
28511W        W   40  43.795  29.555   1.461
28512W        W   41  43.188  32.670  13.937
28513W        W   42  20.787  16.591   4.272
28514W        W   43  16.669  26.807  14.323
28515W        W   44  35.358  22.985   3.372
28516W        W   45  22.081  14.556  14.959
28517W        W   46  41.078  26.645   1.195
28518W        W   47  30.101  25.121   4.688
28519W        W   48   2.696  10.696  14.271
28520W        W   49   4.019  19.006  14.421
28521W        W   50  11.051  32.516  11.832
28522W        W   51  42.818  27.854  12.527
28523W        W   52  11.578  36.333   0.279
28524W        W   53  41.595  12.325   1.219
28525W        W   54  16.838  22.509   1.027
28526W        W   55  39.118  17.919  12.875
28527W        W   56  23.593  41.232   1.749
28528W        W   57  43.860  42.524   2.401
28529W        W   58  23.014  25.026   1.137
28530W        W   59   7.993  12.254  13.922
28531W        W   60  29.410  25.980   3.778
28532W        W   61  43.261  15.123   1.639
28533W        W   62  41.290  20.037   3.339
28534W        W   63  19.659   8.776  14.747
28535W        W   64  38.550  34.355  14.098
28536W        W   65  44.629  17.016   4.065
28537W        W   66   6.731  41.467   4.749
28538W        W   67   9.437  14.235   4.055
28539W        W   68  21.446  16.729   3.290
28540W        W   69  12.163  44.098   3.252
28541W        W   70   1.965  26.900  12.784
28542W        W   71  15.651   4.390   1.793
28543W        W   72  43.346  26.036   2.883
28544W        W   73  29.949  18.141  14.399
28545W        W   74  43.836   5.401   3.439
28546W        W   75  13.960  12.096   0.376
28547W        W   76   9.081   8.731  11.944
28548W        W   77  13.886  40.832   1.642
28549W        W   78  12.833  29.873  12.868
28550W        W   79   4.338  13.281   1.430
28551W        W   80  36.521  19.422   4.213
28552W        W   81  24.600  29.025  12.077
28553W        W   82   9.707   8.942   1.902
28554W        W   83  14.300  12.711   0.905
28555W        W   84  38.921  23.962  12.654
28556W        W   85  38.271  10.435   0.891
28557W        W   86   6.698  44.593  10.508
28558W        W   87  39.508  33.981  11.959
28559W        W   88  32.642  38.300   0.422
28560W        W   89  42.178   6.556  11.147
28561W        W   90  14.150  23.258   0.275
28562W        W   91  19.337  39.379   5.325
28563W        W   92   2.610  40.545   1.691
28564W        W   93   9.724  12.179  14.424
28565W        W   94  25.013  27.457  13.905
28566W        W   95   7.919  43.384  11.561
28567W        W   96  27.860  11.142   1.731
28568W        W   97  29.689  21.602  10.679
28569W        W   98  24.485  29.260  12.948
28570W        W   99   8.738  36.056   1.668
28571W        W  100  12.737  44.397   1.883
28572W        W  101  13.257  26.077   0.570
28573W        W  102  39.836   4.217   0.954
28574W        W  103  25.212  27.760  13.511
28575W        W  104  24.130  41.894   0.226
28576W        W  105  30.546  34.830  11.127
28577W        W  106   7.337  18.132   4.454
28578W        W  107  40.328  19.761  13.419
28579W        W  108  39.410  44.858  14.370
28580W        W  109   4.902   3.235   3.809
28581W        W  110  27.005   5.298   3.126
28582W        W  111  30.657  19.815   1.745
28583W        W  112  10.858  35.877   2.824
28584W        W  113  12.208  12.616  10.743
28585W        W  114  20.644  44.732  14.445
28586W        W  115  18.688   8.368   4.317
28587W        W  116  25.433   3.507  11.123
28588W        W  117  42.974  10.848  13.523
28589W        W  118  42.019  25.072  12.074
28590W        W  119  35.722  33.160  14.890
28591W        W  120  12.755   2.071   0.859
28592W        W  121  17.115   6.235  13.558
28593W        W  122  30.255  10.128   4.062
28594W        W  123  23.471  24.142  13.483
28595W        W  124  29.584  26.916   4.482
28596W        W  125  20.864  36.887   5.263
28597W        W  126  34.579   9.350  12.570
28598W        W  127  14.905  43.515   2.892
28599W        W  128   7.980  27.461   4.599
28600W        W  129  37.399  38.924  13.386
28601W        W  130  39.713   0.549  11.164
28602W        W  131  42.773   9.435  14.347
28603W        W  132  12.898  19.362   5.219
28604W        W  133  21.315   3.444  14.463
28605W        W  134  37.014  26.201  10.733
28606W        W  135  30.946  28.475  11.505
28607W        W  136  16.544  10.687   3.850
28608W        W  137  16.894   2.532   1.009
28609W        W  138  16.287  36.847  14.769
28610W        W  139  18.118  43.555  12.500
28611W        W  140  44.893  11.397   3.376
28612W        W  141  13.406   7.471  12.517
28613W        W  142  39.013  33.988   4.641
28614W        W  143  22.596   2.902  13.955
28615W        W  144  29.552  16.382   4.420
28616W        W  145  28.574   6.095   0.986
28617W        W  146  41.058  18.672  14.932
28618W        W  147  16.643  19.459   1.786
28619W        W  148  31.882  40.573   0.016
28620W        W  149  25.716  17.225   0.457
28621W        W  150  37.982  28.257   3.245
28622W        W  151  20.650  26.614   2.376
28623W        W  152  29.033  37.527   0.787
28624W        W  153  21.302  30.552  13.781
28625W        W  154  33.261  20.078  11.219
28626W        W  155  34.013  38.403  12.960
28627W        W  156  34.831  28.199  14.406
28628W        W  157  10.042  22.928   3.352
28629W        W  158   9.681  25.999  10.695
28630W        W  159   5.281  14.318  14.915
28631W        W  160  43.008   9.680  11.490
28632W        W  161   3.851  13.614  11.529
28633W        W  162  19.307   8.255   3.853
28634W        W  163   0.464   2.753   0.809
28635W        W  164   7.545  29.198   4.307
28636W        W  165  34.123  34.092   0.243
28637W        W  166  36.057  22.207   0.102
28638W        W  167  30.671  22.218  14.481
28639W        W  168  32.474  28.067  14.037
28640W        W  169  12.264  35.114   2.400
28641W        W  170  26.968  15.134   1.813
28642W        W  171  33.350  24.462  14.816
28643W        W  172  38.387  19.390  14.949
28644W        W  173  17.864  17.847   1.383
28645W        W  174  30.084   2.317   1.591
28646W        W  175   5.871  37.351   1.454
28647W        W  176  29.413  29.506  14.694
28648W        W  177  14.229  14.805   2.226
28649W        W  178  31.653   8.880  10.993
28650W        W  179  37.984  44.387   1.854
28651W        W  180   5.242  23.574   3.332
28652W        W  181   7.637  19.789   2.479
28653W        W  182  42.003  25.048   2.186
28654W        W  183  11.257  16.358  12.226
28655W        W  184  11.374  37.563  14.888
28656W        W  185  15.833  23.620  11.655
28657W        W  186  16.868  38.657   0.442
28658W        W  187  29.493  16.884   1.412
28659W        W  188  13.818  11.630  14.703
28660W        W  189  22.940   7.360  11.613
28661W        W  190  39.434  32.889   0.370
28662W        W  191  42.529  27.650   2.404
28663W        W  192  14.171  26.572   2.641
28664W        W  193   9.716   4.883   2.783
28665W        W  194  35.939  32.372  12.859
28666W        W  195  13.853  20.713  12.231
28667W        W  196   1.353   9.109  14.244
28668W        W  197  42.627  31.048   0.246
28669W        W  198  26.596  33.658  13.757
28670W        W  199  43.816  26.172   2.692
28671W        W  200  17.190  12.550   2.190
28672W        W  201  43.425  17.549   2.462
28673W        W  202   5.084  11.007   0.908
28674W        W  203  24.030  15.898   4.008
28675W        W  204  31.509  39.871   1.789
28676W        W  205  41.777  34.019   2.106
28677W        W  206  26.909  35.656  11.650
28678W        W  207  42.842  15.752  13.024
28679W        W  208  26.505  21.118   2.648
28680W        W  209  42.976  19.842   4.930
28681W        W  210  12.325  21.714   0.635
28682W        W  211  38.702  15.933   0.728
28683W        W  212  18.341   5.300   4.109
28684W        W  213   9.521   5.646  14.196
28685W        W  214  42.142  11.155   4.159
28686W        W  215  22.506  13.142   1.450
28687W        W  216   9.261   0.434   1.777
28688W        W  217  14.436  25.733  11.495
28689W        W  218  18.489  16.705  13.809
28690W        W  219  43.902  42.038  12.065
28691W        W  220  11.828   4.131  11.637
28692W        W  221  13.348  16.178   2.766
28693W        W  222  38.999  34.954   1.887
28694W        W  223  37.185  37.810  11.075
28695W        W  224  15.418  42.871  11.998
28696W        W  225   9.980  39.628   1.181
28697W        W  226  41.890  26.035   2.325
28698W        W  227   6.442  28.141  12.059
28699W        W  228  25.994  13.978  14.434
28700W        W  229  40.754  30.466   3.737
28701W        W  230   7.329  26.465   2.657
28702W        W  231  17.960  38.578  14.710
28703W        W  232   1.533   9.662   2.179
28704W        W  233  38.328  23.327  12.041
28705W        W  234  35.427  21.859  13.184
28706W        W  235   2.912  37.092   4.832
28707W        W  236  31.110  11.712   2.261
28708W        W  237  21.687   9.690  14.221
28709W        W  238   7.795   2.444   0.818
28710W        W  239  32.119  22.079   1.318
28711W        W  240  21.253  30.700  13.283
28712W        W  241   9.458   1.084   2.325
28713W        W  242   4.759  39.987   2.791
28714W        W  243  44.855  12.186   0.886
28715W        W  244  14.087   3.289  14.734
28716W        W  245  30.376  21.740   2.809
28717W        W  246  38.979  44.195   1.254
28718W        W  247  27.980  19.713  12.379
28719W        W  248  20.538  10.909  11.634
28720W        W  249   9.768   9.698  13.079
28721W        W  250  15.674  44.559  13.948
28722W        W  251   2.332  16.603   0.981
28723W        W  252  37.468  21.651   0.877
28724W        W  253  16.753  16.104  10.521
28725W        W  254  34.092  14.694   1.189
28726W        W  255   4.380  16.955   4.660
28727W        W  256  30.650  16.206  14.480
28728W        W  257  33.345  27.311  13.833
28729W        W  258   9.655  39.367   3.791
28730W        W  259  26.048  15.956  11.213
28731W        W  260  31.165  13.820   4.134
28732W        W  261  40.530   9.763   3.247
28733W        W  262  29.266  29.132  10.563
28734W        W  263  13.634   5.169  10.824
28735W        W  264  14.772  29.725   4.596
28736W        W  265  35.558  20.825  12.393
28737W        W  266  18.620  10.169  10.627
28738W        W  267   3.060   8.279   0.814
28739W        W  268  21.140  28.896   2.355
28740W        W  269  29.599  32.483   1.717
28741W        W  270  33.530  36.373  10.929
28742W        W  271   9.695  24.220  11.901
28743W        W  272  21.348  44.795  13.245
28744W        W  273  12.283  27.487   2.632
28745W        W  274  13.327  25.534  12.284
28746W        W  275  15.703  18.150   4.846
28747W        W  276  34.483  26.489  11.984
28748W        W  277  10.439   7.850   3.422
28749W        W  278  42.174   6.274  10.697
28750W        W  279  11.244   1.280  12.522
28751W        W  280  13.640  40.132   4.350
28752W        W  281  44.483  39.830   1.255
28753W        W  282  42.709  27.090   0.692
28754W        W  283  28.752   3.671  13.546
28755W        W  284  17.682  13.783   1.314
28756W        W  285   0.180   5.407   1.249
28757W        W  286   9.261  29.389  11.168
28758W        W  287  17.017  42.727   1.335
28759W        W  288  16.441  23.421  12.459
28760W        W  289  14.700   2.246   0.519
28761W        W  290  37.595  15.216  11.934
28762W        W  291  39.135  44.832  13.918
28763W        W  292  27.234   5.484  14.160
28764W        W  293  41.400  39.041   4.522
28765W        W  294   2.335  36.503  13.435
28766W        W  295  16.615  16.749   2.714
28767W        W  296  11.439  27.590   3.757
28768W        W  297  29.568  19.696  12.037
28769W        W  298  25.703   9.867  10.858
28770W        W  299  21.487  19.430   0.418
28771W        W  300   7.684  40.891   1.723
28772W        W  301  24.692  28.938  12.571
28773W        W  302   5.475   9.412  12.712
28774W        W  303  24.838  24.766  14.472
28775W        W  304   1.930  43.081  11.704
28776W        W  305  43.445  18.558  14.625
28777W        W  306  44.180   7.478   1.760
28778W        W  307  13.542  41.028   4.061
28779W        W  308  31.552  44.941   4.280
28780W        W  309  29.378  32.436   4.283
28781W        W  310  18.225  21.693  10.750
28782W        W  311  39.371  40.436   4.410
28783W        W  312   8.879   9.933   0.262
28784W        W  313  35.432   3.284  13.142
28785W        W  314  15.365   5.251  11.343
28786W        W  315   9.612  37.328   0.678
28787W        W  316  23.708  14.933   0.315
28788W        W  317  20.713   5.694   2.731
28789W        W  318  44.062  22.696   4.506
28790W        W  319  28.338  10.681  12.974
28791W        W  320  18.625  29.037  13.523
28792W        W  321  10.613  34.915  12.332
28793W        W  322  12.112  13.530  13.876
28794W        W  323  13.262  24.294   1.517
28795W        W  324  22.081   4.838  13.025
28796W        W  325  16.167   1.437   1.257
28797W        W  326  33.652  22.977   2.302
28798W        W  327   3.903  32.206   4.329
28799W        W  328  30.102   3.308   1.644
28800W        W  329  31.906  12.824   4.274
28801W        W  330  42.770  37.480  12.422
28802W        W  331  15.325  35.497  12.592
28803W        W  332  35.825   2.480  11.973
28804W        W  333  26.156  43.356  11.342
28805W        W  334  17.983   0.530   0.247
28806W        W  335  25.404   0.541   3.339
28807W        W  336  29.645  28.245   3.224
28808W        W  337  32.121  28.483   0.131
28809W        W  338   6.781   1.877   2.313
28810W        W  339  42.391  22.322   4.405
28811W        W  340   4.362  23.564  12.398
28812W        W  341  12.636  26.535  14.777
28813W        W  342  13.557  10.389   3.223
28814W        W  343  21.091  41.491   3.403
28815W        W  344  31.459   9.333  12.989
28816W        W  345  39.390  31.635   0.647
28817W        W  346  35.123  21.709   2.833
28818W        W  347  14.520   1.191   4.753
28819W        W  348  32.371   6.787   0.001
28820W        W  349  44.237  42.938  10.719
28821W        W  350  32.087  15.634  14.875
28822W        W  351  18.597  26.000  12.591
28823W        W  352  13.624  32.833  12.487
28824W        W  353  41.413  30.513   0.485
28825W        W  354  20.009  18.375  14.843
28826W        W  355   3.427  15.869   4.582
28827W        W  356   9.866  27.401   2.937
28828W        W  357  23.745  25.467  13.483
28829W        W  358   5.722  25.027  13.333
28830W        W  359  18.171  16.852  14.190
28831W        W  360  37.264   5.722  13.484
28832W        W  361  35.324  36.629  13.920
28833W        W  362  34.419  17.926  11.536
28834W        W  363   6.668  40.360   3.794
28835W        W  364  25.188  28.634  12.361
28836W        W  365  16.591  10.307  13.985
28837W        W  366   0.323  23.394   4.391
28838W        W  367  38.147   0.019  13.978
28839W        W  368  30.132  29.922   3.746
28840W        W  369  37.440  18.076   1.312
28841W        W  370  41.124  35.477  12.482
28842W        W  371  14.521   4.142   1.737
28843W        W  372  31.148  30.412   0.290
28844W        W  373  19.893  35.720   0.264
28845W        W  374  28.518   6.716  13.578
28846W        W  375  42.100  10.512   0.916
28847W        W  376  42.966  12.206   3.356
28848W        W  377  20.206  17.168   0.556
28849W        W  378  43.603  36.990   4.936
28850W        W  379   9.331  44.456   4.651
28851W        W  380  18.086  22.855   3.219
28852W        W  381  30.867  18.704  14.542
28853W        W  382  30.898  29.657  13.467
28854W        W  383  21.540   6.550   3.190
28855W        W  384  41.679   2.232  14.681
28856W        W  385  23.690  20.244  11.480
28857W        W  386  37.133  42.493   0.861
28858W        W  387  38.987   7.713   3.392
28859W        W  388  37.858  29.586  11.006
28860W        W  389  10.346  15.093   2.239
28861W        W  390  19.046   2.302   1.771
28862W        W  391  32.628  31.923   0.780
28863W        W  392   2.777  18.744  12.907
28864W        W  393  33.858  36.035   2.568
28865W        W  394  30.547  28.525   2.202
28866W        W  395  38.837  38.302   4.100
28867W        W  396  10.172  34.240   0.472
28868W        W  397   1.144  28.666  12.068
28869W        W  398  20.108  21.165   1.615
28870W        W  399  42.253  19.453   1.810
28871W        W  400  25.984  25.976  10.885
28872W        W  401  20.117  22.834   2.931
28873W        W  402  42.893  18.830   3.305
28874W        W  403  12.591   3.305  12.506
28875W        W  404  37.961  42.459   2.188
28876W        W  405  36.166  31.590  14.118
28877W        W  406   7.103  34.689  11.279
28878W        W  407  41.278  39.326   2.684
28879W        W  408  30.237  12.792   3.137
28880W        W  409  39.208  13.635   1.531
28881W        W  410  30.852  29.039   4.270
28882W        W  411  35.509  42.560   1.922
28883W        W  412  29.567  19.904  14.985
28884W        W  413  24.699  39.709   0.808
28885W        W  414  29.173  13.669  11.698
28886W        W  415  10.619   1.217   2.391
28887W        W  416  11.756  41.451   3.573
28888W        W  417   1.931  37.655  12.143
28889W        W  418  10.399  25.991   3.945
28890W        W  419   1.791   3.739   4.094
28891W        W  420   2.785   7.104   0.409
28892W        W  421   4.606  15.629  11.134
28893W        W  422  10.196  42.540  12.916
28894W        W  423  18.410   5.434   1.872
28895W        W  424  40.578  25.909   1.698
28896W        W  425  16.096  42.957  10.216
28897W        W  426  24.255   2.490  11.613
28898W        W  427   7.181  28.949   3.441
28899W        W  428  13.078  19.699   3.110
28900W        W  429  22.719  32.398  12.517
28901W        W  430   6.680   3.983  11.948
28902W        W  431   1.336   4.692   3.378
28903W        W  432  44.801  44.007   3.938
28904W        W  433   4.956  35.967  11.177
28905W        W  434  23.237  15.149  13.622
28906W        W  435  25.932  37.566   2.599
28907W        W  436   0.182  36.223   4.124
28908W        W  437  29.957   3.885   3.407
28909W        W  438  33.268  23.109   3.403
28910W        W  439  29.129  16.906  14.833
28911W        W  440  26.608   8.250   2.804
28912W        W  441   9.394  42.449  14.894
28913W        W  442  40.828   2.337  14.476
28914W        W  443  29.748  41.971   4.082
28915W        W  444  34.433   1.643   3.025
28916W        W  445  24.607   9.594   3.348
28917W        W  446  19.686  28.456   1.021
28918W        W  447   3.083  22.691   0.358
28919W        W  448  34.143   4.632   2.284
28920W        W  449  19.959  34.520  14.886
28921W        W  450  19.816  32.717   1.485
28922W        W  451  37.399  10.280   2.737
28923W        W  452  34.191  19.330  11.610
28924W        W  453  22.178  35.740   3.634
28925W        W  454  19.592  39.109   1.328
28926W        W  455  42.222  44.928   4.194
28927W        W  456  42.838  34.424   9.510
28928W        W  457  22.118  15.812  14.321
28929W        W  458  12.813  35.178   1.292
28930W        W  459  33.583  38.483   0.442
28931W        W  460  26.977  28.192   0.768
28932W        W  461  14.132  16.793   4.180
28933W        W  462  27.537   4.980  11.102
28934W        W  463  44.833  23.477   4.580
28935W        W  464  17.714  22.240  13.128
28936W        W  465  23.062  40.846   4.925
28937W        W  466   9.052  10.752  14.073
28938W        W  467  24.548  33.345  14.066
28939W        W  468  14.912  37.054  13.768
28940W        W  469  18.093   3.562   1.108
28941W        W  470  43.916  29.604  13.311
28942W        W  471  33.056   7.157   0.406
28943W        W  472  13.392  34.363  14.391
28944W        W  473  19.994   6.273   4.076
28945W        W  474  39.471  22.220   2.130
28946W        W  475  41.872  10.225   2.388
28947W        W  476   4.788  33.983  14.299
28948W        W  477  35.533  22.548  13.835
28949W        W  478  44.436  43.341  12.098
28950W        W  479  20.792   6.300  11.213
28951W        W  480   1.335   4.729  12.497
28952W        W  481  11.075  32.538  11.308
28953W        W  482  34.504   0.886   4.058
28954W        W  483  20.945  35.720  14.785
28955W        W  484  44.341  25.258   2.398
28956W        W  485  11.597   0.919   3.059
28957W        W  486  21.130  43.791  13.918
28958W        W  487  34.585  30.201   1.717
28959W        W  488  23.514  14.645   4.720
28960W        W  489  38.972  32.901   0.724
28961W        W  490   6.878  28.054   1.916
28962W        W  491  31.956  41.368   0.747
28963W        W  492  20.067   7.659  11.148
28964W        W  493   1.261  16.536  13.438
28965W        W  494   0.948   9.309   3.891
28966W        W  495  23.007   6.968   0.754
28967W        W  496  10.761  41.160   0.655
28968W        W  497   4.347  19.220  14.778
28969W        W  498   8.770  13.236   1.923
28970W        W  499  23.533  29.644   4.154
28971W        W  500  13.303  24.823   2.813
28972W        W  501  44.379  32.501   4.463
28973W        W  502   9.013  37.701  11.146
28974W        W  503  21.261  22.598  11.969
28975W        W  504   9.174  10.345  11.862
28976W        W  505   7.167  41.446  13.401
28977W        W  506  13.546  19.231  12.152
28978W        W  507  24.135   4.563   0.404
28979W        W  508  25.614  32.140  14.912
28980W        W  509  15.818  23.264   1.850
28981W        W  510   4.944  34.430   2.648
28982W        W  511  20.055  34.899   3.745
28983W        W  512  33.043  22.580  12.536
28984W        W  513  23.489  38.345  12.103
28985W        W  514  42.972  11.325  14.293
28986W        W  515  28.594  43.055   0.657
28987W        W  516  26.527  26.628   1.449
28988W        W  517  41.397  22.630  11.167
28989W        W  518  29.609  39.298   3.577
28990W        W  519  33.917  39.594   4.773
28991W        W  520  38.816   3.877   0.539
28992W        W  521  14.795  36.579  10.492
28993W        W  522  44.429   0.224   4.748
28994W        W  523  20.521  35.514  10.454
28995W        W  524  13.629   4.949   3.233
28996W        W  525  37.057  19.171   3.755
28997W        W  526   4.827  13.356   2.704
28998W        W  527  31.049  27.035  12.052
28999W        W  528  27.033  37.429  10.711
29000W        W  529  22.908  35.575  11.170
29001W        W  530   4.390  24.139  13.532
29002W        W  531  25.285  21.266   2.227
29003W        W  532  17.721  31.947  12.142
29004W        W  533  13.800   0.369   4.261
29005W        W  534  21.788  38.368  11.087
29006W        W  535   2.029   2.470  11.486
29007W        W  536   0.760   1.421   1.345
29008W        W  537  42.754  37.053   2.753
29009W        W  538  27.177  10.727   3.698
29010W        W  539  39.215  37.805  14.931
29011W        W  540  31.024  29.548   4.394
29012W        W  541  22.777  21.270   1.335
29013W        W  542  40.784  11.371   2.136
29014W        W  543  25.103  34.905  11.647
29015W        W  544  31.345  36.344  14.894
29016W        W  545   9.662  36.422   1.842
29017W        W  546  19.068  36.254   2.866
29018W        W  547  15.365  40.783   2.163
29019W        W  548  34.602   7.770   1.770
29020W        W  549  29.140  27.583  11.407
29021W        W  550  12.125  33.842   4.179
29022W        W  551  14.220   1.312  11.843
29023W        W  552  28.383  34.889  12.270
29024W        W  553  34.109  30.539  13.078
29025W        W  554  35.608  20.065  10.624
29026W        W  555  36.379  31.868   0.043
29027W        W  556   6.422  16.208   2.042
29028W        W  557  32.557  27.768   5.038
29029W        W  558  26.425  32.832  10.672
29030W        W  559  13.611  31.118   2.420
29031W        W  560   6.313  22.586   0.978
29032W        W  561  11.202  10.171  14.250
29033W        W  562  12.842   6.248   0.876
29034W        W  563  38.929  37.826  14.497
29035W        W  564  28.560  38.189   1.988
29036W        W  565  25.210  22.985   4.098
29037W        W  566   2.498  19.408   1.292
29038W        W  567  25.908  36.882   1.736
29039W        W  568  12.810   6.724  13.075
29040W        W  569  27.749  18.256   2.470
29041W        W  570  14.230  17.725   4.241
29042W        W  571   9.655   0.927   4.104
29043W        W  572  28.109  32.919   1.895
29044W        W  573   3.665  39.865  11.479
29045W        W  574  28.457  23.515  13.541
29046W        W  575  25.808  42.009   3.172
29047W        W  576  41.190  31.363   0.239
29048W        W  577   8.697  42.271  12.853
29049W        W  578   4.840  34.116  11.218
29050W        W  579  36.548  18.612  11.493
29051W        W  580  22.658   3.755  11.054
29052W        W  581  25.139  30.091   3.054
29053W        W  582  35.529   3.345   4.126
29054W        W  583  44.951  35.434  10.976
29055W        W  584   3.632  32.403  14.825
29056W        W  585  18.352  27.683   4.112
29057W        W  586  22.075  42.842  11.140
29058W        W  587  37.879  26.548   4.111
29059W        W  588   3.062   4.420   4.006
29060W        W  589   4.859  10.405  14.858
29061W        W  590   6.164  15.352  12.514
29062W        W  591  36.916   1.077  13.833
29063W        W  592  22.837  22.946  13.324
29064W        W  593   1.225   5.809   1.704
29065W        W  594  17.347  26.026  13.959
29066W        W  595  35.603   8.667   4.696
29067W        W  596  43.891   2.914   3.674
29068W        W  597   3.135  13.593  13.573
29069W        W  598  16.137   5.553   1.626
29070W        W  599  36.769  15.776  11.224
29071W        W  600  33.942  21.294  12.442
29072W        W  601  17.794  18.579   1.846
29073W        W  602  32.117   2.727   2.881
29074W        W  603  29.438   7.159   3.767
29075W        W  604  43.527  22.976   0.830
29076W        W  605  35.282  35.472   3.133
29077W        W  606  14.651  36.692  11.620
29078W        W  607  32.821  24.434   0.030
29079W        W  608  11.899  25.801  10.106
29080W        W  609   0.201  39.990  14.041
29081W        W  610   9.378  43.326  10.878
29082W        W  611   1.421  34.653   4.042
29083W        W  612  24.986   2.568  12.121
29084W        W  613  39.256  16.123   2.219
29085W        W  614  19.940  27.156  13.852
29086W        W  615  10.190   9.603  10.919
29087W        W  616  15.781  13.851   3.379
29088W        W  617  36.487  14.132  11.228
29089W        W  618  25.049   7.242   4.455
29090W        W  619   7.826  19.771  11.399
29091W        W  620   4.707   6.924  10.930
29092W        W  621  39.399  44.774   4.760
29093W        W  622  40.300   2.571   3.145
29094W        W  623  33.367  40.383   1.131
29095W        W  624  42.919  20.444  14.255
29096W        W  625  18.186  10.673   0.545
29097W        W  626  28.968  33.525  13.399
29098W        W  627   3.711  18.754   1.211
29099W        W  628  11.118  35.556  13.098
29100W        W  629  10.342   1.986  14.314
29101W        W  630  27.487  42.475   3.854
29102W        W  631  21.750  41.815   2.273
29103W        W  632  35.176  14.755   3.637
29104W        W  633  37.270   2.499   1.809
29105W        W  634  35.742  41.758  14.807
29106W        W  635  27.988  17.501  13.408
29107W        W  636  34.185  39.389  11.560
29108W        W  637   1.791  27.904  12.176
29109W        W  638   9.055  19.694   3.154
29110W        W  639  38.858  19.006   2.770
29111W        W  640   6.747  16.187  10.321
29112W        W  641  42.934  25.126  12.326
29113W        W  642  20.750  20.891  12.086
29114W        W  643  15.758  25.664   1.794
29115W        W  644   4.850  33.044  13.890
29116W        W  645  35.454  23.440  10.740
29117W        W  646  17.520   3.399  10.753
29118W        W  647  37.291  39.900  10.300
29119W        W  648  21.416  27.915  14.504
29120W        W  649  36.967  35.834   0.795
29121W        W  650  29.653   2.852  12.182
29122W        W  651  17.063   7.000  10.930
29123W        W  652  28.061  32.432   2.735
29124W        W  653  23.488  30.629  13.351
29125W        W  654  40.060  25.696   0.982
29126W        W  655  33.089   2.490  12.912
29127W        W  656  23.669  21.633   1.965
29128W        W  657  40.939  44.916   4.684
29129W        W  658   0.903  43.776  13.054
29130W        W  659  20.640  21.084   0.835
29131W        W  660  25.507  23.324   0.437
29132W        W  661  27.468   8.843  12.431
29133W        W  662  38.589  12.751   4.640
29134W        W  663  28.495  10.160  13.552
29135W        W  664   9.192  17.054  14.605
29136W        W  665  24.842  28.646  10.221
29137W        W  666  37.354  23.340  12.794
29138W        W  667  10.811   4.398  13.960
29139W        W  668   1.637  15.697  13.347
29140W        W  669   8.276  21.244   3.027
29141W        W  670  15.118  24.648   3.176
29142W        W  671  35.931  37.386  11.789
29143W        W  672  19.311   5.270   0.308
29144W        W  673   0.290  43.710  13.459
29145W        W  674  32.831  40.415  13.469
29146W        W  675  24.006  29.663  12.396
29147W        W  676  37.701  27.079   3.353
29148W        W  677  44.588  37.933  12.464
29149W        W  678  22.939  40.890  11.646
29150W        W  679  20.283   8.776   5.045
29151W        W  680  44.263   5.899  13.833
29152W        W  681  40.422  18.541   4.816
29153W        W  682  17.323  12.710   0.862
29154W        W  683  43.518  34.616   1.687
29155W        W  684   5.338  28.657  11.290
29156W        W  685  15.682  43.987   4.501
29157W        W  686   4.076  29.972   4.955
29158W        W  687  10.196   8.810   0.807
29159W        W  688  10.887  16.660   0.348
29160W        W  689  18.429   4.498  12.943
29161W        W  690  21.361  19.761  10.730
29162W        W  691   5.846  16.114   2.155
29163W        W  692  23.789  26.625  11.615
29164W        W  693  12.612   8.641   1.070
29165W        W  694   3.890  38.014   2.687
29166W        W  695   2.186  23.208  12.841
29167W        W  696  39.255   5.517   3.677
29168W        W  697  39.418  32.624   0.838
29169W        W  698   9.617   8.460  13.012
29170W        W  699  41.783  18.422  14.519
29171W        W  700  34.361  39.836   2.562
29172W        W  701  30.309   1.714  14.389
29173W        W  702   8.762  25.732   0.079
29174W        W  703  44.758   8.962  14.219
29175W        W  704  43.599  31.608  11.640
29176W        W  705   0.767   9.919   1.380
29177W        W  706   2.511  23.039   2.714
29178W        W  707   1.406  40.167   2.905
29179W        W  708  35.076   4.424  10.453
29180W        W  709  16.109  17.639   3.296
29181W        W  710  28.123  43.446  11.236
29182W        W  711   8.787  11.150   1.780
29183W        W  712  15.250  20.090   0.892
29184W        W  713  29.481  19.860   4.000
29185W        W  714  44.566  22.996  14.664
29186W        W  715  24.453  38.447   4.431
29187W        W  716  19.540   2.502  11.950
29188W        W  717  33.058  31.839  12.881
29189W        W  718   3.217  38.049   0.812
29190W        W  719  37.048  19.442   4.278
29191W        W  720   2.401  12.101  10.387
29192W        W  721  27.425   2.489   1.073
29193W        W  722  33.944  29.015  12.977
29194W        W  723  25.306  27.168   4.090
29195W        W  724   2.181  39.562   3.209
29196W        W  725   8.997   4.949  10.359
29197W        W  726   8.231  41.662  12.030
29198W        W  727  40.066  14.710   3.634
29199W        W  728  15.648  32.279  11.217
29200W        W  729  14.916   3.714   0.466
29201W        W  730  38.792  27.935  11.190
29202W        W  731  38.605   8.342  12.467
29203W        W  732  12.264  27.920   1.440
29204W        W  733  34.964  18.405  13.991
29205W        W  734  30.595  27.708  12.392
29206W        W  735  12.310  11.251   1.405
29207W        W  736   1.987   9.354   3.846
29208W        W  737   5.380  35.825  12.981
29209W        W  738  20.819   9.329   0.254
29210W        W  739  41.730  42.848   1.404
29211W        W  740  17.077   7.318   3.607
29212W        W  741   4.447  21.102   2.739
29213W        W  742   1.324  25.506   4.765
29214W        W  743  28.409  41.407  14.975
29215W        W  744  42.892  33.560   1.004
29216W        W  745  26.228  13.628  12.179
29217W        W  746  32.470  44.914   4.614
29218W        W  747  40.272  22.135   2.811
29219W        W  748  13.109  31.615   4.314
29220W        W  749  15.627  16.226  12.032
29221W        W  750  36.640  42.607   0.772
29222W        W  751  42.209  10.126  13.305
29223W        W  752  25.061   8.687  13.385
29224W        W  753   7.654  37.253  14.342
29225W        W  754  14.529  24.655   0.358
29226W        W  755  33.997   9.911  13.719
29227W        W  756  39.000  29.345   2.763
29228W        W  757  24.466  44.696   2.865
29229W        W  758  21.596  15.733  10.654
29230W        W  759  10.579  22.985   1.492
29231W        W  760  22.730   6.917  13.856
29232W        W  761   7.203   1.424  14.804
29233W        W  762  21.001   2.991   1.406
29234W        W  763  31.469  22.454   4.121
29235W        W  764  14.681   9.073   0.453
29236W        W  765  25.766  10.767  12.988
29237W        W  766  18.591  31.053  12.378
29238W        W  767  34.870  31.412  12.997
29239W        W  768  41.465  27.675   3.664
29240W        W  769  36.639   7.306  10.962
29241W        W  770   8.996   2.548   4.142
29242W        W  771   0.789   8.862  14.273
29243W        W  772  14.653  16.407   2.224
29244W        W  773  18.090  33.166   2.869
29245W        W  774  40.030  36.115  13.839
29246W        W  775   2.274   2.731   3.961
29247W        W  776  33.506   2.526  13.224
29248W        W  777  37.537  21.554   2.775
29249W        W  778  38.823  38.510   4.572
29250W        W  779  16.055  14.962  12.956
29251W        W  780  28.698  27.153   4.136
29252W        W  781  42.806  44.501   2.341
29253W        W  782  30.935  10.840  14.055
29254W        W  783   3.355  13.699   2.820
29255W        W  784  18.905  22.534   2.286
29256W        W  785   6.879   8.266   2.832
29257W        W  786  40.549  31.461  14.916
29258W        W  787  44.501  28.204  14.397
29259W        W  788   8.609  21.518   1.259
29260W        W  789   4.512  23.021  13.145
29261W        W  790  14.027   7.252  10.488
29262W        W  791  44.319  28.191  10.671
29263W        W  792  38.553  19.228   2.398
29264W        W  793  31.663  25.828  13.947
29265W        W  794  18.821  28.066   4.961
29266W        W  795   9.048   5.964   4.605
29267W        W  796  25.065  42.966  14.764
29268W        W  797  38.701  25.692  14.711
29269W        W  798   2.344  25.711   0.993
29270W        W  799  32.102  39.265   2.905
29271W        W  800  43.143   3.708   2.760
29272W        W  801  30.149  28.442  11.985
29273W        W  802   3.177  37.241  13.452
29274W        W  803  14.791  33.135   3.770
29275W        W  804   0.826  36.935  14.824
29276W        W  805  44.176  34.428   2.283
29277W        W  806  10.435  33.650  11.103
29278W        W  807  32.069  23.351   0.477
29279W        W  808   8.343  21.961   0.462
29280W        W  809  16.279  32.376  13.406
29281W        W  810   5.155  13.652   3.115
29282W        W  811  38.226   4.300  13.408
29283W        W  812   4.501  26.402   3.273
29284W        W  813  20.336  20.519   4.939
29285W        W  814   7.668  29.625  13.349
29286W        W  815   2.824   4.066   3.715
29287W        W  816   7.786   9.435  14.833
29288W        W  817  43.043  29.644   3.296
29289W        W  818  43.863  20.247   2.830
29290W        W  819  42.726  25.933   4.618
29291W        W  820  24.181  39.574   4.515
29292W        W  821   0.825  42.755   0.155
29293W        W  822  21.137  40.440  14.474
29294W        W  823  43.223  25.305  11.122
29295W        W  824  37.447   9.872  11.948
29296W        W  825   5.683   7.836  12.761
29297W        W  826  18.624  32.398   3.771
29298W        W  827  18.868  12.566  12.982
29299W        W  828  15.597  37.950   0.404
29300W        W  829  27.133  17.329  14.283
29301W        W  830  17.261  21.095   1.314
29302W        W  831  17.225  12.233   3.358
29303W        W  832   1.835  20.130   2.666
29304W        W  833  27.004  15.519  11.958
29305W        W  834   7.179  44.238  14.457
29306W        W  835  19.509  10.523   5.039
29307W        W  836  31.006  21.116   0.431
29308W        W  837  23.595  27.022  12.569
29309W        W  838  18.935  24.119   3.607
29310W        W  839   0.496  14.859  12.032
29311W        W  840   2.759  18.109  10.992
29312W        W  841  20.870  24.506  12.412
29313W        W  842  44.946  37.927   3.339
29314W        W  843   1.997  43.866   0.848
29315W        W  844  27.737  17.323   0.488
29316W        W  845  27.942  31.127   5.047
29317W        W  846  13.671   0.418   2.346
29318W        W  847  11.407  37.415   0.373
29319W        W  848  12.277  24.632  14.533
29320W        W  849  18.724  16.206   1.932
29321W        W  850  40.328  43.708  12.125
29322W        W  851   2.423   9.752   3.156
29323W        W  852  26.375   5.119   0.148
29324W        W  853  20.053   8.699  12.964
29325W        W  854  16.785  20.334   2.154
29326W        W  855  15.669   4.304  14.258
29327W        W  856  35.013  33.858  10.256
29328W        W  857  11.829  33.955  11.950
29329W        W  858  16.034  32.637  14.839
29330W        W  859  23.927  44.634  10.251
29331W        W  860  33.945  22.578   4.284
29332W        W  861  35.439   7.541  10.722
29333W        W  862  23.605  33.681   1.481
29334W        W  863  31.079   0.691   4.164
29335W        W  864  41.940   1.702  12.901
29336W        W  865  24.288  13.686   2.268
29337W        W  866  41.090   4.001   4.944
29338W        W  867  12.826  32.670  14.010
29339W        W  868  30.475  19.502   4.286
29340W        W  869  14.146  16.919  14.759
29341W        W  870  19.830   5.231   2.686
29342W        W  871  35.992  32.145  10.328
29343W        W  872  33.161  38.124  11.200
29344W        W  873  12.854  21.097   4.769
29345W        W  874  44.600  37.085  11.039
29346W        W  875  25.230  27.585  11.038
29347W        W  876  35.023  23.317  12.230
29348W        W  877  32.638  23.086  11.856
29349W        W  878  42.956  23.575   3.335
29350W        W  879  34.996  17.332   4.083
29351W        W  880  36.606   0.501   0.372
29352W        W  881  35.463  27.597   3.729
29353W        W  882   9.886  25.872   2.038
29354W        W  883  26.833  43.915  14.991
29355W        W  884  17.914  44.181  11.968
29356W        W  885  27.950  14.350   2.703
29357W        W  886   6.786   8.744   2.753
29358W        W  887  24.491  34.172   0.175
29359W        W  888   8.238   8.932  11.679
29360W        W  889   8.302  16.814   2.795
29361W        W  890   1.198  43.462  14.452
29362W        W  891   7.880  42.963   0.024
29363W        W  892  31.847   1.274   1.941
29364W        W  893  18.072   0.349   3.181
29365W        W  894  30.005  28.077  14.392
29366W        W  895   0.881  13.725   2.486
29367W        W  896   3.792   1.947   3.147
29368W        W  897  36.946  39.908  13.520
29369W        W  898   5.547  21.479  12.536
29370W        W  899  33.050  29.071   2.628
29371W        W  900  41.103  35.940  10.811
29372W        W  901  29.705  14.262  14.827
29373W        W  902  22.594  35.560   2.266
29374W        W  903  35.502  18.774   2.293
29375W        W  904   0.984  20.619  12.003
29376W        W  905  28.183  32.496  13.617
29377W        W  906  27.958   7.872  13.545
29378W        W  907  11.392   2.862   2.738
29379W        W  908   5.719  14.350   2.732
29380W        W  909  42.401  21.850   1.884
29381W        W  910   0.894  29.828   2.762
29382W        W  911  22.977  11.809   4.135
29383W        W  912  16.098  25.088  13.566
29384W        W  913   3.058  34.000   1.445
29385W        W  914  24.900   3.628  12.378
29386W        W  915   6.116   8.716  10.387
29387W        W  916  10.404  13.763   1.227
29388W        W  917  20.823  20.186   1.010
29389W        W  918  24.219  44.995  13.498
29390W        W  919  19.714  20.290  14.870
29391W        W  920  18.863  21.868   3.381
29392W        W  921   5.884   9.897   0.757
29393W        W  922   4.340  31.784   0.196
29394W        W  923  34.835   6.760   4.191
29395W        W  924   9.945  43.689  12.829
29396W        W  925   5.292  37.122  13.904
29397W        W  926  38.463  10.316   2.700
29398W        W  927   8.676   0.852   0.878
29399W        W  928  14.803  32.428  13.249
29400W        W  929  16.744   5.700   3.849
29401W        W  930   4.946  16.751  14.359
29402W        W  931  27.701  23.995   2.253
29403W        W  932  30.969   0.727   2.841
29404W        W  933   9.650  40.061   3.301
29405W        W  934   7.204   9.584   0.779
29406W        W  935  11.742  26.087   2.130
29407W        W  936   7.400  20.963   0.441
29408W        W  937  34.807  25.640  13.470
29409W        W  938   4.841   7.885   2.931
29410W        W  939   5.326  21.230  12.945
29411W        W  940  34.781  33.047  13.241
29412W        W  941  19.833  14.854   0.332
29413W        W  942   2.919  29.976  13.090
29414W        W  943  11.376  29.119  11.609
29415W        W  944   1.174  18.577   0.092
29416W        W  945  33.461   7.390  10.657
29417W        W  946  25.635  41.434   3.644
29418W        W  947  17.787  27.031  13.037
29419W        W  948  21.952  42.379   4.507
29420W        W  949  27.244  16.709  11.839
29421W        W  950  14.609   5.827  12.842
29422W        W  951  24.561  42.042  14.850
29423W        W  952  39.290  28.195   3.170
29424W        W  953  42.442  32.919  10.547
29425W        W  954  29.085  22.192  11.012
29426W        W  955  12.689   6.310  10.630
29427W        W  956  42.248  33.999  11.524
29428W        W  957  25.898  37.403   3.083
29429W        W  958  42.023   6.106  11.978
29430W        W  959  20.857   0.917  12.517
29431W        W  960  25.491  25.928   3.781
29432W        W  961  44.917  11.225  12.087
29433W        W  962  17.703  22.519   0.720
29434W        W  963  29.697   2.945   1.700
29435W        W  964  30.874  16.339  14.017
29436W        W  965   1.853  30.936   3.814
29437W        W  966  10.817  35.100  10.986
29438W        W  967  29.073  22.579  12.164
29439W        W  968  41.902  27.052  14.814
29440W        W  969  36.602  43.849  11.961
29441W        W  970  31.251   0.301  11.948
29442W        W  971  28.878  23.548  11.657
29443W        W  972  32.375  18.551   4.180
29444W        W  973  32.256  15.711  12.075
29445W        W  974   2.010  28.656   0.480
29446W        W  975  32.456  31.472  13.575
29447W        W  976  33.059  29.439  13.969
29448W        W  977   0.066  35.731   0.703
29449W        W  978  38.869  33.728   4.209
29450W        W  979   3.086  20.276  13.811
29451W        W  980  17.820   7.340   4.188
29452W        W  981  33.962  43.864   3.899
29453W        W  982  43.703  37.562   0.284
29454W        W  983  27.523  15.292  13.178
29455W        W  984  29.020  15.753  10.911
29456W        W  985  27.949  31.062  11.007
29457W        W  986  29.471  34.332  13.397
29458W        W  987  39.690  42.127   3.216
29459W        W  988   9.623  13.804   0.765
29460W        W  989  25.739  36.827  14.917
29461W        W  990   8.353   1.444   2.852
29462W        W  991  27.721  10.653  11.977
29463W        W  992   5.914  35.081   3.880
29464W        W  993  43.128   4.895   3.953
29465W        W  994  15.700  30.193  14.854
29466W        W  995  28.777  44.959  12.407
29467W        W  996  25.237  26.640  10.804
29468W        W  997  23.613  19.726  11.406
29469W        W  998  30.565   3.402   1.397
29470W        W  999  30.336  41.918  14.064
29471W        W 1000  38.843  34.891  12.926
29472W        W 1001   9.851  44.241   1.844
29473W        W 1002   0.391  31.386   0.790
29474W        W 1003  36.784   2.434  11.940
29475W        W 1004  16.791   9.039  13.127
29476W        W 1005  44.742  24.551  13.763
29477W        W 1006  13.529  39.614  13.027
29478W        W 1007  28.566  28.337  12.736
29479W        W 1008   6.781  27.597   2.145
29480W        W 1009  14.316  19.898   5.023
29481W        W 1010   8.434  43.224   1.703
29482W        W 1011  29.594   3.634   3.691
29483W        W 1012  20.897   5.519  13.451
29484W        W 1013  39.745  44.785  11.039
29485W        W 1014  30.204  41.980  11.076
29486W        W 1015  16.199  42.327  14.995
29487W        W 1016  19.210  12.130  12.442
29488W        W 1017  44.865   0.806  13.398
29489W        W 1018  31.464  35.979   1.377
29490W        W 1019  33.870  34.097   2.712
29491W        W 1020  34.002   3.670   4.179
29492W        W 1021  19.760  21.961   3.448
29493W        W 1022  37.781  18.786  14.386
29494W        W 1023  35.052  11.596  12.805
29495W        W 1024  26.397  12.209   2.305
29496W        W 1025  15.630  31.878   1.040
29497W        W 1026  43.021  16.479  11.767
29498W        W 1027  31.497  16.679   4.691
29499W        W 1028  44.043  42.288   4.350
29500W        W 1029  23.509   4.714   4.178
29501W        W 1030  10.490  30.752  12.444
29502W        W 1031   5.103  10.857  11.140
29503W        W 1032  27.710  14.664  12.846
29504W        W 1033  18.338  10.216  13.047
29505W        W 1034  41.796  37.937   4.945
29506W        W 1035   7.322   3.274  13.615
29507W        W 1036  16.176  27.471   4.182
29508W        W 1037  38.103  29.126   3.499
29509W        W 1038  20.287  14.945  11.205
29510W        W 1039  38.903  23.600   4.606
29511W        W 1040  34.817  11.265   1.858
29512W        W 1041  15.659  37.021   1.520
29513W        W 1042  22.903  10.284   1.012
29514W        W 1043  11.724   9.967  10.309
29515W        W 1044  23.219   0.203  10.835
29516W        W 1045  19.973  42.837   3.668
29517W        W 1046  12.854  21.671   3.315
29518W        W 1047  34.589  13.324  12.668
29519W        W 1048  27.212   7.415   2.311
29520W        W 1049   6.896  41.911  12.895
29521W        W 1050  11.633  24.702  14.187
29522W        W 1051  13.175  22.534   3.567
29523W        W 1052  41.247   9.699  11.629
29524W        W 1053  24.525  38.966   0.525
29525W        W 1054  33.102  28.350  12.029
29526W        W 1055  37.511  43.761  13.050
29527W        W 1056  17.812  16.287   0.332
29528W        W 1057  41.425  24.554   3.879
29529W        W 1058  38.816  37.276   5.004
29530W        W 1059  16.569  40.086  13.479
29531W        W 1060  15.546  23.521  12.598
29532W        W 1061   9.054   7.656  11.964
29533W        W 1062  28.458  31.612   4.185
29534W        W 1063  13.122   9.633   2.857
29535W        W 1064  28.428  10.831   2.334
29536W        W 1065   5.683  42.396  12.880
29537W        W 1066  34.370  36.308  13.473
29538W        W 1067  17.040  25.930   2.299
29539W        W 1068   2.027  42.378   0.530
29540W        W 1069   9.358  30.463   5.119
29541W        W 1070  38.146  21.554  13.425
29542W        W 1071  31.004  22.822   0.851
29543W        W 1072  21.729  24.550  12.616
29544W        W 1073  13.144  26.476  11.557
29545W        W 1074  31.991  42.054   5.101
29546W        W 1075  29.894   7.382   1.442
29547W        W 1076  17.084  27.188   0.260
29548W        W 1077  24.290  32.591  12.543
29549W        W 1078  13.531  20.976  12.703
29550W        W 1079  31.995   3.838   1.299
29551W        W 1080   8.890   6.260   3.660
29552W        W 1081  34.030  17.192  11.217
29553W        W 1082   1.583  13.434   4.092
29554W        W 1083  20.955  19.654   1.004
29555W        W 1084  29.073  22.286   1.096
29556W        W 1085  19.025   3.753  10.481
29557W        W 1086  24.950  25.631   3.668
29558W        W 1087  11.808  21.235   0.022
29559W        W 1088   1.254  33.990   1.063
29560W        W 1089   6.186  38.048  13.007
29561W        W 1090  39.148  35.172  12.621
29562W        W 1091  14.612  18.279   1.231
29563W        W 1092   9.024  35.025   3.311
29564W        W 1093   2.435  42.016   1.922
29565W        W 1094  36.888  20.195   0.621
29566W        W 1095   7.319  10.830   2.265
29567W        W 1096  31.560  16.958   2.229
29568W        W 1097  11.863  44.227  14.138
29569W        W 1098   6.330   0.581   0.388
29570W        W 1099  20.935  38.017  13.024
29571W        W 1100   2.531  29.540   1.920
29572W        W 1101  34.652  31.096  14.809
29573W        W 1102  40.138  16.727  12.482
29574W        W 1103   7.161  40.629   1.275
29575W        W 1104  31.921  42.606  12.567
29576W        W 1105  37.579  38.402   3.755
29577W        W 1106   4.642  17.216   4.199
29578W        W 1107  44.845  25.771  11.240
29579W        W 1108  11.380  18.169   2.908
29580W        W 1109  22.744  14.309   4.585
29581W        W 1110  44.960  13.551  14.452
29582W        W 1111  40.470  34.672  14.842
29583W        W 1112  43.045  11.615  12.377
29584W        W 1113   1.923  28.573  12.943
29585W        W 1114  32.095  15.567  12.607
29586W        W 1115  19.334  36.309   1.234
29587W        W 1116  21.662   2.438   2.482
29588W        W 1117   4.890  30.105   4.096
29589W        W 1118  13.022   2.604  13.660
29590W        W 1119  43.303  18.457   2.198
29591W        W 1120   1.693  21.151   4.488
29592W        W 1121  16.537  27.518   2.178
29593W        W 1122  12.735  30.351  13.081
29594W        W 1123  15.055  12.617   1.282
29595W        W 1124  37.445  19.729   2.291
29596W        W 1125  32.325  28.158   5.263
29597W        W 1126   6.661  44.367   0.917
29598W        W 1127  22.120  29.461   2.549
29599W        W 1128  35.447  39.517   0.569
29600W        W 1129  26.225  26.238  13.900
29601W        W 1130  41.869  21.111  11.668
29602W        W 1131  10.056  33.034   1.424
29603W        W 1132  18.170   2.657  12.895
29604W        W 1133  28.680  21.807   4.311
29605W        W 1134  10.437  25.738  14.410
29606W        W 1135  39.737   6.849  13.943
29607W        W 1136  21.240  36.993   4.936
29608W        W 1137  10.340   1.691  10.641
29609W        W 1138  31.466   9.624   2.163
29610W        W 1139  28.730  20.095   2.723
29611W        W 1140  30.964  14.671   2.405
29612W        W 1141  38.593  13.933   0.208
29613W        W 1142  40.092   2.805  12.876
29614W        W 1143   8.090  22.763   4.501
29615W        W 1144  34.270   4.021  10.818
29616W        W 1145  44.228  32.694  11.448
29617W        W 1146  26.519  28.901  11.096
29618W        W 1147  25.030  20.150  10.915
29619W        W 1148  21.940   8.829   4.542
29620W        W 1149   0.206  43.487   4.555
29621W        W 1150  39.989  24.759   1.481
29622W        W 1151  20.512  23.258   1.932
29623W        W 1152   1.936  39.907   2.215
29624W        W 1153  19.593   0.692  11.700
29625W        W 1154  32.018   5.590  11.883
29626W        W 1155  25.152   3.751  13.237
29627W        W 1156  18.661  26.000   2.445
29628W        W 1157  26.762  24.147   2.093
29629W        W 1158   9.894  16.773  12.524
29630W        W 1159   5.245  27.498   2.293
29631W        W 1160   3.861  43.364  12.302
29632W        W 1161  22.522  19.090   1.894
29633W        W 1162  38.330   5.535   4.093
29634W        W 1163  17.096  23.500   2.254
29635W        W 1164  35.073  19.260  14.356
29636W        W 1165  31.168   4.904  10.344
29637W        W 1166  44.833  35.027   2.345
29638W        W 1167  31.606  35.856  14.526
29639W        W 1168  44.651   4.131  13.861
29640W        W 1169  40.260  35.696  10.388
29641W        W 1170  21.626  22.212  11.857
29642W        W 1171  27.994   2.927   1.891
29643W        W 1172  33.936  11.734  14.450
29644W        W 1173  25.623  39.007  13.054
29645W        W 1174  40.492  33.910  13.836
29646W        W 1175  26.039  14.199   3.380
29647W        W 1176  43.870  23.260  14.557
29648W        W 1177  15.733  12.118   4.784
29649W        W 1178  28.482  42.354  12.478
29650W        W 1179   5.725  19.890   2.129
29651W        W 1180  27.156  20.732  12.070
29652W        W 1181  40.052   0.393  13.215
29653W        W 1182  41.541  30.804   1.763
29654W        W 1183  32.478  10.945  13.619
29655W        W 1184  26.715  37.424   1.920
29656W        W 1185  28.015  17.700  12.909
29657W        W 1186  32.436  38.241  14.730
29658W        W 1187  30.539  36.410   3.700
29659W        W 1188   5.597  20.658   0.361
29660W        W 1189  21.197  29.905   4.234
29661W        W 1190  26.229  21.664   3.341
29662W        W 1191  39.794  22.486   4.184
29663W        W 1192  13.632  23.259  13.541
29664W        W 1193  18.063   2.762  12.011
29665W        W 1194   3.289  27.996   3.289
29666W        W 1195   4.807   4.860  12.051
29667W        W 1196  29.369  11.180   0.720
29668W        W 1197  23.922  35.850   3.629
29669W        W 1198   4.927  38.587   0.061
29670W        W 1199  16.757   9.721  12.382
29671W        W 1200  34.081  19.520  14.530
29672W        W 1201  24.133  18.566  10.838
29673W        W 1202  36.971  29.068  11.839
29674W        W 1203  15.704  35.804   0.457
29675W        W 1204  30.965  19.557  13.822
29676W        W 1205  33.462  12.544  12.436
29677W        W 1206  43.683  34.711   5.064
29678W        W 1207  26.844  43.934  13.085
29679W        W 1208  30.570   0.963   4.613
29680W        W 1209  19.610   0.225   3.827
29681W        W 1210  18.343  42.959  11.707
29682W        W 1211   0.680  32.613  14.872
29683W        W 1212  20.350   3.977   2.372
29684W        W 1213  35.390  18.980   2.767
29685W        W 1214  16.164  37.562  14.820
29686W        W 1215   5.582  43.704  12.441
29687W        W 1216  28.595  38.088  11.448
29688W        W 1217   8.607   3.427  12.607
29689W        W 1218  42.414  43.434  12.366
29690W        W 1219  25.952  16.088  13.622
29691W        W 1220  11.364  33.771  14.005
29692W        W 1221   5.844  21.059   4.358
29693W        W 1222  28.752  42.305  12.916
29694W        W 1223  12.254  19.385   4.496
29695W        W 1224  35.137   5.150   3.683
29696W        W 1225   9.399   3.868  14.060
29697W        W 1226  16.224  22.240  14.808
29698W        W 1227  32.551   8.421  10.710
29699W        W 1228  34.356  41.274  14.925
29700W        W 1229   8.028  36.046  10.683
29701W        W 1230  19.024  43.527  11.723
29702W        W 1231  40.302  28.310   0.017
29703W        W 1232  26.688  44.208   4.544
29704W        W 1233  31.297  19.571  11.540
29705W        W 1234   6.277  17.532   2.635
29706W        W 1235  17.577  24.686   1.014
29707W        W 1236  44.052  17.206   4.137
29708W        W 1237  23.926  37.006  14.895
29709W        W 1238  43.870  13.087  14.042
29710W        W 1239  15.536  10.638   1.237
29711W        W 1240  41.538  22.577   4.613
29712W        W 1241   1.697  34.470   0.521
29713W        W 1242  36.867  14.932   1.349
29714W        W 1243  25.806  20.614  11.998
29715W        W 1244  36.378  39.328   0.012
29716W        W 1245  21.758  44.951   0.799
29717W        W 1246  29.559  42.528   2.198
29718W        W 1247  37.560  33.228   2.167
29719W        W 1248  35.473   3.484   0.765
29720W        W 1249  16.240  44.762   0.289
29721W        W 1250  41.807  36.910   0.355
29722W        W 1251  43.757  10.799  12.949
29723W        W 1252  44.063  16.725  14.576
29724W        W 1253  14.564   0.944  12.516
29725W        W 1254  35.936  23.520   4.522
29726W        W 1255  42.688  44.961  13.400
29727W        W 1256   8.859  30.433   0.427
29728W        W 1257  20.813  10.817   0.443
29729W        W 1258   7.413   9.097  14.934
29730W        W 1259  14.446  14.124  14.052
29731W        W 1260   6.198  22.502  11.494
29732W        W 1261  23.511  34.040   3.144
29733W        W 1262  36.353   1.274   2.876
29734W        W 1263  28.605  43.715  11.100
29735W        W 1264  23.983  18.459   3.712
29736W        W 1265  24.540  25.971   3.610
29737W        W 1266  19.631  13.629   1.041
29738W        W 1267   1.686  23.073   0.579
29739W        W 1268  34.792  43.325  10.661
29740W        W 1269   8.419  20.599  13.914
29741W        W 1270   9.087   8.281   2.756
29742W        W 1271  24.564  37.515   3.493
29743W        W 1272  39.527  21.037  11.539
29744W        W 1273  40.488   4.611   4.663
29745W        W 1274  36.545  23.725   1.297
29746W        W 1275  33.124   4.742  10.317
29747W        W 1276  29.593  40.593   0.794
29748W        W 1277  13.808  37.835   1.211
29749W        W 1278  37.020  17.217   0.717
29750W        W 1279  33.381  31.529   3.173
29751W        W 1280   8.021  27.614   0.788
29752W        W 1281  18.582  41.459  12.391
29753W        W 1282  10.390  14.341   0.485
29754W        W 1283   1.498  27.025  11.871
29755W        W 1284  23.052  19.347  12.405
29756W        W 1285  30.640  26.312   1.946
29757W        W 1286  40.779   2.743   3.063
29758W        W 1287  44.177  26.647  11.953
29759W        W 1288   4.200  25.477   0.468
29760W        W 1289  19.850  22.113  14.822
29761W        W 1290  34.289  16.495   2.302
29762W        W 1291  38.817  39.637  13.870
29763W        W 1292  16.507   3.218   2.323
29764W        W 1293  38.119  35.910   2.106
29765W        W 1294   6.252  44.575   4.196
29766W        W 1295   5.386  15.246  11.127
29767W        W 1296  35.994  39.464  14.686
29768W        W 1297  16.571  36.425  12.522
29769W        W 1298  10.721  40.001   1.567
29770W        W 1299  42.955  34.549   1.006
29771W        W 1300  29.331  32.432  10.277
29772W        W 1301   9.459  25.549  12.961
29773W        W 1302  44.621  36.029   0.846
29774W        W 1303  36.838  34.848  13.004
29775W        W 1304   6.415  19.311   1.416
29776W        W 1305  34.577   4.733   1.227
29777W        W 1306   0.586   0.009  10.628
29778W        W 1307  33.160  33.438  12.761
29779W        W 1308  42.051  14.762  13.669
29780W        W 1309  13.678  29.242   3.842
29781W        W 1310  11.281  20.758  14.435
29782W        W 1311  26.548  35.884   2.227
29783W        W 1312  40.607  42.938  13.651
29784W        W 1313   8.595  40.406  13.550
29785W        W 1314  10.353  16.189   4.638
29786W        W 1315  19.288  42.978  11.140
29787W        W 1316  38.988  15.614   5.084
29788W        W 1317  26.556  28.886   4.115
29789W        W 1318  30.568  32.487   2.829
29790W        W 1319  41.528  24.069   1.756
29791W        W 1320  41.388   8.154   1.750
29792W        W 1321  38.524   5.974  11.555
29793W        W 1322  34.272   4.912   4.632
29794W        W 1323  35.268   9.853   3.220
29795W        W 1324  36.848  39.925   1.862
29796W        W 1325  18.599  10.661   4.845
29797W        W 1326   3.328   5.390   4.508
29798W        W 1327   6.903  34.344   0.674
29799W        W 1328  27.489  39.837   1.499
29800W        W 1329  31.323  17.276  14.076
29801W        W 1330   1.162  20.583  14.613
29802W        W 1331  12.227   4.835   0.023
29803W        W 1332  26.701   4.259   3.868
29804W        W 1333  16.122  31.760   0.395
29805W        W 1334   9.227  34.599  11.664
29806W        W 1335   4.312  37.571   2.654
29807W        W 1336  29.867  25.780  14.489
29808W        W 1337  24.761   8.855  13.768
29809W        W 1338  23.051  32.911   3.546
29810W        W 1339   2.539  14.134  13.026
29811W        W 1340   0.162  25.984  10.656
29812W        W 1341  30.991   3.477  13.469
29813W        W 1342  35.086  41.233   1.705
29814W        W 1343  13.190  25.178  13.575
29815W        W 1344  13.709   0.373   0.824
29816W        W 1345  39.440  25.537   4.511
29817W        W 1346  40.801  12.381  11.067
29818W        W 1347  34.543  41.082   4.319
29819W        W 1348  24.268  16.037  12.033
29820W        W 1349   3.674  30.430   4.147
29821W        W 1350   1.944  20.490  14.283
29822W        W 1351  34.595   4.443   2.505
29823W        W 1352  10.260  29.662   2.742
29824W        W 1353  14.648  17.370   1.668
29825W        W 1354   3.268  20.571  12.581
29826W        W 1355   2.067  29.012   2.765
29827W        W 1356  40.914  24.633   3.203
29828W        W 1357  39.410  14.580   1.913
29829W        W 1358   3.265  28.942  12.037
29830W        W 1359  42.612  24.158   0.892
29831W        W 1360  16.586  31.095  14.091
29832W        W 1361  17.553  12.028  11.701
29833W        W 1362   6.262  13.569  10.163
29834W        W 1363  24.193  11.292  13.454
29835W        W 1364  34.125  15.119   2.108
29836W        W 1365   1.817  36.103   0.692
29837W        W 1366  36.133  11.842   2.819
29838W        W 1367  37.657  38.668  10.281
29839W        W 1368   6.238  10.383  14.396
29840W        W 1369  36.280  31.485  14.617
29841W        W 1370   3.723  11.259  11.920
29842W        W 1371  39.281  39.944  14.690
29843W        W 1372  14.163  33.209  13.285
29844W        W 1373  34.020  44.773   4.821
29845W        W 1374  20.594  31.509   3.489
29846W        W 1375   3.962   0.993  11.255
29847W        W 1376  40.623  43.254   0.763
29848W        W 1377   2.873  18.546  11.734
29849W        W 1378  22.934  37.387  11.829
29850W        W 1379  17.008  37.251   4.131
29851W        W 1380  13.482  32.523   1.760
29852W        W 1381  41.574  24.755   1.965
29853W        W 1382  18.620  23.289  12.948
29854W        W 1383  44.314  22.276  13.479
29855W        W 1384   6.259  36.369  10.694
29856W        W 1385  24.159  23.139   3.925
29857W        W 1386  26.616   7.487   0.239
29858W        W 1387  16.596  40.418   4.706
29859W        W 1388  29.188  32.221   1.915
29860W        W 1389  10.863  26.735   3.193
29861W        W 1390  30.519  18.258  10.872
29862W        W 1391  42.162  27.771  13.991
29863W        W 1392  29.794   4.399   2.846
29864W        W 1393  43.936  12.060  12.021
29865W        W 1394  40.281  15.366  13.401
29866W        W 1395   4.798  27.247  10.573
29867W        W 1396  33.071   9.176  10.413
29868W        W 1397  29.055  42.950   4.185
29869W        W 1398   3.580  35.053  12.088
29870W        W 1399  27.531  31.882  12.329
29871W        W 1400  30.963  18.739   0.060
29872W        W 1401  25.915  37.309   0.830
29873W        W 1402   7.731  36.572   0.366
29874W        W 1403  41.266  18.232  11.661
29875W        W 1404  44.502  38.805   0.678
29876W        W 1405  28.489  32.154  13.095
29877W        W 1406  18.080  34.663  14.456
29878W        W 1407   5.972  11.206  11.471
29879W        W 1408  17.355  12.693  14.146
29880W        W 1409  14.687   5.624  13.320
29881W        W 1410   7.386  17.427   4.249
29882W        W 1411   7.515   2.422   1.251
29883W        W 1412  26.831  40.415  12.830
29884W        W 1413  14.215  25.741  13.294
29885W        W 1414  44.445  15.687   2.194
29886W        W 1415   3.485  29.379  14.030
29887W        W 1416  42.445  37.410   2.352
29888W        W 1417  34.561  33.944   1.221
29889W        W 1418  37.978   7.728   3.648
29890W        W 1419  37.047  22.024  12.572
29891W        W 1420   1.020   4.885  13.994
29892W        W 1421  44.235  40.382  13.834
29893W        W 1422   4.814  42.323   2.852
29894W        W 1423   5.399  17.764  14.702
29895W        W 1424   9.461  23.772  12.846
29896W        W 1425  11.752  17.758  14.810
29897W        W 1426  17.764   4.383  14.591
29898W        W 1427  25.277  20.837  14.288
29899W        W 1428   2.893  11.280   4.127
29900W        W 1429   1.096   8.116  13.915
29901W        W 1430  11.966  21.644   4.032
29902W        W 1431  43.048  29.690   1.944
29903W        W 1432  16.305  43.265   2.295
29904W        W 1433  18.682  29.547  13.327
29905W        W 1434   2.843  13.811   3.953
29906W        W 1435  26.989  32.429   1.292
29907W        W 1436   8.413   6.151  13.356
29908W        W 1437  11.557  14.270   1.839
29909W        W 1438  32.932  36.115  11.495
29910W        W 1439  34.052  15.800  10.687
29911W        W 1440   6.205  28.474  10.708
29912W        W 1441  16.802  32.174   4.510
29913W        W 1442  35.955  32.073  11.347
29914W        W 1443  28.748   3.048   1.440
29915W        W 1444   3.281  22.303   3.701
29916W        W 1445  18.061  40.090  11.722
29917W        W 1446  17.070   0.951   2.832
29918W        W 1447  30.945   7.404   4.611
29919W        W 1448  27.526   4.938  12.899
29920W        W 1449   6.308  17.339   4.558
29921W        W 1450  33.311  21.880  11.978
29922W        W 1451   7.355   4.727  11.077
29923W        W 1452  41.730  41.386  14.103
29924W        W 1453  16.168  38.340  12.605
29925W        W 1454  10.635  24.724   4.137
29926W        W 1455  34.849  24.948   2.292
29927W        W 1456  29.704   1.487  14.105
29928W        W 1457  15.088  23.848   3.627
29929W        W 1458  17.555  32.151  10.768
29930W        W 1459  38.329  42.786   1.525
29931W        W 1460  19.731   3.696   4.532
29932W        W 1461  36.919  14.691   0.813
29933W        W 1462  15.705   1.531   0.782
29934W        W 1463   7.860  10.968  12.875
29935W        W 1464  25.760  18.868  11.671
29936W        W 1465  34.133   0.935  11.537
29937W        W 1466   6.259  18.112  10.272
29938W        W 1467   6.359  14.516   3.722
29939W        W 1468   8.830   7.733  10.888
29940W        W 1469  18.570   1.752   3.349
29941W        W 1470  13.163  20.627   3.606
29942W        W 1471  16.796  33.476   2.177
29943W        W 1472  10.097   7.288  13.818
29944W        W 1473  20.715   4.687   3.486
29945W        W 1474  30.997  35.146  14.312
29946W        W 1475  14.715  12.888   3.598
29947W        W 1476  40.889  29.629   4.149
29948W        W 1477  14.610  16.773   0.864
29949W        W 1478  11.335   3.212  10.683
29950W        W 1479  35.785  40.502  13.971
29951W        W 1480  35.394  10.707  13.325
29952W        W 1481  41.974   8.412  10.493
29953W        W 1482  17.296  20.579  13.146
29954W        W 1483  24.931  19.587   3.581
29955W        W 1484  37.508  11.855  12.085
29956W        W 1485  33.082  20.876   3.927
29957W        W 1486  23.005   6.795   4.265
29958W        W 1487  26.045  15.143   3.395
29959W        W 1488  31.093  13.081   1.430
29960W        W 1489   9.943  19.232  14.776
29961W        W 1490  18.118  14.707   4.050
29962W        W 1491  40.954  15.584  12.329
29963W        W 1492   6.616  33.997  10.794
29964W        W 1493   2.925  34.699  14.911
29965W        W 1494  20.992  26.135   5.099
29966W        W 1495  16.010  24.517   2.620
29967W        W 1496  33.732  18.790  13.420
29968W        W 1497  10.276   6.368   2.696
29969W        W 1498  18.150  26.112   0.820
29970W        W 1499  44.388  22.753   0.435
29971W        W 1500   2.818  14.571   4.483
29972W        W 1501  37.973  28.455  11.956
29973W        W 1502  14.771  26.232   2.284
29974W        W 1503  10.582   8.374   1.377
29975W        W 1504  39.924   6.827   1.872
29976W        W 1505  35.040  33.600   0.907
29977W        W 1506  32.917   2.451  13.862
29978W        W 1507  15.326  41.347   2.250
29979W        W 1508  20.237   3.354  10.939
29980W        W 1509   3.277  16.025  13.366
29981W        W 1510  15.170  37.200  12.871
29982W        W 1511  23.973  21.501  14.567
29983W        W 1512  12.864  10.852   0.288
29984W        W 1513  28.364  13.824   3.544
29985W        W 1514  20.706  25.125  12.218
29986W        W 1515  24.263  13.368  13.322
29987W        W 1516   0.058  21.603  14.306
29988W        W 1517  35.726  23.591  13.066
29989W        W 1518  14.175   7.761   0.863
29990W        W 1519   5.605   7.602   4.768
29991W        W 1520  29.123  14.676   0.937
29992W        W 1521  37.210  40.537  12.170
29993W        W 1522  34.666   1.057  14.531
29994W        W 1523  15.305   3.383   3.686
29995W        W 1524  24.732  31.927   2.709
29996W        W 1525   2.684   3.994  13.280
29997W        W 1526  36.841  30.606   3.624
29998W        W 1527   2.767  40.503   3.894
29999W        W 1528   6.396  41.916   4.720
30000W        W 1529   4.866  44.333   4.306
30001W        W 1530  18.709  34.277  13.483
30002W        W 1531  13.697  24.051  12.568
30003W        W 1532  43.488   8.167   2.205
30004W        W 1533  29.936  30.341   4.561
30005W        W 1534  38.353   1.064  13.325
30006W        W 1535  44.760   4.267  10.667
30007W        W 1536  34.197  40.644   0.786
30008W        W 1537  14.794  19.691   2.296
30009W        W 1538  32.999   4.426  12.436
30010W        W 1539  11.179  14.105   2.774
30011W        W 1540  33.829  38.909   3.755
30012W        W 1541  25.756  12.667  11.994
30013W        W 1542   0.267  22.684  12.562
30014W        W 1543  22.077  10.461   1.424
30015W        W 1544  15.617   9.234  14.456
30016W        W 1545  16.841  18.271  12.247
30017W        W 1546  30.096   3.527   0.322
30018W        W 1547  28.857  25.952  11.512
30019W        W 1548  22.595  33.187   1.868
30020W        W 1549   6.243  38.569  12.976
30021W        W 1550  38.772  13.250  14.283
30022W        W 1551   3.840   9.219   4.070
30023W        W 1552  14.301  33.405   3.660
30024W        W 1553  18.200  15.942  12.079
30025W        W 1554  23.856  16.606   0.723
30026W        W 1555   9.833  31.050  10.611
30027W        W 1556  32.712  42.488   0.455
30028W        W 1557  16.340   6.510   3.918
30029W        W 1558  39.789   5.724   4.599
30030W        W 1559  43.482   1.631   0.758
30031W        W 1560   5.902  16.854  12.762
30032W        W 1561  23.956  44.617   1.797
30033W        W 1562   0.286   2.721   3.723
30034W        W 1563  13.133  23.087   4.510
30035W        W 1564  25.684  15.908   0.870
30036W        W 1565  43.909  10.666  13.858
30037W        W 1566  32.884  29.933  13.977
30038W        W 1567  41.242  32.767  11.120
30039W        W 1568  39.715  30.392  14.031
30040W        W 1569  17.080  16.168   4.913
30041W        W 1570  34.817  37.980   2.245
30042W        W 1571  33.461  19.148  14.459
30043W        W 1572   8.289  31.073  14.661
30044W        W 1573   9.717  37.191  13.128
30045W        W 1574  13.995  13.060   0.664
30046W        W 1575  40.124   7.293   3.780
30047W        W 1576   0.420  15.854  14.415
30048W        W 1577   5.684  20.866   9.428
30049W        W 1578   7.330  17.182   0.945
30050W        W 1579   6.335  15.552   2.841
30051W        W 1580  43.724  21.102  10.528
30052W        W 1581  38.130   7.027   1.724
30053W        W 1582  34.716   4.911   2.696
30054W        W 1583  36.588   1.976  11.095
30055W        W 1584  14.117   8.434   0.314
30056W        W 1585   2.567  14.214  12.162
30057W        W 1586  24.533  21.023   2.765
30058W        W 1587   6.425   6.814  14.887
30059W        W 1588   1.763  19.582  12.934
30060W        W 1589   7.977  17.745   9.885
30061W        W 1590  11.289   8.782   2.320
30062W        W 1591  32.329  29.144   3.193
30063W        W 1592  13.880   6.980   1.499
30064W        W 1593  41.781   6.764  14.265
30065W        W 1594  37.541  42.401  10.998
30066W        W 1595  34.831  18.636   1.317
30067W        W 1596  39.392   5.901   3.313
30068W        W 1597   3.894   6.662   3.102
30069W        W 1598  44.178  27.120  14.943
30070W        W 1599   7.306  24.661   0.218
30071W        W 1600  42.599  17.781  11.613
30072W        W 1601  10.200  10.700  12.651
30073W        W 1602   2.554  42.320  12.136
30074W        W 1603  44.852  18.050   1.956
30075W        W 1604  36.805  24.777   2.796
30076W        W 1605  14.606  24.482   2.632
30077W        W 1606   2.210  16.091  10.663
30078W        W 1607  11.626   2.916   2.233
30079W        W 1608  19.058   4.165  14.511
30080W        W 1609   6.966  20.632   5.104
30081W        W 1610  24.840  22.684  13.535
30082W        W 1611  24.457  25.935   3.112
30083W        W 1612  13.139  44.807  12.309
30084W        W 1613   5.160  35.901  12.537
30085W        W 1614   7.928  28.434  13.043
30086W        W 1615  11.222  36.391   4.783
30087W        W 1616  21.180  41.149  11.197
30088W        W 1617  13.305  37.920   2.342
30089W        W 1618  26.076   1.962   1.478
30090W        W 1619  12.284  34.711   1.071
30091W        W 1620  32.580  42.540  13.945
30092W        W 1621  20.215  13.914   0.530
30093W        W 1622   6.868  16.161  11.272
30094W        W 1623   5.391  25.572  14.889
30095W        W 1624   9.700  35.970   4.828
30096W        W 1625  43.258  43.757  14.608
30097W        W 1626  11.838  22.767  12.422
30098W        W 1627   4.639  21.221  11.552
30099W        W 1628  23.507  33.936  12.501
30100W        W 1629  14.591  18.296   4.130
30101W        W 1630   0.130  15.626   4.440
30102W        W 1631  24.712  44.089   2.200
30103W        W 1632  28.574  12.117  14.905
30104W        W 1633  13.539  35.471  13.009
30105W        W 1634  21.953  12.888  14.761
30106W        W 1635  18.477   9.103   0.960
30107W        W 1636   0.803  42.403   1.369
30108W        W 1637  22.816   2.628  11.433
30109W        W 1638   3.586   1.692   1.468
30110W        W 1639  23.646  27.134  11.545
30111W        W 1640  26.157  13.888  11.237
30112W        W 1641  39.060   5.025   4.586
30113W        W 1642   9.646  34.493   1.231
30114W        W 1643  42.017   2.442  14.337
30115W        W 1644  12.055  44.213   4.145
30116W        W 1645  44.923  13.593   4.777
30117W        W 1646  31.961  37.355   4.858
30118W        W 1647  16.162  10.139   2.128
30119W        W 1648  30.927   3.991   2.454
30120W        W 1649  32.894  32.681  11.609
30121W        W 1650  34.731  44.415  14.067
30122W        W 1651  37.901  25.748  11.448
30123W        W 1652   1.051  29.507  14.828
30124W        W 1653  14.753  39.557  11.398
30125W        W 1654   0.592  17.506  11.525
30126W        W 1655  15.443   4.721   4.636
30127W        W 1656  19.901  23.163  14.226
30128W        W 1657  15.982  35.545   3.048
30129W        W 1658  19.986   0.229   0.899
30130W        W 1659  11.904  34.424   0.282
30131W        W 1660  23.573   1.489  11.157
30132W        W 1661   7.411  21.085  14.949
30133W        W 1662  10.741  26.072  14.702
30134W        W 1663  39.789   5.202  10.599
30135W        W 1664  13.178  30.946  12.734
30136W        W 1665  43.327   3.310   4.205
30137W        W 1666  15.059  25.584  14.878
30138W        W 1667  27.423  31.827  11.433
30139W        W 1668  17.304  39.796  10.699
30140W        W 1669  33.906  30.145  11.015
30141W        W 1670   4.881   5.607   0.688
30142W        W 1671  44.673  13.650  13.467
30143W        W 1672   7.848  43.486   3.560
30144W        W 1673  15.678  35.022  14.477
30145W        W 1674  12.546  18.634   4.603
30146W        W 1675  13.231  33.188  11.291
30147W        W 1676  42.349  39.502  10.679
30148W        W 1677   3.732  14.217  11.248
30149W        W 1678  31.188  33.255   1.192
30150W        W 1679  21.522  11.277   1.005
30151W        W 1680  36.738  14.254  10.293
30152W        W 1681  38.631  32.731  11.136
30153W        W 1682  20.266   4.862  14.466
30154W        W 1683  43.309  41.493  13.136
30155W        W 1684  41.933  43.075  14.971
30156W        W 1685  11.352  25.981   2.444
30157W        W 1686  18.926   7.326  11.581
30158W        W 1687  15.801  25.155  14.029
30159W        W 1688  29.576  11.609  13.131
30160W        W 1689  27.183  35.317   4.132
30161W        W 1690   0.711   2.297   0.684
30162W        W 1691  16.855  25.251   4.246
30163W        W 1692   2.213   3.435   9.952
30164W        W 1693   6.748  15.362  11.275
30165W        W 1694  30.940  21.050  13.975
30166W        W 1695   8.341  29.693   2.280
30167W        W 1696  25.614  25.213  13.905
30168W        W 1697   8.859  26.897  13.036
30169W        W 1698  36.519  24.261   3.698
30170W        W 1699  39.626  31.685   4.688
30171W        W 1700  20.306  32.828   3.113
30172W        W 1701  17.701  26.020   2.081
30173W        W 1702  17.486  22.008  14.431
30174W        W 1703  31.591   0.991  10.647
30175W        W 1704  18.203  43.654  14.826
30176W        W 1705  31.789  34.344   0.390
30177W        W 1706  43.325   5.848   4.374
30178W        W 1707  38.640  18.766  11.203
30179W        W 1708  41.899  24.176  14.422
30180W        W 1709   7.653   0.952  13.280
30181W        W 1710  34.102  11.600   4.563
30182W        W 1711  23.988  36.950  13.488
30183W        W 1712  20.128  33.935  12.383
30184W        W 1713  23.799  36.649   4.745
30185W        W 1714  11.802   9.712   4.798
30186W        W 1715  17.922  27.703  14.971
30187W        W 1716  30.974  36.714  11.986
30188W        W 1717  39.333  30.940  12.597
30189W        W 1718  19.080  15.361  11.183
30190W        W 1719  10.731  14.387   2.648
30191W        W 1720  21.995  38.986  11.985
30192W        W 1721   5.822  27.641  11.698
30193W        W 1722  32.519  13.892   0.820
30194W        W 1723  36.734  17.576  11.224
30195W        W 1724  16.571   7.367   3.651
30196W        W 1725  21.093  43.281  14.845
30197W        W 1726  20.155  28.257   0.875
30198W        W 1727  36.304  27.092   1.508
30199W        W 1728  31.295   6.379  11.230
30200W        W 1729  29.456   4.536   1.880
30201W        W 1730  31.012  10.313   1.790
30202W        W 1731  30.110  23.230   2.175
30203W        W 1732  11.096   4.698  10.708
30204W        W 1733  19.342  18.636   0.711
30205W        W 1734   6.122  36.982   4.689
30206W        W 1735  29.962   0.457  12.013
30207W        W 1736  33.388   4.292  11.431
30208W        W 1737  27.217  40.897  14.845
30209W        W 1738   6.797  31.435   1.851
30210W        W 1739   0.370  15.139  10.756
30211W        W 1740   3.346  22.243   2.334
30212W        W 1741  41.324  34.623   1.854
30213W        W 1742  19.948  18.212  12.587
30214W        W 1743  23.233  37.048   3.378
30215W        W 1744  33.624  40.904   4.387
30216W        W 1745  38.313   4.696   0.196
30217W        W 1746   9.256  11.600   1.956
30218W        W 1747  25.199   5.300   2.099
30219W        W 1748  34.124  26.459  10.503
30220W        W 1749  39.275  42.743   1.358
30221W        W 1750  13.896  39.732  12.596
30222W        W 1751   2.254  44.081  14.134
30223W        W 1752  18.750   3.746  13.375
30224W        W 1753  28.160  11.244   2.189
30225W        W 1754  30.756  33.031   2.767
30226W        W 1755  10.262  17.386  10.559
30227W        W 1756  18.676   6.865  11.530
30228W        W 1757  26.658   8.251  14.483
30229W        W 1758   4.675  44.039  12.549
30230W        W 1759  44.179  15.618  11.198
30231W        W 1760  22.307  11.849   4.942
30232W        W 1761  39.845  20.918  13.971
30233W        W 1762  27.193  15.832  11.200
30234W        W 1763  13.237   9.152   3.699
30235W        W 1764  16.988   4.384  11.145
30236W        W 1765  39.559   5.688  10.638
30237W        W 1766  24.448  31.047   4.542
30238W        W 1767  11.192  18.565  13.392
30239W        W 1768  14.813  39.306  14.455
30240W        W 1769  10.879  30.410  12.561
30241W        W 1770  16.872  28.931  11.338
30242W        W 1771  25.410  24.696  10.626
30243W        W 1772  40.378  43.491  14.470
30244W        W 1773  27.791  14.998   4.544
30245W        W 1774  24.199  27.819   5.086
30246W        W 1775  35.837  11.962  11.459
30247W        W 1776  21.779  43.767   0.252
30248W        W 1777   2.475   0.407   2.197
30249W        W 1778   0.828  19.770  13.137
30250W        W 1779   4.791  36.004  13.997
30251W        W 1780  28.563   9.784   1.765
30252W        W 1781  44.478   4.920   2.385
30253W        W 1782  37.469   7.572   1.170
30254W        W 1783  14.169  32.356   1.344
30255W        W 1784  31.384  36.415   1.085
30256W        W 1785  19.195  16.741  11.826
30257W        W 1786  20.052  14.675   2.670
30258W        W 1787  13.362  11.852  11.982
30259W        W 1788  28.265  43.509  10.762
30260W        W 1789  25.346  15.890  11.183
30261W        W 1790  44.062   7.385   0.541
30262W        W 1791  14.629  18.553  14.438
30263W        W 1792   7.660  39.023   2.197
30264W        W 1793  11.493  13.365   0.838
30265W        W 1794  16.189  23.641  11.165
30266W        W 1795  25.039  34.846   2.724
30267W        W 1796  19.688  35.279   2.594
30268W        W 1797   8.300  22.649  11.580
30269W        W 1798   2.063  21.095   1.576
30270W        W 1799  39.775  29.505  10.732
30271W        W 1800  27.468  18.215   0.090
30272W        W 1801  44.735  20.094  12.051
30273W        W 1802  21.533  40.089   2.281
30274W        W 1803  21.200  24.140  13.929
30275W        W 1804  35.953  41.050  11.146
30276W        W 1805  37.200  16.769   2.169
30277W        W 1806  20.770  14.691   3.189
30278W        W 1807  30.695  38.014  13.008
30279W        W 1808  22.263  44.957  12.740
30280W        W 1809   4.797  21.647  13.426
30281W        W 1810  18.514  15.663   2.228
30282W        W 1811  28.657  23.067  11.503
30283W        W 1812  37.437   0.817   2.119
30284W        W 1813  42.866  29.416  13.307
30285W        W 1814  28.019  15.076  10.576
30286W        W 1815   9.242  29.060   0.948
30287W        W 1816  21.512  17.367  10.801
30288W        W 1817  31.416  25.753   1.769
30289W        W 1818  43.199   4.468   0.857
30290W        W 1819   5.008   9.408  12.898
30291W        W 1820  40.270  43.508   4.602
30292W        W 1821  44.718   9.335   2.316
30293W        W 1822   4.874  10.169   4.907
30294W        W 1823  40.863   0.524  10.854
30295W        W 1824  26.108   3.750  14.323
30296W        W 1825   9.486  31.034   1.197
30297W        W 1826   4.323  12.365  13.489
30298W        W 1827  40.817  24.468  10.563
30299W        W 1828  26.652   2.182   4.046
30300W        W 1829  26.070  41.882   2.318
30301W        W 1830  40.704  13.687   2.173
30302W        W 1831  24.309  22.661   1.353
30303W        W 1832  43.306  36.616  13.904
30304W        W 1833   5.246  34.017  14.988
30305W        W 1834  38.969  22.605   3.640
30306W        W 1835  18.904  30.393   0.675
30307W        W 1836  33.835  11.220  11.561
30308W        W 1837  31.395   7.721   0.941
30309W        W 1838   4.953  37.500   9.871
30310W        W 1839   5.707   9.482  11.018
30311W        W 1840  29.435  28.715   0.830
30312W        W 1841  27.435   7.405  11.166
30313W        W 1842   6.496  39.316   0.915
30314W        W 1843  34.786  40.909  11.614
30315W        W 1844  42.906  40.464  12.165
30316W        W 1845  11.126  30.940  11.505
30317W        W 1846  25.977  41.471   4.164
30318W        W 1847  14.731  33.478   2.396
30319W        W 1848  37.325  37.869   1.236
30320W        W 1849  15.801  14.804   4.347
30321W        W 1850  33.076  21.536   1.907
30322W        W 1851   0.901  43.951  11.178
30323W        W 1852  32.380   3.638   2.803
30324W        W 1853  27.162  17.234  13.297
30325W        W 1854  18.781  41.852   4.612
30326W        W 1855  13.159  14.594   3.680
30327W        W 1856  32.596  12.756   3.473
30328W        W 1857  39.477  24.210   2.322
30329W        W 1858  43.228  21.723  10.423
30330W        W 1859   8.787  38.349   2.266
30331W        W 1860   9.676  19.301  11.564
30332W        W 1861  10.107  33.501  10.723
30333W        W 1862   5.292  11.272   1.296
30334W        W 1863  22.555  17.839   1.208
30335W        W 1864  27.231  14.390   2.258
30336W        W 1865   4.448  19.633  14.405
30337W        W 1866  12.484   1.836  13.861
30338W        W 1867  44.060  44.253   1.255
30339W        W 1868  39.468  29.499   2.609
30340W        W 1869  23.179  43.343   3.210
30341W        W 1870  19.342  18.050   0.278
30342W        W 1871  20.772  12.167   2.353
30343W        W 1872  35.059   3.736   0.377
30344W        W 1873  15.747  43.575  11.621
30345W        W 1874  33.034  39.985  14.474
30346W        W 1875   6.931  39.945   3.542
30347W        W 1876  20.540   7.311   0.245
30348W        W 1877  34.102   1.800   0.853
30349W        W 1878   4.863  14.737  14.931
30350W        W 1879   1.505  20.569   4.794
30351W        W 1880  11.893   6.777  14.789
30352W        W 1881  27.919  12.083  12.070
30353W        W 1882   0.221  36.740   4.209
30354W        W 1883  43.796  32.802  14.031
30355W        W 1884  13.997  38.660   1.056
30356W        W 1885  20.545  44.904   0.422
30357W        W 1886  29.073  39.519  11.182
30358W        W 1887  10.273  35.507   1.578
30359W        W 1888   0.294  34.528  12.498
30360W        W 1889  30.514  10.255  11.874
30361W        W 1890  23.522  19.516  12.611
30362W        W 1891  42.436  20.246  14.874
30363W        W 1892   7.166  31.948   3.370
30364W        W 1893   8.336  43.326   4.486
30365W        W 1894   6.417  16.535   2.893
30366W        W 1895  31.948   8.686   0.240
30367W        W 1896  15.780  34.686   3.823
30368W        W 1897  24.453   2.912   3.294
30369W        W 1898  33.030   8.661   2.228
30370W        W 1899  30.538   1.558  12.748
30371W        W 1900  11.777   9.849   3.805
30372W        W 1901  43.788  14.119  11.073
30373W        W 1902   4.060   8.537   0.814
30374W        W 1903  31.878  23.258  10.583
30375W        W 1904   4.894   0.650  13.460
30376W        W 1905  42.976  14.157  14.557
30377W        W 1906  18.497   0.766  12.439
30378W        W 1907  25.139  40.439   0.525
30379W        W 1908  41.969  43.590   0.902
30380W        W 1909   4.980  32.069  14.856
30381W        W 1910  33.187   9.387  11.469
30382W        W 1911   7.688   1.225   4.572
30383W        W 1912  17.009  37.401   1.805
30384W        W 1913  18.706   0.758   4.268
30385W        W 1914   4.929  22.085   4.568
30386W        W 1915  28.711  24.286   3.835
30387W        W 1916  30.437  43.758   0.397
30388W        W 1917  38.621  20.517   2.822
30389W        W 1918  22.630  33.779  12.390
30390W        W 1919  38.630  33.574  13.991
30391W        W 1920  33.738  14.099   0.378
30392W        W 1921  28.506  21.983   2.891
30393W        W 1922  13.319  29.919  11.668
30394W        W 1923  13.220  24.295  12.633
30395W        W 1924  44.968  26.626  11.524
30396W        W 1925   0.732  35.519   1.471
30397W        W 1926  18.090   3.902  13.362
30398W        W 1927  28.928   3.200   0.681
30399W        W 1928  36.246   4.812  12.569
30400W        W 1929  23.292  21.657   3.600
30401W        W 1930  32.260  42.041   1.696
30402W        W 1931  30.849   4.005   0.853
30403W        W 1932  28.013  38.061   0.849
30404W        W 1933  25.063  34.044   0.979
30405W        W 1934   4.414  38.868  14.945
30406W        W 1935  29.355  10.849  12.919
30407W        W 1936  17.346  16.599   4.357
30408W        W 1937   5.252   1.669   2.406
30409W        W 1938  13.241  28.844   2.626
30410W        W 1939  34.770   6.530   4.654
30411W        W 1940   5.434  13.172  10.761
30412W        W 1941  42.893  35.844   0.350
30413W        W 1942  39.147   1.120   2.783
30414W        W 1943  17.046  11.669   2.225
30415W        W 1944  15.064  23.951   4.762
30416W        W 1945  28.353  41.425  12.348
30417W        W 1946  34.710  14.399  12.631
30418W        W 1947  19.023  16.812  11.335
30419W        W 1948   7.266  39.565   4.521
30420W        W 1949  10.948  15.632   3.710
30421W        W 1950   5.677   2.056   0.653
30422W        W 1951  35.446   7.867   3.129
30423W        W 1952  10.076   4.270   5.369
30424W        W 1953  16.325   9.750  11.024
30425W        W 1954  33.057  22.197   0.071
30426W        W 1955   8.270  28.477  11.422
30427W        W 1956  22.495  44.291  11.978
30428W        W 1957   1.913  36.276  12.624
30429W        W 1958   5.198  26.958   3.227
30430W        W 1959  44.311  17.054   2.142
30431W        W 1960   9.366  30.631  14.833
30432W        W 1961  20.524  37.279  14.853
30433W        W 1962  33.343   2.951  12.950
30434W        W 1963  23.799   1.420   3.758
30435W        W 1964  44.662   3.341  13.043
30436W        W 1965  25.935  39.661  10.732
30437W        W 1966  17.504  11.724   0.924
30438W        W 1967  22.367  33.327  12.370
30439W        W 1968  35.080  15.769  13.101
30440W        W 1969  16.390   5.252   1.215
30441W        W 1970  12.745  15.660  10.448
30442W        W 1971  14.597  38.898  13.758
30443W        W 1972  32.003  35.133  11.174
30444W        W 1973   0.751  27.598   3.119
30445W        W 1974  27.849  35.123   4.895
30446W        W 1975  27.001  39.579   2.329
30447W        W 1976   6.847  36.914  12.121
30448W        W 1977  36.015  42.928   1.286
30449W        W 1978   8.662  24.576   0.879
30450W        W 1979  28.936  26.327   1.439
30451W        W 1980  33.657  25.517   4.532
30452W        W 1981   1.451   7.460   0.384
30453W        W 1982  42.980  20.485   1.804
30454W        W 1983  27.604  26.644   2.850
30455W        W 1984   3.900  36.411   0.853
30456W        W 1985  29.132  30.478  11.431
30457W        W 1986  14.302   4.382  13.097
30458W        W 1987   0.694  41.373   3.218
30459W        W 1988   3.424  42.232   0.316
30460W        W 1989  17.685   2.829   0.905
30461W        W 1990  22.382  42.119  13.400
30462W        W 1991  26.141  28.140  13.606
30463W        W 1992   6.268  34.403   0.084
30464W        W 1993  27.044  23.954  14.830
30465W        W 1994  40.130  37.993  12.814
30466W        W 1995  23.477  32.498   4.738
30467W        W 1996  28.011  31.921   2.621
30468W        W 1997   1.863  21.080   1.117
30469W        W 1998  27.235  15.120   1.374
30470W        W 1999   6.631   0.963   3.198
30471W        W 2000  22.152   4.496  11.123
30472W        W 2001  40.106  43.398   0.885
30473W        W 2002  15.334  15.111   4.995
30474W        W 2003   6.612   4.661  13.852
30475W        W 2004  19.592  32.541  13.952
30476W        W 2005  40.843  18.172   1.690
30477W        W 2006  44.907  18.992  12.497
30478W        W 2007  44.280  26.554   1.192
30479W        W 2008   0.194   5.638  13.041
30480W        W 2009  25.884  39.866   0.250
30481W        W 2010  19.175  17.686  14.531
30482W        W 2011   5.253   6.781   4.135
30483W        W 2012  11.660  14.428   4.581
30484W        W 2013   9.370   5.661   2.615
30485W        W 2014  12.340   1.448   3.813
30486W        W 2015   8.469   6.816  13.974
30487W        W 2016  24.270   5.875  11.105
30488W        W 2017   7.332  28.105  14.035
30489W        W 2018  24.515  42.125   3.194
30490W        W 2019  40.092  32.565   1.247
30491W        W 2020   7.958   3.215  14.365
30492W        W 2021   7.284  11.239   3.184
30493W        W 2022  42.343  23.094   4.856
30494W        W 2023  21.736  31.483  11.698
30495W        W 2024  23.612  41.299  14.293
30496W        W 2025  22.839  12.107  11.515
30497W        W 2026  30.229  19.751   2.682
30498W        W 2027  24.759  44.754  11.337
30499W        W 2028  24.530  36.401   4.179
30500W        W 2029   5.294   3.183  10.665
30501W        W 2030  33.983  26.363   3.790
30502W        W 2031  29.221  40.550  12.402
30503W        W 2032  25.482  25.071  14.829
30504W        W 2033   3.250  42.513  11.225
30505W        W 2034  38.858  19.326   9.742
30506W        W 2035  13.124  41.238   3.705
30507W        W 2036  30.127  27.551  11.600
30508W        W 2037  31.450  26.006  14.440
30509W        W 2038  15.007  24.748   2.366
30510W        W 2039   2.383  24.532   0.302
30511W        W 2040  38.986  38.351   2.731
30512W        W 2041  37.066  38.831   0.330
30513W        W 2042   6.405  35.379  10.754
30514W        W 2043  26.917  18.847   4.618
30515W        W 2044  31.031   9.675   4.373
30516W        W 2045  17.532  13.978  14.857
30517W        W 2046   3.213  44.948   4.599
30518W        W 2047   3.183  38.355   3.748
30519W        W 2048  25.013  44.162  14.465
30520W        W 2049  35.970  15.635  13.499
30521W        W 2050  10.880  15.798   2.257
30522W        W 2051   2.485  27.782  10.590
30523W        W 2052  35.921   6.393  11.623
30524W        W 2053  36.572  23.572   3.214
30525W        W 2054  22.937   4.449  14.945
30526W        W 2055  25.133  40.429  12.068
30527W        W 2056   6.369   0.437   0.890
30528W        W 2057  34.080  11.088   3.689
30529W        W 2058   2.027   9.925   0.293
30530W        W 2059  26.488  43.283   4.931
30531W        W 2060  21.959  27.644  11.464
30532W        W 2061   4.446   0.897   4.531
30533W        W 2062   5.018  35.267  10.615
30534W        W 2063  39.941  44.984   4.044
30535W        W 2064  22.031  11.939  11.183
30536W        W 2065  22.072  22.560  13.108
30537W        W 2066   1.764  28.817  14.369
30538W        W 2067  10.950  26.198  10.833
30539W        W 2068  19.548   4.847   4.600
30540W        W 2069  34.453  43.992   3.771
30541W        W 2070  31.617  14.364  12.511
30542W        W 2071   9.457   4.917   0.683
30543W        W 2072  25.528  40.267  12.994
30544W        W 2073  30.155  11.770   3.586
30545W        W 2074  36.100  36.341  13.479
30546W        W 2075  43.510  25.196  13.590
30547W        W 2076  12.440  41.835  12.661
30548W        W 2077   0.522   8.785   1.953
30549W        W 2078  11.871  33.407   0.264
30550W        W 2079  15.368  40.815  13.938
30551W        W 2080  21.214  33.508   1.744
30552W        W 2081  29.305  11.708  14.541
30553W        W 2082  33.961  30.157   2.057
30554W        W 2083  15.743  42.970   2.718
30555W        W 2084  21.031  10.419  10.768
30556W        W 2085  25.947  30.593   4.412
30557W        W 2086  25.748  29.933   4.659
30558W        W 2087   8.801  10.552  12.918
30559W        W 2088  19.652  37.039  14.930
30560W        W 2089   2.474  20.202  14.878
30561W        W 2090  18.793  12.603   1.866
30562W        W 2091  10.792  34.956   0.585
30563W        W 2092  38.620  26.887   3.201
30564W        W 2093  22.184   7.164  12.375
30565W        W 2094   2.343   8.311   1.630
30566W        W 2095  31.040   1.767   4.017
30567W        W 2096  10.116  44.405  13.099
30568W        W 2097  30.650  29.215  13.566
30569W        W 2098  11.673  12.060   4.363
30570W        W 2099   9.007  38.411  12.505
30571W        W 2100  22.754   5.434   4.191
30572W        W 2101  31.633  35.961   2.284
30573W        W 2102  39.450  35.602  10.605
30574W        W 2103  40.821  15.450  13.324
30575W        W 2104  33.695   6.695  11.208
30576W        W 2105  28.843  15.161  13.864
30577W        W 2106  37.346  35.483   1.247
30578W        W 2107   6.407  31.935  11.239
30579W        W 2108  21.281  28.176  11.744
30580W        W 2109  34.951  29.341  12.030
30581W        W 2110  26.159  38.980   1.248
30582W        W 2111  41.514   7.382   3.918
30583W        W 2112  32.923  13.550   0.811
30584W        W 2113  41.697  22.145  11.713
30585W        W 2114  12.132  23.264   4.201
30586W        W 2115  25.243   1.069   3.281
30587W        W 2116  36.353   3.129   3.666
30588W        W 2117  19.705   1.506  12.068
30589W        W 2118  41.420  24.267  13.584
30590W        W 2119   4.847  18.068  13.526
30591W        W 2120  28.652  15.241  12.427
30592W        W 2121  33.495   8.713   2.478
30593W        W 2122  31.925   1.303  13.995
30594W        W 2123   2.626  21.152  10.423
30595W        W 2124  37.108   1.315   2.412
30596W        W 2125  39.017   1.106   3.623
30597W        W 2126  23.738  35.964  10.789
30598W        W 2127  13.967  10.870  14.359
30599W        W 2128  33.401  10.206  12.537
30600W        W 2129  22.547  31.803  13.967
30601W        W 2130  18.133  24.019   0.272
30602W        W 2131  16.266  11.915  11.069
30603W        W 2132  24.388   9.654   4.034
30604W        W 2133  24.669  23.293   0.938
30605W        W 2134  20.339   7.461   2.302
30606W        W 2135  12.503  39.335   2.166
30607W        W 2136  36.301  28.947  14.793
30608W        W 2137  31.411  19.446   0.780
30609W        W 2138  15.311  14.145  12.982
30610W        W 2139   3.014  18.271  12.868
30611W        W 2140   5.370  39.976  13.384
30612W        W 2141  23.586  19.165   3.230
30613W        W 2142   1.732  20.648  13.829
30614W        W 2143  29.600  15.811  14.259
30615W        W 2144   2.345   0.420  14.265
30616W        W 2145  13.741  11.403   4.203
30617W        W 2146  36.354  18.525   0.826
30618W        W 2147  33.654  37.481   0.822
30619W        W 2148  14.609  30.988   2.157
30620W        W 2149  22.382  25.022  11.110
30621W        W 2150  34.858  28.119   3.196
30622W        W 2151   6.204  23.612  11.168
30623W        W 2152  31.076  11.050  12.555
30624W        W 2153  34.022  29.382  11.488
30625W        W 2154   5.224  22.620   4.205
30626W        W 2155  25.546  41.513  12.864
30627W        W 2156   3.055  24.069  14.049
30628W        W 2157  26.577   8.231  10.510
30629W        W 2158   6.896  19.913  10.124
30630W        W 2159  24.524  40.783   1.689
30631W        W 2160  37.254  22.743   4.238
30632W        W 2161  38.044  23.914  11.241
30633W        W 2162  36.376  17.717  13.390
30634W        W 2163  19.463   0.942   2.771
30635W        W 2164   4.341  30.603   1.922
30636W        W 2165  41.313   2.747  11.494
30637W        W 2166  22.924  29.571  11.537
30638W        W 2167   4.237  44.443  12.750
30639W        W 2168  16.792  24.903   5.031
30640W        W 2169  41.966  32.339  11.460
30641W        W 2170  35.291  11.436  14.775
30642W        W 2171  12.871  35.110  14.336
30643W        W 2172   0.666  12.336   4.577
30644W        W 2173  35.170  15.331  14.507
30645W        W 2174  15.668   4.498   4.111
30646W        W 2175   4.284  33.048  11.688
30647W        W 2176   9.803  37.568   1.644
30648W        W 2177  27.860  23.196   4.159
30649W        W 2178   1.971   2.440   0.086
30650W        W 2179  15.609  19.236   1.103
30651W        W 2180  44.785  36.542   0.917
30652W        W 2181   8.883  26.824   4.146
30653W        W 2182  16.638  42.305   1.740
30654W        W 2183  41.544  34.758   3.373
30655W        W 2184  28.672  33.336  12.436
30656W        W 2185  34.106   8.266   4.089
30657W        W 2186  42.337  36.535  10.754
30658W        W 2187  33.090  22.742  12.044
30659W        W 2188  27.574   9.490  11.109
30660W        W 2189   6.142  22.948  12.499
30661W        W 2190  44.303  13.432   1.734
30662W        W 2191  11.115  37.368   3.903
30663W        W 2192  29.215   1.328  12.974
30664W        W 2193  25.758  22.106  14.882
30665W        W 2194   2.773  43.744  14.241
30666W        W 2195  44.674   3.857   3.160
30667W        W 2196   2.790  43.541   1.783
30668W        W 2197  11.072   6.790  10.734
30669W        W 2198  29.505  35.178   5.216
30670W        W 2199  16.321  11.145   3.213
30671W        W 2200  16.272  20.340   0.888
30672W        W 2201  28.113  26.536   1.817
30673W        W 2202  36.563   2.255  10.646
30674W        W 2203  15.757  37.327   4.508
30675W        W 2204  10.707  38.565   4.604
30676W        W 2205  31.536  40.957  11.544
30677W        W 2206   9.141  23.738   4.044
30678W        W 2207  24.701  32.224  14.993
30679W        W 2208  19.139  30.150  13.351
30680W        W 2209  24.427  20.218   0.294
30681W        W 2210  31.161  11.698   3.388
30682W        W 2211  38.913   3.629   9.869
30683W        W 2212  30.552  36.542  12.893
30684W        W 2213  39.040  23.085  14.984
30685W        W 2214   6.137  26.496   3.852
30686W        W 2215   3.117  43.833   3.804
30687W        W 2216   7.473   1.178  12.448
30688W        W 2217   2.019  32.001  13.353
30689W        W 2218   0.999  41.319   4.109
30690W        W 2219   9.071   5.002   4.212
30691W        W 2220  35.931  13.132  14.282
30692W        W 2221  44.947   1.859   2.337
30693W        W 2222   6.228  42.949   1.720
30694W        W 2223  36.801   2.790  11.490
30695W        W 2224  22.720  36.513  13.871
30696W        W 2225   8.728  21.458  12.530
30697W        W 2226   5.919   5.294   3.478
30698W        W 2227  22.183  44.453  12.933
30699W        W 2228  31.208  18.008  10.643
30700W        W 2229  33.449   5.058   0.370
30701W        W 2230   3.960  20.263   4.360
30702W        W 2231  28.323  20.935  14.809
30703W        W 2232  32.645   9.785  13.485
30704W        W 2233  21.559  17.579   4.659
30705W        W 2234  14.658  33.464   4.140
30706W        W 2235  36.019   8.797   2.313
30707W        W 2236  30.761   4.810  10.639
30708W        W 2237  33.221  28.923   1.732
30709W        W 2238  32.586  15.835  14.710
30710W        W 2239  20.024  24.213   2.753
30711W        W 2240  19.754   5.703  10.580
30712W        W 2241  29.520  29.703  13.855
30713W        W 2242   5.835  26.411   9.993
30714W        W 2243  12.599  36.233   0.225
30715W        W 2244  14.539  11.196  10.724
30716W        W 2245  27.055  31.030  14.461
30717W        W 2246  32.920  14.213  11.718
30718W        W 2247  24.148  18.580   4.197
30719W        W 2248  36.094  33.840   1.780
30720W        W 2249  21.721  28.441  11.947
30721W        W 2250  22.138  12.561   2.625
30722W        W 2251  26.008  19.589  12.977
30723W        W 2252  43.047  21.650  13.085
30724W        W 2253  44.942  28.441  12.797
30725W        W 2254  42.294   2.997  14.938
30726W        W 2255  40.964  18.247  12.107
30727W        W 2256   8.015  41.315   1.100
30728W        W 2257   1.899  24.420  14.525
30729W        W 2258  18.665  28.483   4.276
30730W        W 2259   4.013  27.464  14.545
30731W        W 2260  14.289  21.237   2.833
30732W        W 2261  20.649   4.163  14.827
30733W        W 2262  19.041  44.312  14.339
30734W        W 2263  14.230  38.150   0.723
30735W        W 2264  42.799  43.377  12.735
30736W        W 2265  42.382  16.220  11.313
30737W        W 2266  34.540  40.513   1.834
30738W        W 2267  42.987  31.571   1.030
30739W        W 2268  23.090  33.585  10.372
30740W        W 2269  34.862  11.106  12.804
30741W        W 2270  40.260   8.785  13.124
30742W        W 2271  28.897   9.916  14.384
30743W        W 2272   7.823  22.428   1.288
30744W        W 2273  10.676  42.072  11.165
30745W        W 2274  39.442  23.197   3.295
30746W        W 2275   3.110  14.373  14.719
30747W        W 2276   7.696  42.070  11.811
30748W        W 2277  10.743  14.816   2.079
30749W        W 2278  36.398  30.378   3.796
30750W        W 2279  27.125  34.089   3.731
30751W        W 2280  16.305   6.535   1.749
30752W        W 2281  14.007   5.720   1.338
30753W        W 2282  41.100  29.055   4.894
30754W        W 2283  40.834  13.878   3.745
30755W        W 2284  31.538  27.994   3.823
30756W        W 2285  21.288  41.681   1.344
30757W        W 2286  29.133  28.638  13.560
30758W        W 2287   4.930  15.341  12.050
30759W        W 2288  40.488  27.345  10.677
30760W        W 2289  44.234  12.787  13.112
30761W        W 2290  37.511   0.806  14.778
30762W        W 2291   8.569  10.227   3.810
30763W        W 2292   2.382  28.572  11.588
30764W        W 2293  12.193  25.996   0.274
30765W        W 2294   9.090  17.243  12.505
30766W        W 2295   6.672  11.317   0.885
30767W        W 2296   2.699  43.315  14.559
30768W        W 2297  13.661  34.462  11.637
30769W        W 2298   8.941  31.662  13.287
30770W        W 2299  23.140  26.677   4.593
30771W        W 2300  40.441   8.640   1.847
30772W        W 2301  38.333  37.056   4.746
30773W        W 2302   9.393   2.377   2.797
30774W        W 2303   1.478  26.570  11.584
30775W        W 2304  31.414  19.483   3.632
30776W        W 2305  10.198  28.469  13.838
30777W        W 2306  24.274  13.690  14.691
30778W        W 2307  44.574  12.697  12.419
30779W        W 2308   2.298  15.567  11.218
30780W        W 2309  22.631  41.957  14.864
30781W        W 2310   4.814  33.358  14.425
30782W        W 2311   8.267  41.906   3.916
30783W        W 2312  27.632  31.613  13.194
30784W        W 2313  42.796  29.869  12.905
30785W        W 2314   5.183  39.538   1.261
30786W        W 2315  32.340  23.072  13.292
30787W        W 2316  36.869  11.758  14.855
30788W        W 2317  18.681   8.412  10.856
30789W        W 2318  31.588  32.107  13.909
30790W        W 2319   6.027  24.858  10.559
30791W        W 2320  23.307  36.321   2.215
30792W        W 2321   5.591  23.965   2.604
30793W        W 2322  31.246   3.232   4.474
30794W        W 2323   6.366  16.188  14.923
30795W        W 2324  24.004  17.536   1.811
30796W        W 2325  31.543  13.830  12.473
30797W        W 2326   1.486  39.055  11.440
30798W        W 2327  39.815  40.934  12.145
30799W        W 2328   6.516  40.079   4.987
30800W        W 2329  36.432  35.336   1.217
30801W        W 2330  44.245  26.283   2.432
30802W        W 2331   4.278  25.440  13.389
30803W        W 2332  30.195  44.932  14.008
30804W        W 2333   3.216  35.811  12.537
30805W        W 2334  35.160  28.980   2.723
30806W        W 2335  37.551  30.759   4.564
30807W        W 2336  35.471  12.626  10.507
30808W        W 2337  11.879  42.002  13.913
30809W        W 2338  23.946  13.867   1.868
30810W        W 2339   0.835   8.592  14.726
30811W        W 2340  40.967   6.366  13.520
30812W        W 2341  34.117  12.661   2.370
30813W        W 2342   5.264  31.008   2.367
30814W        W 2343  23.132  24.952   3.191
30815W        W 2344  28.015  32.099  10.161
30816W        W 2345  38.073   7.741  14.559
30817W        W 2346  41.695   2.452  13.442
30818W        W 2347   8.418  42.519   2.721
30819W        W 2348  33.592   1.004   1.748
30820W        W 2349   4.958  35.478   0.663
30821W        W 2350  42.893  22.231  14.433
30822W        W 2351   3.205   9.578   4.217
30823W        W 2352  32.431  37.855   0.143
30824W        W 2353  26.991  39.004   0.480
30825W        W 2354  35.558  41.348   4.568
30826W        W 2355   3.641  30.580   1.266
30827W        W 2356  10.361  33.339   0.781
30828W        W 2357  17.237   1.296   4.143
30829W        W 2358  16.545  14.765   4.413
30830W        W 2359  34.536   0.948   4.581
30831W        W 2360  20.540  37.898   0.421
30832W        W 2361  15.731  44.295   5.180
30833W        W 2362  25.137  35.123   0.011
30834W        W 2363  11.149  39.884  10.755
30835W        W 2364  39.786  28.663  14.393
30836W        W 2365  17.854  39.895   3.870
30837W        W 2366  29.982  28.854  13.535
30838W        W 2367  13.668  41.438   4.968
30839W        W 2368  13.414  11.440   0.004
30840W        W 2369  31.335  42.477   3.811
30841W        W 2370  24.853  28.964  13.121
30842W        W 2371  29.184  34.535  14.836
30843W        W 2372  11.752  32.884   1.365
30844W        W 2373  29.755  37.424   4.006
30845W        W 2374  24.138  39.837  10.434
30846W        W 2375  22.533   0.921   3.573
30847W        W 2376  31.024  32.553   3.644
30848W        W 2377  32.152   0.382  11.972
30849W        W 2378   8.064  39.976   4.658
30850W        W 2379  43.273  41.824  12.481
30851W        W 2380  23.016  29.541   2.777
30852W        W 2381  21.051  27.645  11.105
30853W        W 2382  12.210  23.029  13.835
30854W        W 2383  17.579  24.950   3.670
30855W        W 2384  31.196  10.349   3.498
30856W        W 2385   9.811  20.187   2.125
30857W        W 2386   1.761  27.040  10.522
30858W        W 2387  31.930  16.967   1.296
30859W        W 2388   4.199  11.247   3.662
30860W        W 2389   7.894   5.918   3.960
30861W        W 2390  41.076  14.649   4.903
30862W        W 2391  22.286  39.764   1.845
30863W        W 2392  41.202  41.905  11.296
30864W        W 2393  12.844  14.873   1.364
30865W        W 2394  12.614  43.011   4.626
30866W        W 2395  41.495   5.320  12.922
30867W        W 2396  44.938  32.423  13.077
30868W        W 2397  18.193  23.925   1.767
30869W        W 2398  35.506  18.331   1.360
30870W        W 2399   1.972  24.252   1.438
30871W        W 2400  44.936  20.303   1.178
30872W        W 2401  21.289  34.386  13.461
30873W        W 2402  40.912  36.102   4.835
30874W        W 2403  15.049  28.414  13.238
30875W        W 2404  23.070  21.450   0.960
30876W        W 2405  18.984  30.499   1.612
30877W        W 2406  23.425  17.221  13.877
30878W        W 2407   3.737   7.716   4.120
30879W        W 2408   9.240   3.238   3.673
30880W        W 2409   4.254  24.547  12.105
30881W        W 2410  14.730  10.624   0.201
30882W        W 2411  13.658  13.666   1.328
30883W        W 2412   6.338  43.172  11.549
30884W        W 2413  42.035   2.581   2.426
30885W        W 2414  29.663  14.209   2.071
30886W        W 2415  28.974  28.030   2.994
30887W        W 2416  37.340  15.134  14.453
30888W        W 2417  17.552  27.643   3.639
30889W        W 2418   4.218  21.994   4.908
30890W        W 2419  15.856   1.424   2.103
30891W        W 2420   5.834  24.751  11.485
30892W        W 2421  29.473  33.170  14.934
30893W        W 2422  18.718   4.220   2.402
30894W        W 2423  26.079  15.471   4.980
30895W        W 2424  29.224  26.528  10.345
30896W        W 2425  22.695   7.762   0.096
30897W        W 2426  34.046  15.839  14.434
30898W        W 2427  36.509  17.805   2.203
30899W        W 2428  37.625   8.047  11.682
30900W        W 2429  26.503  10.897  12.298
30901W        W 2430  17.015  17.706   3.387
30902W        W 2431  24.587   8.419  13.469
30903W        W 2432  31.629  44.777   1.280
30904W        W 2433  10.655   0.969  11.680
30905W        W 2434  27.955   6.344  11.071
30906W        W 2435   7.681  33.878   1.845
30907W        W 2436  42.270   5.768   3.324
30908W        W 2437  13.812  36.945  10.820
30909W        W 2438  43.935  33.421  13.574
30910W        W 2439  29.142  18.648   3.972
30911W        W 2440  25.065  42.936   1.887
30912W        W 2441  35.719   4.184  12.108
30913W        W 2442  37.012   5.599  11.150
30914W        W 2443  16.273   8.297  14.004
30915W        W 2444   6.145  10.801   2.974
30916W        W 2445   2.941  13.096  14.885
30917W        W 2446  42.224  18.971   1.704
30918W        W 2447  24.928   9.702   1.191
30919W        W 2448  27.498  11.575   0.854
30920W        W 2449  42.252  16.375   4.705
30921W        W 2450  36.980  21.787   0.242
30922W        W 2451  37.798  44.335   3.697
30923W        W 2452   6.311  30.258  12.491
30924W        W 2453  40.659   5.741   1.844
30925W        W 2454  22.297   8.649  10.750
30926W        W 2455  14.676  40.967  13.453
30927W        W 2456  13.201  21.768  12.183
30928W        W 2457  17.820  17.763  11.139
30929W        W 2458   1.678  19.764  14.786
30930W        W 2459  25.923   1.344  14.405
30931W        W 2460  13.131  12.421   2.373
30932W        W 2461  29.911  39.141   4.559
30933W        W 2462  26.935  32.234   0.016
30934W        W 2463  13.514  22.074   0.520
30935W        W 2464  28.433  22.205   1.824
30936W        W 2465  12.245  13.303   5.009
30937W        W 2466   0.302  20.186  12.031
30938W        W 2467  39.974   1.840  12.909
30939W        W 2468  28.187  29.555  13.456
30940W        W 2469   3.451  24.281   1.059
30941W        W 2470  39.385  43.403  11.701
30942W        W 2471  20.928   0.108   4.067
30943W        W 2472  26.126  35.035   4.624
30944W        W 2473   1.543  26.036   1.208
30945W        W 2474  15.119  44.378  11.202
30946W        W 2475   7.621  42.022  13.587
30947W        W 2476   1.299   0.897  13.519
30948W        W 2477  37.383  21.466   0.371
30949W        W 2478  20.195  24.961   1.732
30950W        W 2479  25.580   7.380   2.596
30951W        W 2480   9.835  27.922  14.811
30952W        W 2481   9.761  11.939  12.519
30953W        W 2482  36.404  35.023   0.290
30954W        W 2483  39.446  10.065  13.025
30955W        W 2484  25.166  20.192   2.883
30956W        W 2485  10.099  28.608   0.708
30957W        W 2486  16.832   7.982  11.176
30958W        W 2487   1.262   7.232  13.417
30959W        W 2488  27.994  31.867  13.457
30960W        W 2489  40.807   3.439   2.818
30961W        W 2490  30.725  14.381  11.123
30962W        W 2491   9.408   7.324   5.108
30963W        W 2492  35.996  20.450  14.512
30964W        W 2493  10.361   0.234   1.199
30965W        W 2494  21.788  23.422   4.087
30966W        W 2495   7.889  17.501   4.143
30967W        W 2496  38.507  33.709   2.590
30968W        W 2497  35.489  29.622  11.419
30969W        W 2498  24.504  28.376   4.542
30970W        W 2499  12.927   3.888  13.492
30971W        W 2500  30.684  27.577   1.430
30972W        W 2501   1.859  30.451   0.675
30973W        W 2502  14.280  38.935   0.702
30974W        W 2503   9.227   6.878  12.432
30975W        W 2504  12.229   4.175   0.321
30976W        W 2505  32.051  42.839  10.337
30977W        W 2506  11.921   2.298  13.019
30978W        W 2507  17.794  27.620  12.523
30979W        W 2508  28.487  22.594  13.421
30980W        W 2509  38.356   8.383   4.872
30981W        W 2510  20.962   9.270  12.006
30982W        W 2511  24.213  27.933   1.528
30983W        W 2512   1.257   8.247   3.148
30984W        W 2513  23.256  27.956  14.775
30985W        W 2514  17.255  43.239   1.276
30986W        W 2515  29.604   3.826  12.546
30987W        W 2516   3.426  10.351   5.100
30988W        W 2517  35.129   1.757   0.817
30989W        W 2518  18.106  31.482  10.915
30990W        W 2519  42.575  32.639   3.145
30991W        W 2520  37.337  16.270  11.593
30992W        W 2521  35.936  33.928  14.468
30993W        W 2522  30.582  16.350  10.679
30994W        W 2523   3.371  10.437  11.666
30995W        W 2524   5.586  29.072   4.428
30996W        W 2525  23.164  21.083   4.147
30997W        W 2526   9.871   8.267   3.315
30998W        W 2527  31.933  24.607   2.718
30999W        W 2528   6.720  43.328  10.606
31000W        W 2529  37.523   7.089   4.174
31001W        W 2530  30.956   5.883   3.125
31002W        W 2531  37.133  29.000  10.496
31003W        W 2532  17.668  13.319  11.724
31004W        W 2533  25.000  33.475   0.338
31005W        W 2534  39.983  33.567  14.472
31006W        W 2535  36.412  10.104  12.964
31007W        W 2536  27.051   6.463   2.291
31008W        W 2537  26.102  27.152  13.988
31009W        W 2538  43.778   4.426  12.187
31010W        W 2539  15.797  11.010   5.497
31011W        W 2540  39.310   0.096   0.238
31012W        W 2541  33.015   6.711  13.267
31013W        W 2542   9.651   6.457   0.000
31014W        W 2543  26.027  38.012   2.834
31015W        W 2544  44.522  17.143   1.675
31016W        W 2545  17.126  32.631   1.804
31017W        W 2546   7.659  42.302  12.323
31018W        W 2547  43.895   8.380  14.347
31019W        W 2548  39.159  14.077   3.295
31020W        W 2549  15.739  13.525  10.958
31021W        W 2550  34.415  32.706  13.976
31022W        W 2551  43.398  27.531   3.744
31023W        W 2552  11.226  28.388  10.519
31024W        W 2553  23.576  13.893  12.914
31025W        W 2554  15.350  38.838  13.877
31026W        W 2555  12.869  19.173  11.350
31027W        W 2556  33.851   8.088  11.953
31028W        W 2557   1.510  35.086   2.749
31029W        W 2558  34.846  26.071   4.682
31030W        W 2559  20.160  37.245  11.964
31031W        W 2560  12.202  13.168   0.619
31032W        W 2561  11.121   2.336  13.420
31033W        W 2562  42.076  30.041   2.812
31034W        W 2563  20.600  23.301   3.658
31035W        W 2564  28.452   2.448   1.211
31036W        W 2565  39.548  15.549  10.588
31037W        W 2566  19.784   8.152  11.079
31038W        W 2567  41.246  37.532  11.992
31039W        W 2568  12.772  20.039  11.489
31040W        W 2569   3.927   5.445  12.058
31041W        W 2570  34.115  36.789   0.507
31042W        W 2571   5.311  36.490  11.903
31043W        W 2572   4.055  14.223   4.774
31044W        W 2573  42.414   0.650  10.627
31045W        W 2574  18.479  34.931   2.434
31046W        W 2575  38.218   9.482  11.632
31047W        W 2576  41.249  37.283   2.786
31048W        W 2577  16.882  41.822  14.325
31049W        W 2578  42.075   8.465   4.183
31050W        W 2579  17.220  35.352  14.110
31051W        W 2580  30.443   8.840   4.593
31052W        W 2581  21.274  38.981  11.177
31053W        W 2582  10.001  34.430  12.005
31054W        W 2583  37.147  21.016   4.479
31055W        W 2584  35.431  11.088   1.128
31056W        W 2585  39.313  19.705  14.215
31057W        W 2586  27.622   5.162  12.097
31058W        W 2587  36.665  37.577   0.447
31059W        W 2588  36.480  15.357   4.717
31060W        W 2589   1.080   8.730  10.294
31061W        W 2590   0.082  18.797  11.076
31062W        W 2591  28.278  23.415  14.436
31063W        W 2592  15.861  41.480  10.904
31064W        W 2593  21.480  37.481   2.864
31065W        W 2594  18.963  43.286   0.262
31066W        W 2595  27.107   5.198   4.580
31067W        W 2596   8.204  17.013  11.088
31068W        W 2597   0.887  33.655   0.876
31069W        W 2598  15.954  25.038   5.117
31070W        W 2599   6.333  20.260   1.400
31071W        W 2600  23.756  21.292  11.584
31072W        W 2601  30.982  35.598  12.525
31073W        W 2602  17.887  19.531   5.122
31074W        W 2603  28.552   3.875  12.625
31075W        W 2604   3.004  17.968   1.253
31076W        W 2605  17.267  42.424  12.987
31077W        W 2606  12.307  25.884   2.548
31078W        W 2607  30.287  20.335   0.142
31079W        W 2608   4.160  40.163  12.959
31080W        W 2609   5.058   3.089   1.407
31081W        W 2610  39.712   4.736   3.150
31082W        W 2611   3.847   9.626  13.060
31083W        W 2612   7.630  21.978   1.887
31084W        W 2613  38.659  14.122   3.191
31085W        W 2614  44.532   2.958  10.735
31086W        W 2615  26.271   0.293   0.177
31087W        W 2616   1.305  44.653   4.015
31088W        W 2617   0.955   2.826  10.731
31089W        W 2618  24.138  42.607   4.816
31090W        W 2619  20.655  38.517  12.415
31091W        W 2620  40.024   0.481   0.878
31092W        W 2621  23.620  20.299   4.293
31093W        W 2622  34.827  33.978   3.417
31094W        W 2623  32.630  26.864  11.584
31095W        W 2624  18.592  22.117   3.756
31096W        W 2625   3.898  18.606   2.189
31097W        W 2626  17.589  14.645  13.989
31098W        W 2627  39.750  20.131   3.334
31099W        W 2628   4.644  39.894   1.679
31100W        W 2629  44.946  23.027   0.552
31101W        W 2630  11.400  22.521  12.304
31102W        W 2631  30.520  20.171   2.688
31103W        W 2632  13.835  20.564   4.763
31104W        W 2633  41.980  25.215   0.247
31105W        W 2634  11.793   6.135  10.657
31106W        W 2635  20.827  26.073   3.202
31107W        W 2636  14.603  23.684   2.367
31108W        W 2637  23.146  15.106  11.833
31109W        W 2638  36.533   1.792   1.702
31110W        W 2639   2.352  41.393  12.412
31111W        W 2640  44.724  34.233  14.045
31112W        W 2641  23.516  39.572   0.217
31113W        W 2642  42.546  37.349   0.924
31114W        W 2643  44.748  28.666  14.290
31115W        W 2644  26.591  17.298  13.566
31116W        W 2645  26.592   7.340  12.845
31117W        W 2646  41.787   1.352  11.589
31118W        W 2647  26.622  31.970  12.462
31119W        W 2648  15.387  20.579   0.897
31120W        W 2649   5.448  27.899  11.965
31121W        W 2650  29.607  33.092  14.209
31122W        W 2651  23.990  18.121  13.337
31123W        W 2652  26.248  19.118  12.972
31124W        W 2653  41.993  34.356  10.411
31125W        W 2654  37.937  26.002   1.394
31126W        W 2655  37.663  21.333  11.200
31127W        W 2656  31.152  35.580  11.160
31128W        W 2657  28.396  34.397  12.508
31129W        W 2658  38.444   3.296  14.299
31130W        W 2659  40.560  39.076   2.120
31131W        W 2660  27.196  39.409  13.437
31132W        W 2661  18.193   3.177  12.815
31133W        W 2662  20.176  31.908  10.716
31134W        W 2663  39.859  34.903   1.227
31135W        W 2664  28.554  21.050  13.128
31136W        W 2665   2.312   6.188   0.270
31137W        W 2666  33.799   9.392  13.027
31138W        W 2667  35.490  12.548   1.590
31139W        W 2668  16.809  11.350  11.495
31140W        W 2669  41.272  40.503   3.279
31141W        W 2670  23.432  25.205  12.671
31142W        W 2671  19.131   6.880   2.379
31143W        W 2672   0.037  15.199  11.152
31144W        W 2673   1.596  34.561   1.540
31145W        W 2674  41.464  14.687   0.530
31146W        W 2675   2.434  17.383   3.279
31147W        W 2676  37.624  10.861  12.952
31148W        W 2677  32.535  39.949   3.435
31149W        W 2678  17.549  16.274   3.241
31150W        W 2679  33.355  25.452  13.564
31151W        W 2680  16.110  30.124  11.233
31152W        W 2681  37.941  10.325   2.669
31153W        W 2682  15.562  40.218   0.369
31154W        W 2683  33.080   1.953   1.368
31155W        W 2684  30.871  29.646  14.897
31156W        W 2685   0.002  40.439   0.828
31157W        W 2686  34.449  35.335   1.632
31158W        W 2687  36.988  11.150  15.000
31159W        W 2688  23.902  16.812   4.580
31160W        W 2689  41.492  28.500  10.825
31161W        W 2690  17.308  22.744  11.353
31162W        W 2691  30.530  39.712   1.985
31163W        W 2692   8.874  33.914   4.530
31164W        W 2693  10.315  25.526  12.428
31165W        W 2694  12.371  25.124   1.873
31166W        W 2695  33.723  13.105  12.406
31167W        W 2696  42.458  22.930   2.235
31168W        W 2697  41.803  24.423  12.868
31169W        W 2698  40.478  11.883  12.499
31170W        W 2699  21.858  22.224   0.725
31171W        W 2700   0.168  29.451   2.331
31172W        W 2701  21.650  15.750   2.922
31173W        W 2702  38.004  18.854   3.732
31174W        W 2703  16.269  24.608  13.206
31175W        W 2704   2.012  10.676   3.378
31176W        W 2705  37.184  23.815  12.999
31177W        W 2706  10.346  38.291   1.748
31178W        W 2707  31.971  21.197   4.093
31179W        W 2708   5.893   2.830  11.050
31180W        W 2709  27.729   3.902  11.583
31181W        W 2710  22.410  21.600   4.155
31182W        W 2711   8.980  39.960   4.818
31183W        W 2712  11.612  37.600  12.948
31184W        W 2713  41.564  37.649   1.829
31185W        W 2714   9.638  29.589   1.692
31186W        W 2715   0.295  18.130  12.859
31187W        W 2716   7.817   8.309  12.150
31188W        W 2717  14.092  15.187  12.547
31189W        W 2718  31.454  42.630   3.083
31190W        W 2719  27.686   8.774   3.106
31191W        W 2720  23.798  38.307   2.390
31192W        W 2721  31.639  14.156   0.970
31193W        W 2722  27.899  13.855   2.817
31194W        W 2723  38.939   2.853   4.701
31195W        W 2724  11.628  43.236  12.987
31196W        W 2725  44.951  28.004   0.795
31197W        W 2726   4.969  39.045   3.735
31198W        W 2727  14.517  12.455   1.304
31199W        W 2728  35.914  39.227  13.740
31200W        W 2729  31.987  33.941   0.115
31201W        W 2730  30.852  23.186  11.991
31202W        W 2731  40.082  17.315   1.287
31203W        W 2732  31.255   7.241  14.683
31204W        W 2733  11.930  17.804   2.869
31205W        W 2734  20.517  29.640   2.405
31206W        W 2735   7.819  42.574   0.352
31207W        W 2736  19.426  30.174   0.699
31208W        W 2737   6.527   8.301  14.692
31209W        W 2738  10.231  35.147  12.575
31210W        W 2739   5.925  38.254  12.606
31211W        W 2740  36.429   3.228   3.152
31212W        W 2741  28.671  20.098  12.910
31213W        W 2742   5.506  28.509  13.023
31214W        W 2743  38.076  30.186   5.043
31215W        W 2744  31.480   5.609  14.997
31216W        W 2745  37.535  20.431   0.261
31217W        W 2746  38.244  35.916   3.371
31218W        W 2747  31.518  18.313   1.752
31219W        W 2748  29.087   1.779  11.605
31220W        W 2749  25.430  28.730  13.321
31221W        W 2750  13.352  15.571  12.206
31222W        W 2751   5.695   4.850  14.787
31223W        W 2752  12.606   1.446  10.273
31224W        W 2753   6.715  15.694  14.316
31225W        W 2754  11.386  18.261  11.250
31226W        W 2755  27.545  36.905   1.441
31227W        W 2756  25.473  12.810   0.770
31228W        W 2757   5.925  23.965  10.892
31229W        W 2758  20.872  11.895   2.776
31230W        W 2759  35.051  17.292  13.440
31231W        W 2760  26.291  18.230  10.445
31232W        W 2761  23.105  34.638   3.098
31233W        W 2762  35.992  36.435   1.759
31234W        W 2763  24.256  39.505  10.043
31235W        W 2764  34.151  24.684   0.301
31236W        W 2765  38.176  14.631   4.919
31237W        W 2766  23.669  11.216   2.247
31238W        W 2767   8.742   8.695  12.988
31239W        W 2768   9.951  43.043  14.894
31240W        W 2769  41.999  40.373   1.402
31241W        W 2770   3.892   7.538   0.809
31242W        W 2771  38.051  22.541  12.961
31243W        W 2772  17.604  17.526   0.922
31244W        W 2773  10.073  10.568   1.805
31245W        W 2774  34.052   5.814  13.606
31246W        W 2775  13.060  15.645   1.520
31247W        W 2776  33.449  17.831  11.521
31248W        W 2777  13.757   7.753  11.029
31249W        W 2778  11.390   5.227  13.795
31250W        W 2779  30.628  31.397  14.250
31251W        W 2780  40.746  10.370  13.384
31252W        W 2781  25.441  41.398   0.836
31253W        W 2782  11.405  16.456   0.079
31254W        W 2783  10.918  18.934   3.401
31255W        W 2784   5.365  31.507  13.054
31256W        W 2785  44.514  14.486  13.924
31257W        W 2786  39.543  21.748  14.306
31258W        W 2787  19.768  19.554  10.794
31259W        W 2788  28.426  35.925   2.165
31260W        W 2789   8.892  17.705   1.207
31261W        W 2790   9.193  39.984  14.963
31262W        W 2791  23.110   8.923   3.277
31263W        W 2792  32.714  29.568   0.752
31264W        W 2793  19.878  33.130  10.806
31265W        W 2794  42.247  11.215   1.768
31266W        W 2795  42.569   2.370   0.823
31267W        W 2796  37.104  14.742  14.847
31268W        W 2797  36.440  43.148   2.646
31269W        W 2798  33.838  34.369  10.466
31270W        W 2799   8.165  23.165  12.794
31271W        W 2800  25.610  37.057   2.617
31272W        W 2801  19.923   5.501   0.958
31273W        W 2802  17.829   7.375  14.452
31274W        W 2803  23.630  30.138  13.482
31275W        W 2804  28.247  14.343  10.671
31276W        W 2805  22.818  19.847   1.693
31277W        W 2806   5.918  25.083  12.385
31278W        W 2807  31.310  39.509   0.081
31279W        W 2808  17.614  33.081  10.925
31280W        W 2809  24.188  12.785   1.255
31281W        W 2810  38.302  41.969  11.155
31282W        W 2811  37.794  12.345   1.343
31283W        W 2812  29.258  38.889   1.766
31284W        W 2813  20.844  44.325   4.693
31285W        W 2814  14.675  32.794  11.263
31286W        W 2815  17.517  43.981   1.137
31287W        W 2816  10.748  22.648  11.431
31288W        W 2817  16.564   7.585   4.499
31289W        W 2818  27.907  30.572   3.153
31290W        W 2819  32.610   8.856   1.390
31291W        W 2820  18.557  20.837   1.154
31292W        W 2821  11.331  38.866   2.171
31293W        W 2822  30.895  32.555   2.110
31294W        W 2823   9.213  28.534  12.846
31295W        W 2824  30.243  20.719  12.551
31296W        W 2825  30.476  19.061   4.009
31297W        W 2826  21.699  38.412   5.756
31298W        W 2827  42.726  14.269  11.166
31299W        W 2828   2.803   7.146  10.721
31300W        W 2829  37.153  38.963   1.669
31301W        W 2830  29.670  12.363  12.594
31302W        W 2831  24.994  32.511  13.432
31303W        W 2832  37.561  19.861   5.028
31304W        W 2833  18.668  11.266   4.046
31305W        W 2834  41.295  31.602  13.558
31306W        W 2835   1.874   7.455  13.791
31307W        W 2836  17.137  14.840   4.204
31308W        W 2837   7.632  22.484   3.213
31309W        W 2838  26.474  42.827  11.587
31310W        W 2839   6.907   8.136  11.626
31311W        W 2840   7.702  38.238  12.875
31312W        W 2841  35.795  21.820   1.680
31313W        W 2842  42.743  13.104  12.917
31314W        W 2843  16.990  34.369   2.266
31315W        W 2844  43.008  37.926  12.592
31316W        W 2845  23.453  38.417   0.048
31317W        W 2846  26.533  25.617   1.172
31318W        W 2847  12.614  32.986   0.263
31319W        W 2848  10.424  17.581   2.182
31320W        W 2849  39.600  21.010   1.874
31321W        W 2850  10.759  11.364  13.408
31322W        W 2851  23.899  30.539   2.626
31323W        W 2852  20.611  38.389   2.338
31324W        W 2853   7.001  18.027  11.190
31325W        W 2854  28.568  38.797   1.175
31326W        W 2855   9.371  32.720  12.352
31327W        W 2856  21.198  17.014   2.177
31328W        W 2857  32.148  26.754  11.725
31329W        W 2858   0.199  26.026   2.831
31330W        W 2859  25.467  25.738   2.122
31331W        W 2860  10.229   3.960   0.890
31332W        W 2861  23.073  34.011   1.931
31333W        W 2862  30.047  23.854  10.953
31334W        W 2863  36.192  41.508  11.126
31335W        W 2864  19.794  22.727   1.611
31336W        W 2865  12.886  34.027   4.190
31337W        W 2866  20.227   7.807   1.919
31338W        W 2867  33.516  33.007  14.366
31339W        W 2868   8.906   1.326   0.881
31340W        W 2869  33.156  21.289  14.854
31341W        W 2870  25.540  12.616  13.918
31342W        W 2871   1.900  19.840  13.349
31343W        W 2872  33.019  42.541   3.096
31344W        W 2873   8.133  21.747  13.395
31345W        W 2874  28.987   4.775   0.371
31346W        W 2875  17.123  17.895  13.915
31347W        W 2876  39.371  42.593   0.406
31348W        W 2877  20.650  23.007  11.544
31349W        W 2878  22.652  39.406   1.935
31350W        W 2879  34.905  13.912  11.766
31351W        W 2880  16.531  14.752  13.870
31352W        W 2881  44.134   3.046  11.080
31353W        W 2882   1.180   9.655   4.177
31354W        W 2883  20.708  43.242   0.799
31355W        W 2884  38.293   2.274   3.225
31356W        W 2885  41.005   5.056   2.436
31357W        W 2886   7.459   9.330   4.112
31358W        W 2887   0.344  25.142  11.880
31359W        W 2888  41.446  28.923  13.343
31360W        W 2889  22.179   9.901  14.237
31361W        W 2890  15.249  11.384   4.509
31362W        W 2891  14.539  44.769  14.443
31363W        W 2892   1.723   5.466  13.769
31364W        W 2893  16.325  39.517  11.889
31365W        W 2894  16.678  11.618  11.079
31366W        W 2895  14.414  34.846   1.390
31367W        W 2896   6.884  24.130   2.317
31368W        W 2897   8.809   4.378   0.210
31369W        W 2898  32.146  39.749  10.814
31370W        W 2899  31.965   8.366   3.935
31371W        W 2900  27.521   2.004  10.654
31372W        W 2901  26.534  21.702   2.246
31373W        W 2902  27.497  16.143   2.162
31374W        W 2903  35.910  14.241   0.035
31375W        W 2904  29.438  38.086   0.502
31376W        W 2905   2.232  12.570   0.507
31377W        W 2906  37.742  25.854  13.937
31378W        W 2907   0.192   4.256   4.597
31379W        W 2908  23.551   2.791  12.884
31380W        W 2909  36.731  11.337  11.159
31381W        W 2910   6.651  11.220   3.712
31382W        W 2911  28.980  14.547   0.066
31383W        W 2912  18.399  36.863   4.846
31384W        W 2913  24.156  41.433   2.331
31385W        W 2914  27.542   0.075  13.986
31386W        W 2915  27.526  24.634   1.415
31387W        W 2916  12.344  29.958  13.927
31388W        W 2917  15.855  19.519  13.808
31389W        W 2918  22.086   6.752  14.358
31390W        W 2919  39.997  33.651   2.373
31391W        W 2920  33.742   3.659   0.274
31392W        W 2921  39.849  43.352   4.888
31393W        W 2922  39.001  39.834  11.010
31394W        W 2923  15.748  38.548   4.060
31395W        W 2924  22.234  19.039  12.548
31396W        W 2925  10.284  37.774   3.325
31397W        W 2926  29.188  39.393  13.581
31398W        W 2927  23.971  28.684   2.366
31399W        W 2928  21.436  33.022  13.864
31400W        W 2929  23.195  34.464  12.479
31401W        W 2930  44.307  40.955  11.025
31402W        W 2931  18.205  33.109  11.569
31403W        W 2932  17.201  12.359  10.976
31404W        W 2933  19.264   9.701  13.405
31405W        W 2934  39.458  14.763   2.878
31406W        W 2935  10.054  35.026   3.225
31407W        W 2936  14.088   1.187  14.301
31408W        W 2937  35.413   9.383   2.104
31409W        W 2938   4.272  12.585  13.040
31410W        W 2939  39.398   6.826  10.757
31411W        W 2940  31.914   0.530  14.802
31412W        W 2941  21.858  27.675   4.857
31413W        W 2942  16.804  27.226   3.988
31414W        W 2943  23.224  22.978   0.827
31415W        W 2944  14.832  17.748   3.458
31416W        W 2945  16.317   7.780  11.206
31417W        W 2946  12.327   1.481  10.714
31418W        W 2947  29.208  39.835  12.831
31419W        W 2948  14.760  18.775  10.531
31420W        W 2949  43.405  40.339   3.617
31421W        W 2950  10.809   9.791   2.903
31422W        W 2951   1.255  12.401   1.807
31423W        W 2952  37.810  25.961   0.250
31424W        W 2953  31.109  17.753   4.024
31425W        W 2954  27.225  19.591   3.315
31426W        W 2955  34.726  19.227  12.661
31427W        W 2956  42.526  20.218  13.949
31428W        W 2957  31.887   7.883  14.440
31429W        W 2958  35.046  38.773  13.080
31430W        W 2959  33.400  41.818   4.263
31431W        W 2960  14.938   9.672   2.246
31432W        W 2961  44.323  39.043  11.005
31433W        W 2962  17.828   7.358   1.000
31434W        W 2963  19.363  19.684   5.247
31435W        W 2964   0.796  27.903   2.671
31436W        W 2965  21.760  23.144   0.879
31437W        W 2966  38.330  28.427   2.153
31438W        W 2967  16.915  27.581  14.004
31439W        W 2968   5.449  10.287   2.622
31440W        W 2969  13.673   6.795  12.990
31441W        W 2970  35.561   2.241   1.757
31442W        W 2971  39.257  44.863   1.647
31443W        W 2972  12.454  33.938   4.587
31444W        W 2973  34.803  42.027   2.812
31445W        W 2974  20.087  14.431   0.526
31446W        W 2975   1.355  32.037   4.574
31447W        W 2976   0.994  16.759   0.241
31448W        W 2977   5.190  23.244   1.663
31449W        W 2978  13.633  44.379   4.475
31450W        W 2979   2.845  42.966   3.950
31451W        W 2980   4.027  41.574   1.566
31452W        W 2981   9.730  38.874  12.117
31453W        W 2982   7.654  29.910  12.917
31454W        W 2983  14.705  34.492  10.207
31455W        W 2984  36.126  30.992   4.710
31456W        W 2985  20.624   7.865  14.854
31457W        W 2986  42.992  35.085  12.085
31458W        W 2987  40.957   1.935   0.620
31459W        W 2988  27.605  22.986   4.658
31460W        W 2989  43.746  11.605   0.827
31461W        W 2990  30.815  43.389  12.091
31462W        W 2991  12.056  21.525  12.858
31463W        W 2992  30.352  36.682   0.936
31464W        W 2993  22.202  18.240   0.357
31465W        W 2994  33.447  19.778   0.102
31466W        W 2995  44.456  24.842  12.641
31467W        W 2996  30.139  41.366   4.653
31468W        W 2997   9.348  15.253  13.939
31469W        W 2998  38.099  40.375   3.571
31470W        W 2999   5.646  15.898   3.048
31471W        W 3000  32.501   5.704  12.595
31472W        W 3001  13.632  17.230   2.665
31473W        W 3002  12.979  13.885  12.850
31474W        W 3003  25.706  24.843   4.671
31475W        W 3004  36.546  18.531   1.786
31476W        W 3005  40.046  15.250  11.941
31477W        W 3006  15.823  39.479   3.845
31478W        W 3007  35.926  30.662  14.770
31479W        W 3008   3.301  30.949  11.143
31480W        W 3009  40.006  25.245   1.249
31481W        W 3010  19.719  21.352  11.605
31482W        W 3011   1.494   8.881   3.805
31483W        W 3012   8.622  15.693   0.619
31484W        W 3013   6.749  22.711   2.755
31485W        W 3014  20.076   2.904   0.946
31486W        W 3015   8.262   2.979   4.726
31487W        W 3016   7.758  12.751  10.304
31488W        W 3017  10.052  18.984  12.001
31489W        W 3018   3.749  14.103  12.477
31490W        W 3019  25.519   5.387  13.355
31491W        W 3020  38.629  12.637   0.305
31492W        W 3021  18.336  42.754  12.180
31493W        W 3022  19.090  11.592  14.225
31494W        W 3023   8.601  12.125  11.748
31495W        W 3024   0.252   1.798   3.203
31496W        W 3025  18.599  22.860   3.132
31497W        W 3026  39.344  36.433   4.798
31498W        W 3027  29.441   0.500  13.994
31499W        W 3028  21.997  30.600  14.489
31500W        W 3029   8.093  19.112  14.390
31501W        W 3030  21.255  22.194  12.701
31502W        W 3031  27.921   7.681   0.516
31503W        W 3032  13.721  22.622  10.508
31504W        W 3033  23.594  12.939   3.154
31505W        W 3034  41.629  18.711   2.449
31506W        W 3035  25.821  36.970  12.531
31507W        W 3036  33.676  15.317   2.489
31508W        W 3037  34.849  40.546   3.463
31509W        W 3038  41.440  29.006  12.440
31510W        W 3039  33.162  33.093  10.296
31511W        W 3040  22.124   6.212   2.043
31512W        W 3041  32.073  23.858   0.344
31513W        W 3042  41.022  42.918   3.559
31514W        W 3043   1.582  43.323  10.809
31515W        W 3044   1.683  42.568  13.020
31516W        W 3045   2.705   3.667  12.183
31517W        W 3046  21.341   3.713  11.630
31518W        W 3047   8.987  43.375  12.042
31519W        W 3048  13.684  24.193  14.367
31520W        W 3049  39.281   6.573  13.916
31521W        W 3050  22.757  42.965   1.307
31522W        W 3051  27.742  22.708   0.494
31523W        W 3052  36.009  36.113   2.274
31524W        W 3053  27.464   0.764  12.321
31525W        W 3054  35.709  30.136   1.795
31526W        W 3055   2.009   5.299   3.336
31527W        W 3056  15.063  10.532   2.826
31528W        W 3057  11.175  30.195  11.220
31529W        W 3058   4.163   9.007   0.932
31530W        W 3059  17.755  44.862  14.478
31531W        W 3060  16.683  40.998  10.615
31532W        W 3061   5.196  29.542  12.797
31533W        W 3062  32.329  31.137  12.936
31534W        W 3063   9.622   0.226   2.316
31535W        W 3064  13.275  39.216  14.073
31536W        W 3065  31.883   6.982  14.916
31537W        W 3066  24.160  21.157   3.166
31538W        W 3067  16.165  10.748   3.512
31539W        W 3068  19.240  41.229   0.690
31540W        W 3069  34.586   4.391  10.680
31541W        W 3070  36.831  17.805  12.578
31542W        W 3071   5.615  20.085   3.346
31543W        W 3072  22.100  23.571  12.574
31544W        W 3073  44.231   4.533   0.758
31545W        W 3074  39.859  42.540   2.960
31546W        W 3075  39.962  43.400   1.429
31547W        W 3076  37.468  29.859   1.077
31548W        W 3077  25.485  12.785   3.169
31549W        W 3078  28.426  15.782  12.847
31550W        W 3079   8.815  30.905  10.348
31551W        W 3080  38.401   8.181  13.805
31552W        W 3081  16.707  22.398   1.535
31553W        W 3082  41.344  21.333  12.338
31554W        W 3083  15.230  32.112   0.802
31555W        W 3084  12.458  34.580  12.888
31556W        W 3085  30.308  16.123   3.179
31557W        W 3086  33.946  34.925   0.345
31558W        W 3087  43.768  30.401  11.161
31559W        W 3088  39.809   8.297   1.925
31560W        W 3089  10.632   6.889   3.835
31561W        W 3090  17.849  37.467   2.970
31562W        W 3091  28.168   9.353  11.830
31563W        W 3092  34.530  23.595  13.424
31564W        W 3093  13.718  44.883   4.408
31565W        W 3094   2.969  16.974  14.810
31566W        W 3095  41.280  35.098  10.792
31567W        W 3096  37.887   9.345  13.436
31568W        W 3097  37.474  25.988   3.322
31569W        W 3098   3.522  18.264  13.017
31570W        W 3099  28.056  30.623  13.773
31571W        W 3100   6.729  12.334  14.464
31572W        W 3101  25.237  44.956  14.740
31573W        W 3102   5.175  17.706   3.264
31574W        W 3103  34.592  40.111   2.175
31575W        W 3104  18.231   8.187  13.830
31576W        W 3105  44.509  24.125  10.692
31577W        W 3106  32.038   1.291   2.424
31578W        W 3107  21.527   2.996   1.346
31579W        W 3108  38.543  19.581   3.889
31580W        W 3109  24.547  41.983   2.245
31581W        W 3110  30.046  40.130   4.908
31582W        W 3111   8.915   9.861  13.778
31583W        W 3112  15.768  28.451  10.303
31584W        W 3113  17.254  41.093  13.994
31585W        W 3114  30.487   3.238   0.542
31586W        W 3115  35.544   2.757   1.920
31587W        W 3116  20.702  42.867  14.836
31588W        W 3117  29.558  35.022  12.085
31589W        W 3118  28.213   8.165   1.367
31590W        W 3119  39.575  33.380   1.338
31591W        W 3120  31.516  24.451  13.018
31592W        W 3121  13.280  18.082  14.277
31593W        W 3122   6.881  44.014  12.756
31594W        W 3123  28.360  17.499  11.071
31595W        W 3124  22.083  29.709   1.569
31596W        W 3125  37.397  20.629  14.374
31597W        W 3126  42.921  30.673   2.816
31598W        W 3127  43.359  31.575  11.186
31599W        W 3128  38.854  37.315  13.085
31600W        W 3129  42.257   9.676  14.981
31601W        W 3130  31.675   7.844   4.937
31602W        W 3131  22.217  22.000  11.920
31603W        W 3132  10.539  26.416   3.652
31604W        W 3133  32.465   4.733   4.550
31605W        W 3134  15.062  18.093   2.353
31606W        W 3135   1.959   3.720   2.668
31607W        W 3136  24.933   2.785   2.267
31608W        W 3137   2.347   4.921  10.599
31609W        W 3138  17.659   7.802   3.147
31610W        W 3139  16.834  41.098  11.572
31611W        W 3140  15.840  14.253  11.638
31612W        W 3141   4.944  20.974   3.105
31613W        W 3142   6.333  40.357   1.658
31614W        W 3143  15.837  28.110  14.428
31615W        W 3144   7.140   1.946  14.927
31616W        W 3145   7.765  32.086  14.284
31617W        W 3146   3.448  36.730  12.190
31618W        W 3147  22.573  12.290   4.853
31619W        W 3148  10.823   8.885  14.263
31620W        W 3149  11.002  27.500  14.481
31621W        W 3150   8.189  42.990  11.761
31622W        W 3151   6.868  20.829  14.276
31623W        W 3152  10.016  27.395   1.103
31624W        W 3153  22.776  26.633   3.782
31625W        W 3154  28.700  26.690   3.329
31626W        W 3155  32.934  33.606  13.776
31627W        W 3156   9.163  14.370   3.623
31628W        W 3157   6.788  26.164   1.435
31629W        W 3158  38.744   8.353  10.964
31630W        W 3159  34.542  26.950  11.473
31631W        W 3160  35.382  19.654   2.220
31632W        W 3161  37.325  13.680  11.104
31633W        W 3162  13.332  24.504   4.634
31634W        W 3163   0.028  17.207   1.639
31635W        W 3164   5.459  20.592  14.290
31636W        W 3165  14.212  24.697  11.390
31637W        W 3166   2.446   8.752  11.969
31638W        W 3167  10.581  15.207  14.827
31639W        W 3168   8.734  22.550  13.381
31640W        W 3169  19.065   0.085   3.231
31641W        W 3170  18.641   1.271  12.434
31642W        W 3171  19.697  16.676  11.552
31643W        W 3172  21.596  19.435  13.544
31644W        W 3173  29.590  29.503   2.114
31645W        W 3174  28.587   4.992  13.957
31646W        W 3175  41.938   6.360  11.545
31647W        W 3176  41.934  20.760   1.829
31648W        W 3177  33.114   6.378   3.693
31649W        W 3178   4.225  30.796   0.433
31650W        W 3179  35.330   3.406   3.629
31651W        W 3180  10.642  22.430   4.626
31652W        W 3181  40.461  14.884  10.472
31653W        W 3182   6.764  26.511   1.857
31654W        W 3183  34.329   2.722  11.285
31655W        W 3184  29.009  18.975  11.157
31656W        W 3185  30.130  37.410  13.014
31657W        W 3186  20.906   0.018  12.348
31658W        W 3187  35.407   7.777   0.409
31659W        W 3188  34.580  24.646   1.963
31660W        W 3189  29.511  33.837   0.477
31661W        W 3190  38.889  23.517   1.793
31662W        W 3191  27.093  42.807   0.558
31663W        W 3192  28.609   7.458  13.861
31664W        W 3193  20.562  27.567  12.000
31665W        W 3194   5.747  38.085  11.207
31666W        W 3195  25.397   4.808  12.037
31667W        W 3196  29.007   9.418  14.497
31668W        W 3197  41.375  28.651   1.305
31669W        W 3198  12.063  21.224  13.949
31670W        W 3199   2.218  24.450   3.310
31671W        W 3200  33.920   6.483   4.802
31672W        W 3201   2.131   5.378  10.712
31673W        W 3202   5.505  12.085  11.652
31674W        W 3203  43.995   1.436  12.026
31675W        W 3204  34.021  20.684   0.886
31676W        W 3205  11.982  15.379   4.451
31677W        W 3206  26.275  29.133  12.695
31678W        W 3207  42.808  43.913  13.433
31679W        W 3208  22.739   6.179  14.473
31680W        W 3209  34.520  25.646  14.417
31681W        W 3210  36.420   6.582  11.906
31682W        W 3211   8.903  35.559  12.633
31683W        W 3212  35.416  12.424   4.614
31684W        W 3213  18.678  39.203  13.026
31685W        W 3214  30.071  16.657  11.550
31686W        W 3215  13.320  14.778  11.039
31687W        W 3216  27.026   0.044   0.677
31688W        W 3217  22.855  28.563   0.503
31689W        W 3218  39.075  43.931   4.546
31690W        W 3219  24.736  26.016  13.013
31691W        W 3220   3.526  29.817   1.144
31692W        W 3221  25.640  36.628  12.095
31693W        W 3222  26.165  33.311  12.447
31694W        W 3223  14.212  24.487  13.139
31695W        W 3224  40.349  34.462  11.998
31696W        W 3225   4.833  39.422   4.060
31697W        W 3226  25.515  24.560   2.223
31698W        W 3227  13.302  44.907  14.508
31699W        W 3228  32.046  39.046   3.492
31700W        W 3229  23.176  29.407  11.105
31701W        W 3230  42.396  40.460   4.346
31702W        W 3231  22.455   7.888  13.471
31703W        W 3232  21.990  32.544   1.610
31704W        W 3233  35.118   9.312  12.601
31705W        W 3234  11.837  15.277  11.937
31706W        W 3235  39.277  34.990   3.301
31707W        W 3236  19.766  13.831   4.214
31708W        W 3237  20.478   9.347  11.020
31709W        W 3238  43.066  42.891   2.171
31710W        W 3239   9.465  29.224   1.365
31711W        W 3240  37.801  33.969  14.480
31712W        W 3241  19.263  31.681  14.842
31713W        W 3242  11.485  28.566   4.592
31714W        W 3243  26.554   0.564   1.379
31715W        W 3244  37.484  33.585  12.339
31716W        W 3245  30.129  28.259   2.024
31717W        W 3246  22.294  17.492  10.576
31718W        W 3247  10.468   0.293  12.947
31719W        W 3248  32.830  27.089  11.017
31720W        W 3249   3.804  15.788  11.612
31721W        W 3250  12.689  17.580   3.760
31722W        W 3251  11.782  22.310   0.980
31723W        W 3252  36.597   0.711  12.206
31724W        W 3253  25.945  36.482  12.471
31725W        W 3254   5.671  32.221  12.034
31726W        W 3255  25.210  14.582  12.020
31727W        W 3256  24.747  20.068   3.669
31728W        W 3257  32.844  25.780  12.923
31729W        W 3258  42.826  38.853  11.124
31730W        W 3259  20.777  10.274  14.252
31731W        W 3260  13.983  10.565   4.907
31732W        W 3261  34.631  38.586  12.777
31733W        W 3262   9.605   1.949  11.912
31734W        W 3263   8.448  15.616  11.442
31735W        W 3264  40.926  27.484   2.349
31736W        W 3265  38.308  25.662   1.247
31737W        W 3266  31.698  11.060  12.125
31738W        W 3267  19.732  11.092   4.751
31739W        W 3268  39.906   1.416   0.669
31740W        W 3269  14.243   2.961  11.657
31741W        W 3270  44.412  15.024   4.201
31742W        W 3271  42.139  11.049  13.741
31743W        W 3272  34.053  20.890   1.362
31744W        W 3273   0.014   7.716   4.128
31745W        W 3274  16.021  33.061   0.733
31746W        W 3275  11.839  25.004   3.618
31747W        W 3276  37.090  11.300  13.291
31748W        W 3277  18.102  42.108  13.698
31749W        W 3278  12.477  18.572  10.645
31750W        W 3279  28.139  20.250   0.225
31751W        W 3280  36.076  28.466  11.186
31752W        W 3281  11.885  36.056   1.664
31753W        W 3282  34.956  35.775  14.031
31754W        W 3283  11.299   3.529  11.093
31755W        W 3284  14.261  33.499  12.388
31756W        W 3285   1.079  10.140   4.134
31757W        W 3286  33.592  11.651   0.735
31758W        W 3287  32.912  25.935  14.743
31759W        W 3288  27.090  27.539   0.456
31760W        W 3289  30.097  15.743   3.729
31761W        W 3290  10.845  16.884  12.132
31762W        W 3291  10.060  26.421  13.882
31763W        W 3292  44.313  13.564   3.975
31764W        W 3293  37.944  27.012   4.360
31765W        W 3294  37.466   1.375   1.349
31766W        W 3295  44.918   1.383   3.126
31767W        W 3296   4.456  26.920   0.331
31768W        W 3297  23.413  42.489   2.210
31769W        W 3298  29.913   4.388   3.336
31770W        W 3299  40.279   7.952   3.746
31771W        W 3300  14.738  23.013   0.264
31772W        W 3301  41.685  33.038  11.098
31773W        W 3302  11.332  27.616  12.055
31774W        W 3303  23.659  13.589   4.693
31775W        W 3304   0.055  28.788   0.142
31776W        W 3305  19.745  34.644   4.090
31777W        W 3306   8.398  15.922  13.937
31778W        W 3307  15.680  13.335  12.864
31779W        W 3308  17.825  31.675  13.957
31780W        W 3309  12.835  24.947   1.704
31781W        W 3310  33.061   7.340  10.977
31782W        W 3311  41.652   1.743   2.318
31783W        W 3312  10.881  27.164  10.574
31784W        W 3313  16.179  35.114   4.683
31785W        W 3314  18.588  43.481   0.996
31786W        W 3315  42.410  28.485  14.323
31787W        W 3316  19.473  31.696  13.037
31788W        W 3317  36.110  30.549  13.391
31789W        W 3318  10.142   7.294  13.303
31790W        W 3319  17.363  40.089  13.938
31791W        W 3320   7.739  29.444   1.730
31792W        W 3321  36.837  25.886  11.104
31793W        W 3322  33.520   4.849   4.185
31794W        W 3323   0.872  11.471   0.428
31795W        W 3324  25.113  22.111   4.331
31796W        W 3325  17.014  17.857  10.828
31797W        W 3326  44.396  14.223   1.241
31798W        W 3327  29.477  34.553   0.913
31799W        W 3328  43.820  12.565   3.194
31800W        W 3329  23.959  24.493   0.730
31801W        W 3330  37.542  20.462   3.347
31802W        W 3331  38.283  13.732   2.223
31803W        W 3332  31.040  20.084  10.693
31804W        W 3333  27.497  44.501   0.392
31805W        W 3334  17.179   5.144  14.676
31806W        W 3335  25.149  22.280  12.154
31807W        W 3336  28.548   5.471  11.198
31808W        W 3337   8.782  44.447  14.548
31809W        W 3338  31.943  13.821   1.790
31810W        W 3339  24.021  36.007  10.367
31811W        W 3340   6.870  19.868   2.788
31812W        W 3341   4.855  13.077  12.422
31813W        W 3342  43.468  43.398  13.010
31814W        W 3343   9.147  23.165  12.285
31815W        W 3344  23.783   4.322   0.910
31816W        W 3345  30.278  29.380   2.263
31817W        W 3346  30.996   5.025   0.290
31818W        W 3347   4.850  13.865   2.767
31819W        W 3348  40.580  22.093  14.040
31820W        W 3349  26.089  22.955   1.049
31821W        W 3350  15.387   8.420  13.541
31822W        W 3351  25.476  30.059   4.255
31823W        W 3352   3.699   6.087  11.638
31824W        W 3353   6.850  24.023  14.993
31825W        W 3354  16.075  11.184   4.272
31826W        W 3355  41.158  34.335   4.158
31827W        W 3356  37.507  24.714  13.040
31828W        W 3357  36.629  32.396  12.154
31829W        W 3358  36.466  29.832   0.663
31830W        W 3359  37.832  43.362   4.059
31831W        W 3360  32.772  21.823  11.894
31832W        W 3361  40.904  24.112   4.931
31833W        W 3362  25.690  43.535  14.370
31834W        W 3363  14.220   3.015   0.463
31835W        W 3364  31.671   4.175   2.595
31836W        W 3365  12.386  26.002   4.066
31837W        W 3366  20.874  41.745   0.395
31838W        W 3367  16.611  26.177   2.086
31839W        W 3368  10.565  40.371   3.259
31840W        W 3369   5.221  20.143  14.377
31841W        W 3370  12.322  31.199   0.786
31842W        W 3371  23.641  42.776  14.497
31843W        W 3372  21.515   1.307  11.912
31844W        W 3373  20.598  14.443  12.750
31845W        W 3374  31.549  41.595   3.443
31846W        W 3375  41.030   8.288  10.776
31847W        W 3376  26.128  26.448  14.788
31848W        W 3377   5.452  10.814  14.937
31849W        W 3378  44.817   3.462  10.709
31850W        W 3379  10.041  30.678  10.291
31851W        W 3380  36.289   3.785  11.112
31852W        W 3381  34.154  13.382  14.540
31853W        W 3382   0.333   7.986   4.675
31854W        W 3383  13.062  10.799   3.247
31855W        W 3384  37.408  17.546  14.431
31856W        W 3385  27.674   0.942  14.976
31857W        W 3386   7.452   9.138   0.804
31858W        W 3387  10.658  29.088  13.585
31859W        W 3388  23.519   2.356   4.435
31860W        W 3389  11.782   0.670  11.112
31861W        W 3390  32.237   7.853  13.488
31862W        W 3391  43.234  10.295   3.856
31863W        W 3392  33.752  29.860  12.535
31864W        W 3393  43.112  28.591   1.410
31865W        W 3394  31.515  42.536   2.575
31866W        W 3395  12.100   5.831  13.910
31867W        W 3396  41.256   9.423  12.154
31868W        W 3397   8.274  32.419  11.441
31869W        W 3398   4.395   4.830   4.702
31870W        W 3399   5.993  29.625   1.329
31871W        W 3400  16.217  41.830  13.808
31872W        W 3401  25.679  17.763  12.030
31873W        W 3402   7.628   2.756   4.268
31874W        W 3403  43.111  16.094   0.480
31875W        W 3404  16.696  10.721  12.544
31876W        W 3405  31.806  14.879   0.279
31877W        W 3406  27.009   1.171  10.302
31878W        W 3407  16.537   9.162   3.394
31879W        W 3408   1.714  19.996  10.713
31880W        W 3409   6.341  26.199  10.602
31881W        W 3410  32.896  13.268  13.011
31882W        W 3411  17.315   1.194  12.263
31883W        W 3412  43.741  32.048  12.881
31884W        W 3413  31.632  15.229   1.138
31885W        W 3414  11.280  31.322   1.875
31886W        W 3415  22.250   5.280   4.585
31887W        W 3416  25.159  39.347   2.769
31888W        W 3417  24.697  42.346   0.748
31889W        W 3418  40.556   7.142   4.032
31890W        W 3419  26.068  21.573  14.332
31891W        W 3420  22.712  21.405   0.518
31892W        W 3421  29.270  26.012   4.285
31893W        W 3422  42.456  10.661  10.699
31894W        W 3423   2.740  32.835   0.027
31895W        W 3424  19.217  24.720   1.243
31896W        W 3425   7.668  42.939  12.171
31897W        W 3426  33.087  44.962  14.283
31898W        W 3427  41.420  16.022  11.422
31899W        W 3428  38.044  36.536  10.740
31900W        W 3429   2.161  41.085  10.903
31901W        W 3430  41.504  20.241  12.989
31902W        W 3431  21.264   2.556   1.216
31903W        W 3432  35.349   3.406  14.606
31904W        W 3433  19.135   9.783   0.962
31905W        W 3434  23.112  24.149  14.476
31906W        W 3435  42.391  12.293   3.855
31907W        W 3436  43.486   2.189  11.714
31908W        W 3437  21.956  37.055   1.401
31909W        W 3438  37.515   8.910   0.374
31910W        W 3439   3.033   4.317  13.950
31911W        W 3440  13.825   4.345   2.782
31912W        W 3441  28.143  39.795   3.217
31913W        W 3442  38.049  34.432   0.806
31914W        W 3443  42.103   2.966  14.227
31915W        W 3444   5.814  34.609   4.687
31916W        W 3445  12.280  23.487   4.659
31917W        W 3446  35.000  31.984  10.095
31918W        W 3447   0.781  43.960   3.071
31919W        W 3448  23.200   6.175   0.449
31920W        W 3449   4.974  10.305  11.859
31921W        W 3450   7.765  43.838  12.865
31922W        W 3451   3.297  10.852  13.222
31923W        W 3452   9.411   4.211   1.411
31924W        W 3453  18.056  13.173  12.077
31925W        W 3454  30.114  23.029  11.224
31926W        W 3455  43.979  15.567   0.397
31927W        W 3456  17.798  25.134   0.826
31928W        W 3457  23.419  13.732   0.727
31929W        W 3458  11.879  16.418  12.571
31930W        W 3459   5.896   0.726   2.897
31931W        W 3460  43.814  19.340  12.563
31932W        W 3461   7.417  29.464   3.400
31933W        W 3462  11.612  15.273  14.020
31934W        W 3463  10.611  35.591  11.186
31935W        W 3464  26.875  39.704   4.997
31936W        W 3465  28.689  10.656  12.569
31937W        W 3466  42.292   8.112   2.762
31938W        W 3467  21.521  22.691  13.431
31939W        W 3468  24.654  37.131  10.661
31940W        W 3469  37.981   6.433  12.843
31941W        W 3470  17.553   4.650  11.596
31942W        W 3471   4.850  42.279  14.448
31943W        W 3472  38.155  18.034  12.101
31944W        W 3473  34.470  38.448   4.306
31945W        W 3474  43.773  44.741  13.569
31946W        W 3475  30.209  15.179  14.024
31947W        W 3476  12.028  25.278  11.020
31948W        W 3477  18.294  10.583   1.055
31949W        W 3478  35.050  18.012   1.892
31950W        W 3479  43.122  40.979   4.231
31951W        W 3480   6.981  39.036   3.640
31952W        W 3481  44.437   1.503   3.760
31953W        W 3482   5.150  11.791  12.901
31954W        W 3483   8.424  20.049   0.176
31955W        W 3484  37.074  22.600  14.560
31956W        W 3485  26.017  43.956   2.745
31957W        W 3486  33.826  38.740   4.265
31958W        W 3487  34.444   8.707   4.862
31959W        W 3488  39.318  34.703  13.617
31960W        W 3489  18.470  34.850  11.159
31961W        W 3490  34.671  14.188   0.331
31962W        W 3491   4.429  27.697   0.151
31963W        W 3492  35.397  42.475   0.950
31964W        W 3493  43.417  26.504  13.236
31965W        W 3494  18.554   7.159   2.084
31966W        W 3495  38.896  32.918   3.770
31967W        W 3496  33.252  25.716   0.337
31968W        W 3497  35.907  23.956  13.445
31969W        W 3498   1.526  31.001  10.499
31970W        W 3499  35.016  25.247   1.275
31971W        W 3500  21.614   2.201   1.007
31972W        W 3501   4.944  17.298   0.258
31973W        W 3502  21.372  35.689  13.914
31974W        W 3503  13.734  20.500   1.284
31975W        W 3504  38.694   8.809   4.169
31976W        W 3505   1.774  22.097  13.569
31977W        W 3506  23.842   3.958   0.467
31978W        W 3507  36.036   3.481   0.027
31979W        W 3508  13.942   2.927  11.252
31980W        W 3509  32.302  29.796   1.469
31981W        W 3510  40.303  16.173  12.949
31982W        W 3511   0.439   3.874  13.353
31983W        W 3512  32.240   9.309   3.855
31984W        W 3513  34.852  43.166   1.263
31985W        W 3514  19.573  20.572   1.028
31986W        W 3515  13.633  40.803   0.658
31987W        W 3516  22.637  35.785  13.365
31988W        W 3517  38.405  22.355   0.732
31989W        W 3518  15.064  35.523   1.457
31990W        W 3519  11.057  13.656   0.954
31991W        W 3520  15.605  44.399   3.242
31992W        W 3521   0.922  21.115  11.807
31993W        W 3522   2.291  40.068  14.938
31994W        W 3523  35.859   9.357   2.379
31995W        W 3524  18.925  24.870  13.624
31996W        W 3525  22.089  14.107  11.992
31997W        W 3526  30.907   7.911   0.885
31998W        W 3527  15.099  15.280   2.924
31999W        W 3528  31.174  42.959   2.744
32000W        W 3529  11.507  23.768  12.076
32001W        W 3530  44.927  11.667  12.962
32002W        W 3531  35.153  11.025  12.387
32003W        W 3532   5.046  31.342   3.629
32004W        W 3533  38.027  18.064  14.801
32005W        W 3534   7.898  13.559  12.182
32006W        W 3535  31.454  12.643   4.091
32007W        W 3536   7.802  40.595   0.292
32008W        W 3537  34.082  22.262  11.606
32009W        W 3538  33.876   2.969  14.397
32010W        W 3539  14.223  21.311   4.871
32011W        W 3540  10.252   7.557   0.233
32012W        W 3541  42.227  30.960  14.725
32013W        W 3542  32.608   3.449   1.210
32014W        W 3543  30.649  39.307   3.703
32015W        W 3544  22.837  18.014  14.845
32016W        W 3545  15.856  20.226  10.707
32017W        W 3546   5.861   6.193   4.354
32018W        W 3547  20.226  11.411   0.338
32019W        W 3548  14.769   4.489   1.470
32020W        W 3549  30.460  15.118   0.513
32021W        W 3550  16.407  23.105   2.986
32022W        W 3551  28.438  20.172  12.409
32023W        W 3552  20.042  11.889   0.220
32024W        W 3553   8.894  36.088  12.719
32025W        W 3554  15.788  43.681   3.257
32026W        W 3555  19.653  10.924   0.258
32027W        W 3556  44.927   1.306   3.690
32028W        W 3557   6.583  27.014  11.618
32029W        W 3558  13.766  26.741  13.850
32030W        W 3559  16.732   3.018   0.966
32031W        W 3560  38.802  23.507  12.429
32032W        W 3561  39.117   9.811  12.245
32033W        W 3562  35.922  12.579  14.328
32034W        W 3563  40.633  23.773  13.077
32035W        W 3564   8.699  21.976  12.659
32036W        W 3565  29.985   7.803  12.060
32037W        W 3566  12.900  31.970  12.039
32038W        W 3567   9.895  37.125  12.641
32039W        W 3568  42.997  16.271   3.646
32040W        W 3569   2.771  17.218  10.930
32041W        W 3570  33.099  41.965   3.830
32042W        W 3571  31.691  32.487   1.865
32043W        W 3572  24.955  29.471   0.893
32044W        W 3573  28.862  41.331   0.968
32045W        W 3574  14.514   2.391  11.624
32046W        W 3575  44.494  30.429   5.031
32047W        W 3576  13.558   0.249  10.921
32048W        W 3577  32.442  38.608   1.762
32049W        W 3578  33.658  35.508   3.783
32050W        W 3579  33.453  30.510   0.361
32051W        W 3580  18.080  31.689   1.812
32052W        W 3581   2.816  42.167   3.245
32053W        W 3582  22.280  30.216   3.362
32054W        W 3583  31.440   1.410  14.750
32055W        W 3584  29.056  29.059   0.906
32056W        W 3585   3.764  39.979   0.539
32057W        W 3586  16.871  29.888  12.106
32058W        W 3587  27.178  18.054   4.154
32059W        W 3588  21.076  12.225   3.153
32060W        W 3589  32.375  12.277   3.525
32061W        W 3590   9.427  37.916   2.715
32062W        W 3591  34.726  30.580  14.849
32063W        W 3592  21.154   6.212  13.016
32064W        W 3593  30.005  44.246  11.355
32065W        W 3594  21.089  13.191   1.946
32066W        W 3595  18.185  24.643  12.303
32067W        W 3596  28.961  33.548   1.194
32068W        W 3597  14.166  38.798   4.135
32069W        W 3598  30.694  36.853   2.515
32070W        W 3599  12.115  19.255   3.972
32071W        W 3600  15.545  21.122   0.619
32072W        W 3601   8.752   5.194   1.904
32073W        W 3602  37.448   3.353   3.874
32074W        W 3603  21.433   5.692  13.937
32075W        W 3604  24.932  34.991   0.923
32076W        W 3605   4.776   8.298   4.130
32077W        W 3606  28.112   1.250  14.863
32078W        W 3607  42.981  26.495  11.938
32079W        W 3608  36.278  18.002   0.935
32080W        W 3609  32.903  37.525   2.361
32081W        W 3610  20.380  37.913   2.294
32082W        W 3611   9.349  38.609  11.278
32083W        W 3612  35.650  23.016  13.593
32084W        W 3613  28.786  31.944   1.716
32085W        W 3614  21.569  30.604  14.224
32086W        W 3615  22.114   1.017   1.316
32087W        W 3616  38.153  10.222   4.180
32088W        W 3617  18.042  16.136   0.766
32089W        W 3618  16.601  25.980   3.632
32090W        W 3619   7.870  27.456  11.085
32091W        W 3620  17.583  27.961   0.382
32092W        W 3621  24.959   3.270  14.004
32093W        W 3622  26.774  11.763  12.842
32094W        W 3623  17.816  41.436  13.966
32095W        W 3624  20.113   7.836  12.022
32096W        W 3625  27.234  12.771   1.354
32097W        W 3626  20.473   7.185  14.364
32098W        W 3627   5.066  21.649  13.882
32099W        W 3628  18.886   6.281  12.703
32100W        W 3629  17.203  21.994  10.916
32101W        W 3630  10.344  42.395  14.221
32102W        W 3631   3.300   7.265   3.284
32103W        W 3632  44.865  19.852   4.534
32104W        W 3633  10.199   3.238   4.310
32105W        W 3634  26.333  37.124  11.212
32106W        W 3635  20.616   6.171   3.764
32107W        W 3636   2.626  13.502  14.504
32108W        W 3637  22.871  20.355  11.151
32109W        W 3638  21.955  41.452   1.917
32110W        W 3639  30.125   0.872   1.838
32111W        W 3640  27.389  32.187   0.330
32112W        W 3641  15.735  36.123  13.361
32113W        W 3642  17.256  18.634   1.046
32114W        W 3643  10.756   3.294  12.136
32115W        W 3644  15.858   3.441  12.514
32116W        W 3645  33.066  41.688   2.684
32117W        W 3646  37.528  27.403  13.536
32118W        W 3647  14.845  19.232  12.457
32119W        W 3648  22.742  11.253   0.048
32120W        W 3649   9.957  18.246  11.073
32121W        W 3650  37.403  29.472  11.279
32122W        W 3651  30.483  40.377   2.605
32123W        W 3652  13.920  38.594   3.703
32124W        W 3653  24.446   2.246   4.870
32125W        W 3654  30.773  37.878   0.611
32126W        W 3655  27.003   8.634   1.500
32127W        W 3656  17.284   8.039   0.254
32128W        W 3657  15.854  44.298   0.237
32129W        W 3658  40.402  23.162   0.194
32130W        W 3659  13.897  35.353   3.165
32131W        W 3660  10.611  19.121   2.308
32132W        W 3661   1.496  42.870   5.181
32133W        W 3662  23.687  29.687  13.244
32134W        W 3663  27.713  38.203   4.264
32135W        W 3664  33.589  42.089  13.884
32136W        W 3665  11.303  19.768   1.817
32137W        W 3666  36.878  14.304   3.605
32138W        W 3667  18.752  27.233   3.263
32139W        W 3668  20.048  36.955  11.125
32140W        W 3669  32.830  20.622   4.294
32141W        W 3670  29.426  17.184  13.453
32142W        W 3671  26.615  38.162  13.422
32143W        W 3672  27.732  40.826   2.093
32144W        W 3673  26.843  42.065  14.057
32145W        W 3674  22.942  23.232  11.955
32146W        W 3675  14.024   1.802  13.627
32147W        W 3676  18.336  43.910   0.875
32148W        W 3677  25.600  36.144  11.240
32149W        W 3678  40.431  40.916   4.528
32150W        W 3679  34.280  32.951   0.033
32151W        W 3680   3.655  22.392   1.767
32152W        W 3681  37.906  40.618  12.898
32153W        W 3682  19.031  35.151  13.121
32154W        W 3683   4.263  38.118  13.257
32155W        W 3684   6.915  43.957  12.235
32156W        W 3685  19.019  39.021  11.900
32157W        W 3686  17.037  12.835  14.554
32158W        W 3687  16.028  20.545   1.350
32159W        W 3688  41.767  11.488   2.322
32160W        W 3689  32.171  39.455  12.105
32161W        W 3690  34.166  41.085   1.722
32162W        W 3691   3.441  10.424  10.600
32163W        W 3692  10.795  15.135   0.371
32164W        W 3693   8.584  44.915  10.200
32165W        W 3694  16.257  13.646   3.567
32166W        W 3695  12.191  29.415  13.928
32167W        W 3696   3.921  40.202   2.226
32168W        W 3697  43.264  40.639  11.851
32169W        W 3698   1.008   5.406  11.390
32170W        W 3699  33.423  35.065   0.940
32171W        W 3700   7.898  31.016   3.696
32172W        W 3701  34.126  14.298  14.430
32173W        W 3702  27.165  27.243  11.481
32174W        W 3703  36.489   4.112  13.790
32175W        W 3704  17.054  27.592   2.668
32176W        W 3705  37.180  28.119   1.298
32177W        W 3706  38.965  41.291   0.729
32178W        W 3707  16.066  17.136  11.588
32179W        W 3708  33.401  21.758   2.988
32180W        W 3709  38.675  36.051   5.133
32181W        W 3710  13.152  23.071   3.183
32182W        W 3711  14.728  16.117  11.535
32183W        W 3712  35.959  41.747   1.781
32184W        W 3713  21.508  41.221  12.556
32185W        W 3714   8.610  36.556  11.918
32186W        W 3715  36.912  26.102   4.033
32187W        W 3716  24.730  14.591   1.359
32188W        W 3717  11.542  23.133  11.528
32189W        W 3718  38.510   9.398  11.208
32190W        W 3719   9.242  23.541   0.253
32191W        W 3720  12.771  44.612   2.949
32192W        W 3721  26.757  31.673  12.017
32193W        W 3722  25.723  27.481  10.691
32194W        W 3723  10.990  43.215   2.987
32195W        W 3724  26.253  36.930  14.450
32196W        W 3725  13.239   0.271  14.927
32197W        W 3726  23.461  17.643   0.508
32198W        W 3727  42.400  17.566  10.595
32199W        W 3728  38.960  25.450  11.124
32200W        W 3729  41.050  38.103   2.649
32201W        W 3730  30.117  17.304   4.324
32202W        W 3731  37.085  27.986  11.912
32203W        W 3732  26.115  29.998  10.643
32204W        W 3733  19.278   9.383  14.939
32205W        W 3734  18.683  17.564   1.490
32206W        W 3735  21.852  19.591  10.745
32207W        W 3736  22.961  11.693  11.221
32208W        W 3737  14.883  41.000   0.395
32209W        W 3738  34.602  39.818  10.822
32210W        W 3739  13.496  38.936  13.326
32211W        W 3740  25.770  30.415   4.888
32212W        W 3741  18.707  29.020  14.032
32213W        W 3742  25.135  16.969  11.444
32214W        W 3743   4.371   6.789   4.246
32215W        W 3744  32.163  34.831   2.145
32216W        W 3745  39.533   3.764  13.300
32217W        W 3746   4.452  10.044   4.157
32218W        W 3747  12.681  42.057   0.440
32219W        W 3748   5.693  19.553  14.891
32220W        W 3749   4.086   8.008   2.277
32221W        W 3750  19.211  20.979   0.410
32222W        W 3751   0.270  37.569   1.723
32223W        W 3752  33.871   7.469   2.701
32224W        W 3753  30.425   8.141   4.291
32225W        W 3754  17.922  17.946   3.709
32226W        W 3755   8.928  10.131  10.336
32227W        W 3756  29.239  29.653   1.778
32228W        W 3757  25.994  15.221   2.223
32229W        W 3758   2.361  36.010  12.447
32230W        W 3759  31.897   1.421  10.708
32231W        W 3760  42.345  12.151  12.426
32232W        W 3761  29.585  37.556  10.610
32233W        W 3762  31.609  13.758  14.827
32234W        W 3763   1.398  34.351   0.122
32235W        W 3764  31.018  44.728   2.358
32236W        W 3765  39.783  16.167  13.020
32237W        W 3766  12.747  32.963  12.476
32238W        W 3767   4.271  15.440   3.220
32239W        W 3768   6.873  28.203   0.502
32240W        W 3769  40.428  15.851   0.711
32241W        W 3770   9.380   5.237   2.975
32242W        W 3771  12.284  18.977  12.674
32243W        W 3772  27.587  28.242  11.438
32244W        W 3773  13.244  24.580   2.317
32245W        W 3774  31.477   4.739   0.273
32246W        W 3775   0.748  27.180   4.133
32247W        W 3776   2.171  22.580   0.145
32248W        W 3777  33.313  34.759   1.344
32249W        W 3778  21.561  34.368   3.159
32250W        W 3779  32.911  27.417   0.353
32251W        W 3780  27.578   6.353   3.881
32252W        W 3781  41.375  35.868   1.250
32253W        W 3782  14.597  41.270  14.835
32254W        W 3783  24.337  32.011  13.665
32255W        W 3784  10.794   5.657  14.299
32256W        W 3785  23.623  43.995   1.075
32257W        W 3786   3.860  15.199  13.349
32258W        W 3787   8.498  16.673  11.933
32259W        W 3788  25.703  25.571  12.126
32260W        W 3789  44.536  24.176   1.851
32261W        W 3790  20.209  14.133   1.470
32262W        W 3791   8.893   6.454   4.695
32263W        W 3792  18.122  18.860  11.938
32264W        W 3793  41.703  12.976   3.141
32265W        W 3794  34.999  28.694  14.269
32266W        W 3795  43.712   4.851  12.451
32267W        W 3796  27.276  40.773  13.969
32268W        W 3797  15.107  18.727   4.865
32269W        W 3798  23.612  35.632   0.216
32270W        W 3799   7.266  16.779  13.757
32271W        W 3800  36.617   1.010   0.321
32272W        W 3801  31.397  22.455   3.241
32273W        W 3802  26.216   1.721  11.424
32274W        W 3803  25.240  37.891   1.771
32275W        W 3804  40.211  39.408   4.218
32276W        W 3805  35.622  31.620  10.820
32277W        W 3806  39.096   2.924   1.592
32278W        W 3807  18.340  27.188   1.803
32279W        W 3808   9.307  15.157  14.462
32280W        W 3809   4.696   7.669  12.999
32281W        W 3810  38.775  32.462  11.757
32282W        W 3811   4.268  27.574   5.123
32283W        W 3812   1.645  41.780  12.453
32284W        W 3813  18.718  10.702   0.789
32285W        W 3814  22.118  12.252   3.069
32286W        W 3815  26.119  29.243   4.176
32287W        W 3816  21.634   1.284  10.368
32288W        W 3817  16.091   4.020   1.292
32289W        W 3818  24.916  17.721   3.663
32290W        W 3819   8.488  34.733  12.767
32291W        W 3820  18.840   9.482   3.412
32292W        W 3821  21.637   7.469  13.510
32293W        W 3822  24.422  21.101   3.655
32294W        W 3823   0.426  11.334  14.471
32295W        W 3824  30.413  35.004   5.137
32296W        W 3825  33.938  17.814  13.794
32297W        W 3826  12.009   9.883  14.443
32298W        W 3827  26.619  29.410  11.883
32299W        W 3828  17.181  42.257  12.017
32300W        W 3829  36.178  38.815   2.345
32301W        W 3830  20.208  25.488  10.658
32302W        W 3831  40.014   1.424   1.245
32303W        W 3832   0.918   1.115  11.142
32304W        W 3833  14.796  24.635  13.291
32305W        W 3834  40.292   6.702   0.172
32306W        W 3835  22.659  32.925  12.517
32307W        W 3836   3.298  14.378  12.508
32308W        W 3837  17.332   7.179   1.058
32309W        W 3838  15.197   3.104   2.485
32310W        W 3839  22.935   4.151   1.306
32311W        W 3840  19.256  32.563  13.045
32312W        W 3841   0.754  12.536  10.207
32313W        W 3842  19.173   9.901  14.962
32314W        W 3843  36.458  18.836   0.339
32315W        W 3844  24.861  42.020   3.796
32316W        W 3845  31.987  36.603   3.235
32317W        W 3846  15.613  39.261  10.290
32318W        W 3847  18.808  11.307  14.576
32319W        W 3848  14.633  35.427  13.920
32320W        W 3849  27.378  28.639  10.812
32321W        W 3850   6.733  28.401  11.474
32322W        W 3851  19.512  38.137  13.896
32323W        W 3852  43.790  10.097  12.479
32324W        W 3853  43.395   4.376   0.380
32325W        W 3854  27.577  17.256  13.599
32326W        W 3855  44.928   7.397   3.388
32327W        W 3856  14.320  36.282   1.128
32328W        W 3857  14.842  25.127  13.077
32329W        W 3858  29.070   3.990   2.969
32330W        W 3859  25.149  18.244  11.994
32331W        W 3860  26.704  40.288  11.611
32332W        W 3861  15.626  29.934   1.233
32333W        W 3862  39.137   3.354   1.230
32334W        W 3863  13.757  32.096   5.237
32335W        W 3864  18.069   9.317  13.270
32336W        W 3865  34.705  21.689  11.039
32337W        W 3866  33.459   3.831   4.712
32338W        W 3867  38.506  36.648   1.140
32339W        W 3868   1.007   5.400  11.917
32340W        W 3869  13.675  36.568   1.853
32341W        W 3870  27.236  10.313   1.006
32342W        W 3871  15.183  44.501   1.321
32343W        W 3872  21.198  37.663  13.928
32344W        W 3873  39.198  24.458  14.252
32345W        W 3874  30.188   0.037   0.454
32346W        W 3875   8.314  17.226  13.536
32347W        W 3876  36.089   0.015  11.114
32348W        W 3877  34.998  13.919  14.834
32349W        W 3878  36.593   8.977  11.003
32350W        W 3879  21.857   2.398  12.470
32351W        W 3880  35.007   4.944  11.152
32352W        W 3881   1.721  20.557  10.670
32353W        W 3882  24.587  35.636   3.695
32354W        W 3883  29.152   5.293   0.285
32355W        W 3884  10.844  37.321  11.875
32356W        W 3885  25.219  26.008  13.871
32357W        W 3886  44.369  25.183  14.824
32358W        W 3887  14.231  40.574  14.342
32359W        W 3888  17.141   8.446   2.841
32360W        W 3889  29.721  28.596   2.154
32361W        W 3890  41.021  40.862   0.493
32362W        W 3891  31.122  21.987  11.615
32363W        W 3892  33.139  32.038  10.682
32364W        W 3893   2.925  28.153   1.403
32365W        W 3894   6.121  11.279  11.981
32366W        W 3895  11.759  21.045   3.365
32367W        W 3896   3.312  44.137  14.877
32368W        W 3897  43.991  14.658  14.767
32369W        W 3898  15.832  35.621  13.237
32370W        W 3899  18.297   6.414   3.312
32371W        W 3900  14.187   3.978  14.365
32372W        W 3901  35.560   2.924  14.482
32373W        W 3902  42.745  11.724   3.453
32374W        W 3903   9.127  24.019  13.910
32375W        W 3904  25.262   8.359  11.231
32376W        W 3905  28.670  31.845   3.115
32377W        W 3906  42.223  24.668  13.610
32378W        W 3907  19.808  10.203  12.516
32379W        W 3908  32.056  43.912   4.569
32380W        W 3909  16.262  24.505  12.067
32381W        W 3910  35.131  13.738  13.179
32382W        W 3911   2.830  17.189  12.437
32383W        W 3912  11.797  40.359   0.059
32384W        W 3913  16.269  37.579   0.329
32385W        W 3914  16.273  10.281   3.662
32386W        W 3915  21.174   5.643  10.741
32387W        W 3916  11.215   2.377   4.334
32388W        W 3917  14.100  40.044   1.352
32389W        W 3918   2.200  40.488   0.720
32390W        W 3919  44.464   1.841  12.722
32391W        W 3920   5.952  15.260  14.344
32392W        W 3921  21.662  42.490   1.052
32393W        W 3922  33.094  19.641  12.885
32394W        W 3923   9.195  36.077   0.359
32395W        W 3924  14.236  21.687   3.564
32396W        W 3925  23.779  20.647  14.547
32397W        W 3926   0.240  43.978   3.677
32398W        W 3927   9.824  15.129  14.429
32399W        W 3928  43.878  14.695  13.902
32400W        W 3929  31.112  35.049  11.139
32401W        W 3930  43.822  15.082   0.469
32402W        W 3931  19.493   7.611   1.378
32403W        W 3932  15.755  18.047  12.434
32404W        W 3933   8.169  34.076  10.737
32405W        W 3934  26.396  33.459   0.927
32406W        W 3935  22.009  11.767   4.143
32407W        W 3936   8.368  14.671  10.927
32408W        W 3937  44.412  12.901   2.612
32409W        W 3938  27.839  13.018   0.087
32410W        W 3939   9.412  20.472   2.925
32411W        W 3940  12.675  12.121   2.395
32412W        W 3941  27.683  37.032  14.263
32413W        W 3942  38.067  10.435   3.659
32414W        W 3943   4.930  30.643  11.807
32415W        W 3944  33.886  41.507   0.002
32416W        W 3945  11.282   4.210  10.752
32417W        W 3946  30.578  32.919  14.335
32418W        W 3947   0.285   8.947   5.166
32419W        W 3948  23.228  32.818   1.269
32420W        W 3949   1.833   5.444  12.819
32421W        W 3950  10.677  41.569  11.144
32422W        W 3951  11.613  25.195  10.693
32423W        W 3952   7.766  17.409   2.202
32424W        W 3953  25.576   4.220   2.351
32425W        W 3954   1.799  12.096  12.539
32426W        W 3955  30.156  40.386  11.913
32427W        W 3956  25.781  18.076   1.799
32428W        W 3957  37.417   1.763   4.211
32429W        W 3958  26.916  25.557  14.397
32430W        W 3959  34.394  43.069   3.765
32431W        W 3960  33.564   8.245  12.796
32432W        W 3961  10.167  20.677  11.931
32433W        W 3962   3.834  32.179   1.794
32434W        W 3963  38.812  35.977  13.411
32435W        W 3964  44.623  34.553   5.303
32436W        W 3965  38.083   4.847   1.120
32437W        W 3966  19.913  33.631   4.115
32438W        W 3967   0.511   9.081   4.061
32439W        W 3968  19.917  11.168  11.943
32440W        W 3969  30.248   9.331   4.592
32441W        W 3970  33.056   3.372   3.007
32442W        W 3971  26.963  31.867  11.182
32443W        W 3972   9.139  19.079   4.751
32444W        W 3973  22.559  27.222   0.827
32445W        W 3974  30.713   6.956  14.359
32446W        W 3975   2.899  10.843   3.720
32447W        W 3976  28.765  30.033   0.767
32448W        W 3977  14.810   3.945   2.157
32449W        W 3978  43.964   6.681   0.948
32450W        W 3979   0.146  38.033   1.938
32451W        W 3980  13.130  13.917  11.148
32452W        W 3981  19.665   0.158   3.287
32453W        W 3982  23.712  43.290  14.335
32454W        W 3983   6.392  13.979   9.597
32455W        W 3984   9.650   7.595   2.186
32456W        W 3985  34.016  34.536   0.010
32457W        W 3986  29.154  14.116   3.721
32458W        W 3987  11.338   0.282   0.192
32459W        W 3988  29.139  36.145   4.504
32460W        W 3989  38.061  20.290   0.289
32461W        W 3990  29.746  31.648   2.289
32462W        W 3991   3.400   0.776   2.624
32463W        W 3992  26.130  42.015  11.683
32464W        W 3993   6.540  28.273   3.698
32465W        W 3994  33.386  36.172   2.346
32466W        W 3995   4.240  25.544   4.175
32467W        W 3996  30.178  16.685   1.853
32468W        W 3997  37.160  39.337   0.414
32469W        W 3998  42.449  32.501   3.630
32470W        W 3999   9.300  30.950  10.578
32471W        W 4000   1.187  36.481  13.971
32472W        W 4001   4.763  16.122   3.655
32473W        W 4002   6.899   2.989   2.221
32474W        W 4003  13.361   4.319   1.266
32475W        W 4004  22.704  43.815   3.928
32476W        W 4005   0.547  11.262  13.932
32477W        W 4006  20.913   7.325   2.934
32478W        W 4007  40.032  34.333  10.323
32479W        W 4008  19.137  27.636   0.739
32480W        W 4009  34.388   3.156  12.267
32481W        W 4010  10.280  38.658   4.258
32482W        W 4011  14.079  44.104  11.930
32483W        W 4012   6.757  26.146   4.683
32484W        W 4013  42.495  38.811   3.806
32485W        W 4014  43.233  26.164  11.626
32486W        W 4015   8.715   9.430   0.383
32487W        W 4016  33.926  12.837  13.119
32488W        W 4017  16.688  22.955   5.126
32489W        W 4018  17.233  25.006   2.388
32490W        W 4019  21.157  23.868   4.520
32491W        W 4020   6.877  25.625  11.494
32492W        W 4021   6.334  15.114  12.075
32493W        W 4022  42.884  27.194  13.349
32494W        W 4023   2.469  34.986   1.849
32495W        W 4024  44.559  22.501  14.471
32496W        W 4025   1.509  35.140  14.884
32497W        W 4026  36.213  11.071  14.453
32498W        W 4027  33.105  39.397  10.665
32499W        W 4028  41.796  29.204   1.695
32500W        W 4029   4.327  11.506  11.657
32501W        W 4030  43.135  14.297   0.437
32502W        W 4031  19.602  33.623   1.771
32503W        W 4032  28.516  32.355  14.019
32504W        W 4033  43.536  40.122   2.764
32505W        W 4034  35.604   5.836   3.185
32506W        W 4035  30.396  43.164  11.817
32507W        W 4036  22.715   8.276  13.271
32508W        W 4037   5.381  11.620   1.658
32509W        W 4038  37.028  33.868  11.047
32510W        W 4039  12.592   5.198  14.862
32511W        W 4040  41.780  37.408   2.956
32512W        W 4041  22.717  26.164   1.713
32513W        W 4042  29.404   4.977  14.449
32514W        W 4043  20.167  27.743   0.843
32515W        W 4044  40.972  26.579  13.859
32516W        W 4045  40.260  38.008   3.965
32517W        W 4046  27.044  34.626  10.542
32518W        W 4047  43.434  18.526  11.647
32519W        W 4048  27.380  13.822   3.144
32520W        W 4049  20.405  35.095  12.984
32521W        W 4050  30.769  34.610   5.280
32522W        W 4051  21.770   0.838   4.741
32523W        W 4052  28.880  28.161   1.286
32524W        W 4053  12.130  37.172  12.568
32525W        W 4054  30.833  14.150   2.862
32526W        W 4055  17.830  14.223  14.410
32527W        W 4056  23.938  42.904  12.242
32528W        W 4057  21.556  27.164   2.812
32529W        W 4058  18.308  41.745   4.838
32530W        W 4059   6.055   3.479  13.335
32531W        W 4060  13.542  32.284   4.793
32532W        W 4061   8.779  41.787   3.712
32533W        W 4062   2.885  43.208  12.030
32534W        W 4063  40.900  12.192  12.496
32535W        W 4064  14.075   3.605   3.332
32536W        W 4065  31.721  34.044  12.816
32537W        W 4066   1.959   1.161  11.965
32538W        W 4067  31.385  18.732  12.662
32539W        W 4068  40.238  27.798  14.910
32540W        W 4069  34.024  34.462   3.154
32541W        W 4070  12.140   8.349   1.200
32542W        W 4071  35.852  19.684   1.292
32543W        W 4072   6.790  19.786   0.556
32544W        W 4073  21.284  14.060  10.687
32545W        W 4074   8.265  32.583  13.004
32546W        W 4075  28.435   3.946   1.328
32547W        W 4076  22.877  41.367  12.349
32548W        W 4077   4.582  29.010  13.049
32549W        W 4078  14.311  34.344  10.550
32550W        W 4079  14.858  11.937  11.156
32551W        W 4080  27.466  22.069  11.354
32552W        W 4081   2.673  25.272   3.703
32553W        W 4082   4.880   9.115  14.257
32554W        W 4083   5.623  19.206   3.671
32555W        W 4084  20.639  35.384  12.468
32556W        W 4085  31.600   0.250  12.950
32557W        W 4086  23.439  42.374   4.094
32558W        W 4087  34.084  26.892   2.953
32559W        W 4088  24.567   5.226   3.873
32560W        W 4089  31.525  11.134  11.218
32561W        W 4090  16.091  41.465   0.570
32562W        W 4091  32.176  15.573  11.464
32563W        W 4092  13.608  22.198  11.118
32564W        W 4093  40.458   7.886   3.291
32565W        W 4094  33.059  28.609  12.490
32566W        W 4095  32.413  32.386  12.340
32567W        W 4096  28.254   2.853   4.687
32568W        W 4097  43.923  18.767   1.451
32569W        W 4098  30.495  31.859  14.489
32570W        W 4099  27.629  38.617  12.158
32571W        W 4100  14.625  10.089   2.156
32572W        W 4101  28.072  34.296   2.254
32573W        W 4102  19.131  40.860  10.413
32574W        W 4103   2.958  44.183   4.788
32575W        W 4104  20.267  10.937   3.722
32576W        W 4105  33.965  13.873   0.833
32577W        W 4106  14.450  43.480   3.169
32578W        W 4107  15.587   1.429  14.384
32579W        W 4108  15.703  11.763  10.386
32580W        W 4109  13.177  28.331   2.813
32581W        W 4110   2.676  27.771   0.419
32582W        W 4111  32.695  28.665  11.975
32583W        W 4112  39.022   4.777   1.300
32584W        W 4113  40.296   8.757  11.765
32585W        W 4114   1.114  24.546   4.155
32586W        W 4115  30.977  35.584   0.943
32587W        W 4116  34.389   0.379  10.941
32588W        W 4117   3.886  20.588   1.749
32589W        W 4118  41.141  28.182  12.982
32590W        W 4119  42.962  11.893   0.315
32591W        W 4120  14.770  18.690   1.977
32592W        W 4121  29.187  32.345   2.418
32593W        W 4122  25.066   0.528  11.770
32594W        W 4123  34.149  12.913   4.195
32595W        W 4124  28.899  24.770  10.373
32596W        W 4125  10.203  33.075   2.765
32597W        W 4126  43.761  13.070  11.284
32598W        W 4127  31.330  22.198   2.790
32599W        W 4128   0.322  21.280  13.467
32600W        W 4129   3.539  33.208   0.218
32601W        W 4130  10.177  36.128   0.362
32602W        W 4131  24.703  25.486   2.358
32603W        W 4132  33.961  16.045   1.339
32604W        W 4133  20.771  29.017   1.775
32605W        W 4134  32.495   8.824  14.563
32606W        W 4135   9.282  21.580  11.684
32607W        W 4136  41.520  12.776  11.679
32608W        W 4137  33.498  16.178   1.460
32609W        W 4138   3.032   6.630   4.105
32610W        W 4139  17.067  11.220  13.840
32611W        W 4140  31.520  31.462   3.359
32612W        W 4141  23.792  16.355   2.712
32613W        W 4142  16.924   1.743  10.859
32614W        W 4143  26.459  38.704   4.071
32615W        W 4144  12.783  43.962  13.831
32616W        W 4145   1.507  37.011  11.199
32617W        W 4146   5.222  14.230  11.127
32618W        W 4147  17.796  21.221  12.337
32619W        W 4148  39.021   4.512  10.702
32620W        W 4149  22.001   2.242   1.669
32621W        W 4150   5.429  38.252   4.104
32622W        W 4151   2.816   7.246   2.342
32623W        W 4152  37.097   0.759  14.191
32624W        W 4153  44.726  13.951   0.381
32625W        W 4154   5.437  16.653   4.024
32626W        W 4155  15.063  21.748   2.789
32627W        W 4156  14.282   2.221  10.981
32628W        W 4157  20.296  26.243   2.263
32629W        W 4158   0.495   4.862   3.957
32630W        W 4159  22.538  23.876  12.429
32631W        W 4160  24.686  33.749   2.481
32632W        W 4161  40.372  37.406  11.643
32633W        W 4162  15.634  33.499  10.658
32634W        W 4163  33.171  10.588   4.080
32635W        W 4164  25.760   5.798  10.768
32636W        W 4165  41.793  25.509  11.192
32637W        W 4166  37.791  34.560   0.366
32638W        W 4167  25.968  31.955   3.722
32639W        W 4168  28.007  44.242  13.850
32640W        W 4169  23.339  16.631   3.750
32641W        W 4170  18.015  42.405   4.620
32642W        W 4171  22.684  35.292  12.443
32643W        W 4172  18.552  29.165   1.322
32644W        W 4173  28.723  27.371   4.615
32645W        W 4174   5.804   9.271   2.939
32646W        W 4175  21.726  16.038   2.108
32647W        W 4176  33.598   9.713   0.279
32648W        W 4177   6.281  28.146   0.797
32649W        W 4178  16.172  43.419   1.240
32650W        W 4179  31.594  29.107   3.746
32651W        W 4180  29.439  15.817   0.500
32652W        W 4181  43.011  13.280  11.908
32653W        W 4182   1.813  17.302  10.895
32654W        W 4183   8.756  11.861   0.291
32655W        W 4184  32.373  24.066  14.019
32656W        W 4185  21.633  42.401  14.412
32657W        W 4186  26.919  30.697  14.059
32658W        W 4187   2.198   9.338   3.392
32659W        W 4188  19.326  13.674  12.491
32660W        W 4189  44.458   9.878  12.501
32661W        W 4190   0.877  14.446   3.284
32662W        W 4191  24.919  12.259  14.334
32663W        W 4192  17.901  30.491  14.376
32664W        W 4193  39.338  29.567   3.530
32665W        W 4194  40.159  21.999  11.597
32666W        W 4195  34.799   4.849  10.642
32667W        W 4196  24.720  35.357  14.802
32668W        W 4197  16.339   7.704  13.468
32669W        W 4198   9.366  39.291   3.271
32670W        W 4199  19.750  11.422  10.618
32671W        W 4200   6.451  35.540   1.770
32672W        W 4201   5.916  21.457  14.150
32673W        W 4202  33.293  18.228  14.958
32674W        W 4203  13.498  40.393  13.700
32675W        W 4204  18.629  14.547   4.113
32676W        W 4205   3.254   3.925   3.981
32677W        W 4206  20.337  41.941   3.286
32678W        W 4207  12.880  11.879   4.543
32679W        W 4208   8.356   2.681  11.295
32680W        W 4209  38.949   0.966   4.744
32681W        W 4210  10.084   9.862  11.767
32682W        W 4211  15.961  27.223   0.802
32683W        W 4212  31.432  24.650   3.607
32684W        W 4213  19.698  14.691  12.945
32685W        W 4214  27.372  27.158   3.928
32686W        W 4215   9.870   2.917   1.577
32687W        W 4216  21.831  40.343  14.784
32688W        W 4217  30.341   1.950  13.510
32689W        W 4218  10.817  38.836  12.682
32690W        W 4219  15.013   0.891  13.344
32691W        W 4220  16.860   5.331   1.457
32692W        W 4221  40.424   0.927  10.807
32693W        W 4222  25.796  30.593  12.898
32694W        W 4223  30.629  37.952  14.988
32695W        W 4224  13.112  17.287   3.794
32696W        W 4225  28.508   8.740   2.736
32697W        W 4226  38.717  42.915   5.051
32698W        W 4227   3.926  39.744  10.640
32699W        W 4228   3.748  36.038   3.675
32700W        W 4229  43.903   0.343  12.184
32701W        W 4230   1.885  10.910   4.739
32702W        W 4231  37.715  44.843  11.071
32703W        W 4232  29.062  12.845   0.217
32704W        W 4233  26.677  13.468   4.592
32705W        W 4234  37.529  28.024  11.644
32706W        W 4235  34.557  40.811  10.759
32707W        W 4236   3.412   5.705  10.796
32708W        W 4237  20.245   3.960   3.393
32709W        W 4238  35.458   4.732  11.168
32710W        W 4239  18.233   1.226  13.273
32711W        W 4240  11.743  13.479  12.572
32712W        W 4241  16.559  18.200  11.362
32713W        W 4242  12.293  31.413  14.012
32714W        W 4243  32.087  16.758   0.666
32715W        W 4244  43.446   3.814   1.593
32716W        W 4245  20.696   8.491  14.009
32717W        W 4246  38.593  15.762  13.430
32718W        W 4247  12.117  23.543  10.950
32719W        W 4248  21.071   3.398   4.902
32720W        W 4249   8.639  39.870  14.813
32721W        W 4250  13.094  21.770  12.693
32722W        W 4251  23.678  10.139   0.373
32723W        W 4252   0.486  20.320   0.331
32724W        W 4253   0.479  43.335  11.734
32725W        W 4254  31.894  12.137   3.682
32726W        W 4255   9.577  11.671  10.535
32727W        W 4256  37.123  34.233   2.955
32728W        W 4257   9.552  22.013  13.329
32729W        W 4258  19.138  10.715   1.887
32730W        W 4259  34.840  18.229   2.339
32731W        W 4260  27.033  38.266   0.678
32732W        W 4261  29.035  40.599   4.171
32733W        W 4262  23.507  43.532  13.915
32734W        W 4263  43.519  25.561   2.900
32735W        W 4264  17.620   8.432   1.954
32736W        W 4265  36.104  39.021  11.517
32737W        W 4266  33.598  30.633  13.095
32738W        W 4267  13.881  13.546  14.910
32739W        W 4268  30.361  23.133   2.767
32740W        W 4269  41.065  11.840   3.719
32741W        W 4270   6.772   4.006   2.325
32742W        W 4271  38.008  40.282  12.528
32743W        W 4272  41.843  35.573   3.211
32744W        W 4273  38.333  10.886  10.697
32745W        W 4274  10.635  41.015  11.943
32746W        W 4275  20.310   6.709  14.716
32747W        W 4276  28.185  12.370   2.809
32748W        W 4277  35.804   4.894   1.694
32749W        W 4278  41.265  15.811  12.980
32750W        W 4279  22.358   3.018   4.554
32751W        W 4280  10.645   3.235   2.212
32752W        W 4281  10.848  16.027  12.383
32753W        W 4282  26.501  19.546  13.963
32754W        W 4283  14.878  44.745   4.567
32755W        W 4284  38.754   3.851   1.883
32756W        W 4285  23.812  24.488  13.235
32757W        W 4286   6.134  14.764   3.314
32758W        W 4287  11.993  29.602   1.767
32759W        W 4288  34.608  39.017  11.737
32760W        W 4289  10.855  18.044   2.880
32761W        W 4290  36.720  15.153   2.731
32762W        W 4291  38.879  14.728  12.022
32763W        W 4292  13.323  34.865  14.225
32764W        W 4293  22.367  19.351  11.461
32765W        W 4294   0.560  38.564  11.438
32766W        W 4295   6.606  11.217  14.409
32767W        W 4296  16.816  16.946   0.839
32768W        W 4297   7.271  39.270  11.620
32769W        W 4298  22.685  22.217  10.827
32770W        W 4299  34.382  11.879   1.504
32771W        W 4300  37.097   0.064   4.152
32772W        W 4301  26.514   5.285  14.682
32773W        W 4302   1.048  31.392   4.833
32774W        W 4303  26.127  40.494  14.871
32775W        W 4304  21.896   2.904  14.938
32776W        W 4305  25.854  44.369   2.992
32777W        W 4306  31.392  24.650  10.263
32778W        W 4307  14.269  23.381  14.374
32779W        W 4308   0.893  20.551  12.509
32780W        W 4309  43.322  24.689   1.251
32781W        W 4310  19.028  24.598   4.178
32782W        W 4311   6.174   6.955  11.638
32783W        W 4312  35.428  16.530   3.193
32784W        W 4313  18.781  25.618   2.879
32785W        W 4314  20.216   2.651  12.514
32786W        W 4315  26.581  17.717  12.633
32787W        W 4316  29.589  23.900   0.845
32788W        W 4317   5.411  26.091  11.031
32789W        W 4318  24.651   1.327   4.367
32790W        W 4319   6.966  34.044   2.842
32791W        W 4320   7.029   0.785  11.247
32792W        W 4321  13.259  32.182  11.132
32793W        W 4322   9.159  14.368  11.025
32794W        W 4323  19.673  37.555   1.405
32795W        W 4324  40.472   5.470  13.821
32796W        W 4325  20.998  39.500   1.017
32797W        W 4326  32.035  23.271   0.993
32798W        W 4327  27.246   9.217   1.790
32799W        W 4328  21.684  27.387  11.093
32800W        W 4329   9.974   7.779   3.149
32801W        W 4330  21.606   4.722   0.996
32802W        W 4331   2.956   9.324  10.973
32803W        W 4332   2.889   5.311   4.083
32804W        W 4333  24.110  13.691   1.405
32805W        W 4334  10.638  38.645   1.264
32806W        W 4335  44.551  39.988  13.441
32807W        W 4336  31.525  20.206  14.897
32808W        W 4337  32.278   0.466   2.855
32809W        W 4338  26.219  28.199  10.675
32810W        W 4339  29.594  28.763  12.977
32811W        W 4340   6.289  42.321  11.206
32812W        W 4341  25.785  11.561   2.883
32813W        W 4342  10.871  15.142  12.297
32814W        W 4343  38.729  18.477   2.850
32815W        W 4344  23.690  31.126  14.213
32816W        W 4345  31.820  27.112   1.267
32817W        W 4346  22.144   3.691   4.100
32818W        W 4347  17.381  16.003  10.253
32819W        W 4348   5.079  40.066  14.390
32820W        W 4349  35.287  27.150   1.387
32821W        W 4350  29.289  36.852  13.452
32822W        W 4351  37.103  31.409  14.425
32823W        W 4352  40.915  44.103  11.243
32824W        W 4353   8.640   1.443   2.277
32825W        W 4354  21.728  14.559   1.588
32826W        W 4355  12.269   4.322  11.454
32827W        W 4356  35.863   4.271  13.141
32828W        W 4357   2.925  15.173  13.517
32829W        W 4358  10.282   5.979  11.003
32830W        W 4359  12.750   4.924   0.923
32831W        W 4360  41.388  37.536   4.603
32832W        W 4361  44.143  41.409  11.189
32833W        W 4362  33.420  23.639   2.614
32834W        W 4363  13.612  10.658   3.705
32835W        W 4364  22.484   4.183   0.018
32836W        W 4365   1.341  15.219  12.656
32837W        W 4366  19.280  24.574  12.810
32838W        W 4367  16.267  16.287   2.889
32839W        W 4368  37.943  42.349  13.492
32840W        W 4369  31.729  22.455  14.454
32841W        W 4370  15.225  19.047  10.628
32842W        W 4371  33.062  17.292   0.705
32843W        W 4372   3.240  42.917   3.622
32844W        W 4373   6.296  29.794   3.738
32845W        W 4374  13.120  43.747   1.254
32846W        W 4375  12.761  30.216  14.021
32847W        W 4376   2.260  38.792   2.249
32848W        W 4377  41.954  34.888   2.674
32849W        W 4378  12.198  23.485  14.095
32850W        W 4379   9.307  14.690  14.713
32851W        W 4380   4.976  32.627   3.888
32852W        W 4381  38.065  42.056  14.835
32853W        W 4382  22.200   3.857   2.681
32854W        W 4383  21.983   6.446   0.846
32855W        W 4384  28.919  43.208   1.056
32856W        W 4385   1.568  18.573   0.431
32857W        W 4386  32.144  12.097   2.324
32858W        W 4387   4.720  43.993  11.519
32859W        W 4388   1.980  15.772  12.931
32860W        W 4389  24.363  30.694  11.816
32861W        W 4390  42.761   3.759   2.356
32862W        W 4391  44.753  39.407  13.462
32863W        W 4392  30.658  42.047   3.836
32864W        W 4393  33.619   7.821  14.159
32865W        W 4394  22.314  15.208  10.487
32866W        W 4395  12.728  20.143   3.138
32867W        W 4396   3.997   8.479  12.677
32868W        W 4397   6.774  10.433  12.854
32869W        W 4398   2.016  34.249   1.412
32870W        W 4399  23.270   1.023  13.371
32871W        W 4400  44.803  29.484  12.849
32872W        W 4401  14.618   3.150  13.362
32873W        W 4402  33.646  22.591  13.859
32874W        W 4403  34.582  23.769   1.872
32875W        W 4404  36.274  26.452   2.699
32876W        W 4405  31.629  31.507  13.255
32877W        W 4406  26.094  30.835   0.651
32878W        W 4407   6.854  43.269   3.577
32879W        W 4408  17.596   3.219  14.949
32880W        W 4409  24.562  27.166   2.858
32881W        W 4410  43.334  39.992   0.172
32882W        W 4411  14.791  10.614  12.052
32883W        W 4412  44.358  44.406   4.563
32884W        W 4413  23.568   1.495  12.597
32885W        W 4414   0.037   3.332  11.173
32886W        W 4415  26.266  22.961  11.181
32887W        W 4416   4.285   1.357  13.392
32888W        W 4417  31.952  21.005   0.251
32889W        W 4418  39.768  43.402   2.333
32890W        W 4419  35.548   7.240  11.119
32891W        W 4420  31.641  36.834   2.377
32892W        W 4421  33.682  37.053   2.317
32893W        W 4422  25.500  36.672  14.480
32894W        W 4423  31.575   1.519   2.330
32895W        W 4424  28.613  37.454  13.861
32896W        W 4425  28.483  13.609   4.013
32897W        W 4426   4.344  19.158   2.193
32898W        W 4427   2.667  26.542  14.880
32899W        W 4428   8.474  32.453  14.318
32900W        W 4429  14.333  19.460   0.933
32901W        W 4430  12.785  35.974   4.349
32902W        W 4431  27.754   5.400  14.062
32903W        W 4432  34.632  15.563   0.368
32904W        W 4433  23.561   8.735   1.805
32905W        W 4434  42.188   0.926  13.553
32906W        W 4435  13.074  21.610   2.793
32907W        W 4436  12.324  35.421  10.678
32908W        W 4437   8.596  32.605   4.630
32909W        W 4438   8.410  40.068  13.129
32910W        W 4439  11.689  23.800  10.730
32911W        W 4440  33.070  17.074   1.179
32912W        W 4441  14.653  17.245   2.721
32913W        W 4442   9.642  41.842   2.219
32914W        W 4443   9.882  30.134  14.299
32915W        W 4444  34.323   2.660  14.893
32916W        W 4445  21.613  21.171  12.994
32917W        W 4446  42.739  41.878   2.197
32918W        W 4447   3.155  29.935   0.772
32919W        W 4448  10.669  28.411   2.697
32920W        W 4449   0.525   2.001   0.258
32921W        W 4450   8.702  37.834  13.500
32922W        W 4451  14.260  10.787  12.244
32923W        W 4452  29.049  42.810  11.988
32924W        W 4453  24.188  24.998   0.760
32925W        W 4454  35.873   2.215   0.324
32926W        W 4455  44.454  42.046   4.563
32927W        W 4456  26.756  35.943   0.905
32928W        W 4457  11.591  41.062   2.743
32929W        W 4458  43.721   5.205  10.675
32930W        W 4459  31.023   3.178  13.891
32931W        W 4460  10.184  16.184  13.593
32932W        W 4461  17.950  21.625   3.120
32933W        W 4462  29.584  35.630  10.689
32934W        W 4463   9.421  26.558   1.283
32935W        W 4464  21.560  29.440   2.752
32936W        W 4465  38.367  39.308  11.227
32937W        W 4466  24.465  43.057  10.909
32938W        W 4467   4.489  37.048   3.280
32939W        W 4468  37.002  37.061  11.514
32940W        W 4469  28.926  40.379  14.505
32941W        W 4470  10.150  13.726   1.676
32942W        W 4471  38.412   5.253   1.089
32943W        W 4472  44.982  23.293   0.991
32944W        W 4473   7.078  27.098  11.801
32945W        W 4474   6.268  36.006  10.316
32946W        W 4475  33.077  18.070  11.862
32947W        W 4476  37.611   1.435   4.570
32948W        W 4477  19.418  15.600  14.799
32949W        W 4478  22.657  34.644  13.427
32950W        W 4479   7.615  17.754   3.712
32951W        W 4480  11.362  39.506   3.536
32952W        W 4481   6.503  12.650   2.857
32953W        W 4482   7.630   9.134   1.914
32954W        W 4483  43.873  35.042  13.438
32955W        W 4484  40.616   7.106  14.900
32956W        W 4485  19.104  44.405  11.708
32957W        W 4486   3.703  17.709   4.905
32958W        W 4487   0.138  32.618   2.948
32959W        W 4488  38.827  44.061   4.970
32960W        W 4489  23.033   4.362  13.379
32961W        W 4490   1.835  33.952  14.840
32962W        W 4491  27.106  25.664  11.730
32963W        W 4492  38.498  19.809  12.007
32964W        W 4493  41.084  39.748  12.114
32965W        W 4494  26.613   1.631   2.718
32966W        W 4495  42.445   3.684   4.459
32967W        W 4496  18.067  24.015  10.935
32968W        W 4497  14.578  15.991   0.353
32969W        W 4498   1.264  28.980  14.993
32970W        W 4499  37.456  33.711   4.535
32971W        W 4500  24.499  16.077  14.310
32972W        W 4501  11.219   3.453  12.327
32973W        W 4502  15.795  13.306  14.679
32974W        W 4503   6.521  33.615   0.311
32975W        W 4504   8.348   5.709  14.321
32976W        W 4505   3.231   0.729  13.341
32977W        W 4506  23.711  13.577  11.970
32978W        W 4507  12.319  17.772   3.283
32979W        W 4508  38.834  43.543   0.370
32980W        W 4509  12.158  40.424   2.301
32981W        W 4510  43.540   7.330   0.421
32982W        W 4511  43.860  32.547  12.623
32983W        W 4512   5.900   4.465   0.278
32984W        W 4513   6.645  44.351   1.809
32985W        W 4514  25.286  36.424   3.700
32986W        W 4515  21.108  18.732  10.553
32987W        W 4516  21.161  13.557  14.208
32988W        W 4517  17.746  42.395  14.953
32989W        W 4518  40.542  29.500   2.341
32990W        W 4519   9.632   9.557   1.241
32991W        W 4520  30.384   6.738   0.760
32992W        W 4521  39.419   5.812  12.643
32993W        W 4522  30.085  11.557  12.907
32994W        W 4523  15.260   2.589   2.425
32995W        W 4524  10.231  21.340  13.464
32996W        W 4525   8.138  15.191  11.598
32997W        W 4526  34.946  29.040   0.566
32998W        W 4527  13.198  23.493   2.393
32999W        W 4528  11.697  42.986   4.651
33000W        W 4529  37.420  34.309   3.694
33001W        W 4530  42.743  15.719  11.163
33002W        W 4531   6.738  15.332  12.965
33003W        W 4532  10.367  10.675  13.137
33004W        W 4533  42.533  26.313   2.622
33005W        W 4534  27.734  11.317  13.970
33006W        W 4535  40.177  20.997   0.366
33007W        W 4536  17.152  16.735   0.474
33008W        W 4537   2.265   1.424   2.250
33009W        W 4538  11.772  35.062   4.106
33010W        W 4539   0.008  32.163  13.909
33011W        W 4540   5.796   9.649  13.055
33012W        W 4541  27.981  40.404  14.923
33013W        W 4542  37.925  37.272  13.507
33014W        W 4543   4.931   0.119   4.719
33015W        W 4544  25.353  33.621   4.271
33016W        W 4545  38.574  34.518  10.509
33017W        W 4546  20.797  43.285   4.550
33018W        W 4547  33.116  40.951   3.741
33019W        W 4548   2.320   3.733  10.384
33020W        W 4549  33.318  26.984   2.417
33021W        W 4550  24.712  44.054   1.323
33022W        W 4551  34.844  36.383   0.784
33023W        W 4552  43.632  43.188   3.591
33024W        W 4553  10.836  14.102   0.326
33025W        W 4554  32.968  20.281  10.861
33026W        W 4555  39.841  42.138   4.753
33027W        W 4556  33.576  10.849  14.801
33028W        W 4557  18.723   8.218   2.214
33029W        W 4558  19.793   8.416   1.668
33030W        W 4559  31.501  31.139   4.724
33031W        W 4560  24.499  18.524  13.030
33032W        W 4561   0.635  37.523  11.657
33033W        W 4562  11.651  44.219   0.975
33034W        W 4563  15.690  34.065  10.607
33035W        W 4564  42.375   0.292   3.725
33036W        W 4565  39.532  34.895   1.628
33037W        W 4566  25.483  39.470  13.288
33038W        W 4567  19.534  18.532   0.252
33039W        W 4568  30.124  30.632   3.249
33040W        W 4569  22.534  31.389  12.596
33041W        W 4570  21.295  17.027   1.245
33042W        W 4571  13.465  28.218  12.403
33043W        W 4572  18.594  37.452   1.903
33044W        W 4573   2.508  39.219  11.423
33045W        W 4574  11.222  32.046   0.304
33046W        W 4575   5.248  31.893  13.395
33047W        W 4576  29.025   7.437  13.140
33048W        W 4577   4.378  11.139   1.751
33049W        W 4578  44.656  16.135   0.411
33050W        W 4579   8.860   1.246   1.820
33051W        W 4580  32.633  26.413   1.838
33052W        W 4581  35.354  22.469  10.769
33053W        W 4582  35.549  32.968  12.142
33054W        W 4583  18.865   0.497   2.941
33055W        W 4584  44.862  19.975   3.194
33056W        W 4585  22.216  42.917   1.366
33057W        W 4586  11.091  21.212   0.683
33058W        W 4587  18.972  17.662  13.090
33059W        W 4588  29.331   1.724  14.385
33060W        W 4589   4.419  12.178  10.751
33061W        W 4590   0.911  15.295  10.763
33062W        W 4591  16.454  19.512   4.041
33063W        W 4592  22.230  27.993   3.154
33064W        W 4593  39.525   5.173  11.862
33065W        W 4594  43.521  44.739  13.108
33066W        W 4595  42.749   3.287  14.937
33067W        W 4596  13.695  38.536   4.548
33068W        W 4597  41.963  28.082   0.791
33069W        W 4598  26.010  37.655  14.507
33070W        W 4599  10.815   8.558   3.066
33071W        W 4600   4.438  43.735  13.066
33072W        W 4601   1.966  14.239   2.747
33073W        W 4602  20.721  40.846  12.464
33074W        W 4603   0.375  28.103   3.451
33075W        W 4604   2.975  40.034   4.806
33076W        W 4605  38.557   7.557   3.733
33077W        W 4606  31.240  21.615  12.918
33078W        W 4607   0.189  40.527   1.583
33079W        W 4608  22.097  42.109  10.570
33080W        W 4609   5.761  29.493  13.277
33081W        W 4610  17.553  26.743  14.732
33082W        W 4611  35.388   1.072  14.142
33083W        W 4612  19.543   4.421  13.551
33084W        W 4613  15.360   8.730   3.574
33085W        W 4614  11.409  12.421  13.734
33086W        W 4615  16.333  15.779  14.021
33087W        W 4616  25.445   3.620   1.501
33088W        W 4617  29.300   3.440   2.342
33089W        W 4618  40.333  38.504  11.223
33090W        W 4619  31.821  19.178  11.997
33091W        W 4620  40.867  18.032  12.920
33092W        W 4621  43.734  25.757   0.272
33093W        W 4622  15.686  33.091   4.309
33094W        W 4623   6.819  32.964   2.870
33095W        W 4624  43.709  15.609  10.991
33096W        W 4625  30.855  22.685  12.126
33097W        W 4626   7.620  31.689  10.752
33098W        W 4627  33.133   3.808  14.534
33099W        W 4628   2.191  29.599   4.746
33100W        W 4629  29.256  33.413  14.383
33101W        W 4630   9.921  43.273  10.648
33102W        W 4631  17.567  37.067   0.293
33103W        W 4632  19.147  25.380  13.646
33104W        W 4633  27.539  27.269  11.091
33105W        W 4634  33.792  16.760  14.710
33106W        W 4635  11.632  27.190   3.118
33107W        W 4636  19.877  36.889  13.396
33108W        W 4637  16.155   4.125  14.325
33109W        W 4638  29.405  33.548   2.823
33110W        W 4639   2.006  23.564  12.525
33111W        W 4640  17.993   4.194  12.935
33112W        W 4641  39.585   1.833   0.547
33113W        W 4642  24.091   9.394   0.664
33114W        W 4643  14.273  27.693  12.154
33115W        W 4644  23.097  22.575   2.404
33116W        W 4645  13.865  16.259   2.727
33117W        W 4646   9.880   7.748  11.104
33118W        W 4647  41.952  44.485  12.595
33119W        W 4648   0.847  17.628   1.927
33120W        W 4649   5.674  34.645  11.370
33121W        W 4650   6.847  16.754  11.993
33122W        W 4651   5.714  17.120   3.960
33123W        W 4652  40.317  40.406   2.894
33124W        W 4653  28.458  33.812   3.134
33125W        W 4654  22.618  43.369  10.576
33126W        W 4655  12.703  32.665   4.959
33127W        W 4656  28.086  36.103   3.167
33128W        W 4657  35.302  29.456   1.507
33129W        W 4658  19.558   9.499   0.848
33130W        W 4659  36.938  18.217   1.244
33131W        W 4660   2.985  25.193  12.034
33132W        W 4661  36.358   6.302  14.843
33133W        W 4662  16.197  21.639   3.138
33134W        W 4663  38.385  28.774  11.999
33135W        W 4664   4.756  14.177   3.237
33136W        W 4665   0.810  25.754   3.296
33137W        W 4666  33.800  20.523   3.447
33138W        W 4667  32.571   7.734   3.250
33139W        W 4668  44.860  21.246   0.707
33140W        W 4669   4.419   6.588  11.187
33141W        W 4670  43.782   2.062   1.841
33142W        W 4671  28.249  12.815  12.497
33143W        W 4672  39.106   3.357  13.465
33144W        W 4673  43.282  33.854   2.229
33145W        W 4674   9.360  17.241   3.761
33146W        W 4675  36.179  19.310   2.179
33147W        W 4676  11.915   3.023   5.089
33148W        W 4677  25.619  23.755  11.092
33149W        W 4678  36.494   7.071   1.707
33150W        W 4679  30.505  24.597  14.412
33151W        W 4680  16.861  37.354  11.475
33152W        W 4681  18.506  37.419  13.727
33153W        W 4682  18.047  33.475  13.448
33154W        W 4683  35.108  40.929  10.749
33155W        W 4684  24.311  36.679  14.733
33156W        W 4685  31.329  27.026  10.796
33157W        W 4686   5.497  32.310  13.017
33158W        W 4687  10.214  39.456   0.743
33159W        W 4688   8.788  44.076   4.228
33160W        W 4689  10.245  24.500   3.882
33161W        W 4690  39.449   4.806  10.672
33162W        W 4691  24.911  19.632  12.946
33163W        W 4692  20.573  19.515  11.122
33164W        W 4693  25.425   1.278   1.357
33165W        W 4694  44.507  22.595   9.851
33166W        W 4695  11.769  40.425   3.609
33167W        W 4696  22.599  16.604  11.178
33168W        W 4697  20.653  34.549   1.646
33169W        W 4698   3.502  21.580   4.813
33170W        W 4699  18.026  32.136   3.278
33171W        W 4700  36.169  44.322  11.573
33172W        W 4701  11.215  37.618  11.641
33173W        W 4702  40.559  43.715   2.125
33174W        W 4703  10.145  32.678  13.490
33175W        W 4704  25.437  44.146  11.603
33176W        W 4705  35.253  15.058  13.490
33177W        W 4706  40.061  37.014  14.468
33178W        W 4707  20.853  14.789  13.519
33179W        W 4708  40.586  17.879   0.488
33180W        W 4709  19.666  26.031   1.799
33181W        W 4710  32.855   1.876   2.271
33182W        W 4711  20.981  27.571  10.588
33183W        W 4712  15.883  25.060   4.248
33184W        W 4713   0.797  20.515  14.968
33185W        W 4714  20.535  18.987  11.202
33186W        W 4715  41.364  36.508  11.137
33187W        W 4716  30.970  21.703  13.356
33188W        W 4717  32.452  24.713   0.348
33189W        W 4718  38.535  39.535   3.695
33190W        W 4719  27.900   5.696  11.464
33191W        W 4720   1.180  28.957  11.229
33192W        W 4721   2.839  42.821  14.795
33193W        W 4722  34.461  28.159   3.571
33194W        W 4723  40.165  44.460   4.204
33195W        W 4724  27.071  23.946  13.926
33196W        W 4725   1.864   3.304  12.589
33197W        W 4726  13.335  24.771  12.806
33198W        W 4727  13.173  21.230   0.453
33199W        W 4728  27.745   7.930  14.038
33200W        W 4729  22.352  39.768  11.628
33201W        W 4730  33.482  44.317   3.286
33202W        W 4731  23.394   7.432  12.345
33203W        W 4732  38.581  40.483  13.564
33204W        W 4733   3.984  17.559  11.362
33205W        W 4734  42.024  36.767  11.582
33206W        W 4735  18.772  39.184   0.495
33207W        W 4736  42.353  30.680  12.922
33208W        W 4737  23.935  42.430  12.037
33209W        W 4738  44.882  10.857   4.128
33210W        W 4739   8.428   0.694   3.112
33211W        W 4740  23.036   7.769  10.308
33212W        W 4741   1.647   6.804  11.450
33213W        W 4742  32.066  27.387  11.080
33214W        W 4743  19.279  12.494  10.816
33215W        W 4744  12.211   0.312   0.552
33216W        W 4745  27.545   5.810   2.607
33217W        W 4746  16.927  39.534   3.695
33218W        W 4747  19.101  38.141  14.398
33219W        W 4748   6.730  40.885   4.843
33220W        W 4749   8.213  39.364   4.876
33221W        W 4750  12.182  41.324   4.947
33222W        W 4751  28.060  30.106   2.998
33223W        W 4752  33.833  11.028   1.355
33224W        W 4753  22.233  36.170  11.119
33225W        W 4754  12.052   1.078   2.653
33226W        W 4755   5.956  15.835  11.626
33227W        W 4756   7.269  31.043  10.586
33228W        W 4757  13.343  19.247   3.265
33229W        W 4758  41.768  16.348   0.310
33230W        W 4759   9.577  22.944   1.559
33231W        W 4760   7.732   4.309   1.244
33232W        W 4761  11.172   6.143   1.448
33233W        W 4762  14.121  34.941   4.766
33234W        W 4763  17.781   6.928   4.525
33235W        W 4764  28.652  29.383   4.725
33236W        W 4765  19.987  41.470   4.566
33237W        W 4766  14.886   3.009  14.890
33238W        W 4767  16.495  23.245  13.506
33239W        W 4768  31.896  34.857   0.226
33240W        W 4769  32.103  20.813   0.776
33241W        W 4770  23.528  33.542  14.481
33242W        W 4771  27.968  41.120   3.811
33243W        W 4772  16.782   7.772   2.748
33244W        W 4773  39.299  23.154  13.048
33245W        W 4774  20.256  12.235   2.411
33246W        W 4775  12.848  44.418  14.969
33247W        W 4776  39.206  18.620   2.869
33248W        W 4777  42.696   8.856  11.244
33249W        W 4778  16.789  40.113   4.340
33250W        W 4779   1.689  33.859   1.299
33251W        W 4780  34.098  32.014  10.729
33252W        W 4781  16.842  30.920   2.742
33253W        W 4782  34.024  16.685   0.494
33254W        W 4783  12.898  18.245  13.121
33255W        W 4784  38.915  10.179  10.626
33256W        W 4785  15.152  15.034   3.995
33257W        W 4786   5.345  16.115   3.799
33258W        W 4787  40.851  42.384  14.381
33259W        W 4788  12.497  42.877  10.131
33260W        W 4789  19.113  22.165  10.559
33261W        W 4790  16.643  14.615   2.890
33262W        W 4791  26.597   5.954   2.808
33263W        W 4792   2.346  37.058   3.990
33264W        W 4793  30.153  10.860   1.865
33265W        W 4794  16.861   2.922  13.285
33266W        W 4795  32.130  18.128  12.841
33267W        W 4796  35.131  42.869   4.119
33268W        W 4797   2.272  16.412  11.504
33269W        W 4798  34.239   7.816   3.595
33270W        W 4799   7.689  19.089  14.744
33271W        W 4800  14.810  16.416   0.510
33272W        W 4801  40.311  38.767  10.412
33273W        W 4802   0.778   0.980  13.511
33274W        W 4803   4.235  22.552   1.198
33275W        W 4804  36.495   1.180  11.327
33276W        W 4805  29.115   9.705   3.008
33277W        W 4806  27.094  37.950   3.746
33278W        W 4807  31.957   9.307  11.213
33279W        W 4808   9.297   2.860   0.747
33280W        W 4809  43.572  32.388   1.290
33281W        W 4810  23.521  39.747   1.126
33282W        W 4811   1.937   9.220  12.173
33283W        W 4812  44.505  36.995  14.395
33284W        W 4813  12.357  15.896  10.920
33285W        W 4814  14.364  11.599  12.011
33286W        W 4815   9.151  38.572   0.249
33287W        W 4816  44.990   0.219   1.687
33288W        W 4817  30.166  22.175  13.821
33289W        W 4818   6.951  42.885  14.888
33290W        W 4819  14.619  33.256  13.501
33291W        W 4820   4.404  28.546   1.839
33292W        W 4821  27.242  35.014   3.716
33293W        W 4822   3.711  24.051  10.555
33294W        W 4823  38.017  23.719  12.293
33295W        W 4824  26.233  32.650   1.898
33296W        W 4825  12.997  11.038  10.759
33297W        W 4826   7.044  22.943  10.613
33298W        W 4827  11.241   1.761  14.817
33299W        W 4828  41.818  20.147   3.530
33300W        W 4829  44.377  33.458  10.870
33301W        W 4830  39.450  16.581  11.881
33302W        W 4831  14.644  26.221   0.676
33303W        W 4832   0.812  14.215   1.845
33304W        W 4833  40.064  39.769  14.239
33305W        W 4834  35.609  35.522  11.921
33306W        W 4835  23.663  44.472   2.624
33307W        W 4836  11.548   2.708   1.715
33308W        W 4837  30.124   3.814   4.386
33309W        W 4838  39.848   6.840   3.732
33310W        W 4839  12.832  12.242   3.245
33311W        W 4840  28.599  40.287   2.344
33312W        W 4841   0.584  19.278  12.392
33313W        W 4842  10.395  43.879   3.197
33314W        W 4843  44.395  11.861  10.335
33315W        W 4844   8.916  24.758  11.994
33316W        W 4845  18.292  31.921   3.673
33317W        W 4846  22.271   3.052   3.193
33318W        W 4847  14.428   8.166  10.803
33319W        W 4848  25.548   8.453  13.389
33320W        W 4849  30.097  20.261  10.779
33321W        W 4850  37.545  25.049  12.304
33322W        W 4851  22.608  39.736   1.400
33323W        W 4852   6.974  14.432   3.204
33324W        W 4853  13.317   5.356   3.271
33325W        W 4854  25.007  10.185  13.547
33326W        W 4855   0.990  34.628   3.745
33327W        W 4856   0.681   7.754  14.392
33328W        W 4857  17.157  10.387  12.296
33329W        W 4858  28.278  29.406   0.861
33330W        W 4859   7.641  37.192   4.191
33331W        W 4860   6.351  14.396   1.187
33332W        W 4861  35.582  21.700  12.104
33333W        W 4862  22.221  42.551  14.374
33334W        W 4863   2.369  36.824  11.382
33335W        W 4864  38.414  23.843  12.643
33336W        W 4865  40.825  41.204   3.100
33337W        W 4866  23.534   4.353   2.360
33338W        W 4867  44.412  12.790   3.663
33339W        W 4868  41.855   8.518  12.350
33340W        W 4869  31.079  42.890  12.872
33341W        W 4870  18.309  35.813   1.274
33342W        W 4871  20.246  32.048   4.131
33343W        W 4872  16.100  24.659  14.724
33344W        W 4873  36.860  23.231  12.030
33345W        W 4874  15.799  13.709   2.856
33346W        W 4875  23.270  13.674  13.921
33347W        W 4876  42.959  36.097   3.281
33348W        W 4877  36.995  41.927  14.119
33349W        W 4878   5.423  12.780  13.867
33350W        W 4879   3.257  38.902   2.342
33351W        W 4880   7.672  18.689   2.669
33352W        W 4881  36.012  25.854  14.429
33353W        W 4882  36.781  34.989  13.924
33354W        W 4883   7.424  10.814  14.803
33355W        W 4884   7.431   4.144   4.062
33356W        W 4885  40.269  29.480   0.072
33357W        W 4886  36.914  33.303   1.828
33358W        W 4887   5.638   1.205   4.607
33359W        W 4888  38.757  17.517  13.414
33360W        W 4889   1.987  39.352  10.655
33361W        W 4890  34.887  29.102  12.481
33362W        W 4891  38.022   3.978   4.180
33363W        W 4892  26.688  26.482  13.401
33364W        W 4893  17.739   4.743  12.058
33365W        W 4894  37.178  36.568  14.333
33366W        W 4895  32.782  37.645  14.226
33367W        W 4896   1.283  19.964   0.904
33368W        W 4897  23.243  23.179  14.903
33369W        W 4898  31.841  41.615  12.463
33370W        W 4899  12.259  19.273  11.884
33371W        W 4900  18.702   2.929   4.193
33372W        W 4901   1.328  14.685   1.193
33373W        W 4902  17.741  16.085   1.896
33374W        W 4903  39.013  17.242  14.693
33375W        W 4904  19.328   4.340  10.783
33376W        W 4905  15.567  20.777   1.383
33377W        W 4906   3.090   4.520   3.007
33378W        W 4907  13.156  15.996   2.323
33379W        W 4908  18.036  40.410  13.490
33380W        W 4909  22.940   0.509   1.699
33381W        W 4910  27.449  20.166   4.083
33382W        W 4911  15.213  38.374  10.623
33383W        W 4912  38.561  33.468  14.486
33384W        W 4913  37.405  22.359   1.444
33385W        W 4914  12.244  31.029   3.609
33386W        W 4915  37.539  19.498   4.123
33387W        W 4916   3.354  33.894  12.585
33388W        W 4917  30.638  21.467  13.737
33389W        W 4918  38.519  27.265   2.407
33390W        W 4919  35.591   8.220  13.405
33391W        W 4920  14.962  25.130   3.280
33392W        W 4921   9.828   9.209   3.349
33393W        W 4922  29.710  15.706  13.765
33394W        W 4923  40.519  29.186   0.487
33395W        W 4924  44.464  11.777  12.015
33396W        W 4925  27.364  31.143   4.756
33397W        W 4926  11.429   7.647  14.290
33398W        W 4927  20.916  28.039  14.271
33399W        W 4928  12.017   8.401  11.666
33400W        W 4929  25.955  30.162   4.056
33401W        W 4930  40.753  41.124   4.029
33402W        W 4931   9.744   2.470  11.191
33403W        W 4932  31.978  28.901  13.844
33404W        W 4933  41.964  43.791  13.069
33405W        W 4934  43.476  36.446  14.368
33406W        W 4935  30.617  25.520  12.924
33407W        W 4936  27.954  37.944  14.051
33408W        W 4937  11.148  31.738  13.018
33409W        W 4938  36.848  26.075   0.012
33410W        W 4939   5.004  36.858  11.125
33411W        W 4940  22.559  38.381   3.779
33412W        W 4941  44.316  16.731   2.888
33413W        W 4942  32.034  14.590   3.167
33414W        W 4943  21.121  43.885  13.003
33415W        W 4944  31.273  32.061  11.698
33416W        W 4945  34.137  16.490   0.016
33417W        W 4946  41.590  41.103   3.692
33418W        W 4947  27.491  19.774  12.474
33419W        W 4948  16.625  29.952  12.567
33420W        W 4949  34.043   0.292  11.875
33421W        W 4950   4.215   2.196   3.312
33422W        W 4951  14.219  20.131  13.793
33423W        W 4952  19.623  12.812  13.771
33424W        W 4953  41.193  13.552  10.603
33425W        W 4954  10.183  10.083   1.857
33426W        W 4955  12.440  14.162   4.498
33427W        W 4956   4.730   6.170   5.023
33428W        W 4957   8.945  22.747  13.805
33429W        W 4958   8.270   9.882  12.084
33430W        W 4959   5.113  23.623  14.906
33431W        W 4960  41.408  26.373   3.303
33432W        W 4961   6.644  30.075   2.476
33433W        W 4962  29.073  18.156   1.810
33434W        W 4963  33.386  36.453   1.221
33435W        W 4964   3.714  33.445   3.753
33436W        W 4965  23.177  12.283  13.473
33437W        W 4966  17.190   6.688   4.102
33438W        W 4967  25.238   1.790  10.554
33439W        W 4968   1.468  14.680   4.843
33440W        W 4969  12.634   6.908   1.009
33441W        W 4970  20.812   8.828  11.777
33442W        W 4971  26.483  37.901   1.171
33443W        W 4972  29.575  44.048   5.113
33444W        W 4973  30.388  32.633   3.291
33445W        W 4974   8.278  13.402  11.876
33446W        W 4975  26.835   7.206   4.851
33447W        W 4976  37.379  40.392  10.408
33448W        W 4977  22.060  20.790  11.229
33449W        W 4978  44.735   2.691  11.655
33450W        W 4979  29.696  27.589  14.431
33451W        W 4980  34.754  22.698  13.461
33452W        W 4981  33.622   1.063  14.419
33453W        W 4982  37.605   0.227   0.319
33454W        W 4983  31.518  22.964  12.606
33455W        W 4984  19.040   1.574   4.128
33456W        W 4985  28.076  24.757   3.153
33457W        W 4986  37.792  38.519   0.762
33458W        W 4987  31.477   1.708   3.722
33459W        W 4988  11.133   0.625  10.236
33460W        W 4989  15.460  41.842   3.048
33461W        W 4990  10.061  22.663   0.831
33462W        W 4991   7.900   0.497  11.864
33463W        W 4992  10.778   3.545  12.607
33464W        W 4993  28.709  23.045  13.480
33465W        W 4994  20.646  13.401  14.425
33466W        W 4995   3.928  23.626   0.455
33467W        W 4996   0.154  27.101   2.861
33468W        W 4997  35.889   7.622  11.046
33469W        W 4998  39.489  43.525  14.069
33470W        W 4999  17.852  20.395   2.225
33471W        W 5000  38.408  22.341  11.956
33472W        W 5001  28.542  25.407   0.773
33473W        W 5002   4.127   0.798  11.741
33474W        W 5003  38.722   9.473  12.153
33475W        W 5004  26.602  40.334  10.366
33476W        W 5005   6.424  39.578  10.631
33477W        W 5006   9.529  12.945  12.415
33478W        W 5007  27.164  19.555   1.431
33479W        W 5008  37.254   6.942  13.853
33480W        W 5009   6.218  38.157   2.872
33481W        W 5010  39.548   2.475  11.246
33482W        W 5011  11.647  12.553   4.438
33483W        W 5012   5.035  25.954   4.209
33484W        W 5013  41.827  19.476  12.574
33485W        W 5014  13.895  12.070   1.674
33486W        W 5015  26.318   9.035   0.327
33487W        W 5016  32.203  16.112   4.926
33488W        W 5017  22.937   5.184  12.699
33489W        W 5018  34.098  28.097  12.081
33490W        W 5019  17.239  14.440   4.514
33491W        W 5020   1.725   7.765   2.431
33492W        W 5021  31.077  35.506  13.883
33493W        W 5022  18.675  28.916  10.743
33494W        W 5023  44.817  21.290   2.810
33495W        W 5024  14.206  33.926   3.581
33496W        W 5025  10.604  26.568   2.387
33497W        W 5026  14.768  11.454  12.288
33498W        W 5027  39.422   0.301  12.095
33499W        W 5028   9.917   7.849   3.650
33500W        W 5029  11.609  27.887  12.902
33501W        W 5030  44.028   1.787   2.818
33502W        W 5031   7.339  22.318  12.605
33503W        W 5032  18.090   4.447  13.393
33504W        W 5033  19.676  15.224  12.839
33505W        W 5034  16.180  12.704  10.691
33506W        W 5035  15.085   2.263  14.802
33507W        W 5036  25.900  11.730   2.033
33508W        W 5037  21.017  16.715  13.925
33509W        W 5038  28.577   1.488  14.869
33510W        W 5039  20.548  29.755  14.914
33511W        W 5040  34.038  42.151   3.769
33512W        W 5041  11.801  41.444   4.081
33513W        W 5042  10.607  11.348  12.795
33514W        W 5043  21.521  19.066   2.701
33515W        W 5044  37.097  15.698   1.886
33516W        W 5045   6.378  12.276   3.192
33517W        W 5046  17.640   5.789  13.053
33518W        W 5047  44.510  12.562  10.326
33519W        W 5048   8.628   4.853   0.327
33520W        W 5049  27.516  29.486  12.982
33521W        W 5050  22.810  44.293  12.427
33522W        W 5051  34.856  28.402   2.276
33523W        W 5052  30.903  11.265   3.348
33524W        W 5053  10.202  40.409   1.935
33525W        W 5054  19.182  30.952   1.812
33526W        W 5055  27.533  12.320  11.163
33527W        W 5056  18.278  24.978  13.725
33528W        W 5057  23.235  20.792  12.339
33529W        W 5058  21.690  24.560  14.405
33530W        W 5059   2.231  44.871   0.938
33531W        W 5060  36.839  44.300  13.393
33532W        W 5061   9.198  42.989  10.546
33533W        W 5062  28.674  23.596  14.729
33534W        W 5063   8.665  28.645   3.268
33535W        W 5064  37.828  19.207   1.647
33536W        W 5065  12.918  18.902   4.016
33537W        W 5066  37.235  35.587   2.625
33538W        W 5067  43.282   4.993   0.871
33539W        W 5068  24.298  37.569   4.801
33540W        W 5069  35.416  32.629   1.972
33541W        W 5070  10.504  21.638  13.812
33542W        W 5071  12.432  21.776  14.816
33543W        W 5072   0.938  26.326   1.174
33544W        W 5073  15.747  12.437   0.059
33545W        W 5074  26.111  38.066  13.279
33546W        W 5075  27.715  29.036  10.775
33547W        W 5076   0.215  27.229   4.168
33548W        W 5077  11.613  23.963   3.688
33549W        W 5078  28.468  14.843  13.281
33550W        W 5079  36.084  26.124  11.746
33551W        W 5080  39.908  21.939  13.979
33552W        W 5081   6.342  37.954   0.220
33553W        W 5082  30.708  13.411   1.551
33554W        W 5083  32.139  35.064  14.821
33555W        W 5084  19.548  16.445  12.391
33556W        W 5085   1.015   4.229  10.605
33557W        W 5086  35.384  39.757  11.515
33558W        W 5087   5.368  38.052   3.575
33559W        W 5088  43.110  22.688  14.315
33560W        W 5089  32.929  12.352  12.838
33561W        W 5090  12.138  41.645  14.498
33562W        W 5091  44.439  29.304  14.542
33563W        W 5092  22.117  11.331   3.925
33564W        W 5093  25.572  37.970   2.166
33565W        W 5094  43.894  34.565   3.773
33566W        W 5095  15.923  15.486  13.965
33567W        W 5096  21.066  12.637   2.220
33568W        W 5097  14.132  40.555   1.246
33569W        W 5098  15.313  36.511   4.032
33570W        W 5099  29.655   1.371  12.181
33571W        W 5100  13.600  28.514   1.918
33572W        W 5101  11.805   0.785   2.050
33573W        W 5102  29.571   1.718  12.565
33574W        W 5103  36.981  14.303   0.438
33575W        W 5104  35.345  40.928  13.450
33576W        W 5105  22.794   9.659  13.442
33577W        W 5106  43.545  35.983   3.704
33578W        W 5107  42.504  37.796   3.241
33579W        W 5108   6.091  18.614   0.847
33580W        W 5109  11.908  41.269   3.095
33581W        W 5110  19.805  32.993  11.518
33582W        W 5111  25.936  34.125  12.083
33583W        W 5112   5.793  42.786   1.158
33584W        W 5113  15.039  34.946   0.746
33585W        W 5114  21.424   1.755   0.803
33586W        W 5115  11.575  31.182   4.458
33587W        W 5116  24.684  36.902   4.197
33588W        W 5117  32.986  44.396   4.478
33589W        W 5118  20.098   0.413  11.195
33590W        W 5119  36.139  44.820  13.955
33591W        W 5120  14.215   9.271  13.335
33592W        W 5121  33.591  44.835   3.278
33593W        W 5122   8.663  35.662  14.019
33594W        W 5123  34.653  14.700  11.266
33595W        W 5124  15.556  26.430   3.145
33596W        W 5125   4.093  41.510   3.932
33597W        W 5126  32.047  42.498  11.681
33598W        W 5127  23.666  33.505  11.634
33599W        W 5128  42.504  23.732  14.498
33600W        W 5129   8.134  28.046  12.146
33601W        W 5130  42.309   5.660  13.834
33602W        W 5131   8.874  36.571  14.013
33603W        W 5132  34.375  27.723   4.568
33604W        W 5133  42.762   7.620   3.279
33605W        W 5134  12.765  36.151   1.594
33606W        W 5135  14.488   0.866   2.809
33607W        W 5136  33.930  19.834  10.735
33608W        W 5137  13.414  32.359   0.202
33609W        W 5138  28.668  26.567  14.498
33610W        W 5139   8.507  35.211   1.429
33611W        W 5140  15.269  18.631   1.808
33612W        W 5141  41.548  15.118  11.726
33613W        W 5142  14.837  36.053   2.277
33614W        W 5143  37.950  38.022   0.641
33615W        W 5144  27.605  27.359  13.769
33616W        W 5145  29.646  29.975   1.831
33617W        W 5146   5.971  10.665   3.890
33618W        W 5147  12.794  19.667  13.299
33619W        W 5148   5.686  44.908  11.944
33620W        W 5149   2.202  31.280   1.438
33621W        W 5150  23.296   0.010   4.724
33622W        W 5151  11.609  28.021   2.554
33623W        W 5152  41.054  21.858  11.099
33624W        W 5153  14.176  44.536  11.638
33625W        W 5154  17.486   4.446   2.901
33626W        W 5155  29.004  41.438   2.896
33627W        W 5156   5.630  21.001  11.633
33628W        W 5157  33.077  40.982  12.295
33629W        W 5158  16.331  25.084  10.926
33630W        W 5159  24.638  33.492   1.502
33631W        W 5160  23.719  11.419  13.252
33632W        W 5161   5.404   9.323  11.995
33633W        W 5162  27.477  20.826   4.876
33634W        W 5163  12.063  11.785   3.340
33635W        W 5164  35.647  38.346  12.092
33636W        W 5165  26.383  29.222  11.480
33637W        W 5166  10.727  36.885  12.133
33638W        W 5167   8.210   3.268   2.481
33639W        W 5168  27.144  23.291   2.268
33640W        W 5169  25.930  28.093   0.614
33641W        W 5170   1.392  35.931  14.423
33642W        W 5171  38.973  35.991   2.833
33643W        W 5172  23.642  35.435   3.373
33644W        W 5173  20.143  38.116  10.220
33645W        W 5174  38.840   1.244  11.189
33646W        W 5175  11.892   5.159  10.669
33647W        W 5176  20.588  18.408   0.879
33648W        W 5177   9.288  21.281  13.378
33649W        W 5178  21.353  35.953  11.112
33650W        W 5179  34.907  29.553  14.857
33651W        W 5180  32.087  34.771  13.486
33652W        W 5181  29.742   7.680  12.525
33653W        W 5182  10.483  12.738  13.325
33654W        W 5183  18.140  23.851  11.730
33655W        W 5184  34.591   9.188  11.205
33656W        W 5185  39.431  31.388   2.337
33657W        W 5186  13.534   8.302  13.890
33658W        W 5187  26.174  35.631  13.358
33659W        W 5188  37.564  20.774  10.567
33660W        W 5189   6.350  39.919  14.432
33661W        W 5190  42.489  24.222  13.596
33662W        W 5191  11.713  23.468  10.021
33663W        W 5192  36.660  42.686  14.854
33664W        W 5193  30.166  33.584  14.922
33665W        W 5194  29.576  43.609  13.006
33666W        W 5195  26.071  35.986  12.441
33667W        W 5196   7.714  14.218   0.454
33668W        W 5197  20.136  13.376   0.541
33669W        W 5198   0.877  12.780   2.886
33670W        W 5199  24.554   0.668  14.835
33671W        W 5200  44.155   0.217   4.102
33672W        W 5201   0.517  21.822  12.670
33673W        W 5202  39.275   8.947   2.810
33674W        W 5203   1.191  15.613  12.362
33675W        W 5204  35.607  19.302  11.927
33676W        W 5205  43.246   8.348   0.948
33677W        W 5206  38.016  33.773   4.176
33678W        W 5207   1.981  43.499   4.245
33679W        W 5208   8.435   3.073   1.249
33680W        W 5209  26.659   4.494  11.977
33681W        W 5210  26.961  37.586   4.487
33682W        W 5211  25.794   8.383   0.045
33683W        W 5212   5.739  28.622  10.542
33684W        W 5213  23.611   8.851  11.179
33685W        W 5214  22.278  29.685  13.407
33686W        W 5215  19.608   2.511  12.960
33687W        W 5216  23.190   8.076   3.660
33688W        W 5217   9.212  26.641  11.592
33689W        W 5218  10.715  31.284   1.445
33690W        W 5219   9.749  36.900   3.903
33691W        W 5220  23.944  25.318   2.683
33692W        W 5221  35.351  22.031   3.182
33693W        W 5222  37.088  29.353  14.485
33694W        W 5223  20.188  16.803  13.351
33695W        W 5224  10.141  27.710   3.633
33696W        W 5225   1.300  14.496   3.995
33697W        W 5226  25.549   6.806  13.754
33698W        W 5227  39.023  27.459  11.151
33699W        W 5228  40.714  43.318  10.724
33700W        W 5229  43.475  31.850   2.348
33701W        W 5230  34.036  41.933  13.282
33702W        W 5231  29.165  44.962   3.108
33703W        W 5232  35.859  30.904   0.503
33704W        W 5233  24.636  20.949  14.850
33705W        W 5234  12.800  21.064  12.899
33706W        W 5235  37.192  14.326  14.540
33707W        W 5236  19.246  44.411   4.743
33708W        W 5237  38.222  10.012  11.800
33709W        W 5238   0.303  20.979   0.869
33710W        W 5239  42.453  13.433  11.040
33711W        W 5240  28.424  20.894  13.973
33712W        W 5241  40.548  25.154   4.571
33713W        W 5242  29.933  20.314  13.431
33714W        W 5243  29.560  12.376   3.555
33715W        W 5244  42.046  30.615  12.469
33716W        W 5245   6.214  33.563  13.859
33717W        W 5246  32.648  42.188  12.247
33718W        W 5247  29.877   8.715  14.950
33719W        W 5248  36.406  33.057   3.180
33720W        W 5249   7.848  41.310  12.149
33721W        W 5250  38.430  10.073   4.627
33722W        W 5251  24.220   0.949   1.910
33723W        W 5252  11.834  20.249   0.126
33724W        W 5253  12.321   1.357  13.087
33725W        W 5254  25.649  21.016   2.515
33726W        W 5255  23.256   9.796  14.420
33727W        W 5256  15.991  16.327  11.025
33728W        W 5257  40.538  20.845   2.687
33729W        W 5258  10.851  38.556   1.754
33730W        W 5259  41.304  39.543  10.775
33731W        W 5260  36.420  39.622   1.965
33732W        W 5261  21.547   7.555  11.769
33733W        W 5262  11.697  26.785  14.553
33734W        W 5263  39.809  37.931   2.559
33735W        W 5264  18.260  15.090   3.447
33736W        W 5265  44.043  42.946   3.219
33737W        W 5266  43.933  44.294  11.430
33738W        W 5267  13.340   8.061  11.943
33739W        W 5268  18.752  18.763   2.892
33740W        W 5269  32.333  37.085  11.016
33741W        W 5270   4.839   1.048  14.788
33742W        W 5271  23.077  34.034  12.207
33743W        W 5272  29.456  18.108  10.660
33744W        W 5273  17.357   0.952  13.563
33745W        W 5274  27.532  33.655   2.579
33746W        W 5275  39.424  13.642  13.783
33747W        W 5276  25.175   2.335   0.300
33748W        W 5277  32.030  29.487  12.965
33749W        W 5278  11.608  39.994  13.863
33750W        W 5279  24.607  39.279  13.466
33751W        W 5280  18.618  40.860  14.830
33752W        W 5281   9.738  13.934   2.815
33753W        W 5282  24.761  26.379   3.132
33754W        W 5283  11.342  31.612   1.182
33755W        W 5284   8.222   3.761  11.464
33756W        W 5285   7.727  27.240   3.140
33757W        W 5286  17.618   4.695  13.392
33758W        W 5287  32.856   3.833  14.098
33759W        W 5288   4.965  18.020   4.077
33760W        W 5289  16.026  23.549  12.156
33761W        W 5290  31.478  23.738  11.597
33762W        W 5291  10.864  16.541  11.192
33763W        W 5292   6.523  12.725  11.222
33764W        W 5293   1.295  37.413   4.380
33765W        W 5294  21.965  16.504   2.286
33766W        W 5295  11.831  19.196   4.897
33767W        W 5296  15.208   6.950  11.051
33768W        W 5297  22.309  33.753  13.539
33769W        W 5298  43.709  22.537   3.565
33770W        W 5299   1.319  38.072   0.470
33771W        W 5300  35.884  31.590   1.382
33772W        W 5301  32.429   6.992  13.124
33773W        W 5302  11.470   3.349   1.971
33774W        W 5303  38.401  44.465   2.982
33775W        W 5304  14.132  40.988   3.196
33776W        W 5305  42.100   0.909  10.278
33777W        W 5306  22.938  41.387  11.838
33778W        W 5307  37.816  27.146   2.846
33779W        W 5308  28.596   2.449   4.650
33780W        W 5309   5.411  44.504   3.235
33781W        W 5310  37.521   4.706   2.861
33782W        W 5311  27.704  12.693   2.252
33783W        W 5312  12.016  23.789   4.320
33784W        W 5313  26.738   5.911   1.284
33785W        W 5314  22.307   6.516  12.957
33786W        W 5315  31.559  24.132  10.263
33787W        W 5316   4.208  26.873  11.668
33788W        W 5317   2.395  20.075   4.456
33789W        W 5318  31.452  24.322  13.891
33790W        W 5319  25.333  43.281  13.546
33791W        W 5320  28.881  28.625  14.941
33792W        W 5321  38.599  24.707  12.096
33793W        W 5322  37.056  44.349   1.954
33794W        W 5323  27.998  13.138  11.200
33795W        W 5324   0.337  36.097  11.006
33796W        W 5325   3.198  36.737  13.294
33797W        W 5326   7.729  21.989   4.173
33798W        W 5327  37.639  19.734   4.547
33799W        W 5328  11.389  16.253   4.763
33800W        W 5329  20.612  37.063  12.159
33801W        W 5330   2.584   1.896   1.257
33802W        W 5331   1.810  24.654  12.134
33803W        W 5332   5.887  36.906  12.382
33804W        W 5333  14.074  29.513   0.278
33805W        W 5334  13.597  39.130  12.863
33806W        W 5335  24.086  26.816  12.541
33807W        W 5336  19.778  21.126   3.199
33808W        W 5337  27.131  27.789  14.973
33809W        W 5338  11.857   3.694   4.555
33810W        W 5339  34.491  18.981   3.088
33811W        W 5340  43.714   6.722  10.739
33812W        W 5341  33.960  23.443   1.412
33813W        W 5342  19.619  32.560  12.620
33814W        W 5343  22.152  10.253  12.949
33815W        W 5344  27.082  42.747  12.685
33816W        W 5345  41.468   3.645   0.481
33817W        W 5346  40.056  23.693   1.383
33818W        W 5347  43.816  41.044   0.854
33819W        W 5348  34.729   6.302  11.594
33820W        W 5349   5.616  22.930  12.436
33821W        W 5350  27.939  25.209  11.970
33822W        W 5351  37.558  34.817   3.770
33823W        W 5352   2.512  43.973   1.722
33824W        W 5353  10.291   5.867   2.509
33825W        W 5354   9.722  31.601  11.500
33826W        W 5355  20.595  24.180  11.194
33827W        W 5356  32.683   1.784  10.718
33828W        W 5357  10.719  30.951  14.547
33829W        W 5358  35.497  16.534   0.065
33830W        W 5359   6.235  43.957  10.539
33831W        W 5360  41.892   3.713   0.824
33832W        W 5361  44.118  43.018  12.459
33833W        W 5362  16.524  41.939  14.798
33834W        W 5363  10.758  41.505   4.361
33835W        W 5364  37.009  11.393   1.385
33836W        W 5365  35.248  26.713   3.751
33837W        W 5366  32.862  25.502  14.454
33838W        W 5367  31.616  24.135  13.439
33839W        W 5368  19.102  17.659   3.137
33840W        W 5369  36.521  39.948   0.773
33841W        W 5370  29.573  29.112   3.665
33842W        W 5371  24.350  25.199  11.128
33843W        W 5372  43.863  32.190   2.300
33844W        W 5373  12.692   8.313  11.133
33845W        W 5374  22.992  27.110  12.336
33846W        W 5375   9.326  40.776  14.522
33847W        W 5376   0.849  30.150   2.333
33848W        W 5377  32.529   1.117  13.549
33849W        W 5378  41.231  25.535  12.102
33850W        W 5379   8.462  32.990   2.848
33851W        W 5380  27.324  23.636  12.097
33852W        W 5381  25.524  39.005  13.545
33853W        W 5382   8.248  42.057   4.963
33854W        W 5383  13.315  29.587   2.685
33855W        W 5384   0.995  23.347   2.993
33856W        W 5385   3.738  40.024   1.043
33857W        W 5386  10.146   1.976  11.033
33858W        W 5387  12.662  15.642   4.293
33859W        W 5388  26.084   0.470  12.057
33860W        W 5389  33.082  10.103  11.993
33861W        W 5390  16.549  11.399  10.645
33862W        W 5391  20.769  44.522   3.068
33863W        W 5392  18.459   3.939  12.947
33864W        W 5393  27.354  22.623  11.168
33865W        W 5394  42.044  35.287  12.833
33866W        W 5395  40.907  13.330   3.678
33867W        W 5396  40.841  38.897   3.290
33868W        W 5397  19.310  22.833   3.549
33869W        W 5398  14.077   4.400   1.919
33870W        W 5399  16.092  38.926  14.997
33871W        W 5400  22.392  15.133  12.586
33872W        W 5401  11.158  27.162   0.817
33873W        W 5402  17.150  43.831   3.344
33874W        W 5403  22.563  14.729   0.030
33875W        W 5404  40.904  20.567   3.725
33876W        W 5405   1.798  36.879   2.711
33877W        W 5406  11.156  15.625  13.406
33878W        W 5407  32.078   7.148   2.201
33879W        W 5408  44.939  13.664   2.685
33880W        W 5409   4.342  44.340   0.313
33881W        W 5410   6.781   6.211   2.705
33882W        W 5411  19.240  13.740  11.204
33883W        W 5412  21.587  12.151  11.118
33884W        W 5413  30.939  26.518  12.123
33885W        W 5414  31.855   3.664  11.247
33886W        W 5415  43.827  21.920  14.792
33887W        W 5416   6.792  33.558  12.226
33888W        W 5417  34.428   5.563  10.785
33889W        W 5418   1.761  10.749   1.822
33890W        W 5419  34.129  39.816   0.132
33891W        W 5420  36.504  43.661   2.521
33892W        W 5421  24.820  42.457  13.438
33893W        W 5422  44.901  17.668  12.988
33894W        W 5423  37.352  12.951   4.674
33895W        W 5424  39.298  24.378  13.100
33896W        W 5425  11.298  18.591   0.492
33897W        W 5426  41.046  34.544  10.544
33898W        W 5427  26.767  16.818  13.635
33899W        W 5428   4.842  16.627  11.497
33900W        W 5429  21.807   9.152   2.864
33901W        W 5430  14.865  11.427   3.186
33902W        W 5431  39.447  12.309  14.330
33903W        W 5432  25.428  32.033   4.396
33904W        W 5433  26.067   5.002  10.187
33905W        W 5434  22.143  37.003  10.664
33906W        W 5435  41.845  20.635   3.701
33907W        W 5436  32.477   3.862  10.556
33908W        W 5437   0.398  10.582   4.880
33909W        W 5438  19.836  15.866   1.236
33910W        W 5439  19.725  20.998   0.304
33911W        W 5440  41.623  25.686   1.501
33912W        W 5441  41.548  35.911   2.006
33913W        W 5442   0.926  44.330   4.630
33914W        W 5443  36.375  27.225   3.253
33915W        W 5444  26.219  37.817   3.263
33916W        W 5445  23.580  33.096   0.420
33917W        W 5446  36.571  33.153   0.232
33918W        W 5447  18.404   2.331   0.918
33919W        W 5448  26.013   8.736  12.055
33920W        W 5449   3.039  10.839   1.928
33921W        W 5450  26.017  22.116  10.668
33922W        W 5451  41.794   5.067  11.204
33923W        W 5452  42.959   1.625   1.428
33924W        W 5453  43.778   3.854   3.219
33925W        W 5454   1.951  42.609  11.550
33926W        W 5455  18.573   1.878   1.110
33927W        W 5456  42.891  31.476   4.583
33928W        W 5457  19.267  38.750   2.693
33929W        W 5458  19.249   1.777  14.521
33930W        W 5459  25.526  18.001   4.053
33931W        W 5460  14.515  25.978  12.377
33932W        W 5461  25.999  26.959  12.972
33933W        W 5462  31.909  24.511  10.218
33934W        W 5463  24.098  31.485  14.950
33935W        W 5464  24.993  42.942  13.291
33936W        W 5465  25.492  15.624  12.996
33937W        W 5466   2.754  38.983   0.458
33938W        W 5467   9.943   1.242   0.803
33939W        W 5468   6.578   1.798   2.806
33940W        W 5469   7.635  34.220  13.345
33941W        W 5470   8.792  30.244  13.518
33942W        W 5471  17.664  36.910  14.776
33943W        W 5472   0.307  33.697  14.721
33944W        W 5473  16.199  28.211  10.077
33945W        W 5474   1.792  23.196   3.364
33946W        W 5475  33.633  30.939  13.886
33947W        W 5476  36.073  10.318   4.684
33948W        W 5477  15.338  31.661   2.402
33949W        W 5478   3.010  42.928  14.321
33950W        W 5479  28.787   8.701  11.917
33951W        W 5480  33.214  22.781  14.429
33952W        W 5481  15.747   5.126  14.819
33953W        W 5482  34.822  39.768   2.784
33954W        W 5483  22.370  44.275   4.751
33955W        W 5484   9.254   9.076  14.809
33956W        W 5485  23.686  22.721   0.811
33957W        W 5486  42.381   4.517   3.226
33958W        W 5487  10.620  32.766  11.520
33959W        W 5488   6.916  19.770  11.734
33960W        W 5489  39.087  36.998   0.946
33961W        W 5490  16.368  11.486   1.710
33962W        W 5491  27.527  23.785  14.746
33963W        W 5492  13.894  13.198  14.121
33964W        W 5493  43.341  14.597  12.862
33965W        W 5494   7.783  29.250  10.705
33966W        W 5495  37.767   6.587   3.153
33967W        W 5496  42.542  36.113   4.573
33968W        W 5497  23.023  22.640  10.893
33969W        W 5498  23.235  23.963  13.039
33970W        W 5499  12.807   7.196   2.177
33971W        W 5500  18.968  18.710   4.183
33972W        W 5501   8.361  13.325   0.169
33973W        W 5502  26.588  37.309  13.911
33974W        W 5503  20.447   1.764  14.808
33975W        W 5504  39.433  40.462  13.933
33976W        W 5505   3.172  25.167   4.746
33977W        W 5506   0.026  36.801  11.078
33978W        W 5507  14.774  33.363  10.042
33979W        W 5508   8.253  12.381  12.034
33980W        W 5509  36.873  10.855   4.359
33981W        W 5510  37.080  11.251   4.104
33982W        W 5511  10.838  41.316  11.580
33983W        W 5512  33.550   9.340   3.846
33984W        W 5513   1.993  15.411  10.656
33985W        W 5514   2.236   8.341   3.628
33986W        W 5515  26.927  10.592  14.869
33987W        W 5516  39.236  10.866   2.787
33988W        W 5517   9.318  13.853  12.165
33989W        W 5518  15.389  40.911   0.277
33990W        W 5519  33.599  25.443   3.679
33991W        W 5520   7.703  17.154   2.700
33992W        W 5521  13.122  21.604  13.627
33993W        W 5522  31.542  17.583  10.820
33994W        W 5523  26.992  17.799  10.696
33995W        W 5524  12.294  39.331   3.115
33996W        W 5525   6.380  30.960  14.570
33997W        W 5526   9.801  35.101  12.849
33998W        W 5527  33.187   7.420   0.838
33999W        W 5528  22.318   6.852  10.759
34000W        W 5529  26.551  19.276  11.741
34001W        W 5530  32.876  16.871  10.659
34002W        W 5531   1.978  17.403   4.160
34003W        W 5532  13.411   2.400  10.514
34004W        W 5533  29.531   9.654   3.377
34005W        W 5534  37.232  33.604  13.262
34006W        W 5535  41.302  29.876   1.828
34007W        W 5536  43.056  19.523   2.807
34008W        W 5537  28.875  37.077  10.630
34009W        W 5538  18.383  39.800   3.852
34010W        W 5539  17.650   6.270   2.325
34011W        W 5540  21.831   8.250  12.900
34012W        W 5541  24.098   2.845   4.331
34013W        W 5542  24.025  40.660   5.088
34014W        W 5543  15.661  33.811  11.067
34015W        W 5544  27.346  17.618   0.817
34016W        W 5545  41.830  39.788   3.890
34017W        W 5546   2.998   3.277  10.989
34018W        W 5547  33.071  31.649   4.165
34019W        W 5548  37.406   6.852   0.223
34020W        W 5549   0.482   1.887   1.426
34021W        W 5550   2.243  16.575  14.494
34022W        W 5551  25.772   7.338   1.213
34023W        W 5552  37.705  42.456  13.970
34024W        W 5553  36.946  24.728   0.407
34025W        W 5554  27.105  31.040   4.223
34026W        W 5555   4.696   1.540  14.778
34027W        W 5556  42.691  19.528  11.979
34028W        W 5557  20.084  29.882   2.770
34029W        W 5558   3.354   4.996   2.953
34030W        W 5559  11.665  28.226   2.088
34031W        W 5560  24.857  38.270  11.011
34032W        W 5561  37.590  35.617  14.428
34033W        W 5562  31.024  12.604   0.024
34034W        W 5563  30.569  24.936   1.369
34035W        W 5564  17.569  37.159   4.894
34036W        W 5565  36.483  12.210   3.238
34037W        W 5566  23.767   9.446  13.523
34038W        W 5567  29.258  12.089  12.503
34039W        W 5568  28.369  28.036   1.223
34040W        W 5569  26.947  34.180   0.905
34041W        W 5570  27.641  26.607  14.336
34042W        W 5571  16.099  18.475   3.593
34043W        W 5572  16.615   2.714   2.392
34044W        W 5573  35.199  10.648   0.144
34045W        W 5574  19.737  10.328  10.263
34046W        W 5575  26.560  17.190  12.694
34047W        W 5576  26.913  42.644   5.274
34048W        W 5577  44.804  10.283  12.585
34049W        W 5578  11.830  24.454  11.603
34050W        W 5579  16.423  42.449  12.650
34051W        W 5580  22.979   1.606   5.239
34052W        W 5581  33.171  16.530   1.623
34053W        W 5582   7.335  27.480   3.362
34054W        W 5583  38.748  23.905   3.198
34055W        W 5584  33.459  32.530  13.858
34056W        W 5585  44.020  22.243   3.871
34057W        W 5586  16.515  11.645   3.152
34058W        W 5587  23.297  42.017   1.551
34059W        W 5588  10.806  18.433   1.446
34060W        W 5589   8.964  16.644   4.789
34061W        W 5590  35.640  31.687  11.519
34062W        W 5591   2.275  18.217  12.488
34063W        W 5592  44.382  27.694   3.352
34064W        W 5593  31.021  29.053   2.712
34065W        W 5594  18.261  32.083  11.477
34066W        W 5595  40.640   7.925   0.535
34067W        W 5596  41.898  39.786   4.403
34068W        W 5597  11.077  27.148  12.081
34069W        W 5598  22.498  13.070   2.218
34070W        W 5599  12.220  41.468   4.427
34071W        W 5600  26.507  22.060   3.127
34072W        W 5601  44.834   2.887   3.935
34073W        W 5602  44.760  32.553  10.770
34074W        W 5603  32.230  15.821  10.019
34075W        W 5604  44.019  22.486  11.041
34076W        W 5605  16.756  14.685   1.001
34077W        W 5606  22.057  41.832   1.567
34078W        W 5607  28.522  30.364   1.184
34079W        W 5608  22.151  39.474  12.033
34080W        W 5609   0.079  25.369  13.339
34081W        W 5610   4.298  32.545  11.568
34082W        W 5611   4.181  20.229  14.263
34083W        W 5612  38.399   6.837  10.620
34084W        W 5613  31.578  38.523  10.392
34085W        W 5614  31.699  22.201   2.427
34086W        W 5615   4.943  16.410   4.043
34087W        W 5616  35.343   2.356  12.055
34088W        W 5617  14.213  44.738   4.568
34089W        W 5618  18.914  30.814   5.015
34090W        W 5619   1.489  44.972  11.491
34091W        W 5620  13.718  38.143  11.173
34092W        W 5621  35.479  21.620   3.829
34093W        W 5622  37.923  15.543  12.197
34094W        W 5623  33.035  30.191  11.123
34095W        W 5624  19.110  15.028  14.011
34096W        W 5625  41.909   2.873   1.213
34097W        W 5626  44.394  15.708   1.667
34098W        W 5627  31.283  12.619   1.322
34099W        W 5628  40.306  37.068   1.454
34100W        W 5629  40.433  26.599  13.903
34101W        W 5630  31.205  33.572   3.604
34102W        W 5631  16.063  42.884  12.794
34103W        W 5632  15.292  18.830   2.684
34104W        W 5633  29.270  28.920  11.019
34105W        W 5634  38.487  28.162  10.792
34106W        W 5635  32.133   0.230   1.134
34107W        W 5636  30.619  14.598  13.349
34108W        W 5637   3.317  30.551   1.863
34109W        W 5638  16.309  22.824  12.435
34110W        W 5639  27.891   6.331  12.675
34111W        W 5640  20.560  35.818  10.871
34112W        W 5641  21.595  14.719  11.940
34113W        W 5642   3.277  44.720   3.304
34114W        W 5643   3.963  29.150  14.923
34115W        W 5644  35.581  36.335  13.570
34116W        W 5645  28.497  27.563   2.318
34117W        W 5646  43.434  21.710  11.349
34118W        W 5647  42.552   7.153   1.990
34119W        W 5648  38.341  38.426  12.292
34120W        W 5649   9.006  32.899   2.843
34121W        W 5650   7.673  18.515   0.632
34122W        W 5651  17.797  44.816   0.942
34123W        W 5652  31.364  17.980   2.181
34124W        W 5653  16.420   6.099   0.012
34125W        W 5654   5.167  30.542  14.112
34126W        W 5655  15.174  11.570  12.007
34127W        W 5656  19.035  35.584   4.782
34128W        W 5657   6.684  31.901  14.248
34129W        W 5658   2.674  16.330  11.842
34130W        W 5659   5.270  39.714   4.125
34131W        W 5660  41.686   2.720  11.996
34132W        W 5661  34.122  33.871  13.489
34133W        W 5662  11.722  15.383   2.694
34134W        W 5663  26.637  25.546   0.652
34135W        W 5664   5.116   4.263   0.745
34136W        W 5665   6.694  24.675  14.474
34137W        W 5666  39.555   1.214  11.662
34138W        W 5667  34.323  34.523  12.191
34139W        W 5668  30.521  41.638  13.108
34140W        W 5669  30.241  43.872  11.604
34141W        W 5670  16.216  22.295  10.301
34142W        W 5671  19.778  27.704  10.835
34143W        W 5672  14.646  30.612   3.430
34144W        W 5673  33.542  15.995  11.908
34145W        W 5674  37.869  30.907  10.647
34146W        W 5675  43.868  21.442  11.234
34147W        W 5676  12.643  20.985  11.054
34148W        W 5677   2.274   8.139   0.452
34149W        W 5678  24.768  43.338   3.910
34150W        W 5679  41.930  10.202  12.015
34151W        W 5680   4.366  37.935   1.254
34152W        W 5681  29.478   0.769   2.756
34153W        W 5682   5.987  27.561   3.242
34154W        W 5683  31.443  30.493   0.722
34155W        W 5684  27.036  13.731   0.980
34156W        W 5685   9.227  25.023   4.681
34157W        W 5686   6.313  10.889   2.210
34158W        W 5687   4.380  30.049   4.213
34159W        W 5688   5.142  30.056   1.423
34160W        W 5689  10.156   3.483  13.332
34161W        W 5690  27.686  21.522  12.850
34162W        W 5691  44.044  35.734  14.059
34163W        W 5692  20.150   4.101   0.266
34164W        W 5693  35.900  32.566   4.320
34165W        W 5694  13.109  21.760   0.457
34166W        W 5695  22.955   8.280  11.948
34167W        W 5696   8.912  11.830  12.516
34168W        W 5697  40.951  15.255  11.017
34169W        W 5698  22.544  29.181   0.823
34170W        W 5699  11.198  21.547   4.715
34171W        W 5700  26.979  37.029  11.959
34172W        W 5701  22.537  22.099  13.800
34173W        W 5702  36.810   1.750   3.657
34174W        W 5703  13.458  31.565   3.203
34175W        W 5704   3.470  32.202   0.444
34176W        W 5705   9.885   7.231   0.442
34177W        W 5706   1.827   4.192  14.276
34178W        W 5707   5.482  14.108   5.051
34179W        W 5708  42.988  36.365   0.177
34180W        W 5709  44.829  12.415   0.433
34181W        W 5710  24.734  43.580   2.311
34182W        W 5711  30.840   1.870  13.580
34183W        W 5712   5.532  43.614   0.182
34184W        W 5713  28.771   6.280  13.796
34185W        W 5714   2.809  27.911  14.048
34186W        W 5715  15.864  39.332  13.359
34187W        W 5716   3.946  19.791   0.616
34188W        W 5717   7.770  32.414   1.851
34189W        W 5718   1.548   9.147  11.425
34190W        W 5719  17.768  23.068  12.581
34191W        W 5720   9.166  30.642   2.758
34192W        W 5721  44.482  17.729   3.293
34193W        W 5722   3.863  38.427  14.335
34194W        W 5723  11.469  16.547   2.274
34195W        W 5724  40.727  16.865   3.157
34196W        W 5725  26.175   9.687   4.613
34197W        W 5726  22.978  17.337  11.814
34198W        W 5727  34.500  34.835   1.510
34199W        W 5728  36.293  13.704  10.958
34200W        W 5729  31.938  19.405  12.788
34201W        W 5730   8.907  39.428   1.330
34202W        W 5731   6.466  29.753   1.497
34203W        W 5732  36.627  26.058  10.422
34204W        W 5733   1.563  28.452   3.101
34205W        W 5734   4.906   1.070   1.882
34206W        W 5735  32.025  36.936   1.471
34207W        W 5736  31.547   2.398   4.898
34208W        W 5737  26.454  14.303   4.131
34209W        W 5738  26.782  12.406  11.643
34210W        W 5739  34.151  42.153   1.654
34211W        W 5740   3.779  43.084  10.308
34212W        W 5741   3.987  28.097  14.755
34213W        W 5742  36.810   4.312  12.954
34214W        W 5743  34.546  30.888   3.121
34215W        W 5744   8.632  36.060   3.776
34216W        W 5745  44.343   3.939  14.258
34217W        W 5746   0.770  12.818   4.427
34218W        W 5747  40.434  26.271  11.638
34219W        W 5748  16.664  30.529   1.887
34220W        W 5749  18.642  39.835  11.102
34221W        W 5750  34.997  12.119   4.729
34222W        W 5751   9.848   7.294  12.223
34223W        W 5752   5.284  21.608   0.410
34224W        W 5753  10.198  14.787  13.373
34225W        W 5754  35.914  14.960   2.433
34226W        W 5755  23.529  24.260   4.618
34227W        W 5756  27.552  44.235  13.564
34228W        W 5757  31.495   1.382   4.813
34229W        W 5758   8.611  24.119   2.756
34230W        W 5759  13.810  41.753  13.914
34231W        W 5760   9.273  37.058   1.432
34232W        W 5761  19.668  14.188  14.799
34233W        W 5762   0.683   8.565   9.956
34234W        W 5763  38.866  31.557  12.896
34235W        W 5764  20.539  43.387   4.116
34236W        W 5765   9.042  15.342  12.142
34237W        W 5766  15.752  30.602  14.272
34238W        W 5767  27.187  38.796   1.336
34239W        W 5768  18.913  13.492   1.874
34240W        W 5769  40.380  18.258  14.561
34241W        W 5770  34.040  13.622  11.300
34242W        W 5771  33.534   0.483   0.448
34243W        W 5772   6.158  30.031   5.046
34244W        W 5773  42.845   9.165   4.417
34245W        W 5774  42.454  32.701   2.247
34246W        W 5775   9.183   8.670  13.296
34247W        W 5776  39.004   1.317   2.303
34248W        W 5777  19.720  32.975  14.329
34249W        W 5778  39.859   4.227  12.192
34250W        W 5779   9.395  13.221  11.536
34251W        W 5780  31.497  41.616  12.940
34252W        W 5781  21.174  17.340  14.454
34253W        W 5782   7.819  29.712   1.281
34254W        W 5783  35.820  23.203  14.994
34255W        W 5784  41.882   7.008  11.168
34256W        W 5785   9.083  17.280   4.199
34257W        W 5786  14.604  29.018   0.430
34258W        W 5787   3.233  33.495  12.927
34259W        W 5788  12.687   4.123  11.703
34260W        W 5789   1.453  29.817   4.248
34261W        W 5790  11.109   2.738   1.407
34262W        W 5791  22.409  33.941  13.999
34263W        W 5792  24.777   6.435  13.239
34264W        W 5793  44.308  20.161   0.013
34265W        W 5794  22.514  34.342  14.297
34266W        W 5795  12.393  23.471   1.990
34267W        W 5796  18.775   7.466   3.053
34268W        W 5797  30.367  26.041   3.393
34269W        W 5798  32.469  19.971  12.552
34270W        W 5799   2.791  26.533   2.230
34271W        W 5800   2.241   5.773   2.724
34272W        W 5801  27.152  17.246  11.550
34273W        W 5802  31.505  11.323  13.439
34274W        W 5803  20.226   5.175  14.069
34275W        W 5804  19.769  14.611  14.397
34276W        W 5805  25.199  33.555  12.761
34277W        W 5806  29.676   0.767  10.418
34278W        W 5807  13.227  44.751   2.730
34279W        W 5808  18.168  36.349   3.905
34280W        W 5809   8.426  14.986   0.569
34281W        W 5810  33.544  36.493  12.864
34282W        W 5811  39.280  18.208   2.110
34283W        W 5812  17.215  29.179  13.543
34284W        W 5813   6.663  33.546   1.721
34285W        W 5814   3.461  15.531  13.514
34286W        W 5815  42.394  22.199   2.899
34287W        W 5816  22.481  17.631  12.873
34288W        W 5817   0.933  32.775   4.541
34289W        W 5818  15.453  34.081  13.831
34290W        W 5819   7.091  13.765  10.584
34291W        W 5820  11.130  11.387   4.231
34292W        W 5821  41.930   2.657  12.831
34293W        W 5822   4.357  32.838   2.161
34294W        W 5823  19.715  43.623  14.038
34295W        W 5824  31.661  17.307   4.810
34296W        W 5825  18.743  43.870  13.628
34297W        W 5826  37.500  23.579   0.495
34298W        W 5827  12.664  44.055   0.295
34299W        W 5828  40.147   8.118   0.341
34300W        W 5829   3.404  44.945  13.938
34301W        W 5830  23.703  42.909   2.318
34302W        W 5831  18.665  17.734  14.303
34303W        W 5832   6.314  42.415  13.520
34304W        W 5833  11.661  26.941   1.735
34305W        W 5834  27.229   6.087  13.483
34306W        W 5835  21.038  13.405   1.016
34307W        W 5836  44.969  29.003  10.606
34308W        W 5837  42.334  12.975  13.914
34309W        W 5838  15.779  33.388  12.642
34310W        W 5839  12.771   8.852   3.708
34311W        W 5840  16.818  28.973   2.554
34312W        W 5841   8.778  34.268   3.075
34313W        W 5842  35.691  20.044  11.481
34314W        W 5843  28.089   9.667   4.144
34315W        W 5844  23.984  27.448  14.018
34316W        W 5845  17.593  14.748   3.971
34317W        W 5846  21.778  23.028  12.459
34318W        W 5847  32.109  42.462   1.929
34319W        W 5848  22.582   1.420   2.659
34320W        W 5849   9.727  33.113   3.479
34321W        W 5850   5.642  41.855  13.971
34322W        W 5851  13.887  26.454  11.068
34323W        W 5852   9.031  19.026   2.919
34324W        W 5853  24.109  33.546  11.905
34325W        W 5854  30.579  42.498   4.085
34326W        W 5855   1.944  11.952   2.319
34327W        W 5856  36.295  23.309  11.949
34328W        W 5857  24.159  36.667   3.284
34329W        W 5858  38.338  31.894   3.076
34330W        W 5859  26.193   6.189   4.423
34331W        W 5860  24.092  23.451  13.188
34332W        W 5861  23.046   8.761   2.787
34333W        W 5862  15.209   8.287   2.320
34334W        W 5863  28.190  10.860  12.015
34335W        W 5864   7.750  21.535  14.819
34336W        W 5865  24.550  35.892   4.184
34337W        W 5866  40.447  37.484  10.614
34338W        W 5867  15.495  34.986  13.994
34339W        W 5868  36.401  27.595  11.448
34340W        W 5869  10.633  24.968   1.233
34341W        W 5870   2.785  24.429  14.312
34342W        W 5871  39.501   1.559  13.742
34343W        W 5872  16.845  32.999   4.334
34344W        W 5873  39.440  12.111  13.020
34345W        W 5874  13.164   2.772   0.218
34346W        W 5875  11.817  40.831  14.838
34347W        W 5876   2.699  34.745  10.711
34348W        W 5877  10.532   1.770   3.368
34349W        W 5878  41.254  28.113  12.044
34350W        W 5879  32.336  10.607   0.884
34351W        W 5880  37.412  42.864   2.120
34352W        W 5881   3.702  16.153  11.995
34353W        W 5882   9.264  16.016   9.819
34354W        W 5883   7.417  21.598  13.036
34355W        W 5884   5.437  39.987  12.445
34356W        W 5885  12.015  29.003  12.970
34357W        W 5886  40.010  23.003  11.674
34358W        W 5887  25.149  42.586   0.709
34359W        W 5888  36.651   8.128  13.886
34360W        W 5889  41.698   4.174   0.957
34361W        W 5890  30.219   8.331  14.947
34362W        W 5891  22.287  10.980  14.392
34363W        W 5892   1.236  44.080  12.834
34364W        W 5893  18.577  36.999   3.882
34365W        W 5894  13.496  38.401   3.220
34366W        W 5895  24.646   8.080   0.806
34367W        W 5896  33.028   9.216   3.974
34368W        W 5897  18.721  41.109   4.176
34369W        W 5898  19.475  32.104   2.209
34370W        W 5899   9.080  42.901  11.583
34371W        W 5900  35.332  17.198  13.028
34372W        W 5901   3.928   6.254  13.278
34373W        W 5902   6.890  19.147   4.062
34374W        W 5903   6.709  10.614  11.918
34375W        W 5904   1.394  20.848   1.149
34376W        W 5905  16.769  26.513  12.773
34377W        W 5906  29.461  16.808   2.463
34378W        W 5907  28.158  11.806   0.314
34379W        W 5908  11.114  32.760  14.494
34380W        W 5909   4.938  20.503   1.805
34381W        W 5910  33.568  42.444  12.330
34382W        W 5911  36.804  24.436   4.112
34383W        W 5912  24.232   3.743  12.020
34384W        W 5913  31.496  41.399   0.494
34385W        W 5914  42.815  14.115   0.055
34386W        W 5915  11.232   4.613   0.459
34387W        W 5916  23.474  37.945   3.860
34388W        W 5917  31.499  19.818   0.284
34389W        W 5918  42.255  40.325   3.300
34390W        W 5919   7.741   9.179   2.886
34391W        W 5920  15.792  18.245   0.712
34392W        W 5921  42.933  26.678  13.315
34393W        W 5922  14.039  37.998   4.541
34394W        W 5923   8.266  28.453   2.349
34395W        W 5924   7.182  32.042  14.341
34396W        W 5925  40.524  41.523   1.239
34397W        W 5926  15.093  38.482   2.363
34398W        W 5927   6.827   1.710  14.027
34399W        W 5928  16.296  32.688  12.221
34400W        W 5929  36.381  14.763  14.299
34401W        W 5930  37.909  12.668   3.614
34402W        W 5931   3.762  41.824  12.524
34403W        W 5932  35.119  39.862   1.429
34404W        W 5933  26.239  19.758  13.436
34405W        W 5934   8.087  18.417  11.003
34406W        W 5935  17.288  34.021   4.108
34407W        W 5936   9.784  25.036   2.732
34408W        W 5937  32.472   8.867   0.428
34409W        W 5938  17.703  39.935   0.778
34410W        W 5939  43.557  22.942   3.218
34411W        W 5940  18.129  19.708  11.583
34412W        W 5941  43.353  36.773  10.727
34413W        W 5942  21.601  12.379   1.861
34414W        W 5943   0.698  33.279  14.376
34415W        W 5944  30.590  35.108   0.755
34416W        W 5945   3.604   5.402   3.152
34417W        W 5946   0.541  29.435  11.920
34418W        W 5947  30.615   1.818   4.870
34419W        W 5948  10.411  34.080   4.723
34420W        W 5949  14.816   8.697   3.633
34421W        W 5950  28.727  39.584   4.179
34422W        W 5951  14.330  42.483  11.530
34423W        W 5952  13.116  32.092   4.543
34424W        W 5953  19.730   3.737   0.920
34425W        W 5954  11.898  17.722   4.139
34426W        W 5955  12.392   7.330   0.813
34427W        W 5956  17.090   6.266   0.472
34428W        W 5957   0.226   3.244   0.750
34429W        W 5958  17.272  29.002   0.860
34430W        W 5959  11.112   8.327  13.905
34431W        W 5960   0.393  21.468  10.612
34432W        W 5961  42.467  32.045   0.305
34433W        W 5962  17.948  23.377   3.232
34434W        W 5963  13.432   2.856   3.017
34435W        W 5964  20.213  33.991  14.332
34436W        W 5965  24.719  11.633   0.770
34437W        W 5966  15.776   5.668   3.263
34438W        W 5967  11.689  28.639  12.487
34439W        W 5968   1.387  12.849  13.954
34440W        W 5969   3.357  36.354   1.002
34441W        W 5970  41.357  11.862  11.684
34442W        W 5971  27.914  40.378   0.810
34443W        W 5972   0.246  38.114   0.951
34444W        W 5973  42.045  44.728  12.110
34445W        W 5974  44.257  33.051   1.571
34446W        W 5975  23.225  25.531   2.185
34447W        W 5976   6.733  10.853   4.730
34448W        W 5977  21.037  34.367  12.992
34449W        W 5978  16.444  19.744  10.169
34450W        W 5979   5.424  17.787   2.303
34451W        W 5980  26.007  30.131   3.500
34452W        W 5981   6.025  16.730  13.360
34453W        W 5982  38.442   9.361   0.411
34454W        W 5983  35.037  22.560  14.425
34455W        W 5984  12.739  15.363   1.229
34456W        W 5985  29.655  12.613   1.391
34457W        W 5986  26.372  40.269   0.919
34458W        W 5987  11.610  36.372   1.248
34459W        W 5988  26.291  10.904   4.384
34460W        W 5989   4.957   5.344  14.077
34461W        W 5990   7.947   5.289  12.486
34462W        W 5991  15.722  28.938  13.480
34463W        W 5992  25.534  42.907   4.108
34464W        W 5993  26.411  28.556  13.389
34465W        W 5994  41.910  36.868   4.575
34466W        W 5995   4.504  23.058   3.762
34467W        W 5996  38.024  37.537   0.832
34468W        W 5997   1.504  22.137   1.363
34469W        W 5998  22.845  34.522  13.921
34470W        W 5999  33.159  15.660  11.013
34471W        W 6000  12.492  38.040  12.256
34472W        W 6001   4.377  19.049  11.461
34473W        W 6002  16.836   6.159  10.789
34474W        W 6003  13.126  32.074   4.044
34475W        W 6004  18.362  30.279  14.401
34476W        W 6005  40.409  11.696  14.472
34477W        W 6006  15.585   0.364   3.200
34478W        W 6007   3.918   9.919   0.954
34479W        W 6008  29.637  15.034   3.476
34480W        W 6009  16.251  41.078   0.254
34481W        W 6010  10.355  40.705  12.400
34482W        W 6011  18.561  44.891  14.966
34483W        W 6012  12.547  15.594  13.301
34484W        W 6013   6.180  10.013   4.529
34485W        W 6014  28.213  26.701   0.978
34486W        W 6015   4.311  40.232   3.367
34487W        W 6016  25.952  29.372  12.353
34488W        W 6017  21.480  41.540   2.638
34489W        W 6018  24.749  23.018   1.376
34490W        W 6019  28.668  44.892  11.104
34491W        W 6020  42.806  41.960   3.741
34492W        W 6021  35.920  21.273  11.625
34493W        W 6022   2.925  25.191   4.158
34494W        W 6023  29.568  39.271  10.406
34495W        W 6024  22.010  40.960  13.820
34496W        W 6025  32.841  19.649  12.426
34497W        W 6026  37.465   5.319  12.810
34498W        W 6027  18.738  28.534  12.283
34499W        W 6028   5.259  26.954   4.118
34500W        W 6029   1.470  27.772  11.751
34501W        W 6030  43.711   5.065  12.904
34502W        W 6031  29.490  16.393   2.159
34503W        W 6032  40.283   4.277   1.486
34504W        W 6033   6.192  25.118  13.038
34505W        W 6034  11.653  24.964  14.633
34506W        W 6035  20.632  32.512  11.599
34507W        W 6036  15.239  20.604  14.547
34508W        W 6037  36.023  22.691   3.202
34509W        W 6038  26.356  14.105  12.983
34510W        W 6039   3.551  36.794   0.792
34511W        W 6040  40.348  20.131  12.118
34512W        W 6041   3.681  12.653   3.289
34513W        W 6042   5.925  28.956  12.377
34514W        W 6043  11.141   6.202  11.798
34515W        W 6044   2.442   5.840  10.616
34516W        W 6045   4.976  43.579  12.392
34517W        W 6046  24.315  28.108  11.733
34518W        W 6047  44.223   0.017  11.235
34519W        W 6048  39.221  13.800  12.365
34520W        W 6049   4.346  33.773  12.724
34521W        W 6050  15.247  16.318  14.819
34522W        W 6051  33.650  28.425  11.265
34523W        W 6052  12.379   6.054   2.707
34524W        W 6053   8.923  19.207  11.158
34525W        W 6054  22.805   4.493  14.043
34526W        W 6055  27.172   7.202   1.736
34527W        W 6056  19.824  32.911   3.760
34528W        W 6057  27.984  38.880   0.305
34529W        W 6058  39.068   7.779   1.368
34530W        W 6059  44.199  23.772  13.989
34531W        W 6060   3.331   7.758  13.997
34532W        W 6061  34.142   7.232   2.303
34533W        W 6062   3.895  27.069  12.877
34534W        W 6063  20.683  21.092  13.056
34535W        W 6064  41.274  14.129  13.386
34536W        W 6065  41.344   3.512  11.673
34537W        W 6066   7.297  19.044   2.735
34538W        W 6067  33.076  30.876   2.908
34539W        W 6068  29.081  32.122  11.000
34540W        W 6069  19.524   8.473   0.912
34541W        W 6070  13.777   3.856   1.196
34542W        W 6071   8.668  16.604   3.325
34543W        W 6072  23.182   1.463   0.003
34544W        W 6073  20.563  21.628   4.162
34545W        W 6074  42.054  42.920  13.040
34546W        W 6075  26.575  43.850   0.831
34547W        W 6076  28.594  10.089  11.748
34548W        W 6077  15.593   3.984   1.444
34549W        W 6078   3.295  10.856   2.403
34550W        W 6079   2.320  31.397  12.631
34551W        W 6080  14.218  40.235   4.173
34552W        W 6081  25.988   7.966  14.425
34553W        W 6082  11.165  23.022   2.789
34554W        W 6083  38.073   1.524   2.036
34555W        W 6084  21.564  30.262  14.607
34556W        W 6085  22.212   1.238   3.305
34557W        W 6086   2.523   1.855   0.235
34558W        W 6087   9.420  44.249  12.430
34559W        W 6088  16.244   8.746   0.901
34560W        W 6089  10.299   2.209  13.058
34561W        W 6090   3.153  34.059   2.794
34562W        W 6091  30.207  23.517  14.543
34563W        W 6092   3.901  19.237   1.246
34564W        W 6093  16.557   9.937   0.365
34565W        W 6094  41.725  32.896   3.282
34566W        W 6095   2.992  15.167   2.257
34567W        W 6096  18.481   4.652   4.634
34568W        W 6097  42.118  16.218  10.462
34569W        W 6098  35.037  11.073  11.044
34570W        W 6099  29.710  38.822   3.818
34571W        W 6100   5.763  30.116  11.089
34572W        W 6101   0.287  44.052   1.509
34573W        W 6102  40.584  10.969   2.851
34574W        W 6103   4.817  16.031   2.566
34575W        W 6104  32.690  32.824   2.033
34576W        W 6105  23.053  21.692   1.437
34577W        W 6106  17.170  41.861   3.248
34578W        W 6107  33.304  43.054   4.570
34579W        W 6108  25.767  20.903  11.183
34580W        W 6109  11.811  27.697   1.240
34581W        W 6110   2.291   6.190   1.162
34582W        W 6111   0.042  10.645  11.954
34583W        W 6112   9.191  12.513   1.761
34584W        W 6113   3.399   4.225  14.332
34585W        W 6114  18.927   3.317  13.948
34586W        W 6115   8.590   5.714   1.482
34587W        W 6116   4.938  17.740  12.034
34588W        W 6117  32.856  30.586  13.460
34589W        W 6118   3.169  26.538  10.208
34590W        W 6119   6.026  11.195   4.123
34591W        W 6120  26.959  19.805  10.744
34592W        W 6121  41.208  34.152  14.429
34593W        W 6122  37.979  25.472  11.032
34594W        W 6123  17.233  23.995  10.624
34595W        W 6124  20.130  17.583   4.329
34596W        W 6125   9.796  36.991  11.961
34597W        W 6126  35.338  23.631  12.484
34598W        W 6127   4.646  13.829  13.457
34599W        W 6128  18.605  17.001   3.158
34600W        W 6129  29.435  44.892  11.670
34601W        W 6130  15.878   4.325   2.248
34602W        W 6131  42.992  12.459   1.241
34603W        W 6132  22.793   9.219  12.382
34604W        W 6133  40.468  12.158  11.546
34605W        W 6134  19.719  28.580  13.458
34606W        W 6135  28.249  10.384   9.919
34607W        W 6136   4.190  13.371   5.018
34608W        W 6137   9.858  25.421   4.321
34609W        W 6138  34.053   4.843   3.321
34610W        W 6139   9.173  43.666   4.019
34611W        W 6140  24.978  33.312   4.091
34612W        W 6141   8.162  17.584   4.588
34613W        W 6142   2.768  23.207  13.604
34614W        W 6143   2.534  16.869   1.941
34615W        W 6144  31.649  35.123   4.022
34616W        W 6145   7.478  33.744  11.692
34617W        W 6146  34.734  40.238   4.841
34618W        W 6147  15.019  15.673  11.939
34619W        W 6148   1.045   3.726   0.267
34620W        W 6149  15.713  34.336  11.042
34621W        W 6150  35.905  41.531  12.991
34622W        W 6151   7.139  27.974   0.914
34623W        W 6152   4.277  14.904   2.411
34624W        W 6153  21.650  18.535   3.576
34625W        W 6154  43.211  22.702  11.563
34626W        W 6155  21.636  22.161  14.857
34627W        W 6156   9.702   8.927   0.025
34628W        W 6157   6.892  39.612  11.602
34629W        W 6158   7.408  13.967  13.931
34630W        W 6159  42.043  39.321  11.436
34631W        W 6160   3.748  41.495  12.937
34632W        W 6161  26.121  21.058  11.570
34633W        W 6162  16.566  25.548  13.789
34634W        W 6163  38.512   6.697   1.835
34635W        W 6164   0.715  14.618  11.623
34636W        W 6165  25.216  37.050   1.149
34637W        W 6166  37.644   6.587  11.647
34638W        W 6167  34.327  38.334   3.358
34639W        W 6168   6.920  29.453  13.823
34640W        W 6169  40.416  26.972  12.958
34641W        W 6170  23.149  30.992   2.587
34642W        W 6171  41.035   9.878  12.039
34643W        W 6172  37.196  11.896  11.647
34644W        W 6173  28.108  30.633   4.590
34645W        W 6174  34.536  36.012  10.658
34646W        W 6175   8.815  32.776  13.014
34647W        W 6176  13.134  36.803   1.901
34648W        W 6177  29.446  17.330  14.813
34649W        W 6178  28.200  40.461   1.799
34650W        W 6179  28.935  38.474   4.172
34651W        W 6180  13.351   7.359   3.185
34652W        W 6181   7.280  37.781   0.483
34653W        W 6182  34.260   5.452  13.897
34654W        W 6183  20.236   4.361  11.041
34655W        W 6184  37.459   0.392   3.247
34656W        W 6185  23.272   8.462   0.975
34657W        W 6186  11.204  14.836   2.335
34658W        W 6187  31.757  29.680  11.121
34659W        W 6188  16.661  18.025   4.120
34660W        W 6189  25.011  30.604   1.145
34661W        W 6190   7.790  28.184  11.547
34662W        W 6191  42.806   7.235  13.308
34663W        W 6192  23.773  44.337   4.371
34664W        W 6193   6.178  16.774   5.385
34665W        W 6194  41.789  16.262  14.254
34666W        W 6195  12.084  19.738  14.379
34667W        W 6196  17.297  27.554  10.649
34668W        W 6197  44.535  25.569  12.164
34669W        W 6198   4.316  33.910  14.552
34670W        W 6199  28.004  11.531   4.569
34671W        W 6200  26.034  12.863  11.093
34672W        W 6201  39.561   7.266  14.863
34673W        W 6202   2.406   6.685   0.854
34674W        W 6203  24.341  31.342   0.923
34675W        W 6204  17.404  20.159  11.628
34676W        W 6205  43.535  44.069   0.723
34677W        W 6206  37.062  12.519   4.607
34678W        W 6207  28.026  26.676  10.307
34679W        W 6208   0.372  22.460   2.294
34680W        W 6209  25.910   6.250  11.663
34681W        W 6210   9.209  24.230  14.412
34682W        W 6211  43.433  34.605  13.906
34683W        W 6212  15.026  31.872   1.838
34684W        W 6213  31.744  23.031  11.281
34685W        W 6214   2.202  14.840   3.665
34686W        W 6215  29.551  27.557  14.993
34687W        W 6216  22.140  12.564  12.885
34688W        W 6217  18.713   4.895  11.184
34689W        W 6218  42.308   6.810  12.396
34690W        W 6219  43.091  23.746   4.204
34691W        W 6220  35.981   8.311   2.154
34692W        W 6221  29.698  41.549   1.323
34693W        W 6222  15.805  10.236  14.405
34694W        W 6223   7.168  24.563   1.811
34695W        W 6224   1.673  27.090   2.826
34696W        W 6225  10.842   2.292  11.960
34697W        W 6226  19.238   4.327  11.284
34698W        W 6227  41.247  40.437   1.899
34699W        W 6228  30.049  38.281  14.318
34700W        W 6229  30.231  29.095   3.359
34701W        W 6230  35.713  37.992   1.904
34702W        W 6231  20.914  28.276  12.975
34703W        W 6232  35.570  29.018   1.375
34704W        W 6233  43.301   1.611   3.489
34705W        W 6234  43.577  35.120   1.758
34706W        W 6235  13.138  30.866   2.349
34707W        W 6236  34.648  12.178   1.856
34708W        W 6237  34.418  40.011   4.174
34709W        W 6238  19.465   7.907   4.210
34710W        W 6239   5.432  33.469   1.222
34711W        W 6240  32.507  37.781   4.240
34712W        W 6241  42.298   5.139  13.315
34713W        W 6242  24.791  38.127   1.969
34714W        W 6243   8.903   8.688  14.906
34715W        W 6244   6.835  38.058  11.405
34716W        W 6245   2.948  32.048   3.217
34717W        W 6246   1.144  26.655   0.820
34718W        W 6247  41.424  13.780   1.056
34719W        W 6248  35.657  27.493   1.019
34720W        W 6249  38.765  12.547  13.992
34721W        W 6250  36.286   1.126   3.363
34722W        W 6251   6.734  20.421   3.553
34723W        W 6252  27.081   5.933   2.320
34724W        W 6253  27.627   2.192   1.453
34725W        W 6254  38.033   2.047  13.960
34726W        W 6255   3.420  18.340  13.535
34727W        W 6256  25.890  19.001   1.697
34728W        W 6257   2.394  37.408   1.656
34729W        W 6258  16.726   7.831  12.029
34730W        W 6259  33.559  16.054   4.422
34731W        W 6260  34.965   2.397  10.735
34732W        W 6261  16.599  40.589  13.409
34733W        W 6262  35.344   0.009  10.689
34734W        W 6263  29.625   5.968   0.544
34735W        W 6264  42.850  20.055  10.482
34736W        W 6265  23.283  32.145  13.682
34737W        W 6266  33.521  11.101  14.327
34738W        W 6267  39.630  30.953   4.102
34739W        W 6268  40.900   0.160  14.278
34740W        W 6269  22.200  41.046  14.326
34741W        W 6270   9.375  33.788   0.891
34742W        W 6271   9.254  43.926  13.521
34743W        W 6272  36.262  42.920  13.854
34744W        W 6273  38.496  34.966   2.053
34745W        W 6274   4.264  23.913   2.763
34746W        W 6275   7.731  23.739  14.085
34747W        W 6276  26.050   7.422   1.823
34748W        W 6277  16.770  36.290  14.773
34749W        W 6278  20.791   1.996  11.652
34750W        W 6279  33.888   4.280  11.574
34751W        W 6280  39.444  40.873  11.508
34752W        W 6281  43.453  38.473  14.287
34753W        W 6282  28.726  26.622  13.598
34754W        W 6283  38.920  35.380  14.762
34755W        W 6284   4.194  30.533   4.119
34756W        W 6285  15.300  39.849   3.387
34757W        W 6286  38.384  41.739   1.948
34758W        W 6287  20.999  37.207   3.648
34759W        W 6288   4.726  31.079  11.545
34760W        W 6289  25.558  41.430  12.366
34761W        W 6290  31.619   4.575  12.509
34762W        W 6291  28.697  23.470  12.674
34763W        W 6292   0.538  37.049   3.798
34764W        W 6293  23.289  13.590  11.119
34765W        W 6294   4.273   4.835  14.702
34766W        W 6295  12.532  17.062  14.858
34767W        W 6296  10.409  20.692  10.232
34768W        W 6297  19.289  14.044  13.807
34769W        W 6298  16.223  28.492   1.284
34770W        W 6299   0.555  35.911   0.988
34771W        W 6300   2.743  36.100  11.726
34772W        W 6301  13.261  20.619  10.411
34773W        W 6302  11.811  12.289  12.070
34774W        W 6303  44.259   8.410   3.276
34775W        W 6304  36.160  18.671   3.534
34776W        W 6305  18.347  22.564   3.674
34777W        W 6306  32.811  34.042   0.740
34778W        W 6307   7.495  34.478  12.860
34779W        W 6308  10.805  26.112  11.313
34780W        W 6309  43.926  17.374   0.850
34781W        W 6310  41.959  26.590   3.237
34782W        W 6311  34.044   8.955  12.886
34783W        W 6312  15.531  42.495   2.722
34784W        W 6313  16.214  28.870   0.855
34785W        W 6314  10.867   7.668   4.256
34786W        W 6315  22.688  18.154   4.582
34787W        W 6316  36.916  13.853  12.758
34788W        W 6317  26.779  42.431   4.807
34789W        W 6318  19.660  35.016  13.922
34790W        W 6319   8.245  41.435   4.103
34791W        W 6320  11.629  20.450  10.159
34792W        W 6321  39.488  42.592  13.621
34793W        W 6322   8.386  34.382  11.107
34794W        W 6323  24.290  23.528  14.569
34795W        W 6324  33.067  44.028   0.740
34796W        W 6325   0.775   8.431  12.576
34797W        W 6326  26.916  34.508  11.849
34798W        W 6327  43.042  44.985   4.489
34799W        W 6328   3.883  13.537  14.843
34800W        W 6329  34.988  36.583  14.389
34801W        W 6330  44.684   1.851  13.498
34802W        W 6331  35.745   2.898  12.993
34803W        W 6332  29.785  12.534  14.313
34804W        W 6333  42.848  29.491  11.618
34805W        W 6334  13.692  44.947   2.572
34806W        W 6335   6.916  37.308  14.871
34807W        W 6336   6.404  19.757  11.955
34808W        W 6337  29.920   6.879   1.432
34809W        W 6338  12.408  19.682  11.093
34810W        W 6339  32.671  35.345   1.358
34811W        W 6340  24.157  37.824   0.287
34812W        W 6341   8.062  39.422   0.949
34813W        W 6342  35.990  38.435   2.653
34814W        W 6343  24.124  33.426  13.748
34815W        W 6344  44.840   6.951  11.469
34816W        W 6345  24.731   9.162   4.604
34817W        W 6346  34.350  42.687   3.143
34818W        W 6347  25.273  39.351  12.780
34819W        W 6348  10.070  30.534  11.988
34820W        W 6349   7.813  20.082  13.106
34821W        W 6350  39.030  14.242   2.014
34822W        W 6351  18.271   2.299  11.805
34823W        W 6352  15.119  31.824  14.326
34824W        W 6353   9.453  43.745  11.228
34825W        W 6354   9.119  22.762   0.849
34826W        W 6355   6.384  22.512  10.123
34827W        W 6356  21.766  37.869  11.096
34828W        W 6357  25.686  22.725   4.025
34829W        W 6358   9.441  21.286   2.172
34830W        W 6359  33.155   1.855   4.366
34831W        W 6360  21.208   8.861   1.465
34832W        W 6361  30.405  21.072  11.148
34833W        W 6362  24.272  44.297   2.391
34834W        W 6363  21.136  35.887  11.919
34835W        W 6364  34.477  34.918  10.898
34836W        W 6365  42.014  26.935  10.569
34837W        W 6366  20.392  14.174   3.731
34838W        W 6367  23.532   3.372  12.486
34839W        W 6368   0.769   0.534   0.364
34840W        W 6369  34.915  33.368   2.285
34841W        W 6370  38.045  12.863  12.880
34842W        W 6371  19.443  37.808  11.109
34843W        W 6372  15.667  43.725  14.412
34844W        W 6373   7.801  26.156  10.531
34845W        W 6374  15.714  12.613   0.571
34846W        W 6375  37.244  28.963  14.890
34847W        W 6376  19.136  30.138  14.864
34848W        W 6377  17.224  22.316  13.977
34849W        W 6378  42.882  44.407  14.038
34850W        W 6379   9.031  11.879   1.176
34851W        W 6380  11.190  22.407  13.166
34852W        W 6381   2.718   2.909   0.503
34853W        W 6382  10.150  31.828   1.851
34854W        W 6383  29.444  24.982  13.472
34855W        W 6384   6.231  12.139   4.533
34856W        W 6385  29.577  29.534   4.360
34857W        W 6386  10.132  15.828   0.044
34858W        W 6387  33.932  16.157   1.974
34859W        W 6388   8.459  32.870   2.323
34860W        W 6389   2.735  36.631  10.897
34861W        W 6390  27.377   6.977   2.550
34862W        W 6391   2.198   6.271  10.724
34863W        W 6392  43.579  40.548  11.175
34864W        W 6393   8.444   1.595   0.847
34865W        W 6394  35.040  28.619   3.262
34866W        W 6395  38.525   5.183  11.783
34867W        W 6396  10.081  10.899  10.846
34868W        W 6397  43.579  12.881  12.552
34869W        W 6398  31.982  30.164   2.344
34870W        W 6399  36.881  22.528  13.491
34871W        W 6400   4.002  26.046   2.210
34872W        W 6401  18.842  19.980   3.405
34873W        W 6402  35.068  34.911  13.384
34874W        W 6403  31.679  28.881  14.361
34875W        W 6404  41.970  23.219  12.920
34876W        W 6405   3.670  35.155  11.541
34877W        W 6406  18.234   1.821  10.552
34878W        W 6407  16.931  23.603  10.679
34879W        W 6408  26.570   0.350   1.854
34880W        W 6409   2.596  38.670  12.478
34881W        W 6410  20.520  38.405  11.463
34882W        W 6411  33.468  24.707  12.739
34883W        W 6412  13.100   6.846  11.927
34884W        W 6413  32.177  31.651   0.765
34885W        W 6414  23.121  43.320   0.839
34886W        W 6415  40.779  41.309   1.700
34887W        W 6416  21.719  15.351   1.965
34888W        W 6417  25.061  21.403   1.039
34889W        W 6418  14.705  42.065   3.719
34890W        W 6419  36.790   0.259  12.473
34891W        W 6420   2.647   7.349  11.187
34892W        W 6421  41.786  25.696   0.180
34893W        W 6422  14.040  44.805   1.801
34894W        W 6423  29.459  35.845  14.298
34895W        W 6424  22.135  41.597   3.835
34896W        W 6425  26.103   7.293  10.607
34897W        W 6426  37.476   5.510  13.925
34898W        W 6427  16.503  42.913   5.038
34899W        W 6428  38.522   4.334  10.754
34900W        W 6429  19.345  20.099   3.362
34901W        W 6430   7.945  15.631   2.782
34902W        W 6431  18.977  26.138   3.327
34903W        W 6432  21.902  41.953  11.267
34904W        W 6433   8.269  27.611  11.368
34905W        W 6434  28.866  13.730   1.238
34906W        W 6435  39.487  37.080   1.863
34907W        W 6436  22.076  32.434   4.877
34908W        W 6437  27.214   4.892   2.182
34909W        W 6438  40.061  14.163  14.419
34910W        W 6439  33.469  27.107   1.446
34911W        W 6440   1.411  12.148   5.070
34912W        W 6441   8.117  31.042   2.323
34913W        W 6442  44.344  43.443   4.221
34914W        W 6443  40.758  22.539  13.807
34915W        W 6444  19.352  36.895  13.878
34916W        W 6445  41.949  29.913  11.945
34917W        W 6446  36.593  23.105  10.607
34918W        W 6447  34.957  15.409   5.184
34919W        W 6448   4.130  35.410   4.329
34920W        W 6449   2.967   3.749   2.287
34921W        W 6450  39.132  21.486   3.232
34922W        W 6451   3.036  26.714  13.333
34923W        W 6452   4.734  12.124  11.150
34924W        W 6453  40.294  12.688  14.959
34925W        W 6454  41.969  24.156  12.481
34926W        W 6455  42.869  22.358   2.732
34927W        W 6456  40.026  43.895  11.460
34928W        W 6457  34.929  41.214  13.328
34929W        W 6458  14.879  10.743  10.718
34930W        W 6459  35.904   4.475  14.958
34931W        W 6460  44.869   9.123   3.256
34932W        W 6461  32.171   6.721   4.273
34933W        W 6462  31.433  32.949  13.869
34934W        W 6463   7.859  16.725  10.795
34935W        W 6464  32.688  29.681  11.937
34936W        W 6465   7.236   8.209  11.203
34937W        W 6466  35.966  15.278   4.634
34938W        W 6467  14.240  27.610   1.801
34939W        W 6468  17.276   0.001  14.246
34940W        W 6469  17.745   1.051  10.666
34941W        W 6470  26.113   9.550  11.611
34942W        W 6471  37.966   1.006   4.605
34943W        W 6472  36.481  21.512   4.265
34944W        W 6473   2.003   4.874  10.206
34945W        W 6474  36.644  41.928   4.265
34946W        W 6475  19.838  21.547  13.427
34947W        W 6476  38.480  25.128  11.859
34948W        W 6477  38.847  26.779   1.788
34949W        W 6478  28.222  17.592  14.916
34950W        W 6479  15.556   3.459  11.154
34951W        W 6480  15.130  30.399   3.664
34952W        W 6481  36.554   5.413  11.084
34953W        W 6482  18.705  34.131   3.617
34954W        W 6483  28.938  27.008  14.406
34955W        W 6484  18.490  11.853   2.288
34956W        W 6485  17.133  23.730  12.854
34957W        W 6486  13.426  41.945  14.896
34958W        W 6487  39.999  42.119  10.705
34959W        W 6488  21.212   9.400   3.755
34960W        W 6489  41.486  14.727   0.019
34961W        W 6490  23.946  24.420   2.075
34962W        W 6491  22.259   0.382   1.015
34963W        W 6492  37.714  10.181   3.161
34964W        W 6493  30.535   0.901  10.705
34965W        W 6494  17.862  16.944  11.912
34966W        W 6495  36.201  10.161   3.157
34967W        W 6496  13.125   1.899   0.545
34968W        W 6497  25.418  21.356   4.643
34969W        W 6498  41.817  22.351   1.839
34970W        W 6499   0.686  22.648   1.880
34971W        W 6500  35.566   4.473  13.518
34972W        W 6501  32.974  34.878   1.728
34973W        W 6502  31.010   3.978  13.493
34974W        W 6503  14.662   8.674   0.080
34975W        W 6504  28.142  19.163  11.056
34976W        W 6505  29.582  15.600   0.947
34977W        W 6506  35.396  43.900  11.567
34978W        W 6507  29.958  39.053  14.734
34979W        W 6508   2.349  21.174   2.550
34980W        W 6509  32.299  23.482  11.849
34981W        W 6510   2.730  38.922  14.922
34982W        W 6511  23.029  21.719   0.027
34983W        W 6512   0.083  10.187  12.190
34984W        W 6513  13.761  29.942   4.535
34985W        W 6514  35.378  42.062  12.067
34986W        W 6515   9.598   2.953  12.946
34987W        W 6516  30.912  27.769  14.803
34988W        W 6517  23.754  40.805  14.395
34989W        W 6518  22.932  18.032   3.658
34990W        W 6519  41.426  19.373   0.804
34991W        W 6520  25.173  21.674  12.444
34992W        W 6521  36.952   6.758   1.357
34993W        W 6522  38.783  34.600  11.930
34994W        W 6523  32.544  31.042  11.768
34995W        W 6524  38.379  14.783  12.133
34996W        W 6525  10.173  20.799  10.694
34997W        W 6526  16.790   3.212  14.996
34998W        W 6527  13.609  13.795  11.036
34999W        W 6528   2.299  14.681   4.565
35000W        W 6529  21.956  22.230  14.457
35001W        W 6530   3.405  32.921   2.223
35002W        W 6531  33.332  11.750   2.941
35003W        W 6532  11.704   5.253  13.367
35004W        W 6533  40.547  27.205  11.635
35005W        W 6534  40.802  28.656  14.330
35006W        W 6535  10.368  12.707   3.115
35007W        W 6536   1.445  38.105   3.224
35008W        W 6537  36.063  18.919  14.617
35009W        W 6538   3.697  42.332   3.117
35010W        W 6539  12.655  28.521  10.602
35011W        W 6540  39.500  23.976   2.807
35012W        W 6541  41.093  20.870  11.075
35013W        W 6542  29.981  14.551  13.071
35014W        W 6543   4.540  21.247  14.883
35015W        W 6544  20.555  21.482  14.856
35016W        W 6545  23.225  32.462  12.975
35017W        W 6546  17.946  17.868   2.275
35018W        W 6547  13.679  23.183   3.243
35019W        W 6548  18.030  23.783   2.272
35020W        W 6549  26.734   8.819   3.249
35021W        W 6550  19.565  41.462  11.476
35022W        W 6551  16.795  18.969   1.686
35023W        W 6552  43.698  44.266   2.349
35024W        W 6553  32.334  35.094  11.555
35025W        W 6554   1.427  38.245  11.764
35026W        W 6555  13.899  13.633   0.843
35027W        W 6556  10.534  38.134   3.647
35028W        W 6557  44.084  22.978  11.218
35029W        W 6558  36.996   8.128  13.107
35030W        W 6559  14.773  22.736  14.803
35031W        W 6560   3.733  24.089   4.545
35032W        W 6561  14.610  44.935  10.944
35033W        W 6562  42.660  19.561   4.600
35034W        W 6563   9.376  16.725   3.798
35035W        W 6564  14.738  27.459  10.643
35036W        W 6565  44.671  34.238   4.192
35037W        W 6566   9.197   9.828  14.459
35038W        W 6567  13.354  23.757  11.200
35039W        W 6568  32.290   5.270   4.413
35040W        W 6569  18.646  26.357   4.175
35041W        W 6570  35.435  15.659   2.164
35042W        W 6571  24.034  19.519   1.898
35043W        W 6572  17.432  40.030   4.985
35044W        W 6573  18.419   6.448  10.678
35045W        W 6574   8.276  28.520   3.871
35046W        W 6575  23.152  28.103   0.603
35047W        W 6576  31.115  28.080  10.598
35048W        W 6577  27.300  42.853   1.024
35049W        W 6578  11.888  41.819  11.313
35050W        W 6579  26.273  13.799  13.592
35051W        W 6580   0.630  30.121   1.090
35052W        W 6581  41.776   4.199  11.165
35053W        W 6582  29.676  34.325   0.492
35054W        W 6583   5.969  41.912   2.763
35055W        W 6584  21.311  28.957   1.866
35056W        W 6585  24.591  20.813   1.736
35057W        W 6586  37.916  34.977   1.986
35058W        W 6587  24.406  27.123   1.859
35059W        W 6588   5.711  31.006   0.914
35060W        W 6589  39.343  31.347   1.468
35061W        W 6590   2.676  38.393  13.110
35062W        W 6591  28.188   1.248  13.919
35063W        W 6592  12.859   4.824  10.475
35064W        W 6593  13.541  15.799   4.057
35065W        W 6594   4.937  18.567   0.207
35066W        W 6595   2.349  35.667  12.015
35067W        W 6596  30.231   4.100   4.819
35068W        W 6597  24.181  20.663   3.814
35069W        W 6598  13.067  15.331  12.572
35070W        W 6599  29.943  40.117   2.298
35071W        W 6600  42.842  29.148  10.603
35072W        W 6601  38.471  27.653  10.706
35073W        W 6602  23.767  17.203   2.318
35074W        W 6603  27.618   4.193   1.375
35075W        W 6604  29.866  37.773   3.608
35076W        W 6605  33.983  44.296   4.554
35077W        W 6606  24.416  13.165   2.295
35078W        W 6607  16.357  37.804  13.849
35079W        W 6608  43.550  19.569  14.640
35080W        W 6609  19.613   3.831  12.157
35081W        W 6610  11.109  44.378  11.674
35082W        W 6611   8.341  16.651   2.311
35083W        W 6612  19.673   1.184  10.620
35084W        W 6613  29.343   3.009  13.510
35085W        W 6614  28.493  18.698  11.987
35086W        W 6615  36.536  27.890  12.716
35087W        W 6616  10.802  40.777  12.874
35088W        W 6617  35.892  22.745   4.091
35089W        W 6618   4.548   1.798  13.431
35090W        W 6619  21.194  40.957   9.864
35091W        W 6620  42.811   0.067  14.493
35092W        W 6621  19.331  39.360  10.521
35093W        W 6622  20.836   7.676   0.510
35094W        W 6623  12.110  36.578   1.141
35095W        W 6624  23.221  24.275   1.377
35096W        W 6625   7.423   6.660   0.139
35097W        W 6626  43.714  33.967  14.363
35098W        W 6627   4.702  35.111   0.944
35099W        W 6628  24.071   5.753   4.455
35100W        W 6629   1.003  22.936  13.507
35101W        W 6630  29.053  42.797  13.931
35102W        W 6631   3.414  43.129   0.050
35103W        W 6632  30.397  16.150  12.905
35104W        W 6633   7.334  22.594  13.025
35105W        W 6634  13.071  10.816  12.674
35106W        W 6635   8.955   6.801  12.855
35107W        W 6636  12.657  30.117  13.527
35108W        W 6637  22.404  40.425  12.090
35109W        W 6638  11.895  11.657   4.622
35110W        W 6639  35.546  30.840  13.732
35111W        W 6640  25.635  34.880   3.359
35112W        W 6641   3.161  22.544   1.716
35113W        W 6642  10.033   0.041  13.817
35114W        W 6643  44.447  13.426  11.124
35115W        W 6644  34.406  24.217  13.041
35116W        W 6645  31.923  35.101   3.575
35117W        W 6646  36.622  19.014  13.897
35118W        W 6647  16.066  18.965   1.122
35119W        W 6648  26.372  35.289  13.050
35120W        W 6649  20.647  18.958  12.142
35121W        W 6650  21.917  41.454   2.917
35122W        W 6651  39.779  16.915  11.575
35123W        W 6652  24.581  37.856   1.047
35124W        W 6653   4.408  19.429   3.198
35125W        W 6654  35.096  42.578   0.023
35126W        W 6655  23.561   2.368   2.671
35127W        W 6656  29.384  41.926   1.114
35128W        W 6657   8.900  15.154  12.659
35129W        W 6658  41.353  22.542   2.140
35130W        W 6659  25.904   0.160  11.581
35131W        W 6660  21.457  40.026  10.213
35132W        W 6661  18.091  41.329  13.523
35133W        W 6662   2.918  21.662   1.811
35134W        W 6663  14.090  36.882  14.277
35135W        W 6664  11.283   4.261   2.246
35136W        W 6665  27.362  21.291   0.049
35137W        W 6666   5.917  29.909   3.055
35138W        W 6667  44.487  35.911   0.350
35139W        W 6668  11.122  40.371   2.350
35140W        W 6669  43.664  23.183  11.962
35141W        W 6670  44.548  36.067  12.495
35142W        W 6671  20.510  25.339   2.443
35143W        W 6672   2.655  14.614   1.395
35144W        W 6673  12.105  38.693  11.495
35145W        W 6674  31.922  41.623   0.302
35146W        W 6675   9.577  21.755  11.277
35147W        W 6676  19.714   1.774   2.198
35148W        W 6677  37.074   0.258  10.641
35149W        W 6678  37.964   9.176  11.256
35150W        W 6679  13.438   9.226  13.904
35151W        W 6680  18.848  40.906  13.501
35152W        W 6681   5.784  43.126   4.795
35153W        W 6682  17.266  14.661   2.831
35154W        W 6683   7.203   7.857  13.826
35155W        W 6684  29.329  42.011   1.615
35156W        W 6685   3.470  25.325  14.461
35157W        W 6686  36.500  21.849   1.463
35158W        W 6687  36.911  23.397   2.568
35159W        W 6688  25.019  42.911   1.099
35160W        W 6689   7.772  11.566   0.677
35161W        W 6690  36.937  44.768  12.460
35162W        W 6691  18.803  23.228  12.460
35163W        W 6692  32.748   2.101  12.916
35164W        W 6693  20.025  28.005   4.117
35165W        W 6694  38.496   5.505  11.386
35166W        W 6695  13.699  20.493  14.500
35167W        W 6696  30.670  37.737   2.460
35168W        W 6697  26.855   0.455   0.956
35169W        W 6698  11.006  31.627  12.129
35170W        W 6699  16.744  33.935  11.607
35171W        W 6700  10.873  29.597  13.056
35172W        W 6701   9.058   0.777   4.467
35173W        W 6702   8.520  22.134   4.850
35174W        W 6703  36.993   7.637   0.911
35175W        W 6704  42.801  24.882   1.314
35176W        W 6705  25.488  40.410  14.009
35177W        W 6706  33.376  28.450  14.921
35178W        W 6707  24.374   2.867  14.656
35179W        W 6708  20.184  17.233  10.855
35180W        W 6709   4.751   8.651  14.504
35181W        W 6710  39.967  25.462   3.844
35182W        W 6711   4.647  39.462   1.256
35183W        W 6712  12.188  26.951  12.431
35184W        W 6713  27.512  23.945  13.376
35185W        W 6714   3.248  17.412  13.148
35186W        W 6715   4.772  12.309   2.685
35187W        W 6716  25.499  24.708  13.988
35188W        W 6717  41.316  14.797  10.927
35189W        W 6718  30.058   3.134  10.728
35190W        W 6719  24.626  11.819  11.569
35191W        W 6720   4.339  16.440   4.559
35192W        W 6721  31.370   1.449  10.682
35193W        W 6722   7.878   1.442   2.640
35194W        W 6723  15.639  30.950   0.546
35195W        W 6724  32.137  33.974  10.768
35196W        W 6725  30.612  27.009   4.612
35197W        W 6726  17.839  15.606  12.208
35198W        W 6727   8.928  24.000  13.421
35199W        W 6728  33.873  10.244  11.809
35200W        W 6729  25.224  13.576  14.350
35201W        W 6730  44.197  40.709  10.014
35202W        W 6731  20.683  22.245  13.564
35203W        W 6732   8.438  40.294   4.812
35204W        W 6733  23.915   3.981  11.625
35205W        W 6734  36.415   1.823  13.035
35206W        W 6735  24.623  39.357   4.241
35207W        W 6736  26.695  26.204  12.064
35208W        W 6737   7.173  23.981  12.987
35209W        W 6738  25.239  32.450   1.742
35210W        W 6739  44.800   1.373  13.948
35211W        W 6740  41.512  18.368  13.215
35212W        W 6741  38.487   4.800  12.133
35213W        W 6742  16.217  27.941   2.230
35214W        W 6743  23.236  20.066   0.900
35215W        W 6744   1.364   3.759   4.393
35216W        W 6745  32.893  28.408   3.138
35217W        W 6746  42.554  39.390   3.073
35218W        W 6747   2.430   4.686  11.912
35219W        W 6748  21.285  38.796   5.043
35220W        W 6749  42.022  43.288  11.025
35221W        W 6750   4.181   3.664  12.088
35222W        W 6751   6.372  33.000  11.973
35223W        W 6752  41.009  39.363   4.704
35224W        W 6753  12.173  15.690  10.319
35225W        W 6754  14.125  28.961   2.683
35226W        W 6755   6.823  44.422   3.101
35227W        W 6756  23.019   9.860  13.921
35228W        W 6757  43.411   9.288   0.622
35229W        W 6758  37.614  22.134   4.552
35230W        W 6759   7.700  14.550   1.424
35231W        W 6760  11.965  13.424  14.361
35232W        W 6761  15.092  41.622  11.835
35233W        W 6762  14.295  18.806  11.907
35234W        W 6763   4.185  10.579  11.359
35235W        W 6764  24.020  27.485  13.110
35236W        W 6765  19.197   0.787  12.909
35237W        W 6766  25.492  19.678  11.657
35238W        W 6767  28.231   0.254  12.953
35239W        W 6768   8.805  39.377   2.766
35240W        W 6769   8.845  10.143   2.817
35241W        W 6770  29.808  35.481  11.966
35242W        W 6771   6.849  31.092   3.846
35243W        W 6772  28.668  26.065  12.486
35244W        W 6773  26.266  11.704  13.035
35245W        W 6774   0.284  36.785   0.986
35246W        W 6775  34.388  28.822   2.692
35247W        W 6776  36.066   8.168  12.457
35248W        W 6777  38.110  16.522  14.821
35249W        W 6778   1.428  19.619  13.404
35250W        W 6779  34.933  21.834   4.122
35251W        W 6780  14.093   9.066   4.095
35252W        W 6781   5.241  39.959   4.569
35253W        W 6782   0.070  36.928  12.346
35254W        W 6783  33.606  27.347  12.415
35255W        W 6784  22.086  22.467  11.117
35256W        W 6785  44.931   6.242   2.584
35257W        W 6786   1.415   8.622  12.531
35258W        W 6787  28.940  40.515   0.085
35259W        W 6788  12.868   2.999   0.682
35260W        W 6789   9.847  39.877   3.734
35261W        W 6790  38.032  39.104   3.261
35262W        W 6791  15.736  38.775   2.808
35263W        W 6792  20.215  12.209  14.088
35264W        W 6793   8.074  27.669   3.793
35265W        W 6794   8.337  19.818  10.152
35266W        W 6795   4.703   2.415   2.498
35267W        W 6796   9.218  11.713   0.718
35268W        W 6797  23.814   3.225  12.900
35269W        W 6798  17.407  30.017   4.445
35270W        W 6799  14.634  29.520  12.415
35271W        W 6800  44.023  11.572  12.156
35272W        W 6801  20.179  29.632   1.751
35273W        W 6802   6.320   5.477   4.893
35274W        W 6803   9.279  27.123  12.830
35275W        W 6804  35.479  20.598  10.650
35276W        W 6805   5.303  16.421   0.464
35277W        W 6806  38.058  40.326   1.602
35278W        W 6807   4.242  41.037  12.434
35279W        W 6808  33.981  27.191  14.807
35280W        W 6809  35.151  26.052   0.749
35281W        W 6810  35.610  44.366  14.449
35282W        W 6811  34.527  33.702  12.862
35283W        W 6812  28.570  32.858   3.340
35284W        W 6813  34.423  25.630   4.930
35285W        W 6814  24.202   7.178   1.233
35286W        W 6815  13.393  42.447  10.556
35287W        W 6816  39.801  40.265   1.756
35288W        W 6817  44.883  39.919   0.795
35289W        W 6818  37.412   9.089   1.262
35290W        W 6819  20.411  37.889   4.182
35291W        W 6820   4.629  20.084   1.834
35292W        W 6821  19.536   8.119   0.541
35293W        W 6822  34.821   1.308   0.595
35294W        W 6823  17.561  18.632   3.307
35295W        W 6824  19.752  44.414  12.961
35296W        W 6825  25.514  34.542  14.392
35297W        W 6826  31.958   5.276  14.428
35298W        W 6827  20.693  10.442   1.685
35299W        W 6828   8.189  30.683   1.869
35300W        W 6829  27.697   4.003   1.832
35301W        W 6830  18.369  28.597   1.443
35302W        W 6831   8.906  29.653   4.099
35303W        W 6832  21.493   7.981   1.219
35304W        W 6833  14.335  16.600  14.014
35305W        W 6834  16.359  32.425  12.658
35306W        W 6835  39.018   3.147  12.964
35307W        W 6836  10.929  28.855   2.692
35308W        W 6837   9.855   2.378  11.699
35309W        W 6838   4.277   5.345  14.800
35310W        W 6839   1.984  44.256   4.737
35311W        W 6840   8.671  18.840   3.283
35312W        W 6841  15.969  22.254   0.916
35313W        W 6842  17.964   9.831  14.359
35314W        W 6843  38.353  13.857  14.773
35315W        W 6844  34.051   4.875  11.194
35316W        W 6845  31.141   5.831   1.757
35317W        W 6846   4.799  41.825  11.704
35318W        W 6847  10.625  20.030  14.312
35319W        W 6848  43.708  31.341  12.069
35320W        W 6849  34.389  43.196  12.112
35321W        W 6850   9.132  15.316   2.782
35322W        W 6851  13.689  36.489   1.339
35323W        W 6852  29.496  15.392  14.561
35324W        W 6853  22.570  39.358  11.436
35325W        W 6854  40.100  22.416   3.200
35326W        W 6855  27.244   9.120  13.841
35327W        W 6856  35.351   0.912  10.741
35328W        W 6857  18.919  33.811  13.458
35329W        W 6858  32.151  41.065   4.146
35330W        W 6859  21.171   8.117   4.130
35331W        W 6860  26.611  35.557  10.335
35332W        W 6861  26.908   3.980  13.828
35333W        W 6862  28.705  41.353  11.989
35334W        W 6863  21.067  35.140  11.002
35335W        W 6864  22.629  24.807  12.184
35336W        W 6865  19.039  20.291   3.765
35337W        W 6866  12.689  19.375   3.972
35338W        W 6867  41.085  19.907  13.872
35339W        W 6868  39.894  18.790   3.597
35340W        W 6869  37.823  31.028   2.664
35341W        W 6870  42.357  30.622   3.151
35342W        W 6871  12.099  24.095   3.572
35343W        W 6872   7.243  38.463   2.660
35344W        W 6873  28.431  20.515   1.715
35345W        W 6874  13.767   4.999  10.334
35346W        W 6875  29.535  31.574  11.620
35347W        W 6876  17.564  30.550   2.045
35348W        W 6877  41.975  44.922   0.405
35349W        W 6878   6.878  19.017   3.155
35350W        W 6879  16.789  35.220  11.178
35351W        W 6880  18.759  21.990  11.436
35352W        W 6881  23.168  17.565   1.286
35353W        W 6882  38.044  12.921  11.973
35354W        W 6883  26.356  10.257  12.021
35355W        W 6884  43.294  14.857  10.779
35356W        W 6885  11.783  28.944  10.719
35357W        W 6886  25.899  26.747   0.548
35358W        W 6887  34.518  39.097  14.424
35359W        W 6888  16.676  43.944   3.519
35360W        W 6889   0.236  16.559   1.956
35361W        W 6890  43.466  28.210  11.615
35362W        W 6891  16.200  19.321  10.658
35363W        W 6892   2.927  34.443  11.275
35364W        W 6893  44.336  37.639   3.866
35365W        W 6894  23.666  19.220  11.570
35366W        W 6895  14.414  29.001  13.114
35367W        W 6896   3.822  13.383  12.938
35368W        W 6897   0.281   7.270   4.135
35369W        W 6898  30.535  26.556  13.476
35370W        W 6899   7.727  20.218  11.617
35371W        W 6900  40.249  17.048   0.858
35372W        W 6901  27.352  14.184   3.561
35373W        W 6902  29.392  21.196  13.903
35374W        W 6903   4.306   5.951   3.800
35375W        W 6904  33.048  23.921   4.637
35376W        W 6905  42.182  43.818  12.066
35377W        W 6906   3.418  38.618   4.254
35378W        W 6907  29.381  10.285   0.761
35379W        W 6908  13.702  19.542   2.327
35380W        W 6909  22.073  25.498   4.650
35381W        W 6910  17.896  43.906  11.135
35382W        W 6911  30.989  43.881   0.254
35383W        W 6912   2.394  42.244   1.461
35384W        W 6913  43.558  20.526   1.487
35385W        W 6914   9.210  43.702   1.213
35386W        W 6915   9.968  28.386  11.158
35387W        W 6916  28.474  11.671  12.636
35388W        W 6917  24.150  35.797   4.530
35389W        W 6918   8.417  16.185   3.099
35390W        W 6919  38.105  12.622   4.593
35391W        W 6920   3.226  28.480   2.716
35392W        W 6921  27.989  37.480  13.150
35393W        W 6922  12.111   6.095  11.427
35394W        W 6923   4.031  14.278   2.608
35395W        W 6924  25.472   8.031  12.054
35396W        W 6925  25.118  41.274   4.489
35397W        W 6926  17.132   9.413  14.986
35398W        W 6927  43.604  20.744   0.308
35399W        W 6928  30.920   2.968   4.171
35400W        W 6929  31.526  40.454   1.347
35401W        W 6930  38.996  30.857  13.505
35402W        W 6931  14.547  28.549  13.334
35403W        W 6932  27.657  38.634  13.489
35404W        W 6933  29.012  23.736   2.353
35405W        W 6934  34.290   0.679   3.171
35406W        W 6935  15.023   6.715  10.265
35407W        W 6936  14.248  39.418   0.231
35408W        W 6937  12.011  41.130   0.674
35409W        W 6938  26.249  41.938   4.043
35410W        W 6939   1.689  30.976  10.978
35411W        W 6940  20.149  11.728  14.362
35412W        W 6941  15.281  17.383  10.977
35413W        W 6942  21.180  34.004   1.856
35414W        W 6943  13.094   0.296  12.071
35415W        W 6944  29.175  42.382  10.650
35416W        W 6945  33.575  20.907   3.148
35417W        W 6946  39.035  14.290   4.169
35418W        W 6947  32.027  16.561   5.076
35419W        W 6948  12.665   5.403   4.525
35420W        W 6949  14.246  34.799  11.908
35421W        W 6950  37.819   9.418   3.625
35422W        W 6951   1.901  12.386   3.261
35423W        W 6952   3.473  34.660   1.215
35424W        W 6953  35.317  39.266   2.511
35425W        W 6954   8.189  15.959   0.409
35426W        W 6955  33.527  14.727  11.957
35427W        W 6956  27.927  38.829  11.174
35428W        W 6957  34.786   1.465   4.669
35429W        W 6958   7.154  14.499  11.116
35430W        W 6959  37.149   8.243  13.580
35431W        W 6960  23.671  18.264   3.296
35432W        W 6961   0.328  20.771  11.183
35433W        W 6962  18.107   0.475   0.765
35434W        W 6963  26.700  35.376  12.071
35435W        W 6964   2.962  27.132   4.258
35436W        W 6965  29.551   8.988   2.668
35437W        W 6966  21.150  17.314   4.477
35438W        W 6967  18.130  15.161  14.934
35439W        W 6968  26.164  34.033   4.689
35440W        W 6969  19.947  43.095  12.774
35441W        W 6970  29.360  24.369   2.890
35442W        W 6971  11.725  10.567  13.974
35443W        W 6972  39.787  17.606  13.607
35444W        W 6973  39.712  18.692   2.783
35445W        W 6974  28.989  15.396   3.226
35446W        W 6975  39.859   2.113  14.533
35447W        W 6976  23.526  31.120   4.265
35448W        W 6977  16.929  22.696  14.351
35449W        W 6978  16.574  28.022  10.935
35450W        W 6979  19.614  35.398  11.481
35451W        W 6980  25.050  15.114   2.417
35452W        W 6981  18.524  44.378  14.328
35453W        W 6982   9.732   5.212  12.038
35454W        W 6983  23.087  15.302   3.687
35455W        W 6984  38.114  22.633   1.859
35456W        W 6985  32.203  18.005  12.351
35457W        W 6986   9.594  19.348   2.202
35458W        W 6987  17.050  34.888  12.406
35459W        W 6988  29.920   3.673  12.141
35460W        W 6989  43.802  40.448   2.208
35461W        W 6990   0.108  37.625  13.873
35462W        W 6991  23.758  25.040   0.248
35463W        W 6992  21.474  26.109   2.198
35464W        W 6993  10.618  43.292  14.450
35465W        W 6994   6.712  41.230  10.631
35466W        W 6995  40.742  22.134  13.474
35467W        W 6996  31.430  24.446  12.124
35468W        W 6997  29.605   5.136   1.246
35469W        W 6998  18.186  23.415   1.939
35470W        W 6999  21.225  19.226  13.816
35471W        W 7000   5.860  42.452   4.087
35472W        W 7001  14.060   0.865  13.441
35473W        W 7002  24.136  27.005  11.661
35474W        W 7003  13.403  38.558  14.867
35475W        W 7004  30.572  27.067   0.307
35476W        W 7005  40.358   7.406   1.507
35477W        W 7006  30.540  44.087  13.047
35478W        W 7007  16.023  26.274  13.065
35479W        W 7008   5.233  29.387  13.386
35480W        W 7009   3.196  18.200   4.356
35481W        W 7010  31.251  23.705  11.122
35482W        W 7011   2.946  26.761   0.339
35483W        W 7012   9.893   7.217  10.036
35484W        W 7013  13.707  20.753   4.276
35485W        W 7014   7.720  17.048   1.232
35486W        W 7015   3.543  21.496  13.426
35487W        W 7016  34.863  28.472   1.401
35488W        W 7017  31.667  21.688  13.872
35489W        W 7018   8.958  23.791   2.313
35490W        W 7019  10.134  43.057   2.588
35491W        W 7020   0.910  43.758  13.929
35492W        W 7021  21.135  16.573   1.460
35493W        W 7022  26.438  28.482  12.043
35494W        W 7023   8.171   2.989   0.808
35495W        W 7024  24.140  14.583  13.389
35496W        W 7025  24.247  29.084   3.646
35497W        W 7026  38.544  38.126   2.896
35498W        W 7027   5.377  43.464  14.191
35499W        W 7028  20.287   1.365   2.881
35500W        W 7029  43.293   0.873   4.113
35501W        W 7030  16.032  21.070   0.470
35502W        W 7031  19.963   6.503  14.425
35503W        W 7032  16.036  41.307  13.487
35504W        W 7033  27.934  39.763  13.111
35505W        W 7034  43.084  32.027   2.943
35506W        W 7035  20.701   6.113   1.929
35507W        W 7036   2.750  27.859   3.267
35508W        W 7037  23.421  32.443  11.803
35509W        W 7038  32.865  42.082   3.318
35510W        W 7039   2.310  34.096   0.013
35511W        W 7040  27.678  41.364  11.757
35512W        W 7041  18.024  35.161  11.172
35513W        W 7042   2.536  22.599   4.533
35514W        W 7043   5.204   1.241  11.057
35515W        W 7044  26.057   5.331   2.726
35516W        W 7045  39.569  42.927  10.490
35517W        W 7046   2.541  12.825   0.853
35518W        W 7047   5.392   4.911  12.928
35519W        W 7048  31.652   0.671  12.611
35520W        W 7049  42.758  17.231   1.240
35521W        W 7050  19.943  41.772   0.959
35522W        W 7051  24.437  29.645   2.858
35523W        W 7052   1.487  44.043   0.796
35524W        W 7053  29.079  13.102  12.604
35525W        W 7054  12.140   8.364   4.168
35526W        W 7055  42.975  35.101   2.231
35527W        W 7056  32.481  20.832  11.671
35528W        W 7057  27.579  19.006  10.812
35529W        W 7058   9.089  11.833   3.402
35530W        W 7059  34.978  43.381  11.156
35531W        W 7060  20.898   3.362   3.418
35532W        W 7061  15.113  38.101  11.957
35533W        W 7062  41.937   9.729  13.486
35534W        W 7063  14.742  17.243  12.623
35535W        W 7064  10.203  19.320  11.630
35536W        W 7065  26.114  11.246  14.106
35537W        W 7066  35.411  10.223  11.652
35538W        W 7067   7.036  19.556  12.748
35539W        W 7068  40.303   4.788  10.039
35540W        W 7069  39.480   7.787   4.133
35541W        W 7070  15.170  38.946   1.245
35542W        W 7071   6.902  21.227  14.596
35543W        W 7072  10.384  31.317  11.548
35544W        W 7073  28.473  44.115  12.511
35545W        W 7074   8.348  18.306   3.897
35546W        W 7075  34.793   5.721  12.411
35547W        W 7076   2.675  32.386  10.368
35548W        W 7077  19.038  32.471   0.493
35549W        W 7078  34.430  29.145  13.750
35550W        W 7079  23.752  11.645   1.915
35551W        W 7080  21.634  39.001  11.555
35552W        W 7081  23.699  15.887  10.361
35553W        W 7082  27.809  10.016   2.937
35554W        W 7083  13.316  44.534   1.307
35555W        W 7084  33.055   2.762  13.354
35556W        W 7085  39.813  12.289   1.414
35557W        W 7086  35.965  15.287  13.904
35558W        W 7087   4.601  20.186  13.839
35559W        W 7088  33.441  24.632   2.687
35560W        W 7089  32.999  35.413  12.530
35561W        W 7090  15.942  43.897   1.359
35562W        W 7091  28.230  38.897  10.704
35563W        W 7092  29.004  32.032  11.912
35564W        W 7093  28.237  36.442  12.969
35565W        W 7094  12.445  11.583   4.482
35566W        W 7095   8.270  31.972  14.234
35567W        W 7096  20.523  37.591   3.388
35568W        W 7097  27.056  31.582  10.538
35569W        W 7098   4.048  43.990   1.570
35570W        W 7099  21.395  44.977  11.436
35571W        W 7100  41.320  10.774  11.664
35572W        W 7101  10.183  12.699  14.263
35573W        W 7102  42.948   9.131   4.942
35574W        W 7103  17.682   8.278   3.916
35575W        W 7104  16.506  13.167  11.449
35576W        W 7105  18.548  42.664   1.381
35577W        W 7106   1.828  23.132   2.860
35578W        W 7107  38.884  29.458   4.716
35579W        W 7108  26.011  17.714   4.437
35580W        W 7109  25.124   7.839  12.371
35581W        W 7110  12.376  29.964   0.252
35582W        W 7111  25.963  31.424   4.690
35583W        W 7112   2.511  34.988  14.988
35584W        W 7113  39.282  12.794  14.857
35585W        W 7114  20.335  23.193  13.392
35586W        W 7115  18.780   4.811  10.669
35587W        W 7116  41.414  42.931  13.779
35588W        W 7117  22.985  24.434  12.064
35589W        W 7118  42.384  29.648  12.599
35590W        W 7119  15.537  29.520   2.399
35591W        W 7120  19.990  37.994   1.929
35592W        W 7121  14.776  35.730  13.459
35593W        W 7122   7.487  35.536   0.923
35594W        W 7123  17.035  22.652   4.826
35595W        W 7124  42.563  43.387  11.889
35596W        W 7125  22.279  26.565   2.396
35597W        W 7126  39.348  18.808  14.964
35598W        W 7127  33.096  17.251  14.773
35599W        W 7128   3.406  43.159   4.291
35600W        W 7129  27.062  25.344  12.140
35601W        W 7130   3.438  33.000  13.492
35602W        W 7131  16.175  26.088   2.475
35603W        W 7132  17.216  26.475  12.067
35604W        W 7133  34.850  12.157   1.354
35605W        W 7134  30.457  18.571   4.214
35606W        W 7135  37.535   5.371   1.611
35607W        W 7136   1.376  13.649  14.405
35608W        W 7137   3.214  24.446   3.545
35609W        W 7138  22.937   0.964  14.305
35610W        W 7139  32.641  31.036  13.332
35611W        W 7140  29.499  10.263   2.574
35612W        W 7141   1.197  10.926  12.605
35613W        W 7142  40.576  44.558   1.130
35614W        W 7143   1.472  34.552  14.053
35615W        W 7144  32.130  10.384   4.192
35616W        W 7145  43.399  11.735   4.036
35617W        W 7146  28.200  34.498  11.443
35618W        W 7147   3.251  11.780   2.254
35619W        W 7148  10.931  33.963   4.552
35620W        W 7149   5.927  39.441  14.152
35621W        W 7150   3.503  31.099   4.533
35622W        W 7151   5.366  35.728  13.473
35623W        W 7152   7.877  37.509  13.465
35624W        W 7153  43.884  29.672  10.673
35625W        W 7154  24.362  15.509   4.176
35626W        W 7155   6.305  16.765  12.438
35627W        W 7156  37.334  32.924  13.007
35628W        W 7157  26.351  17.742   0.794
35629W        W 7158  43.391   4.515  12.672
35630W        W 7159  18.241  15.154   2.931
35631W        W 7160  24.909   1.378  11.473
35632W        W 7161  17.062  40.662   2.301
35633W        W 7162  32.046  25.064   4.087
35634W        W 7163  28.158  14.011  13.402
35635W        W 7164   1.828  10.569  14.793
35636W        W 7165  34.169  11.611   2.928
35637W        W 7166  26.573  11.949  11.505
35638W        W 7167  26.730  41.555  14.087
35639W        W 7168  24.593   1.891  12.244
35640W        W 7169  31.209  20.333   2.107
35641W        W 7170  33.331   1.358   0.795
35642W        W 7171  32.417  31.018  12.430
35643W        W 7172  20.948  27.049   2.294
35644W        W 7173  42.786  26.928   1.192
35645W        W 7174  40.373  42.604   3.021
35646W        W 7175   3.300  29.377   3.193
35647W        W 7176  23.159  44.781  13.001
35648W        W 7177  17.333  25.146   0.397
35649W        W 7178  25.066  18.856  13.422
35650W        W 7179  43.087  36.178  11.515
35651W        W 7180  41.500  20.752  14.954
35652W        W 7181  13.839  12.558   2.596
35653W        W 7182  20.979  29.085  13.876
35654W        W 7183  34.391  40.466  11.120
35655W        W 7184  43.632  22.075  12.503
35656W        W 7185  37.620   1.041  11.905
35657W        W 7186  33.462  30.192  12.854
35658W        W 7187  12.895  10.327  13.480
35659W        W 7188   2.243  44.972   0.002
35660W        W 7189   1.330  22.079   2.425
35661W        W 7190  37.812   8.283   1.506
35662W        W 7191   7.787  17.926   2.194
35663W        W 7192  19.522  19.620   4.145
35664W        W 7193  13.433   8.670   4.885
35665W        W 7194  24.155  44.721  13.069
35666W        W 7195  30.483  42.288   2.649
35667W        W 7196   7.378  10.306   2.408
35668W        W 7197  38.610  31.500   0.962
35669W        W 7198  33.924  24.723  12.372
35670W        W 7199  27.426  34.549   3.528
35671W        W 7200  23.410  32.134   2.338
35672W        W 7201  42.479  27.103  10.333
35673W        W 7202  38.317  13.236  11.611
35674W        W 7203  37.734  27.333   2.139
35675W        W 7204  11.652  23.527  14.397
35676W        W 7205   7.633   8.300  14.028
35677W        W 7206  17.120  17.008   4.146
35678W        W 7207   4.455  42.292  12.056
35679W        W 7208  15.550  17.674  14.332
35680W        W 7209  16.718  22.113   0.674
35681W        W 7210  34.850  16.580  13.516
35682W        W 7211   7.157   5.694  11.258
35683W        W 7212   8.328  29.602   4.655
35684W        W 7213  10.350  39.390  14.290
35685W        W 7214  14.900  21.473  11.478
35686W        W 7215  19.716  25.309  12.178
35687W        W 7216  13.594  44.882   2.081
35688W        W 7217  43.841  21.099  12.341
35689W        W 7218  23.140   7.993   0.862
35690W        W 7219  19.324  25.024   4.209
35691W        W 7220   5.505  18.463   3.580
35692W        W 7221  29.913   4.502   4.895
35693W        W 7222  42.777   2.406   1.883
35694W        W 7223   7.564  12.207  11.614
35695W        W 7224  30.140  12.861  12.449
35696W        W 7225  19.240  25.715   3.128
35697W        W 7226   0.937  42.893  11.197
35698W        W 7227  26.501   0.254  14.411
35699W        W 7228  43.282  34.573  14.894
35700W        W 7229  22.262  10.768  12.177
35701W        W 7230  24.186  39.123  10.993
35702W        W 7231  43.446  32.375   0.232
35703W        W 7232  38.375   7.440   0.283
35704W        W 7233  12.171  13.096  13.537
35705W        W 7234  42.104  15.614  12.528
35706W        W 7235  42.526  40.116   2.277
35707W        W 7236  12.306  17.307  11.115
35708W        W 7237  19.067   4.259  13.439
35709W        W 7238  11.827  31.576  12.403
35710W        W 7239   1.611   1.997   3.176
35711W        W 7240   9.229   9.213   0.322
35712W        W 7241   1.795  23.558  11.173
35713W        W 7242  37.700  12.218   3.726
35714W        W 7243  10.379  41.923   4.111
35715W        W 7244  39.562  20.059   0.421
35716W        W 7245  16.090  21.137   4.050
35717W        W 7246   4.348   8.363   1.972
35718W        W 7247  39.334  30.789   3.109
35719W        W 7248  29.600  35.548   4.848
35720W        W 7249  19.883  20.002   4.200
35721W        W 7250  36.602  19.751   0.009
35722W        W 7251  21.679  34.903   4.611
35723W        W 7252   3.323  20.123   3.456
35724W        W 7253  34.293  31.902   2.225
35725W        W 7254  29.422  30.540  13.377
35726W        W 7255  28.042  37.271  14.570
35727W        W 7256  27.636   0.883   3.838
35728W        W 7257  22.375  24.714   4.039
35729W        W 7258  21.944  12.347   1.466
35730W        W 7259  26.127  32.005  12.231
35731W        W 7260  12.997  14.416  11.184
35732W        W 7261   5.649  44.328   2.774
35733W        W 7262   3.253   5.793  12.494
35734W        W 7263   3.556  31.950  14.040
35735W        W 7264   9.934  26.655  14.504
35736W        W 7265  23.986  20.192  14.393
35737W        W 7266  14.796  14.295  13.009
35738W        W 7267  42.032  35.801  12.939
35739W        W 7268   3.751   4.997  14.823
35740W        W 7269   5.572  36.405  11.464
35741W        W 7270   6.406  13.298  12.111
35742W        W 7271  29.530  34.867  14.274
35743W        W 7272  11.734  33.396   1.555
35744W        W 7273  36.433  28.071   3.679
35745W        W 7274  41.410   0.863   4.595
35746W        W 7275  33.525  31.784  11.710
35747W        W 7276  27.715  14.036   0.247
35748W        W 7277  43.858  24.160   2.612
35749W        W 7278   1.743  41.351   4.689
35750W        W 7279  31.750  17.028  14.873
35751W        W 7280  29.789  36.980  13.442
35752W        W 7281  19.133  29.643   2.687
35753W        W 7282  43.795  13.999   2.237
35754W        W 7283  24.592  27.180   1.332
35755W        W 7284  26.602   5.502   3.403
35756W        W 7285  42.557   8.823   4.821
35757W        W 7286   0.059   4.193   0.915
35758W        W 7287   2.644  43.675  10.732
35759W        W 7288  16.999  30.750   0.335
35760W        W 7289  38.560  20.739  10.659
35761W        W 7290  25.906  17.310  12.985
35762W        W 7291  26.497   5.002   2.621
35763W        W 7292   5.821   2.007   0.146
35764W        W 7293   3.915   7.380   3.790
35765W        W 7294  41.594  12.198  10.589
35766W        W 7295  30.780  26.469   2.601
35767W        W 7296   6.696  40.677   1.952
35768W        W 7297  17.375  15.345   5.097
35769W        W 7298  23.027  34.903  14.279
35770W        W 7299  38.686  43.345  10.541
35771W        W 7300  23.161  14.605  10.615
35772W        W 7301  19.671  40.096  12.923
35773W        W 7302  40.334  37.584   2.292
35774W        W 7303  15.219  34.184  12.976
35775W        W 7304  11.326  24.247  12.929
35776W        W 7305  20.907  26.970   4.578
35777W        W 7306  32.466  30.184   4.190
35778W        W 7307   4.362   3.455  10.153
35779W        W 7308  18.812  25.144  14.291
35780W        W 7309  19.145  11.159   4.191
35781W        W 7310   4.290  13.820  11.665
35782W        W 7311  25.390  43.136   2.674
35783W        W 7312  42.935  29.159   4.564
35784W        W 7313  11.634  23.254  12.025
35785W        W 7314  11.652  28.139  14.234
35786W        W 7315   8.111   8.301   1.482
35787W        W 7316  37.041  10.628  14.952
35788W        W 7317  24.397  19.551  13.037
35789W        W 7318  26.752  18.165   2.185
35790W        W 7319  38.493  24.689  11.146
35791W        W 7320  24.280  10.387  12.438
35792W        W 7321  17.608  36.354   0.783
35793W        W 7322  38.432  40.631   0.445
35794W        W 7323   7.350  38.467  14.950
35795W        W 7324  41.559  25.599  12.582
35796W        W 7325   3.337  28.929   2.914
35797W        W 7326  36.057  29.650   0.978
35798W        W 7327  43.501  27.548   2.753
35799W        W 7328   3.765  31.949   2.284
35800W        W 7329  36.553  35.334   3.203
35801W        W 7330  22.581  35.496  13.813
35802W        W 7331   2.675   6.603  13.910
35803W        W 7332  26.977  16.786  11.411
35804W        W 7333  27.379   0.800  10.372
35805W        W 7334  36.939  24.911   1.812
35806W        W 7335  44.911   1.264   0.928
35807W        W 7336  18.804  13.767  13.465
35808W        W 7337  10.104  33.557   4.062
35809W        W 7338  16.597  26.302  14.273
35810W        W 7339  12.872  12.832   3.847
35811W        W 7340   1.140  34.238  10.781
35812W        W 7341   2.778  20.085   1.459
35813W        W 7342   5.574  39.303   0.059
35814W        W 7343   9.766  29.469  12.487
35815W        W 7344  40.548  27.464   4.261
35816W        W 7345  14.056  10.545   3.186
35817W        W 7346  15.765   6.711  13.975
35818W        W 7347  22.716   8.332   0.885
35819W        W 7348  34.893  16.178  11.712
35820W        W 7349   8.822  27.940   2.337
35821W        W 7350   1.829  30.304   1.670
35822W        W 7351  38.403  19.717   3.398
35823W        W 7352  30.703   4.833   2.465
35824W        W 7353  16.536  26.024  14.699
35825W        W 7354   3.195   6.632  11.986
35826W        W 7355  44.838  31.065   4.596
35827W        W 7356  39.724  16.228   3.730
35828W        W 7357  16.904  40.334  12.138
35829W        W 7358  17.301  37.147  10.569
35830W        W 7359  43.067  42.802  14.447
35831W        W 7360  18.673  24.598  11.294
35832W        W 7361  19.322  38.622  14.463
35833W        W 7362   7.819   8.658  11.717
35834W        W 7363   0.218  35.028  12.510
35835W        W 7364  33.404  15.079  13.166
35836W        W 7365  34.950  29.004  10.701
35837W        W 7366  23.316  24.651  13.395
35838W        W 7367  11.006   9.313   4.364
35839W        W 7368  38.760  31.477   4.730
35840W        W 7369   8.911  32.590   0.911
35841W        W 7370  32.373  34.451  10.726
35842W        W 7371  16.995  24.256   2.750
35843W        W 7372   1.408   0.981  14.962
35844W        W 7373   2.736  38.773  11.526
35845W        W 7374   9.111  23.440  10.494
35846W        W 7375   3.514   4.949   4.768
35847W        W 7376  21.299  42.812   4.093
35848W        W 7377  10.692   7.521  14.021
35849W        W 7378  37.484  33.462   1.200
35850W        W 7379  26.441   7.207  12.364
35851W        W 7380   4.244  43.232  11.464
35852W        W 7381  22.766  10.741   4.463
35853W        W 7382  19.124   9.426   2.293
35854W        W 7383  21.571  34.028  14.285
35855W        W 7384  24.270   5.271   4.481
35856W        W 7385  13.983  37.279   3.191
35857W        W 7386  11.312  29.478   1.262
35858W        W 7387  28.682  37.825  14.973
35859W        W 7388  36.937  37.149   1.110
35860W        W 7389  27.382  42.794   1.777
35861W        W 7390  37.073   7.669  13.884
35862W        W 7391  19.283   2.507   3.222
35863W        W 7392  28.443  41.969   3.361
35864W        W 7393  40.874  20.655  10.646
35865W        W 7394   2.776  22.166   3.805
35866W        W 7395   9.259   3.216  11.565
35867W        W 7396  34.638  35.685   4.871
35868W        W 7397  38.787  20.683  12.520
35869W        W 7398  17.647  23.011  11.620
35870W        W 7399  35.448  21.522  11.635
35871W        W 7400  17.069   7.431  12.036
35872W        W 7401  14.809  36.193  10.840
35873W        W 7402  33.996  36.181  13.797
35874W        W 7403  29.099  29.394  12.103
35875W        W 7404   5.985   1.024  12.363
35876W        W 7405  20.263  35.549   4.098
35877W        W 7406  21.640  42.781  11.451
35878W        W 7407   3.966   6.530  11.595
35879W        W 7408  32.393  21.484   1.442
35880W        W 7409  22.139   1.548   1.472
35881W        W 7410  37.634  44.932  11.574
35882W        W 7411  12.560   7.455   0.354
35883W        W 7412   9.913  34.514   4.015
35884W        W 7413  24.339  11.757   4.631
35885W        W 7414   8.890  28.441  14.927
35886W        W 7415  42.394  28.559  11.294
35887W        W 7416  39.946  37.466  11.384
35888W        W 7417   1.927  23.629   2.761
35889W        W 7418   6.005  10.338  12.056
35890W        W 7419  20.570   8.620  10.497
35891W        W 7420  28.460  35.603  13.847
35892W        W 7421  22.202  44.141   0.479
35893W        W 7422  39.784  17.079  12.534
35894W        W 7423  17.812  11.895  13.879
35895W        W 7424   0.332  33.409  11.323
35896W        W 7425  25.950  22.057   3.132
35897W        W 7426  23.664  35.744  12.561
35898W        W 7427  42.336   6.294  12.332
35899W        W 7428  14.654  20.522  11.172
35900W        W 7429   8.952  36.119  12.023
35901W        W 7430  38.529  14.261   2.106
35902W        W 7431  15.289  22.688   3.367
35903W        W 7432   7.672   5.804  14.460
35904W        W 7433  33.110   7.840  10.836
35905W        W 7434  15.823   9.117   3.512
35906W        W 7435  31.445  12.449   2.591
35907W        W 7436  26.714  43.970  13.963
35908W        W 7437   3.046   8.269  12.483
35909W        W 7438  10.528  43.000   1.243
35910W        W 7439  19.773  41.930  11.292
35911W        W 7440  15.538  16.854  11.603
35912W        W 7441  32.144  44.410   3.368
35913W        W 7442  15.308  39.987  10.738
35914W        W 7443  28.022   1.392   4.183
35915W        W 7444  10.330  10.742  11.622
35916W        W 7445  25.247  44.541   0.728
35917W        W 7446  38.477   7.680  13.843
35918W        W 7447   8.867  13.762   4.757
35919W        W 7448  42.542  22.149   1.108
35920W        W 7449  27.979  23.412   1.698
35921W        W 7450  24.852  12.180  12.491
35922W        W 7451   0.426  10.492  13.309
35923W        W 7452  35.887  33.163   3.231
35924W        W 7453  25.248  42.361  14.898
35925W        W 7454  30.141  11.447   3.191
35926W        W 7455  32.396   8.657   0.914
35927W        W 7456   7.992  44.510  14.918
35928W        W 7457  38.684  24.355   4.220
35929W        W 7458  19.213  33.726  14.164
35930W        W 7459  22.583  36.289  13.409
35931W        W 7460  33.026   8.339  12.537
35932W        W 7461  24.535  21.349  12.590
35933W        W 7462  19.804   4.756   2.876
35934W        W 7463  22.714  41.172   3.205
35935W        W 7464  17.336  16.645   4.878
35936W        W 7465  21.002   9.625   3.176
35937W        W 7466   0.877   3.231   0.995
35938W        W 7467  24.166   6.132   1.375
35939W        W 7468  42.483  19.562   4.088
35940W        W 7469   6.639  30.682  12.417
35941W        W 7470   9.794   7.812  13.832
35942W        W 7471   9.878  16.841   3.751
35943W        W 7472  22.680  26.880   1.818
35944W        W 7473  20.959  25.854   2.723
35945W        W 7474   0.884  44.937  12.594
35946W        W 7475  37.933  14.308   1.396
35947W        W 7476  39.000   2.205   0.930
35948W        W 7477  13.351  25.240  14.078
35949W        W 7478   6.219   6.964   0.797
35950W        W 7479  44.432  34.082   1.815
35951W        W 7480   1.721  10.303   4.821
35952W        W 7481  16.206  39.532   1.434
35953W        W 7482  43.832  21.042  12.847
35954W        W 7483  21.577  28.203   3.622
35955W        W 7484  38.061  12.296  11.559
35956W        W 7485  34.412  36.973   3.876
35957W        W 7486  30.649  25.621  13.860
35958W        W 7487  25.148  33.223  12.384
35959W        W 7488  20.919   2.672  14.739
35960W        W 7489  40.106  39.541  12.512
35961W        W 7490  39.764  30.882   1.253
35962W        W 7491   5.839   4.884  12.034
35963W        W 7492  20.365  28.803   2.045
35964W        W 7493  32.421  34.269   2.309
35965W        W 7494  44.868  18.888   1.883
35966W        W 7495  27.799  36.585  10.373
35967W        W 7496  42.954  15.727   2.758
35968W        W 7497  12.701  39.421   2.633
35969W        W 7498  34.379  14.773   2.404
35970W        W 7499  36.316   9.201   2.226
35971W        W 7500  15.306  16.225   0.748
35972W        W 7501  28.769  13.007   3.690
35973W        W 7502  33.357   7.997   0.440
35974W        W 7503  23.034  41.958   3.542
35975W        W 7504  21.546   9.213  12.869
35976W        W 7505  12.105   7.429  12.642
35977W        W 7506  26.097  36.617   0.263
35978W        W 7507  24.178  23.466  10.751
35979W        W 7508  24.518   4.375   2.209
35980W        W 7509   2.681  30.865  13.440
35981W        W 7510  34.911  11.295   3.643
35982W        W 7511  32.319  42.823   2.259
35983W        W 7512  41.846   0.190  11.784
35984W        W 7513  27.540  37.471  14.517
35985W        W 7514   0.233   9.407   0.872
35986W        W 7515  35.520  39.227  14.064
35987W        W 7516  35.595  14.744   4.575
35988W        W 7517  20.273  17.724  11.918
35989W        W 7518  23.483  25.920   3.024
35990W        W 7519   5.199  34.544  13.839
35991W        W 7520  38.568   1.267  13.887
35992W        W 7521  39.478  29.595  11.804
35993W        W 7522   7.097  42.035   0.892
35994W        W 7523  20.541  26.645   4.382
35995W        W 7524  19.832   6.951  14.608
35996W        W 7525  36.981  30.010  13.271
35997W        W 7526  19.848  38.415   1.664
35998W        W 7527  34.821   2.701  13.171
35999W        W 7528  10.254  25.532   0.765
36000W        W 7529  13.106   1.760  12.158
36001W        W 7530  21.927  10.966   4.233
36002W        W 7531   9.293  17.879   4.136
36003W        W 7532  29.570  30.162  13.055
36004W        W 7533  39.234   9.455   3.755
36005W        W 7534  10.638  11.814  12.453
36006W        W 7535  11.382  25.930  10.757
36007W        W 7536  30.001  39.611  13.894
36008W        W 7537  20.060  22.507   3.327
36009W        W 7538  23.580  44.369   0.463
36010W        W 7539  39.540   2.156  12.400
36011W        W 7540  33.901  22.050   4.252
36012W        W 7541  37.059  43.291   1.864
36013W        W 7542  14.230  13.376   2.841
36014W        W 7543  26.970  29.329  12.996
36015W        W 7544  36.731  23.737  12.010
36016W        W 7545  18.596   1.476  14.246
36017W        W 7546   7.570  22.525  14.001
36018W        W 7547  41.311  14.005   5.068
36019W        W 7548  16.840  11.859   4.203
36020W        W 7549  29.195   3.905   3.832
36021W        W 7550  11.794  28.662  14.241
36022W        W 7551   4.785  28.047  13.560
36023W        W 7552  28.612  24.634  14.743
36024W        W 7553  31.203   3.142  11.549
36025W        W 7554  44.389  12.347   2.543
36026W        W 7555  22.890  39.779  11.622
36027W        W 7556  24.661  28.582  14.370
36028W        W 7557  13.750  37.595  13.739
36029W        W 7558   5.591  24.325  11.576
36030W        W 7559  31.409  30.627   2.846
36031W        W 7560  13.221  39.610   2.854
36032W        W 7561  34.515  30.951  11.784
36033W        W 7562   4.924  13.255  10.658
36034W        W 7563  43.271  10.804   1.798
36035W        W 7564  25.885  16.111  12.365
36036W        W 7565  20.528   2.683  11.954
36037W        W 7566  34.033  11.829   0.998
36038W        W 7567  27.747  32.099  11.071
36039W        W 7568  25.271   6.676   1.896
36040W        W 7569   5.275  23.976   0.905
36041W        W 7570  32.561  27.222   0.006
36042W        W 7571  37.861  13.319   1.291
36043W        W 7572  13.668  24.618   3.145
36044W        W 7573  15.268  17.105   0.413
36045W        W 7574  27.924   6.223   5.024
36046W        W 7575   5.131  12.796  14.859
36047W        W 7576   5.033  19.973   1.528
36048W        W 7577   8.867  13.230   0.002
36049W        W 7578   9.882  44.233  12.217
36050W        W 7579  16.541   6.990  13.521
36051W        W 7580  32.190  20.014  11.603
36052W        W 7581  10.385  30.692   2.781
36053W        W 7582  42.344  37.056   4.399
36054W        W 7583  39.887  31.648  12.037
36055W        W 7584  25.747  25.701  14.974
36056W        W 7585  12.433   5.891   0.913
36057W        W 7586  16.175  38.401   2.200
36058W        W 7587  28.620  11.168   1.270
36059W        W 7588  14.281  40.624   3.847
36060W        W 7589  37.777  42.303   4.862
36061W        W 7590  11.078  41.746   2.437
36062W        W 7591  25.656  23.152  14.012
36063W        W 7592  10.361  35.409  10.795
36064W        W 7593  19.998  25.530   4.103
36065W        W 7594  43.841  18.336  11.378
36066W        W 7595  29.867  22.638  10.766
36067W        W 7596  15.623  18.790  14.818
36068W        W 7597  34.413  25.523  13.033
36069W        W 7598  12.703  36.925   4.649
36070W        W 7599  23.228  41.024   3.394
36071W        W 7600  29.717  26.682  10.644
36072W        W 7601   6.881  23.557   1.262
36073W        W 7602  33.601  31.595   1.170
36074W        W 7603  38.480  24.748   4.470
36075W        W 7604  15.791  35.670  12.365
36076W        W 7605  11.340  40.503   4.922
36077W        W 7606   6.847  13.203   3.754
36078W        W 7607  19.240  25.576   2.612
36079W        W 7608  34.203  42.882  11.149
36080W        W 7609  38.041  39.391  14.363
36081W        W 7610   3.950   2.971  12.516
36082W        W 7611  20.675  22.301   3.889
36083W        W 7612  41.520  38.177   1.792
36084W        W 7613  18.828   7.732   4.979
36085W        W 7614  25.694  43.306   3.830
36086W        W 7615  41.198  15.808   1.780
36087W        W 7616  20.979  29.558  14.696
36088W        W 7617  44.397  34.617  10.963
36089W        W 7618  14.859  23.677  13.640
36090W        W 7619   6.272  31.608  12.997
36091W        W 7620   9.304  20.645  10.600
36092W        W 7621  15.831  21.592  14.213
36093W        W 7622   6.931  36.143   0.964
36094W        W 7623  25.948  11.366   1.399
36095W        W 7624  30.742  21.970  14.924
36096W        W 7625   2.127  35.180  12.014
36097W        W 7626   8.794  44.672  12.089
36098W        W 7627  25.630  39.486   4.591
36099W        W 7628  33.170   2.361  14.339
36100W        W 7629   4.859  27.674  10.192
36101W        W 7630  16.400  37.944  12.857
36102W        W 7631  32.026   9.663  11.592
36103W        W 7632  10.990  28.581   4.472
36104W        W 7633  43.886  15.015   2.185
36105W        W 7634  30.973  12.831   4.111
36106W        W 7635   7.645  44.855   0.103
36107W        W 7636  40.406  17.199   4.502
36108W        W 7637  37.875   4.834   3.711
36109W        W 7638   7.643  15.213   2.738
36110W        W 7639  20.117  33.401  11.528
36111W        W 7640  20.727  27.504  14.963
36112W        W 7641  28.503  44.061   0.853
36113W        W 7642  31.954  43.439  12.083
36114W        W 7643   1.046  13.596  12.924
36115W        W 7644  29.883  19.684   2.282
36116W        W 7645  27.474  43.431   0.499
36117W        W 7646  15.831  21.004  12.454
36118W        W 7647  10.334  15.892  11.249
36119W        W 7648   3.509   8.686  11.224
36120W        W 7649  42.877  43.579  10.425
36121W        W 7650   2.699  32.056   4.607
36122W        W 7651  12.436   9.116  14.033
36123W        W 7652  40.275   9.887   1.004
36124W        W 7653   4.147  35.315   0.410
36125W        W 7654  22.223  22.216   1.451
36126W        W 7655  42.822  26.425   1.312
36127W        W 7656   9.992  21.378   1.282
36128W        W 7657  12.428  28.092  11.530
36129W        W 7658  10.511  15.685   4.640
36130W        W 7659  16.412  24.167   3.757
36131W        W 7660  10.929  24.250   2.289
36132W        W 7661  36.136  19.244   1.303
36133W        W 7662   0.894  44.727  14.903
36134W        W 7663   9.217  40.075   0.954
36135W        W 7664   0.632   6.229   3.122
36136W        W 7665  37.576   1.545  14.377
36137W        W 7666  28.825   7.147  13.514
36138W        W 7667  17.877  35.199   3.078
36139W        W 7668  13.270  20.582   2.581
36140W        W 7669  26.596  41.793  11.580
36141W        W 7670  20.044  31.500   1.718
36142W        W 7671  25.328  40.008   3.876
36143W        W 7672  26.956  36.426  10.759
36144W        W 7673   5.783   3.820  12.779
36145W        W 7674  15.828  27.318  13.376
36146W        W 7675   6.614   3.366  14.697
36147W        W 7676   2.839  17.797   0.786
36148W        W 7677  35.955  42.301   1.747
36149W        W 7678  36.108   6.950  14.538
36150W        W 7679  17.764  12.640   1.718
36151W        W 7680   4.812  44.262   1.486
36152W        W 7681  34.079  36.797  14.982
36153W        W 7682   2.858  30.602   0.770
36154W        W 7683  35.149  16.448  13.943
36155W        W 7684  39.841   2.871  12.419
36156W        W 7685   2.032  17.652   0.538
36157W        W 7686  18.522  31.669   4.527
36158W        W 7687  40.556  23.139  13.503
36159W        W 7688   2.883   3.852   4.784
36160W        W 7689  24.067  34.360   1.871
36161W        W 7690  13.973  17.520  11.505
36162W        W 7691  38.318   7.365  13.443
36163W        W 7692  26.505  13.931  11.599
36164W        W 7693  12.166  43.215   1.769
36165W        W 7694  42.008  26.738  11.539
36166W        W 7695  30.232  26.917  13.682
36167W        W 7696   3.832  20.588  10.619
36168W        W 7697  17.275  26.409   3.619
36169W        W 7698  21.060  29.205  12.488
36170W        W 7699  36.537  29.899  14.778
36171W        W 7700  40.269  38.540   0.276
36172W        W 7701  14.755  32.091   0.536
36173W        W 7702   1.012  33.957   3.056
36174W        W 7703  24.538   5.505  11.351
36175W        W 7704  38.199   8.430   1.854
36176W        W 7705   6.382   0.786  14.026
36177W        W 7706  31.963  38.799   0.840
36178W        W 7707  21.409  12.277  10.653
36179W        W 7708   7.544  30.195   2.743
36180W        W 7709   9.263   8.437  12.340
36181W        W 7710  36.301  17.711   4.743
36182W        W 7711  22.044   4.667  13.532
36183W        W 7712  22.599   0.435   4.934
36184W        W 7713  16.977  11.141   0.015
36185W        W 7714  28.756  37.832  11.884
36186W        W 7715  30.722   6.431  14.325
36187W        W 7716  37.838   2.898  11.533
36188W        W 7717  29.494  21.364  11.151
36189W        W 7718  16.596  34.175   2.923
36190W        W 7719  34.468   6.456  13.974
36191W        W 7720  19.103  40.473   3.424
36192W        W 7721   1.252  19.783   3.865
36193W        W 7722  29.009  19.131  14.972
36194W        W 7723  13.429  24.574  11.959
36195W        W 7724  21.796  18.072  13.128
36196W        W 7725  25.627  37.867  11.537
36197W        W 7726  19.314  17.041   4.672
36198W        W 7727  43.207  44.034  13.813
36199W        W 7728  10.412   6.304  10.630
36200W        W 7729  40.908   9.902  12.521
36201W        W 7730  44.859  12.714   4.280
36202W        W 7731  15.705  16.669   1.416
36203W        W 7732  41.823  31.170  13.071
36204W        W 7733  23.213  35.862   4.907
36205W        W 7734  31.011  15.254  12.059
36206W        W 7735  34.369  11.971  12.917
36207W        W 7736  34.501  12.635  14.813
36208W        W 7737   3.709  26.213   0.236
36209W        W 7738  13.672  41.447  14.822
36210W        W 7739  12.686  10.135  12.067
36211W        W 7740   7.011  23.006   0.905
36212W        W 7741  20.763   0.869  10.749
36213W        W 7742  38.845  43.843  10.719
36214W        W 7743  42.768  39.796  10.631
36215W        W 7744  40.464  16.022   3.290
36216W        W 7745  13.421  41.000   1.839
36217W        W 7746  42.763  19.677   1.110
36218W        W 7747  24.764  26.631  10.620
36219W        W 7748  21.387   0.926  12.571
36220W        W 7749   5.705   3.937  14.206
36221W        W 7750  22.232  24.506  14.827
36222W        W 7751  13.127   0.740  11.138
36223W        W 7752  17.708  42.257  14.453
36224W        W 7753  20.733  36.514  10.909
36225W        W 7754   3.966  37.985  11.217
36226W        W 7755   9.846  34.041   3.558
36227W        W 7756   5.133   0.013  13.612
36228W        W 7757  18.102  41.645  12.476
36229W        W 7758  41.062  29.493   2.323
36230W        W 7759   1.827  26.752   3.175
36231W        W 7760  43.863  26.977   4.497
36232W        W 7761  27.973  17.146  12.868
36233W        W 7762  31.140  31.535   3.685
36234W        W 7763  10.856  28.650   2.204
36235W        W 7764  12.161  25.773  11.062
36236W        W 7765  25.500  38.369   3.273
36237W        W 7766  25.044  34.799  13.461
36238W        W 7767  34.588  25.566  14.930
36239W        W 7768  25.048  16.223  14.183
36240W        W 7769  42.359  29.330   4.180
36241W        W 7770   8.720  19.310   4.039
36242W        W 7771  42.520   0.455  14.764
36243W        W 7772  10.942   9.933   0.401
36244W        W 7773  17.349  38.436   2.895
36245W        W 7774  29.102  36.389  14.982
36246W        W 7775  39.540  33.981   1.685
36247W        W 7776  31.409  43.410  12.148
36248W        W 7777  16.797  41.302  12.065
36249W        W 7778  28.915  34.665  13.036
36250W        W 7779  42.871  26.515   3.100
36251W        W 7780  16.160  30.750   0.437
36252W        W 7781  32.141  15.123   1.256
36253W        W 7782  26.071  44.065  10.576
36254W        W 7783  35.776  15.266  12.585
36255W        W 7784  28.975  36.109   1.860
36256W        W 7785  39.549  24.938   1.804
36257W        W 7786  28.366  37.449  12.029
36258W        W 7787  26.922   9.871  14.530
36259W        W 7788  25.203  12.812   1.227
36260W        W 7789  10.282  11.556   1.871
36261W        W 7790  37.000   1.232  12.525
36262W        W 7791  13.921  26.242   1.714
36263W        W 7792  33.652  26.089  11.969
36264W        W 7793  28.246  22.720  12.446
36265W        W 7794  27.648  29.945   0.655
36266W        W 7795  13.053  16.770  14.497
36267W        W 7796  35.007  44.357  14.663
36268W        W 7797   1.820   1.435   4.220
36269W        W 7798  34.906  13.599   1.407
36270W        W 7799  39.962  36.968  11.976
36271W        W 7800  15.095  18.614  11.495
36272W        W 7801  20.676  28.526  10.483
36273W        W 7802  10.227  42.821  10.619
36274W        W 7803  27.087  33.239  11.448
36275W        W 7804  14.185  35.628   2.799
36276W        W 7805  10.857  26.147  13.740
36277W        W 7806  18.274  28.048   3.671
36278W        W 7807  39.838  43.442   3.264
36279W        W 7808  25.243  20.742   3.665
36280W        W 7809  22.031  40.184  11.105
36281W        W 7810  14.934  17.191   0.830
36282W        W 7811  31.131  22.677   2.828
36283W        W 7812   2.382  15.100  10.431
36284W        W 7813  12.785  43.331  14.517
36285W        W 7814  21.525  17.726  14.492
36286W        W 7815  43.888   2.940  13.280
36287W        W 7816  32.379  41.776   3.245
36288W        W 7817  36.962  32.657   4.484
36289W        W 7818  43.162   6.890  13.988
36290W        W 7819  21.177  28.087   0.396
36291W        W 7820   8.013   7.619   3.643
36292W        W 7821   2.619   3.389   4.454
36293W        W 7822  28.076  44.212   4.620
36294W        W 7823  36.478  26.168  11.416
36295W        W 7824  22.739   9.592   2.807
36296W        W 7825  15.097  36.945   3.755
36297W        W 7826  19.604  21.421  10.626
36298W        W 7827  23.946  24.460  14.231
36299W        W 7828  17.519  37.123  11.065
36300W        W 7829  22.235   3.189   4.069
36301W        W 7830  37.952  22.578  14.914
36302W        W 7831  20.556  38.094  10.592
36303W        W 7832  28.561  25.427   0.242
36304W        W 7833   1.242   5.238  12.359
36305W        W 7834  28.703   1.532  10.900
36306W        W 7835   2.560   6.850  12.496
36307W        W 7836   9.693  18.707  11.085
36308W        W 7837   4.628  42.615   3.275
36309W        W 7838  44.384  23.468  14.786
36310W        W 7839  31.325  33.072  13.362
36311W        W 7840  16.581  32.244   5.015
36312W        W 7841  37.135  17.073  13.334
36313W        W 7842   0.390   1.778   0.697
36314W        W 7843  23.138  36.796   2.366
36315W        W 7844  17.565  32.954   3.099
36316W        W 7845  29.523  21.338  14.979
36317W        W 7846  34.399   3.662  12.434
36318W        W 7847  16.994  39.366   0.636
36319W        W 7848  22.262  18.752   0.324
36320W        W 7849  43.362   4.323  13.554
36321W        W 7850  21.987  30.202   1.454
36322W        W 7851  34.521  37.879   0.951
36323W        W 7852  42.747   7.710   5.101
36324W        W 7853   2.197   3.937  13.895
36325W        W 7854   2.508  16.055   3.181
36326W        W 7855  18.890   1.755  12.478
36327W        W 7856  21.512  24.209  11.670
36328W        W 7857  30.372  13.292  11.720
36329W        W 7858  30.497  43.570  12.910
36330W        W 7859  40.349  34.985  12.948
36331W        W 7860  26.607  20.226  14.461
36332W        W 7861  33.840  44.556  14.495
36333W        W 7862  44.921  42.380  11.947
36334W        W 7863   0.826  17.833  13.241
36335W        W 7864   0.901  31.450   3.284
36336W        W 7865  23.122  19.646   4.043
36337W        W 7866  10.780  20.669   3.782
36338W        W 7867  29.092  25.771   1.953
36339W        W 7868  34.964  34.622  11.637
36340W        W 7869  37.568  30.839  12.156
36341W        W 7870   7.648  36.564   2.381
36342W        W 7871  21.323  18.383   0.425
36343W        W 7872  36.532   7.656   1.661
36344W        W 7873   5.224  13.558   0.937
36345W        W 7874  18.688  31.204  14.173
36346W        W 7875  15.278  30.087  11.627
36347W        W 7876  26.128  33.452  13.903
36348W        W 7877  15.908   3.647   1.789
36349W        W 7878  14.388  44.489  12.122
36350W        W 7879  44.077  40.586  11.310
36351W        W 7880   7.755  40.807  10.639
36352W        W 7881  28.305  35.081   5.150
36353W        W 7882  44.051  25.999  11.101
36354W        W 7883  18.203  41.089  13.965
36355W        W 7884   7.451   8.018  13.380
36356W        W 7885  19.774  24.765  13.039
36357W        W 7886  16.320   8.790   3.708
36358W        W 7887  17.687  36.135   3.734
36359W        W 7888  18.199  38.029  14.894
36360W        W 7889  42.433  44.441  12.402
36361W        W 7890  35.618  39.990   1.335
36362W        W 7891  32.428  10.788   0.006
36363W        W 7892  38.079   5.810   2.678
36364W        W 7893  30.578  14.557   3.336
36365W        W 7894  27.923   0.039   1.061
36366W        W 7895  25.244  28.807   3.638
36367W        W 7896  17.971  34.858  14.949
36368W        W 7897   8.279  30.038   4.341
36369W        W 7898  34.439  18.710   0.988
36370W        W 7899  42.273  20.043  14.366
36371W        W 7900   8.854  19.780   4.206
36372W        W 7901  18.115  42.240   3.076
36373W        W 7902  25.040   1.115  13.985
36374W        W 7903  33.550  15.493  11.807
36375W        W 7904  33.699  17.176  12.548
36376W        W 7905   0.234  18.637   3.799
36377W        W 7906  43.465  30.645   4.733
36378W        W 7907  39.142  23.899  13.107
36379W        W 7908  30.809  34.861   4.819
36380W        W 7909   0.689  23.541  12.759
36381W        W 7910  14.070  13.492   0.380
36382W        W 7911  17.605  42.997   9.966
36383W        W 7912  21.409  31.813   4.616
36384W        W 7913  28.091   2.458   1.569
36385W        W 7914  40.057   0.373  13.721
36386W        W 7915  30.120  25.746  12.941
36387W        W 7916  44.015  31.718  10.762
36388W        W 7917  26.260   9.124   4.956
36389W        W 7918  39.401  28.610  11.700
36390W        W 7919  26.577  28.077   1.886
36391W        W 7920  40.991  30.535   0.792
36392W        W 7921   1.371  20.170  14.922
36393W        W 7922  20.180  33.331   3.748
36394W        W 7923  19.570  14.137  11.264
36395W        W 7924  21.719  42.557  12.989
36396W        W 7925  10.555  41.084   2.799
36397W        W 7926  32.289  24.787   0.945
36398W        W 7927   3.503  39.828  13.368
36399W        W 7928  30.503  39.259  12.410
36400W        W 7929  41.473  27.523   2.410
36401W        W 7930  37.511  12.389  11.250
36402W        W 7931  26.563  17.946   1.224
36403W        W 7932  26.824   2.223  12.654
36404W        W 7933  41.694   7.217   0.498
36405W        W 7934  20.666   8.254   2.603
36406W        W 7935  32.144  39.053   1.762
36407W        W 7936  29.892  21.038  11.144
36408W        W 7937  23.647  37.494   0.016
36409W        W 7938  34.544   1.292  13.627
36410W        W 7939  11.193  17.621  12.947
36411W        W 7940  17.580  15.699   2.852
36412W        W 7941  34.087  27.686  14.680
36413W        W 7942   0.614   2.291   4.609
36414W        W 7943  40.044  15.745   0.197
36415W        W 7944  32.917   3.083  14.759
36416W        W 7945  24.514  11.383   0.371
36417W        W 7946  32.921  21.116   1.039
36418W        W 7947  27.487  38.230   0.362
36419W        W 7948  16.311  15.886  14.531
36420W        W 7949  29.158  40.794  11.604
36421W        W 7950  16.175  35.484  14.488
36422W        W 7951  23.246   1.880  12.443
36423W        W 7952  37.303  36.022   4.507
36424W        W 7953   8.740   9.687   3.878
36425W        W 7954  36.410  10.350   3.615
36426W        W 7955  30.132   5.473  12.052
36427W        W 7956  25.683   3.217   4.730
36428W        W 7957  34.118  35.715  11.330
36429W        W 7958  34.478   7.297   1.916
36430W        W 7959  21.220   1.042  13.565
36431W        W 7960  16.699  32.898   1.663
36432W        W 7961  30.894  32.799  10.697
36433W        W 7962   9.782   0.404   4.161
36434W        W 7963  19.056   4.710   4.562
36435W        W 7964   6.688   3.036  14.251
36436W        W 7965  25.211  38.784  11.857
36437W        W 7966  26.639  41.430  12.958
36438W        W 7967  12.860  40.328  14.321
36439W        W 7968   6.328  42.736   1.244
36440W        W 7969  14.621  10.951  14.809
36441W        W 7970  26.245   7.771   2.867
36442W        W 7971  23.014  13.708   2.260
36443W        W 7972   7.787   1.851  10.682
36444W        W 7973  12.382  44.367  10.892
36445W        W 7974  22.660  34.790  12.609
36446W        W 7975  12.157  13.903   0.230
36447W        W 7976  43.697  24.516   4.000
36448W        W 7977  28.559   7.669  14.832
36449W        W 7978  12.716  10.598   0.746
36450W        W 7979  23.654  11.142   0.226
36451W        W 7980  38.284   4.476   2.519
36452W        W 7981  44.676   3.975   1.709
36453W        W 7982  44.291  19.152   4.671
36454W        W 7983  21.691  44.349  11.625
36455W        W 7984  35.525  16.661  11.253
36456W        W 7985  35.065  22.290  13.204
36457W        W 7986  11.600  24.509  12.082
36458W        W 7987  25.507  13.880  14.033
36459W        W 7988  20.712  33.535   3.707
36460W        W 7989  33.200  36.501  12.469
36461W        W 7990  31.357  30.983  12.487
36462W        W 7991   8.111   0.929   5.409
36463W        W 7992  29.152  21.637   3.409
36464W        W 7993  25.049   7.939   2.195
36465W        W 7994  28.157  14.924   1.311
36466W        W 7995  15.003  22.718  12.104
36467W        W 7996  17.438  17.968  13.396
36468W        W 7997   9.972   1.370  13.969
36469W        W 7998   4.739  14.651  10.159
36470W        W 7999  15.991  39.713  12.909
36471W        W 8000  32.602  40.110   3.959
36472W        W 8001  32.508  32.161   0.322
36473W        W 8002   7.145  13.164   2.526
36474W        W 8003   6.762  27.091   2.223
36475W        W 8004  23.224  36.037  12.395
36476W        W 8005   4.255  31.336   2.410
36477W        W 8006   1.522  14.325   4.421
36478W        W 8007  37.839   1.820   1.241
36479W        W 8008  20.142   8.804  11.145
36480W        W 8009  37.579   2.064  14.394
36481W        W 8010  15.220  37.072   0.421
36482W        W 8011  19.908  32.708  13.589
36483W        W 8012  34.510  25.642   1.771
36484W        W 8013  30.244  32.373  11.174
36485W        W 8014  44.386   2.430  12.885
36486W        W 8015  20.787  10.183  13.478
36487W        W 8016  10.287  14.266   3.582
36488W        W 8017  14.371  17.429   3.137
36489W        W 8018  16.200  22.316  13.899
36490W        W 8019  11.778   1.282  13.760
36491W        W 8020  13.727  17.750  14.733
36492W        W 8021  41.425  22.160   2.466
36493W        W 8022  39.602  14.458   4.989
36494W        W 8023  35.475  43.297  12.800
36495W        W 8024  40.465   5.977  12.522
36496W        W 8025  27.852   6.620   0.839
36497W        W 8026  31.580   7.441  14.225
36498W        W 8027  13.653  34.133   1.394
36499W        W 8028  42.836  11.122  14.744
36500W        W 8029  34.326  35.499   0.851
36501W        W 8030  39.039  11.627  12.188
36502W        W 8031  37.457   8.104   4.194
36503W        W 8032   1.279  19.429   0.845
36504W        W 8033  13.134  16.599  11.128
36505W        W 8034  14.286  44.276  10.595
36506W        W 8035   0.365   0.449   1.144
36507W        W 8036  33.834  24.145   4.207
36508W        W 8037   9.421  19.063   5.167
36509W        W 8038  13.261   1.031  10.720
36510W        W 8039  26.186  35.615   1.862
36511W        W 8040  30.111  35.471   3.616
36512W        W 8041  12.620   5.436   3.538
36513W        W 8042  34.375  37.616  11.553
36514W        W 8043   2.981  37.672  14.082
36515W        W 8044  36.423  10.167   1.266
36516W        W 8045   2.351   8.428   1.136
36517W        W 8046   9.825  27.156   3.819
36518W        W 8047  17.014  11.238   2.500
36519W        W 8048  44.664  32.820  10.319
36520W        W 8049   2.970  35.965   4.180
36521W        W 8050  36.934  37.528   0.018
36522W        W 8051   7.442  27.492  14.493
36523W        W 8052   8.614  27.151   1.274
36524W        W 8053  40.047   9.022   1.268
36525W        W 8054   0.202  41.861  14.751
36526W        W 8055  36.452   1.625   4.923
36527W        W 8056  26.709  37.459   0.270
36528W        W 8057   3.902  24.507   2.764
36529W        W 8058   5.289  37.567   2.647
36530W        W 8059   3.296  28.715   1.844
36531W        W 8060   4.093  20.713   2.336
36532W        W 8061  19.821  19.570  11.626
36533W        W 8062  29.416  29.017   2.218
36534W        W 8063   8.826   9.330   4.297
36535W        W 8064  22.172  20.573  12.114
36536W        W 8065  15.058  33.811   2.675
36537W        W 8066  37.312   2.266   4.357
36538W        W 8067  20.150  38.990   1.821
36539W        W 8068   9.087  43.686   2.719
36540W        W 8069  43.473  11.853  10.829
36541W        W 8070   4.712  10.675  12.132
36542W        W 8071  38.395  13.772  10.678
36543W        W 8072  22.428  41.046  10.712
36544W        W 8073  22.739  41.092   1.750
36545W        W 8074  26.274  15.827  12.660
36546W        W 8075  43.947  30.001   2.208
36547W        W 8076   1.633   2.289   3.610
36548W        W 8077  21.372  35.674   0.085
36549W        W 8078  35.342   6.546   2.525
36550W        W 8079  38.030  31.838  13.031
36551W        W 8080  22.748  19.059   2.367
36552W        W 8081  41.923  30.369  10.287
36553W        W 8082  12.568  33.736   0.785
36554W        W 8083  37.970  28.010   3.704
36555W        W 8084  20.133  20.617  14.293
36556W        W 8085  27.668  12.556  11.614
36557W        W 8086   2.431  37.516  12.085
36558W        W 8087  20.811  15.066  12.014
36559W        W 8088  25.697  17.132  13.418
36560W        W 8089  32.816  18.849   4.179
36561W        W 8090  26.002  12.296   1.234
36562W        W 8091  15.476  24.214   4.615
36563W        W 8092  17.066   0.808  14.881
36564W        W 8093  14.422  38.445  14.902
36565W        W 8094  32.533  29.240   5.065
36566W        W 8095  34.959  19.273   4.781
36567W        W 8096  15.124  33.539   1.754
36568W        W 8097  24.198  18.247  14.342
36569W        W 8098  24.105  37.599  14.822
36570W        W 8099  21.773  22.683  12.062
36571W        W 8100  27.420  38.522  11.445
36572W        W 8101  37.273  24.050   0.323
36573W        W 8102  17.637   6.460   4.293
36574W        W 8103  11.805  26.896  11.600
36575W        W 8104  39.972  34.160  11.173
36576W        W 8105  37.860  11.607  14.878
36577W        W 8106  30.559   3.860  10.516
36578W        W 8107   5.756  22.496  10.562
36579W        W 8108  44.862  41.138  14.890
36580W        W 8109  21.035  36.940   2.346
36581W        W 8110  16.257  24.524   4.576
36582W        W 8111  19.491  35.279  13.320
36583W        W 8112  40.020  13.887  13.113
36584W        W 8113  21.087  36.394   3.098
36585W        W 8114  37.972  29.133  11.681
36586W        W 8115   5.341  36.978   4.034
36587W        W 8116  30.605   1.530  14.784
36588W        W 8117  15.395  19.695  11.932
36589W        W 8118  42.888  39.292   4.221
36590W        W 8119   7.116  41.919  13.664
36591W        W 8120  16.840  11.220   3.138
36592W        W 8121  29.197  36.567  11.317
36593W        W 8122  37.948   8.486   0.085
36594W        W 8123  26.071   4.422  14.064
36595W        W 8124  35.896  20.868   1.913
36596W        W 8125  23.637  21.553  11.160
36597W        W 8126  33.431  23.413   0.769
36598W        W 8127  14.331  43.450  10.715
36599W        W 8128   3.476  35.937   4.175
36600W        W 8129  17.338  38.540   1.200
36601W        W 8130   0.851  22.510  11.302
36602W        W 8131  35.304   9.396  13.874
36603W        W 8132   1.918  42.031  14.711
36604W        W 8133  26.499   1.291   3.095
36605W        W 8134  14.296  28.691   0.144
36606W        W 8135  29.715   2.515  11.442
36607W        W 8136   7.703  26.446   1.418
36608W        W 8137  27.589   9.853  14.983
36609W        W 8138  17.503   7.281   0.596
36610W        W 8139  21.464  18.280   2.252
36611W        W 8140  10.591  36.960  11.602
36612W        W 8141  12.877   7.165   3.125
36613W        W 8142  13.564  27.020   2.232
36614W        W 8143  15.666  13.597   2.374
36615W        W 8144  33.993  41.271  11.144
36616W        W 8145   7.663  26.398  12.175
36617W        W 8146  26.051  31.435   3.799
36618W        W 8147  32.030  38.447  14.963
36619W        W 8148  24.970  11.140  13.860
36620W        W 8149  11.324   0.393  12.398
36621W        W 8150  33.080   3.737   4.372
36622W        W 8151  16.336  18.036  10.183
36623W        W 8152  21.355  35.024   3.668
36624W        W 8153  11.448  19.118  14.954
36625W        W 8154  33.842  31.460   4.867
36626W        W 8155  44.389  19.141  14.714
36627W        W 8156  39.371  31.849   4.141
36628W        W 8157   3.585  27.252  14.322
36629W        W 8158  13.004  31.512   2.853
36630W        W 8159  41.335   7.367  13.606
36631W        W 8160  15.564  34.383   0.747
36632W        W 8161  29.733  23.634   1.277
36633W        W 8162  36.471  17.154   3.057
36634W        W 8163   8.894  29.966  13.965
36635W        W 8164  10.962  20.105  13.928
36636W        W 8165   5.807  28.578  14.087
36637W        W 8166   2.702  32.893  12.803
36638W        W 8167  10.414  31.737   2.278
36639W        W 8168  41.803  30.446   3.705
36640W        W 8169  22.902  34.007  14.104
36641W        W 8170   5.474   1.771   4.628
36642W        W 8171  36.259  22.490   4.353
36643W        W 8172  24.960  17.659   0.955
36644W        W 8173  28.059  32.384   1.812
36645W        W 8174  19.676  14.287   4.509
36646W        W 8175  11.181  26.972  13.875
36647W        W 8176  37.777   9.956  11.536
36648W        W 8177  37.914  43.375  12.963
36649W        W 8178  23.078  19.019   3.367
36650W        W 8179  11.152  34.108   0.982
36651W        W 8180  15.295  16.691   2.591
36652W        W 8181   4.936  21.250   3.985
36653W        W 8182  14.678  39.709   0.247
36654W        W 8183  20.036  10.904  12.371
36655W        W 8184  24.524  33.656  11.595
36656W        W 8185  36.134   2.680   0.302
36657W        W 8186  37.176  36.761  11.106
36658W        W 8187   6.477  23.572   3.757
36659W        W 8188  34.316  20.240   0.948
36660W        W 8189  41.986  22.713  13.037
36661W        W 8190  14.785   6.144   3.534
36662W        W 8191  18.174  31.811  11.899
36663W        W 8192  36.339  24.445   1.088
36664W        W 8193  37.919   0.519  13.025
36665W        W 8194  32.985   0.264  11.471
36666W        W 8195  43.515  35.109  14.023
36667W        W 8196  43.558  24.053   4.257
36668W        W 8197  22.677   4.242   4.680
36669W        W 8198  18.519  14.094   1.832
36670W        W 8199  27.046   5.664   2.758
36671W        W 8200   4.379  25.481   2.744
36672W        W 8201  30.664  25.039   2.864
36673W        W 8202  26.422  39.121   2.677
36674W        W 8203  39.658  25.142   3.232
36675W        W 8204  43.575  40.873   0.138
36676W        W 8205  40.481  33.841  13.284
36677W        W 8206  12.245   3.454  12.160
36678W        W 8207  43.925   1.357   3.747
36679W        W 8208  15.734   1.480  13.799
36680W        W 8209  15.977   7.086   4.988
36681W        W 8210  42.325  38.720  11.189
36682W        W 8211   7.832  44.395   0.427
36683W        W 8212  35.321  31.405   4.853
36684W        W 8213  39.122  21.161   2.812
36685W        W 8214  28.094  22.759   4.650
36686W        W 8215  12.219  32.919  12.277
36687W        W 8216  43.042  37.252  14.282
36688W        W 8217  14.258   6.254   5.456
36689W        W 8218  27.913  39.409  14.986
36690W        W 8219  22.278  22.137  10.285
36691W        W 8220  43.437  42.687   3.636
36692W        W 8221   7.502  37.496  10.307
36693W        W 8222   1.862  37.932  10.488
36694W        W 8223  43.943  34.329  12.532
36695W        W 8224  23.854  25.436  12.433
36696W        W 8225   2.453  26.499  10.540
36697W        W 8226  41.258  11.434  13.935
36698W        W 8227  18.092  18.309  14.691
36699W        W 8228  12.025   3.221   4.653
36700W        W 8229  44.464  11.874  12.918
36701W        W 8230   1.296  42.971   0.155
36702W        W 8231  43.386   3.284  12.520
36703W        W 8232  19.290   8.719   3.104
36704W        W 8233  11.898  18.323   2.908
36705W        W 8234   7.439  24.415  12.829
36706W        W 8235   6.693  27.914  11.324
36707W        W 8236  38.943  33.353  13.412
36708W        W 8237  38.359  17.194  11.584
36709W        W 8238  40.510  35.308   4.993
36710W        W 8239   2.902  31.476   0.207
36711W        W 8240  24.014   3.250  14.829
36712W        W 8241   9.860  16.074  11.094
36713W        W 8242   0.446   7.222   0.987
36714W        W 8243  36.950  40.100  13.994
36715W        W 8244  34.836   0.440   3.583
36716W        W 8245  30.444  17.583   4.656
36717W        W 8246   5.315  11.155  10.714
36718W        W 8247  31.989  38.797  10.892
36719W        W 8248  21.965  26.258   2.109
36720W        W 8249   9.788  14.982  13.887
36721W        W 8250  20.570  18.745  13.587
36722W        W 8251  40.428  40.144  12.575
36723W        W 8252  33.305  31.078  14.709
36724W        W 8253  29.469  13.284   4.952
36725W        W 8254  38.688  44.181   3.286
36726W        W 8255  39.234  37.994  13.052
36727W        W 8256  31.730  23.743  12.488
36728W        W 8257  12.710   0.215   1.229
36729W        W 8258  31.865  31.893  10.571
36730W        W 8259  27.048  12.971  13.631
36731W        W 8260  29.701  12.798   3.811
36732W        W 8261  19.689  36.771   1.903
36733W        W 8262   0.300  31.232  11.657
36734W        W 8263  13.143  14.268  12.412
36735W        W 8264   7.740  20.293  10.561
36736W        W 8265   1.887  17.982   2.836
36737W        W 8266  12.717  29.889   0.870
36738W        W 8267  18.108  19.912  11.120
36739W        W 8268  12.657  40.421   4.605
36740W        W 8269  36.323  35.010  10.749
36741W        W 8270  10.760  19.246  11.627
36742W        W 8271  44.111  21.544  13.485
36743W        W 8272  11.742  42.323  11.240
36744W        W 8273  13.466  27.003  13.499
36745W        W 8274  11.294   3.215   0.067
36746W        W 8275   5.027  27.237   3.707
36747W        W 8276  10.240   7.086   4.517
36748W        W 8277  19.379   2.042   0.791
36749W        W 8278  26.632   8.277   1.494
36750W        W 8279  36.992   5.965  12.474
36751W        W 8280  35.687  29.668   4.211
36752W        W 8281   1.334   8.194  11.718
36753W        W 8282  22.638  18.087   1.674
36754W        W 8283  33.969  39.058   4.655
36755W        W 8284  38.217   5.832   4.579
36756W        W 8285  19.298  17.224  11.928
36757W        W 8286  38.456  22.613   2.255
36758W        W 8287   1.789  42.522  14.513
36759W        W 8288  15.540  42.879  12.818
36760W        W 8289  34.007  23.796  11.669
36761W        W 8290   5.711  22.231  11.465
36762W        W 8291  29.213   2.323  10.722
36763W        W 8292  11.130  17.764  12.055
36764W        W 8293   1.912   6.647  13.506
36765W        W 8294  28.213   1.254  11.599
36766W        W 8295  29.058  28.226   4.514
36767W        W 8296   5.439   8.906  14.081
36768W        W 8297  40.536   2.872   0.235
36769W        W 8298  13.988  26.024  12.314
36770W        W 8299  13.640  16.116  12.397
36771W        W 8300   5.429   3.845   0.852
36772W        W 8301  10.788  42.805  14.278
36773W        W 8302  22.542   5.193   3.201
36774W        W 8303  38.726  22.666  12.678
36775W        W 8304  30.204  32.540  12.047
36776W        W 8305  20.005  39.828   2.133
36777W        W 8306  33.349  34.785  13.079
36778W        W 8307  30.677  26.409   3.596
36779W        W 8308  37.345  21.084  12.958
36780W        W 8309  25.504  40.469  11.141
36781W        W 8310  37.980  25.169   2.551
36782W        W 8311  34.409  28.318   2.639
36783W        W 8312   6.473  39.426  11.332
36784W        W 8313  13.929  10.762   2.334
36785W        W 8314  13.675  35.478   4.241
36786W        W 8315   9.143  29.899   3.691
36787W        W 8316  20.247  24.813   4.503
36788W        W 8317  35.635  22.037   0.983
36789W        W 8318   3.100  32.695   2.583
36790W        W 8319  18.309  14.254   0.850
36791W        W 8320  29.052  28.705   4.683
36792W        W 8321  14.506  33.135  10.490
36793W        W 8322   2.093  40.573  10.283
36794W        W 8323  12.232  43.481  14.388
36795W        W 8324  18.208  12.338  12.583
36796W        W 8325  27.249   8.329   1.177
36797W        W 8326  35.056   0.903  11.339
36798W        W 8327  21.061  32.302   3.594
36799W        W 8328  18.654  15.091  11.338
36800W        W 8329  39.613  32.068  12.899
36801W        W 8330  37.963  44.586   1.320
36802W        W 8331   0.594  40.340   1.304
36803W        W 8332  21.971  35.282  11.186
36804W        W 8333   2.332  33.118   0.252
36805W        W 8334  12.298   0.421  12.743
36806W        W 8335   2.787  33.832  14.378
36807W        W 8336  33.548   2.974  10.700
36808W        W 8337  40.571   0.412  11.534
36809W        W 8338  22.586  10.872  12.587
36810W        W 8339  18.341  14.742   4.541
36811W        W 8340   9.856  24.726  12.147
36812W        W 8341  11.299  25.523   0.766
36813W        W 8342   8.439  25.273   2.858
36814W        W 8343  42.892   3.473  13.023
36815W        W 8344  18.241  33.919   3.730
36816W        W 8345  27.051   9.704   3.628
36817W        W 8346  18.321  10.314   3.760
36818W        W 8347   5.328   2.955  13.607
36819W        W 8348  20.367  43.692   1.676
36820W        W 8349  44.367  10.110   4.515
36821W        W 8350  23.290  19.749  12.216
36822W        W 8351  19.186   4.779  11.004
36823W        W 8352  30.858   1.515  10.793
36824W        W 8353  21.582  21.808  12.656
36825W        W 8354  26.413  44.912   2.872
36826W        W 8355  25.367  35.996   4.159
36827W        W 8356  28.887  34.217  12.444
36828W        W 8357   6.254  13.150  12.653
36829W        W 8358  17.327   3.328   2.838
36830W        W 8359  44.381  39.044  14.368
36831W        W 8360  17.829  16.201  12.433
36832W        W 8361  41.531  40.969  13.857
36833W        W 8362  21.894  19.105   0.380
36834W        W 8363  18.489  43.477  14.387
36835W        W 8364  41.859   5.020   4.491
36836W        W 8365   1.214  22.296   0.915
36837W        W 8366  29.000  41.417   3.773
36838W        W 8367  34.977  34.922   4.128
36839W        W 8368  41.293  25.431  14.405
36840W        W 8369  34.307  13.403   0.393
36841W        W 8370  33.069  39.271   1.986
36842W        W 8371  40.444   9.638   2.754
36843W        W 8372  15.747   3.414   2.659
36844W        W 8373  30.147  22.157   3.643
36845W        W 8374  32.656   0.743   1.677
36846W        W 8375  10.122  10.820  10.334
36847W        W 8376  37.195  41.582  13.796
36848W        W 8377  37.897  20.400  11.208
36849W        W 8378   1.317  33.054  13.961
36850W        W 8379  36.767   9.717  13.064
36851W        W 8380  43.885  29.575  11.542
36852W        W 8381  35.034  32.371  12.850
36853W        W 8382  24.793  38.047   4.259
36854W        W 8383  15.571  42.761   2.262
36855W        W 8384  11.722  42.729  10.545
36856W        W 8385  37.963   8.363  13.584
36857W        W 8386  38.082  12.303   0.924
36858W        W 8387  12.359  12.788   0.915
36859W        W 8388  39.773   2.773   0.871
36860W        W 8389  32.134   8.620   4.438
36861W        W 8390  13.175   4.419   0.246
36862W        W 8391  15.994   3.216  11.306
36863W        W 8392  42.357  27.540   0.294
36864W        W 8393  10.145  41.177   3.677
36865W        W 8394  20.235  12.773   0.751
36866W        W 8395  11.835  33.394  12.027
36867W        W 8396  18.348  12.712   0.783
36868W        W 8397  30.183   6.889  14.405
36869W        W 8398   1.920  38.862  12.606
36870W        W 8399  32.151  19.453   5.130
36871W        W 8400  43.112  18.810  14.954
36872W        W 8401  16.169  16.281  11.969
36873W        W 8402  30.447  43.514   4.950
36874W        W 8403  26.060  17.713   1.225
36875W        W 8404  23.993  18.232   0.971
36876W        W 8405  35.087  39.037  14.292
36877W        W 8406  20.700  24.925  12.705
36878W        W 8407  10.265  40.846   3.213
36879W        W 8408  21.297  33.365   2.894
36880W        W 8409   9.257  25.698  10.695
36881W        W 8410  38.538  16.733  13.858
36882W        W 8411   1.135  21.802   0.868
36883W        W 8412  17.486  39.478   3.889
36884W        W 8413   7.735  24.405   3.679
36885W        W 8414  42.191  31.605   3.187
36886W        W 8415   5.614  17.346  11.920
36887W        W 8416  10.371  26.572  10.766
36888W        W 8417   3.668  33.663  13.036
36889W        W 8418  12.190  13.028  11.536
36890W        W 8419   0.901   9.644  13.953
36891W        W 8420  11.645   2.383   0.950
36892W        W 8421   5.155  17.598   1.047
36893W        W 8422  18.806  13.757  14.461
36894W        W 8423  42.507   4.261  13.887
36895W        W 8424  26.605  18.859  14.317
36896W        W 8425  25.041  10.191   1.327
36897W        W 8426  14.652  31.498  10.873
36898W        W 8427   5.361  30.473   2.371
36899W        W 8428  16.017  37.320   0.713
36900W        W 8429  21.788  42.490  10.227
36901W        W 8430  36.755  43.518   3.633
36902W        W 8431  12.910  12.846   2.133
36903W        W 8432  11.553  18.098   4.263
36904W        W 8433  36.383   2.671  13.549
36905W        W 8434  34.931   1.880   2.340
36906W        W 8435   7.774  34.050   4.716
36907W        W 8436  31.996  39.322  13.143
36908W        W 8437  19.319   5.817   2.715
36909W        W 8438  24.051  22.770  12.254
36910W        W 8439   6.091   0.703  14.431
36911W        W 8440   3.367  41.559   3.644
36912W        W 8441  41.016  23.823  14.296
36913W        W 8442  31.171  42.979  12.378
36914W        W 8443   5.178  21.882  14.947
36915W        W 8444  41.717  41.871  11.157
36916W        W 8445  25.072  11.754  14.391
36917W        W 8446   2.753  21.186  13.520
36918W        W 8447  31.666  14.102  12.055
36919W        W 8448  13.579   3.363  14.929
36920W        W 8449  22.773  15.340  10.300
36921W        W 8450  12.374  25.244   3.148
36922W        W 8451   5.828  10.117   2.280
36923W        W 8452  15.082  18.878  13.814
36924W        W 8453  27.914  21.437   3.909
36925W        W 8454  42.795  17.703   2.012
36926W        W 8455  36.605  22.081   2.825
36927W        W 8456  38.322  18.693  14.404
36928W        W 8457  26.058  44.466  12.290
36929W        W 8458   2.054  27.563   4.246
36930W        W 8459  18.177  38.417   0.676
36931W        W 8460  10.218  44.563  12.043
36932W        W 8461  39.116  44.399   1.835
36933W        W 8462  40.592  35.871  10.758
36934W        W 8463  16.981  25.208   2.915
36935W        W 8464  29.402  30.986   1.864
36936W        W 8465  18.120  22.342   3.277
36937W        W 8466  35.890   4.125   2.824
36938W        W 8467  14.833  31.365   1.835
36939W        W 8468  17.073  21.981   0.289
36940W        W 8469   1.310   5.818  11.139
36941W        W 8470  24.855   4.255   3.633
36942W        W 8471  24.249   1.017  14.325
36943W        W 8472  34.410  12.519  14.327
36944W        W 8473   2.736  11.922  11.109
36945W        W 8474  40.643  16.722   2.259
36946W        W 8475  24.724   1.388   3.345
36947W        W 8476  23.908  37.337  12.171
36948W        W 8477  25.044  42.889   3.873
36949W        W 8478  26.060  23.439  11.142
36950W        W 8479  40.624  16.717   0.828
36951W        W 8480   8.764   2.453   0.328
36952W        W 8481   0.444  12.192   0.096
36953W        W 8482   1.827  22.080  14.113
36954W        W 8483  16.844   1.008  14.448
36955W        W 8484   4.688  25.117   3.785
36956W        W 8485  31.933   7.283   1.694
36957W        W 8486  21.736  33.063   3.744
36958W        W 8487   5.262  17.146   4.209
36959W        W 8488   9.119  13.153   3.282
36960W        W 8489  33.035  40.512   3.371
36961W        W 8490  42.872  29.457   4.142
36962W        W 8491  27.046  21.707  13.565
36963W        W 8492  44.232   7.673   2.771
36964W        W 8493  14.456  33.297   2.817
36965W        W 8494  36.353  13.684  11.472
36966W        W 8495   2.841  30.097   3.080
36967W        W 8496   1.135  15.748  10.408
36968W        W 8497   0.491  42.177  13.571
36969W        W 8498  43.302  17.672  12.113
36970W        W 8499  31.105  39.409   2.795
36971W        W 8500  37.971  43.587  14.748
36972W        W 8501   7.601  27.633  14.018
36973W        W 8502  10.431   8.854   2.270
36974W        W 8503  30.872  19.223  11.023
36975W        W 8504  39.314  22.259  12.049
36976W        W 8505  24.187   7.882   4.896
36977W        W 8506  28.720  17.183  14.496
36978W        W 8507  32.495  33.419  11.069
36979W        W 8508  35.072  44.008  11.161
36980W        W 8509   4.588   2.934   3.301
36981W        W 8510   9.169  37.596  14.966
36982W        W 8511  34.507  34.563   3.834
36983W        W 8512  31.473  18.786   0.214
36984W        W 8513   2.369  43.035  14.856
36985W        W 8514  42.841  26.765   0.297
36986W        W 8515  20.528  14.279   4.268
36987W        W 8516  37.985  12.283   3.250
36988W        W 8517  16.414   3.786   3.088
36989W        W 8518  21.543  37.725   4.588
36990W        W 8519   7.391   0.268  14.367
36991W        W 8520  33.497  41.876  11.550
36992W        W 8521   7.668  38.331   4.600
36993W        W 8522  29.429  18.807  14.833
36994W        W 8523  39.428  33.143   0.842
36995W        W 8524  15.678  30.193  12.390
36996W        W 8525  14.145  39.241  12.512
36997W        W 8526  44.396  21.305   3.136
36998W        W 8527   0.294  39.911  12.693
36999W        W 8528  31.390   6.696   4.546
37000W        W 8529   4.830  43.205  10.940
37001W        W 8530  13.059  11.037   4.928
37002W        W 8531  38.061  23.527   2.731
37003W        W 8532  17.329  13.341   1.329
37004W        W 8533  18.045  31.610   0.072
37005W        W 8534  14.037  23.035  11.202
37006W        W 8535   8.861  18.906   3.753
37007W        W 8536  12.566  10.179   3.343
37008W        W 8537  10.072  26.261   0.244
37009W        W 8538  20.799  25.742  13.076
37010W        W 8539  25.920  10.843   3.968
37011W        W 8540  31.175   7.253  13.076
37012W        W 8541  37.885   5.416   4.438
37013W        W 8542  18.059  31.976   2.270
37014W        W 8543  41.740  41.485   9.963
37015W        W 8544  43.725  37.465   4.124
37016W        W 8545  29.991  15.589  10.663
37017W        W 8546  44.272  11.772  13.664
37018W        W 8547   6.343   2.853   0.969
37019W        W 8548  42.272  23.071   2.735
37020W        W 8549  40.017  36.652   2.075
37021W        W 8550  12.843   2.008   4.024
37022W        W 8551  28.537  16.073  11.947
37023W        W 8552  17.225  22.054   4.155
37024W        W 8553  24.503  30.328   3.175
37025W        W 8554  41.311  40.446   0.083
37026W        W 8555  35.441  25.799  11.950
37027W        W 8556   4.201  41.195   4.677
37028W        W 8557  29.659  19.073   0.332
37029W        W 8558  20.267   1.653   3.640
37030W        W 8559  37.552  37.732   2.683
37031W        W 8560  21.236  10.931   2.744
37032W        W 8561   4.263  26.079  14.316
37033W        W 8562  42.994   0.747   5.115
37034W        W 8563  39.589  27.108  14.912
37035W        W 8564  11.813  34.938  11.243
37036W        W 8565   3.898   9.885   1.893
37037W        W 8566  27.082  25.605   2.858
37038W        W 8567  36.923   9.129  14.814
37039W        W 8568  44.305  23.327  14.295
37040W        W 8569   2.288  19.870   1.331
37041W        W 8570  34.126  33.725  14.318
37042W        W 8571  43.558  25.990  10.965
37043W        W 8572  25.397  21.246  12.617
37044W        W 8573  43.488  15.474  10.282
37045W        W 8574   4.702  24.275  11.905
37046W        W 8575   0.768   6.813   2.647
37047W        W 8576  37.619  13.085  10.530
37048W        W 8577  16.704   6.655   4.273
37049W        W 8578   9.060  26.115   2.446
37050W        W 8579   3.918  20.769  12.840
37051W        W 8580  31.144   2.690  13.955
37052W        W 8581  42.067  10.107  14.758
37053W        W 8582  33.935  32.188   1.140
37054W        W 8583  27.586  42.277  14.832
37055W        W 8584  35.496  41.000   0.449
37056W        W 8585  44.519   5.766   3.836
37057W        W 8586  40.252   9.660  11.554
37058W        W 8587   6.996  17.235   0.168
37059W        W 8588  37.273   3.696   3.512
37060W        W 8589   3.442   5.920   0.886
37061W        W 8590  18.124  13.937  13.898
37062W        W 8591  32.168  35.860   2.357
37063W        W 8592  25.613  18.253  12.190
37064W        W 8593  29.588  25.149  10.687
37065W        W 8594  32.316  18.336  14.904
37066W        W 8595   1.469  42.829  11.592
37067W        W 8596  29.438  25.575   0.278
37068W        W 8597  39.568  31.456  14.750
37069W        W 8598   4.010  37.092  14.599
37070W        W 8599  40.327   4.327  14.541
37071W        W 8600   1.388  10.659   1.454
37072W        W 8601  26.129  15.637  10.507
37073W        W 8602  20.046  14.059  12.081
37074W        W 8603   9.131   3.753   3.643
37075W        W 8604  42.704  10.753  11.160
37076W        W 8605  20.112   1.355  14.769
37077W        W 8606  41.782   3.989  12.427
37078W        W 8607  36.849  17.491  13.509
37079W        W 8608  41.458  41.537   3.322
37080W        W 8609  43.975  27.101  12.112
37081W        W 8610  30.704   7.476   2.401
37082W        W 8611  40.504  39.835   4.725
37083W        W 8612  26.582   8.073  13.405
37084W        W 8613  25.285   9.143   4.622
37085W        W 8614  24.962  38.401   3.217
37086W        W 8615  31.465  23.967  10.735
37087W        W 8616   2.234  38.797   2.798
37088W        W 8617  36.877  39.586  13.985
37089W        W 8618   5.654   6.715   3.724
37090W        W 8619  21.131  31.901   0.029
37091W        W 8620   8.914   1.192  11.212
37092W        W 8621  16.059  32.579  10.482
37093W        W 8622   3.694  11.270   3.751
37094W        W 8623   1.808  36.123  14.160
37095W        W 8624   3.962  38.950  12.351
37096W        W 8625  17.679  38.736   1.616
37097W        W 8626   2.769  41.097   2.388
37098W        W 8627   2.040  29.776  14.011
37099W        W 8628  31.580  32.309   4.449
37100W        W 8629   5.814  43.611  13.339
37101W        W 8630  27.216  25.032  14.058
37102W        W 8631  38.379   8.985  10.076
37103W        W 8632  24.210   3.579  10.784
37104W        W 8633   6.408  27.011  14.425
37105W        W 8634  22.669  24.228   0.767
37106W        W 8635   3.230  20.693  14.534
37107W        W 8636   2.331  17.524   4.530
37108W        W 8637  44.307  34.548  14.092
37109W        W 8638  18.565   5.441   3.153
37110W        W 8639  19.492   0.765   0.384
37111W        W 8640  32.567   8.875  13.543
37112W        W 8641  27.489  13.866  13.856
37113W        W 8642   4.049  43.402  10.624
37114W        W 8643  43.947  42.083   2.696
37115W        W 8644  38.435  33.891   4.461
37116W        W 8645  11.348  32.883   1.686
37117W        W 8646   9.664   3.340  14.732
37118W        W 8647  10.173  26.204  10.017
37119W        W 8648  42.271  28.261  13.852
37120W        W 8649  31.627  29.011  14.892
37121W        W 8650  12.746  39.031  12.748
37122W        W 8651   3.909   0.796  12.611
37123W        W 8652   6.898   8.827   3.603
37124W        W 8653  18.640  22.076   0.947
37125W        W 8654  15.895  18.753   0.694
37126W        W 8655   7.260  21.509   0.817
37127W        W 8656   5.197   3.421   2.636
37128W        W 8657  38.782  22.925   0.425
37129W        W 8658  27.906  36.184  13.359
37130W        W 8659  33.478  20.428   3.050
37131W        W 8660   7.918  13.678   2.639
37132W        W 8661  20.498  12.372   1.392
37133W        W 8662   4.191  14.855  12.801
37134W        W 8663  31.931  20.192  13.962
37135W        W 8664  43.747  35.008   4.596
37136W        W 8665  16.557  30.926   0.922
37137W        W 8666  21.200  12.648   3.435
37138W        W 8667  41.884  38.954  11.753
37139W        W 8668  15.876  27.329  14.894
37140W        W 8669  29.914  40.834  12.956
37141W        W 8670  20.195  16.490  11.560
37142W        W 8671  39.976  38.278  11.983
37143W        W 8672  44.245   4.774   1.933
37144W        W 8673  29.444  18.621  13.389
37145W        W 8674  43.169  29.523   0.170
37146W        W 8675  29.993  27.562   0.813
37147W        W 8676  13.683  27.450   2.474
37148W        W 8677  20.232  41.991  10.988
37149W        W 8678  35.862  42.518  10.821
37150W        W 8679  25.620  34.051  13.377
37151W        W 8680  34.005   4.377   0.682
37152W        W 8681  20.984  32.558   4.037
37153W        W 8682  27.951  30.437  10.690
37154W        W 8683   2.880  42.534   2.847
37155W        W 8684  18.580  41.349   3.738
37156W        W 8685  23.756  40.606  10.804
37157W        W 8686   2.475  23.102  10.962
37158W        W 8687  14.665  34.602   0.733
37159W        W 8688  25.984  43.189   1.724
37160W        W 8689  30.119  18.520   2.706
37161W        W 8690  26.065  30.901   1.637
37162W        W 8691  28.121  44.969   4.600
37163W        W 8692  37.062   9.677  10.545
37164W        W 8693  15.790  43.260  13.033
37165W        W 8694  10.814   9.355  14.507
37166W        W 8695  25.796  11.314  12.564
37167W        W 8696  42.251   3.432   1.835
37168W        W 8697  18.809  16.026   3.740
37169W        W 8698  14.335  19.718  12.017
37170W        W 8699   0.478  13.005  10.485
37171W        W 8700  23.976   8.188   0.254
37172W        W 8701  27.542  22.251   2.598
37173W        W 8702  15.776   0.915   2.324
37174W        W 8703   0.260   6.283   0.444
37175W        W 8704  36.860  28.975  13.482
37176W        W 8705   2.777  19.295  14.729
37177W        W 8706  29.500  42.536   3.380
37178W        W 8707  21.085  36.508  10.525
37179W        W 8708  19.893  26.026  11.127
37180W        W 8709  24.215  10.377  13.860
37181W        W 8710  32.023  38.407  11.224
37182W        W 8711  27.390  30.348   4.112
37183W        W 8712   1.166   3.706  13.881
37184W        W 8713  12.132  37.631   3.083
37185W        W 8714  37.152   0.256   1.470
37186W        W 8715  23.236  39.323   3.652
37187W        W 8716   7.885  33.580   2.220
37188W        W 8717  17.848  10.381  12.904
37189W        W 8718  27.294  20.010  13.835
37190W        W 8719  26.126   2.585  10.609
37191W        W 8720  31.645  21.005  13.412
37192W        W 8721  39.890  14.848   3.170
37193W        W 8722   5.940  37.053   3.221
37194W        W 8723   7.210  44.239   1.847
37195W        W 8724  31.397  25.754  12.065
37196W        W 8725  10.296   8.088   4.288
37197W        W 8726  20.924   6.778  13.903
37198W        W 8727  30.926  39.573   2.303
37199W        W 8728   0.981  29.043  11.705
37200W        W 8729  42.429  22.090   4.869
37201W        W 8730   3.250  42.815   1.401
37202W        W 8731  26.399   2.537  12.076
37203W        W 8732  14.198  23.725   4.246
37204W        W 8733  10.280  29.951   3.232
37205W        W 8734   8.310  32.087   0.835
37206W        W 8735  11.672   3.685  12.411
37207W        W 8736  15.115  19.896  13.508
37208W        W 8737  20.463  31.495  13.009
37209W        W 8738  24.727   8.723   4.285
37210W        W 8739  23.961  14.671   0.713
37211W        W 8740  29.934  16.845   5.604
37212W        W 8741   5.004  36.007   4.123
37213W        W 8742  43.420  29.670  12.520
37214W        W 8743  25.565  34.964  11.180
37215W        W 8744  41.344  17.052   1.440
37216W        W 8745   2.363  37.879   1.888
37217W        W 8746  42.463  30.425   1.004
37218W        W 8747  15.322  17.921   4.154
37219W        W 8748  24.080  22.501   2.262
37220W        W 8749  37.874   8.003   1.936
37221W        W 8750  28.466  15.639   4.458
37222W        W 8751  16.848  44.157   2.380
37223W        W 8752  22.111   2.820  14.293
37224W        W 8753  42.005   1.704   3.763
37225W        W 8754  12.694  32.473   0.414
37226W        W 8755  16.224  42.484   4.683
37227W        W 8756  39.407   3.190   3.244
37228W        W 8757  40.817  33.070   0.298
37229W        W 8758  25.047  34.206  14.411
37230W        W 8759   3.404  27.321   1.759
37231W        W 8760   6.970  32.139   4.997
37232W        W 8761  42.395  27.279  14.857
37233W        W 8762  44.359  13.159   1.277
37234W        W 8763  41.954   7.614   1.272
37235W        W 8764  19.691  26.869  11.071
37236W        W 8765  19.915   3.845   2.624
37237W        W 8766  24.033  22.165  13.529
37238W        W 8767  30.039  11.932  11.313
37239W        W 8768   4.330  38.420  14.085
37240W        W 8769  36.868  19.764  13.019
37241W        W 8770  15.535  36.960  12.632
37242W        W 8771   8.853  27.083  12.512
37243W        W 8772  44.248  13.663  12.618
37244W        W 8773  21.665  30.961   3.380
37245W        W 8774  16.772   6.777  12.911
37246W        W 8775  30.766  16.080   1.735
37247W        W 8776  32.542  30.460  12.559
37248W        W 8777  42.713  27.991  10.870
37249W        W 8778  39.407  30.127  13.510
37250W        W 8779   3.661  23.782   4.126
37251W        W 8780  44.261  15.801   0.751
37252W        W 8781  13.174  17.730  12.929
37253W        W 8782  42.385  44.798  14.386
37254W        W 8783  33.662  33.897  12.859
37255W        W 8784  32.856  32.723   3.309
37256W        W 8785  31.652  15.164   4.079
37257W        W 8786  30.054  43.374  13.195
37258W        W 8787  12.113  27.933  14.125
37259W        W 8788   6.723  10.147  14.396
37260W        W 8789  33.148  33.038  10.908
37261W        W 8790   5.604   8.251  13.042
37262W        W 8791  42.044  18.861   5.012
37263W        W 8792  28.928  11.288   1.729
37264W        W 8793   3.210  43.479   0.430
37265W        W 8794  36.393  27.837   0.933
37266W        W 8795  16.261   4.609   3.600
37267W        W 8796   1.320  19.697  13.914
37268W        W 8797  19.526  41.485   4.828
37269W        W 8798  33.572  28.754  13.432
37270W        W 8799   9.077   3.254   2.715
37271W        W 8800  25.685   5.727   0.792
37272W        W 8801  43.826  39.779  11.459
37273W        W 8802  44.460  43.799  11.213
37274W        W 8803  40.675  42.389   2.189
37275W        W 8804   6.670  12.929   3.286
37276W        W 8805  35.926  12.070   5.164
37277W        W 8806  10.694   6.148  13.524
37278W        W 8807  22.110   1.477   2.850
37279W        W 8808  44.594   9.383  14.881
37280W        W 8809   7.388  22.827  12.526
37281W        W 8810   0.239  21.962   1.010
37282W        W 8811  34.005  12.682   4.638
37283W        W 8812  14.663  23.010  13.421
37284W        W 8813  16.112   9.364  14.418
37285W        W 8814  33.446  28.857   2.892
37286W        W 8815  32.391  39.442   3.341
37287W        W 8816  17.635  27.110   2.022
37288W        W 8817  23.376  34.816   0.679
37289W        W 8818  34.427  36.503  10.752
37290W        W 8819  12.220  44.322   0.492
37291W        W 8820   1.990   8.631  12.189
37292W        W 8821  24.077   6.271   3.529
37293W        W 8822  41.900  25.638   3.048
37294W        W 8823  15.922   1.542   2.605
37295W        W 8824  38.553  15.147   0.742
37296W        W 8825   1.321  29.806   4.924
37297W        W 8826  43.038   4.546   3.583
37298W        W 8827  18.364  23.123  11.280
37299W        W 8828  12.814  34.339   4.599
37300W        W 8829  21.605   5.661  11.390
37301W        W 8830  31.863  19.180  11.133
37302W        W 8831   8.497  33.912   4.144
37303W        W 8832  42.268   4.943   0.497
37304W        W 8833  40.764  12.279  13.281
37305W        W 8834  10.424  11.360  14.888
37306W        W 8835  40.621  28.967   3.683
37307W        W 8836  20.239   4.906  12.990
37308W        W 8837   8.634  41.781  14.756
37309W        W 8838   3.089  31.659   3.742
37310W        W 8839  30.995  10.247  10.664
37311W        W 8840  37.990  20.765  12.588
37312W        W 8841  43.726   8.250   4.166
37313W        W 8842  23.984   2.234   1.771
37314W        W 8843   1.240   3.237   1.362
37315W        W 8844  11.787   7.674  11.021
37316W        W 8845  11.363  34.506   0.694
37317W        W 8846  12.135   2.995  12.476
37318W        W 8847   7.902   1.464   3.173
37319W        W 8848  23.687  39.305  12.431
37320W        W 8849   8.095  16.819   1.896
37321W        W 8850   3.966   8.096  10.541
37322W        W 8851  44.105  15.862  13.522
37323W        W 8852  10.625  36.571  11.145
37324W        W 8853   6.753  21.629   0.877
37325W        W 8854   4.843   4.202  13.498
37326W        W 8855  26.714  40.927  14.828
37327W        W 8856  40.038  15.295   1.455
37328W        W 8857  30.579  43.854  13.960
37329W        W 8858  35.380  19.145   0.879
37330W        W 8859   2.479  29.559  14.149
37331W        W 8860  41.568   0.494   4.184
37332W        W 8861  29.989  13.668   2.398
37333W        W 8862   2.991  36.456   0.289
37334W        W 8863  13.827  27.042   0.223
37335W        W 8864  40.025  36.593  13.615
37336W        W 8865  31.347  32.012   4.079
37337W        W 8866  14.987  34.930  13.866
37338W        W 8867  34.938   0.448  12.152
37339W        W 8868   1.786  21.121   3.276
37340W        W 8869  16.961  14.671  14.843
37341W        W 8870  22.506   9.709  13.878
37342W        W 8871  19.852   8.689  12.480
37343W        W 8872  20.617   2.156  12.949
37344W        W 8873   4.368  11.268  10.667
37345W        W 8874  13.425  16.818  14.112
37346W        W 8875   0.784  41.465   2.403
37347W        W 8876  12.117  43.844   3.744
37348W        W 8877  19.560  25.230  13.040
37349W        W 8878  17.751  13.030  14.898
37350W        W 8879  36.736  43.106  13.931
37351W        W 8880  43.410   2.961   4.587
37352W        W 8881  33.915  36.832   1.848
37353W        W 8882  43.962   4.435   3.348
37354W        W 8883  19.269   7.595  13.037
37355W        W 8884  15.278  17.632   2.659
37356W        W 8885   4.724  44.054  14.077
37357W        W 8886  20.272  20.805  12.896
37358W        W 8887  32.625  29.195   4.096
37359W        W 8888  16.929  24.243  13.719
37360W        W 8889  27.706  14.668  11.941
37361W        W 8890  41.343  13.556   2.657
37362W        W 8891   1.050  39.302   4.208
37363W        W 8892  33.402  38.838  10.617
37364W        W 8893  23.290  31.614   4.326
37365W        W 8894  37.068  38.653   2.156
37366W        W 8895  23.629  39.312   3.260
37367W        W 8896   4.207  25.053   4.684
37368W        W 8897  36.481  19.545   1.777
37369W        W 8898  24.085  32.270   3.595
37370W        W 8899  24.187  39.802   2.841
37371W        W 8900   4.848   4.704   2.613
37372W        W 8901  13.819  12.167   2.972
37373W        W 8902  14.835  30.906  11.544
37374W        W 8903   8.806   4.972  11.207
37375W        W 8904  40.180  44.419  14.042
37376W        W 8905  16.833  26.720   2.779
37377W        W 8906   7.829   4.957  12.889
37378W        W 8907  24.244  43.802   2.229
37379W        W 8908  33.531  26.311   3.184
37380W        W 8909   2.368  42.278   4.850
37381W        W 8910  23.035  15.380  14.610
37382W        W 8911  24.479  18.467  12.150
37383W        W 8912  40.206   1.519   0.278
37384W        W 8913  20.136  18.175   2.665
37385W        W 8914  27.353  37.819  11.986
37386W        W 8915  23.177  33.852   0.357
37387W        W 8916  42.051   1.812   1.379
37388W        W 8917  38.472  15.979   0.230
37389W        W 8918  24.614  18.836   4.230
37390W        W 8919   2.272   9.788  14.750
37391W        W 8920   4.278  17.796   2.826
37392W        W 8921  24.024   4.762  13.372
37393W        W 8922  21.264  42.332  10.220
37394W        W 8923  26.819   3.870   4.929
37395W        W 8924  35.826   5.291   1.349
37396W        W 8925  18.681  12.723  13.852
37397W        W 8926  41.481  25.135  10.967
37398W        W 8927  25.186  23.470  14.813
37399W        W 8928  11.383  37.584   0.877
37400W        W 8929  38.886  37.463  14.086
37401W        W 8930   2.501  31.598   2.659
37402W        W 8931   5.729  37.037  13.075
37403W        W 8932   4.217   1.750  14.735
37404W        W 8933  32.869  16.162   1.854
37405W        W 8934  41.045   0.662   4.297
37406W        W 8935  41.763  24.883  13.808
37407W        W 8936  38.318  26.919  11.982
37408W        W 8937  44.444  42.877   3.590
37409W        W 8938  18.570  18.562  10.259
37410W        W 8939  14.744  40.506   2.613
37411W        W 8940  10.297  26.431   4.946
37412W        W 8941  17.254  15.049  11.183
37413W        W 8942  20.205  20.265  11.050
37414W        W 8943   8.695  11.654   0.790
37415W        W 8944   9.680   6.645   3.395
37416W        W 8945  37.899  17.803  14.358
37417W        W 8946  17.095  40.422   1.793
37418W        W 8947  23.291  21.254  10.973
37419W        W 8948  33.616  10.809   3.704
37420W        W 8949  38.449   3.181   4.845
37421W        W 8950   6.564  16.682   0.961
37422W        W 8951   7.693  22.884  14.380
37423W        W 8952  36.418   4.908  14.267
37424W        W 8953  34.629  29.037   2.296
37425W        W 8954  24.709  42.419  12.569
37426W        W 8955  13.037  29.664  10.706
37427W        W 8956  18.811  31.441   2.576
37428W        W 8957  42.501  18.609   3.616
37429W        W 8958   5.875  40.221   1.950
37430W        W 8959  17.464   1.878   4.298
37431W        W 8960  17.945  44.417   1.757
37432W        W 8961  23.540  30.525  12.450
37433W        W 8962  22.620  33.461   1.417
37434W        W 8963  30.069  12.778  13.913
37435W        W 8964  30.402  32.963  10.782
37436W        W 8965  28.221  30.121  12.882
37437W        W 8966  41.522  31.201  12.028
37438W        W 8967   5.670  16.549   4.548
37439W        W 8968  36.342  39.316   0.944
37440W        W 8969  16.324  37.063  13.262
37441W        W 8970  20.068  24.607  12.648
37442W        W 8971   7.901  24.628   3.207
37443W        W 8972  22.740  24.046  12.898
37444W        W 8973  40.475   1.648  12.983
37445W        W 8974  21.282  13.389   2.884
37446W        W 8975  44.462   4.982  14.951
37447W        W 8976  15.348  37.941  13.361
37448W        W 8977  14.537   0.443   3.121
37449W        W 8978  29.540  24.605  13.909
37450W        W 8979  12.180   7.536   3.770
37451W        W 8980  34.255  27.158   4.957
37452W        W 8981  36.957  44.499  13.967
37453W        W 8982  21.540  21.275  14.475
37454W        W 8983  17.053   1.004   1.888
37455W        W 8984  35.208   0.042  12.962
37456W        W 8985  41.434   0.514   1.738
37457W        W 8986  34.575  24.189  12.135
37458W        W 8987  37.817   2.526   3.631
37459W        W 8988  21.442  44.630   1.505
37460W        W 8989  11.254  25.909  13.938
37461W        W 8990   1.411   0.951   0.480
37462W        W 8991   6.487  38.488   0.924
37463W        W 8992  36.451  24.703   3.184
37464W        W 8993  12.638   8.894  10.563
37465W        W 8994  24.081   5.427   4.027
37466W        W 8995   3.220  27.961   3.806
37467W        W 8996   8.141  23.116   3.633
37468W        W 8997  39.463  24.010   3.750
37469W        W 8998  18.814  43.077  11.502
37470W        W 8999  10.907  37.806   0.920
37471W        W 9000  34.287  25.042   0.700
37472W        W 9001  17.656   8.663  11.754
37473W        W 9002  40.419  26.192  12.167
37474W        W 9003   6.852  38.937   1.152
37475W        W 9004   9.757  12.469  12.462
37476W        W 9005  37.272  27.404  11.936
37477W        W 9006  27.918  29.511  10.794
37478W        W 9007  36.124   2.287  12.953
37479W        W 9008  25.132  42.749   0.224
37480W        W 9009  15.463  13.747  12.338
37481W        W 9010  23.450   1.369   1.747
37482W        W 9011  27.273  32.429   3.260
37483W        W 9012  12.922  34.898   1.760
37484W        W 9013  39.799   6.689   4.539
37485W        W 9014   6.288   9.991   2.541
37486W        W 9015   8.177  24.000  13.974
37487W        W 9016   2.260  10.314   0.911
37488W        W 9017  18.047  17.289  13.817
37489W        W 9018  21.451  23.192   0.468
37490W        W 9019   1.962  21.298   4.895
37491W        W 9020   4.467  40.291   1.394
37492W        W 9021  37.891  39.082  13.956
37493W        W 9022  25.516   6.969   2.950
37494W        W 9023  24.367  21.039   5.150
37495W        W 9024   0.139  44.899   3.118
37496W        W 9025  42.270  43.953   4.394
37497W        W 9026  14.776  38.919   1.969
37498W        W 9027   6.211  24.922  13.524
37499W        W 9028  15.012  30.888  12.661
37500W        W 9029  26.658  36.388   3.172
37501W        W 9030  37.002  23.439   1.831
37502W        W 9031  20.632  31.608   2.972
37503W        W 9032  28.859   0.876  11.498
37504W        W 9033  36.572  12.771   2.597
37505W        W 9034  20.898  23.473   2.270
37506W        W 9035   5.604   0.771   2.427
37507W        W 9036  41.617  36.703   2.229
37508W        W 9037  43.326  10.507   0.369
37509W        W 9038  10.394  43.261  14.906
37510W        W 9039  42.869   9.121   3.119
37511W        W 9040  16.200  25.834   4.295
37512W        W 9041  23.138  42.830   4.021
37513W        W 9042  27.196  20.189   3.632
37514W        W 9043  37.950  15.175   4.123
37515W        W 9044  19.299   3.484  10.999
37516W        W 9045  16.131  12.219  11.555
37517W        W 9046   6.802  20.122  14.326
37518W        W 9047   8.548  22.460  12.855
37519W        W 9048   4.182  13.854   0.460
37520W        W 9049  44.683  38.556   2.436
37521W        W 9050  20.282   4.869   2.647
37522W        W 9051  11.096  36.529   4.277
37523W        W 9052   8.395   5.200   1.486
37524W        W 9053  32.874  24.725   1.306
37525W        W 9054  38.056  22.610  14.397
37526W        W 9055  28.451  27.921  13.953
37527W        W 9056   0.356   4.930   4.450
37528W        W 9057  14.180  39.346  10.759
37529W        W 9058  22.751  35.165   1.700
37530W        W 9059  28.098  15.183   0.849
37531W        W 9060  30.096  24.493   2.237
37532W        W 9061  23.851  44.317   1.393
37533W        W 9062   1.386  29.222  14.548
37534W        W 9063  38.394  22.588   0.264
37535W        W 9064  20.515  24.591   0.555
37536W        W 9065   0.521  44.295  14.381
37537W        W 9066  15.110   7.945  12.675
37538W        W 9067   9.189   7.997   4.249
37539W        W 9068  15.577   8.874   3.125
37540W        W 9069  42.846  13.511  10.718
37541W        W 9070  38.845  21.091  13.885
37542W        W 9071  15.412  25.867  11.454
37543W        W 9072   9.314  22.351   4.214
37544W        W 9073  42.958  27.474   3.419
37545W        W 9074  10.635  15.744   0.930
37546W        W 9075   2.070   6.299   0.701
37547W        W 9076  39.362  44.396  14.579
37548W        W 9077  27.442   5.342  12.547
37549W        W 9078  29.595  28.991   2.695
37550W        W 9079  31.075  38.757  12.935
37551W        W 9080  36.787  36.258   3.980
37552W        W 9081  11.750  13.526  10.399
37553W        W 9082  14.842  43.787   1.032
37554W        W 9083  17.791  26.463   1.192
37555W        W 9084   3.941   6.869   4.570
37556W        W 9085   9.509  23.406  13.226
37557W        W 9086   0.773  17.085  10.650
37558W        W 9087  13.291  35.337   2.349
37559W        W 9088  42.509  26.411  14.519
37560W        W 9089  14.730  11.249  13.790
37561W        W 9090   7.155  42.172   3.243
37562W        W 9091  30.477  30.952   0.146
37563W        W 9092  37.925   0.796  12.536
37564W        W 9093   4.926  43.749  12.889
37565W        W 9094  34.040  41.943   0.214
37566W        W 9095  19.546  43.394  12.572
37567W        W 9096  25.872  28.488   0.280
37568W        W 9097  35.842   2.455  14.410
37569W        W 9098  18.780  10.814   2.248
37570W        W 9099  37.348  12.352  12.730
37571W        W 9100  41.278  31.917  10.943
37572W        W 9101  32.789  29.891  14.924
37573W        W 9102  15.375   8.979  11.001
37574W        W 9103  37.933   4.824   1.620
37575W        W 9104  36.950  21.017   0.459
37576W        W 9105   8.119  44.216  11.293
37577W        W 9106  25.418  44.616   2.793
37578W        W 9107  21.876  25.362  11.865
37579W        W 9108  19.193  21.715   1.171
37580W        W 9109  16.374  39.558   2.866
37581W        W 9110  28.928  18.459  11.232
37582W        W 9111  23.387   3.272  11.520
37583W        W 9112  36.108   3.299   4.101
37584W        W 9113   5.416   7.003  14.923
37585W        W 9114  26.301  18.997  13.882
37586W        W 9115  27.560  33.348  12.543
37587W        W 9116  32.517  38.855   1.302
37588W        W 9117  18.067   7.147   3.766
37589W        W 9118  42.007  29.424  12.004
37590W        W 9119   7.889  22.058   2.335
37591W        W 9120  31.196  30.399   1.153
37592W        W 9121  23.903  18.670   4.674
37593W        W 9122  28.350  18.128   3.064
37594W        W 9123   6.341  38.731  11.741
37595W        W 9124  12.147  17.586  11.956
37596W        W 9125  14.685   4.801  10.081
37597W        W 9126  16.596  13.690  12.094
37598W        W 9127   1.850  39.454   0.716
37599W        W 9128  29.619  11.341  12.061
37600W        W 9129  26.976  34.993   2.914
37601W        W 9130  26.763  36.708  11.173
37602W        W 9131  37.351   3.236   0.428
37603W        W 9132  41.556   6.686   1.215
37604W        W 9133  42.011   5.242   0.835
37605W        W 9134  33.458   9.241  14.282
37606W        W 9135  40.162  42.469   2.317
37607W        W 9136  33.482  44.241  11.913
37608W        W 9137   4.564  14.118   4.709
37609W        W 9138   5.289  34.960  14.507
37610W        W 9139  30.904   0.240  12.300
37611W        W 9140  39.541  19.409  13.847
37612W        W 9141  42.281  40.740   4.778
37613W        W 9142  19.743   3.176  14.467
37614W        W 9143  33.293   3.833   2.922
37615W        W 9144  40.930  32.222  13.044
37616W        W 9145  25.459   6.289  12.528
37617W        W 9146  14.610   8.922  11.654
37618W        W 9147   4.727   5.611  11.027
37619W        W 9148  15.815  21.236   3.253
37620W        W 9149  27.890  37.184  13.579
37621W        W 9150   5.496  35.080   2.246
37622W        W 9151  25.408  32.955   1.880
37623W        W 9152   2.789  44.516  11.294
37624W        W 9153  16.066  38.306   3.135
37625W        W 9154  42.351  18.393  14.999
37626W        W 9155   5.407  40.448  13.620
37627W        W 9156   2.518   6.136  14.816
37628W        W 9157  41.039  25.628  14.004
37629W        W 9158  32.547  10.696   4.086
37630W        W 9159  26.948   6.893   1.333
37631W        W 9160  44.195  14.085   3.742
37632W        W 9161  33.412  12.689  10.205
37633W        W 9162  37.384  38.074  13.495
37634W        W 9163  33.648  42.395  14.284
37635W        W 9164  30.921  30.454  10.576
37636W        W 9165  44.833  29.711  14.374
37637W        W 9166   5.836  32.223   2.834
37638W        W 9167  37.887  31.533   2.352
37639W        W 9168  44.835  28.313  12.326
37640W        W 9169  29.114  37.528  11.416
37641W        W 9170  19.656  44.341   4.428
37642W        W 9171  21.803  38.884   1.463
37643W        W 9172  33.975  30.555   2.389
37644W        W 9173  33.137  22.601   2.598
37645W        W 9174   3.894  18.259  12.573
37646W        W 9175  40.794  21.661  11.506
37647W        W 9176  29.653   0.114   1.312
37648W        W 9177  19.581  42.488   3.715
37649W        W 9178  30.444   3.689  12.070
37650W        W 9179  44.584   5.393  12.989
37651W        W 9180  12.517  21.495  13.844
37652W        W 9181  35.226  22.337   0.976
37653W        W 9182  42.968  24.201   2.091
37654W        W 9183  16.349  39.418  14.530
37655W        W 9184  19.501  24.550   0.831
37656W        W 9185  31.925   2.949   2.389
37657W        W 9186  36.287  38.606   4.117
37658W        W 9187   1.170   5.941   0.362
37659W        W 9188  42.833  26.593  10.945
37660W        W 9189   9.872  16.574   1.453
37661W        W 9190   0.242  13.174   0.486
37662W        W 9191  13.142  16.222  12.420
37663W        W 9192   6.728   4.291  11.542
37664W        W 9193  42.993  36.110  12.384
37665W        W 9194  19.850  28.275   3.255
37666W        W 9195  27.205  15.339  11.510
37667W        W 9196  10.926  44.431   2.741
37668W        W 9197  16.226  28.985  13.604
37669W        W 9198   8.766  37.643   9.787
37670W        W 9199  12.043   2.687   1.846
37671W        W 9200  29.852  25.102  11.116
37672W        W 9201  12.768  28.715   1.848
37673W        W 9202   9.334  20.530   1.929
37674W        W 9203  38.024  38.714  11.963
37675W        W 9204  20.736  11.167  10.719
37676W        W 9205  24.549  21.626  11.650
37677W        W 9206  32.151  21.170  14.801
37678W        W 9207  21.156  40.276   1.403
37679W        W 9208  26.924  12.278   3.956
37680W        W 9209  31.522  19.109   4.925
37681W        W 9210  15.136  27.100   4.302
37682W        W 9211  23.720  19.401  14.727
37683W        W 9212  30.493   0.544   3.686
37684W        W 9213  32.785  15.032  12.619
37685W        W 9214  31.032  21.769   3.209
37686W        W 9215  33.146  31.859   2.814
37687W        W 9216  44.275   1.494   1.384
37688W        W 9217  20.344   2.368   1.530
37689W        W 9218   0.529  15.801  13.014
37690W        W 9219  34.889  43.912  11.649
37691W        W 9220  37.613  10.159   2.250
37692W        W 9221   6.751   0.316   0.507
37693W        W 9222  27.197  14.439   3.157
37694W        W 9223  14.885  15.111   4.736
37695W        W 9224  32.105  26.576  14.404
37696W        W 9225   8.349  44.641  13.881
37697W        W 9226  41.094   3.479  12.476
37698W        W 9227  17.221  15.224   4.576
37699W        W 9228   4.592  31.632   2.138
37700W        W 9229  37.027   5.179   0.430
37701W        W 9230  15.081   4.355  12.501
37702W        W 9231  26.555  23.913   3.284
37703W        W 9232   7.228  16.581  12.886
37704W        W 9233  26.315  22.657   1.420
37705W        W 9234  19.652  18.196  11.090
37706W        W 9235   5.248  36.055   1.112
37707W        W 9236  29.607   6.890  11.866
37708W        W 9237  36.443  34.100   4.687
37709W        W 9238  33.242  35.305  11.998
37710W        W 9239  28.352  41.289   0.869
37711W        W 9240  30.080  27.711  14.753
37712W        W 9241  23.646  21.976  12.112
37713W        W 9242  32.755  27.039  12.304
37714W        W 9243   0.749  12.859   2.384
37715W        W 9244   0.052  39.830  13.575
37716W        W 9245  40.315  27.112   1.218
37717W        W 9246  29.227  19.683  14.639
37718W        W 9247   6.006  42.828   0.213
37719W        W 9248  10.262  33.936  13.294
37720W        W 9249  25.260  11.140   3.871
37721W        W 9250  34.469   2.813  13.576
37722W        W 9251  40.289  37.911  14.081
37723W        W 9252  13.427  16.865   3.009
37724W        W 9253  39.182  41.744   2.342
37725W        W 9254  11.756  42.735  14.536
37726W        W 9255   1.839  10.309  12.138
37727W        W 9256  23.475  40.592  12.925
37728W        W 9257  16.101  11.669  12.059
37729W        W 9258   0.808  40.681   0.438
37730W        W 9259  36.517  14.772  13.377
37731W        W 9260  22.608  43.422   0.909
37732W        W 9261  23.500  20.088   4.772
37733W        W 9262  19.115   8.646  11.979
37734W        W 9263  21.495  15.985   0.894
37735W        W 9264   9.157  37.356   0.977
37736W        W 9265  39.575   5.172   0.505
37737W        W 9266  44.426  21.474   0.929
37738W        W 9267   6.256  13.756  14.779
37739W        W 9268  15.358  18.637   3.988
37740W        W 9269  28.937  21.080  11.098
37741W        W 9270  15.141  26.179   3.933
37742W        W 9271  41.765  24.748   2.616
37743W        W 9272   8.164  16.277  12.021
37744W        W 9273  10.522   3.343   5.041
37745W        W 9274   0.818  11.625   2.868
37746W        W 9275   3.442  26.031  13.893
37747W        W 9276  24.662  21.286   3.224
37748W        W 9277  35.124  23.006  10.819
37749W        W 9278   6.415  35.283  11.712
37750W        W 9279  36.638   8.673   1.618
37751W        W 9280  34.812  35.302  14.226
37752W        W 9281  28.068  11.194  14.734
37753W        W 9282  12.794   0.946  13.973
37754W        W 9283  29.768  15.648  13.270
37755W        W 9284   3.007  27.041   3.361
37756W        W 9285  30.941  10.799  11.179
37757W        W 9286  21.713  43.929  11.948
37758W        W 9287   9.758  29.937  11.434
37759W        W 9288  30.332  32.132  11.615
37760W        W 9289  20.497  20.098  10.599
37761W        W 9290   1.721  41.849  13.756
37762W        W 9291   7.978  44.061  10.363
37763W        W 9292  35.035  39.681  11.106
37764W        W 9293   3.770   1.413  13.295
37765W        W 9294   8.688  26.194   1.104
37766W        W 9295  15.970  27.005  13.870
37767W        W 9296  25.443  17.323  12.196
37768W        W 9297  14.543   0.659   4.786
37769W        W 9298  18.991  26.949   4.505
37770W        W 9299   5.010  29.363   3.827
37771W        W 9300   8.620   9.720  14.763
37772W        W 9301  38.044  38.361  10.984
37773W        W 9302  26.765  20.245  12.665
37774W        W 9303  40.932   6.267   0.485
37775W        W 9304  24.222   5.384   3.055
37776W        W 9305   8.796  40.114  11.918
37777W        W 9306  10.140  26.209  12.971
37778W        W 9307  38.971  28.189   0.426
37779W        W 9308  19.701  35.794  14.392
37780W        W 9309  18.595  15.919   0.928
37781W        W 9310  20.694   2.214  14.951
37782W        W 9311  15.728   3.837  14.465
37783W        W 9312   3.567   4.217  12.448
37784W        W 9313   2.098  26.023   0.321
37785W        W 9314  12.159   4.002  11.030
37786W        W 9315  35.756  18.111  10.656
37787W        W 9316  34.032  10.343  11.340
37788W        W 9317  18.586  43.361  11.954
37789W        W 9318  42.856   7.348  14.709
37790W        W 9319  13.803  26.903   4.723
37791W        W 9320  21.171  35.243  14.852
37792W        W 9321   6.703   4.577   1.378
37793W        W 9322   5.832   3.375  10.980
37794W        W 9323  27.415  35.859   0.495
37795W        W 9324  28.357  27.315  12.849
37796W        W 9325  37.902   6.289   3.816
37797W        W 9326  28.395   9.940  14.484
37798W        W 9327  19.727  18.467  13.530
37799W        W 9328  15.895  24.681   0.864
37800W        W 9329  44.837   9.818  13.928
37801W        W 9330  39.709  12.847  13.902
37802W        W 9331  15.552  25.667  13.803
37803W        W 9332  30.912  22.287   3.150
37804W        W 9333   2.828  12.774   4.119
37805W        W 9334  35.569  16.258   2.245
37806W        W 9335  29.666  16.261  13.487
37807W        W 9336  14.902  32.381  11.520
37808W        W 9337  38.622  18.279  12.025
37809W        W 9338   6.783  14.098  12.517
37810W        W 9339  42.560  16.222  10.818
37811W        W 9340  41.480   5.060   1.821
37812W        W 9341  12.307   8.073   3.725
37813W        W 9342  14.355  17.778   2.069
37814W        W 9343  20.835  40.068   1.758
37815W        W 9344  21.545  13.261  11.901
37816W        W 9345  38.987  38.223   3.615
37817W        W 9346  31.644  44.935   2.117
37818W        W 9347  42.506   2.724   4.618
37819W        W 9348  21.661  12.729  10.718
37820W        W 9349  41.941   0.770  14.003
37821W        W 9350   3.350   5.463  11.260
37822W        W 9351   2.542  38.007   4.295
37823W        W 9352  12.282  13.380   1.751
37824W        W 9353  24.232  34.786  10.759
37825W        W 9354  26.503  29.085  13.168
37826W        W 9355  21.140   3.555  10.359
37827W        W 9356   5.231  39.308  12.014
37828W        W 9357   0.350  19.482  13.849
37829W        W 9358  38.865  40.944  12.076
37830W        W 9359   5.896  36.368  10.308
37831W        W 9360  28.939  44.398   4.175
37832W        W 9361  11.798  21.980  12.861
37833W        W 9362  29.333   4.823  10.685
37834W        W 9363  43.513  20.933  14.842
37835W        W 9364  27.644  25.047   0.478
37836W        W 9365  44.965  24.006  12.888
37837W        W 9366  26.587  43.594  11.170
37838W        W 9367  29.787  18.095  11.645
37839W        W 9368  12.106  26.434  10.216
37840W        W 9369   1.030  16.098  13.600
37841W        W 9370  28.658  26.435   0.979
37842W        W 9371  26.092   3.785  11.562
37843W        W 9372  34.664  24.441   2.421
37844W        W 9373  22.252  38.630  10.975
37845W        W 9374  23.602  31.125  11.608
37846W        W 9375  21.258   7.272  11.258
37847W        W 9376   8.489  34.785   0.588
37848W        W 9377  37.551  38.738   1.938
37849W        W 9378   5.096  20.684   5.000
37850W        W 9379  37.913  35.470   2.317
37851W        W 9380  15.213  37.696  12.896
37852W        W 9381  22.009  33.264   4.515
37853W        W 9382  14.638   1.475  12.562
37854W        W 9383  19.015  41.758   2.726
37855W        W 9384  10.986  15.489   4.495
37856W        W 9385  22.666  37.338   1.778
37857W        W 9386   6.937  41.552  12.110
37858W        W 9387  29.215  10.326  14.367
37859W        W 9388  15.599  42.758   3.192
37860W        W 9389   1.048  18.461   0.580
37861W        W 9390  37.890  20.059   2.235
37862W        W 9391  17.209  27.283   2.267
37863W        W 9392  30.950  15.165  12.559
37864W        W 9393   1.451   7.405   4.147
37865W        W 9394  28.151  37.621  13.682
37866W        W 9395  28.185  35.769   1.187
37867W        W 9396  18.128  37.786  13.525
37868W        W 9397  42.472  39.527  12.104
37869W        W 9398   0.652  40.299  13.892
37870W        W 9399  18.741  12.386   3.228
37871W        W 9400  15.362   9.427   2.609
37872W        W 9401   8.384  30.575   2.336
37873W        W 9402   5.270  22.052   3.071
37874W        W 9403  21.661   7.458   4.002
37875W        W 9404  32.028   8.696   2.151
37876W        W 9405   0.974  18.367  12.049
37877W        W 9406  16.297  17.620  11.647
37878W        W 9407  15.245  43.858  14.045
37879W        W 9408  32.520  11.390   1.939
37880W        W 9409  44.602   1.099   1.355
37881W        W 9410  43.413  26.455   4.328
37882W        W 9411  13.134  32.598   4.679
37883W        W 9412  22.832  40.764   1.335
37884W        W 9413  37.851  14.276  10.881
37885W        W 9414  15.650  31.646  13.400
37886W        W 9415  40.899   7.930  14.722
37887W        W 9416  44.575   7.384   0.739
37888W        W 9417   7.263  14.546  12.037
37889W        W 9418   0.514  30.199   4.400
37890W        W 9419  15.647  16.485   2.286
37891W        W 9420  22.639   7.239   5.237
37892W        W 9421  32.467  12.759  10.582
37893W        W 9422   6.247  27.063   3.137
37894W        W 9423  35.082  38.038   2.738
37895W        W 9424   0.109  33.052   4.523
37896W        W 9425  17.852  41.421  14.848
37897W        W 9426  34.879  22.720   0.866
37898W        W 9427  21.462  13.968   2.319
37899W        W 9428  17.537   3.949  13.854
37900W        W 9429  40.029  20.230   1.845
37901W        W 9430  25.971   7.669  13.999
37902W        W 9431   0.975  21.110   0.334
37903W        W 9432   9.207  14.892   3.589
37904W        W 9433  23.433  13.422   2.433
37905W        W 9434  37.869  30.501  11.909
37906W        W 9435  14.761  24.577   1.620
37907W        W 9436  15.268   0.367   1.722
37908W        W 9437  13.842  12.357   3.455
37909W        W 9438  40.456  41.566  13.473
37910W        W 9439  21.977   9.225  11.891
37911W        W 9440  29.000  21.524  13.422
37912W        W 9441  15.601  18.994  11.995
37913W        W 9442  31.467  16.168  12.962
37914W        W 9443  38.902  11.940  14.891
37915W        W 9444   9.249   7.757   1.467
37916W        W 9445  12.840  20.526   0.722
37917W        W 9446  37.391   8.407  12.957
37918W        W 9447  14.688  27.695   0.927
37919W        W 9448  11.676  22.605   4.438
37920W        W 9449  16.642  30.567  14.366
37921W        W 9450   7.930   0.332  14.444
37922W        W 9451  12.928  13.118  11.852
37923W        W 9452  36.126  12.165   2.136
37924W        W 9453  40.753   9.845  13.356
37925W        W 9454   3.470  42.249   2.638
37926W        W 9455   2.015  28.576  10.501
37927W        W 9456  21.123  37.873   1.827
37928W        W 9457  34.195  22.121   2.488
37929W        W 9458  40.721   3.838   3.736
37930W        W 9459  15.260  43.749   3.326
37931W        W 9460  26.131  42.367  13.772
37932W        W 9461  21.442  34.042  13.796
37933W        W 9462   9.054  44.766   2.765
37934W        W 9463  27.950   8.141   3.847
37935W        W 9464  25.443  19.260   1.797
37936W        W 9465  23.444   9.895  14.941
37937W        W 9466   7.349  16.762   1.408
37938W        W 9467   1.792   8.748   1.125
37939W        W 9468  18.505  11.336   0.014
37940W        W 9469  16.446  28.475   4.776
37941W        W 9470  23.341  18.683  11.224
37942W        W 9471  36.829  25.383  11.985
37943W        W 9472   4.314  10.463  10.711
37944W        W 9473  41.249  15.676  11.056
37945W        W 9474  25.965  18.746   0.030
37946W        W 9475  38.776  12.320   4.864
37947W        W 9476  34.850   6.951   1.888
37948W        W 9477  12.126  11.201   4.571
37949W        W 9478  18.309   2.966  13.291
37950W        W 9479  31.461   2.359   4.362
37951W        W 9480  13.646  16.133  11.514
37952W        W 9481  43.643  37.582  11.414
37953W        W 9482   4.578   6.095  11.143
37954W        W 9483  10.140  42.271   2.297
37955W        W 9484  19.178  14.227   1.154
37956W        W 9485  14.671  44.835  13.534
37957W        W 9486  43.807  16.844   0.015
37958W        W 9487  37.660  28.647  14.988
37959W        W 9488  23.165  25.364   0.771
37960W        W 9489  12.593  34.188  10.352
37961W        W 9490  42.760  37.814   2.279
37962W        W 9491  14.734  25.967   1.118
37963W        W 9492  27.641  10.319   0.272
37964W        W 9493  44.420  23.039   2.226
37965W        W 9494   3.612   5.856   1.377
37966W        W 9495  25.201  23.203   2.149
37967W        W 9496  14.153  26.039  10.924
37968W        W 9497  22.546   1.972  12.888
37969W        W 9498  29.853   9.819  12.574
37970W        W 9499  12.141  30.992   2.324
37971W        W 9500  38.757  39.485   4.156
37972W        W 9501  14.794  21.014   3.684
37973W        W 9502   6.429  27.219  13.500
37974W        W 9503  12.485   8.167   4.869
37975W        W 9504  39.921   8.788   0.372
37976W        W 9505  44.612  18.987   1.368
37977W        W 9506  29.087  13.196  13.462
37978W        W 9507  38.797  44.996  11.038
37979W        W 9508  29.981  15.319   1.793
37980W        W 9509   7.212  28.932   4.731
37981W        W 9510  15.636  41.712   0.475
37982W        W 9511  35.710   1.475   1.295
37983W        W 9512   0.843  16.632   1.278
37984W        W 9513  27.210   7.412  13.574
37985W        W 9514  13.291   0.027  10.539
37986W        W 9515   2.280  39.436   1.053
37987W        W 9516   0.892   7.612   0.513
37988W        W 9517  31.079   3.628   4.754
37989W        W 9518  24.549  34.609   1.914
37990W        W 9519   4.917   7.280  13.486
37991W        W 9520  34.567   9.678   0.152
37992W        W 9521  19.284  14.238  10.635
37993W        W 9522   2.234   4.672   4.238
37994W        W 9523  20.618  15.723   4.530
37995W        W 9524  24.016   8.288  13.049
37996W        W 9525   9.770  23.179  10.990
37997W        W 9526  30.762  34.965  12.893
37998W        W 9527  36.652  21.328   2.394
37999W        W 9528  42.073   2.322   0.684
38000W        W 9529  11.706   2.843   1.236
38001W        W 9530  28.555  24.516  11.853
38002W        W 9531   7.188  33.989   1.669
38003W        W 9532   8.323   9.425  10.602
38004W        W 9533  19.716   8.536   4.984
38005W        W 9534  34.953  20.117   4.505
38006W        W 9535  38.626  43.985   2.310
38007W        W 9536  24.866   0.065  12.543
38008W        W 9537  15.841   9.099  11.195
38009W        W 9538  25.450  41.213   4.081
38010W        W 9539   7.953  18.942  12.538
38011W        W 9540   5.571   7.763  10.759
38012W        W 9541  18.329  25.440  13.500
38013W        W 9542  28.928  31.447  12.484
38014W        W 9543  10.731  20.598   4.609
38015W        W 9544  40.579  21.361  13.527
38016W        W 9545  19.735  31.106  10.729
38017W        W 9546  11.383  18.536   1.792
38018W        W 9547  37.312  27.671   3.580
38019W        W 9548  25.678  40.227  14.921
38020W        W 9549   6.617  41.567  12.550
38021W        W 9550  38.850  17.174  12.438
38022W        W 9551  25.800  19.485  10.095
38023W        W 9552  40.826   2.011   4.165
38024W        W 9553  12.451  20.592   2.156
38025W        W 9554  20.439  39.434  14.506
38026W        W 9555   5.315  26.396   4.150
38027W        W 9556  15.562   6.575  11.182
38028W        W 9557  40.878  26.976  14.978
38029W        W 9558   2.973  41.995   1.853
38030W        W 9559  21.790   8.915  13.279
38031W        W 9560  41.543  33.981   0.724
38032W        W 9561  28.117  13.328   0.456
38033W        W 9562  11.693  40.855   0.979
38034W        W 9563   4.373  11.666  13.988
38035W        W 9564  25.410  29.062   0.264
38036W        W 9565  35.148   8.639   3.260
38037W        W 9566   3.381  12.469   2.144
38038W        W 9567  24.842  43.742   4.777
38039W        W 9568   3.904  34.696   4.982
38040W        W 9569  33.357  35.591  13.341
38041W        W 9570  19.430  34.655  14.985
38042W        W 9571  34.483  14.475  10.819
38043W        W 9572  18.500  41.770  13.545
38044W        W 9573   7.389  33.427   3.091
38045W        W 9574  26.155  16.227   2.724
38046W        W 9575  27.059   7.277  11.516
38047W        W 9576   9.305  16.351   1.675
38048W        W 9577  19.520  21.566  13.966
38049W        W 9578   5.545  37.909  12.071
38050W        W 9579   4.235  15.067  14.617
38051W        W 9580  31.158  29.622  14.441
38052W        W 9581  11.878  33.935   1.417
38053W        W 9582  23.007  42.422   4.390
38054W        W 9583  12.513  18.710   5.117
38055W        W 9584  20.842  28.997   3.796
38056W        W 9585  28.521  27.440  10.639
38057W        W 9586  11.829  31.962   2.586
38058W        W 9587  14.481  26.479   4.507
38059W        W 9588  19.750  17.362  10.600
38060W        W 9589  30.500  14.721   0.131
38061W        W 9590   3.142  37.864  11.458
38062W        W 9591  12.367  42.096  13.659
38063W        W 9592  44.236   6.268  12.470
38064W        W 9593  18.955  27.472  11.620
38065W        W 9594   8.159  17.991  13.106
38066W        W 9595  27.059  33.678   0.780
38067W        W 9596  22.775   9.914   3.230
38068W        W 9597  35.284  37.835   3.297
38069W        W 9598  33.999  11.924  13.570
38070W        W 9599   3.918   3.189   4.273
38071W        W 9600  33.919  21.533  14.452
38072W        W 9601  23.948  28.762   4.547
38073W        W 9602   5.825   0.753  10.698
38074W        W 9603  30.489  33.379  12.143
38075W        W 9604   8.858   3.056   0.959
38076W        W 9605   4.305  17.222  13.120
38077W        W 9606  14.588  12.113   3.783
38078W        W 9607  41.820  38.098  14.790
38079W        W 9608  37.336  39.462   2.412
38080W        W 9609   0.620  13.958   0.641
38081W        W 9610  16.297   2.287  12.078
38082W        W 9611  29.484  42.731   0.289
38083W        W 9612  43.318  12.146   2.381
38084W        W 9613  10.819  18.528   0.810
38085W        W 9614   9.136  39.359   3.744
38086W        W 9615  34.065  34.888  11.182
38087W        W 9616  14.307  29.180  11.587
38088W        W 9617   8.184  30.430  11.440
38089W        W 9618  13.339  38.625  12.477
38090W        W 9619  35.434  17.089   3.913
38091W        W 9620  10.054  28.657  11.644
38092W        W 9621  16.281  12.227   1.293
38093W        W 9622  30.393  28.257   2.887
38094W        W 9623  41.096  22.249  12.519
38095W        W 9624  36.911   0.015  14.828
38096W        W 9625  23.513  42.048   3.689
38097W        W 9626   1.624  14.820  12.867
38098W        W 9627  26.927  38.713   0.895
38099W        W 9628  43.338  30.388   2.822
38100W        W 9629  18.253  40.711  10.699
38101W        W 9630   5.677  27.187  11.448
38102W        W 9631  41.411  14.221   4.607
38103W        W 9632  35.075  33.550   4.131
38104W        W 9633  25.713  40.417  13.502
38105W        W 9634  37.977  36.488   4.878
38106W        W 9635  17.780  25.530  11.426
38107W        W 9636  40.199  43.236  12.018
38108W        W 9637  42.800   2.272  14.895
38109W        W 9638  36.792  32.747   3.971
38110W        W 9639  10.663  29.572  14.013
38111W        W 9640  43.811  25.529  11.007
38112W        W 9641  39.700  30.507   3.320
38113W        W 9642  21.253  30.809  10.699
38114W        W 9643  21.815  29.234   3.786
38115W        W 9644  29.875  20.323  14.820
38116W        W 9645  21.337  19.238   3.635
38117W        W 9646  28.250   4.741   2.397
38118W        W 9647  11.741  42.129   0.358
38119W        W 9648  29.462  39.168   2.154
38120W        W 9649  33.000  21.151  13.621
38121W        W 9650  28.759  24.110  13.012
38122W        W 9651  22.897  12.236   3.864
38123W        W 9652  32.600   0.252   4.236
38124W        W 9653  30.039  43.255   2.351
38125W        W 9654  37.785  40.897  14.414
38126W        W 9655   0.255  27.043  11.678
38127W        W 9656  13.270  27.775  12.606
38128W        W 9657  38.471  10.863  12.055
38129W        W 9658  44.414  30.869   0.017
38130W        W 9659  16.036   9.624  13.950
38131W        W 9660  18.554  34.446   0.747
38132W        W 9661  29.078  37.568   4.570
38133W        W 9662  35.828  34.306   1.708
38134W        W 9663  39.024  18.065   2.857
38135W        W 9664   7.669  23.042  11.431
38136W        W 9665  43.018  18.690  12.951
38137W        W 9666  22.462  11.744  14.882
38138W        W 9667  15.120  31.001   0.792
38139W        W 9668   5.113   8.843   3.348
38140W        W 9669   9.086  14.256  11.944
38141W        W 9670   2.544  36.449   5.271
38142W        W 9671  23.244  18.201  11.947
38143W        W 9672  15.580   3.283   3.218
38144W        W 9673  39.804  29.445  13.992
38145W        W 9674  40.803  13.338   4.579
38146W        W 9675   8.134  27.190   1.539
38147W        W 9676  33.619  19.647  11.986
38148W        W 9677  41.899  24.412   1.703
38149W        W 9678  19.692  26.142   1.312
38150W        W 9679  44.925  18.458  12.355
38151W        W 9680   6.652  34.410   4.141
38152W        W 9681  22.052  22.921   4.308
38153W        W 9682  41.573   2.966   3.871
38154W        W 9683  14.524   8.993   3.225
38155W        W 9684   9.715  25.522   3.498
38156W        W 9685  43.138  36.557   3.984
38157W        W 9686  40.645  40.900   0.882
38158W        W 9687  39.720  21.097  14.442
38159W        W 9688  37.522   7.252   4.661
38160W        W 9689  17.744  42.808  12.362
38161W        W 9690  27.084  15.218   4.109
38162W        W 9691  27.882  27.128  14.191
38163W        W 9692   2.841  16.504   1.694
38164W        W 9693  33.973  21.798  12.466
38165W        W 9694  26.880  39.488  11.985
38166W        W 9695  30.629  36.391  13.772
38167W        W 9696   8.678   0.996  10.315
38168W        W 9697  14.205  25.269   1.812
38169W        W 9698  23.218  27.984   2.904
38170W        W 9699  24.100  34.836  13.418
38171W        W 9700  37.139  25.175   2.629
38172W        W 9701  41.966  11.867  14.504
38173W        W 9702  30.096  41.737   3.337
38174W        W 9703  40.930  25.118  13.407
38175W        W 9704   8.915  15.333   2.324
38176W        W 9705  42.782   4.705   2.148
38177W        W 9706  36.902  36.355  14.736
38178W        W 9707  29.372   2.920  14.865
38179W        W 9708  30.526   5.685  10.719
38180W        W 9709  34.529  17.952   0.292
38181W        W 9710  32.475  33.382  13.976
38182W        W 9711  11.645  33.028   2.919
38183W        W 9712  15.950  31.515  14.780
38184W        W 9713  37.641  37.551  11.055
38185W        W 9714   1.725  34.133   2.767
38186W        W 9715   9.204  23.431   3.210
38187W        W 9716  17.260  28.917   2.807
38188W        W 9717  26.129  16.067   1.268
38189W        W 9718  29.390   7.769   0.801
38190W        W 9719  15.108  22.210   4.081
38191W        W 9720  29.635  42.267  13.497
38192W        W 9721  30.198  29.393   5.013
38193W        W 9722   5.796  41.263   4.383
38194W        W 9723   7.876  11.265   1.943
38195W        W 9724  31.652   0.631   0.361
38196W        W 9725  22.146  15.632   4.416
38197W        W 9726   0.978  12.913   1.856
38198W        W 9727   8.810  40.842  13.740
38199W        W 9728  40.100  19.570  13.839
38200W        W 9729   9.937  44.009   0.163
38201W        W 9730  16.561  16.592   3.220
38202W        W 9731   6.648  12.892  12.942
38203W        W 9732  40.287  22.360  14.997
38204W        W 9733   0.505   2.283  10.722
38205W        W 9734  17.198  24.074   1.945
38206W        W 9735  30.988   7.060   1.506
38207W        W 9736  20.639  37.983  14.326
38208W        W 9737  37.868  11.860   0.740
38209W        W 9738  26.017   7.930   1.915
38210W        W 9739  25.673  17.698   0.196
38211W        W 9740  43.560  36.419  11.578
38212W        W 9741  25.002  42.394   3.220
38213W        W 9742  16.232  36.835  14.253
38214W        W 9743   0.277  42.393   1.338
38215W        W 9744  25.495  36.087   1.273
38216W        W 9745  11.220   6.768   1.462
38217W        W 9746  38.850  44.317   0.759
38218W        W 9747  22.682   3.662   3.881
38219W        W 9748   9.819   4.200  12.190
38220W        W 9749  30.111  10.563  11.909
38221W        W 9750  27.802  29.475  12.519
38222W        W 9751  10.290   1.736  14.772
38223W        W 9752  31.457   9.220  12.423
38224W        W 9753  17.703  32.917  11.390
38225W        W 9754   4.335  23.839  11.452
38226W        W 9755  41.340   8.212  14.453
38227W        W 9756  17.724  22.788  13.188
38228W        W 9757  38.962  18.834   3.257
38229W        W 9758  34.619  23.969   3.678
38230W        W 9759   1.122   8.953  11.675
38231W        W 9760  40.109  11.213  10.671
38232W        W 9761  14.206  22.857  14.433
38233W        W 9762  23.481  16.773   2.418
38234W        W 9763  22.048  18.480  14.914
38235W        W 9764   5.786  12.288   4.140
38236W        W 9765  35.305  24.514  12.580
38237W        W 9766   9.741  13.985   4.634
38238W        W 9767  12.505  35.634  13.027
38239W        W 9768  39.258  35.970  11.669
38240W        W 9769  16.929  38.588  14.782
38241W        W 9770  44.477  32.993   2.141
38242W        W 9771   2.426  27.905  11.080
38243W        W 9772   6.148  34.373   3.245
38244W        W 9773  31.154  19.455   1.864
38245W        W 9774  34.514  30.195   0.844
38246W        W 9775  13.465  16.157   0.853
38247W        W 9776  33.636  44.352   1.650
38248W        W 9777  30.618  26.566   4.086
38249W        W 9778   3.484  41.916  12.978
38250W        W 9779  30.468   6.124   2.843
38251W        W 9780  18.040  18.765   4.260
38252W        W 9781  38.918  12.664  11.234
38253W        W 9782  11.778   9.260  13.483
38254W        W 9783  16.554   2.330  11.627
38255W        W 9784   7.746  30.050   4.639
38256W        W 9785  23.149  12.415  10.598
38257W        W 9786   0.316  40.139  14.513
38258W        W 9787  31.923   3.886  13.614
38259W        W 9788   2.819  10.668  14.759
38260W        W 9789  44.776  20.164  10.637
38261W        W 9790  26.219   7.645  12.698
38262W        W 9791  14.434   8.440  11.609
38263W        W 9792  36.897  17.566   1.971
38264W        W 9793   8.992   1.765  14.340
38265W        W 9794  14.891  10.430  13.513
38266W        W 9795  42.478   2.991   3.185
38267W        W 9796  25.952  13.167   1.293
38268W        W 9797   4.861  37.999   2.223
38269W        W 9798  15.121  19.249  12.002
38270W        W 9799  44.039  30.054   4.309
38271W        W 9800  39.019  14.496   3.016
38272W        W 9801  22.291  24.888  13.469
38273W        W 9802  22.548  20.901   0.464
38274W        W 9803  28.385   7.253  11.018
38275W        W 9804   3.970  17.232  14.917
38276W        W 9805  11.468  14.867  11.128
38277W        W 9806  42.143   1.840   2.441
38278W        W 9807  31.097  10.045  12.501
38279W        W 9808  10.920  34.591   0.948
38280W        W 9809  26.189  21.057  13.046
38281W        W 9810  18.850   0.714   3.409
38282W        W 9811   1.379  19.771   3.369
38283W        W 9812  25.523  25.495  13.453
38284W        W 9813   9.327  37.826   3.264
38285W        W 9814  18.580  13.709   2.222
38286W        W 9815  39.184  27.637  12.927
38287W        W 9816   7.958  34.249  12.446
38288W        W 9817  41.767   2.972  13.379
38289W        W 9818   2.225  38.322   0.233
38290W        W 9819  30.986  29.511   3.424
38291W        W 9820  39.084  14.430   5.033
38292W        W 9821  33.475  25.147   1.953
38293W        W 9822  39.010  29.886  10.514
38294W        W 9823  13.180  17.802  13.841
38295W        W 9824  18.172  14.294   4.863
38296W        W 9825  21.254   1.716   4.475
38297W        W 9826  16.195   5.483   3.026
38298W        W 9827  21.652  12.281   2.842
38299W        W 9828  39.394  35.306   1.923
38300W        W 9829  20.904  32.502   1.275
38301W        W 9830  26.633  41.979  13.433
38302W        W 9831   1.806  17.111  13.297
38303W        W 9832  19.487  36.730   3.720
38304W        W 9833  41.997   4.254  11.621
38305W        W 9834  43.297  20.098  14.589
38306W        W 9835  19.112  31.190   4.259
38307W        W 9836   1.795  43.943  12.039
38308W        W 9837  10.976  21.712  14.765
38309W        W 9838  22.133  34.504  14.616
38310W        W 9839  42.283  28.920   0.775
38311W        W 9840  15.173  27.620   4.408
38312W        W 9841  35.858  44.813  10.687
38313W        W 9842  25.108  18.204   3.740
38314W        W 9843  34.525  42.898  10.751
38315W        W 9844   6.974   2.474  14.970
38316W        W 9845   4.042  15.362   4.160
38317W        W 9846  26.459   7.390   4.531
38318W        W 9847  11.861  42.661   5.028
38319W        W 9848  19.802  31.468   1.195
38320W        W 9849  10.835  17.223   2.113
38321W        W 9850  19.338  34.890   2.711
38322W        W 9851  13.408  32.704  14.840
38323W        W 9852  27.457   0.255   3.394
38324W        W 9853  25.779   0.785   4.167
38325W        W 9854  33.315  36.507  14.954
38326W        W 9855  17.852  24.793  14.392
38327W        W 9856   2.843  39.083   2.830
38328W        W 9857  20.626  21.098   2.902
38329W        W 9858   2.968  39.403  14.860
38330W        W 9859  30.949  36.385   1.938
38331W        W 9860  25.031  36.579   1.017
38332W        W 9861   4.421  35.390   4.792
38333W        W 9862  39.517  26.765   3.663
38334W        W 9863  19.977  17.328   3.336
38335W        W 9864  44.862   8.932   3.771
38336W        W 9865  12.113  36.934  14.363
38337W        W 9866  26.561  33.114   4.354
38338W        W 9867   7.393  31.603  14.041
38339W        W 9868   4.919   7.167  13.985
38340W        W 9869  17.678  12.546   0.180
38341W        W 9870  15.104  37.351   0.850
38342W        W 9871  36.811  21.554  12.525
38343W        W 9872  18.858   1.497   1.365
38344W        W 9873  43.680  40.433  12.059
38345W        W 9874   2.363  10.287  13.528
38346W        W 9875   9.657   9.724   2.269
38347W        W 9876  21.013   4.687  10.750
38348W        W 9877  28.756  18.654  13.950
38349W        W 9878  27.956  36.027   2.663
38350W        W 9879  31.870   1.862  13.134
38351W        W 9880  25.083  11.362  12.129
38352W        W 9881  10.134  39.517  13.306
38353W        W 9882  16.106   9.250   0.199
38354W        W 9883  37.942  37.521  13.977
38355W        W 9884  12.622  14.225  14.540
38356W        W 9885  30.005   1.724  10.373
38357W        W 9886   0.237   4.709  13.558
38358W        W 9887  35.346  41.968   2.790
38359W        W 9888  28.471  40.023  12.390
38360W        W 9889  28.824  22.908   1.942
38361W        W 9890   2.517  36.411   2.322
38362W        W 9891  44.789  36.976  11.916
38363W        W 9892  14.373  24.674  13.587
38364W        W 9893   8.888  39.102   0.369
38365W        W 9894   8.961  21.468  13.817
38366W        W 9895  43.391  33.888   3.805
38367W        W 9896  28.824  31.929   0.431
38368W        W 9897  38.760  37.337  14.591
38369W        W 9898   9.184   5.954   4.106
38370W        W 9899  29.579   0.488  12.603
38371W        W 9900   5.002  19.147   2.760
38372W        W 9901  40.006  28.199  14.551
38373W        W 9902  19.496  39.999   3.066
38374W        W 9903   5.096   5.988  11.136
38375W        W 9904  41.474  18.184   4.121
38376W        W 9905   5.625  15.859  12.044
38377W        W 9906   3.265  21.531  12.977
38378W        W 9907  17.892  26.985  14.448
38379W        W 9908  27.773  12.595  13.363
38380W        W 9909  11.163   3.634   0.883
38381W        W 9910  17.227  18.853  12.967
38382W        W 9911  22.963  36.282  14.777
38383W        W 9912  22.755  18.865   0.334
38384W        W 9913  17.821  40.403   2.248
38385W        W 9914  12.701  43.015  10.636
38386W        W 9915  19.505  27.919   2.003
38387W        W 9916  10.173   0.948   0.378
38388W        W 9917   2.775  19.625  10.781
38389W        W 9918  16.294  16.390  14.394
38390W        W 9919  36.979  37.143  13.791
38391W        W 9920  34.563   4.850   3.220
38392W        W 9921  14.278  17.118  12.887
38393W        W 9922  12.774  24.594  14.400
38394W        W 9923  30.649   9.057  10.949
38395W        W 9924  29.563  36.279   0.228
38396W        W 9925  39.726   9.780   4.537
38397W        W 9926  20.089   9.344   0.827
38398W        W 9927  30.616   8.161  13.963
38399W        W 9928  27.634   9.982   1.481
38400W        W 9929  34.547  39.246   0.736
38401W        W 9930   5.857  29.987   4.093
38402W        W 9931  33.938  32.016   3.576
38403W        W 9932  38.063  29.108   1.244
38404W        W 9933  39.914  15.222   3.549
38405W        W 9934  31.382  32.530   2.293
38406W        W 9935  11.795  36.870  10.749
38407W        W 9936  14.059  44.546   3.278
38408W        W 9937  23.525  23.420   1.259
38409W        W 9938   2.987  35.180  10.615
38410W        W 9939   2.438  29.781   2.983
38411W        W 9940  40.721  19.090   1.719
38412W        W 9941  18.658  40.867  13.958
38413W        W 9942  37.974  35.963   0.941
38414W        W 9943  29.598  17.340   4.172
38415W        W 9944  20.645  35.299  14.861
38416W        W 9945  38.826   4.913  12.751
38417W        W 9946  26.591  31.650   0.601
38418W        W 9947  32.165  36.051  11.064
38419W        W 9948  43.448   9.403   1.766
38420W        W 9949   2.960  33.881   2.351
38421W        W 9950  37.993   6.787   3.591
38422W        W 9951  12.375  39.831  11.176
38423W        W 9952   2.935  32.157  10.744
38424W        W 9953  11.457  40.558   2.715
38425W        W 9954  13.677  44.493   0.890
38426W        W 9955   7.646  11.866   4.222
38427W        W 9956  28.379  16.743  14.475
38428W        W 9957  30.582  17.859  13.510
38429W        W 9958  43.498  44.283  13.433
38430W        W 9959  38.508  30.091   1.365
38431W        W 9960   8.184   6.758  14.410
38432W        W 9961  33.365  30.530  14.829
38433W        W 9962   4.979  28.237   0.076
38434W        W 9963  11.154   5.913  10.804
38435W        W 9964   3.927   9.873  12.056
38436W        W 9965  31.162  43.366   3.401
38437W        W 9966  33.100  23.006   4.951
38438W        W 9967  38.965  43.668  11.569
38439W        W 9968  14.687  12.188   1.875
38440W        W 9969  32.725  35.089   9.837
38441W        W 9970   4.736  17.075   2.189
38442W        W 9971  30.871  15.092  14.305
38443W        W 9972  11.674  20.447  11.896
38444W        W 9973   6.512  42.510  14.059
38445W        W 9974   0.873   1.003   4.073
38446W        W 9975  26.520  19.156   3.172
38447W        W 9976   3.054   3.608   3.605
38448W        W 9977   8.945  36.270  13.224
38449W        W 9978   6.311  26.939  12.970
38450W        W 9979  21.197  20.177   0.174
38451W        W 9980   1.827  36.100  14.686
38452W        W 9981   9.709  35.131  12.350
38453W        W 9982  41.089  27.613   1.115
38454W        W 9983  22.707  41.521   0.814
38455W        W 9984  25.126   7.909   0.749
38456W        W 9985  17.772  10.145  13.387
38457W        W 9986  38.684   5.303  13.566
38458W        W 9987   2.366  20.078   3.740
38459W        W 9988  42.076  32.021  13.432
38460W        W 9989   7.632  37.239   4.983
38461W        W 9990  19.069  26.212  10.930
38462W        W 9991  33.223   1.333   5.124
38463W        W 9992  12.735   2.673  11.014
38464W        W 9993   7.579   5.532   2.687
38465W        W 9994  33.332  35.115  11.514
38466W        W 9995  40.033  14.784   1.248
38467W        W 9996   6.676  41.878  14.224
38468W        W 9997  41.285  40.039  12.908
38469W        W 9998  16.465  39.896  12.983
38470W        W 9999  23.081   6.668  12.539
38471W        W10000  16.378   8.511  11.574
38472W        W10001  11.194   5.691  13.971
38473W        W10002  28.370  27.100  14.441
38474W        W10003  41.957  30.969  13.884
38475W        W10004  19.350  39.074   0.808
38476W        W10005   1.757   1.987   1.894
38477W        W10006  30.605   7.695   4.120
38478W        W10007  21.449  44.353  13.531
38479W        W10008  18.745  15.627  13.140
38480W        W10009  37.899  12.063  11.135
38481W        W10010  28.428  20.793   0.712
38482W        W10011  42.482  30.894   2.710
38483W        W10012   8.857  38.585  11.126
38484W        W10013  25.849  42.156   1.918
38485W        W10014   3.833  41.822  10.720
38486W        W10015  11.371  21.419  13.361
38487W        W10016  42.534  43.815  11.635
38488W        W10017   3.398  44.039   0.824
38489W        W10018   6.029  24.707  12.787
38490W        W10019  34.040  27.945   0.537
38491W        W10020  25.186  24.237   0.224
38492W        W10021  19.595  44.308   2.195
38493W        W10022  29.467  37.728  12.425
38494W        W10023  41.657  28.519  14.521
38495W        W10024  27.102  43.949  13.544
38496W        W10025  18.476   9.665  10.626
38497W        W10026   9.565  34.044  10.287
38498W        W10027   5.989   2.393   2.394
38499W        W10028   8.072   0.073  14.886
38500W        W10029  11.376  27.615  14.100
38501W        W10030  36.316  41.520   2.521
38502W        W10031  34.392  10.400   4.878
38503W        W10032  44.017  19.786   4.946
38504W        W10033  29.399  27.096   1.336
38505W        W10034  40.303  39.050  11.238
38506W        W10035   1.462  25.977   4.012
38507W        W10036   1.939   5.795   3.174
38508W        W10037  10.885  41.235  13.799
38509W        W10038   4.646  43.426   3.035
38510W        W10039  38.443  17.933  10.892
38511W        W10040  21.718   9.987   4.167
38512W        W10041  41.040  37.109  14.780
38513W        W10042  21.754   8.786  12.056
38514W        W10043  12.467  20.523  11.528
38515W        W10044   8.510  37.482   4.599
38516W        W10045  11.105  23.410  12.154
38517W        W10046   7.306  37.015   4.563
38518W        W10047  25.121  30.895  13.852
38519W        W10048  13.520   0.777   2.739
38520W        W10049  15.011  19.799   3.683
38521W        W10050  25.757  12.639  14.442
38522W        W10051   9.381   3.233  10.520
38523W        W10052  37.961   8.157   0.511
38524W        W10053   5.744  35.085  11.121
38525W        W10054  43.350  29.228   3.256
38526W        W10055   4.721  31.094   3.291
38527W        W10056   1.389  15.657  14.804
38528W        W10057  25.650  22.585  13.909
38529W        W10058  41.334  28.704   4.596
38530W        W10059   6.972  32.150   1.180
38531W        W10060   1.257  14.291  13.901
38532W        W10061  42.316  19.156   0.008
38533W        W10062   8.875  14.034  10.665
38534W        W10063  27.201  19.301   3.811
38535W        W10064  27.051  10.369   4.309
38536W        W10065  25.147  23.978   4.464
38537W        W10066   1.328   2.713  12.217
38538W        W10067   3.958  42.326   0.193
38539W        W10068  36.475  38.100   4.065
38540W        W10069  12.292  23.612   0.917
38541W        W10070  23.735  17.633  14.908
38542W        W10071  13.899  37.825  12.495
38543W        W10072  44.015  36.506   2.216
38544W        W10073  23.073  17.131  12.791
38545W        W10074  40.112   8.070  13.385
38546W        W10075   7.701   1.809   5.165
38547W        W10076  21.213  11.403  10.783
38548W        W10077  19.525  40.824  10.738
38549W        W10078   5.259   3.911   1.746
38550W        W10079   1.945  10.168   4.382
38551W        W10080  44.400  34.038   0.156
38552W        W10081  34.904  31.093  12.580
38553W        W10082  25.577  33.460   1.936
38554W        W10083  34.528  30.677   4.188
38555W        W10084   4.600  38.059   1.730
38556W        W10085   4.708   9.311   2.878
38557W        W10086  32.971   9.405   2.771
38558W        W10087  25.479  43.795  11.232
38559W        W10088  37.538  11.685   1.790
38560W        W10089  25.077  32.569   4.826
38561W        W10090  26.221  37.044   1.331
38562W        W10091   5.415  25.859   0.319
38563W        W10092   5.758  24.643   1.344
38564W        W10093  14.233  26.636   1.601
38565W        W10094  29.094  35.536  12.524
38566W        W10095  39.328  23.845   1.717
38567W        W10096  11.596   1.945  11.050
38568W        W10097  43.430   2.529  12.103
38569W        W10098   7.709  34.699  12.433
38570W        W10099  36.124  44.742   2.186
38571W        W10100  34.613  36.586   1.259
38572W        W10101  44.906  22.129   4.142
38573W        W10102  17.360  24.261  12.803
38574W        W10103  40.089  24.467  13.421
38575W        W10104  39.013  15.650  13.032
38576W        W10105  40.005  24.558   2.375
38577W        W10106  17.304  41.906   0.359
38578W        W10107  35.301  19.859  10.246
38579W        W10108  13.322  19.968   4.342
38580W        W10109  39.906   8.426   2.414
38581W        W10110  38.206   7.288   3.462
38582W        W10111  39.772  34.651  13.858
38583W        W10112   2.007   5.918  14.053
38584W        W10113  40.816  34.648  12.140
38585W        W10114  29.737  35.151  12.958
38586W        W10115  12.894  19.244   4.419
38587W        W10116  40.293  11.288  14.966
38588W        W10117  21.017   3.648  10.850
38589W        W10118  12.379  33.429  11.876
38590W        W10119  32.182  31.671   3.835
38591W        W10120  44.534  11.823   3.217
38592W        W10121  20.701  32.028   3.284
38593W        W10122  30.146  28.521  13.886
38594W        W10123   9.894  23.004  13.383
38595W        W10124   6.913  39.084  13.387
38596W        W10125  35.537  34.513   4.613
38597W        W10126  35.150  17.717   0.009
38598W        W10127  27.948  17.153  14.963
38599W        W10128  10.829  42.966   3.765
38600W        W10129  33.397  30.233  12.358
38601W        W10130  39.265  24.938   0.140
38602W        W10131  15.706  22.688   0.860
38603W        W10132  17.568   7.438  10.324
38604W        W10133  43.516  21.864  12.964
38605W        W10134  11.299   4.245  13.918
38606W        W10135  42.334  13.609   2.705
38607W        W10136  21.484  21.483   1.357
38608W        W10137  43.949  17.909  11.629
38609W        W10138  38.908  29.550   4.209
38610W        W10139   8.861  26.013  12.510
38611W        W10140  35.126  33.462   1.788
38612W        W10141  27.035  32.422   4.326
38613W        W10142  17.361  24.881  10.342
38614W        W10143   8.865  17.281   1.732
38615W        W10144  31.608  31.649   0.336
38616W        W10145   6.871   1.387   4.120
38617W        W10146   6.978   6.912  11.124
38618W        W10147  41.882  29.909  10.596
38619W        W10148   1.439  38.830   4.901
38620W        W10149  15.385  19.096  14.493
38621W        W10150  12.780  29.038   3.901
38622W        W10151  35.246  12.109  12.990
38623W        W10152  25.210   2.671  12.612
38624W        W10153  30.084  19.786  14.903
38625W        W10154  17.561  38.868  13.759
38626W        W10155   9.735  32.459  12.641
38627W        W10156  22.620  14.150  14.228
38628W        W10157  14.028  18.077   1.805
38629W        W10158  25.409  19.817   0.326
38630W        W10159  22.228  14.390  14.443
38631W        W10160  17.243  37.816  14.467
38632W        W10161  29.003  20.024  11.114
38633W        W10162  22.705   4.339  12.000
38634W        W10163   8.269  25.177   3.718
38635W        W10164  30.079  18.085   1.974
38636W        W10165  20.613  16.143   0.844
38637W        W10166  11.876   4.653  11.597
38638W        W10167  22.525  42.917  11.849
38639W        W10168   8.870  21.779   2.137
38640W        W10169  26.443   5.884  13.968
38641W        W10170   2.372   6.835   3.546
38642W        W10171  38.428   0.557   0.199
38643W        W10172  19.257  36.701  14.967
38644W        W10173   8.819  41.196  12.506
38645W        W10174   0.820  37.661  13.465
38646W        W10175  11.094   8.823  13.828
38647W        W10176  27.362  24.503  10.552
38648W        W10177  13.185  40.960   3.257
38649W        W10178  44.916  32.975  13.451
38650W        W10179  41.278  37.014   3.246
38651W        W10180  41.920   3.394   1.255
38652W        W10181  31.149  16.363   3.072
38653W        W10182  18.688  27.566   1.626
38654W        W10183  17.392  37.327  11.530
38655W        W10184  36.919  40.969   3.083
38656W        W10185  39.091  35.715   5.087
38657W        W10186   6.845  34.348  14.350
38658W        W10187   1.849  38.442  10.628
38659W        W10188  39.891  27.518   0.544
38660W        W10189  14.054  25.109  12.325
38661W        W10190  40.075  22.774   0.333
38662W        W10191  23.444  31.009  12.990
38663W        W10192  29.653  34.609   3.356
38664W        W10193  26.591  37.820   0.630
38665W        W10194  20.160  43.438  13.759
38666W        W10195  42.205  33.644   4.687
38667W        W10196  43.636  36.455   2.829
38668W        W10197   8.258  43.945  12.639
38669W        W10198  33.143  15.550  10.047
38670W        W10199   2.465  24.658  14.767
38671W        W10200  12.193  40.557   3.280
38672W        W10201  41.227  26.432  13.051
38673W        W10202  30.619   8.621  14.769
38674W        W10203  11.092  20.527   1.338
38675W        W10204  40.296  24.430   0.849
38676W        W10205  15.633  19.168   3.880
38677W        W10206  14.652  38.448  14.385
38678W        W10207  32.110  12.606   2.341
38679W        W10208  33.180  19.696   4.488
38680W        W10209  23.100  40.065   4.132
38681W        W10210  44.998   6.863   3.412
38682W        W10211  31.310  30.783  11.675
38683W        W10212   8.358  28.169  12.942
38684W        W10213  22.030   1.843  12.986
38685W        W10214   9.683  12.720   0.512
38686W        W10215   3.565  22.508  10.648
38687W        W10216   0.027  33.337  13.025
38688W        W10217   2.559  38.077   0.869
38689W        W10218  42.497  10.849   0.916
38690W        W10219  38.475  35.580  13.911
38691W        W10220   8.610  30.965   2.096
38692W        W10221  29.582  30.702  10.223
38693W        W10222  43.201  40.313  13.875
38694W        W10223  43.300  36.283  13.532
38695W        W10224   8.824  37.086  13.004
38696W        W10225  43.473  18.251  10.967
38697W        W10226  11.156   6.767   0.014
38698W        W10227   5.996  20.624  10.456
38699W        W10228  12.295  14.092  12.474
38700W        W10229  34.146  13.529   4.101
38701W        W10230  10.393   0.423  12.461
38702W        W10231  22.681   3.759   3.379
38703W        W10232  24.248  44.156  14.314
38704W        W10233  39.314  37.264  13.413
38705W        W10234   4.359  13.376  14.553
38706W        W10235  16.120  42.933   1.409
38707W        W10236  32.473   8.643   3.398
38708W        W10237  14.796  32.872   2.890
38709W        W10238  32.728  17.177  12.317
38710W        W10239   9.848  24.248  12.386
38711W        W10240  10.139  41.420  14.392
38712W        W10241   7.143  12.193   1.219
38713W        W10242  31.448  21.216  13.861
38714W        W10243  37.935  14.706   2.181
38715W        W10244  43.612  14.218   1.747
38716W        W10245  29.088  40.026   1.218
38717W        W10246   1.899   2.234  13.419
38718W        W10247  44.370  28.596   4.720
38719W        W10248  36.181   4.694  10.726
38720W        W10249   1.850  36.830  12.508
38721W        W10250  39.328  15.685  11.026
38722W        W10251  10.828  28.622  12.113
38723W        W10252   2.866  32.846  14.521
38724W        W10253   1.147  34.729  14.843
38725W        W10254   8.175  20.634  14.376
38726W        W10255  25.857   1.985  14.936
38727W        W10256   4.755  19.711  13.963
38728W        W10257  25.157  43.341   3.096
38729W        W10258  24.367  43.176  12.162
38730W        W10259  39.935  12.940   5.015
38731W        W10260  11.860  34.787   4.554
38732W        W10261  35.425  15.726   0.731
38733W        W10262  44.546  23.656   0.767
38734W        W10263  13.792  33.078  14.863
38735W        W10264  14.581  13.387  12.171
38736W        W10265  26.600  33.642  12.399
38737W        W10266  25.263  35.648   1.490
38738W        W10267  35.504  16.778  11.753
38739W        W10268  38.053  15.256   3.074
38740W        W10269  17.236   7.020   0.239
38741W        W10270  20.572  25.182   3.656
38742W        W10271  38.515   1.913   2.886
38743W        W10272   9.819  27.153  13.645
38744W        W10273  44.271  44.769   4.905
38745W        W10274   5.224  32.898  13.549
38746W        W10275  40.321   6.146   1.333
38747W        W10276  31.035  29.732   1.617
38748W        W10277  33.382  17.701  10.415
38749W        W10278  15.747  33.365   3.166
38750W        W10279  20.875  14.198   3.910
38751W        W10280  10.110  20.944  13.147
38752W        W10281   0.456  14.302   0.991
38753W        W10282   0.769  11.746   3.831
38754W        W10283  30.906  30.630  11.995
38755W        W10284  23.464  21.004  11.895
38756W        W10285   8.415  37.381  13.602
38757W        W10286  21.458  17.167  10.334
38758W        W10287  23.530   0.673   2.374
38759W        W10288  29.947  19.258  14.905
38760W        W10289  19.668  43.875   0.518
38761W        W10290   1.485   5.650   4.094
38762W        W10291  42.159  43.403  12.798
38763W        W10292   5.015  41.310  14.924
38764W        W10293  10.150  37.432   1.242
38765W        W10294  25.419  19.723   3.777
38766W        W10295  41.789  25.650  13.458
38767W        W10296  22.212  18.027   2.385
38768W        W10297  27.083  16.558   0.381
38769W        W10298   8.159  44.806   4.067
38770W        W10299  12.238   8.395  13.059
38771W        W10300  17.582  36.644   3.583
38772W        W10301  15.263  34.521  14.019
38773W        W10302  19.779   4.072   3.603
38774W        W10303  41.759   0.867   1.271
38775W        W10304   9.669   7.249  13.541
38776W        W10305  13.079  43.294   3.782
38777W        W10306  29.531   8.187  14.301
38778W        W10307  19.338  43.161  11.608
38779W        W10308  13.313  29.204   4.452
38780W        W10309  30.878  11.750  14.503
38781W        W10310  42.621  23.614  10.440
38782W        W10311  12.319  32.072  10.872
38783W        W10312  41.125  13.387   0.752
38784W        W10313   8.760  37.428   0.272
38785W        W10314  31.040  38.234  14.755
38786W        W10315   2.357  15.155   3.275
38787W        W10316  13.375  20.091   2.357
38788W        W10317  20.262  37.508  12.404
38789W        W10318   1.714  38.477  13.971
38790W        W10319  19.988   2.629   3.727
38791W        W10320  14.859  13.596   2.815
38792W        W10321  20.864  31.837   1.961
38793W        W10322  35.457  23.963   3.858
38794W        W10323  14.676  37.107  10.422
38795W        W10324  27.413  41.986  12.873
38796W        W10325  37.915   8.480  13.060
38797W        W10326   2.216  35.835   0.502
38798W        W10327  33.332  11.383  10.724
38799W        W10328   7.451   6.296  12.496
38800W        W10329  35.833  39.960  11.682
38801W        W10330  43.104  25.099   3.374
38802W        W10331  38.229   2.411   4.545
38803W        W10332  23.011  13.426  10.720
38804W        W10333  38.464  41.782   4.599
38805W        W10334  41.840   9.200   2.249
38806W        W10335   6.422  37.850   4.902
38807W        W10336  37.848  20.289   3.719
38808W        W10337  40.183  44.646   3.374
38809W        W10338   3.390   3.532  12.624
38810W        W10339  35.460   5.372   2.267
38811W        W10340  44.385   8.946   2.424
38812W        W10341  21.154   6.822   3.377
38813W        W10342  34.633  14.712  13.046
38814W        W10343  25.900  12.230  13.864
38815W        W10344   9.331  30.083  10.659
38816W        W10345  21.329   6.326  11.256
38817W        W10346   9.627  25.666  11.078
38818W        W10347   6.611  33.063   3.360
38819W        W10348  15.362  22.144  13.415
38820W        W10349  36.074  15.068  11.229
38821W        W10350   2.534  44.027  11.515
38822W        W10351  12.176   9.084   2.799
38823W        W10352  10.692  25.723  10.742
38824W        W10353   9.662   2.236   0.833
38825W        W10354  35.708   4.042   1.852
38826W        W10355  17.643  44.014   1.637
38827W        W10356  39.259  27.708   2.181
38828W        W10357  43.882  14.762  12.370
38829W        W10358  39.229   3.484   3.754
38830W        W10359  14.452  33.918   4.034
38831W        W10360  23.890  33.108   3.242
38832W        W10361  43.893  13.415   1.395
38833W        W10362  14.965  33.354   2.858
38834W        W10363  36.860  39.892   4.107
38835W        W10364   4.704  36.417  11.971
38836W        W10365  33.574   6.591  14.978
38837W        W10366   6.920  25.372   3.573
38838W        W10367   4.754  25.945   4.977
38839W        W10368  34.895  35.413  14.941
38840W        W10369  20.035  35.096  11.014
38841W        W10370  13.178  16.608   1.067
38842W        W10371  23.971   0.870   3.706
38843W        W10372   2.376  31.003   1.831
38844W        W10373   0.514  33.771  14.227
38845W        W10374  17.098  14.298   0.245
38846W        W10375  13.181   1.403  10.327
38847W        W10376  26.878  16.110   0.512
38848W        W10377  29.562  24.922   2.858
38849W        W10378   8.804  10.619   0.882
38850W        W10379  36.636  37.970   2.829
38851W        W10380  19.032  14.358   4.904
38852W        W10381   6.927  20.507   4.549
38853W        W10382  29.518  34.840  13.416
38854W        W10383  13.015   0.381  14.443
38855W        W10384  26.065  18.024   3.299
38856W        W10385  29.794  13.616   0.294
38857W        W10386  40.391  14.533  13.428
38858W        W10387   1.249  11.814   0.303
38859W        W10388  29.945  37.028   3.252
38860W        W10389  10.096  27.542   2.149
38861W        W10390  13.532  15.212  11.250
38862W        W10391  21.965   1.335  12.867
38863W        W10392  31.168  39.244  10.811
38864W        W10393   2.615  33.187  10.111
38865W        W10394  41.289  14.377   2.244
38866W        W10395  14.057  32.454   2.631
38867W        W10396   8.444   5.118  12.532
38868W        W10397  14.798  15.785  12.420
38869W        W10398  12.906  11.566  12.956
38870W        W10399   6.710  30.454  13.853
38871W        W10400   8.058  26.725   1.705
38872W        W10401  20.951  40.425   2.811
38873W        W10402   3.336   1.965   0.959
38874W        W10403  43.731  22.539  10.632
38875W        W10404  30.042  33.026   5.682
38876W        W10405   8.760  27.980   0.111
38877W        W10406   0.403   3.395   3.319
38878W        W10407  26.748  13.233   1.706
38879W        W10408  30.663  15.724  11.404
38880W        W10409   6.438   3.866  14.908
38881W        W10410  14.782   4.934   0.154
38882W        W10411  18.252  17.111  10.650
38883W        W10412  11.184   5.221  11.906
38884W        W10413  13.494  26.027  12.148
38885W        W10414  21.768  39.852  14.525
38886W        W10415   1.382  15.209   0.437
38887W        W10416  36.305  14.104   2.833
38888W        W10417   7.812  16.761   2.373
38889W        W10418  37.384   9.120  13.405
38890W        W10419  41.545  36.022  13.801
38891W        W10420  23.698  42.550   3.660
38892W        W10421  12.090   3.461  13.526
38893W        W10422   0.993  35.969   1.323
38894W        W10423  20.252  27.671   2.201
38895W        W10424  27.050   7.326  10.599
38896W        W10425  30.505  33.137   3.206
38897W        W10426   9.770   9.283   0.397
38898W        W10427  15.855  16.064  11.596
38899W        W10428  28.076   7.198   3.536
38900W        W10429  42.852  36.408  11.930
38901W        W10430  26.627  17.576  14.904
38902W        W10431   0.317  23.212  14.677
38903W        W10432  17.682  27.384   4.920
38904W        W10433  34.640  24.095  13.562
38905W        W10434  23.479   2.541   0.881
38906W        W10435  40.383  14.318  13.946
38907W        W10436  11.231  44.135  13.773
38908W        W10437  25.433  33.480  14.559
38909W        W10438   0.805  44.788  13.955
38910W        W10439  28.555  27.423  13.916
38911W        W10440   8.912  18.136   2.743
38912W        W10441  30.930  14.826   0.431
38913W        W10442  41.101   5.410   1.984
38914W        W10443  10.871  20.081   2.238
38915W        W10444  28.599   9.621  11.960
38916W        W10445  13.275  43.895   4.712
38917W        W10446   1.206  17.216   3.783
38918W        W10447  14.746   9.312   1.356
38919W        W10448  31.598  16.858  13.879
38920W        W10449  11.822  26.735  12.117
38921W        W10450  18.566  16.184   4.565
38922W        W10451  36.329   3.464  12.706
38923W        W10452  23.718  10.257  13.895
38924W        W10453  26.709   3.352   2.150
38925W        W10454  26.888  11.849  10.658
38926W        W10455  40.157  24.051  14.649
38927W        W10456  35.958  24.720  14.877
38928W        W10457  23.650  23.633  11.939
38929W        W10458  31.812  42.754   2.223
38930W        W10459   9.770  23.759  11.698
38931W        W10460   6.254  43.929  14.476
38932W        W10461  10.504  19.202  12.057
38933W        W10462  33.943   5.162   0.233
38934W        W10463  36.859  16.770   4.660
38935W        W10464   0.051  18.913  13.514
38936W        W10465  31.660   4.958   0.854
38937W        W10466  28.601  31.205  13.381
38938W        W10467  18.650  14.029   2.833
38939W        W10468   3.661  17.829  13.499
38940W        W10469   5.882  36.435  13.828
38941W        W10470   8.667  29.975   1.764
38942W        W10471  28.332  30.738  14.227
38943W        W10472   8.632  17.178   2.572
38944W        W10473  31.537  18.008   0.745
38945W        W10474   4.284   2.964   2.872
38946W        W10475  19.715  42.386   1.487
38947W        W10476   7.905  40.074  14.442
38948W        W10477  15.875  38.470  11.509
38949W        W10478   0.923  27.404   2.663
38950W        W10479   5.355  15.541  10.690
38951W        W10480   3.208  44.781  11.168
38952W        W10481  41.997  26.173  14.377
38953W        W10482   8.306  44.297   3.309
38954W        W10483  13.587  20.216  10.438
38955W        W10484   5.967   6.787   2.567
38956W        W10485  41.754  38.499  11.575
38957W        W10486   0.387  43.857   1.021
38958W        W10487  22.323  13.266   2.805
38959W        W10488   3.247  42.688   4.264
38960W        W10489  35.021   4.056  11.602
38961W        W10490  29.329  38.560   5.094
38962W        W10491  33.052  11.667  13.938
38963W        W10492  32.189  43.051  12.467
38964W        W10493   5.464  22.221  12.129
38965W        W10494   9.584  27.551   2.053
38966W        W10495  36.350  28.579   1.417
38967W        W10496  35.987  26.189   0.252
38968W        W10497   7.165  29.340   3.831
38969W        W10498  34.438  16.668   3.735
38970W        W10499  31.506  22.980   4.134
38971W        W10500  12.352   0.354   1.565
38972W        W10501   4.839  36.869   4.124
38973W        W10502  25.102   2.349   3.564
38974W        W10503  25.522   4.424  13.354
38975W        W10504  36.331  34.557   0.040
38976W        W10505   8.664  43.742   3.869
38977W        W10506  19.553  44.828   4.646
38978W        W10507  29.282  23.571  14.774
38979W        W10508  37.789  21.650   3.767
38980W        W10509   5.473  23.063   4.099
38981W        W10510  24.775  15.788  14.002
38982W        W10511  36.532  15.621   1.796
38983W        W10512  20.276  33.418  13.289
38984W        W10513  43.747  19.601   2.049
38985W        W10514   9.369   2.461   4.663
38986W        W10515   0.915  29.163   0.805
38987W        W10516  23.966  14.366  11.508
38988W        W10517  18.316  12.911  10.839
38989W        W10518  18.863   6.722   3.755
38990W        W10519  44.730  39.638  13.953
38991W        W10520  13.918  33.344   0.315
38992W        W10521  38.363  37.120  13.992
38993W        W10522  31.376  10.660  11.438
38994W        W10523  12.062  37.818  13.992
38995W        W10524  23.080  44.903   2.871
38996W        W10525  16.556  17.842  12.330
38997W        W10526  37.419  43.275  13.155
38998W        W10527  30.903  20.734  13.320
38999W        W10528  40.470   0.251  13.992
39000W        W10529  23.297   3.923  13.454
39001W        W10530  33.623  18.490   2.255
39002W        W10531  36.146  39.987   3.646
39003W        W10532  15.260  44.957   2.602
39004W        W10533  23.977  36.389  13.568
39005W        W10534  38.445  33.465   4.041
39006W        W10535  19.273   6.228  13.030
39007W        W10536  40.205  13.538   1.263
39008W        W10537  28.090  32.486  10.968
39009W        W10538   3.480  38.569   3.271
39010W        W10539  20.494  30.617  12.955
39011W        W10540  40.057  16.986  11.152
39012W        W10541  21.618   7.644  14.429
39013W        W10542   7.728  40.394  12.870
39014W        W10543  29.956  17.243  10.828
39015W        W10544   9.869  43.209  13.130
39016W        W10545  11.695  14.174   3.125
39017W        W10546  20.323  36.516  11.243
39018W        W10547   5.966  15.656   4.353
39019W        W10548  14.700   4.486  12.802
39020W        W10549  35.145  10.254  13.460
39021W        W10550  20.487   4.509  12.807
39022W        W10551  23.846  22.438   0.401
39023W        W10552  38.813  30.591   4.223
39024W        W10553  42.556  33.942  14.802
39025W        W10554   9.729   5.004  12.504
39026W        W10555  25.067  44.819  12.967
39027W        W10556  33.960  29.912  11.464
39028W        W10557  19.300  36.403  14.065
39029W        W10558  32.644  39.192   1.700
39030W        W10559   1.722  28.938   3.206
39031W        W10560  20.050  36.481  12.433
39032W        W10561  31.988  35.904   1.451
39033W        W10562  40.812  36.087  11.663
39034W        W10563   8.663   0.131   2.798
39035W        W10564  18.318  21.340   3.341
39036W        W10565  18.008  39.792   2.969
39037W        W10566  22.822  22.050   0.341
39038W        W10567   5.828  24.440   1.843
39039W        W10568  30.112  43.022   3.760
39040W        W10569  35.048  43.477   1.623
39041W        W10570  28.290  26.458  10.726
39042W        W10571  26.493  20.161   0.821
39043W        W10572  14.327   4.882   0.430
39044W        W10573  13.341  16.650  12.671
39045W        W10574  11.742   0.683  14.400
39046W        W10575  27.152  26.631   1.616
39047W        W10576   1.444  38.423   2.197
39048W        W10577  32.352  32.006   4.207
39049W        W10578  40.301  20.525  13.983
39050W        W10579   2.797  31.196   4.240
39051W        W10580  43.046  36.892   0.179
39052W        W10581  44.915  30.553  12.363
39053W        W10582  43.483   2.392  14.429
39054W        W10583   0.795  28.904   2.882
39055W        W10584  21.521  21.647  14.922
39056W        W10585   3.687   9.127   3.140
39057W        W10586  38.774  36.408   0.247
39058W        W10587  34.095  34.378   2.298
39059W        W10588  21.792  16.906   0.993
39060W        W10589  20.210  34.875  13.442
39061W        W10590  23.637  42.214  14.261
39062W        W10591  39.484  30.650  14.418
39063W        W10592  32.854   6.987  12.374
39064W        W10593  16.538  25.060  13.286
39065W        W10594  13.297  43.185   2.306
39066W        W10595  26.571  24.156  12.001
39067W        W10596  23.707  34.534   4.394
39068W        W10597   8.965   6.857  13.815
39069W        W10598   2.536  41.375  11.484
39070W        W10599   2.310   4.047   2.869
39071W        W10600  30.889   1.233   3.373
39072W        W10601   3.381  26.957  11.647
39073W        W10602  22.501  40.361  13.120
39074W        W10603  28.876   5.790  13.983
39075W        W10604  21.546   5.474  10.422
39076W        W10605  15.194  15.543   1.441
39077W        W10606   2.263  38.604  12.886
39078W        W10607  38.407  26.607  10.683
39079W        W10608   4.387  14.335  11.844
39080W        W10609  39.332  26.931  13.501
39081W        W10610  33.100  26.051  11.972
39082W        W10611  37.609   3.661   4.317
39083W        W10612  25.193  13.137   0.453
39084W        W10613   2.450  12.078   2.368
39085W        W10614  11.160  28.086  13.997
39086W        W10615   3.485   0.446  14.917
39087W        W10616  33.917  39.233   3.359
39088W        W10617  43.479  12.252  12.213
39089W        W10618  33.447  11.363   1.412
39090W        W10619   8.266  26.428   0.897
39091W        W10620   6.858  19.012   0.924
39092W        W10621  33.654   8.228   1.744
39093W        W10622   9.783  31.548   4.595
39094W        W10623  36.256  23.480  13.925
39095W        W10624  22.144  12.710  11.613
39096W        W10625   4.762  17.231  14.432
39097W        W10626  14.881   2.920  13.991
39098W        W10627  41.487  18.738   3.598
39099W        W10628  33.989  21.557  13.512
39100W        W10629  28.655  26.013   1.804
39101W        W10630  40.357  27.064  12.089
39102W        W10631  23.746  16.952   3.724
39103W        W10632   7.827  20.199  12.117
39104W        W10633  13.204  41.293   4.777
39105W        W10634  13.111  11.145   1.425
39106W        W10635  39.785   9.755  13.833
39107W        W10636  34.091  44.241  11.484
39108W        W10637  30.532   7.568  11.106
39109W        W10638  39.649   7.856  13.369
39110W        W10639   8.740  24.555  13.587
39111W        W10640  14.063   7.048  13.216
39112W        W10641  20.052  12.692  11.898
39113W        W10642   7.830  24.906   3.649
39114W        W10643  29.241  31.553  12.077
39115W        W10644  44.762  40.544  10.679
39116W        W10645  29.555   9.489   2.860
39117W        W10646  37.096   1.634   1.649
39118W        W10647   5.787  44.871   4.012
39119W        W10648  36.007   4.903  11.676
39120W        W10649   3.254  35.070   1.447
39121W        W10650   2.906  30.216   3.597
39122W        W10651  19.840  38.522   0.883
39123W        W10652  30.244   0.833  14.302
39124W        W10653   1.243  44.881  11.914
39125W        W10654  16.550  41.414  14.409
39126W        W10655  40.341  28.809   4.482
39127W        W10656   9.361  39.690  14.538
39128W        W10657  33.452   4.367  10.195
39129W        W10658  13.723  13.637  13.499
39130W        W10659  12.620  38.483   2.323
39131W        W10660  26.205   5.774  10.450
39132W        W10661  40.802  32.495  11.035
39133W        W10662  35.187  30.053  11.554
39134W        W10663  17.720  20.740  14.439
39135W        W10664  19.613  22.245   1.707
39136W        W10665  23.529  32.859  14.038
39137W        W10666  26.944   0.974   3.588
39138W        W10667  18.441   9.736  12.815
39139W        W10668  22.703  24.249  14.821
39140W        W10669  14.500  21.539  10.403
39141W        W10670   3.858  12.653   1.889
39142W        W10671   1.703  10.833  12.775
39143W        W10672  39.722  30.922  11.459
39144W        W10673  20.470  25.722  12.218
39145W        W10674  37.742  15.132  12.423
39146W        W10675   1.668  17.535   0.155
39147W        W10676  15.125   9.108  14.522
39148W        W10677  27.068  26.994  12.131
39149W        W10678  23.250   5.325  13.107
39150W        W10679  12.199  32.834   2.857
39151W        W10680  36.188  37.973  11.057
39152W        W10681  23.714  32.364  13.141
39153W        W10682  30.830   9.103  13.664
39154W        W10683  44.481  14.012   4.150
39155W        W10684  33.804  13.567   0.440
39156W        W10685  38.961  14.795  11.004
39157W        W10686  11.532  32.158   2.159
39158W        W10687  18.628   8.463  12.111
39159W        W10688   4.643  22.569   1.659
39160W        W10689  43.746  33.986  11.230
39161W        W10690  31.701  19.702  14.312
39162W        W10691  23.440  31.199   2.192
39163W        W10692  35.880  19.748   2.117
39164W        W10693  16.352  24.056  11.521
39165W        W10694  27.991  13.233   3.312
39166W        W10695  31.338  21.258   2.374
39167W        W10696  29.492   7.668  13.353
39168W        W10697  15.639  24.573  14.941
39169W        W10698  21.014  11.825  10.460
39170W        W10699  42.072   7.116   1.462
39171W        W10700  42.556  12.627   0.305
39172W        W10701   8.909  36.910   1.102
39173W        W10702  10.472  18.191  11.072
39174W        W10703  24.201  10.846   0.896
39175W        W10704   8.273  42.141   2.307
39176W        W10705  25.696  26.537  12.433
39177W        W10706  41.483  40.547   0.600
39178W        W10707  38.257   4.259  14.296
39179W        W10708  31.539  12.743   0.212
39180W        W10709  33.392  28.188  10.482
39181W        W10710  18.724   6.882   0.927
39182W        W10711  25.714  22.111   3.598
39183W        W10712   3.158  41.040  11.123
39184W        W10713  26.634   1.254   1.827
39185W        W10714  24.427   2.750   2.364
39186W        W10715  23.545  18.164   0.662
39187W        W10716  41.471  23.140  13.790
39188W        W10717  10.278   9.856  13.823
39189W        W10718   3.379  32.758  11.447
39190W        W10719  20.208  18.488   1.250
39191W        W10720  11.681  14.201  11.031
39192W        W10721   5.980  17.147   2.419
39193W        W10722  11.497   4.385  10.315
39194W        W10723  43.562  38.453  12.915
39195W        W10724  17.734  13.527   0.576
39196W        W10725   6.295  10.915  10.575
39197W        W10726  35.851  40.761   4.148
39198W        W10727  11.408   0.536  13.312
39199W        W10728  12.038  22.704  14.761
39200W        W10729  29.724  16.749  13.310
39201W        W10730  40.814   5.752   0.964
39202W        W10731   9.035  34.332  10.625
39203W        W10732   4.231  33.636   3.828
39204W        W10733  22.783  15.145  12.188
39205W        W10734  33.116  11.647   2.443
39206W        W10735  26.657  19.554   1.473
39207W        W10736  41.932   0.737  12.218
39208W        W10737   6.429  36.661   0.271
39209W        W10738  29.158   9.884  10.678
39210W        W10739  34.408  33.420   2.333
39211W        W10740   8.110   5.346  14.984
39212W        W10741  33.928  42.814  14.254
39213W        W10742  26.780   3.985  12.946
39214W        W10743  23.523  41.083  10.777
39215W        W10744   8.819  19.162   0.365
39216W        W10745   0.836  29.087  12.192
39217W        W10746  22.066  39.989  11.988
39218W        W10747   4.341   4.021   2.896
39219W        W10748   4.866  20.998  14.561
39220W        W10749  13.191  13.453  10.979
39221W        W10750   7.433  31.986  11.499
39222W        W10751   7.603  10.998  12.102
39223W        W10752  17.813  40.833  14.369
39224W        W10753  29.599  38.433  13.499
39225W        W10754  32.104  20.400  10.729
39226W        W10755   5.310   2.831   0.847
39227W        W10756  26.693  32.639   0.908
39228W        W10757   8.877  29.857  14.928
39229W        W10758  40.836   2.538  13.446
39230W        W10759   8.094  39.875  14.884
39231W        W10760  14.353  32.790  13.497
39232W        W10761  43.344   9.189   1.286
39233W        W10762  37.842  29.314   2.196
39234W        W10763   0.716   3.262   3.748
39235W        W10764   4.306  23.868   1.658
39236W        W10765  44.790  19.574   2.318
39237W        W10766  22.581  34.081  11.946
39238W        W10767  42.457  18.503  14.385
39239W        W10768  31.865  39.750   1.440
39240W        W10769   7.452  10.605   1.532
39241W        W10770  20.787   6.034  13.398
39242W        W10771   0.861  28.422   3.591
39243W        W10772  13.224   3.382   3.041
39244W        W10773   3.952  27.746   2.780
39245W        W10774  10.542  39.804   0.477
39246W        W10775  16.306  21.195   2.345
39247W        W10776   3.259  37.878  12.462
39248W        W10777   1.951   9.246   1.055
39249W        W10778  15.275  28.023  13.526
39250W        W10779  11.331  39.505  13.857
39251W        W10780   8.712   2.812  10.420
39252W        W10781   8.703  21.712   4.592
39253W        W10782  28.561  32.654  13.017
39254W        W10783  33.688  15.505  14.322
39255W        W10784   3.514  42.588  13.529
39256W        W10785  42.079  34.803  13.044
39257W        W10786  27.174  43.954  11.934
39258W        W10787  26.129  22.562   4.239
39259W        W10788  36.911  23.178  12.561
39260W        W10789  13.140   2.788  10.310
39261W        W10790  11.247  23.548  10.841
39262W        W10791  34.773  24.045   1.459
39263W        W10792  16.389  44.911  11.024
39264W        W10793   9.466  23.163   4.543
39265W        W10794  35.136   5.828   2.953
39266W        W10795  23.193  29.845  13.397
39267W        W10796  39.124   8.274  12.509
39268W        W10797  42.130  43.355   4.208
39269W        W10798  12.662  43.043   2.656
39270W        W10799  29.470  35.740   9.828
39271W        W10800   7.080  44.931   4.370
39272W        W10801   9.196  13.942   4.408
39273W        W10802   7.632  42.947   3.765
39274W        W10803  21.891  25.763   2.000
39275W        W10804   9.847  43.262  12.596
39276W        W10805  39.773  11.745   4.205
39277W        W10806  41.441  36.587   0.948
39278W        W10807  11.211   0.213  14.677
39279W        W10808  37.115  14.430  14.007
39280W        W10809  29.804  41.367   0.391
39281W        W10810  26.210  32.406  13.998
39282W        W10811   7.797  30.835  14.797
39283W        W10812  41.831  10.063   0.958
39284W        W10813  18.537  29.491  14.818
39285W        W10814  31.399  42.557  13.108
39286W        W10815  38.030  21.679  11.101
39287W        W10816  14.249  27.283   1.403
39288W        W10817   1.569  19.300   3.233
39289W        W10818  42.345  37.531   4.642
39290W        W10819   9.595   9.172  13.963
39291W        W10820   3.991   1.768   0.205
39292W        W10821  27.942  37.347   4.459
39293W        W10822  18.812  26.495   2.702
39294W        W10823  18.817  35.078   4.507
39295W        W10824  40.157   2.533   3.630
39296W        W10825  41.231   2.299   1.532
39297W        W10826  10.234  33.450  13.126
39298W        W10827   0.062   9.473  14.736
39299W        W10828  37.366  18.287   2.217
39300W        W10829  27.060  16.092   2.947
39301W        W10830  32.409  40.597   2.368
39302W        W10831  41.910  13.822  14.869
39303W        W10832   3.146  28.590  11.214
39304W        W10833   7.203  20.071   1.837
39305W        W10834  44.008  41.802   0.269
39306W        W10835  41.929  40.288  11.778
39307W        W10836  44.241  30.812   0.538
39308W        W10837   4.913  10.172   4.396
39309W        W10838  44.679  15.626  11.051
39310W        W10839  37.487   0.612  12.710
39311W        W10840  26.862  35.370  12.951
39312W        W10841  18.996  41.962   3.211
39313W        W10842  28.370   5.357   4.536
39314W        W10843  41.503   8.360   2.234
39315W        W10844  29.109  24.227   2.190
39316W        W10845  31.949  28.378  11.104
39317W        W10846  43.365  21.410   0.969
39318W        W10847  41.053  16.159  11.108
39319W        W10848  33.665  27.393  11.602
39320W        W10849   7.288  39.489   3.614
39321W        W10850  17.493  26.399  14.349
39322W        W10851  19.971  13.086  11.136
39323W        W10852  10.842  21.501  10.672
39324W        W10853  44.138  29.160   2.222
39325W        W10854  41.823  35.572  11.128
39326W        W10855  35.934  43.442   3.339
39327W        W10856  11.750  28.695  14.782
39328W        W10857   8.098  21.474   1.321
39329W        W10858  16.830  16.255   3.697
39330W        W10859  12.502   1.490   2.352
39331W        W10860  21.505  41.370   4.207
39332W        W10861  36.410  19.993  13.150
39333W        W10862  20.877  40.697   1.275
39334W        W10863   5.727  42.805   1.686
39335W        W10864  14.101   5.398  12.063
39336W        W10865  31.515  34.513   2.324
39337W        W10866   0.098  31.934  14.732
39338W        W10867  36.846  42.574  12.968
39339W        W10868   7.314  13.240  13.620
39340W        W10869  36.585  43.371  12.713
39341W        W10870  34.763  17.316  10.755
39342W        W10871  42.322  10.645   0.457
39343W        W10872  30.135   1.246  14.003
39344W        W10873  29.872  33.129  10.933
39345W        W10874  31.002   0.677  14.779
39346W        W10875  24.190  12.884   1.787
39347W        W10876  25.228  39.203  11.535
39348W        W10877  16.016  22.264  12.444
39349W        W10878  26.791  19.106  13.896
39350W        W10879  10.746  17.353  13.029
39351W        W10880  44.501  27.934  14.848
39352W        W10881  10.312  12.795   2.570
39353W        W10882  30.039  36.879  12.993
39354W        W10883  18.750   4.858  12.125
39355W        W10884  38.831  21.629   0.485
39356W        W10885   8.957  12.184  14.915
39357W        W10886  12.380  26.630   4.614
39358W        W10887  14.422   4.199  14.928
39359W        W10888  42.454  17.033   2.373
39360W        W10889   3.081  23.755  12.406
39361W        W10890   1.666  34.350   1.038
39362W        W10891  44.124  16.676   3.373
39363W        W10892  26.429  44.285  14.405
39364W        W10893   5.042  28.642  14.754
39365W        W10894   7.747  30.935   1.925
39366W        W10895  31.510   4.423  13.006
39367W        W10896   6.611  37.372   5.053
39368W        W10897  20.891  36.294  12.427
39369W        W10898   4.616  20.221   0.834
39370W        W10899  16.689  25.938   0.341
39371W        W10900   7.844  22.670   3.649
39372W        W10901  11.898  31.908  13.383
39373W        W10902  21.831  25.672  13.021
39374W        W10903  27.892  34.527  12.167
39375W        W10904  12.490   0.818   2.773
39376W        W10905   2.845   7.820  11.224
39377W        W10906  37.585  34.984  13.488
39378W        W10907   3.787   4.217   3.659
39379W        W10908  30.219  16.317   4.970
39380W        W10909   7.407  28.251  13.544
39381W        W10910  34.507  26.062   0.182
39382W        W10911  32.391   9.889  10.715
39383W        W10912  26.008  38.094   1.299
39384W        W10913   7.841  42.767   1.388
39385W        W10914  20.549  26.610   3.373
39386W        W10915   3.974  34.011  10.657
39387W        W10916   1.328  36.388   1.374
39388W        W10917  39.761   8.097   0.971
39389W        W10918  29.036  21.668  11.140
39390W        W10919   1.866   0.297  11.777
39391W        W10920   0.225  25.553   1.504
39392W        W10921  14.658  33.311   3.287
39393W        W10922   6.978  40.179  10.904
39394W        W10923  15.294   7.385   2.243
39395W        W10924  43.259  12.534   5.070
39396W        W10925  34.281  22.554  13.303
39397W        W10926  27.991  12.775   1.793
39398W        W10927  21.533  17.492   3.617
39399W        W10928  13.123   6.877   0.346
39400W        W10929  40.940  37.774   0.401
39401W        W10930  17.898  10.876   2.769
39402W        W10931   7.178  11.268  14.943
39403W        W10932  11.009  25.674  13.518
39404W        W10933   5.951  13.866  10.993
39405W        W10934  19.748  44.370  11.051
39406W        W10935  33.603  37.135   4.721
39407W        W10936  25.974  25.078   4.114
39408W        W10937  12.879  12.507  11.988
39409W        W10938   6.974  41.508   0.743
39410W        W10939  22.004  36.134   2.682
39411W        W10940  20.820  38.688  11.156
39412W        W10941   0.997   2.259   0.227
39413W        W10942   1.549  32.428  12.094
39414W        W10943  14.577  40.788   1.365
39415W        W10944  33.407   6.291   2.861
39416W        W10945  26.882  38.032  12.049
39417W        W10946  43.732  41.868   2.272
39418W        W10947   8.918  32.657   3.316
39419W        W10948  39.931  42.801  13.434
39420W        W10949   0.359  15.623  13.963
39421W        W10950  13.379  14.179  10.258
39422W        W10951   1.555  21.761   1.754
39423W        W10952   2.938  16.041  11.517
39424W        W10953  40.611  14.320  12.624
39425W        W10954  40.382  16.527   4.957
39426W        W10955  41.255  31.978  10.412
39427W        W10956  22.336  44.072  13.586
39428W        W10957  16.321  30.530   4.123
39429W        W10958  26.548  31.512   1.088
39430W        W10959  16.326  21.545  11.147
39431W        W10960   7.313  26.505   4.117
39432W        W10961  38.331  44.715   1.656
39433W        W10962  34.922  22.342  11.140
39434W        W10963  44.917   5.188  14.821
39435W        W10964  29.070   8.060  12.459
39436W        W10965  23.571   5.050  14.877
39437W        W10966  44.446   3.861  10.773
39438W        W10967  43.008   3.023   3.916
39439W        W10968  21.699  12.423   2.354
39440W        W10969  42.982  34.695   3.692
39441W        W10970  18.680   8.320  14.044
39442W        W10971  20.172  12.268  12.186
39443W        W10972  20.150   7.809   0.943
39444W        W10973  23.826  25.623   1.376
39445W        W10974  15.698  11.774  13.726
39446W        W10975  35.070  18.507  12.037
39447W        W10976  41.073   2.083  10.852
39448W        W10977   5.953  23.509   0.132
39449W        W10978  15.982  10.054  14.859
39450W        W10979  42.911  42.357  12.962
39451W        W10980  33.062  34.877  11.128
39452W        W10981   9.271  16.587  14.858
39453W        W10982  15.580   9.403  10.798
39454W        W10983  35.977  34.503   1.234
39455W        W10984  36.912  16.646   4.149
39456W        W10985  28.574  18.179  14.902
39457W        W10986  27.181  30.829  10.888
39458W        W10987  32.862  41.584   3.132
39459W        W10988  24.629  23.077  12.356
39460W        W10989  14.310  24.971  14.036
39461W        W10990  22.737  33.391   4.164
39462W        W10991  11.137  26.655   0.909
39463W        W10992  38.818   6.794  12.479
39464W        W10993  24.543   8.563   3.319
39465W        W10994  44.885  15.800   2.417
39466W        W10995  43.140  37.883   3.661
39467W        W10996  17.264  19.541  14.635
39468W        W10997  22.887   3.188   4.584
39469W        W10998  38.173  33.936  14.841
39470W        W10999   1.221  41.672   1.430
39471W        W11000  21.614   4.913  13.253
39472W        W11001  29.618   9.841   1.511
39473W        W11002   3.635  35.992   5.003
39474W        W11003  29.503  32.736  10.734
39475W        W11004  10.324   4.521  14.213
39476W        W11005  44.331  26.300  14.818
39477W        W11006  27.104  18.144   0.943
39478W        W11007  31.094  18.521   0.519
39479W        W11008   5.083  44.816   1.277
39480W        W11009  18.055  43.118   3.529
39481W        W11010  37.337  25.456  12.057
39482W        W11011  22.507  44.077   2.740
39483W        W11012  24.504  44.895   1.142
39484W        W11013  38.305   2.312   1.849
39485W        W11014   1.101  19.159   2.243
39486W        W11015  42.857  15.155  12.464
39487W        W11016  19.173  17.311  12.780
39488W        W11017  16.977  32.013   3.273
39489W        W11018  22.622  42.514  14.954
39490W        W11019   7.430   0.449  13.032
39491W        W11020   2.016  14.801  13.963
39492W        W11021  12.689  20.315  14.580
39493W        W11022   8.135  31.664  10.526
39494W        W11023  17.438   9.140   2.971
39495W        W11024  22.220  18.661   1.242
39496W        W11025  28.075  37.658  12.405
39497W        W11026  33.467  31.270  11.637
39498W        W11027   1.559  11.419  13.834
39499W        W11028  33.489   3.417  13.133
39500W        W11029  19.738  31.043  12.862
39501W        W11030  36.606  32.878  14.757
39502W        W11031  12.231   3.343   3.211
39503W        W11032  12.273  43.052   3.295
39504W        W11033   5.958  12.708   0.198
39505W        W11034  34.670  21.812  12.050
39506W        W11035  12.765  11.032  13.006
39507W        W11036  41.741  44.296   1.540
39508W        W11037   5.978  15.654   3.841
39509W        W11038  34.160   5.136   2.272
39510W        W11039  34.954  24.432   3.212
39511W        W11040  19.714  44.572  14.007
39512W        W11041  38.667  35.563   0.451
39513W        W11042  30.262  13.340   4.515
39514W        W11043  40.787  34.753  11.252
39515W        W11044  27.942  23.179  12.505
39516W        W11045  31.099  29.181  10.848
39517W        W11046  13.133  25.757   2.714
39518W        W11047  21.999  27.120   3.604
39519W        W11048   3.276   6.084  12.064
39520W        W11049  25.428   8.239  12.522
39521W        W11050  12.840  41.430   0.958
39522W        W11051   4.769  13.366   0.685
39523W        W11052   7.153  33.905  12.086
39524W        W11053  25.506   8.071   1.906
39525W        W11054   0.613  40.287   1.814
39526W        W11055  19.604  14.138  13.395
39527W        W11056  15.295  10.808  12.481
39528W        W11057  36.867   6.509  11.251
39529W        W11058   8.558  40.796  14.305
39530W        W11059  41.612  22.823   1.787
39531W        W11060   5.620  13.024  14.869
39532W        W11061  39.499  36.657   1.243
39533W        W11062  21.970  36.210   2.178
39534W        W11063   3.063  33.435   4.411
39535W        W11064  19.373  29.745   0.978
39536W        W11065   9.334   2.171   1.231
39537W        W11066  27.967  42.441   4.054
39538W        W11067   5.748  42.309   1.954
39539W        W11068  14.854  29.695   3.717
39540W        W11069   8.786  33.563   1.799
39541W        W11070  36.453  25.699   2.420
39542W        W11071   3.081   1.818   1.405
39543W        W11072  24.686  27.424  13.483
39544W        W11073  19.590  28.218  14.575
39545W        W11074  43.475  17.124  13.800
39546W        W11075  44.282  23.006  12.780
39547W        W11076   8.719  42.053   4.607
39548W        W11077  34.109   3.830   3.348
39549W        W11078   9.787  42.696   1.896
39550W        W11079  31.066  44.104   0.755
39551W        W11080   9.737  18.184  11.524
39552W        W11081   3.341  33.518  13.432
39553W        W11082  20.011  13.791  14.710
39554W        W11083  30.646   2.378  13.612
39555W        W11084  22.223  12.160   4.459
39556W        W11085   0.941  14.189   3.743
39557W        W11086  30.680  29.338  12.016
39558W        W11087  19.540   0.564  13.813
39559W        W11088  26.442   2.220  13.689
39560W        W11089   3.277  10.491  14.532
39561W        W11090  37.767  19.330   2.856
39562W        W11091  18.781  31.741   0.044
39563W        W11092  16.113  15.826  11.191
39564W        W11093  39.438  37.073  10.694
39565W        W11094  25.803  35.093  12.184
39566W        W11095  32.646  41.980   2.822
39567W        W11096  26.932   3.929   0.306
39568W        W11097  13.742  24.725  11.171
39569W        W11098  22.743   5.828  13.336
39570W        W11099   6.191   2.855   2.666
39571W        W11100  44.055   7.912   4.352
39572W        W11101  20.117   1.355  13.758
39573W        W11102  30.040  21.736  13.564
39574W        W11103  20.366  23.192   0.607
39575W        W11104  11.817  13.714  10.872
39576W        W11105   1.215  24.642   2.234
39577W        W11106  38.846   8.730  10.627
39578W        W11107  41.697  22.457  10.771
39579W        W11108   1.728  30.513  11.612
39580W        W11109   0.937  15.647  11.133
39581W        W11110  33.336  38.263  14.819
39582W        W11111  34.128  30.028   3.573
39583W        W11112  41.430  21.732  14.725
39584W        W11113  21.801  39.896  13.417
39585W        W11114  22.533  28.757  10.566
39586W        W11115  10.703   8.369   4.028
39587W        W11116  21.926  41.574  12.036
39588W        W11117   7.382   3.932  11.613
39589W        W11118  13.585  23.625   1.584
39590W        W11119   6.397  34.592  10.308
39591W        W11120  28.661  29.055   3.392
39592W        W11121  40.525  27.581   3.649
39593W        W11122  25.953  16.343  14.504
39594W        W11123  35.337  29.525  13.533
39595W        W11124   0.838  20.764  11.055
39596W        W11125   2.259  35.907  13.952
39597W        W11126  42.582   2.971  10.793
39598W        W11127   1.448   6.661   1.903
39599W        W11128  41.560  12.729   0.381
39600W        W11129  26.682  28.918  13.647
39601W        W11130   9.687  20.571  10.956
39602W        W11131   9.981   6.739  13.013
39603W        W11132  18.620  38.627   1.339
39604W        W11133  32.711  35.089   4.009
39605W        W11134  15.268  21.243   2.565
39606W        W11135  32.643   6.833   0.448
39607W        W11136   1.496  13.766   4.483
39608W        W11137  40.363  38.560   3.713
39609W        W11138  41.984  13.235  11.098
39610W        W11139  31.725  32.675   0.600
39611W        W11140  12.660  11.017  12.097
39612W        W11141   9.249   8.735  12.782
39613W        W11142  42.557  35.751   4.167
39614W        W11143  32.842  14.067   3.746
39615W        W11144  28.575  27.535   0.821
39616W        W11145  21.305  41.394   0.073
39617W        W11146  18.723  14.634  12.817
39618W        W11147  15.579  15.942  14.887
39619W        W11148  21.729  35.370  11.624
39620W        W11149   8.900  37.089   1.814
39621W        W11150  34.998  40.477   2.312
39622W        W11151  23.009   1.447   1.510
39623W        W11152  26.940   2.883   2.298
39624W        W11153   6.018  29.458  13.709
39625W        W11154  20.548  11.084  14.045
39626W        W11155  22.182  44.751  13.798
39627W        W11156  20.386  27.463  12.522
39628W        W11157  32.199  11.134  14.017
39629W        W11158  11.895  32.249  11.108
39630W        W11159  37.520  29.077  14.446
39631W        W11160  15.596  37.348  11.987
39632W        W11161  35.750   0.290  12.417
39633W        W11162  15.224  11.108  13.849
39634W        W11163  22.118  21.162  11.589
39635W        W11164  40.424  34.415  11.116
39636W        W11165  38.998  26.125  14.527
39637W        W11166  37.626  38.532  10.768
39638W        W11167   5.912   4.769  11.191
39639W        W11168  29.654  42.307  10.475
39640W        W11169  43.653  27.035   2.833
39641W        W11170   7.471  44.360  12.055
39642W        W11171  30.855  26.867   5.072
39643W        W11172  11.192   8.625   0.451
39644W        W11173   6.420  26.274  12.024
39645W        W11174  40.493  24.637   4.559
39646W        W11175  38.403   5.836  12.497
39647W        W11176  28.927   2.668  13.479
39648W        W11177  14.292  16.234   4.370
39649W        W11178  24.445  28.751  11.676
39650W        W11179  38.128   1.551  13.055
39651W        W11180  35.943  31.111  14.457
39652W        W11181  17.957  26.203  14.434
39653W        W11182  21.959  11.665  14.761
39654W        W11183   1.659  40.586  14.933
39655W        W11184  42.974  37.428  11.963
39656W        W11185   5.390  32.925   3.838
39657W        W11186  14.039  42.984  13.400
39658W        W11187  27.917   0.993   2.839
39659W        W11188  33.079  17.318   4.206
39660W        W11189  34.802  37.308   3.869
39661W        W11190  11.925   0.942  11.987
39662W        W11191  27.126  40.099   2.296
39663W        W11192  34.499  11.850  10.941
39664W        W11193   1.444  41.400   3.797
39665W        W11194  20.699  20.793  12.598
39666W        W11195  36.977  41.104   4.696
39667W        W11196  39.384  20.557   1.703
39668W        W11197  16.543  14.315  14.752
39669W        W11198  12.229  26.981   0.277
39670W        W11199   2.976   0.991   2.877
39671W        W11200  15.980  38.297  11.039
39672W        W11201  16.033  23.746  12.651
39673W        W11202   6.235   8.204  11.230
39674W        W11203   2.344  22.365  12.887
39675W        W11204  19.717   2.250   2.353
39676W        W11205  39.283   9.538   4.699
39677W        W11206  27.239  23.629  14.326
39678W        W11207  39.394   0.378  14.351
39679W        W11208  31.852  23.998  13.945
39680W        W11209   3.359  44.266  10.456
39681W        W11210   6.153  41.894  13.928
39682W        W11211  12.952  35.986  13.908
39683W        W11212  31.088  18.043   0.299
39684W        W11213  32.663  16.100   4.643
39685W        W11214   3.843  13.311  10.704
39686W        W11215  44.951  39.561  14.856
39687W        W11216  42.885  38.973  14.983
39688W        W11217   5.949  22.575   1.467
39689W        W11218  12.927   9.097   4.147
39690W        W11219   9.845  15.796  13.559
39691W        W11220  29.007  25.406   0.506
39692W        W11221  14.343   1.392   2.812
39693W        W11222  39.192   9.355  11.983
39694W        W11223  19.214   1.020   1.267
39695W        W11224  23.920  28.851  10.322
39696W        W11225  40.492   6.606   4.108
39697W        W11226  22.539  19.338   0.311
39698W        W11227  43.475  22.088  10.704
39699W        W11228  10.237  10.782  12.144
39700W        W11229  25.633   8.269  10.621
39701W        W11230  39.578   5.373  12.342
39702W        W11231  32.208  11.571  14.809
39703W        W11232  20.725  42.910   4.929
39704W        W11233  37.883  17.291  14.393
39705W        W11234  18.488  13.274  12.488
39706W        W11235  10.735  10.089  14.023
39707W        W11236   2.584  22.205  10.470
39708W        W11237  13.279  20.113  11.714
39709W        W11238  28.612  44.080   0.054
39710W        W11239  42.784   5.483  13.938
39711W        W11240  35.564   0.991   0.477
39712W        W11241   1.756  33.171   2.672
39713W        W11242  16.195  23.792  14.199
39714W        W11243   9.509  21.686   3.498
39715W        W11244   3.896  37.242   4.051
39716W        W11245  30.026  23.217   3.197
39717W        W11246  38.300  42.273   4.732
39718W        W11247   5.684  37.794  11.608
39719W        W11248  12.225  34.318   2.875
39720W        W11249  30.146  35.881   4.326
39721W        W11250   6.319  36.743  11.047
39722W        W11251  30.422  30.387   4.781
39723W        W11252  30.958  11.812   4.240
39724W        W11253  41.437  30.614  14.489
39725W        W11254  14.271   6.843   3.576
39726W        W11255   0.701   3.229   2.425
39727W        W11256  15.553  10.885  14.898
39728W        W11257  31.154  27.965  12.458
39729W        W11258   3.942  43.898   4.669
39730W        W11259  44.773  13.439   0.406
39731W        W11260  12.290   9.347  12.573
39732W        W11261  42.947   8.324   0.201
39733W        W11262   8.859  17.711  12.369
39734W        W11263  11.732   8.819   2.711
39735W        W11264  34.978  24.753   3.641
39736W        W11265  31.124  40.287  13.105
39737W        W11266  34.107  25.358   3.693
39738W        W11267  22.600  17.061  12.063
39739W        W11268   7.310  19.891  12.389
39740W        W11269  28.203  10.751  10.882
39741W        W11270  44.845  34.387  13.210
39742W        W11271  43.477  26.542   2.857
39743W        W11272  15.206  14.563   4.739
39744W        W11273  32.554  33.262  13.473
39745W        W11274   1.272  18.788  14.056
39746W        W11275   0.587  34.699  12.916
39747W        W11276  38.934  22.699   2.725
39748W        W11277  28.418  44.355   1.889
39749W        W11278  30.992  38.853  11.089
39750W        W11279  20.633  33.161  14.229
39751W        W11280   4.498   5.147  11.131
39752W        W11281   0.306  14.234   1.992
39753W        W11282  32.532  11.094  10.172
39754W        W11283  23.990  26.716   2.797
39755W        W11284  10.761   0.078   3.706
39756W        W11285  24.830   6.148  12.668
39757W        W11286  24.825  38.328   0.847
39758W        W11287   7.387   5.517   0.386
39759W        W11288  30.288   8.936   3.303
39760W        W11289  28.460  22.917  14.349
39761W        W11290  26.052  24.719  12.624
39762W        W11291  19.590  23.659   4.567
39763W        W11292  17.236  35.506  12.129
39764W        W11293  40.031  14.707   4.890
39765W        W11294  12.599  43.241  12.929
39766W        W11295  28.701  22.558   3.061
39767W        W11296  39.115   6.571   2.610
39768W        W11297  35.034  14.825   2.425
39769W        W11298  31.949  29.971   4.112
39770W        W11299   9.766  40.530   3.589
39771W        W11300  43.716  23.109  14.069
39772W        W11301  39.276  35.443   3.649
39773W        W11302   3.528  23.303  12.993
39774W        W11303  44.879   5.674  12.644
39775W        W11304  42.243   9.750  13.996
39776W        W11305  22.793  39.821   2.796
39777W        W11306  27.229  19.768  13.370
39778W        W11307  27.788   6.345   0.375
39779W        W11308  32.521   3.691   3.693
39780W        W11309  11.240  28.963   1.272
39781W        W11310  41.079   6.914  14.951
39782W        W11311   9.912   0.865  14.055
39783W        W11312  22.682  31.664   2.010
39784W        W11313  11.298   4.850  12.226
39785W        W11314  41.728  34.782  11.147
39786W        W11315  22.959  16.246   1.710
39787W        W11316  19.100  27.048  11.888
39788W        W11317  37.881  18.579   2.280
39789W        W11318   8.986   7.125  12.032
39790W        W11319  44.030  20.284   1.334
39791W        W11320   6.841  10.325  14.893
39792W        W11321  20.932   8.212  12.347
39793W        W11322   4.832  44.481   0.470
39794W        W11323   4.740   9.569   0.082
39795W        W11324  21.064  16.319   0.636
39796W        W11325  36.991   5.085  11.153
39797W        W11326   7.549  36.289   2.820
39798W        W11327  35.997  38.006  12.365
39799W        W11328   0.769  27.115   0.391
39800W        W11329  31.212  23.644  14.458
39801W        W11330  12.275  12.060  14.275
39802W        W11331  35.846  18.314   0.911
39803W        W11332   3.327  12.313   3.073
39804W        W11333   6.860   3.270  13.837
39805W        W11334  27.597  18.168  14.594
39806W        W11335  27.299  23.940  10.637
39807W        W11336   5.564  40.105  14.583
39808W        W11337   1.015  25.259   5.111
39809W        W11338  28.986  14.340  13.265
39810W        W11339  32.008  39.422   4.995
39811W        W11340  28.855  16.239   2.810
39812W        W11341  33.685  30.546  12.091
39813W        W11342  15.339  21.471  12.909
39814W        W11343  40.711  42.404  11.517
39815W        W11344   0.151  15.627  10.836
39816W        W11345   5.117  30.601  14.684
39817W        W11346  21.056  30.800   4.543
39818W        W11347  35.989  43.197  13.466
39819W        W11348  33.104  43.434   1.467
39820W        W11349  23.744  37.044  12.607
39821W        W11350  37.961  21.611   1.933
39822W        W11351  27.328   9.326  12.097
39823W        W11352  38.539  41.533   0.531
39824W        W11353   5.110   7.849  11.542
39825W        W11354  18.777  25.247   0.515
39826W        W11355  11.929  41.453   2.243
39827W        W11356  19.590  13.470   0.550
39828W        W11357  21.986  17.152   4.192
39829W        W11358  24.652  38.548  14.244
39830W        W11359  38.943  11.156   4.144
39831W        W11360   3.162  30.363   4.166
39832W        W11361   4.164  17.184  13.622
39833W        W11362  27.533  13.309  11.041
39834W        W11363   7.877   6.822   4.511
39835W        W11364  19.981   9.917   3.221
39836W        W11365  34.025  40.536  10.684
39837W        W11366  15.659   9.652   1.287
39838W        W11367   6.809  21.087  10.674
39839W        W11368  38.352  31.095  11.606
39840W        W11369  34.406  21.498   0.347
39841W        W11370  11.786   1.930   0.702
39842W        W11371  27.875   9.917  14.030
39843W        W11372  14.379   7.234   5.199
39844W        W11373  34.273  30.179  11.752
39845W        W11374   2.003   5.399   0.816
39846W        W11375  35.837  30.633   1.734
39847W        W11376  21.257   8.701   3.300
39848W        W11377  18.069   4.985  13.497
39849W        W11378   9.581   7.495   2.893
39850W        W11379  40.300  43.282  11.029
39851W        W11380   6.865   5.472   0.314
39852W        W11381  24.226  18.233   2.533
39853W        W11382  29.938  42.246  14.838
39854W        W11383   3.676  17.249   5.154
39855W        W11384  11.667  36.121  14.807
39856W        W11385  30.149  25.851  13.869
39857W        W11386  33.394  33.472  14.109
39858W        W11387   1.347  25.091   1.994
39859W        W11388  34.461  31.423   3.638
39860W        W11389  16.896  44.515   1.540
39861W        W11390  16.952  38.614   3.789
39862W        W11391  25.379   9.397  12.267
39863W        W11392  32.003  38.335  10.115
39864W        W11393  29.079  13.197   2.525
39865W        W11394  11.277  19.197  11.638
39866W        W11395  28.585  34.962  13.306
39867W        W11396   9.803  28.839   1.553
39868W        W11397  23.553   7.988  13.781
39869W        W11398  42.538  18.479  11.087
39870W        W11399  15.016  44.016   2.921
39871W        W11400  40.673  21.964  12.907
39872W        W11401  28.463  40.410  12.916
39873W        W11402  18.081  31.461   0.809
39874W        W11403  34.675  16.620  14.003
39875W        W11404  37.521  10.784   1.791
39876W        W11405  16.645  18.575  14.221
39877W        W11406  32.065  38.444  14.426
39878W        W11407   1.522  30.498  11.103
39879W        W11408   0.718  12.991   0.497
39880W        W11409   7.113  28.547  10.723
39881W        W11410  16.111  43.832  10.615
39882W        W11411  31.209  24.586  12.577
39883W        W11412  22.616  20.115  14.912
39884W        W11413  33.137   7.577  11.844
39885W        W11414   1.246   9.229   2.281
39886W        W11415  44.808  38.762   0.250
39887W        W11416  42.157  19.725   4.551
39888W        W11417   5.353  21.734   1.781
39889W        W11418  14.105   7.837   2.643
39890W        W11419   0.288   2.445   0.402
39891W        W11420   1.999  27.288   3.213
39892W        W11421  18.873  23.037  14.387
39893W        W11422  42.684   2.214  13.393
39894W        W11423  39.321  37.267   2.331
39895W        W11424  12.091  25.521   4.474
39896W        W11425  39.885   1.463  11.989
39897W        W11426  38.113   4.864  14.757
39898W        W11427   5.730  42.252  14.451
39899W        W11428  28.272  11.661  14.820
39900W        W11429  36.176   8.783   3.236
39901W        W11430  38.773   4.308  14.376
39902W        W11431   8.498  10.297   4.303
39903W        W11432  31.468  43.458   2.460
39904W        W11433  20.807  13.816  10.619
39905W        W11434  20.630  30.510   4.488
39906W        W11435   8.211  27.026   4.445
39907W        W11436  31.717  27.001  14.390
39908W        W11437  15.141  32.268   3.988
39909W        W11438   4.518  28.822   3.124
39910W        W11439  23.224  16.702  12.543
39911W        W11440  29.394  36.451   2.813
39912W        W11441  19.730   9.354   2.623
39913W        W11442  12.278  36.399  12.175
39914W        W11443   4.712   0.898   3.388
39915W        W11444  13.594   7.179   3.730
39916W        W11445  27.765  20.249  13.715
39917W        W11446   4.404  11.330  13.560
39918W        W11447  24.253   4.475   4.515
39919W        W11448  38.879  35.117   4.281
39920W        W11449  19.331  20.596   4.709
39921W        W11450   5.899  16.974  13.819
39922W        W11451  23.711  20.173   0.714
39923W        W11452  12.533   0.302  14.239
39924W        W11453  24.556  30.316   0.414
39925W        W11454   2.853  39.177   3.656
39926W        W11455   3.707  38.103  12.047
39927W        W11456   5.876  22.621   2.465
39928W        W11457  41.315   1.845  14.703
39929W        W11458  32.941  13.845   2.756
39930W        W11459  11.415  41.456   3.195
39931W        W11460   2.862  21.939   2.268
39932W        W11461   4.442   8.689  12.078
39933W        W11462  30.903  42.974  14.050
39934W        W11463  36.535  17.554  10.731
39935W        W11464  38.283  15.717   4.750
39936W        W11465   7.147  12.021   4.105
39937W        W11466   3.930  44.249   3.816
39938W        W11467  28.283   9.677  12.347
39939W        W11468   4.836  21.685  11.186
39940W        W11469  15.293  40.996  13.023
39941W        W11470  10.651  22.999   2.907
39942W        W11471  15.513   8.691  13.043
39943W        W11472   2.316  10.224   1.930
39944W        W11473   5.524  40.341  14.133
39945W        W11474  41.898  17.766   2.753
39946W        W11475  30.521   3.290  14.110
39947W        W11476   8.709  20.960  11.640
39948W        W11477  43.382   4.795  13.770
39949W        W11478  10.109  13.929  14.941
39950W        W11479  37.053  21.053  13.388
39951W        W11480  32.889  17.040   3.372
39952W        W11481  16.039  32.600  11.006
39953W        W11482  28.358  36.461   2.916
39954W        W11483  10.285  30.616   4.732
39955W        W11484  35.698  19.248   2.336
39956W        W11485  37.197  20.735   1.452
39957W        W11486  17.638  39.092  14.762
39958W        W11487  33.055  27.373  14.861
39959W        W11488  42.476  29.987  11.056
39960W        W11489   5.967  38.969   3.777
39961W        W11490  20.263  10.434   3.746
39962W        W11491   2.076  27.699  11.435
39963W        W11492   8.709  24.531   1.801
39964W        W11493  29.481  38.932  14.938
39965W        W11494  12.294  18.990   1.253
39966W        W11495  37.995  15.735  13.047
39967W        W11496  22.509  35.122   0.850
39968W        W11497  26.168  28.274  12.537
39969W        W11498   8.154   8.928  10.754
39970W        W11499   2.727   3.217  11.940
39971W        W11500  12.266  44.193  14.987
39972W        W11501  23.471  21.655   2.453
39973W        W11502  30.760  43.377   0.281
39974W        W11503   2.451   3.197  14.026
39975W        W11504  31.582  19.135  11.547
39976W        W11505  24.525  11.908   0.341
39977W        W11506  42.338   7.253  14.533
39978W        W11507  12.732   4.203   3.653
39979W        W11508   1.572  14.615   0.325
39980W        W11509  23.428   7.247  11.319
39981W        W11510  44.683  40.486  13.496
39982W        W11511  44.172  43.546   4.723
39983W        W11512  40.140  40.808   3.650
39984W        W11513   4.977   0.269  12.022
39985W        W11514  37.978  15.294   4.643
39986W        W11515   2.772  29.003   0.670
39987W        W11516  41.524  12.086  12.829
39988W        W11517  30.670  34.501   4.462
39989W        W11518  13.910  43.703  12.499
39990W        W11519  30.706  10.106  14.293
39991W        W11520  22.178   3.438  11.069
39992W        W11521  23.678  11.166   3.662
39993W        W11522   5.892  30.507   4.216
39994W        W11523  33.949  16.968  13.537
39995W        W11524  14.293  39.798  11.577
39996W        W11525  10.351   1.845   1.953
39997W        W11526  31.914   0.283   3.692
39998W        W11527  17.051  34.617   4.836
39999W        W11528  26.568  40.435   0.125
40000W        W11529   8.239   1.903  10.476
40001W        W11530   0.723   7.255   4.394
40002W        W11531  23.598  11.783   1.418
40003W        W11532  14.448  17.257   0.691
40004W        W11533  40.381  29.523   2.838
40005W        W11534  27.115  32.896  11.069
40006W        W11535   2.771  20.812   4.164
40007W        W11536  14.533  33.985  11.440
40008W        W11537  35.946  28.020  13.909
40009W        W11538  20.774   0.755   3.675
40010W        W11539  25.700   8.651   0.704
40011W        W11540   9.142  13.779  14.337
40012W        W11541  44.522   6.885  13.887
40013W        W11542  27.474   0.019  11.626
40014W        W11543   1.402   3.156  11.957
40015W        W11544  32.437  21.244   0.232
40016W        W11545  23.740  34.111   1.223
40017W        W11546  21.257   5.010   2.227
40018W        W11547  29.215  12.729   2.307
40019W        W11548   2.744  35.973  14.227
40020W        W11549   9.867   4.339   1.683
40021W        W11550   3.862  10.397   0.805
40022W        W11551   1.945  37.375   0.273
40023W        W11552   2.804   7.330   1.357
40024W        W11553  32.446  28.697  10.480
40025W        W11554  18.488  20.668   0.256
40026W        W11555  10.758  36.528   2.900
40027W        W11556  26.662  41.267  11.539
40028W        W11557  32.518  22.168  11.518
40029W        W11558  14.926  38.607  11.918
40030W        W11559  37.859  35.322  11.052
40031W        W11560  16.601  28.572   0.674
40032W        W11561   7.464   0.820   3.732
40033W        W11562  21.132  31.880  14.529
40034W        W11563  22.086   0.167   3.112
40035W        W11564  27.093  10.735   1.951
40036W        W11565   5.551  25.508   3.659
40037W        W11566   7.727  40.506   2.156
40038W        W11567  14.055  18.292  11.177
40039W        W11568   6.851  12.777   1.833
40040W        W11569  15.550  18.015   0.302
40041W        W11570  29.576   0.623   1.354
40042W        W11571  25.641  22.946  12.511
40043W        W11572   2.475   9.586  11.562
40044W        W11573  43.442  26.628  11.532
40045W        W11574  44.257  25.042  13.963
40046W        W11575   7.471  33.493  10.426
40047W        W11576   3.400  18.195   0.986
40048W        W11577  31.473  27.018   5.454
40049W        W11578  22.552   6.426  12.513
40050W        W11579  43.889  28.524   4.525
40051W        W11580  43.758  19.578  12.092
40052W        W11581  15.713  27.860   2.369
40053W        W11582  22.201  25.185  10.603
40054W        W11583  44.246  20.806  12.641
40055W        W11584  16.495  22.140   3.727
40056W        W11585   1.176  12.623   2.253
40057W        W11586   4.517  29.915  13.202
40058W        W11587   3.171   7.329   4.671
40059W        W11588  30.745  15.758   4.509
40060W        W11589  17.802   2.313  12.026
40061W        W11590  18.201   2.808   0.788
40062W        W11591  36.231  16.812  11.178
40063W        W11592  28.582  10.142  12.523
40064W        W11593  31.951  11.813  10.692
40065W        W11594  41.549   9.686   4.120
40066W        W11595  35.584   6.973  14.530
40067W        W11596  42.480  25.498  13.968
40068W        W11597  37.111  25.585   2.149
40069W        W11598  26.734  39.420  11.486
40070W        W11599   5.711  38.881   1.962
40071W        W11600   6.857  19.673  12.242
40072W        W11601   3.843  43.269   0.848
40073W        W11602  31.558  21.269  10.681
40074W        W11603  10.953  29.520  13.570
40075W        W11604  30.014  41.087   3.515
40076W        W11605  30.853  15.289   0.224
40077W        W11606  23.752  32.619  12.672
40078W        W11607   0.887  13.188  10.759
40079W        W11608  29.848   3.800   1.691
40080W        W11609  44.234  28.588   0.708
40081W        W11610   7.697  39.982   2.928
40082W        W11611  28.214  41.949   2.350
40083W        W11612   9.860  36.570   0.849
40084W        W11613   3.625  18.245  14.797
40085W        W11614  33.483  18.965   2.368
40086W        W11615  13.232  43.621  11.520
40087W        W11616   5.822  29.483  14.436
40088W        W11617  17.876   0.283   1.227
40089W        W11618  34.556  13.206   4.105
40090W        W11619   7.849  29.049  14.842
40091W        W11620   7.246  12.257   0.718
40092W        W11621  21.014   8.313  11.835
40093W        W11622  14.722   7.253  12.023
40094W        W11623  19.489  10.289  13.939
40095W        W11624   2.489  23.020   3.671
40096W        W11625  31.371   5.485   4.570
40097W        W11626   0.427  44.521   4.551
40098W        W11627  29.459  14.374  14.352
40099W        W11628  19.209  29.622  11.712
40100W        W11629   3.990  21.406   1.863
40101W        W11630  15.143  16.138  10.496
40102W        W11631  42.079  37.102   0.780
40103W        W11632  31.395   3.325   3.987
40104W        W11633  43.581   9.243  14.004
40105W        W11634  24.262  29.363  10.562
40106W        W11635  27.709   4.802   3.252
40107W        W11636   1.730   6.439  12.586
40108W        W11637  35.382  26.954   4.545
40109W        W11638  42.619   8.808   3.446
40110W        W11639  19.541   4.320   2.782
40111W        W11640  21.868  41.255  10.798
40112W        W11641   0.241  30.153  13.284
40113W        W11642  21.133  20.085   4.576
40114W        W11643  17.048  44.781   4.078
40115W        W11644   9.663   2.140  12.576
40116W        W11645  32.152  12.655  12.048
40117W        W11646   0.007  39.623   1.210
40118W        W11647  17.274  16.223   1.730
40119W        W11648  17.359   8.549   4.203
40120W        W11649  13.141  16.920   1.853
40121W        W11650  32.225   6.707   0.885
40122W        W11651  13.018  13.363   3.129
40123W        W11652   5.514  13.706   2.194
40124W        W11653  33.198  15.101  12.303
40125W        W11654  19.460  25.097  10.373
40126W        W11655  18.755   9.994  14.693
40127W        W11656  28.062  36.609   0.955
40128W        W11657   2.245  41.816  11.612
40129W        W11658  39.723   9.658   3.765
40130W        W11659  44.398  19.646  14.890
40131W        W11660   9.661  42.935  12.258
40132W        W11661   5.676  16.259  11.693
40133W        W11662  20.555  14.098   1.881
40134W        W11663  35.526  18.706   4.916
40135W        W11664  39.890  18.987   4.314
40136W        W11665  40.012  30.811  11.056
40137W        W11666  21.728  34.906  14.818
40138W        W11667  43.941  12.322   0.377
40139W        W11668   8.428  43.070  14.139
40140W        W11669   1.323  16.086  13.156
40141W        W11670  42.226  40.822  14.761
40142W        W11671   1.352  10.326  14.828
40143W        W11672  10.663  36.865  14.736
40144W        W11673   1.257  14.320  12.102
40145W        W11674  30.502  12.466  12.061
40146W        W11675  21.762  24.380  13.435
40147W        W11676  42.437  21.306   4.060
40148W        W11677   2.701  36.693   4.139
40149W        W11678  30.082  15.601  12.874
40150W        W11679  15.086  15.198   0.720
40151W        W11680  39.245  13.008   2.689
40152W        W11681   1.171  40.470   4.643
40153W        W11682  40.001  28.098  10.625
40154W        W11683  38.350  24.335  12.827
40155W        W11684  15.661  31.532  14.265
40156W        W11685  28.935   8.581  11.011
40157W        W11686  15.816  23.661   0.960
40158W        W11687  22.617  35.237  14.398
40159W        W11688  17.722  44.272   4.438
40160W        W11689  24.138   2.016  13.417
40161W        W11690  42.850   5.962   4.594
40162W        W11691  39.452  27.875   1.688
40163W        W11692   3.326  14.024  10.459
40164W        W11693  24.968  20.279  13.456
40165W        W11694  43.573   2.818   1.339
40166W        W11695  37.320  10.509  12.149
40167W        W11696  19.244   6.788   0.965
40168W        W11697  24.508  36.733  12.747
40169W        W11698  28.990  34.751   4.117
40170W        W11699  17.357  35.449   4.180
40171W        W11700   2.520  12.934  14.604
40172W        W11701  44.530  14.916   2.902
40173W        W11702  27.805  34.095  11.418
40174W        W11703  44.774  13.569  12.541
40175W        W11704  24.568  34.582  13.337
40176W        W11705   3.945   0.169   4.102
40177W        W11706  22.420  41.966   0.738
40178W        W11707  35.285  36.301   2.357
40179W        W11708   8.549  22.139   1.962
40180W        W11709  26.043  17.839  10.743
40181W        W11710   5.833  39.279   3.391
40182W        W11711  12.525  22.990  11.703
40183W        W11712  29.648  23.128  10.726
40184W        W11713  21.945  10.102   2.227
40185W        W11714  30.976  43.949  14.320
40186W        W11715  37.085  11.555   3.690
40187W        W11716  11.906  12.389  14.349
40188W        W11717  42.948  11.780   2.121
40189W        W11718  43.700  26.470  11.104
40190W        W11719  44.902  43.476  11.540
40191W        W11720  18.897  44.200   0.387
40192W        W11721  29.713   5.576   3.669
40193W        W11722  38.427  12.273  11.174
40194W        W11723  39.953  35.793  14.247
40195W        W11724   6.719  12.254   0.919
40196W        W11725   5.685  34.582   3.207
40197W        W11726  30.656  15.995   0.868
40198W        W11727   8.618  25.941   2.111
40199W        W11728  25.260  11.552   2.840
40200W        W11729  29.628  24.948   0.898
40201W        W11730   0.470  25.518  10.646
40202W        W11731  11.585   0.849  12.474
40203W        W11732  13.083  24.698  12.334
40204W        W11733  10.421   5.277  12.512
40205W        W11734  38.139  41.346  11.695
40206W        W11735  33.435  22.294   4.177
40207W        W11736  23.261  32.557  12.431
40208W        W11737  43.306  28.195  12.498
40209W        W11738  13.877  18.278  14.853
40210W        W11739  25.602  37.687   0.994
40211W        W11740  17.626  19.300  13.591
40212W        W11741  42.219   8.305  11.558
40213W        W11742   9.597  26.132   1.674
40214W        W11743  15.098  10.962   3.287
40215W        W11744  12.628   7.697  14.908
40216W        W11745  41.042   8.112   1.309
40217W        W11746   3.948   6.475   4.225
40218W        W11747  28.744  40.383   3.786
40219W        W11748  25.488  28.007  10.737
40220W        W11749   3.403   8.575  12.079
40221W        W11750   8.007  15.214   4.445
40222W        W11751  36.439  36.058   3.603
40223W        W11752  32.013   6.823  13.478
40224W        W11753  16.085  22.437   3.646
40225W        W11754  25.891  24.590  14.457
40226W        W11755  12.711   7.278  14.309
40227W        W11756   3.822  43.827   3.368
40228W        W11757  17.512  34.202   2.272
40229W        W11758  28.009  19.208  10.550
40230W        W11759   6.145  32.362   0.773
40231W        W11760   8.949  43.073  11.104
40232W        W11761  15.036  18.356  13.885
40233W        W11762  27.367  20.373  11.489
40234W        W11763   6.983  18.218  11.665
40235W        W11764   2.913  27.408  13.896
40236W        W11765   8.748  10.394  11.582
40237W        W11766   0.966   4.267   4.037
40238W        W11767  25.141   7.511  14.023
40239W        W11768  44.302  37.631  12.144
40240W        W11769  36.368  41.031   1.902
40241W        W11770  27.569  14.783  13.322
40242W        W11771  15.618  24.050   1.218
40243W        W11772  21.116   8.208   2.366
40244W        W11773  40.082   7.347  14.004
40245W        W11774  10.179  18.593  13.274
40246W        W11775  40.991   9.249  14.801
40247W        W11776  23.492  27.154  14.805
40248W        W11777  23.024  26.423   0.769
40249W        W11778  18.341  33.927   4.258
40250W        W11779  29.559  41.449  10.725
40251W        W11780  23.164  35.935  14.414
40252W        W11781  42.809   5.175  12.570
40253W        W11782   9.777  19.278  12.841
40254W        W11783   7.318  37.069  13.002
40255W        W11784  30.267  31.437  10.910
40256W        W11785  35.308  14.250  11.836
40257W        W11786  11.168   7.220  14.402
40258W        W11787  44.935  16.661   3.722
40259W        W11788  26.993  12.243  12.097
40260W        W11789  32.654  22.657  14.002
40261W        W11790  31.394  29.577  12.510
40262W        W11791  10.773  37.780  12.878
40263W        W11792  38.843   2.530  11.767
40264W        W11793  19.108   0.124  11.056
40265W        W11794  16.372  11.250  11.735
40266W        W11795  39.483  33.380  14.010
40267W        W11796  40.985  23.945   3.930
40268W        W11797  12.616  41.061  12.081
40269W        W11798   4.508   6.881   0.294
40270W        W11799   5.471  39.007   3.651
40271W        W11800   9.735  38.078   3.090
40272W        W11801   1.793  10.303  11.562
40273W        W11802  19.561  44.419  11.947
40274W        W11803  31.218  39.999  13.913
40275W        W11804  28.694   0.395  11.631
40276W        W11805  39.432  21.911   2.552
40277W        W11806  19.065   1.241   1.781
40278W        W11807  42.336  44.637  10.620
40279W        W11808  13.722  22.884   4.944
40280W        W11809   9.283  11.410   0.311
40281W        W11810  32.834  29.558   3.824
40282W        W11811  32.651  30.462   3.607
40283W        W11812   9.954   8.481   4.269
40284W        W11813  11.272  22.739   4.135
40285W        W11814  16.864  17.610   1.362
40286W        W11815  26.032  36.075  10.545
40287W        W11816  43.186  23.043   2.833
40288W        W11817  33.178  29.479   1.719
40289W        W11818  17.074   5.481   3.185
40290W        W11819  10.702  32.366  10.612
40291W        W11820  40.284   8.230  12.902
40292W        W11821  34.627   9.176  11.722
40293W        W11822  40.059  29.840   2.192
40294W        W11823  15.158   7.022   0.671
40295W        W11824  23.072  30.284   4.449
40296W        W11825  32.833   0.778  13.283
40297W        W11826  40.749   6.495   0.059
40298W        W11827   0.610  14.676   4.600
40299W        W11828   1.670  12.211  13.019
40300W        W11829  26.714  37.068   1.160
40301W        W11830  25.726  43.840   2.318
40302W        W11831  26.470  12.483   3.188
40303W        W11832  39.377  26.487  10.630
40304W        W11833  34.340  14.154  12.920
40305W        W11834   2.548  21.488  11.552
40306W        W11835   3.440   6.534   3.787
40307W        W11836  12.599  25.560   4.319
40308W        W11837   4.490  42.692  13.902
40309W        W11838  31.452  12.330  14.909
40310W        W11839  40.333  29.555   4.039
40311W        W11840  35.888  24.217   1.857
40312W        W11841  22.013   1.212  12.091
40313W        W11842  36.390   1.210  12.199
40314W        W11843  40.665  39.878  14.769
40315W        W11844  15.202  10.846   0.255
40316W        W11845  15.794  36.313   0.420
40317W        W11846  21.527  23.932  11.187
40318W        W11847  24.226  13.693  13.732
40319W        W11848  19.497  31.615   0.767
40320W        W11849  32.585  18.101  11.105
40321W        W11850  31.354   0.970  13.441
40322W        W11851  19.754  15.729  14.394
40323W        W11852  30.978   0.389  13.291
40324W        W11853   7.974  23.160   0.893
40325W        W11854  40.597  40.047   3.698
40326W        W11855  30.213   3.309   2.150
40327W        W11856  24.841  37.528   2.661
40328W        W11857  38.027  18.743   1.786
40329W        W11858   1.973  29.127   4.844
40330W        W11859   3.846  12.700   2.402
40331W        W11860   7.656  19.696  10.939
40332W        W11861  23.232  12.268   4.248
40333W        W11862  44.124  34.345  11.315
40334W        W11863  42.431  21.544   4.572
40335W        W11864   8.637  18.564   0.352
40336W        W11865  24.681  16.555  14.408
40337W        W11866  14.382  29.989  12.439
40338W        W11867  20.218  26.519   4.920
40339W        W11868  32.846   0.943  11.972
40340W        W11869   8.755  25.130   0.921
40341W        W11870   1.620  16.985   2.894
40342W        W11871  44.281  21.248   0.467
40343W        W11872   2.019  32.983  14.843
40344W        W11873  25.155  12.685  11.866
40345W        W11874  30.540   6.147   4.786
40346W        W11875  37.313  28.706   4.502
40347W        W11876   3.232   8.394  11.637
40348W        W11877  41.534  12.256  11.983
40349W        W11878  43.904  15.141  13.552
40350W        W11879  40.425   3.879   4.177
40351W        W11880  33.430  17.234  13.278
40352W        W11881  37.264  26.871  11.985
40353W        W11882   0.634  44.826  13.029
40354W        W11883   2.292   9.802  13.738
40355W        W11884  14.890  18.273   1.681
40356W        W11885  17.204  40.834  10.730
40357W        W11886  34.419  38.073  13.562
40358W        W11887  24.278  18.085  11.006
40359W        W11888  11.383  23.032  12.424
40360W        W11889  20.146  32.443   2.187
40361W        W11890  21.581  28.728  14.924
40362W        W11891  10.674  30.011   1.785
40363W        W11892  20.571  27.493   3.912
40364W        W11893  29.578  14.679   2.621
40365W        W11894  21.601   2.394  14.947
40366W        W11895  29.557  14.573  12.425
40367W        W11896  29.669  11.746   3.790
40368W        W11897  37.404  30.582   1.856
40369W        W11898   0.297  25.046   3.409
40370W        W11899  38.522  21.578  13.033
40371W        W11900  19.699  24.262   2.316
40372W        W11901  27.628  14.915  11.013
40373W        W11902  42.018   6.050  11.142
40374W        W11903   6.564   5.344  12.295
40375W        W11904  35.669  13.834   0.414
40376W        W11905  21.329   8.977  14.492
40377W        W11906  29.055  11.565   2.953
40378W        W11907  34.320  38.568  13.713
40379W        W11908  43.484  19.745  12.482
40380W        W11909  40.932  22.848   3.248
40381W        W11910  34.452   2.274   0.783
40382W        W11911  23.757  20.771   0.060
40383W        W11912   8.138  30.036  12.759
40384W        W11913  14.684  12.280  12.950
40385W        W11914   2.959  25.761   3.670
40386W        W11915  40.877  35.888   0.068
40387W        W11916  11.821  35.659   3.163
40388W        W11917   8.821  38.798  11.589
40389W        W11918  25.478   1.915  13.974
40390W        W11919   6.340  37.086  10.666
40391W        W11920  13.705  43.286   3.117
40392W        W11921  21.112   9.715  11.489
40393W        W11922  37.861  13.799  12.577
40394W        W11923  24.545  41.949  14.317
40395W        W11924  38.031  42.523   3.836
40396W        W11925  36.079  30.020  13.486
40397W        W11926  34.580  18.686  11.986
40398W        W11927  26.428  33.161  12.025
40399W        W11928   9.914  38.194   0.846
40400W        W11929  19.678  42.916  12.374
40401W        W11930  35.405   9.069   4.957
40402W        W11931   4.956  15.870  12.927
40403W        W11932   4.234  10.201  14.072
40404W        W11933  19.258  17.825   3.609
40405W        W11934  24.023  33.942  13.689
40406W        W11935  42.019  35.614  10.656
40407W        W11936  11.976  33.019   4.837
40408W        W11937  29.573  42.383   2.775
40409W        W11938  21.094  27.578   1.641
40410W        W11939  40.501  34.095   0.761
40411W        W11940  40.970  42.019  14.953
40412W        W11941  21.733  26.554  13.326
40413W        W11942  27.039  33.403  12.710
40414W        W11943   4.150   4.325   0.895
40415W        W11944  23.285   0.004  14.896
40416W        W11945   0.903   6.388   3.558
40417W        W11946  20.743  16.852  13.486
40418W        W11947  26.616  34.817  13.915
40419W        W11948  35.952  43.507  14.465
40420W        W11949  42.772  34.990  14.316
40421W        W11950  38.635  42.327   3.312
40422W        W11951  20.149  36.125  10.822
40423W        W11952  42.337  34.193   4.357
40424W        W11953  36.453   0.200  14.969
40425W        W11954  24.461  39.042  11.436
40426W        W11955  39.080  18.663   1.948
40427W        W11956   3.414  23.409  11.481
40428W        W11957   3.165   6.677  13.747
40429W        W11958  27.942  16.837   0.388
40430W        W11959  32.081   7.654  10.658
40431W        W11960  13.672  10.636  11.621
40432W        W11961  13.212   0.796  13.007
40433W        W11962  12.131  37.553  12.941
40434W        W11963  23.766  28.673   2.850
40435W        W11964   4.734  20.983   1.747
40436W        W11965  17.637  37.079  14.268
40437W        W11966  32.035  39.938   1.932
40438W        W11967   9.581  33.599   3.298
40439W        W11968  14.301  17.105  13.900
40440W        W11969  37.818  32.424  14.914
40441W        W11970   5.155  17.237   1.896
40442W        W11971  17.789  33.315   4.154
40443W        W11972  44.756  21.808  14.827
40444W        W11973  36.206   6.404   0.773
40445W        W11974  22.655   7.810  10.647
40446W        W11975  17.595  37.848   1.185
40447W        W11976  33.146  18.839   0.770
40448W        W11977  12.253  25.782   3.045
40449W        W11978   6.222   0.352   3.711
40450W        W11979  42.429  11.722   3.857
40451W        W11980  29.625  40.484   3.265
40452W        W11981  17.857  33.446  11.211
40453W        W11982  23.181  12.791  12.191
40454W        W11983   6.242  18.992  14.405
40455W        W11984  20.728   6.946   4.212
40456W        W11985   7.869  12.839   0.868
40457W        W11986  16.574  18.489   1.819
40458W        W11987  38.217   9.883   2.817
40459W        W11988   6.732  41.726  13.361
40460W        W11989  42.629  12.653   2.690
40461W        W11990  34.076  17.025   0.094
40462W        W11991  36.510  16.673  10.765
40463W        W11992  26.988   0.224  11.528
40464W        W11993  36.835  22.140  14.460
40465W        W11994  15.095  31.290   5.025
40466W        W11995  10.900   2.998   3.571
40467W        W11996  36.005  44.838   0.825
40468W        W11997  18.939  14.307   3.168
40469W        W11998  25.659   4.577   1.163
40470W        W11999  10.719  44.761   3.109
40471W        W12000   6.290  25.283  12.050
40472W        W12001  23.067  15.123   1.434
40473W        W12002  24.104  35.869   0.227
40474W        W12003  42.049  32.622  12.757
40475W        W12004  14.550   7.951   3.203
40476W        W12005  28.447  12.155  12.014
40477W        W12006   3.332  20.243  14.281
40478W        W12007  24.963   7.495  14.965
40479W        W12008  13.860  27.255   1.853
40480W        W12009  14.054  29.023   0.467
40481W        W12010  44.305  29.986   3.844
40482W        W12011  18.753  23.780  14.056
40483W        W12012  22.791   8.021   2.106
40484W        W12013  42.137  23.549   3.675
40485W        W12014  37.865   0.778   2.421
40486W        W12015   2.014  17.684   3.241
40487W        W12016  38.943  19.779   3.608
40488W        W12017   5.470  19.689  14.451
40489W        W12018  44.790   4.403   0.392
40490W        W12019  35.092  31.444   2.199
40491W        W12020   3.973  34.001   4.947
40492W        W12021   3.046  38.515  13.498
40493W        W12022  12.225  19.276  13.078
40494W        W12023  14.794  11.942  14.981
40495W        W12024  37.574   9.932   1.089
40496W        W12025  33.603  29.083  12.176
40497W        W12026   5.264  35.941   1.622
40498W        W12027   1.434  12.540   3.062
40499W        W12028  20.740  38.314   5.397
40500W        W12029  17.302  35.855  11.593
40501W        W12030  10.001  14.503  13.786
40502W        W12031  21.580  30.894  11.118
40503W        W12032  21.120  21.207   4.601
40504W        W12033  31.376  28.545  11.743
40505W        W12034  39.838  17.509   3.146
40506W        W12035  43.250   1.152   0.752
40507W        W12036  41.025  32.991  13.344
40508W        W12037  19.050  39.044  14.355
40509W        W12038  22.261  15.056   1.902
40510W        W12039  31.349  20.961  11.086
40511W        W12040  33.689   5.870   2.262
40512W        W12041  29.883   6.208   1.931
40513W        W12042  17.043   5.806   1.579
40514W        W12043  40.951  16.426  12.061
40515W        W12044   4.029  23.192  13.116
40516W        W12045  27.130  36.516  12.105
40517W        W12046  16.602  26.562   4.517
40518W        W12047  17.734  21.981  14.876
40519W        W12048  11.811   6.893  12.772
40520W        W12049   8.768  38.566  12.098
40521W        W12050  38.656  31.336   2.666
40522W        W12051  12.774  33.075  13.016
40523W        W12052  34.305  44.810  14.898
40524W        W12053   5.653  15.287   4.021
40525W        W12054  29.434   9.816  11.205
40526W        W12055  23.832  15.166  11.086
40527W        W12056  38.549  23.050   3.007
40528W        W12057  12.882  17.594   2.710
40529W        W12058  20.579  24.965   2.099
40530W        W12059  12.848  41.503   2.840
40531W        W12060  12.741  30.150   2.298
40532W        W12061  24.362  42.852  12.590
40533W        W12062   8.254   3.245   0.354
40534W        W12063  31.137  35.097   4.041
40535W        W12064  18.210   0.030   2.511
40536W        W12065  27.170  32.285   2.768
40537W        W12066  25.820  38.963   0.277
40538W        W12067  34.774  14.308   4.447
40539W        W12068  13.714  31.582  13.520
40540W        W12069  33.844  33.616  13.871
40541W        W12070   6.790  16.336  13.030
40542W        W12071  28.597  32.163   4.952
40543W        W12072  38.523  14.644  14.439
40544W        W12073  30.179  17.556   1.827
40545W        W12074  24.027   2.735  12.000
40546W        W12075   9.460  15.696   2.864
40547W        W12076   0.870  23.630   0.801
40548W        W12077  43.327  30.184   4.516
40549W        W12078  38.792  14.125   4.572
40550W        W12079  24.242  22.993   2.204
40551W        W12080  10.653  41.995   4.575
40552W        W12081  30.088  30.664  14.520
40553W        W12082  26.455  16.568   4.508
40554W        W12083  33.122  29.647   0.360
40555W        W12084   9.305  44.194   1.207
40556W        W12085  42.776  15.136  14.739
40557W        W12086  20.257  19.306  11.498
40558W        W12087   7.893   2.774  11.060
40559W        W12088  43.748  34.129  11.751
40560W        W12089  10.283  18.121  13.752
40561W        W12090  38.131  23.054  10.670
40562W        W12091   9.778  37.808   3.560
40563W        W12092  18.991  32.127  14.733
40564W        W12093  37.996   5.314   1.884
40565W        W12094   8.002  27.021   4.913
40566W        W12095  13.850  31.593  14.028
40567W        W12096  14.832  29.120  10.588
40568W        W12097   9.994  30.264   4.973
40569W        W12098  28.211  36.353   1.972
40570W        W12099  30.210  39.442  12.030
40571W        W12100  41.257  32.016   3.202
40572W        W12101  10.902  11.656  13.823
40573W        W12102   5.380  41.039   3.891
40574W        W12103  18.203   0.062   0.352
40575W        W12104  25.474  30.973  12.909
40576W        W12105  20.342  26.583  13.101
40577W        W12106   3.823   5.277   3.739
40578W        W12107  41.317   8.770   0.909
40579W        W12108   2.762  28.455  13.189
40580W        W12109  38.899  15.546  10.067
40581W        W12110   1.515   4.323  10.660
40582W        W12111   5.881  22.627   3.670
40583W        W12112  30.566  36.688  10.769
40584W        W12113  16.309   1.980   0.417
40585W        W12114  10.788   1.845  14.033
40586W        W12115   2.401   8.782   1.824
40587W        W12116  21.233  29.115  14.802
40588W        W12117  21.224  12.159   4.198
40589W        W12118  25.483  35.843  11.646
40590W        W12119  33.549  42.259   2.272
40591W        W12120   5.685  30.919  11.505
40592W        W12121   7.933   7.643  14.443
40593W        W12122  30.734  39.010  11.502
40594W        W12123   9.391   1.813   0.791
40595W        W12124   7.857  18.202   2.633
40596W        W12125  27.574  18.314   3.318
40597W        W12126   2.304  13.572  11.606
40598W        W12127  37.157  27.172  12.437
40599W        W12128  41.119  31.416   3.941
40600W        W12129   4.019  41.065  12.897
40601W        W12130  36.935  15.829  12.507
40602W        W12131  28.886  11.588   4.136
40603W        W12132  15.304  26.055   0.253
40604W        W12133  16.227  23.101   0.409
40605W        W12134  14.229  20.594  10.416
40606W        W12135  24.151   6.629   1.261
40607W        W12136  10.442  34.557   4.055
40608W        W12137  32.470  12.032   3.026
40609W        W12138  40.953   4.638  11.140
40610W        W12139  29.641  12.395  13.466
40611W        W12140  14.268  18.494   0.773
40612W        W12141  12.361  41.448   0.456
40613W        W12142  42.911  32.817  11.128
40614W        W12143  32.414  34.962  10.612
40615W        W12144   1.322   1.159   2.192
40616W        W12145  23.892  19.333   0.229
40617W        W12146  20.275  44.375  12.932
40618W        W12147  43.305   2.214  13.963
40619W        W12148  23.598  28.187   1.311
40620W        W12149   8.369  36.698  14.811
40621W        W12150   6.404  11.117   2.666
40622W        W12151   7.268  10.834   0.305
40623W        W12152  14.209  31.106   0.829
40624W        W12153  24.903  42.453   4.122
40625W        W12154   0.557  10.708   2.871
40626W        W12155  12.672   7.376  10.902
40627W        W12156  41.613  14.193   1.817
40628W        W12157  36.316   2.872   2.786
40629W        W12158  19.594  28.183  12.679
40630W        W12159   1.352   0.791   4.822
40631W        W12160  32.378   5.842   3.724
40632W        W12161  18.920  37.394   2.708
40633W        W12162  31.380  35.422   4.995
40634W        W12163  19.337   7.823   2.241
40635W        W12164  22.290  40.981   4.459
40636W        W12165  20.292  33.121  11.131
40637W        W12166  34.040   4.141  13.350
40638W        W12167  43.703  41.345   2.256
40639W        W12168   9.047  37.499  12.478
40640W        W12169   6.926  42.597   0.438
40641W        W12170  25.754   2.502  11.109
40642W        W12171  10.325  12.294  13.554
40643W        W12172  34.264  30.251   2.707
40644W        W12173  39.210  11.558   0.091
40645W        W12174  10.851   3.382  14.057
40646W        W12175  22.796  24.675   1.832
40647W        W12176  33.699  35.904  11.109
40648W        W12177  22.162  16.190   1.292
40649W        W12178  13.191  22.078  14.425
40650W        W12179  23.524  44.605   3.527
40651W        W12180  28.553   0.029   2.178
40652W        W12181  12.350   1.970  11.435
40653W        W12182   7.900   8.940  14.787
40654W        W12183   7.881  10.701  14.558
40655W        W12184  21.725  26.357  11.368
40656W        W12185   5.800  30.503   4.736
40657W        W12186  30.159  41.861  11.573
40658W        W12187  14.526  38.892  13.238
40659W        W12188  16.237  28.191   2.685
40660W        W12189  42.230  29.645  14.814
40661W        W12190   5.855   1.475   3.244
40662W        W12191   1.324   7.685  11.162
40663W        W12192   0.301   5.718  11.129
40664W        W12193  39.377  18.916  13.985
40665W        W12194  11.209  42.197  11.275
40666W        W12195  12.084  28.826   1.331
40667W        W12196   1.909  22.577  11.481
40668W        W12197  36.055  10.361   1.874
40669W        W12198  21.648  22.862   1.293
40670W        W12199  20.596  30.133  12.783
40671W        W12200  38.027   6.177  10.714
40672W        W12201  10.877  37.132   3.468
40673W        W12202  20.759  40.067   4.127
40674W        W12203  34.168  41.060  12.981
40675W        W12204   9.428  31.047   0.682
40676W        W12205  31.934  26.118  14.614
40677W        W12206  40.066   0.390  14.886
40678W        W12207  25.217  37.914  11.149
40679W        W12208  35.101  20.752   0.783
40680W        W12209   8.298  27.938   2.203
40681W        W12210  31.139   4.116   4.916
40682W        W12211   8.727   9.828  14.255
40683W        W12212  12.243  20.259  14.342
40684W        W12213  15.862  31.058  12.891
40685W        W12214  22.635   7.100   2.452
40686W        W12215   1.271  41.116  14.386
40687W        W12216  10.390  38.432  14.968
40688W        W12217   4.717  39.920   3.313
40689W        W12218  29.944  11.287   3.661
40690W        W12219  30.551  28.389   3.706
40691W        W12220   5.956   5.439   0.053
40692W        W12221  10.166  37.501  14.876
40693W        W12222   3.203  25.013   2.370
40694W        W12223  30.097  10.087  12.156
40695W        W12224  35.465  30.081   4.011
40696W        W12225   6.301  40.867   3.672
40697W        W12226   5.167  17.787   1.856
40698W        W12227   2.380  33.051   2.228
40699W        W12228  33.976   7.735  13.334
40700W        W12229  22.499  21.692   0.138
40701W        W12230  41.870   4.666   0.765
40702W        W12231   9.002  12.668   2.791
40703W        W12232  24.729  11.593   2.739
40704W        W12233  31.996  36.389   2.782
40705W        W12234  42.952  16.682   3.926
40706W        W12235   9.243  34.596  12.214
40707W        W12236  30.868   8.755  10.604
40708W        W12237  23.179  11.579   1.224
40709W        W12238  25.159  10.671  12.662
40710W        W12239  21.032  21.395  13.300
40711W        W12240   6.340   0.587   4.153
40712W        W12241   7.850  12.327   4.153
40713W        W12242  23.714  36.966  14.045
40714W        W12243   8.646  29.530   0.282
40715W        W12244  10.170  35.400  13.930
40716W        W12245   3.030  32.452   0.396
40717W        W12246  33.864  18.019   2.248
40718W        W12247  28.893  30.163  14.867
40719W        W12248  27.768  36.936  12.345
40720W        W12249  24.517  37.336   3.013
40721W        W12250  39.061  40.041   4.615
40722W        W12251  16.703  15.067  14.255
40723W        W12252   0.323  43.765   3.227
40724W        W12253  18.114  30.936  14.284
40725W        W12254   7.132  24.941  12.120
40726W        W12255  16.666   0.283   3.896
40727W        W12256  18.349  20.537   2.104
40728W        W12257  11.567  32.974   0.330
40729W        W12258  31.501   6.778   2.809
40730W        W12259  13.281   6.462  12.934
40731W        W12260  14.895  37.559  10.556
40732W        W12261  34.110   6.433   3.823
40733W        W12262  36.908  39.091  13.250
40734W        W12263  24.562  32.464   1.222
40735W        W12264  27.106  16.044  13.603
40736W        W12265   4.792   2.804   2.839
40737W        W12266  30.488  42.910  11.152
40738W        W12267   7.768  12.830  14.414
40739W        W12268  34.980  28.119  14.913
40740W        W12269  11.721  16.079   2.268
40741W        W12270  43.726  38.303   4.212
40742W        W12271  22.778  25.216  13.499
40743W        W12272   9.474  39.506   1.263
40744W        W12273  18.826  21.216   2.212
40745W        W12274  42.925  23.448   1.916
40746W        W12275  35.111  20.057  13.305
40747W        W12276  18.943  44.449   1.979
40748W        W12277  23.648   4.276  13.611
40749W        W12278  19.341  40.766  13.502
40750W        W12279  35.865  10.294   4.208
40751W        W12280  42.871  42.800  12.376
40752W        W12281  26.135  25.445  13.062
40753W        W12282  25.574  10.548   2.214
40754W        W12283  25.235  11.373  10.760
40755W        W12284  37.030  42.297   3.388
40756W        W12285   7.787  31.915   1.678
40757W        W12286   9.637   0.790   1.564
40758W        W12287  17.346  26.977   0.658
40759W        W12288  21.350  21.702   0.414
40760W        W12289  28.546  23.647   2.710
40761W        W12290  42.004  38.595  12.118
40762W        W12291  23.346  31.481  14.423
40763W        W12292  30.891  19.550   3.577
40764W        W12293  23.793  23.551   4.169
40765W        W12294  21.666  35.155   0.712
40766W        W12295  27.028  43.872   2.132
40767W        W12296   8.322   5.716  13.774
40768W        W12297  21.484  11.335   2.452
40769W        W12298   6.784  43.672   2.671
40770W        W12299  35.494  40.675   2.347
40771W        W12300  14.569   5.625  11.972
40772W        W12301   1.484   2.639   0.729
40773W        W12302  26.416  39.751   0.163
40774W        W12303  25.032  38.965   4.171
40775W        W12304   3.992   5.151   4.732
40776W        W12305  11.687   5.349   5.007
40777W        W12306  17.159   4.111   0.344
40778W        W12307   5.312  40.927  13.887
40779W        W12308   9.948  12.386   0.813
40780W        W12309  13.357   2.772   1.253
40781W        W12310  10.880   4.430   3.668
40782W        W12311  25.619  22.820   0.307
40783W        W12312  39.956   0.200  10.841
40784W        W12313  18.744   7.311   2.549
40785W        W12314  44.483  10.572   4.745
40786W        W12315  18.616  42.946   2.815
40787W        W12316  39.566  17.272   1.307
40788W        W12317  36.365  34.531   0.557
40789W        W12318  35.075  35.893  14.967
40790W        W12319   8.034  30.617   0.818
40791W        W12320  38.006   6.713  14.517
40792W        W12321  44.264  19.083  12.979
40793W        W12322  26.527  13.338   2.839
40794W        W12323  40.781  41.958  14.000
40795W        W12324  20.348  22.527   4.230
40796W        W12325  24.542  24.537  11.543
40797W        W12326   0.445  33.619  13.240
40798W        W12327  41.085  31.029   0.968
40799W        W12328  43.440  29.791  13.920
40800W        W12329  14.381  41.385  12.045
40801W        W12330  21.607   1.467   2.662
40802W        W12331  25.240  39.916  14.824
40803W        W12332   5.692  25.947   2.818
40804W        W12333  24.594  39.373   4.789
40805W        W12334  34.991  22.149   4.533
40806W        W12335  12.721  27.590   2.864
40807W        W12336  26.251  14.329  12.530
40808W        W12337  12.058  32.465   1.294
40809W        W12338  11.964  17.208   0.957
40810W        W12339  43.279  18.258  13.982
40811W        W12340   8.176   5.384  10.699
40812W        W12341   2.598   9.890  13.286
40813W        W12342  12.909  32.165  13.584
40814W        W12343  21.044  37.900  10.655
40815W        W12344  15.206  21.258   0.244
40816W        W12345  11.828  32.194   3.760
40817W        W12346  38.892  30.264  11.311
40818W        W12347  27.086  42.417   1.967
40819W        W12348  19.233  35.505   4.327
40820W        W12349  42.352  20.757  10.667
40821W        W12350  27.694  25.451  10.650
40822W        W12351  35.284   1.870  10.712
40823W        W12352  13.755   7.201   4.246
40824W        W12353  39.891   8.306   1.419
40825W        W12354  33.221  36.363   4.519
40826W        W12355  15.106  34.514   1.007
40827W        W12356   5.623  20.453  11.132
40828W        W12357  34.503  13.653  11.990
40829W        W12358  30.301   4.290   1.456
40830W        W12359  42.345  22.004   0.651
40831W        W12360  16.708  38.125   4.150
40832W        W12361  16.295   2.640  12.449
40833W        W12362  14.570  10.136  11.978
40834W        W12363   3.863  11.745  10.123
40835W        W12364   8.629  24.166  11.202
40836W        W12365  31.935  21.583   1.169
40837W        W12366  14.059  13.103  10.572
40838W        W12367  39.524  19.294   0.850
40839W        W12368   3.157  31.479  10.201
40840W        W12369   7.992  40.582  14.408
40841W        W12370  40.392  19.530  12.922
40842W        W12371  11.350   7.819  10.764
40843W        W12372  33.034  42.482  11.652
40844W        W12373  14.826  27.249   4.695
40845W        W12374  36.960  12.752  11.158
40846W        W12375  34.635  21.579  13.924
40847W        W12376  18.417   4.912  11.630
40848W        W12377   9.174  38.872  13.867
40849W        W12378  29.624  15.521   3.664
40850W        W12379  10.082  21.736  14.782
40851W        W12380  24.699  15.546   2.826
40852W        W12381   8.151  35.779  13.971
40853W        W12382   3.442   6.888   1.394
40854W        W12383  26.952  12.828   0.929
40855W        W12384  32.493  16.438   2.166
40856W        W12385  37.913  34.990   0.071
40857W        W12386   5.835  11.623   4.856
40858W        W12387  29.440  19.045   0.811
40859W        W12388  18.278  27.185   9.959
40860W        W12389   8.410  39.304  14.474
40861W        W12390  23.146   7.785   4.550
40862W        W12391  11.886   1.711  13.094
40863W        W12392   3.646  21.191  13.012
40864W        W12393  41.464   0.852   0.391
40865W        W12394   1.956  44.895   2.771
40866W        W12395  13.693  18.135   0.747
40867W        W12396  15.477  25.061  11.716
40868W        W12397  15.256  27.108  11.286
40869W        W12398  31.559  15.499   4.490
40870W        W12399  34.361  15.134   0.307
40871W        W12400  12.709   7.167  12.831
40872W        W12401  19.112   6.910  14.562
40873W        W12402  14.710  22.168   1.135
40874W        W12403  19.534  37.040   1.464
40875W        W12404  23.661  32.204   5.142
40876W        W12405  13.378  25.780   4.240
40877W        W12406  14.779  36.613  13.980
40878W        W12407  35.924  29.975   2.299
40879W        W12408  33.993  37.728  10.280
40880W        W12409  17.811  17.201  14.258
40881W        W12410   0.781   5.282   4.076
40882W        W12411  31.617  21.056   9.876
40883W        W12412  44.150  22.925   2.671
40884W        W12413  31.963  15.080  13.544
40885W        W12414  18.033  37.220   4.672
40886W        W12415  32.921  34.500   4.207
40887W        W12416  17.057  11.407   1.289
40888W        W12417   4.845  31.087  12.032
40889W        W12418   6.143  22.292  12.869
40890W        W12419   3.982  21.149   3.623
40891W        W12420  28.937  10.927  11.606
40892W        W12421  40.300   2.441  10.748
40893W        W12422   5.922  39.875  12.851
40894W        W12423   6.128  16.787   3.239
40895W        W12424  29.655  39.235   4.108
40896W        W12425  18.190  15.802  13.365
40897W        W12426   4.485  29.409   3.686
40898W        W12427  24.960   2.007   4.359
40899W        W12428  35.142  20.069  11.431
40900W        W12429  19.370  11.622  13.774
40901W        W12430  33.945   1.395  11.646
40902W        W12431  43.254  15.696   3.201
40903W        W12432  27.797   5.738   0.709
40904W        W12433  43.744  27.730   0.928
40905W        W12434   1.606  26.237  14.207
40906W        W12435   0.772  27.955   0.361
40907W        W12436  41.604  40.386  12.160
40908W        W12437   1.550  32.957  11.569
40909W        W12438  23.972   5.779  14.066
40910W        W12439  25.479   7.829  13.804
40911W        W12440  41.699  32.963  14.493
40912W        W12441  37.489  23.469   3.376
40913W        W12442  17.463  33.564   3.841
40914W        W12443   8.606   5.210   4.185
40915W        W12444  14.619  24.530   2.106
40916W        W12445  20.681  18.128   4.593
40917W        W12446   9.284   4.288   0.445
40918W        W12447  23.270  17.336  10.851
40919W        W12448  30.218  42.456   1.762
40920W        W12449  26.665  28.596   0.804
40921W        W12450   7.680  37.042   1.159
40922W        W12451   4.478  32.425  14.536
40923W        W12452   1.595  27.444   0.321
40924W        W12453   0.310  19.598   2.349
40925W        W12454  13.764   1.633  14.447
40926W        W12455  26.733  39.509   2.806
40927W        W12456  13.731   2.903  12.872
40928W        W12457   0.407   1.051  14.763
40929W        W12458  13.605   7.358   1.748
40930W        W12459  18.681  33.841  12.943
40931W        W12460  12.087  44.958  13.533
40932W        W12461  34.838  16.061  14.031
40933W        W12462  24.958  26.510  13.025
40934W        W12463  38.469  32.954   3.144
40935W        W12464  35.899  16.719   3.028
40936W        W12465  36.143  20.078  10.640
40937W        W12466  25.209   8.894   0.911
40938W        W12467   0.961  44.475  11.163
40939W        W12468  18.760  40.596  10.667
40940W        W12469  25.675  31.137   2.221
40941W        W12470   0.735   7.379   3.901
40942W        W12471   8.232  11.592   2.364
40943W        W12472  33.346  15.449  10.566
40944W        W12473  26.543  36.400   2.237
40945W        W12474   1.006  40.774   4.238
40946W        W12475  11.144  39.055  11.827
40947W        W12476  22.968   5.403   1.022
40948W        W12477  18.637  32.398   2.829
40949W        W12478   5.821  33.145  13.102
40950W        W12479  44.987   3.742  13.121
40951W        W12480  27.596  10.764  14.953
40952W        W12481  30.007  19.453   3.341
40953W        W12482  30.958   5.326   1.972
40954W        W12483  14.885   1.047  14.714
40955W        W12484  21.528  16.768  10.693
40956W        W12485  26.736  19.815  11.737
40957W        W12486   0.213  37.225   1.314
40958W        W12487   4.845   2.665  10.979
40959W        W12488  23.446  30.988   3.257
40960W        W12489   6.823  32.261  14.697
40961W        W12490  29.483  27.165  10.620
40962W        W12491  15.574  19.319   0.046
40963W        W12492  34.010   1.399   0.479
40964W        W12493  34.630  19.767  11.089
40965W        W12494  24.075  33.662   1.215
40966W        W12495  17.161  35.543   4.664
40967W        W12496  32.416  33.907   3.166
40968W        W12497  13.621   5.070  11.349
40969W        W12498  43.789  35.580   2.698
40970W        W12499  34.361  34.432  11.696
40971W        W12500  13.740   7.630  14.366
40972W        W12501  27.004   6.704   2.781
40973W        W12502  36.354   8.385  12.861
40974W        W12503  40.517  39.558   0.909
40975W        W12504   2.963  32.813  10.240
40976W        W12505   4.198  42.457  12.941
40977W        W12506   3.932  17.951  12.999
40978W        W12507   5.481   9.241   3.413
40979W        W12508  18.801   5.206   2.707
40980W        W12509  13.713  20.494   0.401
40981W        W12510  31.519   3.411  13.002
40982W        W12511  25.429  16.671  10.659
40983W        W12512   3.672   3.719   3.752
40984W        W12513  39.416  31.977   1.627
40985W        W12514  20.312  43.907   2.188
40986W        W12515  12.720  34.121  12.996
40987W        W12516  10.234  37.407   2.765
40988W        W12517  43.896  21.075   2.359
40989W        W12518  15.298  17.722  13.140
40990W        W12519  31.550  33.867   4.609
40991W        W12520  15.535  16.002   2.126
40992W        W12521  26.877   0.633  14.468
40993W        W12522   7.409  37.493  14.888
40994W        W12523  44.593  23.216   1.753
40995W        W12524  11.154  28.991   0.379
40996W        W12525  43.959  29.094  13.273
40997W        W12526  36.542   2.284  13.246
40998W        W12527  14.374  10.695  10.851
40999W        W12528   8.637   1.503  14.052
41000W        W12529   3.064  15.698   4.962
41001W        W12530   3.892   8.933   1.799
41002W        W12531  21.557   9.479   4.152
41003W        W12532  31.410  41.912  14.307
41004W        W12533  17.326  11.908   0.453
41005W        W12534  27.557   2.431  10.965
41006W        W12535  40.302  35.111   3.149
41007W        W12536  32.956  33.642   2.199
41008W        W12537  17.564  36.597  13.036
41009W        W12538  26.211  43.316  13.685
41010W        W12539  22.161   4.612  12.573
41011W        W12540  29.889  43.308   4.168
41012W        W12541   0.880  21.776   4.433
41013W        W12542  40.306  36.186   0.006
41014W        W12543  14.077  10.151  13.841
41015W        W12544  15.594   8.003  13.337
41016W        W12545  13.468  42.731  11.620
41017W        W12546  11.951  14.639  11.147
41018W        W12547   0.995  42.792   1.673
41019W        W12548  34.629  14.182   3.107
41020W        W12549  37.026  38.550   2.677
41021W        W12550  25.687  18.011  14.740
41022W        W12551  32.404   1.448   4.981
41023W        W12552  15.171  27.306  11.770
41024W        W12553  19.117  42.689  11.594
41025W        W12554  19.067  18.547   2.392
41026W        W12555  14.301  21.816   0.312
41027W        W12556  34.389  31.715   4.210
41028W        W12557  23.830  21.648   2.821
41029W        W12558  12.098   3.595   1.735
41030W        W12559  30.860  14.202  14.266
41031W        W12560  39.278  14.391   3.737
41032W        W12561  40.467  20.364  13.491
41033W        W12562  18.655  33.941  13.892
41034W        W12563  23.728  17.112   0.529
41035W        W12564  27.668  41.958  11.503
41036W        W12565  13.148  23.440  13.861
41037W        W12566   8.294  40.332   1.276
41038W        W12567  29.928   1.221   0.062
41039W        W12568   1.288   9.904   3.687
41040W        W12569  42.733   3.738   0.217
41041W        W12570  18.261  13.393   4.394
41042W        W12571  35.360  43.203   1.292
41043W        W12572  15.989  28.493   4.016
41044W        W12573  30.064  34.753  11.350
41045W        W12574  42.586  22.719  14.407
41046W        W12575   2.100  40.572   2.846
41047W        W12576  11.162  35.602   4.040
41048W        W12577   6.322  20.819   2.298
41049W        W12578  16.683  30.462  12.435
41050W        W12579  26.737  26.908   0.328
41051W        W12580  26.699  17.544  14.007
41052W        W12581   3.296   2.360  13.414
41053W        W12582   0.535   0.203   1.589
41054W        W12583  21.897  38.884   2.326
41055W        W12584  14.124  13.646   2.431
41056W        W12585  26.657   9.302   1.857
41057W        W12586  28.516   2.440  11.050
41058W        W12587   5.891  41.979   1.279
41059W        W12588  18.940  21.996   4.101
41060W        W12589   4.879  30.438  10.922
41061W        W12590  40.103   0.798   2.392
41062W        W12591   0.321   2.789   4.687
41063W        W12592   8.455  12.703  12.409
41064W        W12593  32.221  10.686   3.644
41065W        W12594  21.735  20.682   1.805
41066W        W12595   6.830  18.708  14.521
41067W        W12596  17.162  13.167  11.938
41068W        W12597  34.321  35.467  12.146
41069W        W12598  25.432  31.644  14.911
41070W        W12599  29.516  24.674   3.297
41071W        W12600  16.952  44.403   3.305
41072W        W12601  33.431  27.884   4.054
41073W        W12602  16.698  18.537   4.140
41074W        W12603  41.282  39.925   1.827
41075W        W12604   8.721  36.332   3.348
41076W        W12605   9.603   8.734   3.280
41077W        W12606  11.226  25.542  12.647
41078W        W12607  44.785  28.235   1.771
41079W        W12608  44.533   1.218  10.749
41080W        W12609   2.419  25.178  13.456
41081W        W12610   6.364  43.305   3.775
41082W        W12611  17.071  18.245   3.663
41083W        W12612  40.761  31.094  10.721
41084W        W12613  18.253  28.527  13.872
41085W        W12614  38.389  22.321  14.768
41086W        W12615   0.938  42.566   4.469
41087W        W12616  35.363  17.138  11.386
41088W        W12617  42.726  20.879   3.605
41089W        W12618  19.123  35.053  12.606
41090W        W12619  16.750  22.063  13.027
41091W        W12620  19.071  15.929   1.640
41092W        W12621  41.795  15.336   3.263
41093W        W12622  31.450  14.092  12.922
41094W        W12623   6.376  25.787  13.745
41095W        W12624  19.362  23.155  14.258
41096W        W12625  30.521  44.281  12.572
41097W        W12626  14.161  37.328   0.766
41098W        W12627   5.309  13.357  13.545
41099W        W12628  37.644  34.493   4.151
41100W        W12629  44.241  11.681   3.613
41101W        W12630   0.192  13.555  11.595
41102W        W12631  41.054  32.123   0.524
41103W        W12632  39.296  25.992  10.439
41104W        W12633  26.516   1.925   4.903
41105W        W12634  26.803  25.228   3.131
41106W        W12635  28.659  24.959  11.572
41107W        W12636  39.244  27.146   1.817
41108W        W12637  33.366  30.930   3.905
41109W        W12638   6.873  23.195   0.429
41110W        W12639  44.231   5.296  12.600
41111W        W12640  11.665  39.784   3.132
41112W        W12641  44.512  22.888  14.138
41113W        W12642  15.661  34.974   2.430
41114W        W12643  39.517   4.159   1.645
41115W        W12644  17.730  29.972  14.833
41116W        W12645  35.547   1.502  11.882
41117W        W12646   1.663  37.419   4.724
41118W        W12647  29.947  35.363   1.799
41119W        W12648  42.843  26.414   3.635
41120W        W12649  27.908  22.591   2.402
41121W        W12650  33.566  35.008   4.237
41122W        W12651  12.939  37.321  13.400
41123W        W12652  24.690  21.476  14.830
41124W        W12653  32.503  28.197  10.362
41125W        W12654   4.416  20.460  11.998
41126W        W12655  11.350  34.487  13.377
41127W        W12656  21.217   7.542   1.732
41128W        W12657  24.722  23.543   1.394
41129W        W12658  36.528  13.310   1.784
41130W        W12659  37.595  23.745   1.422
41131W        W12660  27.146  22.742   4.523
41132W        W12661  23.562  39.151   0.489
41133W        W12662   6.181  30.821   4.580
41134W        W12663  21.494  39.506  11.506
41135W        W12664  29.438   4.211  11.138
41136W        W12665  39.353  43.109   0.330
41137W        W12666  20.005  23.032   4.253
41138W        W12667   5.935  19.603  10.171
41139W        W12668  40.830  41.908  13.497
41140W        W12669  42.016  11.318  11.365
41141W        W12670  16.801  38.498  11.728
41142W        W12671  18.886  26.414   2.189
41143W        W12672  31.362  37.480  11.864
41144W        W12673  19.197  27.425  10.276
41145W        W12674  17.098  36.848   2.696
41146W        W12675  39.629  16.593   3.167
41147W        W12676  23.703   9.004  12.582
41148W        W12677  10.734  44.473   2.272
41149W        W12678  11.263  12.589  11.445
41150W        W12679  12.672   8.869  13.653
41151W        W12680  17.280   1.704  13.046
41152W        W12681  29.985  20.266  11.625
41153W        W12682  15.671  12.873   1.854
41154W        W12683   8.234  32.191   1.698
41155W        W12684  44.362  38.131  10.826
41156W        W12685  33.812  21.705   1.162
41157W        W12686   3.862  33.539   4.711
41158W        W12687  32.354  28.024  11.209
41159W        W12688  24.247  22.088  11.726
41160W        W12689  21.684  44.234   0.416
41161W        W12690   4.407  26.932  14.496
41162W        W12691  39.315   2.286   3.035
41163W        W12692  34.003  43.878   0.482
41164W        W12693  27.498  26.574   0.389
41165W        W12694  43.830  13.893   0.379
41166W        W12695  42.329  25.716  12.928
41167W        W12696   2.073   5.051  12.020
41168W        W12697  20.831   3.162  12.962
41169W        W12698  43.411  28.507  14.506
41170W        W12699  44.936   2.549  12.440
41171W        W12700  14.206  33.403   2.382
41172W        W12701  43.209  34.661  12.207
41173W        W12702  19.780  13.197   2.407
41174W        W12703  37.850  19.798  14.090
41175W        W12704  27.067  41.434  10.782
41176W        W12705  12.602   5.377   1.132
41177W        W12706  11.460  22.683   1.164
41178W        W12707   2.903  37.739   3.563
41179W        W12708  42.122   8.762   3.303
41180W        W12709  13.843  35.862   3.113
41181W        W12710  14.573   2.131   1.776
41182W        W12711   1.940   1.828  10.742
41183W        W12712  25.242  41.421  14.837
41184W        W12713  22.047  17.384   4.649
41185W        W12714   2.812  10.204   0.021
41186W        W12715   2.443   4.812   9.886
41187W        W12716  15.320  23.013  12.939
41188W        W12717   2.163  42.968   3.173
41189W        W12718  31.718  38.862  13.948
41190W        W12719  43.583  30.658  12.496
41191W        W12720  16.673  24.750   0.497
41192W        W12721  31.935  29.507  10.328
41193W        W12722   4.017  35.469   2.026
41194W        W12723  41.298  33.420  13.915
41195W        W12724  12.509  26.121  12.027
41196W        W12725  23.125  32.312   1.328
41197W        W12726   3.824  15.255  12.827
41198W        W12727  27.571  26.455  11.527
41199W        W12728   4.267  24.561  13.002
41200W        W12729   9.225  41.386  10.838
41201W        W12730   8.276  39.256  13.393
41202W        W12731   6.388  12.963  13.989
41203W        W12732   5.333   0.612   4.064
41204W        W12733   8.433  22.605  13.830
41205W        W12734   6.762  21.085   3.959
41206W        W12735  28.393   1.314   3.341
41207W        W12736   3.578  21.526  14.728
41208W        W12737   3.394  43.310   3.312
41209W        W12738   3.171   3.959  11.263
41210W        W12739  38.869  12.711   2.952
41211W        W12740  44.320  22.111  14.750
41212W        W12741  41.812  14.697   4.342
41213W        W12742   7.857  30.645  13.354
41214W        W12743  20.521   3.806  10.971
41215W        W12744  33.414  39.850   4.318
41216W        W12745  41.030   1.209  13.030
41217W        W12746   7.273  27.230   1.384
41218W        W12747  43.992  13.856   4.331
41219W        W12748   1.480  32.036  11.545
41220W        W12749  25.090  28.231   4.902
41221W        W12750  24.082   6.562  14.340
41222W        W12751  12.680  33.001   2.742
41223W        W12752   5.245  19.706   1.136
41224W        W12753   3.557  22.748  12.451
41225W        W12754  27.720  13.786  11.823
41226W        W12755   4.230  15.246   0.518
41227W        W12756  32.027   7.662   4.619
41228W        W12757  26.527  34.453   0.718
41229W        W12758  38.979  10.674   0.989
41230W        W12759   2.231   6.073  12.536
41231W        W12760  28.953  26.108   0.680
41232W        W12761   7.277  43.437   0.987
41233W        W12762  20.544  22.071   1.939
41234W        W12763  24.270  32.177  14.444
41235W        W12764   0.508  15.388  11.186
41236W        W12765  37.770  29.494   1.422
41237W        W12766  25.525   5.288  14.366
41238W        W12767  23.537  14.401  12.816
41239W        W12768   2.663  37.396  13.392
41240W        W12769  29.411   7.568   2.289
41241W        W12770  13.604   7.754  10.542
41242W        W12771  31.594  17.232  10.437
41243W        W12772   8.982  31.401  11.988
41244W        W12773   6.252   1.449   0.898
41245W        W12774  32.859   2.781  11.611
41246W        W12775   2.870  42.899  11.060
41247W        W12776  44.311  38.571  13.438
41248W        W12777  20.132  26.511   4.035
41249W        W12778  19.115  30.881   1.267
41250W        W12779  36.208  33.512   2.729
41251W        W12780   5.707  33.637  14.367
41252W        W12781  37.812  34.442   1.840
41253W        W12782  27.257  25.545  14.019
41254W        W12783  27.468  25.856   0.860
41255W        W12784  17.852   5.227   3.658
41256W        W12785  35.509   3.198   2.643
41257W        W12786   8.773  20.665   2.160
41258W        W12787  30.033   0.061   4.599
41259W        W12788  11.658  18.075  11.695
41260W        W12789  25.059  26.535  11.258
41261W        W12790   3.310  33.567   2.890
41262W        W12791   3.923   2.421  13.224
41263W        W12792  34.827  21.181  10.886
41264W        W12793   6.853  17.272  11.887
41265W        W12794  40.724  14.224   2.246
41266W        W12795  29.559   6.163  12.940
41267W        W12796   7.994  37.065  13.898
41268W        W12797  41.157  36.178   0.686
41269W        W12798  42.936   1.493   3.808
41270W        W12799  31.851  44.287  11.120
41271W        W12800  36.054   5.468   4.458
41272W        W12801  12.659  31.700   4.613
41273W        W12802  35.390  14.194   0.015
41274W        W12803  16.317   6.334   4.415
41275W        W12804   1.855  11.807   3.737
41276W        W12805  11.545  25.052   2.180
41277W        W12806  17.252  37.020   3.181
41278W        W12807  34.105  41.041   2.249
41279W        W12808  15.485  29.098   0.121
41280W        W12809   8.228   6.739  13.345
41281W        W12810   0.852  36.165   3.784
41282W        W12811  25.912  28.586  13.409
41283W        W12812  28.728  40.803   0.867
41284W        W12813  10.432  41.030   4.089
41285W        W12814  39.600  13.414   3.836
41286W        W12815   5.520  21.502  11.652
41287W        W12816  33.433  26.451   5.394
41288W        W12817   7.630  14.329  11.129
41289W        W12818   4.439  20.216   2.762
41290W        W12819  10.398  13.349   3.840
41291W        W12820  24.750   6.605   1.908
41292W        W12821   4.788  42.160  13.438
41293W        W12822  11.253  14.628   4.348
41294W        W12823  13.767  38.509  14.517
41295W        W12824  18.515   4.461  11.905
41296W        W12825  25.304  31.626  12.082
41297W        W12826   6.784  10.250  13.871
41298W        W12827  14.668   2.746   0.396
41299W        W12828  31.896  19.185  13.681
41300W        W12829  25.636  16.650  14.253
41301W        W12830  19.350  25.351  10.885
41302W        W12831   8.033   6.357  11.741
41303W        W12832   2.761  21.246   0.779
41304W        W12833  36.296  41.410  14.857
41305W        W12834  29.945  15.089   0.413
41306W        W12835  41.918  22.770  12.486
41307W        W12836  35.446  14.379   1.474
41308W        W12837  34.159  21.687  14.917
41309W        W12838   8.834  34.773   0.171
41310W        W12839  23.236   2.866   1.733
41311W        W12840  34.553  27.888  14.780
41312W        W12841  31.512  36.952   4.418
41313W        W12842  20.453  39.045  10.971
41314W        W12843  14.373   7.475  13.286
41315W        W12844  13.700   8.773  11.148
41316W        W12845   4.201  39.854   4.334
41317W        W12846  14.083  35.688  14.770
41318W        W12847   3.869  21.101  10.427
41319W        W12848  24.532  10.102   3.322
41320W        W12849  27.516   1.423  13.483
41321W        W12850  30.409  37.047   0.103
41322W        W12851  22.186  29.915  13.889
41323W        W12852  35.241  33.994  12.058
41324W        W12853  42.859  16.864   1.622
41325W        W12854  12.139  24.610   2.344
41326W        W12855  38.526  32.568  13.660
41327W        W12856  28.704  11.912  11.525
41328W        W12857  27.088  29.268  12.494
41329W        W12858  18.101   5.378   2.297
41330W        W12859  32.684   6.220   2.073
41331W        W12860  16.836   9.320  13.779
41332W        W12861  27.711   9.532   2.798
41333W        W12862  33.141  43.337  11.606
41334W        W12863  31.517  25.487  13.024
41335W        W12864  38.366  30.710   1.472
41336W        W12865  40.363  35.483   1.715
41337W        W12866   2.679  19.674   3.641
41338W        W12867  43.487  39.080   2.178
41339W        W12868  24.180  44.552  11.901
41340W        W12869  27.911  13.686  11.121
41341W        W12870  36.009  42.458   4.775
41342W        W12871  43.166  26.589  12.814
41343W        W12872  29.423   2.792   3.144
41344W        W12873  27.295  26.727  13.424
41345W        W12874   2.140  24.720   4.199
41346W        W12875  20.698  41.735   3.602
41347W        W12876  24.637  23.995  12.361
41348W        W12877   6.358  26.461   3.329
41349W        W12878  10.797  21.058  12.124
41350W        W12879  32.285  29.944   0.209
41351W        W12880  26.476   0.624   2.712
41352W        W12881  14.301   7.267   0.741
41353W        W12882  34.133  33.859   2.141
41354W        W12883  38.069   3.345  11.545
41355W        W12884  21.800  13.320   2.823
41356W        W12885  41.129  28.628   0.841
41357W        W12886  34.133  21.614  14.003
41358W        W12887  16.890  36.598   1.440
41359W        W12888   2.390   9.260   2.925
41360W        W12889  38.894  26.524   4.969
41361W        W12890  18.441  39.865   4.662
41362W        W12891  19.502  38.358  14.889
41363W        W12892  44.588  19.936   4.081
41364W        W12893  24.591  25.112  10.681
41365W        W12894  42.460   7.169  10.786
41366W        W12895  27.223  28.185  11.084
41367W        W12896  12.092  42.245   1.619
41368W        W12897  30.739  43.973  10.595
41369W        W12898  39.212  43.957   2.957
41370W        W12899  23.218  12.562   1.564
41371W        W12900   9.838  33.586   2.734
41372W        W12901  21.361  20.936  11.904
41373W        W12902   0.523  32.063   0.480
41374W        W12903  42.981  35.579   3.925
41375W        W12904  14.244   4.709  10.362
41376W        W12905  37.273  16.840   4.947
41377W        W12906  30.994  30.242   1.597
41378W        W12907   3.599  29.514  10.277
41379W        W12908  36.141  25.685   1.982
41380W        W12909   0.949  41.952  13.460
41381W        W12910  32.087  30.080  11.032
41382W        W12911  39.425  26.073  11.902
41383W        W12912  26.048  15.804  11.698
41384W        W12913  18.692  19.198   4.744
41385W        W12914  27.506  33.160   2.789
41386W        W12915  44.817  19.062  13.033
41387W        W12916  15.384  14.999  11.491
41388W        W12917  19.201  43.917   3.283
41389W        W12918  11.903  43.202   1.041
41390W        W12919  19.588  42.070  12.206
41391W        W12920  13.578  40.314  11.614
41392W        W12921  16.830  33.420   4.618
41393W        W12922  24.527  20.897   4.135
41394W        W12923  14.293  29.451   4.552
41395W        W12924   8.250  19.174   2.690
41396W        W12925  41.647  38.284   0.489
41397W        W12926  11.801  20.033  12.628
41398W        W12927   4.716  14.128  12.435
41399W        W12928  38.757  28.571   4.568
41400W        W12929   3.792  22.814   3.341
41401W        W12930  18.866   1.077  13.328
41402W        W12931  31.689  22.734   3.709
41403W        W12932  21.958  23.777  13.071
41404W        W12933  16.876  38.975   2.248
41405W        W12934  28.097  19.852  13.791
41406W        W12935  34.003  41.045  10.688
41407W        W12936  32.105  22.638  13.024
41408W        W12937  10.239  28.432   2.292
41409W        W12938  13.401  36.953   4.078
41410W        W12939  33.053  41.750  12.943
41411W        W12940  33.269  26.928  12.427
41412W        W12941  12.839  35.662   1.470
41413W        W12942  20.747  42.303  11.699
41414W        W12943  14.685  41.472  12.565
41415W        W12944  31.172   5.868  11.946
41416W        W12945  11.590  28.055  11.939
41417W        W12946  26.799  16.005  11.962
41418W        W12947  24.512  31.886  12.342
41419W        W12948  12.808   8.205   0.906
41420W        W12949  14.045   8.755   3.263
41421W        W12950  14.079  23.991   3.828
41422W        W12951   0.496  12.529  10.653
41423W        W12952  25.291  38.070  12.192
41424W        W12953  44.412  18.248  12.621
41425W        W12954   2.352  40.063   4.474
41426W        W12955  22.936  34.466  12.971
41427W        W12956  28.227  18.070   2.562
41428W        W12957  25.223  27.607  14.366
41429W        W12958  38.079  14.212   2.330
41430W        W12959   7.585  11.966  13.848
41431W        W12960   9.493  12.971  10.746
41432W        W12961  20.303  30.856  13.370
41433W        W12962   8.989   3.690  12.880
41434W        W12963  42.516   9.101  14.657
41435W        W12964  38.918   5.881  12.793
41436W        W12965  13.522  44.129  13.077
41437W        W12966  27.350   1.227   0.270
41438W        W12967  36.367   9.963   1.751
41439W        W12968  19.254  39.150  13.881
41440W        W12969  41.076   7.178   4.115
41441W        W12970  29.038   8.344  10.535
41442W        W12971  30.607  43.053  12.981
41443W        W12972  26.873   1.102  11.245
41444W        W12973  29.471  19.762  11.145
41445W        W12974  44.768   9.239  12.472
41446W        W12975  34.231  20.436   0.479
41447W        W12976   9.937  31.829  11.102
41448W        W12977  35.906  18.849  13.761
41449W        W12978  32.942  11.252   0.163
41450W        W12979  21.759   8.110   0.366
41451W        W12980  21.649  44.562  13.962
41452W        W12981  23.263  14.335   2.934
41453W        W12982  14.653   3.507   2.397
41454W        W12983  30.812  11.164   2.713
41455W        W12984  20.576  10.835  12.440
41456W        W12985  27.628  22.723  14.013
41457W        W12986   8.827  22.108   2.926
41458W        W12987  34.484  14.366   4.008
41459W        W12988   9.290  10.155  13.571
41460W        W12989   0.740  36.081  13.017
41461W        W12990  21.456  30.296  12.955
41462W        W12991  29.978  25.236  12.812
41463W        W12992  15.630  14.690  12.840
41464W        W12993   0.950  18.564   2.948
41465W        W12994  18.976   6.158  12.223
41466W        W12995  24.612  21.312   1.827
41467W        W12996  22.362  33.578  11.910
41468W        W12997  30.420  39.089  11.098
41469W        W12998  12.221   2.496  12.616
41470W        W12999  36.451  37.542  11.092
41471W        W13000  13.399  37.837   0.879
41472W        W13001  27.465  42.399   0.751
41473W        W13002  22.244  22.711   3.837
41474W        W13003  10.290  13.244  13.548
41475W        W13004  28.100  28.648   2.789
41476W        W13005  27.339  35.233   5.000
41477W        W13006  43.921  29.037  14.139
41478W        W13007  32.328  10.464  11.609
41479W        W13008  34.266  18.603   3.360
41480W        W13009  29.661  38.394  11.108
41481W        W13010   7.223   8.751   1.072
41482W        W13011  13.828  21.043   9.820
41483W        W13012  28.043  38.159  12.565
41484W        W13013  29.179  32.402   3.806
41485W        W13014  11.256   3.841  14.362
41486W        W13015  44.565  41.404   3.830
41487W        W13016  21.222  20.916  14.181
41488W        W13017   5.121   1.350   3.896
41489W        W13018  37.867  37.110   1.121
41490W        W13019  37.533  16.418  10.737
41491W        W13020  13.886  43.023  12.018
41492W        W13021  40.313   3.058  11.565
41493W        W13022  20.298  12.272  11.682
41494W        W13023  35.428  13.108   2.281
41495W        W13024  19.078  21.541   9.751
41496W        W13025  31.594  34.957  14.822
41497W        W13026  26.485  37.924   0.121
41498W        W13027  42.546  40.431  12.575
41499W        W13028   9.261  21.906  13.909
41500W        W13029   3.091  36.073   0.636
41501W        W13030  43.853   6.176  14.954
41502W        W13031  27.144  35.388   0.378
41503W        W13032   7.806  11.183  13.367
41504W        W13033  24.718  34.854   2.323
41505W        W13034   0.699  17.111   3.713
41506W        W13035   2.574  27.262  10.593
41507W        W13036  19.216  26.549   3.570
41508W        W13037   1.525  14.786   2.122
41509W        W13038  24.047  43.583   1.791
41510W        W13039  17.229  35.292  14.635
41511W        W13040  35.395   8.737   2.811
41512W        W13041  13.509  31.068   3.332
41513W        W13042  34.368  44.879   1.366
41514W        W13043  35.053  41.473  13.789
41515W        W13044   4.001   6.813   0.334
41516W        W13045  13.982   9.246   3.124
41517W        W13046  24.235  36.848  10.439
41518W        W13047  30.408   2.624   4.174
41519W        W13048  15.575  37.117   0.971
41520W        W13049  25.589  29.466   3.744
41521W        W13050  28.240  20.998   4.243
41522W        W13051   1.888  10.902   1.303
41523W        W13052  29.899   6.961  13.975
41524W        W13053  32.625  44.016   2.801
41525W        W13054  44.562  24.210   0.890
41526W        W13055  37.783  18.796   4.559
41527W        W13056  31.626  20.252   3.911
41528W        W13057  16.045   0.927   4.560
41529W        W13058   0.195   1.789   4.629
41530W        W13059  27.930  10.886  10.073
41531W        W13060  11.025  29.219  12.723
41532W        W13061  17.876  28.383  12.441
41533W        W13062  24.928  42.786  14.288
41534W        W13063   4.054  42.361  13.827
41535W        W13064  40.268  43.434  11.541
41536W        W13065  36.851  36.873   3.219
41537W        W13066   7.843  13.360   0.781
41538W        W13067  28.896  28.629  12.413
41539W        W13068  16.002  41.959  14.645
41540W        W13069  38.851  28.855   2.809
41541W        W13070  35.900  29.200  11.603
41542W        W13071  31.272  43.949   3.325
41543W        W13072  30.717  20.655   1.964
41544W        W13073   5.391   9.748   3.312
41545W        W13074   0.011  20.994   0.216
41546W        W13075  22.675  35.549   5.058
41547W        W13076  32.461   0.784  14.964
41548W        W13077  20.310  43.904  13.562
41549W        W13078  13.781  12.815   2.139
41550W        W13079  21.151  38.649  12.508
41551W        W13080  31.923  40.848  13.984
41552W        W13081  40.955  35.325   0.206
41553W        W13082  14.667  29.553   0.283
41554W        W13083   8.353  23.504  11.826
41555W        W13084   1.664   6.886   2.694
41556W        W13085  19.164  32.263  12.625
41557W        W13086  10.863  36.766   4.741
41558W        W13087   5.226  26.932  13.938
41559W        W13088  28.962  44.806  10.678
41560W        W13089  29.357  19.716   0.829
41561W        W13090  39.851  32.304   0.882
41562W        W13091   0.375   5.848  12.591
41563W        W13092   6.238  26.684  10.756
41564W        W13093   6.940  23.429  12.002
41565W        W13094  35.518  25.349  11.731
41566W        W13095   8.397   9.749  13.827
41567W        W13096  20.539  35.784   2.297
41568W        W13097   6.760  37.991   3.616
41569W        W13098   2.977   7.904  14.336
41570W        W13099   9.819  18.946   1.951
41571W        W13100  17.262  41.311   1.213
41572W        W13101   9.415  44.139   3.923
41573W        W13102  12.176  13.575   2.701
41574W        W13103   4.351   8.239   0.506
41575W        W13104  39.024  35.502   3.186
41576W        W13105  38.848  20.652  13.593
41577W        W13106  33.964  24.570  11.118
41578W        W13107  17.622  29.118  12.937
41579W        W13108  27.740  12.542   4.080
41580W        W13109   1.118  25.740  14.326
41581W        W13110   4.895  34.268  10.746
41582W        W13111  17.829  32.113  12.636
41583W        W13112  12.998  21.314  14.068
41584W        W13113  24.708  12.459  12.969
41585W        W13114  41.872  14.721  10.643
41586W        W13115   0.419  15.003   3.672
41587W        W13116  21.096  27.108  12.973
41588W        W13117  27.162  37.830  13.459
41589W        W13118  29.136  37.106   3.664
41590W        W13119  10.005  18.724   2.878
41591W        W13120   2.231  32.534   1.662
41592W        W13121  42.957  18.332   1.389
41593W        W13122  14.795   4.288   3.088
41594W        W13123  39.515  26.374   0.382
41595W        W13124  20.155  36.932  14.859
41596W        W13125  44.068  15.758  14.903
41597W        W13126  32.413  33.239   4.710
41598W        W13127   3.729  16.800   3.211
41599W        W13128   9.397   9.646  13.560
41600W        W13129   6.931   6.871   0.025
41601W        W13130   3.770  26.513   4.100
41602W        W13131  32.709  12.305   4.007
41603W        W13132  41.682   6.522  11.114
41604W        W13133  41.527  17.666  11.589
41605W        W13134  43.933  33.412   1.348
41606W        W13135  37.354  26.233   1.393
41607W        W13136   9.810  24.649  11.645
41608W        W13137  16.527  32.955  12.673
41609W        W13138  41.898   0.759   4.719
41610W        W13139  18.635  41.140  10.207
41611W        W13140   2.419  21.051  14.799
41612W        W13141  13.378   4.622   4.543
41613W        W13142  39.510  36.993   3.592
41614W        W13143  29.675  11.368   2.417
41615W        W13144  32.876  13.455  14.457
41616W        W13145   6.239   6.871  13.388
41617W        W13146  36.622  25.127  11.102
41618W        W13147  20.084   9.659   1.465
41619W        W13148  26.733  26.450   1.881
41620W        W13149   1.423  37.279   0.862
41621W        W13150  13.773   9.265   0.285
41622W        W13151  41.573   8.882  11.159
41623W        W13152  26.395  35.968  11.488
41624W        W13153   6.207  23.770  10.268
41625W        W13154  15.396  13.306  11.589
41626W        W13155  36.091  26.720   1.219
41627W        W13156  21.180   2.185   2.393
41628W        W13157  10.558  29.559  10.689
41629W        W13158   1.257  37.419  14.885
41630W        W13159  23.261  30.981  12.498
41631W        W13160   0.713  40.825   3.226
41632W        W13161   9.917  33.733  11.148
41633W        W13162  14.095   8.636  12.400
41634W        W13163  18.644  40.755   3.823
41635W        W13164  40.766   8.629   3.991
41636W        W13165  12.061  33.112   2.444
41637W        W13166  40.946  38.873  14.460
41638W        W13167   6.446  12.924   4.143
41639W        W13168  16.168   1.554  10.943
41640W        W13169  31.015  25.343   3.189
41641W        W13170  24.872  16.134  14.687
41642W        W13171   9.242  30.604   0.914
41643W        W13172  24.495  33.831  13.889
41644W        W13173   9.211  39.549  10.409
41645W        W13174   8.476  31.266  10.722
41646W        W13175   5.719  30.988   4.864
41647W        W13176  44.991  42.597  14.885
41648W        W13177   0.335  25.708   1.992
41649W        W13178  12.278  32.267   2.139
41650W        W13179   0.409  31.812  10.245
41651W        W13180  31.463  23.075  10.347
41652W        W13181  11.530  18.654   2.779
41653W        W13182  39.015   6.121  11.667
41654W        W13183   6.337  41.082   2.246
41655W        W13184  37.491  36.504   4.616
41656W        W13185  24.922   1.050   3.684
41657W        W13186   9.251  40.928  14.032
41658W        W13187  25.540  42.359  12.891
41659W        W13188  21.363   7.634   0.478
41660W        W13189  40.965  18.079   2.616
41661W        W13190  39.340   3.391  14.753
41662W        W13191  34.864  10.599  11.051
41663W        W13192   8.285   1.782   1.363
41664W        W13193  27.029  32.070  10.716
41665W        W13194  21.820  15.206   0.641
41666W        W13195  24.243  40.793   9.892
41667W        W13196  17.395   9.805  13.534
41668W        W13197  20.095   0.312   3.586
41669W        W13198  37.773  38.925  11.135
41670W        W13199  24.931  38.139  11.501
41671W        W13200  42.716  10.829  12.914
41672W        W13201  23.121  44.036   3.723
41673W        W13202  12.895   6.392   3.784
41674W        W13203  38.015  11.808   1.231
41675W        W13204  20.895  10.123   0.896
41676W        W13205  28.508  35.402   0.013
41677W        W13206   6.809  24.601   0.432
41678W        W13207  11.988  33.790   4.796
41679W        W13208  23.648  41.283   3.229
41680W        W13209  25.464  19.763   1.790
41681W        W13210  41.198  43.025  12.881
41682W        W13211  25.589  16.225   2.730
41683W        W13212  17.344   5.387   2.774
41684W        W13213  43.558   6.657   1.293
41685W        W13214   1.841  25.482   0.950
41686W        W13215  23.753  44.311  12.496
41687W        W13216  13.802  39.035   1.530
41688W        W13217  34.858  41.409  14.865
41689W        W13218  38.748   6.751   4.620
41690W        W13219  35.520  41.594  14.349
41691W        W13220  16.309   9.028  11.631
41692W        W13221  19.476  33.382  14.539
41693W        W13222  39.988  33.960   0.801
41694W        W13223  29.700  18.039   1.211
41695W        W13224   1.882  38.501   3.332
41696W        W13225  24.602   0.370  11.972
41697W        W13226   0.924  43.562  12.104
41698W        W13227  23.180  26.785  14.465
41699W        W13228  33.409  39.490  11.866
41700W        W13229   5.760  35.116  14.421
41701W        W13230  39.808   1.138  14.365
41702W        W13231  23.939   2.328   5.131
41703W        W13232  38.868  14.298   0.908
41704W        W13233  23.878  42.263  11.136
41705W        W13234   3.017   5.252   2.652
41706W        W13235  23.702  26.257   2.551
41707W        W13236  19.281  37.387  13.717
41708W        W13237  24.480   1.851   2.319
41709W        W13238  40.120  16.634   2.232
41710W        W13239  11.181  23.770   0.159
41711W        W13240  21.852  37.134   2.674
41712W        W13241  44.730  14.916   0.746
41713W        W13242  22.244  16.564  12.531
41714W        W13243  34.134  26.007   1.868
41715W        W13244  36.866  34.148   0.956
41716W        W13245  16.245  22.911   3.779
41717W        W13246  29.994  27.653   0.269
41718W        W13247  36.533  24.734  11.423
41719W        W13248  30.537  20.124  13.640
41720W        W13249  22.509  10.826  11.339
41721W        W13250  40.516  20.865  13.342
41722W        W13251   4.723  35.373   3.175
41723W        W13252   4.735  23.587   3.177
41724W        W13253  15.141  20.498  11.357
41725W        W13254  20.487  28.859   0.323
41726W        W13255  32.477  12.370   2.639
41727W        W13256  40.434  39.194  12.336
41728W        W13257   6.258  26.040   1.313
41729W        W13258   0.575  20.923   2.357
41730W        W13259  20.116  11.072   1.328
41731W        W13260  20.634  10.351   2.543
41732W        W13261  16.734  25.691   2.883
41733W        W13262  10.173  40.256   2.445
41734W        W13263  30.116  19.135   4.364
41735W        W13264   0.789  30.886   2.853
41736W        W13265   0.786   1.893  14.331
41737W        W13266  17.009   2.689  14.176
41738W        W13267  44.569  31.976   1.155
41739W        W13268  27.920  36.689  13.459
41740W        W13269  12.696  21.446   0.396
41741W        W13270  19.810  43.260  11.428
41742W        W13271  20.037   0.920   2.855
41743W        W13272  18.128   0.975   2.641
41744W        W13273  24.470  16.599  11.254
41745W        W13274  34.633  10.120  14.789
41746W        W13275  16.870  29.845   2.034
41747W        W13276  40.110  20.049  14.041
41748W        W13277   5.431   5.829   0.823
41749W        W13278  33.477  42.902  13.503
41750W        W13279   2.960  12.756  12.941
41751W        W13280  35.569   1.989  11.136
41752W        W13281   2.435  15.934  11.577
41753W        W13282   1.397  37.893   4.568
41754W        W13283  36.573  43.362   3.168
41755W        W13284  23.080  43.228  13.894
41756W        W13285  27.255  18.201   2.309
41757W        W13286  43.602  23.170  11.192
41758W        W13287  44.516  29.167  12.546
41759W        W13288   7.264  24.505  11.912
41760W        W13289  28.706   9.316  14.015
41761W        W13290   7.943  31.223  10.751
41762W        W13291  10.095  26.943  10.986
41763W        W13292  24.770  11.941  12.948
41764W        W13293  21.134  24.869   1.517
41765W        W13294   3.401   1.362  14.492
41766W        W13295   2.203   6.862  14.968
41767W        W13296  11.960  25.306  10.316
41768W        W13297  42.776   4.727   1.630
41769W        W13298  42.761   0.154  12.880
41770W        W13299  20.581  26.166  12.877
41771W        W13300  13.168  35.012  13.742
41772W        W13301   6.022  16.217   5.469
41773W        W13302  14.969  11.796   4.600
41774W        W13303   3.315   2.215   3.162
41775W        W13304   1.663  15.451   1.468
41776W        W13305  10.639  10.333   0.571
41777W        W13306  40.343  16.656   1.332
41778W        W13307  36.137  14.870  10.739
41779W        W13308  42.025  32.589   0.224
41780W        W13309  36.005  16.828  11.989
41781W        W13310  24.871  10.768   1.783
41782W        W13311  28.023  12.574  12.052
41783W        W13312  18.135  13.331   2.888
41784W        W13313  37.357  18.992   2.766
41785W        W13314   5.697   5.783   2.626
41786W        W13315   4.973   4.446   4.181
41787W        W13316  17.064  19.143   3.426
41788W        W13317  32.338  25.734   0.299
41789W        W13318  16.341  16.694  11.183
41790W        W13319  14.083  10.942   2.807
41791W        W13320  35.820   8.178   0.145
41792W        W13321   4.927   6.334   1.803
41793W        W13322  17.292  27.939  10.312
41794W        W13323  28.651  37.290   4.586
41795W        W13324  13.344  41.042  14.340
41796W        W13325   7.112  38.450  13.900
41797W        W13326  17.011  26.190   4.426
41798W        W13327  12.349  42.778  12.936
41799W        W13328  21.015  19.193   4.594
41800W        W13329  28.766  44.318  13.001
41801W        W13330   2.418  36.350  12.837
41802W        W13331   6.423   1.486   4.854
41803W        W13332  14.621  38.063   1.402
41804W        W13333   8.049  38.706   3.380
41805W        W13334  29.028  33.055  10.709
41806W        W13335  29.735   9.392  13.890
41807W        W13336  28.085  34.113   0.422
41808W        W13337  35.947  13.371  13.795
41809W        W13338   8.732  24.770   2.276
41810W        W13339  15.754   7.247  12.438
41811W        W13340  27.574  24.573   0.301
41812W        W13341   8.128  33.890   3.231
41813W        W13342   7.798  23.068   2.361
41814W        W13343  25.690   3.228   2.886
41815W        W13344  24.315  31.422  14.058
41816W        W13345  18.629  20.092  11.956
41817W        W13346  18.529  28.249   0.458
41818W        W13347  27.924   1.156   4.631
41819W        W13348  10.794   2.229  14.391
41820W        W13349  32.158  36.596  11.079
41821W        W13350  14.813  39.940   3.398
41822W        W13351  35.820  28.445  10.758
41823W        W13352  43.749  23.583  13.845
41824W        W13353  43.092  43.141   5.049
41825W        W13354   5.939   1.521  11.094
41826W        W13355  29.396   8.758   4.484
41827W        W13356  34.445  41.811   3.747
41828W        W13357   4.931  20.080  14.812
41829W        W13358  41.190  26.480  11.134
41830W        W13359  39.940  29.565   3.196
41831W        W13360  35.084  16.751   2.864
41832W        W13361  20.985   9.823  12.462
41833W        W13362  38.128  19.052   3.270
41834W        W13363  14.534  18.612   0.334
41835W        W13364   9.456  32.035   2.626
41836W        W13365  35.520  11.263   4.924
41837W        W13366  26.371   1.501  12.083
41838W        W13367  31.882  35.264  13.528
41839W        W13368   3.535   7.258   4.250
41840W        W13369  31.739  12.810   1.188
41841W        W13370  40.573  34.664   3.134
41842W        W13371  27.065  32.941  12.438
41843W        W13372  15.078  15.005  12.518
41844W        W13373  40.357  22.248  12.009
41845W        W13374  18.117  44.577   2.237
41846W        W13375  16.592  31.606   4.336
41847W        W13376  11.759  14.411  12.073
41848W        W13377  10.385  15.079  14.376
41849W        W13378  28.947  19.315  11.609
41850W        W13379  24.493  30.079   1.862
41851W        W13380  41.455  32.210   2.745
41852W        W13381   4.919  23.423   0.397
41853W        W13382  19.012  24.089  11.994
41854W        W13383  20.643  12.110  12.036
41855W        W13384  35.713  42.264  11.723
41856W        W13385   8.128  14.281  11.123
41857W        W13386  30.910  38.474   1.750
41858W        W13387  19.590  15.947  12.498
41859W        W13388  32.064  41.824  10.519
41860W        W13389  27.931  16.657  11.592
41861W        W13390  25.444  27.197  11.608
41862W        W13391  26.076   9.657  12.126
41863W        W13392  41.949  40.189   0.460
41864W        W13393   0.777  22.032  13.354
41865W        W13394  27.573  23.654   1.885
41866W        W13395  31.339  37.197   1.674
41867W        W13396  37.634  18.928   1.086
41868W        W13397  38.094  11.683   2.707
41869W        W13398  32.099  10.115  11.328
41870W        W13399  21.337   3.839  12.274
41871W        W13400  31.149  13.625   0.019
41872W        W13401   5.716  26.558  12.727
41873W        W13402  11.185   4.129   0.189
41874W        W13403  14.128  27.360   2.745
41875W        W13404  43.973  17.360  11.673
41876W        W13405  39.603  21.797   0.714
41877W        W13406   2.527  41.492   2.628
41878W        W13407  42.155  28.002   1.534
41879W        W13408  16.321  22.532   1.185
41880W        W13409  20.116   8.313  12.215
41881W        W13410  11.260   5.828  14.468
41882W        W13411   5.267  32.960  11.078
41883W        W13412   6.712  12.282  12.393
41884W        W13413  19.110  32.649   2.786
41885W        W13414  19.247  12.148  14.962
41886W        W13415  38.918  24.221  13.451
41887W        W13416  23.078  38.515  13.397
41888W        W13417  16.117  42.701   3.181
41889W        W13418  16.047  44.834  10.614
41890W        W13419  11.206  30.138   1.853
41891W        W13420   2.875  23.953   4.335
41892W        W13421  43.638  29.983   2.800
41893W        W13422  29.541  30.532  10.732
41894W        W13423  36.475  40.735  14.364
41895W        W13424  12.174  31.947   4.072
41896W        W13425  33.677  11.386   2.797
41897W        W13426  24.718   6.660  12.779
41898W        W13427   3.433  34.060  11.864
41899W        W13428  20.702  15.314  14.388
41900W        W13429  22.681  17.110  11.108
41901W        W13430  14.788  19.653  10.234
41902W        W13431   1.746  12.393  12.121
41903W        W13432  28.363  43.482  14.321
41904W        W13433   5.461  18.152   2.649
41905W        W13434   9.645  11.756   1.012
41906W        W13435  40.913   3.518   5.042
41907W        W13436   0.779  21.233  10.841
41908W        W13437  10.905  18.767  12.390
41909W        W13438  42.873   8.103   3.183
41910W        W13439  16.964   1.752   4.287
41911W        W13440  37.604  23.175  10.688
41912W        W13441  27.842  35.160   3.042
41913W        W13442  11.853  21.961  11.499
41914W        W13443  44.458  21.661   2.756
41915W        W13444   6.796  13.949   3.122
41916W        W13445  29.788  34.310  11.212
41917W        W13446   1.449  32.440   2.159
41918W        W13447  24.502   7.146   0.791
41919W        W13448  31.096  19.047  13.768
41920W        W13449   4.355  16.713  12.964
41921W        W13450  44.802  14.637  11.869
41922W        W13451   3.508  36.863  14.316
41923W        W13452  17.313  28.015   0.832
41924W        W13453  30.018  39.084   1.118
41925W        W13454   6.243  28.692  12.652
41926W        W13455   9.979  43.873  13.296
41927W        W13456  39.331  34.052  10.425
41928W        W13457  35.002  38.137   3.608
41929W        W13458  33.285  21.141  11.292
41930W        W13459   8.707  21.338  14.271
41931W        W13460  34.433  22.704  11.940
41932W        W13461  25.773  38.486   2.832
41933W        W13462  23.532  28.844   3.304
41934W        W13463  27.055  30.673  12.701
41935W        W13464   5.027  21.007   0.323
41936W        W13465  44.231  31.266  13.418
41937W        W13466   1.603  26.034   0.426
41938W        W13467  44.799  25.601  12.633
41939W        W13468  42.420  35.023   2.903
41940W        W13469   4.282   7.106  11.172
41941W        W13470   2.837  19.407  12.143
41942W        W13471  24.276  27.749   2.900
41943W        W13472  15.156  40.888   2.631
41944W        W13473  15.501  11.064   1.521
41945W        W13474  43.673  18.187  14.316
41946W        W13475  34.939  23.284  11.735
41947W        W13476  42.098  32.973  13.546
41948W        W13477   6.489  34.477  12.987
41949W        W13478  21.711  41.055  12.124
41950W        W13479   4.256  26.316   0.800
41951W        W13480  17.169   9.681  11.616
41952W        W13481  42.890  35.826  11.183
41953W        W13482   9.147  35.577  11.202
41954W        W13483  29.845  32.205   1.343
41955W        W13484  24.977   7.328   4.990
41956W        W13485  13.812  38.842  12.498
41957W        W13486  20.521  15.718   1.791
41958W        W13487   4.754   4.428  14.452
41959W        W13488  35.920  17.727  12.524
41960W        W13489  31.593  25.062   0.274
41961W        W13490  40.331  18.071   0.902
41962W        W13491  19.201  36.558   1.796
41963W        W13492  13.459  29.172   0.774
41964W        W13493  18.454  36.100  10.860
41965W        W13494   3.507  14.268  14.343
41966W        W13495  21.181  24.071  10.462
41967W        W13496  15.984  26.720   1.719
41968W        W13497  25.887  29.166  11.654
41969W        W13498   1.735  13.721   0.375
41970W        W13499  11.726  29.641  14.691
41971W        W13500  41.313  14.249   0.803
41972W        W13501  11.628  14.839   1.723
41973W        W13502  33.000  37.380  13.839
41974W        W13503   6.194  31.862   4.458
41975W        W13504  35.375  12.393  14.334
41976W        W13505  33.561  31.079   1.075
41977W        W13506  33.470   9.300   2.653
41978W        W13507  37.006  39.055   4.562
41979W        W13508  13.371  25.177  10.233
41980W        W13509  14.273  36.193  12.922
41981W        W13510  24.722   3.977  12.045
41982W        W13511  17.552  16.217  13.853
41983W        W13512   4.125  28.048   0.379
41984W        W13513  44.235  15.257   0.065
41985W        W13514  13.571  32.953   0.303
41986W        W13515  14.674  30.519  12.577
41987W        W13516   4.528  41.906   1.778
41988W        W13517  31.421   6.234   4.331
41989W        W13518   4.738  39.962  14.011
41990W        W13519  36.028  22.203  11.495
41991W        W13520  39.453  37.009   2.754
41992W        W13521  36.463  40.886   3.318
41993W        W13522  30.570  19.963   0.850
41994W        W13523  41.919  38.367   1.446
41995W        W13524  13.253  28.525  12.875
41996W        W13525  25.160  34.495   4.649
41997W        W13526  29.159   1.722   0.448
41998W        W13527  13.316  13.923   1.962
41999W        W13528  22.812  36.952   1.002
42000W        W13529  38.559  22.468  13.113
42001W        W13530  10.997  38.905   0.356
42002W        W13531  26.669   6.098   4.265
42003W        W13532   0.260  21.750   3.349
42004W        W13533  25.499  22.646  12.071
42005W        W13534   9.895   6.243   4.613
42006W        W13535  30.517  14.229  11.589
42007W        W13536  27.114  38.416  12.365
42008W        W13537  32.223  14.676  11.420
42009W        W13538  25.167  42.779   2.376
42010W        W13539  19.205   8.461   0.307
42011W        W13540  26.832  30.985  13.634
42012W        W13541  32.141  30.745   3.704
42013W        W13542  33.951  37.348  11.500
42014W        W13543  44.573  21.487  14.434
42015W        W13544  41.475  38.597  12.015
42016W        W13545  35.631   4.268   3.706
42017W        W13546  33.511  29.520   0.020
42018W        W13547  33.776  29.101  11.084
42019W        W13548   7.293  25.044  10.840
42020W        W13549  40.094  29.206   1.441
42021W        W13550  12.202  20.687   4.201
42022W        W13551  24.186  18.094   4.029
42023W        W13552  32.722  28.138   2.693
42024W        W13553  36.457   8.675  11.634
42025W        W13554  24.563  28.680  11.185
42026W        W13555  30.782   4.430   4.243
42027W        W13556  10.311   4.217  12.909
42028W        W13557  40.727   9.433  11.574
42029W        W13558  17.070  43.856   3.855
42030W        W13559  11.812  35.056   2.651
42031W        W13560   6.748  26.850   0.234
42032W        W13561  42.447   8.833   4.306
42033W        W13562  32.458  36.786   3.297
42034W        W13563  11.968  19.246  12.379
42035W        W13564  20.820  33.008  10.924
42036W        W13565   8.366   2.805   2.315
42037W        W13566  21.444  33.547  11.632
42038W        W13567   4.811  43.784   1.770
42039W        W13568   2.723  20.085  12.022
42040W        W13569  17.747  11.761  14.374
42041W        W13570  36.788  24.598  12.675
42042W        W13571  21.548  35.573  12.047
42043W        W13572  37.945  43.860   1.735
42044W        W13573  15.261   0.464  10.700
42045W        W13574  32.428   5.368   1.355
42046W        W13575  27.412  11.867   1.388
42047W        W13576  37.567  35.502  13.415
42048W        W13577  38.008  21.559  14.337
42049W        W13578  29.052  40.342  12.844
42050W        W13579  18.854   8.178   3.604
42051W        W13580   9.780  36.384   3.267
42052W        W13581  24.224  14.213  12.608
42053W        W13582  12.268  30.451   2.288
42054W        W13583  43.298   1.834  13.055
42055W        W13584  12.194  34.955  10.899
42056W        W13585  23.801  43.291  13.490
42057W        W13586  36.604  30.186   3.362
42058W        W13587  14.817   2.574  12.033
42059W        W13588  35.815   0.225  13.876
42060W        W13589  15.772  30.906  11.008
42061W        W13590  43.349  15.313   0.385
42062W        W13591  15.922  19.077  10.037
42063W        W13592  37.380  36.925   4.199
42064W        W13593  25.538  27.051   4.532
42065W        W13594  22.108  18.568   3.221
42066W        W13595  14.338  24.105   2.139
42067W        W13596  28.003  27.712   5.040
42068W        W13597   5.528  36.889   0.015
42069W        W13598  16.322  20.303  13.955
42070W        W13599  15.717   1.718   1.287
42071W        W13600   9.117  32.037   4.617
42072W        W13601  44.160  41.226  10.205
42073W        W13602  23.968   9.396  14.020
42074W        W13603  36.560  21.110   3.761
42075W        W13604   2.496  44.535   2.328
42076W        W13605  20.807  41.377   0.885
42077W        W13606  44.344  18.039   1.781
42078W        W13607  16.647   8.286   3.774
42079W        W13608  39.595  44.740   3.764
42080W        W13609  21.025  27.885  12.115
42081W        W13610  17.689  22.705  11.013
42082W        W13611   8.289  11.086   2.259
42083W        W13612  42.345  12.853   2.304
42084W        W13613  41.415  13.797   0.544
42085W        W13614   8.630  40.931   1.590
42086W        W13615  21.190  35.632   4.696
42087W        W13616   8.373  36.700  14.153
42088W        W13617  24.530  22.127   1.239
42089W        W13618  29.900  13.438  11.532
42090W        W13619   8.249   8.525  11.350
42091W        W13620  35.116  27.526  12.580
42092W        W13621  30.506  17.510  12.553
42093W        W13622   3.449  11.071   1.213
42094W        W13623  13.622  36.438  11.235
42095W        W13624   3.446   8.165  11.227
42096W        W13625   6.689  42.393  12.663
42097W        W13626  12.767  10.608  13.973
42098W        W13627  13.694  19.381   3.815
42099W        W13628  27.629   7.464  13.894
42100W        W13629  17.224  19.047   2.256
42101W        W13630  23.131  30.804   4.277
42102W        W13631  33.648  22.032  13.618
42103W        W13632  29.352  13.923   2.370
42104W        W13633  37.460  42.663  14.434
42105W        W13634  35.524  41.015   1.960
42106W        W13635  34.527   8.365  13.889
42107W        W13636  19.638  27.639  12.136
42108W        W13637   1.728   4.395  11.113
42109W        W13638  35.973   3.971   4.762
42110W        W13639   4.185  34.756  12.551
42111W        W13640   4.628  37.524  12.992
42112W        W13641  23.491  22.144   3.645
42113W        W13642   4.779  25.979  14.503
42114W        W13643  20.833  39.782  13.638
42115W        W13644  24.748  40.950   0.261
42116W        W13645  16.570  44.463  14.896
42117W        W13646  36.213  28.745  13.371
42118W        W13647  28.361   1.319   0.335
42119W        W13648  36.395  11.662  10.950
42120W        W13649  32.696  40.938  13.487
42121W        W13650  26.703   6.205  13.566
42122W        W13651  29.348  11.596   1.837
42123W        W13652  41.949  24.668  12.416
42124W        W13653  19.270  12.276   2.287
42125W        W13654  30.730  27.397   3.667
42126W        W13655  32.060  18.058  10.393
42127W        W13656   7.694  19.348  11.678
42128W        W13657  12.926  21.218   1.314
42129W        W13658  33.625  24.994  13.525
42130W        W13659   2.517  33.061  10.616
42131W        W13660  19.393  29.431  12.211
42132W        W13661  34.582  37.643  12.496
42133W        W13662   9.138  17.878   0.289
42134W        W13663  27.504  20.034  10.670
42135W        W13664  44.442  28.470   3.833
42136W        W13665  23.092  38.762  12.933
42137W        W13666  18.672  22.552  14.290
42138W        W13667  12.318  33.431  10.388
42139W        W13668  32.422  39.008  12.323
42140W        W13669  44.000   4.338   1.320
42141W        W13670   9.206  20.210   1.470
42142W        W13671  33.518  11.110  11.165
42143W        W13672  42.296  18.039  14.594
42144W        W13673  38.892  23.613   0.834
42145W        W13674  31.531  41.293   1.516
42146W        W13675  25.187  38.583   3.734
42147W        W13676  21.059   2.479  14.260
42148W        W13677  30.539  33.712  12.573
42149W        W13678  34.361  12.881  12.361
42150W        W13679  42.433  38.293  12.070
42151W        W13680  22.480  12.733  13.853
42152W        W13681  44.170  22.544  13.047
42153W        W13682  25.529  32.363   1.300
42154W        W13683  38.571   3.857  12.009
42155W        W13684   8.247  42.291  10.677
42156W        W13685  13.360   6.124   0.900
42157W        W13686  37.280   0.360  13.567
42158W        W13687  39.596  13.765  14.288
42159W        W13688  38.059   9.710   4.605
42160W        W13689  36.312  36.928   3.325
42161W        W13690  19.747  38.547   2.593
42162W        W13691  15.848  43.259  13.527
42163W        W13692  30.553  10.048   1.683
42164W        W13693  24.468  12.318   3.665
42165W        W13694  44.651  14.338   3.741
42166W        W13695   7.500  44.453  14.029
42167W        W13696   8.038  12.363  11.127
42168W        W13697   8.651  30.131  11.547
42169W        W13698  32.076  33.419   2.432
42170W        W13699  23.716  10.341  14.854
42171W        W13700   7.464   7.376   5.151
42172W        W13701  13.436  44.940   0.977
42173W        W13702  19.279  34.311  12.610
42174W        W13703  17.025  32.350  11.203
42175W        W13704  15.629  20.713  12.099
42176W        W13705  13.753  29.001  10.942
42177W        W13706  33.462  13.736  12.460
42178W        W13707   8.105   2.910   4.240
42179W        W13708  25.657   9.319  11.488
42180W        W13709  34.532   4.483   0.769
42181W        W13710   7.480  10.781  14.269
42182W        W13711  20.003  41.635   4.064
42183W        W13712   7.390  32.129   0.356
42184W        W13713  17.563  17.177  11.518
42185W        W13714  16.101  21.525  12.007
42186W        W13715  20.626  23.427  11.941
42187W        W13716  44.897  11.297   1.883
42188W        W13717  17.094  20.928   2.795
42189W        W13718   3.296   1.391   4.892
42190W        W13719   2.450  44.458   3.666
42191W        W13720  36.032  22.584  13.113
42192W        W13721  19.518  38.023   1.698
42193W        W13722  21.691   7.428   2.241
42194W        W13723   6.777  10.130  12.443
42195W        W13724   6.371   7.439  10.781
42196W        W13725   3.174  42.880   4.769
42197W        W13726   9.406  15.307  13.027
42198W        W13727  12.240  17.390   3.642
42199W        W13728  24.989   5.991   0.433
42200W        W13729  35.175  19.857   2.679
42201W        W13730  12.786  38.564  10.876
42202W        W13731  35.603  26.103   3.126
42203W        W13732   8.388  26.620   2.733
42204W        W13733  24.217  38.958  13.426
42205W        W13734  25.077   3.015   1.814
42206W        W13735  43.225  12.887  13.006
42207W        W13736  15.369  38.324   4.327
42208W        W13737  38.089  28.836   0.252
42209W        W13738  39.866  31.693   2.311
42210W        W13739  10.234  34.143  11.144
42211W        W13740   9.747   2.673  12.519
42212W        W13741   3.031  12.296   4.035
42213W        W13742  20.399  40.831   3.707
42214W        W13743  20.968  20.182   1.588
42215W        W13744  29.916  34.561  14.100
42216W        W13745  26.390  39.055  14.380
42217W        W13746  44.326   9.168  14.440
42218W        W13747  13.802  23.152  10.761
42219W        W13748   4.252  12.079  12.996
42220W        W13749  13.637  42.245   2.137
42221W        W13750  21.255   7.612   4.247
42222W        W13751  35.768  44.596   3.216
42223W        W13752   2.841  29.447   0.463
42224W        W13753   4.204  13.130   0.008
42225W        W13754  42.084  23.528   4.911
42226W        W13755  29.806  24.933  14.747
42227W        W13756  30.102  21.984   3.170
42228W        W13757  16.176  33.362  10.529
42229W        W13758   8.079  29.436  10.301
42230W        W13759  35.767  29.129  13.343
42231W        W13760   6.430  33.831   3.920
42232W        W13761  28.100  14.706  11.056
42233W        W13762   3.355  24.319  14.406
42234W        W13763  26.905  23.498   4.104
42235W        W13764  15.557  29.596   2.897
42236W        W13765  25.188  15.812  14.980
42237W        W13766  41.573   2.471   1.174
42238W        W13767  12.821  16.273  13.592
42239W        W13768   6.927  27.386   2.622
42240W        W13769  10.362  32.678  12.592
42241W        W13770  29.627  16.649   0.970
42242W        W13771   6.254  12.788  11.664
42243W        W13772  22.669  34.730   2.732
42244W        W13773  37.082   9.681   4.542
42245W        W13774  44.221  22.805   1.801
42246W        W13775  12.597  16.072  14.022
42247W        W13776  10.522   0.700   1.074
42248W        W13777  37.626   0.222   2.726
42249W        W13778   8.951  38.073  14.824
42250W        W13779  14.963  34.090  13.990
42251W        W13780  18.999  33.124  11.075
42252W        W13781  28.461  15.751  12.350
42253W        W13782  37.609  39.089   0.214
42254W        W13783   3.826  38.385   0.925
42255W        W13784  44.421  11.301   4.720
42256W        W13785   3.864  41.362  11.647
42257W        W13786  40.339   3.916   3.232
42258W        W13787  44.505  16.176  13.454
42259W        W13788  14.331   4.953   2.862
42260W        W13789   0.131   1.674  12.197
42261W        W13790   3.503  17.673  11.507
42262W        W13791  21.473  44.025  11.045
42263W        W13792  37.153  41.828   4.158
42264W        W13793  22.370  19.570   1.768
42265W        W13794  41.494  44.468   3.564
42266W        W13795  43.611  23.998   9.638
42267W        W13796  32.801  25.994   0.266
42268W        W13797  36.906   2.732  12.374
42269W        W13798   7.714  30.446  14.333
42270W        W13799   3.324  11.772  14.059
42271W        W13800  10.624  36.288  12.927
42272W        W13801   4.678  10.857  10.617
42273W        W13802  21.579  17.730   0.821
42274W        W13803  31.079  18.095   2.801
42275W        W13804   6.202  16.362   2.469
42276W        W13805   5.303   8.673   2.311
42277W        W13806  26.972  27.959  14.486
42278W        W13807  42.535   4.236   2.270
42279W        W13808   1.409  39.305   4.655
42280W        W13809  22.519   8.394   4.211
42281W        W13810   2.475  21.590  12.372
42282W        W13811  28.272  31.134   1.435
42283W        W13812  35.414  24.899   1.281
42284W        W13813  12.956   6.943  11.139
42285W        W13814  39.485  10.669   3.246
42286W        W13815  40.210  43.506  10.534
42287W        W13816  34.565  11.820   3.658
42288W        W13817  18.669   4.960   1.229
42289W        W13818   6.194  17.134   4.124
42290W        W13819  22.664  19.155  14.852
42291W        W13820  43.069  28.554  11.706
42292W        W13821  25.658  23.408  10.718
42293W        W13822  17.221  25.117   4.603
42294W        W13823  30.687   4.294   4.713
42295W        W13824  28.797  44.431   0.410
42296W        W13825  37.486   2.526  10.752
42297W        W13826  36.750  11.105  12.961
42298W        W13827   3.890  26.981  14.640
42299W        W13828  38.392   2.586  11.137
42300W        W13829  16.833  20.691   3.852
42301W        W13830  35.385  15.166   3.349
42302W        W13831  10.074  39.129   4.287
42303W        W13832  27.064  14.938   3.283
42304W        W13833  33.507  34.496   1.727
42305W        W13834  19.765  44.705  10.609
42306W        W13835  27.967  24.269  14.060
42307W        W13836   4.415   4.723   2.277
42308W        W13837   5.224   2.641  14.018
42309W        W13838   7.856  11.814  14.588
42310W        W13839  12.784  43.472   0.009
42311W        W13840  19.422  28.677   0.377
42312W        W13841  21.839  43.740   4.105
42313W        W13842  27.341  24.784  14.906
42314W        W13843  18.147  35.854   3.700
42315W        W13844  16.164  11.768  12.970
42316W        W13845  14.861  20.044  12.966
42317W        W13846  11.078  30.350  12.102
42318W        W13847  28.183   7.312  14.700
42319W        W13848  37.060   4.055   0.016
42320W        W13849  30.308  37.931   0.396
42321W        W13850  39.204  14.102  12.832
42322W        W13851  36.496  11.887   2.431
42323W        W13852  11.270   3.772  13.340
42324W        W13853  41.442  23.137   2.186
42325W        W13854  34.729  34.636   0.543
42326W        W13855   3.818   6.281   1.716
42327W        W13856  42.020  39.538   1.666
42328W        W13857  35.083   8.761   4.684
42329W        W13858   6.993  21.738  11.381
42330W        W13859  24.090  23.999   4.033
42331W        W13860  38.597   5.893  11.012
42332W        W13861  36.891   0.699  10.305
42333W        W13862   4.397  41.240   1.840
42334W        W13863   4.567  22.458   4.506
42335W        W13864  19.778   2.772   3.266
42336W        W13865  14.240  30.533   2.138
42337W        W13866  15.689  32.065   0.536
42338W        W13867   8.607  20.380  14.692
42339W        W13868   4.958  21.645   4.310
42340W        W13869  10.792  16.544  12.521
42341W        W13870  27.397  44.888   1.490
42342W        W13871   8.833  19.301  11.877
42343W        W13872  14.748  26.099   3.213
42344W        W13873  44.973  38.506  14.814
42345W        W13874  44.332  24.670   3.424
42346W        W13875  12.877   4.687   3.715
42347W        W13876  37.766  27.930  11.198
42348W        W13877  10.881  10.418   2.291
42349W        W13878  18.716  19.797   4.645
42350W        W13879   8.104  44.465  10.807
42351W        W13880  44.234  21.562  11.589
42352W        W13881  13.964  17.794  11.075
42353W        W13882  16.465  11.648   4.509
42354W        W13883  26.403  20.939   4.670
42355W        W13884  18.795  40.872   4.627
42356W        W13885  32.602  17.235   2.484
42357W        W13886  14.031  41.476   3.750
42358W        W13887  15.939  11.268  14.432
42359W        W13888   5.094   2.129  13.956
42360W        W13889  27.703  20.087  12.860
42361W        W13890  16.160  39.970   3.139
42362W        W13891  25.968  26.201  14.337
42363W        W13892  12.239  11.360   3.127
42364W        W13893  41.069   8.209   4.037
42365W        W13894   2.152  22.080   1.009
42366W        W13895  25.634  20.011   2.206
42367W        W13896  34.742  34.827  12.928
42368W        W13897  10.282  20.308  10.570
42369W        W13898  44.882  33.359  12.069
42370W        W13899  19.597  30.410  12.055
42371W        W13900  27.120  10.369   2.417
42372W        W13901  31.903  23.100  12.980
42373W        W13902  39.936  10.831  12.969
42374W        W13903  25.931   2.858   0.266
42375W        W13904   2.721  16.244   3.660
42376W        W13905  23.601  21.124  14.522
42377W        W13906   7.686   5.498  12.935
42378W        W13907  15.543  25.733   5.261
42379W        W13908  12.746   0.567  12.994
42380W        W13909  18.572   6.143   2.622
42381W        W13910  42.983  12.959   4.539
42382W        W13911  28.119  31.379  13.342
42383W        W13912  18.676  31.872   2.829
42384W        W13913   9.708  27.018   4.757
42385W        W13914  36.398   4.468  14.595
42386W        W13915  23.349   9.551  11.664
42387W        W13916   6.695  34.859  11.985
42388W        W13917  14.572   5.922   4.511
42389W        W13918  11.674   5.830  14.187
42390W        W13919  13.582  24.070   3.777
42391W        W13920   8.901   5.732   1.066
42392W        W13921   0.304  19.680   1.737
42393W        W13922  11.690   5.238   1.550
42394W        W13923  19.989   8.284   0.757
42395W        W13924  13.140  44.772   3.688
42396W        W13925   1.855  26.468   3.609
42397W        W13926   9.352  38.424   4.723
42398W        W13927  14.574  29.143   2.518
42399W        W13928  35.490  35.647   1.676
42400W        W13929  13.354  22.506  14.775
42401W        W13930   2.268   2.274   2.014
42402W        W13931  20.131   4.801  13.502
42403W        W13932  30.164  30.683   0.462
42404W        W13933  17.738  24.234   2.196
42405W        W13934  29.910   4.165  10.936
42406W        W13935  26.901  10.099  11.119
42407W        W13936  13.008  42.519   1.373
42408W        W13937  28.056  17.165   0.856
42409W        W13938  40.770  42.935   3.091
42410W        W13939  20.705  43.431  12.542
42411W        W13940  38.894   4.209  14.879
42412W        W13941  39.912  25.775   4.230
42413W        W13942   6.711  16.981  14.215
42414W        W13943  37.028  25.922   1.714
42415W        W13944  24.038   7.707   1.241
42416W        W13945   1.219  18.086   4.339
42417W        W13946  12.799   3.241  14.292
42418W        W13947  17.036  39.850  11.140
42419W        W13948  17.929  42.226   4.133
42420W        W13949  30.767  10.142  11.459
42421W        W13950   6.348   5.141  13.725
42422W        W13951   5.998   8.432   4.192
42423W        W13952  12.773   7.798  11.211
42424W        W13953  38.893   1.837   2.285
42425W        W13954  15.409  23.096   0.788
42426W        W13955  21.582  32.510   1.959
42427W        W13956   6.710  12.383   4.379
42428W        W13957  10.663  35.822  13.159
42429W        W13958  39.682  34.353   1.364
42430W        W13959  26.741  34.295  10.832
42431W        W13960  34.914   1.793   4.260
42432W        W13961  22.250  26.051   3.922
42433W        W13962  37.037  22.018  10.725
42434W        W13963  38.775  35.477   3.646
42435W        W13964  39.243  21.747  12.267
42436W        W13965  18.048  33.082   1.463
42437W        W13966   0.385  38.457   0.148
42438W        W13967  15.070  30.719  13.154
42439W        W13968   4.196   4.682  11.677
42440W        W13969  17.673  34.984  14.468
42441W        W13970  16.391   5.092   3.759
42442W        W13971   7.820  18.674  14.422
42443W        W13972  39.621  30.496   2.807
42444W        W13973  41.120  35.010   3.598
42445W        W13974  29.612  16.817  10.314
42446W        W13975  44.328  40.570   4.144
42447W        W13976   8.794  20.065   4.639
42448W        W13977  16.501  41.851  10.976
42449W        W13978   2.526   8.747  11.180
42450W        W13979  24.462   2.846   0.200
42451W        W13980  19.506  23.896   1.411
42452W        W13981  13.622  31.999  13.796
42453W        W13982  43.114  29.617  10.635
42454W        W13983   9.709  35.535  13.088
42455W        W13984   4.628  44.927   2.974
42456W        W13985  30.733  25.435  10.952
42457W        W13986  37.595  15.353   3.338
42458W        W13987  39.939  44.800  14.424
42459W        W13988  21.603  23.099   4.507
42460W        W13989   5.758  19.200  14.478
42461W        W13990  21.031  36.428   0.755
42462W        W13991   0.422  36.837  13.664
42463W        W13992  44.802  15.261   4.662
42464W        W13993  39.624  28.895   4.615
42465W        W13994   9.316   7.897  11.580
42466W        W13995  13.413  28.060  14.830
42467W        W13996   3.101  29.243  12.424
42468W        W13997  28.640  20.229  13.532
42469W        W13998   8.959  34.998   0.648
42470W        W13999  26.417  40.000  12.258
42471W        W14000  36.086  43.026  10.626
42472W        W14001  25.611  23.984   1.279
42473W        W14002   7.293  26.735   3.652
42474W        W14003   4.307  15.840   1.241
42475W        W14004  33.736  42.331   0.100
42476W        W14005   8.762  40.600  11.239
42477W        W14006  23.941   9.371   4.133
42478W        W14007  40.499  15.129  12.976
42479W        W14008   1.057   1.456   1.796
42480W        W14009  17.034  17.650   1.873
42481W        W14010  38.110   1.764  10.811
42482W        W14011  36.568  42.552  11.973
42483W        W14012  19.704  11.278   2.243
42484W        W14013  15.177  14.339   2.827
42485W        W14014  34.136  44.902  11.112
42486W        W14015  11.386  34.858  14.327
42487W        W14016  33.988  15.130  13.818
42488W        W14017  43.825  37.458   5.070
42489W        W14018   2.758   6.138  11.452
42490W        W14019  26.933  32.689  11.508
42491W        W14020   6.138   1.050   3.210
42492W        W14021  31.919  19.302   3.713
42493W        W14022   2.806   9.573   0.927
42494W        W14023   1.375  41.895   2.582
42495W        W14024  44.316  30.451   0.948
42496W        W14025  18.839  19.154  12.438
42497W        W14026  15.766  28.363  14.907
42498W        W14027   7.140  10.467  14.478
42499W        W14028  43.486  15.090   0.862
42500W        W14029  36.020  42.549  12.096
42501W        W14030  35.929  27.180   4.916
42502W        W14031  12.895  27.978  14.863
42503W        W14032  44.843   9.928   1.280
42504W        W14033  42.169  14.324  13.391
42505W        W14034  43.356  42.485   4.108
42506W        W14035  11.275  17.147  10.744
42507W        W14036  10.828  24.880   4.603
42508W        W14037  10.929   0.970   0.905
42509W        W14038  17.901   7.396  11.605
42510W        W14039  43.684  32.912   0.774
42511W        W14040  30.483   1.287   0.733
42512W        W14041  24.919   4.195  11.596
42513W        W14042  33.078   2.827   0.894
42514W        W14043  27.356  35.479  13.071
42515W        W14044  35.496   8.359  11.166
42516W        W14045  17.352   2.376  13.937
42517W        W14046  40.227  11.168   0.469
42518W        W14047  19.833  40.749  13.395
42519W        W14048   5.656  23.615  11.278
42520W        W14049  10.867  35.335   3.706
42521W        W14050  41.901  24.481   0.765
42522W        W14051  21.272  27.410   0.298
42523W        W14052  11.607  32.025  13.998
42524W        W14053  28.543   1.713  11.343
42525W        W14054  33.872   4.006   3.781
42526W        W14055  20.455  27.177   2.211
42527W        W14056  24.765   3.789   0.386
42528W        W14057  31.856  44.043  14.808
42529W        W14058  25.622  27.249  11.141
42530W        W14059  26.403  11.428   2.699
42531W        W14060   7.813   2.047  13.151
42532W        W14061  36.999  38.985  13.746
42533W        W14062   2.273  10.279  14.932
42534W        W14063  44.887  30.025  10.686
42535W        W14064  42.783  13.289  11.431
42536W        W14065  18.670  36.205   1.723
42537W        W14066  41.411  20.270  10.703
42538W        W14067  25.058  33.675   3.728
42539W        W14068   8.022  30.433  10.335
42540W        W14069  19.801  21.553   2.446
42541W        W14070  41.428  13.641  13.442
42542W        W14071  12.123  34.081  13.027
42543W        W14072  37.877  44.823  12.560
42544W        W14073  16.132  35.898  10.733
42545W        W14074   0.149  41.381  11.110
42546W        W14075  25.582  32.644  10.675
42547W        W14076   7.803  41.854   4.772
42548W        W14077  39.326  22.656  14.895
42549W        W14078  10.678  44.850   1.712
42550W        W14079  41.835  23.130  11.507
42551W        W14080  28.158  36.351  12.043
42552W        W14081  11.089  12.506  10.745
42553W        W14082  37.390  32.043   0.656
42554W        W14083  42.318   8.642  14.950
42555W        W14084  39.268  42.762   2.288
42556W        W14085   2.840  28.012  12.388
42557W        W14086  36.032  15.910  13.083
42558W        W14087  22.486   2.629  11.048
42559W        W14088   4.943  44.254  13.650
42560W        W14089  34.456   0.436   4.320
42561W        W14090  11.360  26.750   3.051
42562W        W14091   0.012  42.754  12.536
42563W        W14092  25.650   3.512  11.637
42564W        W14093  19.986  30.235  14.298
42565W        W14094  19.845  14.748   4.103
42566W        W14095  42.312  28.552   2.024
42567W        W14096  11.408  15.666   1.320
42568W        W14097   0.340  39.472   0.261
42569W        W14098  32.708  41.810  13.399
42570W        W14099   3.685  23.230  14.012
42571W        W14100  44.786  27.523  13.336
42572W        W14101   5.126  27.771   3.722
42573W        W14102  24.993  19.751   2.690
42574W        W14103  19.133  26.907  12.501
42575W        W14104  28.201   6.041  12.402
42576W        W14105  14.868  20.848   1.415
42577W        W14106   1.244  22.155   0.022
42578W        W14107  13.377  30.347  11.392
42579W        W14108  10.268  36.928  13.899
42580W        W14109  26.528  41.249  14.445
42581W        W14110  18.729  19.515  10.926
42582W        W14111  29.642  20.843  14.889
42583W        W14112   0.788  32.663  13.572
42584W        W14113  27.458  32.325   4.056
42585W        W14114  14.604  33.470   0.992
42586W        W14115  34.283  43.690  12.145
42587W        W14116  39.002  25.720  13.786
42588W        W14117   8.708  36.300   0.317
42589W        W14118  15.445   0.425  12.480
42590W        W14119  36.395  42.816  10.999
42591W        W14120   2.982  19.818   2.284
42592W        W14121  28.398  23.584  11.449
42593W        W14122  12.790  27.706   0.318
42594W        W14123   9.188  10.384  10.707
42595W        W14124  32.365  36.525  14.984
42596W        W14125   1.931  34.735   4.118
42597W        W14126  15.626  38.747   4.547
42598W        W14127  41.902  18.423  13.539
42599W        W14128  10.130  23.433   2.061
42600W        W14129  15.761   3.145   3.690
42601W        W14130  43.856  13.685   0.873
42602W        W14131   7.592  13.436   3.300
42603W        W14132  41.428  33.812  11.161
42604W        W14133  36.437  16.810   3.849
42605W        W14134  20.062  21.791  12.992
42606W        W14135  26.380  15.588   1.296
42607W        W14136  18.064  32.973   3.881
42608W        W14137  11.700  43.524   3.766
42609W        W14138  20.490   1.439  14.374
42610W        W14139  43.072  14.947   5.071
42611W        W14140  23.144  13.626   2.814
42612W        W14141  30.600  15.712  14.329
42613W        W14142  30.516  19.366   2.930
42614W        W14143  41.456   1.824   1.439
42615W        W14144  42.213  32.921  12.371
42616W        W14145  17.337  11.719   4.381
42617W        W14146  15.229  30.100  12.134
42618W        W14147   6.902  31.070  14.345
42619W        W14148   0.385  17.547   4.772
42620W        W14149  27.206  12.849   2.286
42621W        W14150  18.613  20.137   0.339
42622W        W14151   4.136   2.157  10.208
42623W        W14152  41.374  38.855  12.476
42624W        W14153  21.475   5.940   2.354
42625W        W14154   3.219   9.299   3.254
42626W        W14155   2.833  40.017  12.446
42627W        W14156  18.294  30.158  12.526
42628W        W14157  20.990  15.148   2.458
42629W        W14158  40.055  35.559   0.578
42630W        W14159  37.067  40.098   4.569
42631W        W14160  41.777  41.482  12.441
42632W        W14161  42.479  26.433  13.471
42633W        W14162  41.678  29.911   3.130
42634W        W14163  36.067  10.517  10.313
42635W        W14164  39.916  31.965   4.357
42636W        W14165  11.371   4.785  11.602
42637W        W14166  20.009  44.368  11.652
42638W        W14167  27.422  22.755   2.878
42639W        W14168  28.142  30.000   2.463
42640W        W14169  17.775  37.132   1.300
42641W        W14170  31.009   2.438   0.296
42642W        W14171  32.321  13.204  10.361
42643W        W14172  16.499  14.863  14.691
42644W        W14173  37.051  12.882   1.228
42645W        W14174  43.447   4.914   2.744
42646W        W14175  16.285   5.288  14.820
42647W        W14176  15.583  39.921  11.999
42648W        W14177  17.376  14.375  10.787
42649W        W14178   0.057  28.559   3.222
42650W        W14179  42.840  17.118  13.371
42651W        W14180  28.304   4.336  11.901
42652W        W14181  14.779   9.667   1.751
42653W        W14182  43.798  32.787   4.886
42654W        W14183  29.096  41.481  13.032
42655W        W14184  27.928  13.628   2.339
42656W        W14185  25.216  26.880  12.462
42657W        W14186  27.085  42.033  12.136
42658W        W14187  34.811  36.816  13.954
42659W        W14188  31.666   5.921  12.072
42660W        W14189  37.209   3.813   4.047
42661W        W14190  35.029   9.347  11.458
42662W        W14191  28.652   3.435   3.670
42663W        W14192  26.058  11.068  11.369
42664W        W14193  18.085  36.602   0.804
42665W        W14194  20.917   8.782   4.639
42666W        W14195  30.884   4.974   1.201
42667W        W14196  13.080   3.532  12.491
42668W        W14197   3.489  35.329  13.433
42669W        W14198   4.191   8.748  14.789
42670W        W14199  12.776   2.533   1.429
42671W        W14200  18.074  21.082   3.728
42672W        W14201  15.961  15.342   0.324
42673W        W14202  40.706  16.227   2.382
42674W        W14203  28.612  35.348   4.832
42675W        W14204   5.691  38.014   1.729
42676W        W14205  36.856   7.673  12.137
42677W        W14206  43.805  34.621  11.617
42678W        W14207   5.825   5.195  12.959
42679W        W14208  28.023  18.839  14.440
42680W        W14209  39.722   7.899  12.050
42681W        W14210  14.480  15.546  13.792
42682W        W14211  29.635  23.128   1.298
42683W        W14212  27.338  40.449  12.960
42684W        W14213  17.758  39.781  11.459
42685W        W14214  33.531  29.703  13.004
42686W        W14215   0.322  21.113   2.864
42687W        W14216  22.485  10.646  13.063
42688W        W14217  24.152  28.230   1.959
42689W        W14218  20.018   2.713  11.226
42690W        W14219   2.838   9.339  14.030
42691W        W14220  40.746  19.494   3.704
42692W        W14221   6.926  25.518   4.074
42693W        W14222  36.796  33.609   3.748
42694W        W14223  29.714   6.969  11.364
42695W        W14224  26.056  39.403   0.052
42696W        W14225  21.625  10.831   1.281
42697W        W14226   5.356   4.158   2.381
42698W        W14227  18.186  23.941   4.890
42699W        W14228  15.745   7.555   9.865
42700W        W14229  24.172   8.944  11.585
42701W        W14230  39.713  32.178   2.910
42702W        W14231  37.828  37.630   0.326
42703W        W14232  29.969  39.673   4.645
42704W        W14233  20.770  32.176   0.766
42705W        W14234  26.415   3.528   1.108
42706W        W14235  11.425  11.123  11.617
42707W        W14236  44.531  25.731   0.749
42708W        W14237  22.595  34.047  13.019
42709W        W14238   2.803  35.057  13.640
42710W        W14239  13.561   7.299   0.304
42711W        W14240  44.286   3.264  11.528
42712W        W14241   3.433  23.767   0.402
42713W        W14242   4.040  43.899  14.435
42714W        W14243  11.182  13.752   4.432
42715W        W14244  39.797  12.425   4.835
42716W        W14245   6.411  39.821  11.665
42717W        W14246  12.297  38.125  14.908
42718W        W14247  33.846  16.725  10.964
42719W        W14248  30.614  23.283   2.289
42720W        W14249  22.181  29.868   2.958
42721W        W14250  10.718   2.869  10.246
42722W        W14251  34.136  40.264   0.424
42723W        W14252  18.836  21.358   3.329
42724W        W14253   3.294  17.145  10.790
42725W        W14254  29.987   3.545  12.858
42726W        W14255  16.778  41.523   4.233
42727W        W14256  44.247   9.744  12.973
42728W        W14257  15.887  18.984   0.239
42729W        W14258  17.647  30.961  11.841
42730W        W14259  13.868  14.801  12.289
42731W        W14260   7.856   4.304   1.813
42732W        W14261  29.524  13.708   2.836
42733W        W14262  26.290  30.126   1.230
42734W        W14263  15.990  28.645   2.678
42735W        W14264  15.578  34.108  12.346
42736W        W14265   8.806  27.053  11.981
42737W        W14266  34.820  27.127  14.626
42738W        W14267   0.874  42.944   4.815
42739W        W14268  24.001  44.831   1.289
42740W        W14269  24.749  44.155   4.470
42741W        W14270  40.690   0.622   0.418
42742W        W14271  41.922   5.390   3.223
42743W        W14272  14.338  11.621  13.760
42744W        W14273  27.725  17.726  14.866
42745W        W14274  11.001  20.732   2.755
42746W        W14275  30.841  19.460  10.059
42747W        W14276  31.471   0.431  13.462
42748W        W14277  18.510  37.769   2.315
42749W        W14278  12.123  19.751   4.148
42750W        W14279  42.044  13.464   3.792
42751W        W14280   8.866  14.282  12.425
42752W        W14281   4.167  34.461   0.473
42753W        W14282   3.821  25.039   1.012
42754W        W14283  41.951  32.625   2.278
42755W        W14284  31.391  31.351  12.826
42756W        W14285  16.686  28.146   2.355
42757W        W14286   8.294  37.342   2.462
42758W        W14287  25.894  11.062   1.866
42759W        W14288  22.220   4.892   2.092
42760W        W14289  26.065  22.911   2.782
42761W        W14290  22.798  21.560   3.802
42762W        W14291  27.180   6.614   3.634
42763W        W14292   2.347  23.761  13.620
42764W        W14293  22.244  38.913  12.968
42765W        W14294   2.474   0.835  13.989
42766W        W14295  40.372  21.689  12.519
42767W        W14296  42.209  44.927  12.572
42768W        W14297   3.318  37.784   0.354
42769W        W14298   7.725  25.494   1.744
42770W        W14299  24.448  41.735  13.027
42771W        W14300  11.416  38.544  10.646
42772W        W14301   7.627  38.522  13.818
42773W        W14302  15.081   0.492   1.221
42774W        W14303  23.424   2.045   0.952
42775W        W14304  32.582  41.395  11.111
42776W        W14305  33.884  16.155  13.923
42777W        W14306   6.293  23.228   2.571
42778W        W14307  22.218  20.849  14.333
42779W        W14308  12.700  38.348  10.407
42780W        W14309  28.291  37.789  12.857
42781W        W14310  31.969  26.276  13.129
42782W        W14311  29.875  16.398   5.325
42783W        W14312  17.281  20.325   0.904
42784W        W14313  14.302  26.958   4.631
42785W        W14314  12.384  32.505  10.611
42786W        W14315  18.191  37.526  12.007
42787W        W14316  17.169  10.451   5.116
42788W        W14317  40.818  23.577   2.706
42789W        W14318  42.906   5.753   4.070
42790W        W14319  14.487   4.876  11.599
42791W        W14320  13.192  39.122  12.500
42792W        W14321  19.463  28.460   3.852
42793W        W14322  29.325  33.481   3.314
42794W        W14323  28.187  39.693  11.368
42795W        W14324  15.666  28.181   2.804
42796W        W14325  30.288  12.628  14.382
42797W        W14326  26.978  43.700   0.489
42798W        W14327  30.870  12.624  10.715
42799W        W14328  19.166  31.471   3.746
42800W        W14329  20.641  41.476   3.161
42801W        W14330  25.058  31.362  12.473
42802W        W14331  41.209  19.138   1.931
42803W        W14332  10.896  21.999  12.534
42804W        W14333  33.001   4.240  11.105
42805W        W14334  37.100  34.035  13.480
42806W        W14335  29.630  29.380  12.049
42807W        W14336  20.367  44.700   1.774
42808W        W14337   5.360  30.215   4.824
42809W        W14338   9.830  44.686  12.626
42810W        W14339  26.562  11.866   1.824
42811W        W14340   9.699  12.166   4.136
42812W        W14341  31.135  31.558  13.426
42813W        W14342  36.413  17.582  12.892
42814W        W14343  16.172   7.224   4.525
42815W        W14344   4.016  30.269   4.525
42816W        W14345  43.423   6.546  14.676
42817W        W14346  36.490  26.040   1.686
42818W        W14347  14.419  34.400   2.457
42819W        W14348  28.398  10.628   3.184
42820W        W14349  34.111  13.149  12.753
42821W        W14350  15.680  28.404   0.499
42822W        W14351   9.338  30.641   0.366
42823W        W14352  18.396  15.184   2.422
42824W        W14353  33.043  30.497   1.566
42825W        W14354  10.908  14.203   4.257
42826W        W14355  11.617  25.579   2.763
42827W        W14356  33.429  44.802   4.176
42828W        W14357   9.431  20.795  12.387
42829W        W14358  29.548  20.188   1.015
42830W        W14359   2.118  36.646  11.815
42831W        W14360   4.846  43.310   4.072
42832W        W14361   9.815  40.555   2.724
42833W        W14362  24.750   9.866   1.648
42834W        W14363  36.312  28.946  11.116
42835W        W14364   3.497  41.039  12.924
42836W        W14365  36.043  20.066   0.292
42837W        W14366  15.894  28.863  14.921
42838W        W14367  44.464  36.951   2.286
42839W        W14368   8.733  42.663   3.197
42840W        W14369  15.093   3.251  13.103
42841W        W14370  26.374  22.488   0.946
42842W        W14371   5.393  25.708   1.761
42843W        W14372  26.253  31.170  12.255
42844W        W14373   7.969   3.980   0.890
42845W        W14374  15.797   6.256  11.531
42846W        W14375   4.942  11.878  14.806
42847W        W14376   6.923  28.452  13.384
42848W        W14377  35.297  16.528  12.678
42849W        W14378   6.947  19.257   0.472
42850W        W14379  41.718  39.283   4.057
42851W        W14380   9.187  12.486   0.388
42852W        W14381  35.553  19.110  14.533
42853W        W14382  36.890   6.388  14.894
42854W        W14383  12.600  24.736  12.581
42855W        W14384   6.252  10.789  12.067
42856W        W14385  34.159  19.310  13.382
42857W        W14386  11.124  33.242   2.590
42858W        W14387  30.913   6.148   3.627
42859W        W14388  42.046  22.554   0.471
42860W        W14389  31.725  34.622   3.595
42861W        W14390   5.694  11.631  11.480
42862W        W14391  36.966  40.813   1.105
42863W        W14392  22.574  35.533  12.893
42864W        W14393   6.764  40.071  11.383
42865W        W14394   9.491   0.405   1.010
42866W        W14395  32.434   3.488   0.549
42867W        W14396  15.882  19.163   1.557
42868W        W14397  15.277  36.086   0.305
42869W        W14398  43.300  38.362  12.434
42870W        W14399  10.081  25.431   3.851
42871W        W14400  40.047  12.098  10.432
42872W        W14401  14.275   6.808   0.176
42873W        W14402  21.428  16.087   4.625
42874W        W14403  16.740  23.828   0.502
42875W        W14404  42.344  39.864  14.825
42876W        W14405   4.694  36.248   2.746
42877W        W14406   5.743   9.742  11.486
42878W        W14407  35.559  15.331   3.888
42879W        W14408  15.742  13.987   0.331
42880W        W14409  36.382  30.348  13.866
42881W        W14410  31.394  10.566   2.291
42882W        W14411  11.924  39.973  11.403
42883W        W14412  40.282  25.941   3.273
42884W        W14413   0.113  27.482   2.229
42885W        W14414  31.395  31.739  14.863
42886W        W14415  19.672  38.301  10.280
42887W        W14416  41.436  40.258   5.040
42888W        W14417  23.040   2.312  13.810
42889W        W14418  18.048   1.714   3.318
42890W        W14419   5.294   5.033   4.830
42891W        W14420  16.339  25.350   4.265
42892W        W14421  12.399   9.840  12.685
42893W        W14422   4.036  18.839   4.191
42894W        W14423  22.724  39.326  13.596
42895W        W14424  33.520  36.044   0.073
42896W        W14425  10.899   7.670   2.660
42897W        W14426   0.927  17.399  13.555
42898W        W14427  33.058  19.748   0.889
42899W        W14428  37.105  19.760   0.921
42900W        W14429   1.391   2.911  10.985
42901W        W14430   3.064  42.431  10.756
42902W        W14431  26.593   5.643  11.302
42903W        W14432   7.957  33.360  13.723
42904W        W14433  44.479  19.590  13.497
42905W        W14434  29.095  37.924  14.646
42906W        W14435  36.594   8.870  12.587
42907W        W14436  10.200  43.203  11.448
42908W        W14437  41.510  12.611  10.925
42909W        W14438  40.798  39.840  12.983
42910W        W14439  31.449  13.559  12.924
42911W        W14440  16.186   7.969   1.556
42912W        W14441   5.747  24.483   0.436
42913W        W14442  16.246   6.232  13.387
42914W        W14443  30.043  21.472   3.227
42915W        W14444  31.161   7.978   1.379
42916W        W14445  31.328  37.979  11.617
42917W        W14446  31.024   0.008  11.594
42918W        W14447  13.363  41.473   0.251
42919W        W14448  28.107   6.154   0.730
42920W        W14449  20.563  15.218  11.583
42921W        W14450  38.224  40.233  10.830
42922W        W14451  17.948   9.359   4.753
42923W        W14452  22.982  22.463   3.282
42924W        W14453  24.242  15.547  12.579
42925W        W14454  44.532  18.703   4.512
42926W        W14455  37.524  27.430   4.186
42927W        W14456  32.993   6.480  14.269
42928W        W14457  35.843  43.523  13.088
42929W        W14458  35.183  42.314  14.092
42930W        W14459  24.739  31.629   3.738
42931W        W14460  32.442  23.265  11.428
42932W        W14461  34.827  30.073  14.924
42933W        W14462  23.487  44.482  14.104
42934W        W14463  26.185  38.035  11.321
42935W        W14464  16.336  14.806  11.608
42936W        W14465  26.648  32.149  13.858
42937W        W14466   1.743  35.956   3.662
42938W        W14467  32.641  28.949  11.497
42939W        W14468  21.078  13.854   2.733
42940W        W14469  40.933  39.590  13.474
42941W        W14470  21.637   4.603  11.362
42942W        W14471  41.878  16.490   0.786
42943W        W14472  22.448  35.680   0.120
42944W        W14473  16.285  16.905  12.015
42945W        W14474   3.677  33.637  12.071
42946W        W14475  38.881   3.710   2.681
42947W        W14476  24.346  17.848   0.774
42948W        W14477   1.821  15.518   0.373
42949W        W14478  28.215  38.792  12.975
42950W        W14479  39.015  39.704  14.343
42951W        W14480  16.366   8.957   2.476
42952W        W14481  21.744  14.254   0.249
42953W        W14482  33.765  19.787   3.644
42954W        W14483  16.320  27.897  12.830
42955W        W14484  12.767   9.776   1.758
42956W        W14485   8.850  21.948   1.604
42957W        W14486  13.693  33.619  14.922
42958W        W14487  22.812  36.456   1.240
42959W        W14488   0.964  30.442  12.875
42960W        W14489  25.019  18.710   3.745
42961W        W14490  11.082  31.220   2.335
42962W        W14491  40.223  32.969   2.929
42963W        W14492  30.171   5.830  11.592
42964W        W14493  35.044  34.861  11.195
42965W        W14494   7.071  12.773   3.558
42966W        W14495  19.544   7.695  11.178
42967W        W14496  17.082  44.319  14.925
42968W        W14497  37.267  11.008  12.311
42969W        W14498   7.181  41.627   3.077
42970W        W14499  16.614  32.427  14.199
42971W        W14500  35.461  24.436   1.089
42972W        W14501  44.069   2.762   1.214
42973W        W14502  14.588  41.811  14.276
42974W        W14503   6.863  22.125  12.666
42975W        W14504  10.685   6.344  13.051
42976W        W14505  12.730  42.330  12.572
42977W        W14506  37.446   5.625   4.232
42978W        W14507   6.223  11.603  14.282
42979W        W14508  12.267  20.935   1.781
42980W        W14509  16.938  24.762   4.141
42981W        W14510  26.937   7.220   2.727
42982W        W14511  19.283  35.150  14.870
42983W        W14512  34.710  42.966  13.572
42984W        W14513  30.943  13.848   1.644
42985W        W14514  23.644  42.627  10.433
42986W        W14515  38.902  12.130   3.106
42987W        W14516  26.611  36.158   5.090
42988W        W14517  43.700  40.442  13.916
42989W        W14518   8.922  36.036   4.224
42990W        W14519  11.938  41.756  12.959
42991W        W14520  31.667  16.795   1.749
42992W        W14521   2.620  33.555   0.414
42993W        W14522  16.330  40.392   2.820
42994W        W14523  33.133   1.279   0.321
42995W        W14524  12.162  23.791   0.066
42996W        W14525   3.442   6.462   0.041
42997W        W14526  22.702  14.161  11.055
42998W        W14527  36.642  31.910   2.738
42999W        W14528   1.319  15.704   4.566
43000W        W14529  33.897  36.605   3.074
43001W        W14530  28.641  30.382  12.149
43002W        W14531  11.770   3.988   1.669
43003W        W14532  20.073  26.449  14.263
43004W        W14533  20.985  14.162   1.596
43005W        W14534   3.713  25.181  12.793
43006W        W14535  25.726  32.884   2.776
43007W        W14536  33.095   3.305   0.516
43008W        W14537  19.567  17.792  14.091
43009W        W14538   8.894  27.235   0.830
43010W        W14539  30.129   0.909   4.930
43011W        W14540  33.057   5.798  14.808
43012W        W14541  21.722  18.522  11.169
43013W        W14542  38.859  41.897   1.816
43014W        W14543  38.526  16.279   2.876
43015W        W14544   6.802  29.543  13.322
43016W        W14545  14.631  15.190   2.706
43017W        W14546  42.796  42.408   2.287
43018W        W14547  12.201  31.386   1.244
43019W        W14548  19.567  17.840   2.025
43020W        W14549   5.150   3.378   0.062
43021W        W14550   2.715  28.403   2.669
43022W        W14551  33.390  44.825   0.883
43023W        W14552   1.755  40.390   3.759
43024W        W14553  18.148  34.838   3.362
43025W        W14554  10.781  14.735   3.097
43026W        W14555  34.485  14.393  13.445
43027W        W14556  15.413   3.952  13.296
43028W        W14557   6.900  15.679   2.816
43029W        W14558  12.170  27.185   4.577
43030W        W14559  41.704  32.144  10.684
43031W        W14560   4.680   8.739   5.083
43032W        W14561  37.374  11.741   0.673
43033W        W14562  10.093   9.349   1.403
43034W        W14563  36.121  28.151   0.365
43035W        W14564  19.568  44.753   0.047
43036W        W14565  44.751   1.938   3.693
43037W        W14566  10.121   0.456   2.735
43038W        W14567  14.021  10.941   4.138
43039W        W14568  31.598  38.875  11.672
43040W        W14569  44.210  26.029   4.629
43041W        W14570  28.900  30.238  13.524
43042W        W14571  16.942   3.283   0.489
43043W        W14572  26.744  10.769   4.586
43044W        W14573  41.459  15.732   2.646
43045W        W14574  34.369   4.877   3.735
43046W        W14575  41.057  28.029   3.664
43047W        W14576  11.692  13.197   3.389
43048W        W14577  16.188  30.356  10.781
43049W        W14578  14.561  42.455   0.045
43050W        W14579   3.032  12.005  13.474
43051W        W14580   8.088  13.480   2.195
43052W        W14581  10.569   8.684   1.802
43053W        W14582  21.528  19.276   1.688
43054W        W14583  28.584  29.741  12.961
43055W        W14584  33.640  25.031  11.002
43056W        W14585  16.558  40.858   2.834
43057W        W14586  27.170  32.567  12.834
43058W        W14587  15.179  10.880   1.911
43059W        W14588  13.656  21.760   0.919
43060W        W14589  40.785  38.286  11.467
43061W        W14590  37.796  26.702  11.503
43062W        W14591  11.717  10.687  11.824
43063W        W14592  19.198  16.449  12.753
43064W        W14593  26.576  43.065  14.961
43065W        W14594  20.496  11.134  11.182
43066W        W14595   0.425  22.259  13.009
43067W        W14596   7.620  40.264  14.891
43068W        W14597  14.235   3.394   2.883
43069W        W14598   3.307  37.432   4.906
43070W        W14599  33.044  15.372   4.112
43071W        W14600  18.107  29.591  11.641
43072W        W14601  28.063  21.531   1.379
43073W        W14602  17.272   0.815  11.841
43074W        W14603  19.000  42.880  13.066
43075W        W14604  31.046  13.199   3.277
43076W        W14605   8.361  19.379   4.713
43077W        W14606   1.103  25.947   1.503
43078W        W14607   5.103   5.185   0.868
43079W        W14608  20.857  36.853  13.456
43080W        W14609  28.554  11.673   3.062
43081W        W14610  14.672  12.831  13.082
43082W        W14611   6.961  35.630   0.842
43083W        W14612   1.770  28.597  10.948
43084W        W14613  41.516  36.782  11.580
43085W        W14614  21.676  15.355  13.084
43086W        W14615   6.884  23.735   2.998
43087W        W14616   7.492  30.032  14.010
43088W        W14617  40.835  22.760  11.489
43089W        W14618  21.753  38.482   2.855
43090W        W14619   8.404  22.069   3.223
43091W        W14620   6.183  33.005   2.256
43092W        W14621  43.006   4.834  11.890
43093W        W14622  27.247  29.012   3.538
43094W        W14623  10.306  18.818  14.101
43095W        W14624  35.504  36.471   0.437
43096W        W14625   4.815  12.224  14.403
43097W        W14626  21.138  15.482   4.223
43098W        W14627  33.089   9.363   1.789
43099W        W14628  18.851  32.573  14.400
43100W        W14629  28.051   8.609  11.128
43101W        W14630  36.584  29.867   3.778
43102W        W14631   9.613  27.925   1.698
43103W        W14632   1.333  21.063   3.035
43104W        W14633   8.774  33.225   1.383
43105W        W14634  34.316  24.226  14.548
43106W        W14635   6.937  36.621   4.618
43107W        W14636   4.305  42.716  11.520
43108W        W14637   5.379   9.221  10.607
43109W        W14638  12.402  13.074   1.352
43110W        W14639   1.347  10.149   3.219
43111W        W14640   1.052  13.733   4.734
43112W        W14641  18.570  36.581  12.788
43113W        W14642  36.560  43.528   1.927
43114W        W14643  30.705  31.672   1.729
43115W        W14644  15.089  23.134  14.814
43116W        W14645  30.963  24.333  11.866
43117W        W14646  38.547  20.430   3.822
43118W        W14647  28.203  10.725  13.496
43119W        W14648   8.485   2.159   1.087
43120W        W14649  18.683   0.773  11.569
43121W        W14650   6.661  41.455   2.374
43122W        W14651   5.254   6.254  14.500
43123W        W14652   6.818  42.488   1.320
43124W        W14653  22.263  18.292   1.957
43125W        W14654  29.610  25.915   4.755
43126W        W14655  27.248  21.643   4.529
43127W        W14656  43.165  10.393  13.380
43128W        W14657  30.159  38.022  12.279
43129W        W14658  37.009  33.616   1.419
43130W        W14659  44.687  24.466   3.132
43131W        W14660  12.288  25.748  13.283
43132W        W14661   6.876  21.715  11.893
43133W        W14662  28.513  29.846   1.195
43134W        W14663  29.051  30.524  12.428
43135W        W14664  43.538  37.459   0.761
43136W        W14665  15.385  10.470   4.455
43137W        W14666  15.168  35.407  13.936
43138W        W14667  37.012  33.905  12.455
43139W        W14668   2.446   4.337   1.527
43140W        W14669  39.107   1.778  10.417
43141W        W14670  21.370   8.014  12.576
43142W        W14671   2.509  37.874  13.135
43143W        W14672   1.436  27.034  14.559
43144W        W14673  40.512  22.479  11.144
43145W        W14674  17.349  29.663  13.625
43146W        W14675   7.873  10.595  11.771
43147W        W14676  17.732   3.624   3.061
43148W        W14677  21.788  22.766  10.451
43149W        W14678  34.227  42.979  14.734
43150W        W14679   6.283  42.452  10.153
43151W        W14680  40.320  41.500  13.954
43152W        W14681  42.394  22.981  12.676
43153W        W14682   7.475  33.181  13.897
43154W        W14683  44.858   7.459  14.504
43155W        W14684  41.954  36.005  10.010
43156W        W14685   9.770  26.685  12.404
43157W        W14686  35.879  11.629   4.923
43158W        W14687  16.368  20.433   1.729
43159W        W14688   1.946  19.054   3.686
43160W        W14689  27.666  32.413  13.583
43161W        W14690   2.396  43.405  12.975
43162W        W14691  18.240  37.078   0.984
43163W        W14692  30.079  24.256   0.455
43164W        W14693  26.555  43.934  10.767
43165W        W14694   8.635   3.364  13.111
43166W        W14695  24.309  14.648   3.683
43167W        W14696  41.535   7.211  12.084
43168W        W14697  24.902   5.627   3.809
43169W        W14698   8.641  17.012  11.550
43170W        W14699  40.788  36.153   1.367
43171W        W14700  19.775  40.180   3.498
43172W        W14701  32.245  36.951  13.242
43173W        W14702  14.932  38.898  12.927
43174W        W14703  33.805  44.303   5.019
43175W        W14704   4.116  37.460   3.263
43176W        W14705  32.754  18.694  12.001
43177W        W14706  21.197  40.985  12.217
43178W        W14707  37.734  12.650   4.952
43179W        W14708  17.024  29.141   1.984
43180W        W14709   6.277  17.653   3.137
43181W        W14710   3.260  42.457   3.352
43182W        W14711  17.382  29.783  14.490
43183W        W14712  15.063  43.813  13.566
43184W        W14713  43.739   0.511  13.981
43185W        W14714   1.670  15.825  14.012
43186W        W14715  35.166  12.777  13.621
43187W        W14716  35.899  27.043  13.846
43188W        W14717  41.736   1.241  12.425
43189W        W14718  16.857   0.796   3.268
43190W        W14719  42.339   1.845   1.966
43191W        W14720  28.118  43.041  10.928
43192W        W14721  41.523  31.376  13.985
43193W        W14722  31.172  14.168   1.313
43194W        W14723  15.664   7.227  14.052
43195W        W14724  36.494  38.573  12.641
43196W        W14725  23.024   5.651   2.267
43197W        W14726   0.025   6.137  11.313
43198W        W14727   8.899  18.535   4.555
43199W        W14728   2.853  14.398  10.974
43200W        W14729  43.585   1.853  12.607
43201W        W14730  41.459   0.359  12.533
43202W        W14731  24.242  26.935   2.362
43203W        W14732  22.736  44.342  10.603
43204W        W14733  17.128  34.815   3.557
43205W        W14734  15.379   8.011   0.485
43206W        W14735  16.653  32.089   3.980
43207W        W14736  23.149  17.746  10.555
43208W        W14737  40.878   4.979   4.617
43209W        W14738  15.382  33.598  14.394
43210W        W14739  20.667  29.775   4.138
43211W        W14740  18.542   5.567  14.353
43212W        W14741  41.373  31.676  11.907
43213W        W14742  16.660   4.207  11.521
43214W        W14743  40.621  44.293   4.073
43215W        W14744  40.060  44.039   0.397
43216W        W14745  33.641  13.552  14.111
43217W        W14746  12.099   2.541  11.672
43218W        W14747  44.705   8.218   1.166
43219W        W14748  31.845  20.496   4.295
43220W        W14749   4.783  28.287   2.086
43221W        W14750  12.997  17.060   0.819
43222W        W14751  26.142  21.598   0.405
43223W        W14752   5.615  44.783  10.731
43224W        W14753  44.806  34.606   9.613
43225W        W14754  31.974  13.686   3.219
43226W        W14755  11.825   3.663  11.900
43227W        W14756  44.999  32.888   2.182
43228W        W14757  26.712  33.935   0.487
43229W        W14758  13.307  12.825  12.108
43230W        W14759  27.513  24.995   4.298
43231W        W14760  10.703  13.681  13.502
43232W        W14761   4.825  13.278  13.327
43233W        W14762   5.745  43.842   4.168
43234W        W14763   6.213  26.606  12.602
43235W        W14764  31.644  34.620   2.797
43236W        W14765  40.462   8.410   3.597
43237W        W14766  28.751  18.896   2.730
43238W        W14767  38.125   2.845   1.892
43239W        W14768  19.439   9.860  11.479
43240W        W14769  16.845  13.640   2.657
43241W        W14770   6.399  32.652   3.124
43242W        W14771  10.587   9.298  11.124
43243W        W14772   9.906  24.000   0.793
43244W        W14773  42.291  20.847  11.480
43245W        W14774  44.547  43.981  14.012
43246W        W14775  32.047  42.892  10.857
43247W        W14776  23.022  32.402  14.384
43248W        W14777  31.859  20.107   1.278
43249W        W14778   6.746  24.806  11.805
43250W        W14779   4.115  10.436   4.087
43251W        W14780  43.051  25.089   1.955
43252W        W14781  43.403   0.733  14.280
43253W        W14782  28.551   5.146  11.614
43254W        W14783   7.114  21.968  10.943
43255W        W14784  18.944  33.406   0.041
43256W        W14785  25.161  24.504   1.708
43257W        W14786   1.147  40.406  14.150
43258W        W14787  26.281  26.674  11.698
43259W        W14788  22.188  23.002  12.162
43260W        W14789  25.220  17.321   4.703
43261W        W14790  37.802  22.574  11.339
43262W        W14791  24.033  39.241   2.186
43263W        W14792  12.762   7.774   3.687
43264W        W14793  10.749  31.534   4.938
43265W        W14794  17.769  34.704  11.066
43266W        W14795  42.661  12.561  13.939
43267W        W14796  12.647  15.657  12.770
43268W        W14797   0.897  38.693  13.595
43269W        W14798   7.378  19.725   3.777
43270W        W14799  18.066  36.344   3.404
43271W        W14800  38.013  43.492  11.501
43272W        W14801   7.345  29.167  11.122
43273W        W14802  20.587  43.106  13.964
43274W        W14803  34.920   2.689   0.308
43275W        W14804  30.522  16.676   4.735
43276W        W14805  10.444   6.417   3.742
43277W        W14806  24.018  42.480   0.538
43278W        W14807   1.559  44.399  14.474
43279W        W14808   5.745  21.978  10.491
43280W        W14809   3.046  43.996   1.756
43281W        W14810  41.218  21.320  13.929
43282W        W14811   1.999   0.478   3.121
43283W        W14812  35.469  30.960  13.235
43284W        W14813  31.186  26.501   2.930
43285W        W14814  28.905   9.358  13.526
43286W        W14815   3.999   8.707   1.311
43287W        W14816  16.821  24.588  12.029
43288W        W14817  14.849  30.000  14.360
43289W        W14818  10.813  32.817  12.368
43290W        W14819  23.149  39.307   2.665
43291W        W14820   5.771  44.029   3.660
43292W        W14821  20.242  26.973  10.356
43293W        W14822  33.907  20.272   3.888
43294W        W14823  31.733  27.952   4.316
43295W        W14824  23.730  17.562  12.380
43296W        W14825   0.834  42.248  13.931
43297W        W14826  23.421   7.802   3.279
43298W        W14827   7.171   1.433  11.213
43299W        W14828  22.746   2.742   4.335
43300W        W14829   0.264  17.931  11.529
43301W        W14830  28.495  18.595   0.322
43302W        W14831  13.320   6.124   3.668
43303W        W14832  15.228  22.131  14.739
43304W        W14833   6.923  40.658  12.478
43305W        W14834  28.612  31.845   9.856
43306W        W14835  25.188  28.167  11.702
43307W        W14836   5.531  33.327  11.753
43308W        W14837  25.678  30.614  14.909
43309W        W14838  18.031  34.975   4.724
43310W        W14839   5.308  18.777   1.550
43311W        W14840  23.106   6.165  10.728
43312W        W14841  34.011  19.133   1.515
43313W        W14842  12.760   2.191  11.207
43314W        W14843  22.232  27.464  12.545
43315W        W14844   1.918   4.930   1.003
43316W        W14845  34.048   4.194   4.227
43317W        W14846  36.642  23.604  12.709
43318W        W14847  35.476  41.577   4.103
43319W        W14848  38.251  40.891  13.539
43320W        W14849  44.418  20.212   3.211
43321W        W14850  29.054  42.777  14.948
43322W        W14851   7.477   4.318   2.157
43323W        W14852   2.370  18.071  10.668
43324W        W14853  27.263  25.028   1.179
43325W        W14854  20.953  23.677  13.906
43326W        W14855  39.056   2.397  13.509
43327W        W14856  36.585  10.627  13.026
43328W        W14857  42.413  17.602   1.147
43329W        W14858  31.488  38.674   0.701
43330W        W14859  41.451  26.587  14.053
43331W        W14860  37.986  31.362  11.368
43332W        W14861   5.318  29.079   1.708
43333W        W14862  39.322  36.493   2.796
43334W        W14863   1.582  27.509  11.325
43335W        W14864  44.372  33.649   3.777
43336W        W14865  40.082  25.207  13.010
43337W        W14866  34.179  17.908  13.293
43338W        W14867  20.674  26.676   0.371
43339W        W14868  18.293  24.977   1.405
43340W        W14869  43.920  12.378  11.449
43341W        W14870   6.179  33.788  14.475
43342W        W14871  40.668  10.291   3.134
43343W        W14872  21.322  40.867   1.623
43344W        W14873   6.642  17.111  12.844
43345W        W14874  41.858  29.527   2.824
43346W        W14875  25.466  40.317   1.871
43347W        W14876   2.422  39.940   0.954
43348W        W14877  41.985  43.012   0.950
43349W        W14878   5.626  17.022   1.844
43350W        W14879  25.033   0.806   2.285
43351W        W14880  27.469  15.529   0.380
43352W        W14881  26.796  12.687  14.501
43353W        W14882  19.103  28.657   0.774
43354W        W14883  13.170   8.514  12.145
43355W        W14884  16.315  25.575  14.812
43356W        W14885  14.227   3.472   0.232
43357W        W14886  29.998  34.005   0.211
43358W        W14887  27.384   6.736   3.148
43359W        W14888   8.927  14.578   2.025
43360W        W14889  35.913   7.148  14.051
43361W        W14890   5.815   3.414  10.473
43362W        W14891  21.340  29.106   3.827
43363W        W14892  28.678  23.880   0.447
43364W        W14893  18.373  25.147   0.218
43365W        W14894   3.267  11.728  11.029
43366W        W14895  18.280  10.424  12.590
43367W        W14896  36.825  11.863  11.233
43368W        W14897  13.628  37.553   2.012
43369W        W14898  13.750  32.044   0.404
43370W        W14899  10.204  27.128   0.539
43371W        W14900  36.043   7.430   2.688
43372W        W14901  12.282  33.950  11.698
43373W        W14902  35.970  32.981   1.468
43374W        W14903  25.973  37.167   2.239
43375W        W14904  30.133   9.353   0.730
43376W        W14905   1.482   3.760  13.428
43377W        W14906  30.686   0.037   3.636
43378W        W14907  41.834  44.039  11.086
43379W        W14908  20.788  33.918   1.506
43380W        W14909  15.210  29.422   4.659
43381W        W14910   4.300  32.734  12.093
43382W        W14911   3.241  41.457   3.138
43383W        W14912  23.001  14.060  14.596
43384W        W14913  16.872  21.341  12.452
43385W        W14914  42.688   5.469  12.153
43386W        W14915  42.802  39.942  12.097
43387W        W14916  36.553  10.872  14.825
43388W        W14917   3.199  38.877   3.875
43389W        W14918  30.494  17.118   1.807
43390W        W14919  44.550  26.341  10.233
43391W        W14920  28.517  12.628  10.589
43392W        W14921  27.234  31.345  12.990
43393W        W14922   7.360   7.626   3.069
43394W        W14923  13.573  29.663   0.495
43395W        W14924  17.227  13.673  11.077
43396W        W14925   4.814  32.392   4.691
43397W        W14926  42.521  29.846   4.165
43398W        W14927  10.323   1.847   4.678
43399W        W14928   1.823   6.285   1.328
43400W        W14929   6.887  19.786  11.180
43401W        W14930  14.084   6.325   4.076
43402W        W14931  43.349   3.482  13.608
43403W        W14932  34.432  17.261   0.843
43404W        W14933  11.125  36.097   1.034
43405W        W14934  30.756  39.493  11.975
43406W        W14935  43.475  38.268   2.781
43407W        W14936  37.464  32.819  14.967
43408W        W14937  37.750  33.924  12.049
43409W        W14938  28.456  38.778  11.154
43410W        W14939  34.072   6.577  10.521
43411W        W14940  26.485  25.112   0.922
43412W        W14941  11.929  19.389   1.127
43413W        W14942   0.064  22.578   4.948
43414W        W14943  33.922  17.270  14.020
43415W        W14944  33.631  43.512   1.521
43416W        W14945   2.688  38.478  11.113
43417W        W14946   1.150  32.617   3.307
43418W        W14947  14.720  29.685  14.755
43419W        W14948  35.036  43.484   0.871
43420W        W14949   6.895  35.118   4.584
43421W        W14950   1.264  13.307   0.863
43422W        W14951  24.452   2.416  14.893
43423W        W14952  25.699  31.846  14.497
43424W        W14953  18.862  27.189  13.975
43425W        W14954  33.831   9.350   4.276
43426W        W14955   1.339   6.449  14.528
43427W        W14956  43.277  20.764   2.929
43428W        W14957   1.085  40.913  13.376
43429W        W14958  35.176  28.404   4.592
43430W        W14959  13.639  26.055   4.644
43431W        W14960  42.476   0.373  12.483
43432W        W14961  26.972   4.816  13.536
43433W        W14962  22.709  33.609  13.255
43434W        W14963   3.729  35.967   2.783
43435W        W14964   4.168  32.734   3.284
43436W        W14965  39.571  11.253   2.768
43437W        W14966   2.679  13.757  11.235
43438W        W14967  23.983  40.474  12.937
43439W        W14968  31.016  42.987   4.163
43440W        W14969  33.517  33.630  11.014
43441W        W14970  28.760  38.813   3.799
43442W        W14971  17.135  24.666   3.676
43443W        W14972  39.523  29.700   2.138
43444W        W14973  32.900   4.758  11.082
43445W        W14974  21.135   5.156  10.576
43446W        W14975  19.332  36.873   3.231
43447W        W14976  17.818  33.406  13.939
43448W        W14977  40.430  15.400  10.215
43449W        W14978  36.859   1.345  13.398
43450W        W14979  41.982  41.992   1.157
43451W        W14980  14.562  40.239   3.017
43452W        W14981  40.270  44.385  11.604
43453W        W14982  18.734   0.419  12.750
43454W        W14983   7.395  17.640  11.210
43455W        W14984  10.711   8.684  10.514
43456W        W14985  39.499   2.240   0.201
43457W        W14986  40.531  25.991  12.649
43458W        W14987   9.240   7.677  12.971
43459W        W14988  10.386  38.486   0.824
43460W        W14989  12.218  42.523  13.373
43461W        W14990   3.900   4.854  12.866
43462W        W14991  17.775  43.902  14.643
43463W        W14992  13.385   9.154   2.966
43464W        W14993  35.630  31.051   1.971
43465W        W14994  38.793  44.196   2.769
43466W        W14995  29.384   5.905  12.091
43467W        W14996  44.563   9.619  14.344
43468W        W14997  22.686  35.032   2.201
43469W        W14998  44.065  25.273   4.073
43470W        W14999  13.911  11.281   2.442
43471W        W15000  39.885  23.127   2.725
43472W        W15001  20.059  30.041  12.882
43473W        W15002  41.081   7.455   1.370
43474W        W15003   6.402  10.619  14.884
43475W        W15004  15.100  19.870   0.448
43476W        W15005  32.385   1.899   3.329
43477W        W15006  30.198  33.274   3.605
43478W        W15007   5.259  24.169  12.954
43479W        W15008  25.554  26.912  12.037
43480W        W15009  23.767   6.595   3.777
43481W        W15010   0.838  37.128  13.436
43482W        W15011   5.399  25.200  11.154
43483W        W15012   7.768  15.652   0.475
43484W        W15013  39.415  25.070   0.769
43485W        W15014  11.252  36.220   3.392
43486W        W15015  40.297   2.065   2.354
43487W        W15016  41.024  12.829  10.934
43488W        W15017  34.044   1.372  13.764
43489W        W15018  29.932   1.862  10.884
43490W        W15019  43.252  18.508   3.683
43491W        W15020  26.147  34.933   4.096
43492W        W15021  31.055  23.022   2.412
43493W        W15022  38.977   6.447  14.870
43494W        W15023  44.698   3.529  13.535
43495W        W15024   3.869  35.266  14.235
43496W        W15025  19.319  29.265   0.783
43497W        W15026  18.113  15.108  12.373
43498W        W15027  39.957  17.588   4.663
43499W        W15028   7.849   0.908   4.959
43500W        W15029  23.056  38.319   2.379
43501W        W15030  13.698  11.103   0.318
43502W        W15031  10.730  39.832  13.154
43503W        W15032  15.926   9.738   2.394
43504W        W15033  30.063  32.214  13.813
43505W        W15034  21.002  26.573   4.148
43506W        W15035  29.087  26.781   1.674
43507W        W15036   9.656  32.307  12.155
43508W        W15037   1.055  28.973   4.344
43509W        W15038  13.228  19.646   2.604
43510W        W15039  12.838  34.570  10.654
43511W        W15040  30.354   3.929  12.972
43512W        W15041   4.180   9.618   2.698
43513W        W15042  34.521  12.104   0.969
43514W        W15043   2.324  36.930  14.280
43515W        W15044  22.598   2.405  12.624
43516W        W15045  16.848  44.969   1.796
43517W        W15046  36.024  27.948  11.585
43518W        W15047  23.777   4.646  12.914
43519W        W15048  36.864  18.799   1.503
43520W        W15049  13.668  44.730  10.279
43521W        W15050   1.252   4.792  10.704
43522W        W15051  15.344   8.711   1.251
43523W        W15052  17.189   3.407  14.716
43524W        W15053  40.779  21.729   1.226
43525W        W15054  12.610  36.549  13.075
43526W        W15055  28.702  11.518  13.078
43527W        W15056  27.210  16.289  12.092
43528W        W15057   4.489  15.129   2.860
43529W        W15058   7.000  30.129   2.867
43530W        W15059  41.220  36.864  14.298
43531W        W15060   9.813  23.585  10.693
43532W        W15061   1.719  36.255   4.603
43533W        W15062  13.645  33.432   0.764
43534W        W15063  42.893  18.202   1.911
43535W        W15064  10.327   5.014  14.333
43536W        W15065  41.627   5.748  10.400
43537W        W15066   5.338  24.721   2.987
43538W        W15067  28.856   9.816  13.788
43539W        W15068  39.826  17.729   1.458
43540W        W15069  35.075  40.921   1.270
43541W        W15070   3.036  12.830   0.755
43542W        W15071  23.011   2.795  12.894
43543W        W15072  17.164   9.173  11.858
43544W        W15073   4.160   7.801  13.747
43545W        W15074  38.112  18.164  13.893
43546W        W15075  31.980   7.611   2.374
43547W        W15076   2.977   7.839   3.770
43548W        W15077  27.919  11.320   2.636
43549W        W15078  19.707  39.939   3.942
43550W        W15079  36.372  11.617   4.741
43551W        W15080  37.442   9.835   0.603
43552W        W15081   0.906   6.177   2.678
43553W        W15082  27.966  37.865   1.339
43554W        W15083   9.370  23.885  11.400
43555W        W15084  16.347  36.870  12.368
43556W        W15085   6.680  33.469  13.047
43557W        W15086  36.007  36.154  14.865
43558W        W15087   5.777  17.036   4.459
43559W        W15088   3.904  41.065   1.778
43560W        W15089  11.724  25.683   4.143
43561W        W15090  11.777  10.904   1.811
43562W        W15091   6.795  13.806  10.989
43563W        W15092  36.548  29.685   4.487
43564W        W15093  24.987   1.814   2.312
43565W        W15094   1.563  13.621  10.684
43566W        W15095  38.816  29.083  10.223
43567W        W15096   6.821  28.168   3.270
43568W        W15097   0.942   5.375   1.753
43569W        W15098   7.217  34.900  11.994
43570W        W15099  33.532   1.900  13.243
43571W        W15100  21.746   5.207  12.839
43572W        W15101  37.468  37.077  12.528
43573W        W15102  29.637  30.163  11.664
43574W        W15103  33.396   6.275  14.586
43575W        W15104   5.876  12.375   3.313
43576W        W15105  10.707   8.223   2.667
43577W        W15106  22.785  16.613   2.849
43578W        W15107  15.305   0.906   1.470
43579W        W15108  41.402  24.583  14.014
43580W        W15109   8.724  23.385   1.397
43581W        W15110   0.359   0.815  12.566
43582W        W15111  33.390  22.238   1.724
43583W        W15112  43.600  42.936   1.261
43584W        W15113   0.937   7.407   0.985
43585W        W15114  25.116  35.143   1.398
43586W        W15115  39.053  13.487  11.249
43587W        W15116   0.526  32.168  11.580
43588W        W15117  31.197   0.919   1.636
43589W        W15118  30.479  14.747   2.318
43590W        W15119  16.148   0.103  13.379
43591W        W15120  24.176  20.494  12.525
43592W        W15121  31.266  13.012   3.718
43593W        W15122  32.100  23.001   4.641
43594W        W15123   6.332  29.418  14.571
43595W        W15124  43.686  25.088  11.231
43596W        W15125  28.653  16.038  11.181
43597W        W15126   1.338  25.539   1.729
43598W        W15127  43.201  33.923  14.441
43599W        W15128   3.232  10.548   0.047
43600W        W15129  28.076  10.323  13.790
43601W        W15130  34.438  23.247  11.095
43602W        W15131  29.362  16.079  13.862
43603W        W15132  20.107  30.606   1.711
43604W        W15133  29.947  15.060  14.504
43605W        W15134  36.978   0.030  12.917
43606W        W15135  27.620  19.305   3.119
43607W        W15136  26.205  29.225   3.660
43608W        W15137  35.638   8.805   0.250
43609W        W15138  31.029  21.650   2.367
43610W        W15139  34.353  32.729  14.551
43611W        W15140  44.413   8.421   0.773
43612W        W15141  21.327  25.703   4.473
43613W        W15142   4.830  32.993   1.887
43614W        W15143  27.103  15.088  13.405
43615W        W15144  24.632  38.423   3.593
43616W        W15145  24.200  16.527  14.206
43617W        W15146  42.924  44.174  14.927
43618W        W15147  44.446  26.219  13.489
43619W        W15148  37.069  12.269  10.993
43620W        W15149  15.635  39.823  11.157
43621W        W15150   8.678  32.322   3.669
43622W        W15151   3.217  10.783  10.865
43623W        W15152  41.160   0.178   4.088
43624W        W15153  34.977  30.677   1.438
43625W        W15154   5.304  23.341  12.564
43626W        W15155   9.802  14.061   1.874
43627W        W15156   0.329   9.595   3.935
43628W        W15157  18.293  25.152   3.212
43629W        W15158  22.142  33.338   2.663
43630W        W15159   7.525  12.701  12.569
43631W        W15160  28.545  38.254   0.296
43632W        W15161  15.361  37.445  12.454
43633W        W15162   8.431  42.232  14.847
43634W        W15163  42.814   0.946  10.783
43635W        W15164  21.678  33.398   1.980
43636W        W15165  40.999  31.639  12.777
43637W        W15166   3.354   6.030   3.720
43638W        W15167  17.713  10.892   4.550
43639W        W15168  32.364   2.003   2.435
43640W        W15169   8.443  17.509  11.090
43641W        W15170  41.360  22.942  11.566
43642W        W15171  23.761   4.236   2.813
43643W        W15172   3.286   4.237   3.562
43644W        W15173  41.914  38.093  11.819
43645W        W15174  26.657   7.681  12.431
43646W        W15175  39.828  28.183  11.951
43647W        W15176  32.645   8.856   4.880
43648W        W15177  18.130   0.807  14.816
43649W        W15178  13.182   5.116   2.833
43650W        W15179  25.277   0.931   1.740
43651W        W15180   3.835  37.918  13.061
43652W        W15181  19.422  40.181  14.897
43653W        W15182  19.235  39.535  14.274
43654W        W15183  14.753  29.447  11.915
43655W        W15184  15.349  39.941   4.728
43656W        W15185  28.889  35.688  12.970
43657W        W15186  38.545  15.004  12.757
43658W        W15187  26.012  16.379  13.146
43659W        W15188  19.829  42.935   4.685
43660W        W15189   5.410  20.713  12.939
43661W        W15190  20.644  13.096   0.839
43662W        W15191   2.916   6.659   0.684
43663W        W15192  36.651   0.292   1.514
43664W        W15193  18.242  27.072   0.859
43665W        W15194   5.193  14.404   3.297
43666W        W15195  25.692  32.288   4.753
43667W        W15196   2.626  44.901  13.999
43668W        W15197  20.153   4.941  10.185
43669W        W15198   8.906  43.762   1.871
43670W        W15199   1.336  12.862   2.685
43671W        W15200  35.886  27.954   0.878
43672W        W15201  26.184  36.494   4.017
43673W        W15202  40.276  42.485   0.390
43674W        W15203   7.425   4.221  13.354
43675W        W15204   5.734  20.511  13.851
43676W        W15205  31.525  26.517   3.975
43677W        W15206  33.394  39.455  13.093
43678W        W15207  43.192   3.962  11.987
43679W        W15208  31.500   1.779  11.607
43680W        W15209   4.809  31.078  13.370
43681W        W15210  15.731  42.028   2.658
43682W        W15211  39.959   1.032   3.793
43683W        W15212  18.030  39.027   1.887
43684W        W15213  25.095  31.507   4.094
43685W        W15214  21.519  12.648  11.217
43686W        W15215  36.541  13.356  13.486
43687W        W15216  32.599  22.662   3.818
43688W        W15217   2.739   5.297  12.815
43689W        W15218   9.763  44.224   0.956
43690W        W15219  14.578  30.110  12.912
43691W        W15220  21.507  20.524   2.753
43692W        W15221  44.381  39.664  11.668
43693W        W15222  42.302   7.181  13.204
43694W        W15223  38.289   1.337  11.128
43695W        W15224  36.908   7.959   2.819
43696W        W15225  24.525  26.712   0.241
43697W        W15226  35.343  21.198   4.554
43698W        W15227  19.522   1.351   3.407
43699W        W15228  25.455  14.732  12.911
43700W        W15229  30.067   1.814  11.377
43701W        W15230   9.422  38.452  12.175
43702W        W15231   0.319  24.373   4.462
43703W        W15232   0.916  10.436   1.546
43704W        W15233  31.580  16.621  14.344
43705W        W15234   4.210  20.737  12.409
43706W        W15235  35.934  17.509   4.075
43707W        W15236  40.984   4.210   3.498
43708W        W15237  10.583   6.426  14.316
43709W        W15238  39.900  14.230  11.945
43710W        W15239  31.070   1.622   1.293
43711W        W15240  35.874  32.539  11.578
43712W        W15241   6.478  31.920   3.609
43713W        W15242  41.340   6.802   1.689
43714W        W15243  16.130   5.813  13.070
43715W        W15244  34.478  12.878  13.953
43716W        W15245  44.260   3.851  10.240
43717W        W15246  30.898  24.537   2.792
43718W        W15247  27.975  36.385  10.814
43719W        W15248   0.256  18.568  10.649
43720W        W15249   7.348  33.498  10.914
43721W        W15250  24.500   4.911  12.520
43722W        W15251   7.719  18.175  12.907
43723W        W15252  41.774  29.619   3.819
43724W        W15253  19.755  26.076  11.625
43725W        W15254   1.919  20.210   1.792
43726W        W15255  22.387  23.152  13.148
43727W        W15256  29.492   6.621   1.352
43728W        W15257  11.230  31.654   4.085
43729W        W15258  20.322  32.014  13.913
43730W        W15259  10.637  28.078  13.879
43731W        W15260  18.567  16.112  13.068
43732W        W15261   0.835   1.655  13.017
43733W        W15262  20.189  37.797  14.031
43734W        W15263   4.165  22.309   1.752
43735W        W15264  13.233  33.812   2.384
43736W        W15265  39.526   3.675   4.250
43737W        W15266  16.859  13.083   4.837
43738W        W15267   7.097  19.034  12.884
43739W        W15268  44.342  41.438   0.102
43740W        W15269   8.102  20.327  14.791
43741W        W15270  19.760  10.744   3.735
43742W        W15271  36.699  28.236   2.258
43743W        W15272   7.448  13.135   1.016
43744W        W15273  42.851  23.000   4.885
43745W        W15274  26.485  34.071  12.093
43746W        W15275  14.707  31.539  12.765
43747W        W15276  25.926   8.224  12.143
43748W        W15277  26.520  20.442  13.119
43749W        W15278  23.258  43.079   1.499
43750W        W15279   9.823   1.244  12.216
43751W        W15280  34.948   8.291  13.374
43752W        W15281  35.493  36.805   3.637
43753W        W15282  23.978  11.067  12.977
43754W        W15283  22.651  26.425  11.070
43755W        W15284  30.611   2.881   3.766
43756W        W15285  26.131  42.303   3.692
43757W        W15286  40.340   6.980  10.683
43758W        W15287  44.675  32.799  11.233
43759W        W15288   6.724   2.223  13.871
43760W        W15289  37.801  27.888   4.258
43761W        W15290  38.902  26.379  12.426
43762W        W15291  28.960  41.467   4.289
43763W        W15292   1.594  11.882   0.978
43764W        W15293  18.616  15.582  11.149
43765W        W15294  21.285   9.668  12.889
43766W        W15295  31.792  18.844   2.931
43767W        W15296  36.357  14.229  14.763
43768W        W15297  20.173  13.525  13.930
43769W        W15298   9.717   0.219  12.062
43770W        W15299   7.200  29.172   2.497
43771W        W15300  12.687  36.881   3.717
43772W        W15301  43.747  24.662   0.282
43773W        W15302  21.225  16.614  13.431
43774W        W15303  16.353  11.273  13.028
43775W        W15304  36.319  16.424  12.020
43776W        W15305   0.732   7.339   4.893
43777W        W15306  16.456  38.619   3.756
43778W        W15307  39.466  43.876   4.234
43779W        W15308  20.815  43.927   4.095
43780W        W15309  37.065  41.947   2.984
43781W        W15310   5.841  32.770   0.689
43782W        W15311   8.867  27.640  12.517
43783W        W15312   0.891  15.760   3.765
43784W        W15313   3.216  21.825   2.665
43785W        W15314  18.258   3.666   3.138
43786W        W15315  27.610  10.681   1.028
43787W        W15316  31.640  38.332   4.716
43788W        W15317  30.807   7.487  12.830
43789W        W15318  26.564  44.263   4.055
43790W        W15319  34.599  41.765  12.205
43791W        W15320  11.722  11.332  10.116
43792W        W15321  20.360   2.626   0.588
43793W        W15322  19.012  28.543   3.624
43794W        W15323   5.877   5.673   1.748
43795W        W15324  37.335   1.531  11.304
43796W        W15325   8.536  42.816   3.658
43797W        W15326  37.554  25.385  14.038
43798W        W15327  14.469   9.854  11.180
43799W        W15328  35.958   1.574  14.376
43800W        W15329  32.338  13.165  13.512
43801W        W15330  20.943  33.462   1.291
43802W        W15331  35.066  31.410   0.818
43803W        W15332  14.300  11.172   3.759
43804W        W15333   9.080  42.005  11.644
43805W        W15334  11.752   2.554   5.024
43806W        W15335  11.711  39.306   2.902
43807W        W15336  34.702   5.151  13.899
43808W        W15337   3.881  14.547  14.018
43809W        W15338  20.438   5.180   1.627
43810W        W15339   6.728   7.341  12.985
43811W        W15340  24.298   9.504  14.412
43812W        W15341  16.445  11.883  13.385
43813W        W15342  34.056  40.921   1.217
43814W        W15343  26.113  27.857   1.024
43815W        W15344   0.160  34.636  11.073
43816W        W15345  30.051  40.538   4.106
43817W        W15346   8.822  29.594   2.083
43818W        W15347  13.894  21.961   2.238
43819W        W15348  28.973  13.604   2.174
43820W        W15349   6.344  20.429  13.576
43821W        W15350  24.553  29.140  13.499
43822W        W15351  39.361  23.286   0.923
43823W        W15352  15.695  42.275  14.254
43824W        W15353  30.197   7.864  12.596
43825W        W15354  25.980  36.472   4.502
43826W        W15355   5.816  21.739   3.675
43827W        W15356  36.220  43.857  14.827
43828W        W15357  35.368  20.457   4.258
43829W        W15358  40.583  38.858  13.780
43830W        W15359  15.698  41.910   3.502
43831W        W15360  23.211  11.135   1.976
43832W        W15361  25.963  25.103   2.833
43833W        W15362  26.659   7.096   0.606
43834W        W15363  17.358   4.775   0.019
43835W        W15364  26.539   8.105   5.021
43836W        W15365   0.595  30.027  12.904
43837W        W15366  26.499  25.410  12.489
43838W        W15367  27.901  36.541   0.059
43839W        W15368   3.237  40.821  12.544
43840W        W15369  27.925  31.957   2.107
43841W        W15370   7.611  24.233   2.823
43842W        W15371  26.379  33.576   4.540
43843W        W15372  28.704  39.955  12.845
43844W        W15373  42.493  15.160   2.157
43845W        W15374   1.410  31.052   3.580
43846W        W15375   8.142  41.504  13.434
43847W        W15376  18.035  19.149   2.713
43848W        W15377  32.128  28.081   0.458
43849W        W15378  22.516  37.339   1.281
43850W        W15379  25.691  31.650   2.131
43851W        W15380  28.615  40.797  14.520
43852W        W15381  40.440  26.193   4.987
43853W        W15382  21.744  38.010   1.464
43854W        W15383  16.648  32.570   4.161
43855W        W15384   4.044   9.735   1.412
43856W        W15385  39.030  35.419  13.366
43857W        W15386  39.945  25.929   3.667
43858W        W15387  21.307  18.778   1.373
43859W        W15388  16.128  18.593   4.868
43860W        W15389  35.505  10.775   4.145
43861W        W15390  13.039  39.623   0.844
43862W        W15391  16.902  14.395   3.300
43863W        W15392  15.614  33.116  14.457
43864W        W15393  30.848  29.980   1.183
43865W        W15394   9.490  20.075   3.674
43866W        W15395   4.625  11.153  12.425
43867W        W15396  37.332  32.190   3.364
43868W        W15397  21.653   0.503  13.847
43869W        W15398  11.002  38.081   3.810
43870W        W15399  34.595  34.045   3.873
43871W        W15400  22.489  15.827  11.623
43872W        W15401   3.974   5.351  13.482
43873W        W15402  30.284  29.797  11.217
43874W        W15403  38.994  36.024  12.107
43875W        W15404   2.228  40.254  10.700
43876W        W15405   4.301  39.282   3.182
43877W        W15406  28.588  27.218  11.475
43878W        W15407  38.064  32.023   2.211
43879W        W15408  38.468  17.328   1.391
43880W        W15409  11.789  26.673   1.311
43881W        W15410  14.607   8.670  14.012
43882W        W15411  39.688  27.486   1.908
43883W        W15412  28.601  25.512  13.052
43884W        W15413   2.739  11.274   1.902
43885W        W15414  28.056  24.183  11.504
43886W        W15415  30.653  17.744   0.291
43887W        W15416  11.722  36.036   2.717
43888W        W15417  21.068  21.758   2.739
43889W        W15418  19.724  40.617   4.680
43890W        W15419   8.162  44.998   0.824
43891W        W15420   9.732  21.006   3.093
43892W        W15421   1.371  24.962  10.672
43893W        W15422  12.760  44.994   2.620
43894W        W15423  33.913  20.340   1.263
43895W        W15424  28.371   9.683   3.625
43896W        W15425  32.587  16.304  14.950
43897W        W15426  19.853   7.718   2.289
43898W        W15427  22.480  31.266   0.857
43899W        W15428  25.743  39.311  12.573
43900W        W15429  40.536  22.685   2.589
43901W        W15430  21.829  41.355   0.678
43902W        W15431  42.271  24.701   4.164
43903W        W15432  12.613   5.582   4.033
43904W        W15433  21.932  30.815   2.682
43905W        W15434  30.966  41.437   9.827
43906W        W15435  35.062  21.200   2.865
43907W        W15436  35.421  21.997  13.708
43908W        W15437  41.652  16.282   2.354
43909W        W15438  40.150   7.576  13.431
43910W        W15439  23.300   1.310  14.367
43911W        W15440  42.374  42.029  11.951
43912W        W15441  23.153  18.039  12.807
43913W        W15442  23.116  33.650  14.871
43914W        W15443  25.558  36.887   0.755
43915W        W15444  26.946  35.583   3.155
43916W        W15445  37.497  31.190  12.692
43917W        W15446   1.033   4.272   4.536
43918W        W15447  26.443  10.131   2.842
43919W        W15448  30.760  38.976  10.030
43920W        W15449  28.687   2.830   0.956
43921W        W15450  42.762  23.505  11.331
43922W        W15451  34.310  34.603  12.686
43923W        W15452  11.391   4.548  14.970
43924W        W15453  36.932   6.862   4.086
43925W        W15454  38.897   5.283   1.370
43926W        W15455   3.920  36.335  12.860
43927W        W15456   1.905  34.448   0.007
43928W        W15457  40.370  27.020   3.109
43929W        W15458  27.892  14.596   3.812
43930W        W15459  11.578  17.764  13.397
43931W        W15460  30.436  20.567   2.381
43932W        W15461  17.693  41.365  12.613
43933W        W15462  44.868  35.846  13.786
43934W        W15463   8.749  19.627  13.518
43935W        W15464   5.898  41.773   4.811
43936W        W15465  17.572  19.108   4.163
43937W        W15466  16.526  35.895   4.166
43938W        W15467  38.955  36.383  10.756
43939W        W15468  21.689  21.162   3.751
43940W        W15469  11.101  43.870   1.283
43941W        W15470  42.338  34.482   4.803
43942W        W15471   1.151  18.070   1.847
43943W        W15472  10.254  22.085   2.402
43944W        W15473  17.981  11.316  14.954
43945W        W15474  21.665  13.034   3.245
43946W        W15475  41.022   1.379  14.757
43947W        W15476  13.052  35.244  12.264
43948W        W15477  10.052  42.223  13.811
43949W        W15478  23.081  41.912  10.247
43950W        W15479  36.055  32.580  13.561
43951W        W15480  23.462  12.724  13.459
43952W        W15481  43.303  20.967   0.694
43953W        W15482  34.336  11.430   1.764
43954W        W15483  21.112   9.908  10.749
43955W        W15484  34.414  26.590   3.230
43956W        W15485   1.832  43.595  11.170
43957W        W15486  14.534  38.037  13.840
43958W        W15487  27.128   7.489   1.287
43959W        W15488  24.757  12.150   0.738
43960W        W15489  27.018  44.870  11.924
43961W        W15490   8.252   1.031   1.738
43962W        W15491  29.169  11.170   4.260
43963W        W15492  24.235  30.623   4.040
43964W        W15493  31.349   8.434  11.064
43965W        W15494  31.040  40.774  12.938
43966W        W15495   0.944  38.020   4.828
43967W        W15496  36.436  11.186   4.452
43968W        W15497  38.638  39.993   2.267
43969W        W15498  34.391   6.611  13.285
43970W        W15499  19.077  17.005  14.872
43971W        W15500  25.243  23.643  12.031
43972W        W15501  24.751  34.166   1.421
43973W        W15502   6.830  13.081   1.319
43974W        W15503  27.606  23.295  14.878
43975W        W15504  17.080   4.667   1.295
43976W        W15505  36.170  25.148   4.539
43977W        W15506  15.591  32.689  10.294
43978W        W15507  21.231  21.907  14.371
43979W        W15508  32.644   0.509   0.404
43980W        W15509  13.044  20.698   1.184
43981W        W15510  26.185   9.776  13.381
43982W        W15511   3.753   7.281   0.324
43983W        W15512  30.446  34.864   1.309
43984W        W15513  40.328   5.694   3.644
43985W        W15514   3.735  41.358   1.197
43986W        W15515  17.072  13.709   3.111
43987W        W15516  10.089   8.218  13.014
43988W        W15517  15.076   5.890   4.142
43989W        W15518   9.826  10.090   2.667
43990W        W15519  21.107   5.524  14.927
43991W        W15520  37.002  15.066  13.069
43992W        W15521   3.504   6.349  13.560
43993W        W15522  24.906  41.968  12.869
43994W        W15523  10.239  39.786  14.637
43995W        W15524  36.624  34.798  13.483
43996W        W15525  28.217  26.641  13.509
43997W        W15526  29.551   2.481   0.778
43998W        W15527  37.832  15.073  14.261
43999W        W15528  39.846   4.724   0.355
44000W        W15529   7.080  14.869   0.413
44001W        W15530  13.742  36.413  12.227
44002W        W15531   4.806  27.780   2.269
44003W        W15532  36.404  24.421   2.713
44004W        W15533  30.941  34.487  13.089
44005W        W15534   0.845  39.862  12.409
44006W        W15535  41.506   8.298   0.778
44007W        W15536  12.099  10.152  11.057
44008W        W15537  18.756  43.056  10.461
44009W        W15538  37.590  16.759  11.597
44010W        W15539  15.240  24.654  11.985
44011W        W15540  40.901  14.221  15.000
44012W        W15541  29.745  13.310   3.663
44013W        W15542   0.439  39.871   1.442
44014W        W15543  16.251  35.920  13.373
44015W        W15544  32.696  40.103   2.202
44016W        W15545  23.176  36.231   0.510
44017W        W15546  12.125  30.437   0.272
44018W        W15547  44.019  43.341  12.970
44019W        W15548  44.347  30.890  11.634
44020W        W15549  31.778  28.162   3.004
44021W        W15550  25.564  12.903   4.080
44022W        W15551  15.739  34.012   2.137
44023W        W15552   1.999  10.812  12.323
44024W        W15553   5.130  41.469   1.038
44025W        W15554  22.124  23.206   3.776
44026W        W15555  28.141  22.350  11.255
44027W        W15556   9.202  11.173  14.343
44028W        W15557  33.538   7.892   2.722
44029W        W15558  41.930  31.118   1.901
44030W        W15559  37.962   1.009  14.973
44031W        W15560   5.395   4.505   0.377
44032W        W15561  39.906  34.377   4.516
44033W        W15562   5.789  30.188  11.950
44034W        W15563  40.038  27.994  11.487
44035W        W15564  23.676  28.565   4.132
44036W        W15565  20.689  17.106   0.336
44037W        W15566  11.834  32.000   0.632
44038W        W15567  31.044  18.145  14.335
44039W        W15568  29.926  31.674  12.917
44040W        W15569  29.173   7.650   3.943
44041W        W15570  29.519  33.213   2.308
44042W        W15571   5.426  20.011  13.269
44043W        W15572  17.697  33.325   0.739
44044W        W15573  30.159  32.601   3.941
44045W        W15574  29.384  28.717  14.929
44046W        W15575  17.958   7.850   1.304
44047W        W15576   3.809  42.844  12.266
44048W        W15577  33.190  36.176  14.153
44049W        W15578  21.157  19.336   3.156
44050W        W15579  21.627   5.648  11.933
44051W        W15580  24.108  32.606   1.439
44052W        W15581  32.059  44.886  14.473
44053W        W15582  31.889  32.891   3.149
44054W        W15583   4.960  17.098  13.982
44055W        W15584  17.558  38.992  11.058
44056W        W15585   6.745  29.629   4.131
44057W        W15586  37.442  36.373   0.480
44058W        W15587   9.353   5.976  12.380
44059W        W15588   6.629  25.727  13.307
44060W        W15589  24.825  23.776   2.826
44061W        W15590  35.205  20.809  11.144
44062W        W15591  16.348  41.341  11.738
44063W        W15592  37.042   5.324   4.087
44064W        W15593  14.446  39.517  14.756
44065W        W15594   7.613  14.147  11.998
44066W        W15595  32.314  27.155   1.439
44067W        W15596  42.338  40.984  13.193
44068W        W15597  37.718  39.602   3.107
44069W        W15598  21.207  35.508   3.565
44070W        W15599  38.968  36.503   4.426
44071W        W15600  21.207  36.840   4.006
44072W        W15601  44.868  37.505  11.063
44073W        W15602  26.702  15.801   3.802
44074W        W15603   4.470  25.066   4.248
44075W        W15604  40.047  29.708   0.788
44076W        W15605  33.568   8.458   0.297
44077W        W15606  39.318  25.095   3.613
44078W        W15607  12.249  17.889   3.807
44079W        W15608  26.045  44.574  10.652
44080W        W15609  10.721  31.813   1.481
44081W        W15610  24.577   7.087   2.023
44082W        W15611  27.672  27.969   4.281
44083W        W15612  26.443   2.398  11.567
44084W        W15613  38.870   2.690  13.863
44085W        W15614  20.494  17.573  12.889
44086W        W15615  36.558  36.295   1.437
44087W        W15616  25.606   3.132  12.522
44088W        W15617   2.404   5.710   0.951
44089W        W15618  10.372  10.328   2.299
44090W        W15619  17.284  14.160   0.852
44091W        W15620  34.578  42.536  13.296
44092W        W15621   6.329  42.989  10.705
44093W        W15622  17.199   2.251  13.046
44094W        W15623  11.440  30.149  14.818
44095W        W15624  37.070  24.435   4.574
44096W        W15625  37.976  13.917  12.093
44097W        W15626  18.505  31.735  11.127
44098W        W15627  20.543  13.299  10.540
44099W        W15628  37.628  19.781   0.915
44100W        W15629  38.027   7.860  14.022
44101W        W15630  25.130  22.641   0.286
44102W        W15631  28.672  10.616  13.364
44103W        W15632  43.615  19.040  14.688
44104W        W15633  10.719  20.285   2.720
44105W        W15634  12.071   8.392  12.571
44106W        W15635  22.992  42.907  12.061
44107W        W15636  38.581  12.056   4.076
44108W        W15637  43.256   0.205  12.978
44109W        W15638   8.185  12.430  13.445
44110W        W15639  12.411  24.354  11.980
44111W        W15640  33.967  24.288  11.553
44112W        W15641  16.859  31.013   1.799
44113W        W15642  16.031  24.324  12.489
44114W        W15643  21.195  31.155  13.537
44115W        W15644  34.681   6.479   3.785
44116W        W15645  19.035  20.049  10.715
44117W        W15646   8.223  20.185   9.806
44118W        W15647  21.946  24.644  10.587
44119W        W15648   9.128  24.803  10.842
44120W        W15649  25.595  23.141   0.919
44121W        W15650  36.213  24.105   2.251
44122W        W15651  28.873  34.088  11.187
44123W        W15652  21.699   6.428   4.097
44124W        W15653  37.730  43.451  11.071
44125W        W15654  28.977  31.173  13.725
44126W        W15655   1.242   1.879   4.690
44127W        W15656  20.075   4.856  11.109
44128W        W15657  24.689  32.434   4.156
44129W        W15658   4.617  32.392   0.036
44130W        W15659  12.903  29.863   4.283
44131W        W15660  31.902  24.483  11.911
44132W        W15661  32.082  30.087  12.131
44133W        W15662  34.340  10.260  12.988
44134W        W15663  38.389  20.523  12.824
44135W        W15664  13.335  42.996  12.032
44136W        W15665  19.662  13.997   9.810
44137W        W15666  12.802  19.593  13.938
44138W        W15667  19.550  41.569   3.801
44139W        W15668  23.468  38.561  14.561
44140W        W15669  25.747  37.969  11.051
44141W        W15670   7.981  20.672   0.189
44142W        W15671  14.972   5.697   3.673
44143W        W15672  14.641  30.815   0.885
44144W        W15673  29.584  11.397  14.836
44145W        W15674  44.196   7.339  10.997
44146W        W15675  30.474  34.594  11.603
44147W        W15676  18.047  15.134   4.349
44148W        W15677  25.978  15.304   0.875
44149W        W15678  31.050  24.723  13.050
44150W        W15679   2.418  20.046   1.828
44151W        W15680  32.289  26.851   4.986
44152W        W15681  33.434  30.722  11.661
44153W        W15682  10.652  38.977  11.087
44154W        W15683  25.009   6.481   0.217
44155W        W15684  42.900   4.011   4.486
44156W        W15685  15.134  43.572   2.251
44157W        W15686   5.697  26.316   2.076
44158W        W15687   9.466  11.521   3.580
44159W        W15688  27.167  12.360   2.595
44160W        W15689  13.658  10.647   2.788
44161W        W15690  20.219  29.277   2.146
44162W        W15691  14.372  16.314  11.127
44163W        W15692  22.789  42.457   4.878
44164W        W15693  25.415   4.855  11.087
44165W        W15694  35.239  12.162  10.383
44166W        W15695  40.951   8.618  11.187
44167W        W15696  34.301  38.085   2.264
44168W        W15697   7.183   6.655   4.190
44169W        W15698  35.915  41.890  13.971
44170W        W15699  34.084   0.286  14.853
44171W        W15700  42.209  40.516  12.969
44172W        W15701  23.769  18.035   2.408
44173W        W15702   5.165   4.701  10.739
44174W        W15703   9.120  21.777  13.419
44175W        W15704  35.073  37.616  10.102
44176W        W15705  43.587  34.162  14.825
44177W        W15706   0.917  32.368   0.258
44178W        W15707  31.049  41.321   1.759
44179W        W15708  16.859   6.742   0.511
44180W        W15709   3.986   0.762   1.658
44181W        W15710  20.557  39.636   0.368
44182W        W15711  13.064  39.761  13.244
44183W        W15712  28.684  37.860   2.921
44184W        W15713  12.549  31.366  12.143
44185W        W15714  25.610   3.071  10.278
44186W        W15715   0.739  17.251  11.943
44187W        W15716  16.193  23.936   4.168
44188W        W15717  37.767  19.767   3.746
44189W        W15718  24.658  16.719  13.501
44190W        W15719  13.043   5.602  10.851
44191W        W15720  33.882  34.812  12.466
44192W        W15721   8.199   4.960   2.344
44193W        W15722   4.638  39.888  11.842
44194W        W15723  11.881  24.801  10.895
44195W        W15724  30.699  26.500   4.605
44196W        W15725  24.692  15.659  10.713
44197W        W15726  44.178  38.131  12.113
44198W        W15727  33.778   1.461   1.949
44199W        W15728  18.431  42.451   0.713
44200W        W15729  39.400   9.038   0.333
44201W        W15730  35.643  36.260  12.134
44202W        W15731  23.934   7.120  11.599
44203W        W15732  31.676  15.614  14.461
44204W        W15733  24.747  23.610  12.996
44205W        W15734  43.132  24.173   0.792
44206W        W15735  27.447  32.150  13.198
44207W        W15736   5.336  36.315  12.798
44208W        W15737  37.491   8.383   4.636
44209W        W15738  44.534   9.055   1.928
44210W        W15739  12.369  20.757   0.863
44211W        W15740  40.063  19.214  14.418
44212W        W15741   8.078  37.626   2.825
44213W        W15742  40.309  18.056   4.647
44214W        W15743  11.084  36.495   0.301
44215W        W15744  26.835  19.596   2.398
44216W        W15745   2.706   3.038   1.777
44217W        W15746   3.925  22.800   0.820
44218W        W15747  19.054  24.988   1.882
44219W        W15748  43.459   0.487  13.389
44220W        W15749   7.745  34.183  11.668
44221W        W15750  22.297  21.750  12.877
44222W        W15751   9.734  22.202   1.093
44223W        W15752   6.870  20.035  12.612
44224W        W15753  32.273  14.760   0.824
44225W        W15754  12.123  30.209  11.180
44226W        W15755   2.337   2.480   3.403
44227W        W15756  31.861  17.345   3.727
44228W        W15757  37.316  14.403  13.519
44229W        W15758   6.507  39.588   4.773
44230W        W15759  12.289  22.989   0.167
44231W        W15760  28.062  28.990   4.272
44232W        W15761   9.258  28.624   3.977
44233W        W15762  17.171  27.228   4.769
44234W        W15763   3.342  17.792   1.627
44235W        W15764  35.539  39.514   1.584
44236W        W15765  31.131  32.470  11.073
44237W        W15766   6.886   7.818   0.185
44238W        W15767  32.551  33.188   0.423
44239W        W15768  20.741  13.595  12.133
44240W        W15769  30.004  27.055  10.386
44241W        W15770  34.691  32.424  11.474
44242W        W15771   9.673  32.053  12.933
44243W        W15772  15.097  12.624  12.848
44244W        W15773  24.665   6.590  11.949
44245W        W15774  11.958  40.683   2.843
44246W        W15775  10.323   1.555   3.769
44247W        W15776  10.378  24.220   3.093
44248W        W15777  39.293  29.429  13.841
44249W        W15778  17.925  15.405  13.195
44250W        W15779  22.178   1.414   0.987
44251W        W15780  11.958  37.057  11.195
44252W        W15781   6.422  36.498  13.856
44253W        W15782  41.463  43.941   3.654
44254W        W15783  22.781  39.872   0.915
44255W        W15784  10.681  18.285  13.410
44256W        W15785  40.371  20.846   0.807
44257W        W15786  14.430  25.132   4.319
44258W        W15787  17.216  23.594   1.746
44259W        W15788  36.490  42.370   3.535
44260W        W15789  29.206  15.212   3.673
44261W        W15790   4.683  32.159   0.869
44262W        W15791  42.570  20.209   2.155
44263W        W15792  44.809  11.652  10.753
44264W        W15793   2.053  13.184   4.079
44265W        W15794  27.105  36.626   4.082
44266W        W15795  42.145  23.173   4.323
44267W        W15796  38.851  22.073  11.932
44268W        W15797  15.522  33.468  13.121
44269W        W15798  31.893   9.849   0.857
44270W        W15799  35.630  41.832   1.367
44271W        W15800  39.379  19.166  12.958
44272W        W15801  38.952   9.134  11.264
44273W        W15802  11.281  25.936   3.428
44274W        W15803  12.758  11.370   0.254
44275W        W15804   9.277   8.567   4.759
44276W        W15805  20.025   1.449   2.454
44277W        W15806  37.347  20.532   1.912
44278W        W15807  14.166  20.585   4.108
44279W        W15808  26.876  31.098   3.725
44280W        W15809  11.705  16.731   0.831
44281W        W15810  32.000  31.384   2.876
44282W        W15811  11.404  24.163   2.365
44283W        W15812  39.617   0.223  11.601
44284W        W15813  18.319  35.501   4.041
44285W        W15814  10.062   9.163   4.717
44286W        W15815  13.233  33.128  12.625
44287W        W15816   0.964  23.503   0.300
44288W        W15817  15.861  35.481   4.805
44289W        W15818  36.114  16.494   4.091
44290W        W15819  38.578  25.747   2.157
44291W        W15820  13.914  23.929  11.105
44292W        W15821  40.327  10.044  13.127
44293W        W15822  28.109  21.820  11.321
44294W        W15823  16.206  44.869  12.474
44295W        W15824  35.002  12.375   0.802
44296W        W15825   6.214  25.534  14.678
44297W        W15826  28.374  23.027   0.553
44298W        W15827  15.729  20.454  13.424
44299W        W15828  39.876   7.927   2.286
44300W        W15829  38.362  15.587   0.543
44301W        W15830  20.054  42.756   2.691
44302W        W15831  17.297   0.381  11.571
44303W        W15832  14.210  42.049   0.387
44304W        W15833  39.549  33.675  14.982
44305W        W15834  20.107  24.618  10.781
44306W        W15835  26.865  16.787   2.189
44307W        W15836   9.099   5.951   1.621
44308W        W15837  27.425  17.711   1.393
44309W        W15838  14.852  30.515  14.316
44310W        W15839   4.237  43.772   2.916
44311W        W15840  34.785   8.351   4.570
44312W        W15841  15.232  36.700   2.296
44313W        W15842  30.599  33.372   2.273
44314W        W15843  19.816  42.743   3.173
44315W        W15844  32.415   9.355  13.310
44316W        W15845  23.735   0.290  12.625
44317W        W15846   3.076   0.130  14.885
44318W        W15847  34.864  27.187   3.184
44319W        W15848  37.417  14.994  11.142
44320W        W15849  32.483  26.929   1.898
44321W        W15850  30.018  16.361   0.749
44322W        W15851  10.838   2.802  12.002
44323W        W15852  14.298  37.918   2.555
44324W        W15853  28.682  36.126   0.630
44325W        W15854   1.335   9.119  10.690
44326W        W15855  34.070  41.044   3.183
44327W        W15856  37.128   8.870   1.710
44328W        W15857  10.340  39.034  13.400
44329W        W15858   9.634  17.236  11.587
44330W        W15859  28.043   7.335  14.208
44331W        W15860  26.147  32.446  11.978
44332W        W15861  13.749   1.007  13.864
44333W        W15862  15.525  14.503  11.314
44334W        W15863  10.911  43.301  14.042
44335W        W15864  32.197  22.898   0.277
44336W        W15865  44.684   0.951   2.879
44337W        W15866   8.743  30.415   1.366
44338W        W15867  23.633  38.031   1.536
44339W        W15868  38.551   0.335  13.858
44340W        W15869  40.630  40.962  12.683
44341W        W15870  30.536  42.394   3.166
44342W        W15871   2.462  10.741  12.029
44343W        W15872  38.116  43.102  13.995
44344W        W15873  28.672   4.373  13.459
44345W        W15874  37.717  12.519  14.065
44346W        W15875  24.961  38.957  14.200
44347W        W15876  41.548  12.231   0.686
44348W        W15877  35.954   3.853   3.819
44349W        W15878  16.205  33.208  12.982
44350W        W15879  21.090  26.219   1.033
44351W        W15880   8.926  25.739   1.189
44352W        W15881  38.121  22.125  11.553
44353W        W15882  29.426   2.869   2.143
44354W        W15883  15.084   1.036   0.230
44355W        W15884  18.783  44.807  13.595
44356W        W15885  25.658  19.485   2.224
44357W        W15886  37.055  19.013  10.540
44358W        W15887  17.177  30.836   4.123
44359W        W15888  26.209  41.066   0.725
44360W        W15889  39.292  17.332   2.114
44361W        W15890  44.413  42.011   1.489
44362W        W15891  29.422  44.960  12.985
44363W        W15892  43.228  19.596   1.923
44364W        W15893  35.545  38.789  14.349
44365W        W15894  19.748  18.663   1.020
44366W        W15895  15.091  21.725  11.075
44367W        W15896   1.948   2.452   0.619
44368W        W15897  43.841  38.936  10.756
44369W        W15898   7.218   2.153  13.610
44370W        W15899   6.124  28.960  10.433
44371W        W15900  21.470  31.453  13.186
44372W        W15901  28.994  38.434  10.626
44373W        W15902   8.380   0.243   0.393
44374W        W15903  38.407  41.782   1.427
44375W        W15904   9.212  22.912  10.364
44376W        W15905  13.821  28.384  12.055
44377W        W15906  42.310  12.764  12.955
44378W        W15907   8.522  36.943  10.661
44379W        W15908  16.302  12.526   3.178
44380W        W15909  28.159  26.592  14.444
44381W        W15910  38.048  37.938   4.690
44382W        W15911  12.029  19.112   0.671
44383W        W15912  21.081  25.883  13.486
44384W        W15913  35.109   7.933   1.697
44385W        W15914  32.014  23.784  13.319
44386W        W15915  17.184  38.037  13.943
44387W        W15916  43.508  31.574   3.771
44388W        W15917  20.728  26.167   0.315
44389W        W15918  44.358  11.789   2.744
44390W        W15919   5.127  35.912  14.797
44391W        W15920  26.582  21.963   4.085
44392W        W15921  16.361  18.284  14.897
44393W        W15922  20.457  24.493   1.945
44394W        W15923  26.144   3.426  14.738
44395W        W15924  32.301  19.808   2.673
44396W        W15925   4.371  15.826   2.761
44397W        W15926  28.433  44.785  10.669
44398W        W15927   6.502  20.442   5.327
44399W        W15928  32.463  21.678   0.503
44400W        W15929   0.919  27.163  11.123
44401W        W15930   2.083  18.675   0.314
44402W        W15931  23.425  19.601   3.633
44403W        W15932  32.464   4.360   0.578
44404W        W15933  11.460  34.833   1.338
44405W        W15934  33.083  40.231   4.172
44406W        W15935  37.595  32.574  11.046
44407W        W15936   5.303  15.357   4.445
44408W        W15937   5.228  36.381  11.083
44409W        W15938  29.457  17.673  12.895
44410W        W15939  16.739   8.894  11.285
44411W        W15940  15.590  22.498  12.592
44412W        W15941  37.769  39.496   4.030
44413W        W15942   4.402  22.751   2.209
44414W        W15943  21.140   3.026   3.735
44415W        W15944  29.883  22.492   1.368
44416W        W15945  37.108   9.382   2.145
44417W        W15946  24.174  37.466  12.583
44418W        W15947  42.030  10.700  14.561
44419W        W15948  38.145   7.196  11.381
44420W        W15949   0.368  20.480   2.177
44421W        W15950   0.184  38.498   4.690
44422W        W15951   8.211   3.762   2.662
44423W        W15952  41.166   9.204  11.702
44424W        W15953   5.211  21.448   3.059
44425W        W15954  26.019  34.032   3.623
44426W        W15955   0.686  15.174  11.657
44427W        W15956  27.621  14.082   4.994
44428W        W15957   2.082  23.235  11.950
44429W        W15958   0.724  32.481   4.975
44430W        W15959  27.497  43.044  14.351
44431W        W15960  14.853  28.123  14.905
44432W        W15961  21.112   0.480  12.625
44433W        W15962  19.157  40.008  14.098
44434W        W15963  44.929  42.435   3.233
44435W        W15964   8.422  25.695   1.285
44436W        W15965  11.930  42.305  10.774
44437W        W15966  11.467  30.113   0.781
44438W        W15967  42.080  18.764   0.303
44439W        W15968  37.566  43.537   3.182
44440W        W15969  32.463   3.938   3.233
44441W        W15970   0.900  30.056  12.468
44442W        W15971  11.421  43.354   2.620
44443W        W15972  40.981  36.059   2.225
44444W        W15973  39.919   1.850  13.834
44445W        W15974  29.497  15.536   1.808
44446W        W15975  15.116  43.211  14.847
44447W        W15976  11.622  22.682   0.663
44448W        W15977   0.867   1.617   2.815
44449W        W15978  18.083  34.331  14.862
44450W        W15979  39.794  14.787  12.842
44451W        W15980  26.511  37.658  12.063
44452W        W15981   7.112  41.521   2.124
44453W        W15982  40.198  35.995   4.227
44454W        W15983  35.829  22.223   4.117
44455W        W15984   3.195  36.928  11.670
44456W        W15985   5.914  16.560   1.329
44457W        W15986  36.383  40.121   1.833
44458W        W15987  36.233  40.484   2.194
44459W        W15988   9.169  27.768   3.009
44460W        W15989   4.290   8.632   4.269
44461W        W15990  10.834  25.954   4.590
44462W        W15991   5.155  23.710   2.833
44463W        W15992   4.910  35.093   1.410
44464W        W15993  21.859  43.318  11.036
44465W        W15994  38.850  42.672  11.645
44466W        W15995   3.626  36.511  13.946
44467W        W15996  38.462  13.158  12.088
44468W        W15997  31.158  14.028  14.675
44469W        W15998  35.045   2.762   1.787
44470W        W15999  22.609  22.543  14.771
44471W        W16000  10.333   8.169   0.061
44472W        W16001   8.120  19.351   3.805
44473W        W16002   6.228  30.461  12.008
44474W        W16003  16.580  18.014  11.844
44475W        W16004  36.564  22.799  11.935
44476W        W16005  39.661  40.771  10.681
44477W        W16006   5.861  13.149   4.546
44478W        W16007  40.737  35.323   1.364
44479W        W16008  19.301  36.496  11.252
44480W        W16009  38.832  27.697   3.604
44481W        W16010  11.388  15.325  11.600
44482W        W16011  29.181  22.757  13.962
44483W        W16012  42.211  21.025   3.675
44484W        W16013  35.990   5.582  12.432
44485W        W16014  35.190  28.049  13.513
44486W        W16015  37.953  21.082  13.402
44487W        W16016  43.484  20.712   4.771
44488W        W16017  20.354  20.642  13.378
44489W        W16018  44.816  39.176  12.968
44490W        W16019  42.642  31.519  11.969
44491W        W16020  16.577  11.858   2.387
44492W        W16021  29.255   2.244   2.212
44493W        W16022  39.275  43.832  11.958
44494W        W16023   3.748  41.237  12.486
44495W        W16024  14.369   4.250   1.235
44496W        W16025  32.971  22.230  12.160
44497W        W16026  22.764  41.719   2.151
44498W        W16027  13.798  39.569  11.102
44499W        W16028  23.954  10.705   2.303
44500W        W16029  35.070   1.038   4.686
44501W        W16030  14.705   9.586   0.353
44502W        W16031  22.703  23.385  13.538
44503W        W16032  18.307   7.430  14.266
44504W        W16033  43.598   7.594  13.326
44505W        W16034   6.185  19.085  13.171
44506W        W16035  32.877  28.650  11.113
44507W        W16036  26.193   2.315   4.733
44508W        W16037  35.933  19.702  13.149
44509W        W16038  26.598   4.265   2.420
44510W        W16039  38.985  26.320   2.024
44511W        W16040   9.901  18.392  14.916
44512W        W16041  27.887  36.070  12.848
44513W        W16042  19.178  12.658  12.523
44514W        W16043  33.522  28.462   1.612
44515W        W16044   7.216   9.950  14.421
44516W        W16045  20.536   3.465  11.369
44517W        W16046   4.243  24.019   0.349
44518W        W16047  35.498  27.589  11.921
44519W        W16048  42.840   8.698   0.951
44520W        W16049  13.954   4.184  13.422
44521W        W16050  31.922  22.200   4.132
44522W        W16051  26.854  36.603   4.522
44523W        W16052  32.157  22.037   4.566
44524W        W16053   7.976  33.897   4.264
44525W        W16054  19.652  28.053  11.182
44526W        W16055   0.298   0.662   1.656
44527W        W16056   2.862  27.044   0.909
44528W        W16057  31.027  37.866  13.403
44529W        W16058  27.287  13.384  13.884
44530W        W16059   9.320  38.996  11.605
44531W        W16060  41.472  30.855  13.999
44532W        W16061  11.126   5.422  12.851
44533W        W16062  38.587   8.801   2.145
44534W        W16063  19.173   8.240   4.456
44535W        W16064  41.916   7.152   3.676
44536W        W16065   7.718  35.966  10.237
44537W        W16066   2.974  34.876   0.966
44538W        W16067  39.485  14.280  11.580
44539W        W16068  41.958   7.967   4.131
44540W        W16069  30.720  35.851  10.290
44541W        W16070  38.874  34.653   4.562
44542W        W16071  19.752   7.235  11.218
44543W        W16072   2.389  31.667  13.073
44544W        W16073  24.893   3.481   4.593
44545W        W16074  22.377  24.682   4.559
44546W        W16075  10.176  41.759   4.562
44547W        W16076  19.559  21.047   0.794
44548W        W16077  34.135  43.406  11.721
44549W        W16078  18.179   1.742  14.148
44550W        W16079  30.928  19.815   3.099
44551W        W16080   5.102  20.180   1.013
44552W        W16081   6.932  44.960   4.897
44553W        W16082  42.903  29.597   1.456
44554W        W16083  25.583  20.953  13.898
44555W        W16084  29.830  28.118  13.869
44556W        W16085  20.224   0.029  11.663
44557W        W16086   7.255  16.621  12.377
44558W        W16087   5.233  13.160   1.915
44559W        W16088  37.405  37.341   0.179
44560W        W16089  17.757  12.843  11.511
44561W        W16090   7.328  31.440   4.033
44562W        W16091  23.164  28.615  11.906
44563W        W16092  38.970  12.289   4.402
44564W        W16093  21.133   8.677  14.904
44565W        W16094  36.730  35.593   2.730
44566W        W16095   3.575  23.281   0.321
44567W        W16096  44.644  16.769   3.298
44568W        W16097  44.495  39.830  14.830
44569W        W16098  17.170  43.507  14.016
44570W        W16099  26.708  25.706  12.065
44571W        W16100  28.149  12.065   1.697
44572W        W16101  38.491  23.810  12.137
44573W        W16102  40.264  40.412   0.390
44574W        W16103  24.793  19.115  13.809
44575W        W16104   8.824   4.344  11.918
44576W        W16105  28.046  13.660   4.835
44577W        W16106  36.794   6.938  12.564
44578W        W16107  27.045   7.824  13.252
44579W        W16108  17.623  28.571  11.971
44580W        W16109  19.207   4.039   4.192
44581W        W16110   7.416  33.838   2.691
44582W        W16111  20.843   4.713  12.127
44583W        W16112  29.296  40.480   4.603
44584W        W16113   6.824   3.469  11.931
44585W        W16114   6.902  27.056   3.569
44586W        W16115  14.867  20.646   0.953
44587W        W16116  37.313  28.036   4.392
44588W        W16117   0.041   2.451  10.970
44589W        W16118  35.328   3.197   1.680
44590W        W16119  22.139  37.110   4.385
44591W        W16120  42.289  37.038  10.685
44592W        W16121  14.776   6.578   1.929
44593W        W16122  40.763  40.403   0.991
44594W        W16123  23.608  24.238   0.393
44595W        W16124  27.818  39.404   3.224
44596W        W16125  22.964  10.797  14.832
44597W        W16126  13.253  44.873  10.029
44598W        W16127  25.623  28.536   4.496
44599W        W16128  19.805  18.711   3.768
44600W        W16129   3.195  36.110   1.889
44601W        W16130  16.828  26.950  13.033
44602W        W16131  30.426  16.777   2.822
44603W        W16132  21.518  28.499  14.023
44604W        W16133  16.289   1.606  12.365
44605W        W16134   5.680  22.299   0.754
44606W        W16135   4.072  44.221  14.030
44607W        W16136  24.356  21.250   1.337
44608W        W16137  19.960  19.707  12.182
44609W        W16138  30.423   0.332   0.861
44610W        W16139   4.164  25.558  14.216
44611W        W16140  43.931  20.774   3.737
44612W        W16141  25.777   0.856  14.547
44613W        W16142  25.030  41.892  10.991
44614W        W16143  20.282  13.559  11.915
44615W        W16144  21.216  22.532  14.895
44616W        W16145  37.154  29.650   2.656
44617W        W16146  31.188  22.435  11.405
44618W        W16147  43.780  44.781  11.387
44619W        W16148  35.786  13.105   2.680
44620W        W16149  10.039  40.373   3.156
44621W        W16150   7.272  27.256  13.883
44622W        W16151   3.778  21.159   4.106
44623W        W16152  11.744   0.064   0.391
44624W        W16153  18.198   2.673  14.383
44625W        W16154  12.838  29.521   1.331
44626W        W16155  37.494  44.753  12.923
44627W        W16156  10.721  29.684  14.960
44628W        W16157  32.658  24.172   3.703
44629W        W16158  42.845   7.911  12.910
44630W        W16159  33.844  43.974   1.347
44631W        W16160  30.496  21.715  14.540
44632W        W16161  44.497  28.653  12.520
44633W        W16162   3.879  43.400  11.119
44634W        W16163  10.812  22.120   0.022
44635W        W16164  25.484  13.759  13.055
44636W        W16165  17.244  18.661  12.098
44637W        W16166  35.524  42.034   1.896
44638W        W16167  39.983  18.345  14.233
44639W        W16168  40.269  35.032   2.197
44640W        W16169   5.469  11.817  14.833
44641W        W16170  29.628  20.022  10.731
44642W        W16171   9.094  21.628   1.279
44643W        W16172  28.465  30.864   0.992
44644W        W16173   9.350  39.822   3.830
44645W        W16174  41.823   5.504  12.569
44646W        W16175  18.995  29.427  12.554
44647W        W16176  27.526  29.306   3.882
44648W        W16177   7.028  10.728  14.017
44649W        W16178  20.637   8.978  11.331
44650W        W16179  21.763  38.528  13.682
44651W        W16180  23.112  16.564  13.508
44652W        W16181  21.993  29.446  12.440
44653W        W16182  12.141  33.402   4.462
44654W        W16183  17.496  25.168   2.793
44655W        W16184  37.466   6.017   5.131
44656W        W16185   3.221  16.989  13.453
44657W        W16186  26.679  23.108   2.416
44658W        W16187   6.352  21.029  12.352
44659W        W16188   1.263  18.529   3.832
44660W        W16189   3.200  28.805   0.884
44661W        W16190   8.576   2.048   0.579
44662W        W16191   4.269  37.846  12.774
44663W        W16192   6.073  36.390   0.735
44664W        W16193  18.047  12.720  13.384
44665W        W16194  39.694  44.964   2.164
44666W        W16195  11.117  36.446   1.415
44667W        W16196   4.018  34.014  13.640
44668W        W16197  40.786  26.495  14.839
44669W        W16198  16.113   3.998  12.880
44670W        W16199  23.736  18.660  13.545
44671W        W16200  23.894   5.952   4.949
44672W        W16201  18.159  14.234   2.836
44673W        W16202  31.373   5.263   4.097
44674W        W16203   5.852   9.145  12.986
44675W        W16204  28.019  13.212   1.417
44676W        W16205  38.434   4.258   4.367
44677W        W16206  32.190   4.356   1.333
44678W        W16207  20.150  13.184   1.045
44679W        W16208   3.889  34.267   2.356
44680W        W16209   6.398  25.047  12.538
44681W        W16210   2.718  12.611  12.486
44682W        W16211  13.235  12.807   4.629
44683W        W16212  20.621  17.947  14.142
44684W        W16213  37.145  39.438  13.548
44685W        W16214  13.989  24.012   0.879
44686W        W16215  38.581   2.735   2.311
44687W        W16216  43.982   4.689  13.148
44688W        W16217   3.103   7.656   2.543
44689W        W16218  35.811  26.978  12.966
44690W        W16219  21.153   6.350   5.047
44691W        W16220   6.882  19.992   4.485
44692W        W16221  29.403  28.636  12.523
44693W        W16222  16.692  44.782   2.363
44694W        W16223   7.591  37.753  14.423
44695W        W16224   3.123  36.426  11.923
44696W        W16225  27.224  39.937  14.065
44697W        W16226   0.711  30.664  10.628
44698W        W16227  41.098  10.726  14.910
44699W        W16228  13.459  30.657   4.844
44700W        W16229   3.784  34.653  14.802
44701W        W16230  14.288  39.834   0.550
44702W        W16231  12.060   5.867  12.063
44703W        W16232  15.134  23.207  14.211
44704W        W16233  31.571  30.675  11.244
44705W        W16234   5.734  31.023   4.277
44706W        W16235  26.024  23.544   4.128
44707W        W16236  10.337  25.006  12.454
44708W        W16237  42.732  40.025  13.926
44709W        W16238   1.208  24.017  11.560
44710W        W16239  17.591  17.137   2.747
44711W        W16240  21.183   6.571   1.247
44712W        W16241  25.796  21.390   3.414
44713W        W16242  33.020  19.184  12.530
44714W        W16243  32.464  26.803  14.726
44715W        W16244   7.765  35.600  10.603
44716W        W16245  36.923   8.245   1.541
44717W        W16246   8.798  10.883   2.220
44718W        W16247  26.137  20.562   0.343
44719W        W16248   2.290   5.825  11.545
44720W        W16249  17.874  14.906  13.046
44721W        W16250  44.902  29.500   1.314
44722W        W16251   2.136   1.242  13.417
44723W        W16252  22.693  33.174  11.979
44724W        W16253  23.697  30.010   3.315
44725W        W16254   3.268  36.900   2.390
44726W        W16255   0.271  41.885  10.479
44727W        W16256  37.010  13.616  10.709
44728W        W16257  37.812  31.622   0.016
44729W        W16258   2.551  18.695   1.957
44730W        W16259  10.109  22.535   4.609
44731W        W16260  25.360   3.931  10.411
44732W        W16261   5.775  23.562  14.037
44733W        W16262   4.400  37.374  11.480
44734W        W16263   0.303  15.572   2.215
44735W        W16264  18.273  23.502  12.100
44736W        W16265  38.352  42.435   4.241
44737W        W16266  26.482  24.534   0.299
44738W        W16267   8.155  40.560  12.590
44739W        W16268  25.678  27.653   0.542
44740W        W16269   6.195  11.256   4.875
44741W        W16270  44.592  19.693  11.716
44742W        W16271  33.692  39.366   4.344
44743W        W16272  37.777  39.949   4.294
44744W        W16273  12.318  26.699  11.920
44745W        W16274   4.802  11.662   0.288
44746W        W16275  32.042   5.675  12.807
44747W        W16276  35.582  13.692  13.453
44748W        W16277  24.673   5.300   0.740
44749W        W16278  40.412  11.321   2.473
44750W        W16279  13.090  22.695  13.141
44751W        W16280  41.938  28.119   3.103
44752W        W16281  18.613  38.744  11.678
44753W        W16282  25.455  37.150  10.219
44754W        W16283  20.197  23.494   3.329
44755W        W16284  29.064  20.540  12.032
44756W        W16285   1.894  32.791   3.835
44757W        W16286  37.389  24.234  12.497
44758W        W16287  25.496  29.368   2.365
44759W        W16288  26.792  27.443   9.940
44760W        W16289  20.035  24.347  12.037
44761W        W16290  41.026  28.215  14.547
44762W        W16291   5.234   7.398   3.289
44763W        W16292  25.565   0.838   4.629
44764W        W16293  36.096   3.989   0.060
44765W        W16294   7.605  36.401  12.802
44766W        W16295  42.452  39.335  12.578
44767W        W16296  30.615  13.578   0.717
44768W        W16297  20.043  43.460  11.821
44769W        W16298  13.679  28.312  13.831
44770W        W16299  30.370  35.142   3.282
44771W        W16300  18.564  25.210   1.853
44772W        W16301  33.010  22.939  11.510
44773W        W16302  42.009  14.407   3.253
44774W        W16303   1.891  24.416  12.566
44775W        W16304  28.265  14.274  12.522
44776W        W16305  33.453  44.957   0.371
44777W        W16306  38.038   9.919   3.528
44778W        W16307   6.868  30.866  11.525
44779W        W16308  42.875   8.184  14.273
44780W        W16309  34.831   5.216  12.928
44781W        W16310  17.002  43.893   4.362
44782W        W16311   7.573  28.755   1.254
44783W        W16312  42.744  30.566  13.851
44784W        W16313  11.434  44.780  11.608
44785W        W16314  37.458   5.350   0.663
44786W        W16315  23.277  23.030  14.000
44787W        W16316  16.188  14.315   2.766
44788W        W16317  18.504  25.097   4.718
44789W        W16318  18.614  35.416  11.973
44790W        W16319   9.746  31.499   1.750
44791W        W16320  37.199  10.252   3.277
44792W        W16321  36.755  31.514  10.971
44793W        W16322  37.452  28.740   2.673
44794W        W16323  28.722  16.453   4.098
44795W        W16324  22.589  26.559   0.399
44796W        W16325  27.114  18.628  13.485
44797W        W16326  21.134  21.675   1.810
44798W        W16327  27.718  43.977  14.735
44799W        W16328   2.573  27.368   3.308
44800W        W16329  39.605  27.564   4.091
44801W        W16330  34.655  19.105  11.678
44802W        W16331  42.065  43.732  10.748
44803W        W16332  10.210  26.068  13.442
44804W        W16333  35.864  42.378   2.264
44805W        W16334  26.472   2.002  11.935
44806W        W16335   2.929   3.513  13.337
44807W        W16336  10.472   5.862  13.139
44808W        W16337  36.265  31.159  12.160
44809W        W16338  32.234  32.824   0.668
44810W        W16339  44.005  15.337   3.378
44811W        W16340  32.099   3.713  12.194
44812W        W16341  26.598  37.848   3.592
44813W        W16342  13.249  38.124  11.599
44814W        W16343  13.280   2.722   0.737
44815W        W16344  23.037  37.973   2.852
44816W        W16345   9.113  39.593  13.213
44817W        W16346  32.807  41.527   0.382
44818W        W16347   3.343  26.951  14.679
44819W        W16348   6.170  42.286  12.617
44820W        W16349  26.856  24.119  12.504
44821W        W16350  18.290  11.328  14.529
44822W        W16351  37.608  21.134   4.790
44823W        W16352   4.907  20.473  10.440
44824W        W16353  33.774   2.770   1.928
44825W        W16354  11.356  11.716   4.639
44826W        W16355   8.613  32.959  12.547
44827W        W16356  42.243  39.018   2.876
44828W        W16357  36.938  37.509   2.809
44829W        W16358  31.548  27.312   1.939
44830W        W16359  21.120   3.860  13.147
44831W        W16360   6.287  32.652  13.877
44832W        W16361  16.025  31.675   4.521
44833W        W16362  35.904  19.141   2.823
44834W        W16363  14.721  27.412   4.216
44835W        W16364   5.880  36.427  11.047
44836W        W16365  43.878  17.683   4.429
44837W        W16366  16.128  39.329  12.543
44838W        W16367  22.740  36.488   3.797
44839W        W16368   1.924  21.557  14.284
44840W        W16369  39.542  43.534   0.073
44841W        W16370   5.328  39.201   4.109
44842W        W16371  40.932  35.708   1.079
44843W        W16372  34.047  21.624   2.178
44844W        W16373  32.278   9.557  12.318
44845W        W16374  17.105   5.710   2.095
44846W        W16375  41.776  15.745  12.928
44847W        W16376   3.872  20.131  11.224
44848W        W16377  19.271  23.640  12.030
44849W        W16378  16.231   6.817   2.189
44850W        W16379  25.247   7.305   1.321
44851W        W16380   8.352  31.039  14.157
44852W        W16381   6.315  39.074  13.007
44853W        W16382  37.586  11.607   2.717
44854W        W16383  36.879  42.581   3.825
44855W        W16384  16.715  24.432   4.793
44856W        W16385  33.965  35.131   2.703
44857W        W16386  13.151  36.873   0.708
44858W        W16387  42.458  30.172   3.759
44859W        W16388  15.150  36.640   4.523
44860W        W16389  14.669   1.926   3.099
44861W        W16390  21.017  10.133   4.050
44862W        W16391  38.308  26.037  11.213
44863W        W16392  30.181  17.516  12.126
44864W        W16393  10.682  22.244   1.554
44865W        W16394   2.216  41.302   1.187
44866W        W16395  31.451  39.146  13.015
44867W        W16396  18.335  31.695  14.633
44868W        W16397   0.625  15.346  13.269
44869W        W16398  28.122  11.657  10.754
44870W        W16399  44.216  24.511  13.920
44871W        W16400  31.407   1.377   1.664
44872W        W16401  27.179  22.053   0.924
44873W        W16402  29.403  31.076  13.426
44874W        W16403  29.863  36.720  13.902
44875W        W16404   2.886   8.617  14.742
44876W        W16405  26.479  39.187   4.226
44877W        W16406  24.036  13.288  10.682
44878W        W16407  21.690  36.811  13.365
44879W        W16408   5.763  44.356   4.077
44880W        W16409   4.685  12.069   2.215
44881W        W16410  10.628   2.454   1.769
44882W        W16411  17.113  36.795  14.188
44883W        W16412  43.769  15.908  11.453
44884W        W16413  19.782  26.799   4.931
44885W        W16414  30.840  28.783   1.803
44886W        W16415  13.700  11.789  10.732
44887W        W16416   8.209  10.421  13.093
44888W        W16417  44.024   2.412   2.335
44889W        W16418  17.381  35.690   3.348
44890W        W16419   2.344  22.229  11.288
44891W        W16420  15.815  15.151  12.521
44892W        W16421  23.138  42.965   1.987
44893W        W16422   3.351  10.333  11.119
44894W        W16423   0.267  43.279   2.303
44895W        W16424   4.044  10.750   1.801
44896W        W16425  28.731  16.784   1.858
44897W        W16426  41.045  17.025   2.416
44898W        W16427  42.065  28.044   0.238
44899W        W16428  16.230  12.457   4.121
44900W        W16429  21.518   5.774   3.267
44901W        W16430  43.760  30.037   1.189
44902W        W16431   1.817  35.289  11.030
44903W        W16432  10.132  40.755   2.350
44904W        W16433   1.886  35.087   0.852
44905W        W16434   9.313  42.349   3.709
44906W        W16435  30.619  28.907  11.458
44907W        W16436  27.177   2.199   4.502
44908W        W16437  14.171  15.302   2.406
44909W        W16438   9.373   9.299   2.627
44910W        W16439  20.236  17.290  12.151
44911W        W16440  25.756  38.824   3.342
44912W        W16441  31.515  15.841   0.452
44913W        W16442  26.682  41.459   4.801
44914W        W16443  40.587  35.123   0.901
44915W        W16444  38.836  28.640  10.578
44916W        W16445  34.918  35.832   3.629
44917W        W16446  35.004  21.956   2.324
44918W        W16447   9.708  27.427   1.547
44919W        W16448   8.749  24.476  11.588
44920W        W16449  17.845  15.408  12.689
44921W        W16450  16.760  18.034   1.669
44922W        W16451  14.603  26.677   0.940
44923W        W16452   2.422   5.155   0.063
44924W        W16453  35.022   2.495  13.746
44925W        W16454  21.265  32.876   2.765
44926W        W16455  16.530  14.013  14.333
44927W        W16456  41.526  33.884  13.827
44928W        W16457  23.503  24.308   0.893
44929W        W16458   7.020  40.582  11.216
44930W        W16459  24.141  35.384   3.589
44931W        W16460  30.709  41.921  11.020
44932W        W16461  37.395   1.305  13.930
44933W        W16462   5.929  32.117  12.498
44934W        W16463  21.551  32.966   1.706
44935W        W16464  18.789   2.413  14.033
44936W        W16465  37.399  25.738   2.837
44937W        W16466   3.896  20.537  13.319
44938W        W16467  31.621  19.119   3.337
44939W        W16468  18.183  17.454   1.462
44940W        W16469   3.309  15.456  10.812
44941W        W16470  10.262  41.141  12.628
44942W        W16471   5.449  11.277   4.188
44943W        W16472  18.302  44.942  11.371
44944W        W16473  17.404  22.518  14.452
44945W        W16474  44.553  38.425  11.358
44946W        W16475   9.099  39.421   4.623
44947W        W16476  39.306  31.964  12.499
44948W        W16477   5.808  26.223   4.145
44949W        W16478  43.973   1.787  11.532
44950W        W16479  15.884  25.075  13.091
44951W        W16480  40.788  10.021   0.990
44952W        W16481  38.096  19.090  13.542
44953W        W16482   3.693  20.571   4.754
44954W        W16483   2.431  41.490   3.576
44955W        W16484  36.548   0.306  14.471
44956W        W16485   7.321  20.117   0.079
44957W        W16486  39.269  32.077   2.666
44958W        W16487  32.578  15.571   4.065
44959W        W16488  41.860   8.914   5.054
44960W        W16489  26.674  20.998   4.217
44961W        W16490  18.671  24.177  11.608
44962W        W16491  20.138  10.370   2.349
44963W        W16492  40.792  40.825   1.382
44964W        W16493   2.018  31.279  12.235
44965W        W16494  33.392  32.046   3.237
44966W        W16495   3.765  34.233  11.447
44967W        W16496  37.141   5.747   3.227
44968W        W16497  17.286  37.919  12.153
44969W        W16498  41.789  40.168   0.952
44970W        W16499  26.890  37.392   0.788
44971W        W16500  39.103  29.069  10.657
44972W        W16501  32.424  35.950  11.495
44973W        W16502  17.541  27.139   3.445
44974W        W16503  42.300  18.003   0.817
44975W        W16504  18.297   2.459   2.262
44976W        W16505   4.227  40.515  12.549
44977W        W16506   2.842  23.687  13.766
44978W        W16507   5.357  44.841   3.682
44979W        W16508  32.909  41.746   4.297
44980W        W16509  28.275  30.947  11.499
44981W        W16510  42.588  22.235   1.622
44982W        W16511  12.087   2.998  11.429
44983W        W16512  40.372  10.564  13.075
44984W        W16513  33.557  22.287  12.899
44985W        W16514  14.112  28.949   3.638
44986W        W16515  16.598  41.779   1.621
44987W        W16516  34.401   7.387   4.645
44988W        W16517  44.750  31.579  14.897
44989W        W16518  20.560   5.863   0.199
44990W        W16519  32.489  44.734   0.844
44991W        W16520   1.393   4.103   0.120
44992W        W16521   0.282   2.172  12.245
44993W        W16522   4.492  25.005   5.129
44994W        W16523  20.050  43.273  14.233
44995W        W16524  28.440  29.365   2.593
44996W        W16525  23.173  44.067   0.326
44997W        W16526   1.203  32.666   0.901
44998W        W16527  36.959  11.766   0.377
44999W        W16528   1.317   1.822   1.032
45000W        W16529  33.829  20.185   0.752
45001W        W16530  42.977  11.780   2.613
45002W        W16531  35.651   5.027   0.828
45003W        W16532   1.842  24.430  14.007
45004W        W16533  41.314   2.051  13.819
45005W        W16534  19.249  24.065  10.701
45006W        W16535  44.164   8.415  13.910
45007W        W16536  28.542  42.865   5.012
45008W        W16537   1.847  10.275   3.068
45009W        W16538   4.788  31.853  10.541
45010W        W16539  43.245  25.618  13.336
45011W        W16540  27.415  44.156   1.913
45012W        W16541  22.505  20.606  13.950
45013W        W16542  13.171  31.596  14.577
45014W        W16543   7.400  42.531  11.927
45015W        W16544  19.234  16.865  13.021
45016W        W16545  25.177  10.735  14.496
45017W        W16546  27.938   2.574  14.145
45018W        W16547  24.570  43.924   0.425
45019W        W16548  18.225  26.190   3.840
45020W        W16549   1.494  28.475  14.087
45021W        W16550   8.251  36.437   2.116
45022W        W16551   8.293  37.037  12.847
45023W        W16552  19.085  28.073   0.303
45024W        W16553  39.902   9.426   2.132
45025W        W16554  29.838  42.026   1.440
45026W        W16555   4.154   3.275   2.494
45027W        W16556  29.151  17.649  14.514
45028W        W16557   1.471  35.324  11.553
45029W        W16558  13.499  17.167   0.876
45030W        W16559  19.777  36.378  10.574
45031W        W16560   3.820  11.886  13.188
45032W        W16561  20.766  41.185  14.387
45033W        W16562  15.615  37.382   4.020
45034W        W16563  27.171  41.639   4.739
45035W        W16564   4.392  22.485  12.083
45036W        W16565  27.967  20.738  13.843
45037W        W16566  29.982  17.306  14.741
45038W        W16567  35.996   7.633  13.867
45039W        W16568  24.130  17.272   1.171
45040W        W16569  13.883  36.038  10.983
45041W        W16570  20.637   1.497  11.565
45042W        W16571  14.099   2.456   4.679
45043W        W16572   2.180  31.871   2.346
45044W        W16573   1.951   2.907   4.802
45045W        W16574  29.748  39.285   0.703
45046W        W16575   6.137   3.897   2.887
45047W        W16576   4.465  44.861   0.356
45048W        W16577  30.556   2.213  12.007
45049W        W16578  38.551   2.234  11.470
45050W        W16579   2.777  21.980  11.469
45051W        W16580  22.094  11.269   3.413
45052W        W16581  23.979   9.971  12.422
45053W        W16582  24.070  27.957  13.929
45054W        W16583  31.894  26.718   3.207
45055W        W16584  26.011  32.904  12.735
45056W        W16585  26.961  36.317  13.361
45057W        W16586  23.110  29.504   0.048
45058W        W16587  33.309  44.536  14.477
45059W        W16588  10.451   0.436   3.136
45060W        W16589  13.330   5.020  13.963
45061W        W16590   7.115  13.663  13.256
45062W        W16591   6.521  32.132  10.405
45063W        W16592  19.992  28.464  14.268
45064W        W16593   2.381  25.924  11.968
45065W        W16594  25.869   2.227   3.824
45066W        W16595   4.855  18.958   0.566
45067W        W16596  32.500  19.825   2.171
45068W        W16597  11.747   4.470  14.040
45069W        W16598  31.156   2.591  12.487
45070W        W16599  33.806  18.975   4.163
45071W        W16600  32.081  34.151   2.870
45072W        W16601  13.508   3.219   4.633
45073W        W16602  11.963  26.561   0.503
45074W        W16603  30.468  13.173  14.408
45075W        W16604  14.652  25.490  14.053
45076W        W16605   5.359  20.925  11.171
45077W        W16606  12.277  42.684  14.696
45078W        W16607  35.893   8.286  14.342
45079W        W16608   1.379  42.368   3.358
45080W        W16609  15.583  23.735  13.103
45081W        W16610  14.418   7.161  12.870
45082W        W16611  20.775  12.881   3.169
45083W        W16612  23.262  43.832   2.383
45084W        W16613  17.436  27.952   4.235
45085W        W16614   1.711  36.479   1.733
45086W        W16615  12.463  14.535  11.144
45087W        W16616  19.122   9.625  14.493
45088W        W16617  10.813  30.762   2.405
45089W        W16618  33.507   4.180   1.734
45090W        W16619  24.798   5.178   4.906
45091W        W16620   9.776  29.966  12.379
45092W        W16621   7.798  25.174  10.785
45093W        W16622  38.935   9.827   3.445
45094W        W16623  31.677  42.901   3.859
45095W        W16624  10.612  40.132   2.064
45096W        W16625  30.276  24.496  12.395
45097W        W16626   9.066  15.742   0.905
45098W        W16627  22.417   3.355  13.791
45099W        W16628  39.174   6.946  14.733
45100W        W16629  36.496  41.586   1.504
45101W        W16630  30.345  41.217   0.903
45102W        W16631  17.924   0.838   3.098
45103W        W16632  43.636  39.963  13.688
45104W        W16633   9.179  33.971  13.372
45105W        W16634   8.113  14.615  14.124
45106W        W16635   7.105  42.374   4.608
45107W        W16636  43.711  44.269   2.869
45108W        W16637   8.922  17.054   3.493
45109W        W16638  42.941   5.684  12.571
45110W        W16639   2.811  30.326  13.526
45111W        W16640  21.079  32.584   0.766
45112W        W16641  38.936  25.505   2.439
45113W        W16642  44.472  10.796  14.712
45114W        W16643   4.517  34.065  11.983
45115W        W16644  44.783   7.432  10.611
45116W        W16645   5.390   1.817   3.720
45117W        W16646  43.375  18.036   0.227
45118W        W16647  28.040  38.300  14.480
45119W        W16648  14.075  32.971   2.725
45120W        W16649   2.263  44.374   2.771
45121W        W16650  33.668  17.223   3.675
45122W        W16651  23.651   5.936   3.215
45123W        W16652  13.140  42.634  12.414
45124W        W16653   0.820  17.279   4.569
45125W        W16654   9.426  21.244   1.294
45126W        W16655  44.995  32.169  11.644
45127W        W16656  40.915   7.198   0.825
45128W        W16657  44.873  13.205  13.623
45129W        W16658   4.745  19.035   3.190
45130W        W16659  38.496   1.832   1.939
45131W        W16660  15.848   2.791  13.465
45132W        W16661   0.032  24.272   1.690
45133W        W16662  38.011  31.312  14.375
45134W        W16663  34.586   2.524   1.743
45135W        W16664  40.428  35.890   0.414
45136W        W16665  16.683   1.281   0.497
45137W        W16666  33.130  16.322   3.735
45138W        W16667  23.590   3.911  11.192
45139W        W16668  35.861   8.534  10.831
45140W        W16669  20.222  33.395   0.768
45141W        W16670  26.570  11.159  13.221
45142W        W16671   8.060  13.900  13.598
45143W        W16672  28.083  35.981  13.898
45144W        W16673  23.024  18.868   4.730
45145W        W16674  36.042  36.412   4.640
45146W        W16675  15.230  24.020   4.168
45147W        W16676   6.634  13.273   1.907
45148W        W16677  32.436  41.752   4.698
45149W        W16678   6.864   8.967   1.395
45150W        W16679   6.649  18.766   2.267
45151W        W16680  19.059  31.650   1.061
45152W        W16681  34.608   4.310   1.521
45153W        W16682  31.362   5.143  11.653
45154W        W16683  26.152  15.514  10.997
45155W        W16684   9.245  20.946   2.881
45156W        W16685  35.383  16.314  11.615
45157W        W16686  10.227  23.917  11.489
45158W        W16687   5.941  13.675  11.477
45159W        W16688  35.934   7.679   0.429
45160W        W16689  16.582   0.983  13.979
45161W        W16690  22.364  27.585   4.736
45162W        W16691  35.593  14.352   0.468
45163W        W16692  42.235   7.984  11.141
45164W        W16693  27.995  14.935  13.625
45165W        W16694  43.824  14.013  13.945
45166W        W16695  16.646   3.663  10.667
45167W        W16696  38.099   4.216   3.345
45168W        W16697  25.961  30.550  14.096
45169W        W16698   9.968  20.094   1.206
45170W        W16699   0.048  23.191  11.134
45171W        W16700   9.991  33.508   0.328
45172W        W16701   0.787  30.342   2.803
45173W        W16702  13.916  16.386  14.311
45174W        W16703  43.078  33.933  13.371
45175W        W16704   5.867  34.168   0.850
45176W        W16705  19.964  20.722   0.689
45177W        W16706   0.585  44.981   1.121
45178W        W16707   8.125   3.350  14.840
45179W        W16708   8.974   0.310  14.575
45180W        W16709   4.419  34.912   0.563
45181W        W16710  10.441   4.429   3.396
45182W        W16711  35.635   1.834  13.402
45183W        W16712  39.195  16.057  12.164
45184W        W16713  12.819  35.640  14.361
45185W        W16714   7.742  30.441   1.820
45186W        W16715   0.925   4.969  12.686
45187W        W16716  41.437  18.400   3.224
45188W        W16717  36.399   4.243   2.721
45189W        W16718  34.866   8.678   4.158
45190W        W16719  33.949  13.170   3.794
45191W        W16720  17.525  26.889  11.981
45192W        W16721  20.960  18.096  10.734
45193W        W16722  21.558  21.538  13.965
45194W        W16723  13.062  23.656  10.776
45195W        W16724   1.066  27.776  12.073
45196W        W16725  43.647  26.045  13.112
45197W        W16726  25.626  27.891   3.621
45198W        W16727   2.858  38.447  14.715
45199W        W16728  44.870  41.845  13.395
45200W        W16729  16.575   6.018   0.902
45201W        W16730  11.633  29.756  12.374
45202W        W16731  28.979  42.410   3.363
45203W        W16732  19.714  11.635   3.621
45204W        W16733  15.258   0.518   4.590
45205W        W16734  11.197  14.739  12.299
45206W        W16735  34.591  36.490   3.730
45207W        W16736  17.669  30.523  10.545
45208W        W16737  20.778  19.677  11.577
45209W        W16738   6.192   8.941  12.630
45210W        W16739  16.532  29.443   3.351
45211W        W16740  36.964  20.268  11.118
45212W        W16741  18.308  21.155  12.485
45213W        W16742   0.472  43.463  13.890
45214W        W16743  21.973  25.334  13.634
45215W        W16744  17.091  28.528   0.848
45216W        W16745  43.049  41.026  13.092
45217W        W16746   7.762  33.189   1.152
45218W        W16747   2.685  39.166   4.564
45219W        W16748  26.065  13.777   0.898
45220W        W16749   3.840  35.571   0.081
45221W        W16750   9.636  28.968  12.475
45222W        W16751   7.361  19.111   1.023
45223W        W16752  18.574   3.721   0.978
45224W        W16753  18.896  36.044  11.506
45225W        W16754  32.931  30.723  14.420
45226W        W16755  16.904   5.241   3.667
45227W        W16756   6.973   5.583   1.906
45228W        W16757   8.409   8.212  14.446
45229W        W16758   7.377  40.292   0.354
45230W        W16759  43.709  42.844  10.692
45231W        W16760  37.945   7.931  13.009
45232W        W16761  25.933  18.279   2.352
45233W        W16762   3.741  41.239  14.719
45234W        W16763  44.783   8.384   4.407
45235W        W16764  10.280  31.452   3.185
45236W        W16765  13.872  36.459  13.117
45237W        W16766  32.514  20.555   0.494
45238W        W16767  30.146   3.247  13.291
45239W        W16768  38.967  43.912   1.914
45240W        W16769  41.825  38.252   3.229
45241W        W16770   9.839   3.161  12.358
45242W        W16771  10.132  30.145  13.821
45243W        W16772   6.937  10.142   2.961
45244W        W16773  25.594   0.404   3.839
45245W        W16774  21.501   6.616  11.656
45246W        W16775   4.340  12.957  12.127
45247W        W16776  15.039  29.516  14.331
45248W        W16777   4.673  29.639  11.935
45249W        W16778   6.934  44.396  13.558
45250W        W16779  19.334  11.419   4.629
45251W        W16780  36.514   8.235  11.903
45252W        W16781  39.581  18.342  14.838
45253W        W16782  21.379  35.896   3.871
45254W        W16783  19.841   6.262  12.500
45255W        W16784  18.738  24.959   2.334
45256W        W16785  36.266   7.320   1.257
45257W        W16786  24.470  36.833  11.318
45258W        W16787  42.430  26.625  14.984
45259W        W16788   0.797  41.328   1.289
45260W        W16789  22.378   4.649   0.257
45261W        W16790  21.820  31.773  12.949
45262W        W16791  41.422   0.091  14.475
45263W        W16792  39.294  14.780  12.919
45264W        W16793  22.253  35.563  12.419
45265W        W16794  42.710  35.348  11.189
45266W        W16795   7.592   1.224   2.245
45267W        W16796  24.220  36.042   2.336
45268W        W16797  37.116  13.298   2.899
45269W        W16798  26.230  38.623  12.029
45270W        W16799  36.022  26.108   3.909
45271W        W16800  29.500   6.217   4.960
45272W        W16801  39.903  20.463   4.610
45273W        W16802  14.618  22.190  13.931
45274W        W16803  43.908  35.509   4.690
45275W        W16804  26.535  40.373  11.102
45276W        W16805  25.080  37.724   2.244
45277W        W16806  17.791  29.908   3.709
45278W        W16807  20.757   7.967  11.453
45279W        W16808  11.126  23.522   0.637
45280W        W16809  19.658  44.517  14.559
45281W        W16810  44.226  30.893  13.797
45282W        W16811  19.615  42.533  10.527
45283W        W16812   3.398  43.575  12.266
45284W        W16813  44.415   1.488   4.853
45285W        W16814  32.107  25.211   2.290
45286W        W16815  34.897  32.425  14.008
45287W        W16816  10.125  36.419  12.911
45288W        W16817   1.019   1.695  13.908
45289W        W16818  10.656  22.238  11.110
45290W        W16819  39.019   5.243  11.590
45291W        W16820  31.726  43.726  14.427
45292W        W16821   1.955  41.211   1.780
45293W        W16822   2.029  43.283   3.643
45294W        W16823  40.917  10.877  14.437
45295W        W16824  36.142   4.904  14.709
45296W        W16825  44.813  18.037  10.589
45297W        W16826  33.506  16.142   3.374
45298W        W16827  43.667  26.431  12.779
45299W        W16828  22.127  13.185   4.238
45300W        W16829  33.232   3.579  11.855
45301W        W16830  22.745  38.968   2.730
45302W        W16831  14.800  11.177   3.648
45303W        W16832  31.834  23.507   5.492
45304W        W16833   2.755  30.385   1.226
45305W        W16834  39.055   0.984  10.789
45306W        W16835  11.854   5.362  14.025
45307W        W16836  23.559  17.231   1.826
45308W        W16837   7.827  32.293   1.327
45309W        W16838   1.785  14.520   1.361
45310W        W16839  31.418  29.649  13.431
45311W        W16840   7.847  44.514  13.362
45312W        W16841  20.533  21.342   3.727
45313W        W16842   8.448  42.381  11.135
45314W        W16843  44.976   5.198   1.692
45315W        W16844   5.442  17.113   0.938
45316W        W16845   0.475  35.344  14.455
45317W        W16846   1.259   1.323  12.458
45318W        W16847   8.687  39.079  12.036
45319W        W16848   3.391  29.980  11.927
45320W        W16849  11.953  21.082   2.237
45321W        W16850  31.120  20.607   0.424
45322W        W16851   8.484  11.599   3.884
45323W        W16852  43.942  38.295   0.459
45324W        W16853  42.065   8.699   4.642
45325W        W16854  18.807  38.621   3.179
45326W        W16855  24.333  37.940  13.423
45327W        W16856   2.158   2.251  12.959
45328W        W16857  19.274  22.164  14.776
45329W        W16858  19.163  13.377   4.591
45330W        W16859  37.036  18.532  14.855
45331W        W16860  23.997  14.330  10.930
45332W        W16861  18.827  14.388  10.282
45333W        W16862  38.074   5.832  14.877
45334W        W16863  22.402   5.866   3.784
45335W        W16864  29.059  16.214  11.940
45336W        W16865  36.006  19.604   2.578
45337W        W16866  27.093  40.544  12.064
45338W        W16867   8.403   3.291  10.621
45339W        W16868  10.917  44.003  13.389
45340W        W16869  39.806  14.648   2.243
45341W        W16870  16.596  42.908  13.914
45342W        W16871  33.881   4.817  13.581
45343W        W16872  37.310  19.523   2.737
45344W        W16873  11.892  31.122   2.805
45345W        W16874  26.265   1.513   2.318
45346W        W16875  27.045  20.588   4.736
45347W        W16876   2.723   8.931  10.742
45348W        W16877   1.751  37.173  13.354
45349W        W16878  38.449  33.883   0.421
45350W        W16879   0.856  39.841   3.186
45351W        W16880  20.021  16.611  14.312
45352W        W16881  18.777  14.199  10.755
45353W        W16882  22.788   6.630  12.113
45354W        W16883  30.425  13.375  13.154
45355W        W16884  36.925   3.812  13.911
45356W        W16885  33.962   9.340   3.225
45357W        W16886  26.050  41.231  12.410
45358W        W16887  30.140  19.828  14.343
45359W        W16888  32.839   7.417   3.554
45360W        W16889  25.603  36.848   3.627
45361W        W16890   6.204  16.312  11.591
45362W        W16891   8.312  36.074  11.128
45363W        W16892  37.191   7.655  14.380
45364W        W16893   4.146  20.727   4.557
45365W        W16894  18.626  20.234   1.753
45366W        W16895  13.820  29.066  11.450
45367W        W16896  28.364  38.294  12.988
45368W        W16897   5.231   2.203   1.255
45369W        W16898  22.737   5.304  13.157
45370W        W16899  37.419  43.562  12.163
45371W        W16900  44.486  42.030   2.755
45372W        W16901  11.631  15.769  14.336
45373W        W16902  11.079  38.150  12.035
45374W        W16903   4.143  17.511  12.481
45375W        W16904  10.066  15.182  14.890
45376W        W16905  38.739   5.786  13.828
45377W        W16906  17.140  25.540   1.729
45378W        W16907  11.312  17.251  12.135
45379W        W16908  40.608  31.219   0.398
45380W        W16909   4.284  35.922   2.066
45381W        W16910  36.219  33.136   0.661
45382W        W16911  15.250  12.143   0.800
45383W        W16912  14.832  37.317  12.448
45384W        W16913  24.667  13.761   4.598
45385W        W16914  21.189   4.777   0.685
45386W        W16915  31.478  12.907  14.212
45387W        W16916  10.433  30.027   0.774
45388W        W16917  26.064  18.349  12.505
45389W        W16918  21.280  18.837  11.020
45390W        W16919  32.099  11.651   1.255
45391W        W16920   2.807  41.905   4.146
45392W        W16921   2.881  35.648  11.938
45393W        W16922  12.457   4.539  13.610
45394W        W16923  29.924  22.583  12.048
45395W        W16924  28.602  28.097   3.332
45396W        W16925  23.188  22.026   4.613
45397W        W16926  21.417  28.487  12.906
45398W        W16927   8.170  41.839   3.402
45399W        W16928  16.273  23.557   1.764
45400W        W16929  22.970  38.238  10.146
45401W        W16930  28.067  16.721  14.023
45402W        W16931  24.128  36.305   0.491
45403W        W16932   9.326  38.020  11.462
45404W        W16933  41.829  13.783  11.152
45405W        W16934  36.620  24.930  11.902
45406W        W16935  29.296   4.823   2.462
45407W        W16936  35.552  31.827   3.272
45408W        W16937  11.672  31.813  12.874
45409W        W16938  36.451  26.989   2.743
45410W        W16939  40.832   4.754  12.920
45411W        W16940   8.881   9.255   2.411
45412W        W16941  34.114   4.263   2.669
45413W        W16942  19.276  27.717  11.312
45414W        W16943   2.920  30.667  13.876
45415W        W16944   9.633  23.166  12.409
45416W        W16945  15.286  40.466  13.025
45417W        W16946  39.797  11.087   3.232
45418W        W16947  12.024  31.135  13.359
45419W        W16948  20.779  29.169  14.360
45420W        W16949  32.869  28.529  10.178
45421W        W16950   1.744  25.220  14.946
45422W        W16951  23.079  25.684  13.563
45423W        W16952  13.215  41.490   1.713
45424W        W16953  37.528  14.026   2.828
45425W        W16954   6.174  29.133   0.861
45426W        W16955  28.554  23.060   2.376
45427W        W16956  16.327  42.244   3.308
45428W        W16957  39.139  18.002  11.157
45429W        W16958  44.881  44.984   2.677
45430W        W16959  19.549  15.395  11.706
45431W        W16960   0.299   2.957   0.336
45432W        W16961  26.876  14.314  11.544
45433W        W16962  25.739  19.182  12.817
45434W        W16963  34.140  34.970  14.751
45435W        W16964  32.862  37.836   3.615
45436W        W16965  42.017  21.611   0.470
45437W        W16966  28.239  37.081   0.875
45438W        W16967  15.227  29.881  13.162
45439W        W16968   2.372   8.613  14.463
45440W        W16969  33.574  17.220   4.603
45441W        W16970  33.564  35.335   0.285
45442W        W16971  17.117  12.696   3.571
45443W        W16972  21.793  31.712  13.488
45444W        W16973  35.476  37.371  13.566
45445W        W16974  23.528   6.388  12.519
45446W        W16975  11.767   5.287   2.437
45447W        W16976  36.769  30.708  13.927
45448W        W16977  28.406   4.445  11.153
45449W        W16978  30.668   7.028  12.947
45450W        W16979  23.128  18.063  14.391
45451W        W16980  13.378  15.656  10.798
45452W        W16981  33.992  26.191   0.181
45453W        W16982  42.357  26.763  13.094
45454W        W16983   2.487   4.156  10.683
45455W        W16984  12.460   4.933   4.557
45456W        W16985  25.252  25.132  14.259
45457W        W16986  44.879  38.433   1.373
45458W        W16987  41.357   0.949  11.857
45459W        W16988   9.639  41.461  12.778
45460W        W16989  24.474  19.358  11.803
45461W        W16990  16.580  25.624   1.372
45462W        W16991  37.470  41.008  13.724
45463W        W16992  10.194  24.924  10.722
45464W        W16993  41.017   7.791   1.759
45465W        W16994  10.166  21.124  11.678
45466W        W16995  12.269  38.508   0.924
45467W        W16996  23.948  40.804   0.447
45468W        W16997  40.969  22.927   2.339
45469W        W16998  31.687  12.287   1.287
45470W        W16999  31.068  24.542   5.397
45471W        W17000   4.662  19.851  11.617
45472W        W17001  32.435  24.467   1.341
45473W        W17002  19.221   5.904  14.448
45474W        W17003  12.513  25.032  14.317
45475W        W17004  26.631  28.893  11.803
45476W        W17005  15.206  23.538   4.037
45477W        W17006  33.660  20.545   2.141
45478W        W17007   8.356  18.871  13.987
45479W        W17008   8.144   9.144   1.887
45480W        W17009   2.669   8.106  11.616
45481W        W17010   7.302  11.697   3.403
45482W        W17011  24.303   2.069   3.209
45483W        W17012  27.702  29.104   4.733
45484W        W17013  42.508  31.354  14.822
45485W        W17014  40.064  29.984  11.380
45486W        W17015   5.474  27.054  13.502
45487W        W17016  37.483  28.109   3.357
45488W        W17017  24.437  34.449  11.172
45489W        W17018  15.187   4.857  14.304
45490W        W17019   8.025  12.313  10.466
45491W        W17020  41.147   1.799   2.290
45492W        W17021  42.901  37.877  11.100
45493W        W17022  18.609  38.076   1.251
45494W        W17023  35.329  21.141   0.523
45495W        W17024   2.741  28.005   0.900
45496W        W17025  26.106  17.759  12.869
45497W        W17026  39.701  25.980   2.656
45498W        W17027   3.740  10.331   2.836
45499W        W17028  30.135  28.469  10.655
45500W        W17029  24.014  22.209   1.328
45501W        W17030  24.132  21.931   0.865
45502W        W17031  14.391   6.414   4.483
45503W        W17032  21.743  36.616   2.876
45504W        W17033  30.800  26.089   4.291
45505W        W17034   7.360  21.182   3.649
45506W        W17035  16.038  37.861   2.902
45507W        W17036  15.644  36.890   3.778
45508W        W17037  24.469   0.626   0.966
45509W        W17038  30.361  12.649  10.707
45510W        W17039  34.893  44.956  13.985
45511W        W17040   3.436  33.078   2.725
45512W        W17041  32.856  31.596   1.892
45513W        W17042  34.157  15.523   3.208
45514W        W17043  18.554  29.436  11.428
45515W        W17044  37.898   5.297   2.922
45516W        W17045  31.086  42.498   0.516
45517W        W17046  28.569  18.397  10.837
45518W        W17047   9.465  16.163   3.097
45519W        W17048  18.983  16.379  11.029
45520W        W17049  29.293  38.743   0.429
45521W        W17050  29.855  14.010  14.403
45522W        W17051  38.978  12.778  14.426
45523W        W17052  28.613  29.624  14.279
45524W        W17053  43.053  21.842   3.757
45525W        W17054  21.575  36.482   0.822
45526W        W17055  36.994  37.983  14.092
45527W        W17056  31.957  32.442   4.877
45528W        W17057  40.174  36.386   0.484
45529W        W17058  44.082  34.866   0.932
45530W        W17059  36.699  10.063   3.286
45531W        W17060  42.873  30.651   0.712
45532W        W17061  37.418  10.209  11.178
45533W        W17062   2.869  14.253   1.703
45534W        W17063  17.084  26.145  12.493
45535W        W17064   9.359   3.020  12.478
45536W        W17065  15.093  15.745   5.050
45537W        W17066  38.063  32.992   1.885
45538W        W17067  38.924   2.167  13.990
45539W        W17068  15.971   2.655   1.662
45540W        W17069  25.930  35.057   1.710
45541W        W17070   3.399  23.418  10.634
45542W        W17071  20.629  39.544   4.134
45543W        W17072   0.195  36.594  11.947
45544W        W17073  21.812  32.393  12.227
45545W        W17074  44.457   4.910  13.150
45546W        W17075  26.463  44.376   1.690
45547W        W17076  15.172  12.808  11.769
45548W        W17077  29.222  27.440  14.266
45549W        W17078  34.729   5.809   9.831
45550W        W17079  14.806  25.485   0.928
45551W        W17080  30.552  11.567   2.896
45552W        W17081  10.670  39.369   2.405
45553W        W17082  22.257   2.988  10.760
45554W        W17083  27.159   4.193  11.013
45555W        W17084  15.080  30.794   4.126
45556W        W17085  16.724   5.696   4.989
45557W        W17086  20.233   0.817   4.850
45558W        W17087   6.994   1.571  11.667
45559W        W17088  15.662   7.036  13.558
45560W        W17089  17.574  13.805  11.877
45561W        W17090  26.455   3.108   0.672
45562W        W17091  12.858  26.699  13.802
45563W        W17092  43.408  15.872  10.634
45564W        W17093  30.155   7.170   1.046
45565W        W17094  20.800  24.156  14.779
45566W        W17095   9.386  22.613  10.787
45567W        W17096  38.387   3.989   2.734
45568W        W17097  40.179  37.853  13.348
45569W        W17098  33.685  39.545   2.665
45570W        W17099  23.147  44.427   3.198
45571W        W17100  37.880   1.676   2.574
45572W        W17101  23.127  41.013   2.900
45573W        W17102  25.945  41.660   2.788
45574W        W17103   6.917   8.900   4.442
45575W        W17104   3.743  20.497  12.412
45576W        W17105  40.914  11.427  14.319
45577W        W17106  15.000   7.341   5.130
45578W        W17107  19.085   9.188  14.191
45579W        W17108  35.394  40.457   1.319
45580W        W17109  27.239   7.266  13.091
45581W        W17110   3.852  21.685   4.189
45582W        W17111  21.642  15.610   4.606
45583W        W17112  22.523  40.885  13.051
45584W        W17113  43.745   0.477  11.702
45585W        W17114  15.720   4.432   3.578
45586W        W17115   7.948  15.210   3.130
45587W        W17116  18.580   7.358   4.694
45588W        W17117  16.020  36.418   2.676
45589W        W17118  17.691   2.444  12.916
45590W        W17119  16.826  16.209   0.075
45591W        W17120  17.049   4.964   3.226
45592W        W17121  39.995  33.687  10.954
45593W        W17122   9.153   1.502   2.273
45594W        W17123  34.358   9.223   0.357
45595W        W17124  28.479  44.040  13.835
45596W        W17125  28.706  16.237  14.487
45597W        W17126   5.020  23.704  12.929
45598W        W17127  22.044   9.754  12.421
45599W        W17128  23.471  24.646   1.971
45600W        W17129  44.383  18.709  13.910
45601W        W17130  13.930  33.035  10.630
45602W        W17131   3.269  24.611  13.975
45603W        W17132  24.928  23.231  11.926
45604W        W17133  25.118  15.694   4.716
45605W        W17134  40.889   3.845   3.150
45606W        W17135  36.401  34.436  12.523
45607W        W17136  34.918  21.064   1.986
45608W        W17137  17.811  23.509  14.159
45609W        W17138  38.421  17.095   2.240
45610W        W17139  38.466  21.535  12.439
45611W        W17140  30.013  26.009  11.096
45612W        W17141  20.293  34.683   0.443
45613W        W17142  38.208  20.229   4.384
45614W        W17143  11.054  17.175   2.731
45615W        W17144  13.286   6.837   3.160
45616W        W17145   9.114  18.866   4.208
45617W        W17146  12.099  44.528   0.986
45618W        W17147  19.686  31.293   2.132
45619W        W17148  28.594  35.481   1.415
45620W        W17149  32.884  38.553  14.690
45621W        W17150  19.146  13.320  14.325
45622W        W17151  21.037   7.592  11.679
45623W        W17152  34.837   6.015   4.695
45624W        W17153  17.709  22.237  10.807
45625W        W17154  15.675  10.714  11.134
45626W        W17155  25.701  16.565  14.900
45627W        W17156  24.691   2.947  13.359
45628W        W17157  12.155  15.788  14.336
45629W        W17158   0.842  41.961  11.854
45630W        W17159  10.396  13.352  12.356
45631W        W17160  35.059  41.791  12.445
45632W        W17161  21.435  29.634  11.661
45633W        W17162  23.940   1.694  12.925
45634W        W17163  22.415  43.921   0.946
45635W        W17164  11.066  17.488  14.342
45636W        W17165  36.292  17.179  11.529
45637W        W17166  42.416  39.523   0.468
45638W        W17167  12.171  14.904   0.372
45639W        W17168  41.740  21.035  14.539
45640W        W17169  10.208   7.773  10.609
45641W        W17170  32.954  40.587   0.153
45642W        W17171  43.794  30.830  12.015
45643W        W17172   4.888   2.103   1.674
45644W        W17173  37.833  31.391  11.851
45645W        W17174   9.292  32.214  12.510
45646W        W17175   9.798  15.256   0.896
45647W        W17176  24.109  35.554   2.197
45648W        W17177  28.564  22.964   3.660
45649W        W17178   9.129  42.544   2.252
45650W        W17179   6.948  36.914   3.322
45651W        W17180  41.068   4.804  14.904
45652W        W17181   8.356  39.423  11.459
45653W        W17182  19.135  27.437   4.586
45654W        W17183  22.147   6.960   4.610
45655W        W17184  13.067  29.185   1.699
45656W        W17185   5.433  38.619  12.632
45657W        W17186  40.760  27.771   2.733
45658W        W17187  10.445  31.951   5.054
45659W        W17188  21.063  21.205  13.773
45660W        W17189  22.124  41.565  11.552
45661W        W17190   6.274  25.077  14.867
45662W        W17191  10.167  43.685   4.526
45663W        W17192  44.294  40.639  12.871
45664W        W17193  32.095  25.149  13.281
45665W        W17194  35.653  37.065  13.947
45666W        W17195  44.080  39.532  14.826
45667W        W17196  17.238   3.777   3.110
45668W        W17197   7.714  44.022   2.863
45669W        W17198  41.330   3.183  13.578
45670W        W17199  40.300  44.757   0.745
45671W        W17200  22.710  30.850  14.055
45672W        W17201   2.455   8.421  14.957
45673W        W17202  28.721  21.582  12.565
45674W        W17203  24.712  35.096   4.559
45675W        W17204   7.668   4.552   3.103
45676W        W17205  10.931   0.328  14.141
45677W        W17206  12.589  34.347  14.782
45678W        W17207   7.142  33.397   4.073
45679W        W17208  25.528  23.635   3.906
45680W        W17209  26.233  18.958  11.470
45681W        W17210   5.866  25.701   4.114
45682W        W17211   5.753  36.532   3.205
45683W        W17212  10.453  21.756   1.096
45684W        W17213  36.097  40.201  13.510
45685W        W17214  21.990  14.088  14.783
45686W        W17215  36.727  44.737   3.214
45687W        W17216  37.427  41.071   0.348
45688W        W17217  35.082  42.769  13.284
45689W        W17218  36.936  26.052   2.210
45690W        W17219  23.991   6.341  11.139
45691W        W17220  44.950  33.856  13.071
45692W        W17221  16.117  37.453   4.118
45693W        W17222  16.618  34.121   3.809
45694W        W17223  21.811  14.068  13.848
45695W        W17224  38.608  16.111  11.209
45696W        W17225  37.074  17.976   4.318
45697W        W17226  19.659  28.828  11.498
45698W        W17227  19.146  18.259  12.420
45699W        W17228  10.305  34.965   0.786
45700W        W17229  19.618  28.593  13.951
45701W        W17230   2.432   0.230  11.888
45702W        W17231   8.579  39.152   4.084
45703W        W17232  22.562  16.497   1.435
45704W        W17233  38.500  29.314  12.023
45705W        W17234  14.044  22.617   4.563
45706W        W17235   0.271  22.327   3.419
45707W        W17236  20.642   3.590  14.851
45708W        W17237  25.223  43.210  11.785
45709W        W17238  33.272   1.673  14.148
45710W        W17239  12.175  18.187  10.796
45711W        W17240  15.102  32.897  11.537
45712W        W17241  35.826   4.225   0.439
45713W        W17242  43.962  20.088  13.116
45714W        W17243  26.520  38.399   2.371
45715W        W17244  25.116   2.245  13.834
45716W        W17245  43.061  27.853   2.800
45717W        W17246  24.387   7.156  11.024
45718W        W17247  18.534  25.634   0.800
45719W        W17248  24.370  22.021  13.983
45720W        W17249  27.089  40.929  10.705
45721W        W17250  39.985   1.026  11.125
45722W        W17251  29.961  10.216  13.543
45723W        W17252  41.444   1.562  13.841
45724W        W17253  21.996  18.875  12.111
45725W        W17254   5.579  16.169  14.456
45726W        W17255  25.777   7.699   3.631
45727W        W17256  36.071  31.486  11.755
45728W        W17257  15.409   9.307  11.416
45729W        W17258   8.664  11.782   5.186
45730W        W17259   4.232  42.042  12.476
45731W        W17260   5.098   4.808  11.607
45732W        W17261  33.390  35.585  14.844
45733W        W17262   0.400  22.671  13.945
45734W        W17263  35.658  38.360  13.538
45735W        W17264   5.907  27.538  13.088
45736W        W17265  10.797  40.803   1.262
45737W        W17266  16.374   1.632  14.998
45738W        W17267   6.848   3.688   4.562
45739W        W17268  17.850  10.358   1.142
45740W        W17269   0.497  11.571   4.723
45741W        W17270  25.251  17.773  13.915
45742W        W17271   6.633  37.445   2.710
45743W        W17272   9.163  27.051  14.296
45744W        W17273   3.512   9.085  12.015
45745W        W17274  32.000  19.312  14.174
45746W        W17275  33.089  25.422  14.932
45747W        W17276   5.463  40.301  12.990
45748W        W17277  26.504  14.545   0.897
45749W        W17278  12.284   9.914   1.542
45750W        W17279  33.084  33.879  14.299
45751W        W17280  10.219  34.388   3.628
45752W        W17281  40.572   4.763   2.236
45753W        W17282  22.783  33.972   2.363
45754W        W17283  11.667   5.387  12.857
45755W        W17284   4.734  24.129   0.446
45756W        W17285   1.558  31.794  13.376
45757W        W17286  31.328  18.712  11.705
45758W        W17287   5.330   8.244  13.484
45759W        W17288  34.553  30.401  14.374
45760W        W17289  40.887  35.519   1.842
45761W        W17290  25.022  36.495  14.403
45762W        W17291   7.027  32.881   1.841
45763W        W17292  18.689  29.890   2.611
45764W        W17293   1.039   4.809   5.306
45765W        W17294  19.542  43.362  14.474
45766W        W17295  17.177  31.096  11.573
45767W        W17296  26.039   3.439   0.667
45768W        W17297  41.308  13.221   4.035
45769W        W17298   8.692   6.806  12.390
45770W        W17299  42.270  44.301  11.014
45771W        W17300  26.218  44.468  13.347
45772W        W17301  40.562  19.108   0.401
45773W        W17302  37.835   2.751   1.365
45774W        W17303  32.080  25.908   3.590
45775W        W17304  14.612   3.359  13.905
45776W        W17305  41.272   9.072  14.404
45777W        W17306   0.387  43.184  13.466
45778W        W17307  27.380  12.108   4.085
45779W        W17308   3.379  12.166  10.728
45780W        W17309   7.315  25.554  14.591
45781W        W17310  14.678  23.054  14.377
45782W        W17311   3.078  33.986   0.904
45783W        W17312  17.745  21.773  10.587
45784W        W17313  40.380   0.771   4.035
45785W        W17314  11.243  26.939   3.544
45786W        W17315  15.907   9.649  12.411
45787W        W17316  13.361  39.277   1.864
45788W        W17317   2.852  17.241  11.928
45789W        W17318  28.418  25.265   2.204
45790W        W17319  27.845  44.135   0.227
45791W        W17320  19.565  37.477  10.653
45792W        W17321  40.019  27.567  10.637
45793W        W17322  34.173   5.819  14.518
45794W        W17323  31.540  41.489  14.028
45795W        W17324  10.872   8.225  10.702
45796W        W17325  14.435  35.941  13.804
45797W        W17326  23.709  18.259  11.036
45798W        W17327   1.429  12.610  14.964
45799W        W17328  39.013  15.034   9.869
45800W        W17329  21.689  36.623   2.356
45801W        W17330  23.507  15.802   1.867
45802W        W17331  22.560  12.244  14.736
45803W        W17332  11.712  44.185  12.029
45804W        W17333  13.197  16.623  12.085
45805W        W17334  28.816  13.692  12.114
45806W        W17335  31.583  16.301  13.443
45807W        W17336   2.870   6.254  14.325
45808W        W17337   5.722  13.235  13.888
45809W        W17338   0.332  18.255  11.046
45810W        W17339  43.571  21.607  13.438
45811W        W17340  11.841  21.845   0.745
45812W        W17341  29.403  29.505  13.377
45813W        W17342  42.827  43.808  11.217
45814W        W17343  25.230   9.714   3.762
45815W        W17344  23.630  21.246  10.617
45816W        W17345  15.307   3.810   4.615
45817W        W17346  40.002  30.824  13.256
45818W        W17347   1.303   5.149   4.084
45819W        W17348   2.160  29.046  10.267
45820W        W17349  32.690  14.512   5.055
45821W        W17350  17.989  29.565   2.087
45822W        W17351  25.596  34.297   2.287
45823W        W17352  37.645  43.010   5.178
45824W        W17353  30.245   2.493  13.934
45825W        W17354  26.680  21.086   3.700
45826W        W17355   2.766  16.257  12.906
45827W        W17356   2.838  22.913  11.247
45828W        W17357  10.442  44.074   0.220
45829W        W17358  10.631  33.290  13.926
45830W        W17359  37.111  22.797   1.338
45831W        W17360  10.662  32.866   3.802
45832W        W17361  30.393  32.502   0.768
45833W        W17362  11.293  18.029  13.782
45834W        W17363   9.100  14.131   2.298
45835W        W17364   9.842  35.492   3.378
45836W        W17365   8.414   8.407   4.050
45837W        W17366  10.899   5.242  13.992
45838W        W17367  30.244  16.794   0.945
45839W        W17368   5.924  20.149  12.496
45840W        W17369   7.248  23.780   2.227
45841W        W17370  10.836   8.492   4.999
45842W        W17371   1.692  21.524   3.577
45843W        W17372  29.507  23.313   3.031
45844W        W17373   7.177  43.364  13.202
45845W        W17374  18.836  28.833  11.828
45846W        W17375   4.290   1.231  12.508
45847W        W17376  17.773  28.927   2.747
45848W        W17377  29.846   5.840   2.299
45849W        W17378  38.738   9.908  11.891
45850W        W17379   7.861   7.036   5.011
45851W        W17380  31.906   0.018  10.580
45852W        W17381  31.582   8.214  11.456
45853W        W17382   6.419  26.885   3.596
45854W        W17383  38.116  32.437   3.839
45855W        W17384  36.158  24.782  12.035
45856W        W17385  43.050  44.022   0.442
45857W        W17386  37.465  25.043   1.632
45858W        W17387  26.550  24.129  14.744
45859W        W17388  44.835  38.295  14.290
45860W        W17389   0.432  33.118  13.391
45861W        W17390   2.684  17.327  14.295
45862W        W17391   5.610   8.809   3.162
45863W        W17392   2.767  28.521   0.871
45864W        W17393  18.084  18.397   2.257
45865W        W17394  27.740  10.842  11.092
45866W        W17395   3.364  25.722   0.791
45867W        W17396  26.062  24.600   3.458
45868W        W17397  35.934  24.408  14.242
45869W        W17398  32.561  14.261   2.190
45870W        W17399  36.086  28.534   2.770
45871W        W17400  34.434  32.182  13.976
45872W        W17401  41.193  21.945  11.652
45873W        W17402   0.838   1.347   2.276
45874W        W17403  40.509  30.050  14.311
45875W        W17404   2.709  12.072  14.334
45876W        W17405  31.550  30.141  11.117
45877W        W17406   8.609  16.508  11.463
45878W        W17407  10.655   9.088  13.801
45879W        W17408   8.131  44.332  12.959
45880W        W17409   6.785  16.198  11.766
45881W        W17410   4.063  40.354  13.817
45882W        W17411  10.602  22.175   2.804
45883W        W17412  44.895  34.911  13.413
45884W        W17413  34.309  37.669   5.003
45885W        W17414  41.698  14.619  14.023
45886W        W17415  19.310  26.492   4.957
45887W        W17416   9.259  29.976  11.660
45888W        W17417  40.921  26.149  10.781
45889W        W17418   6.745  37.443  13.293
45890W        W17419  20.047   7.850   4.632
45891W        W17420  37.395  17.267  10.566
45892W        W17421  17.297  37.494   0.455
45893W        W17422  43.904  32.190  10.942
45894W        W17423  28.596  29.059   0.668
45895W        W17424  42.924  26.190  13.614
45896W        W17425  27.726  37.036   0.969
45897W        W17426  43.502  12.175   4.781
45898W        W17427  23.055   0.794   0.728
45899W        W17428  37.568  32.075  11.158
45900W        W17429  24.501  12.873  12.547
45901W        W17430  39.253  44.325  11.593
45902W        W17431   9.227  31.468   0.976
45903W        W17432  15.380  37.161   2.462
45904W        W17433  37.869  16.293  11.556
45905W        W17434  31.743  42.264   0.017
45906W        W17435   5.394   0.699  12.896
45907W        W17436  44.654  36.804   4.999
45908W        W17437  25.433  33.057   3.181
45909W        W17438  36.960  14.789  14.348
45910W        W17439  44.392  35.815   3.631
45911W        W17440  19.057  13.562  13.864
45912W        W17441  29.391   4.477   4.549
45913W        W17442  10.953  24.561   1.387
45914W        W17443  25.073   8.129   2.683
45915W        W17444   1.467   4.478   0.527
45916W        W17445  12.869  38.893  10.493
45917W        W17446   8.878   3.346  14.117
45918W        W17447   5.607  29.047   2.143
45919W        W17448  28.933  10.148  10.288
45920W        W17449  12.806   1.266   2.766
45921W        W17450  41.039   5.418  14.122
45922W        W17451  30.632   6.298  13.817
45923W        W17452   3.224  26.523   3.256
45924W        W17453  39.610  44.954  10.531
45925W        W17454  12.648   4.478   0.232
45926W        W17455   7.210  14.850   3.371
45927W        W17456  34.480  41.071  13.537
45928W        W17457   1.520  39.442   0.315
45929W        W17458  41.984  27.648   2.384
45930W        W17459  22.690  43.959   0.491
45931W        W17460   9.080   0.165   1.343
45932W        W17461  32.086  11.617  13.924
45933W        W17462  17.034  21.488   0.427
45934W        W17463  44.434   0.410  10.426
45935W        W17464  10.327  43.861   4.985
45936W        W17465   8.347  17.147  11.993
45937W        W17466   2.964  43.823  12.402
45938W        W17467  20.184  17.426  10.321
45939W        W17468  22.838  20.267  12.503
45940W        W17469  25.830  32.555   2.330
45941W        W17470  25.999  36.032  13.608
45942W        W17471  16.976  10.178   4.712
45943W        W17472  37.486  42.985  12.325
45944W        W17473  30.673  40.979  12.460
45945W        W17474  17.036  41.017  14.893
45946W        W17475  21.520  35.529   2.213
45947W        W17476  40.260  36.507  11.949
45948W        W17477   9.438  19.205  11.123
45949W        W17478  38.879  16.291   0.383
45950W        W17479   7.436  41.495  11.887
45951W        W17480   5.936   6.475  13.384
45952W        W17481   8.160  26.147   1.326
45953W        W17482   2.963  36.042   1.140
45954W        W17483   7.161  16.378   4.719
45955W        W17484  30.971  39.808  13.505
45956W        W17485  21.752  29.370  11.987
45957W        W17486  20.023  43.428   4.084
45958W        W17487  21.720   3.788   3.414
45959W        W17488   1.954   6.586   1.772
45960W        W17489  36.748  14.057  13.969
45961W        W17490  36.291  25.159  13.977
45962W        W17491  32.515  42.738  10.561
45963W        W17492  28.420  24.939   1.802
45964W        W17493  24.758  15.738  13.483
45965W        W17494  43.292   0.427   2.669
45966W        W17495   6.812  40.924  13.889
45967W        W17496  22.079  34.822   0.951
45968W        W17497  23.907   4.928  11.230
45969W        W17498  18.036  37.215  11.126
45970W        W17499  35.004  26.433  14.337
45971W        W17500   1.846   2.974   3.087
45972W        W17501  25.169  44.511   4.499
45973W        W17502   4.484  32.967   4.040
45974W        W17503   4.257   7.391   1.509
45975W        W17504  11.384  32.141  11.123
45976W        W17505  18.707  10.711  13.854
45977W        W17506  23.932  39.829  14.455
45978W        W17507  44.903  23.180   4.157
45979W        W17508  43.454  12.093   0.458
45980W        W17509  39.457  10.308  11.620
45981W        W17510  39.093  32.022  12.999
45982W        W17511  22.723  26.198  10.622
45983W        W17512   5.967  26.005   3.695
45984W        W17513  40.134  36.022   0.861
45985W        W17514   7.202  35.083  13.308
45986W        W17515  10.248  28.558   0.211
45987W        W17516  10.870   6.818  14.464
45988W        W17517  24.444  44.806  13.936
45989W        W17518  27.151  11.814   2.636
45990W        W17519  21.565  18.310  14.977
45991W        W17520   0.664  18.294   0.907
45992W        W17521  37.048  12.595  14.358
45993W        W17522  12.754  13.225  10.835
45994W        W17523  36.575  28.697   3.236
45995W        W17524  24.952  20.381   3.309
45996W        W17525  14.102   4.911   0.937
45997W        W17526  17.318  17.236  14.334
45998W        W17527  24.301  29.618   3.694
45999W        W17528   4.907   4.347  11.022
46000W        W17529  26.672  14.609  11.188
46001W        W17530  42.048  30.769   1.180
46002W        W17531  29.035  10.697  11.147
46003W        W17532  21.817  23.511  11.101
46004W        W17533  30.972  22.283   4.134
46005W        W17534  44.678   2.441  10.604
46006W        W17535  22.287  31.637  13.558
46007W        W17536   3.255  14.998  10.582
46008W        W17537   5.081  28.986  14.356
46009W        W17538  25.984  33.973  14.857
46010W        W17539  22.252   6.683   1.879
46011W        W17540  35.966  40.960  13.824
46012W        W17541  33.359   2.802   0.476
46013W        W17542  24.116  18.716   2.365
46014W        W17543   4.377  25.273   0.924
46015W        W17544  39.908  37.500   0.949
46016W        W17545  30.068  40.878   1.783
46017W        W17546   0.561  26.153  11.873
46018W        W17547  29.723   0.937   3.194
46019W        W17548  34.163  15.223   2.631
46020W        W17549  14.141   0.012   4.125
46021W        W17550  23.160  27.935   4.464
46022W        W17551  41.270  34.820  11.991
46023W        W17552  38.914  32.694  13.995
46024W        W17553  37.770   1.163   2.789
46025W        W17554  31.887  25.531   3.924
46026W        W17555  18.190   2.251  10.808
46027W        W17556   2.243  21.062   0.690
46028W        W17557  18.152   1.207  14.223
46029W        W17558  21.066  43.242  10.753
46030W        W17559   1.077  17.152   2.006
46031W        W17560  33.132  34.371   2.081
46032W        W17561   1.495  12.756   0.796
46033W        W17562  11.124   4.003  11.192
46034W        W17563  27.314  32.492  12.343
46035W        W17564   1.375   5.907   2.205
46036W        W17565  19.077  38.085   0.814
46037W        W17566  27.724  34.483  13.478
46038W        W17567   3.847  18.795   0.277
46039W        W17568  25.009  29.006   3.201
46040W        W17569  36.834   2.928   2.757
46041W        W17570  13.994  41.060   4.585
46042W        W17571  30.969  41.023  14.337
46043W        W17572  30.406   7.392   3.768
46044W        W17573   6.018  26.118  12.507
46045W        W17574  41.863  20.986  13.133
46046W        W17575  15.114  23.506  11.019
46047W        W17576  29.184   0.269  10.724
46048W        W17577  37.793  40.527   1.200
46049W        W17578  13.823  37.444  13.204
46050W        W17579   9.356  13.170   0.979
46051W        W17580  31.450  32.823   4.488
46052W        W17581  38.565  18.770  12.969
46053W        W17582  24.326   0.948   0.598
46054W        W17583  43.310  12.475  12.729
46055W        W17584  17.999  24.957   4.639
46056W        W17585  43.481  37.340   2.298
46057W        W17586  29.637   7.263   0.886
46058W        W17587  11.771  21.037   1.742
46059W        W17588  32.597  20.320  11.782
46060W        W17589   4.713  30.065  10.590
46061W        W17590  29.515   4.940   0.362
46062W        W17591  19.802  38.701  14.255
46063W        W17592  27.578  30.933   3.349
46064W        W17593  13.756  14.414   3.932
46065W        W17594  39.903  10.553  14.345
46066W        W17595  19.538  25.964   2.700
46067W        W17596  25.204  39.912   2.702
46068W        W17597   5.878  27.475  14.407
46069W        W17598  13.096  37.708  13.975
46070W        W17599  19.167  35.177   0.924
46071W        W17600  32.476  14.647   0.338
46072W        W17601   6.939   7.364   4.368
46073W        W17602  28.060  19.704  12.898
46074W        W17603  17.539   9.922   1.921
46075W        W17604   7.833  39.554  12.502
46076W        W17605  21.400   0.265   4.204
46077W        W17606  30.621  30.889   2.612
46078W        W17607   5.194  20.478  12.446
46079W        W17608  27.079  39.993  13.021
46080W        W17609   3.572  31.736   1.822
46081W        W17610   9.744   0.895   0.046
46082W        W17611  21.358  28.918   2.828
46083W        W17612  11.583  32.428   2.607
46084W        W17613  41.046   7.888   0.224
46085W        W17614  13.931  14.553  10.379
46086W        W17615  16.703  35.778   2.258
46087W        W17616  26.980  13.217  12.059
46088W        W17617  13.147  43.263   2.779
46089W        W17618  26.269  17.984  11.204
46090W        W17619   9.329  32.071  14.672
46091W        W17620  38.929  33.895  13.380
46092W        W17621  11.827  20.006  11.650
46093W        W17622  21.265   9.684   4.906
46094W        W17623   5.711  21.005  14.560
46095W        W17624  31.276  38.878   5.077
46096W        W17625  38.979  12.101   0.388
46097W        W17626  29.564   7.825   3.573
46098W        W17627  12.064  21.190   2.811
46099W        W17628  10.214  29.673   3.662
46100W        W17629  39.455  37.035   0.275
46101W        W17630  24.287   1.391   4.760
46102W        W17631  13.323  41.365  13.749
46103W        W17632  43.531  12.695   2.376
46104W        W17633  28.744  19.038   0.429
46105W        W17634  39.550   7.454  14.002
46106W        W17635  22.502   0.454   4.405
46107W        W17636   7.915  15.659  11.501
46108W        W17637  37.132  16.387  12.452
46109W        W17638   7.625  19.225  10.741
46110W        W17639   3.536  40.392   0.365
46111W        W17640   0.288  25.077   2.889
46112W        W17641  39.301  30.148   0.705
46113W        W17642  25.680  30.493  12.402
46114W        W17643  10.905  28.823   4.016
46115W        W17644  24.501  18.595   3.792
46116W        W17645  21.194  35.921   2.772
46117W        W17646  32.919  23.462  11.523
46118W        W17647  40.608  44.036   0.354
46119W        W17648  10.894  43.508  10.690
46120W        W17649  19.669  21.048   2.394
46121W        W17650  12.637  14.066  11.116
46122W        W17651  30.544   4.004  14.547
46123W        W17652  18.663  24.744  13.146
46124W        W17653   1.503  11.222  10.877
46125W        W17654  22.746  31.911  11.401
46126W        W17655   8.313  11.639  14.453
46127W        W17656  16.016   8.752  14.265
46128W        W17657   2.069  15.913  10.165
46129W        W17658   2.298  35.643   3.589
46130W        W17659  23.494  42.788  12.505
46131W        W17660  24.249   4.170   0.712
46132W        W17661  43.759  40.277   3.218
46133W        W17662  10.813  37.764  10.567
46134W        W17663  44.452  41.718   1.075
46135W        W17664  15.263  19.573   0.888
46136W        W17665  26.167   6.470   0.850
46137W        W17666   2.530  15.775   2.752
46138W        W17667   1.361  41.322  11.599
46139W        W17668   9.633   4.853  14.182
46140W        W17669  44.884  38.873  12.084
46141W        W17670  31.680  14.267   2.001
46142W        W17671  25.177  32.359  14.758
46143W        W17672  39.955  36.460  11.459
46144W        W17673   6.938  36.083   1.857
46145W        W17674  18.385  22.104   2.899
46146W        W17675   4.016  40.579   2.540
46147W        W17676   7.101  14.010  12.074
46148W        W17677   9.094  14.299   0.503
46149W        W17678  26.280   0.973  12.029
46150W        W17679  33.665  31.952   0.746
46151W        W17680   3.841  26.441   2.495
46152W        W17681  33.344  33.970   2.857
46153W        W17682  13.067   1.936  10.895
46154W        W17683   6.766  40.583   2.903
46155W        W17684  29.369  17.758   0.910
46156W        W17685   8.071  39.978  10.247
46157W        W17686  25.425  25.367  12.509
46158W        W17687   6.224  10.282   3.628
46159W        W17688  31.668  26.092  13.499
46160W        W17689  28.247  40.330   3.694
46161W        W17690  26.943  27.702   2.335
46162W        W17691  40.094  33.024  12.217
46163W        W17692  25.480  33.791  10.897
46164W        W17693  28.716  42.850   3.773
46165W        W17694  22.175  25.187   1.711
46166W        W17695  13.812  18.580   0.995
46167W        W17696  32.561  31.533   4.193
46168W        W17697  24.767  15.105  14.654
46169W        W17698  15.781  25.003  11.311
46170W        W17699  24.501  33.620   2.021
46171W        W17700  20.156  17.708  14.273
46172W        W17701  21.436  14.863   0.717
46173W        W17702   8.946  15.795   2.824
46174W        W17703  37.017  10.078  14.294
46175W        W17704  29.076  35.114  13.415
46176W        W17705  10.827  41.283  12.553
46177W        W17706  22.606  34.761  14.604
46178W        W17707  13.100  41.100  12.369
46179W        W17708  19.035   5.558   0.705
46180W        W17709   8.584  38.793  14.415
46181W        W17710  23.219  43.030  14.356
46182W        W17711  36.148  42.756  14.775
46183W        W17712  33.940   5.917   3.875
46184W        W17713  31.116  22.301   0.870
46185W        W17714   8.419  26.879  10.217
46186W        W17715  32.175  29.213  13.402
46187W        W17716  35.392   0.478   4.314
46188W        W17717  10.196  12.340   4.854
46189W        W17718  16.243  25.710  11.555
46190W        W17719  40.911   6.009  14.843
46191W        W17720  11.747  31.606   4.098
46192W        W17721   8.375  14.665   0.150
46193W        W17722   2.976  23.264   3.716
46194W        W17723  25.468   9.064   2.483
46195W        W17724  44.373  30.974   2.651
46196W        W17725  18.308  30.287   4.438
46197W        W17726   8.351  38.841  12.382
46198W        W17727  20.583  26.557  12.002
46199W        W17728  16.738  37.881   4.597
46200W        W17729  39.901  13.669   4.225
46201W        W17730   2.882   5.200  11.898
46202W        W17731  17.145  40.545  11.665
46203W        W17732  13.778  27.693   2.912
46204W        W17733  13.411  27.487  12.216
46205W        W17734  39.875  29.671  12.170
46206W        W17735  32.101  13.031  14.974
46207W        W17736   0.452  16.663   3.719
46208W        W17737  16.820   6.511  14.529
46209W        W17738   1.907   4.392  13.808
46210W        W17739  31.138  34.725   4.434
46211W        W17740  28.989  30.660  14.933
46212W        W17741   4.913   0.990  11.637
46213W        W17742  34.225  24.266  12.526
46214W        W17743   8.848  22.132  13.715
46215W        W17744  26.124  20.708   3.792
46216W        W17745  19.483   8.356  12.656
46217W        W17746   1.872  38.578  11.689
46218W        W17747  35.433   8.875  10.884
46219W        W17748  12.626  10.148   4.238
46220W        W17749  14.015  44.970   3.624
46221W        W17750  18.370  18.370  11.098
46222W        W17751  22.125   9.469   3.756
46223W        W17752  42.845  24.454   3.708
46224W        W17753  30.653  29.874  14.490
46225W        W17754  38.895   2.260  10.439
46226W        W17755  31.392  32.835   0.970
46227W        W17756  20.001  44.194  14.410
46228W        W17757  31.777  24.107   0.718
46229W        W17758   1.746  23.065  14.017
46230W        W17759  44.276  12.082   2.105
46231W        W17760  33.293  10.645  11.166
46232W        W17761  11.673  35.604   1.815
46233W        W17762  40.817  40.339   2.806
46234W        W17763   1.987  42.877  12.173
46235W        W17764  10.600  42.473  10.874
46236W        W17765   8.455  27.043  10.694
46237W        W17766  34.650  24.247   0.790
46238W        W17767  27.705  33.217   1.679
46239W        W17768  18.416  15.120   3.956
46240W        W17769   9.919  26.943  11.609
46241W        W17770   3.941   1.743  10.737
46242W        W17771  43.768  25.641   1.280
46243W        W17772  21.268  23.255   5.040
46244W        W17773  38.856  37.991  11.341
46245W        W17774  40.975  42.815  12.480
46246W        W17775  37.559  14.547   0.753
46247W        W17776  42.863  19.794   2.349
46248W        W17777  34.102   7.669  10.516
46249W        W17778   9.921  35.477   1.942
46250W        W17779  40.769  27.553  13.394
46251W        W17780  20.726  26.636   4.974
46252W        W17781  27.553  41.432  11.268
46253W        W17782  22.312   6.854   3.695
46254W        W17783  41.754  27.417   1.964
46255W        W17784  36.598  11.364  14.654
46256W        W17785  32.628  10.285  13.841
46257W        W17786  34.469  13.163   3.215
46258W        W17787  11.152  12.609   2.785
46259W        W17788  21.924  43.454  11.921
46260W        W17789   8.355  42.837   1.316
46261W        W17790  24.953   9.322  13.871
46262W        W17791  44.690  36.491  12.009
46263W        W17792  43.606  42.521  11.958
46264W        W17793  42.132   3.890  14.632
46265W        W17794  37.379   5.144  11.522
46266W        W17795  30.037  10.260  10.495
46267W        W17796  29.594   2.178  12.348
46268W        W17797  42.713  44.177   4.202
46269W        W17798  16.575  16.138   4.127
46270W        W17799  24.535   2.847   4.066
46271W        W17800  35.886  15.825  10.589
46272W        W17801  16.514  18.174   2.797
46273W        W17802  20.997  27.585  14.523
46274W        W17803  24.736  16.212   4.282
46275W        W17804  18.533  19.553  12.381
46276W        W17805  29.330  31.412  11.165
46277W        W17806  15.330  39.201  14.343
46278W        W17807   2.882  38.285  10.657
46279W        W17808  17.659  38.618  14.258
46280W        W17809  13.803  42.323   3.181
46281W        W17810  16.515  37.885   3.248
46282W        W17811  38.257  18.592  12.558
46283W        W17812   5.111  10.694   4.153
46284W        W17813  35.174  19.185   2.318
46285W        W17814  33.740  15.085  14.631
46286W        W17815   0.051  41.327   3.695
46287W        W17816  32.799  35.899   1.654
46288W        W17817  14.310  27.574  11.651
46289W        W17818  42.455  14.767  10.471
46290W        W17819   5.275  19.606  10.808
46291W        W17820  42.548   6.766  14.656
46292W        W17821  13.123  29.561   0.873
46293W        W17822   2.790   0.757   1.419
46294W        W17823  18.901  20.551  12.099
46295W        W17824  35.858  33.524   2.287
46296W        W17825   6.461  27.116   2.658
46297W        W17826  34.010  29.402  12.350
46298W        W17827  38.053  33.388   0.930
46299W        W17828  10.816  32.079  12.005
46300W        W17829  19.145  23.457  12.861
46301W        W17830  16.876  28.452  13.927
46302W        W17831  38.205  34.389  10.177
46303W        W17832   5.080   2.774   3.288
46304W        W17833   3.361  31.492  12.817
46305W        W17834  28.174  16.059  10.437
46306W        W17835  19.751  28.057   3.685
46307W        W17836  18.792  34.761  13.364
46308W        W17837  18.396  42.051  11.581
46309W        W17838  37.477  17.678  11.633
46310W        W17839  13.276   2.206   3.822
46311W        W17840  28.495   8.736  11.434
46312W        W17841  36.811  34.418  11.293
46313W        W17842  27.465  42.569  10.609
46314W        W17843  43.392  38.009  11.660
46315W        W17844  44.712  37.997   1.146
46316W        W17845  20.150  44.663  14.313
46317W        W17846  32.828   2.943  12.868
46318W        W17847  22.098   7.961   3.351
46319W        W17848   6.376  15.339   2.181
46320W        W17849  14.194  33.479  10.756
46321W        W17850  38.215  44.813   2.153
46322W        W17851  34.557  16.790  14.478
46323W        W17852  16.819   8.486  10.955
46324W        W17853  11.189  23.254   4.155
46325W        W17854   0.111   7.727  10.916
46326W        W17855  17.680   1.303  14.462
46327W        W17856   2.412  19.292  10.592
46328W        W17857  21.084  11.051  12.826
46329W        W17858  36.863  40.076  14.942
46330W        W17859  10.978   7.913  11.086
46331W        W17860  22.952   1.834   3.828
46332W        W17861   4.754   2.935   1.907
46333W        W17862  18.824  24.460   2.286
46334W        W17863   3.195   3.135  13.590
46335W        W17864  31.493  44.346   4.629
46336W        W17865  37.106  32.643   3.565
46337W        W17866  20.306  33.516   2.329
46338W        W17867  37.871   6.403  11.147
46339W        W17868  34.056  32.645  13.058
46340W        W17869  27.611  43.409  11.315
46341W        W17870   7.328   3.648  12.523
46342W        W17871   3.272  25.028  14.838
46343W        W17872  40.133  27.719   2.004
46344W        W17873  22.358   3.641  10.242
46345W        W17874   3.896   1.263   1.678
46346W        W17875   3.355  33.547   0.653
46347W        W17876   5.719   5.472   2.198
46348W        W17877   3.794  25.197  13.309
46349W        W17878  28.912   0.413   3.074
46350W        W17879   5.738   1.380  13.976
46351W        W17880  24.306  15.342   4.670
46352W        W17881   7.686   6.186  12.061
46353W        W17882  27.432  26.899  13.940
46354W        W17883  44.250  34.816  14.552
46355W        W17884  23.134  29.507   1.791
46356W        W17885   5.065  21.369  14.887
46357W        W17886  36.563  16.074  13.990
46358W        W17887  22.561   5.384   1.614
46359W        W17888  20.040  13.625  12.919
46360W        W17889   1.354  42.851   4.664
46361W        W17890  22.288   9.355  11.493
46362W        W17891  15.259  11.152   2.365
46363W        W17892  10.873  24.741   0.820
46364W        W17893   3.330   2.213  14.552
46365W        W17894  33.998  35.638   3.368
46366W        W17895  13.922  17.833   0.205
46367W        W17896  25.053  30.079  11.924
46368W        W17897   5.718  29.521   0.345
46369W        W17898  38.496   4.757  13.491
46370W        W17899   8.578  10.029   9.966
46371W        W17900  43.340  36.518  12.056
46372W        W17901  38.153  13.060  14.946
46373W        W17902  40.972  39.035  10.655
46374W        W17903  24.046  42.026  12.860
46375W        W17904   9.481   0.273  14.457
46376W        W17905  37.866  36.515  11.604
46377W        W17906  31.514  16.157  14.708
46378W        W17907  37.452  13.737  12.923
46379W        W17908  26.956  29.994  13.520
46380W        W17909  14.056  25.850   3.838
46381W        W17910  35.369  17.459  11.797
46382W        W17911  38.348  22.765  12.352
46383W        W17912  23.633   3.007   0.739
46384W        W17913  41.967  28.652  14.102
46385W        W17914  27.227   5.818  12.471
46386W        W17915  33.120   4.255   4.239
46387W        W17916  44.499  15.152  11.134
46388W        W17917   0.300   7.013   2.700
46389W        W17918  44.007  19.713   0.256
46390W        W17919  36.590  15.004  11.319
46391W        W17920  27.114  18.745  10.770
46392W        W17921  38.522  37.621   0.725
46393W        W17922  17.795  19.222   0.489
46394W        W17923  21.221  27.076   1.836
46395W        W17924   9.121  44.479   4.171
46396W        W17925   7.149   1.001  14.483
46397W        W17926  44.281   3.408  10.613
46398W        W17927   2.971  26.094   1.442
46399W        W17928  24.207  25.184  13.505
46400W        W17929  35.776  22.558   4.566
46401W        W17930   6.658   1.391   2.167
46402W        W17931  35.175  12.370   3.359
46403W        W17932  21.766  44.430  12.578
46404W        W17933   2.446  14.101  10.804
46405W        W17934   8.172  12.909  13.215
46406W        W17935  36.517   6.196  12.976
46407W        W17936  16.766  41.517  12.558
46408W        W17937  19.469   7.277  14.376
46409W        W17938   7.789   7.272  13.055
46410W        W17939  31.456  44.469   4.103
46411W        W17940   8.472  12.353   3.490
46412W        W17941  22.827  16.776   3.797
46413W        W17942  13.175  20.222   3.923
46414W        W17943  30.914  14.304  11.901
46415W        W17944  34.808  30.974   2.285
46416W        W17945  17.359  20.757   1.695
46417W        W17946  15.298  41.800  13.868
46418W        W17947   3.284  44.700   2.771
46419W        W17948  15.114  36.031  14.448
46420W        W17949  24.052  20.060   4.157
46421W        W17950  24.098   5.980   3.986
46422W        W17951  32.104  39.579   0.907
46423W        W17952  44.211  31.169  12.050
46424W        W17953  27.062  15.732  14.737
46425W        W17954   8.984   3.893   1.504
46426W        W17955   0.695  36.411   3.330
46427W        W17956  31.035  40.785   3.224
46428W        W17957  23.002  16.695   2.283
46429W        W17958  38.115  27.981   2.358
46430W        W17959  37.291   2.787   4.557
46431W        W17960  21.405  25.801   3.875
46432W        W17961  29.397  25.492  14.338
46433W        W17962  35.904  33.865   5.067
46434W        W17963   1.235  16.186   3.837
46435W        W17964  28.030  44.461  13.363
46436W        W17965  14.868  37.058  14.267
46437W        W17966  20.617  20.183  14.427
46438W        W17967  11.844  10.532  11.344
46439W        W17968  40.815  43.356   3.387
46440W        W17969  10.838  42.684  12.813
46441W        W17970  31.322  42.778  10.293
46442W        W17971   2.333   8.217  12.024
46443W        W17972  24.976   0.930  10.929
46444W        W17973  41.559  37.077  14.877
46445W        W17974  31.575  32.600   0.103
46446W        W17975  12.661  15.673   0.765
46447W        W17976   3.514  41.929  12.079
46448W        W17977   6.884  12.415  12.840
46449W        W17978  15.565  40.700  11.400
46450W        W17979   6.722  43.877   1.618
46451W        W17980  44.801  30.406  13.233
46452W        W17981  13.430  30.616  14.919
46453W        W17982  12.369   6.762  14.010
46454W        W17983  11.470  21.990   1.801
46455W        W17984   5.810  44.158   4.565
46456W        W17985  44.853  14.011   4.489
46457W        W17986  34.992  33.938   1.566
46458W        W17987   6.699  14.789   2.417
46459W        W17988  18.671  37.066   3.356
46460W        W17989  11.427  33.200  11.149
46461W        W17990   5.084  31.555  14.859
46462W        W17991   7.234  38.967   0.821
46463W        W17992   1.659   0.736  12.004
46464W        W17993   5.612  36.704   2.685
46465W        W17994  21.449  25.368  11.529
46466W        W17995  31.139  36.055  11.984
46467W        W17996  16.276  40.846  11.570
46468W        W17997   7.342   1.820  10.920
46469W        W17998   3.411  13.220   0.823
46470W        W17999  36.960  37.050  10.672
46471W        W18000  38.680  13.125   0.829
46472W        W18001  43.219  20.374  12.476
46473W        W18002  25.454  29.271   3.282
46474W        W18003  41.386   9.175   1.874
46475W        W18004   2.050  10.587   5.105
46476W        W18005   3.489  10.516  14.060
46477W        W18006  44.089  30.673  10.774
46478W        W18007  16.448  23.748  10.699
46479W        W18008  42.867  30.646  14.332
46480W        W18009  27.524   2.687   3.296
46481W        W18010  22.222  41.535  10.536
46482W        W18011  23.468   5.850  13.910
46483W        W18012   3.952  37.524  14.292
46484W        W18013   8.293   0.807  11.688
46485W        W18014  35.526   8.113  11.626
46486W        W18015  13.096  35.172   2.815
46487W        W18016  33.002  29.678  11.084
46488W        W18017  33.051   2.179  10.687
46489W        W18018   0.678  23.195  13.162
46490W        W18019  39.593  34.964   0.749
46491W        W18020  13.864  42.168  12.958
46492W        W18021  36.936  43.219   4.505
46493W        W18022  43.940  12.591  14.939
46494W        W18023  10.714  16.284  12.967
46495W        W18024  17.834  37.243  12.413
46496W        W18025  21.426  38.127  12.861
46497W        W18026  22.921   5.740   1.427
46498W        W18027  16.246  33.301  14.209
46499W        W18028  28.173   2.830   0.909
46500W        W18029  14.243  26.013   0.937
46501W        W18030   9.662  43.632  14.381
46502W        W18031   2.740  41.900   4.923
46503W        W18032   0.423  33.552   0.693
46504W        W18033   3.483  27.449  10.594
46505W        W18034  44.185  13.680  10.762
46506W        W18035   0.089  39.057  12.523
46507W        W18036  28.674  36.794   4.510
46508W        W18037  18.339  36.681   3.113
46509W        W18038  24.103  33.880   0.365
46510W        W18039  28.601   0.490  12.200
46511W        W18040  37.925   4.793  14.269
46512W        W18041   1.394  43.443  14.940
46513W        W18042  20.492  44.257  14.337
46514W        W18043   5.680  40.056   0.508
46515W        W18044   9.379  26.660  10.542
46516W        W18045  28.681   8.323  12.685
46517W        W18046  42.329   2.034  12.802
46518W        W18047  40.283  17.567   3.443
46519W        W18048  26.525  34.599   4.617
46520W        W18049  39.275  17.165   3.692
46521W        W18050  42.389  12.725  10.440
46522W        W18051   5.338   7.879   3.073
46523W        W18052   5.450   1.907  13.277
46524W        W18053  34.663  36.077   4.488
46525W        W18054  15.193  23.605   3.155
46526W        W18055  20.051  24.508   4.115
46527W        W18056  23.569  13.375  11.496
46528W        W18057  16.590  15.230   1.106
46529W        W18058  18.497  21.740  14.827
46530W        W18059  15.252  35.540   3.604
46531W        W18060   9.737  11.157   4.313
46532W        W18061   8.222  16.879   4.182
46533W        W18062  13.659  30.148  13.046
46534W        W18063   3.015  30.126   1.806
46535W        W18064  16.794   7.528   2.265
46536W        W18065  27.671   9.546   1.758
46537W        W18066  29.541  43.050  13.913
46538W        W18067  15.038   4.116  12.052
46539W        W18068  29.482  10.321   4.983
46540W        W18069   3.428  41.726   4.139
46541W        W18070  18.199  14.650  12.659
46542W        W18071  22.059  24.137   2.441
46543W        W18072  31.494   8.604   3.237
46544W        W18073   9.375  22.510   1.735
46545W        W18074  23.552  18.736   1.860
46546W        W18075  40.050  37.456  13.963
46547W        W18076  14.405   6.243   1.979
46548W        W18077  20.416  31.675  11.122
46549W        W18078  38.771  33.226  11.139
46550W        W18079  13.301  37.610  11.639
46551W        W18080  41.496  44.770   0.791
46552W        W18081  39.667  28.155  13.100
46553W        W18082   0.532  44.883   0.260
46554W        W18083  14.597   4.861   1.156
46555W        W18084  27.556  42.405  11.202
46556W        W18085  33.537  17.981  14.573
46557W        W18086  44.377  27.509   2.858
46558W        W18087  10.114  23.515   9.967
46559W        W18088  32.959  19.812  10.667
46560W        W18089  14.910  19.131   1.738
46561W        W18090  12.483  13.686   4.242
46562W        W18091   3.805  10.681  12.613
46563W        W18092  25.484  17.701  11.521
46564W        W18093  27.677  42.220  12.233
46565W        W18094  35.606  10.161   1.981
46566W        W18095   9.936  34.869   0.299
46567W        W18096  40.464  36.503   2.308
46568W        W18097  29.054  21.574  14.839
46569W        W18098  43.201   9.899  13.009
46570W        W18099   9.186   7.259  13.313
46571W        W18100  16.834  26.069  13.861
46572W        W18101  19.768  34.535   0.823
46573W        W18102  43.109  23.197   1.106
46574W        W18103  16.327  35.449   3.449
46575W        W18104  44.368  31.976   4.641
46576W        W18105   4.674   9.417   3.899
46577W        W18106  32.114   9.436  10.743
46578W        W18107  41.556  17.750  14.930
46579W        W18108  33.483  20.961   4.739
46580W        W18109  27.514   7.003   0.657
46581W        W18110   1.708  26.965  12.343
46582W        W18111  14.683   5.843  11.515
46583W        W18112  43.150   0.392   4.196
46584W        W18113  37.894  10.121   0.077
46585W        W18114  42.806  37.783   4.622
46586W        W18115  19.064   4.951   2.261
46587W        W18116  30.820  30.643  12.973
46588W        W18117   1.487   1.830  13.517
46589W        W18118   1.335  38.589   0.633
46590W        W18119  29.461  24.292  12.075
46591W        W18120  35.622  44.706  12.850
46592W        W18121  31.858   5.468  10.444
46593W        W18122  14.316  25.154   0.477
46594W        W18123  28.753   0.878   1.734
46595W        W18124  37.428  19.551   0.308
46596W        W18125  30.009   3.366   3.634
46597W        W18126  42.842  12.997  10.462
46598W        W18127  25.456  29.489  14.506
46599W        W18128  26.118  34.609   4.942
46600W        W18129  39.397  24.580   4.408
46601W        W18130  28.450  25.982  12.946
46602W        W18131  23.559  44.835   3.071
46603W        W18132  15.112  24.263  11.648
46604W        W18133  28.667   2.829  12.038
46605W        W18134  38.827  21.632   3.623
46606W        W18135  12.700   6.844  11.582
46607W        W18136   6.316  28.860   1.896
46608W        W18137  43.530  22.643  11.140
46609W        W18138  30.919  29.200   0.750
46610W        W18139  15.981  41.891  12.393
46611W        W18140   6.198  37.470  10.349
46612W        W18141  28.619  40.509  10.680
46613W        W18142  29.922  11.657   1.156
46614W        W18143  30.109   9.063   0.278
46615W        W18144  13.572  19.045   0.856
46616W        W18145  31.941   9.133  13.110
46617W        W18146  10.164  22.075   3.909
46618W        W18147  19.990  41.849  11.937
46619W        W18148  15.335  12.745   4.012
46620W        W18149  28.828  36.131   4.927
46621W        W18150  22.807  21.373   4.475
46622W        W18151  41.519   0.352   3.146
46623W        W18152  27.000   4.790  11.125
46624W        W18153  33.900  41.550  10.703
46625W        W18154  25.089  11.349   2.271
46626W        W18155   2.981  31.602  12.387
46627W        W18156   0.020  31.491  14.439
46628W        W18157  30.403  44.437  14.031
46629W        W18158  30.092  12.254  10.560
46630W        W18159   4.766  29.343   4.567
46631W        W18160  43.628  19.586   1.012
46632W        W18161  14.590   8.726  12.138
46633W        W18162  36.869  31.946  12.336
46634W        W18163  22.761  30.987  12.386
46635W        W18164   2.716  33.674   2.737
46636W        W18165  30.190  34.385   0.561
46637W        W18166  15.048   2.781   0.804
46638W        W18167  35.573  19.219   3.215
46639W        W18168  28.976   5.119  12.530
46640W        W18169  39.985  24.805  12.207
46641W        W18170  34.825  37.820  11.711
46642W        W18171  13.772  16.870  12.877
46643W        W18172   7.723  38.850  14.937
46644W        W18173  17.683  15.724  14.620
46645W        W18174   2.743   7.420   5.061
46646W        W18175  33.724  36.542   0.263
46647W        W18176   4.993   7.657  12.590
46648W        W18177   7.579   7.799   4.837
46649W        W18178   7.704  26.944   1.335
46650W        W18179  16.468  35.498   0.917
46651W        W18180  17.637   2.215   3.682
46652W        W18181  43.148  30.117  12.569
46653W        W18182  26.770  26.231   3.303
46654W        W18183   0.677  31.284   3.703
46655W        W18184  12.076  14.828  14.464
46656W        W18185  35.656  42.816   2.387
46657W        W18186  35.947  16.594  11.545
46658W        W18187  22.493  24.249   4.302
46659W        W18188   9.616  31.504   2.630
46660W        W18189  18.716   0.999   0.546
46661W        W18190  13.409   0.257   4.575
46662W        W18191  38.351   3.983   0.855
46663W        W18192   6.125  43.021   0.843
46664W        W18193  37.997  44.814   2.714
46665W        W18194  32.601  40.872  11.059
46666W        W18195  44.360   3.647   2.032
46667W        W18196  35.072   3.154   2.160
46668W        W18197  28.074   3.258  10.623
46669W        W18198   5.412   6.680  12.014
46670W        W18199  33.290   9.326   0.143
46671W        W18200  21.176  33.944  14.622
46672W        W18201  39.927  27.173   4.227
46673W        W18202  15.010   9.653  14.937
46674W        W18203  14.229   1.401  10.442
46675W        W18204   6.693  17.561  12.526
46676W        W18205  28.563   1.184  11.228
46677W        W18206  39.898  36.276   4.554
46678W        W18207  11.211  42.454  14.511
46679W        W18208   9.380   4.387  14.107
46680W        W18209  29.383  41.441   0.930
46681W        W18210   5.774   4.953   4.566
46682W        W18211  24.233  11.852   3.767
46683W        W18212   5.721  44.232  10.726
46684W        W18213  35.586  36.250   1.337
46685W        W18214  18.935  16.278   0.791
46686W        W18215  12.306  28.437   4.088
46687W        W18216  10.799  23.068   0.494
46688W        W18217  26.428  21.598   2.844
46689W        W18218  10.268  17.509   1.314
46690W        W18219  35.632  22.903  10.850
46691W        W18220  38.445  13.735  14.279
46692W        W18221  43.384  34.793   2.197
46693W        W18222  21.475  27.573  10.654
46694W        W18223  14.547  39.925  12.003
46695W        W18224   8.299   4.190  11.203
46696W        W18225  30.969  35.323  10.723
46697W        W18226  14.793  12.939   0.660
46698W        W18227   0.503  35.874  14.456
46699W        W18228  33.193   9.663   1.161
46700W        W18229   9.571   4.854  12.971
46701W        W18230   6.900   7.580  10.785
46702W        W18231   6.885  38.538  12.523
46703W        W18232  38.238  18.662   0.765
46704W        W18233   9.577  28.549   3.577
46705W        W18234  44.726  23.986   2.319
46706W        W18235  40.224  18.992   1.943
46707W        W18236   7.432  22.508  11.692
46708W        W18237  26.349   3.008   1.156
46709W        W18238  14.392  10.263  11.500
46710W        W18239  36.477  31.438   3.650
46711W        W18240  44.755  39.141   3.641
46712W        W18241  15.760   7.850  14.814
46713W        W18242   7.218   7.889   1.647
46714W        W18243  27.657   5.988   1.633
46715W        W18244   1.868  14.351   1.866
46716W        W18245  15.407  34.577  14.522
46717W        W18246   2.901  37.498   0.449
46718W        W18247  44.972  38.493   2.864
46719W        W18248   8.238  44.792  12.033
46720W        W18249  43.276  29.281   1.737
46721W        W18250  29.625  35.385  12.482
46722W        W18251  44.536   6.325   4.810
46723W        W18252  37.838  20.691   1.851
46724W        W18253  13.561  10.174  13.860
46725W        W18254  43.940   8.873  14.201
46726W        W18255  22.533   8.369   9.902
46727W        W18256   8.733  38.992  13.545
46728W        W18257  13.315  41.562   1.183
46729W        W18258  38.481  21.044  11.546
46730W        W18259  13.277  44.738   4.657
46731W        W18260  28.001  42.554  12.512
46732W        W18261  32.147  19.253   2.817
46733W        W18262   3.798  34.191  12.802
46734W        W18263   8.155  26.389  12.605
46735W        W18264  37.229  41.276   3.347
46736W        W18265  35.061  24.254   3.687
46737W        W18266  12.601   8.129  13.977
46738W        W18267  38.936  35.311   2.257
46739W        W18268  31.182  15.723   3.031
46740W        W18269  20.409  43.725  11.151
46741W        W18270  11.728  26.939  13.039
46742W        W18271  20.807  23.737  11.056
46743W        W18272   4.455  18.278   2.739
46744W        W18273  15.570  25.435   1.333
46745W        W18274  21.611  16.994   0.268
46746W        W18275  17.040   4.050  13.958
46747W        W18276  25.136  25.137  10.672
46748W        W18277  13.261  36.355   2.140
46749W        W18278  32.911  30.553   0.509
46750W        W18279  38.715  41.225  13.056
46751W        W18280  32.610  22.986  11.059
46752W        W18281  44.014  21.284  14.267
46753W        W18282  30.105  39.324  10.751
46754W        W18283  40.397  18.099   3.340
46755W        W18284  42.999   0.283   3.379
46756W        W18285  12.248  17.187   0.505
46757W        W18286   3.371   3.070   2.735
46758W        W18287   9.937  17.552  12.664
46759W        W18288  39.852  17.810   0.952
46760W        W18289  16.174  40.894  10.689
46761W        W18290  44.503  30.829  13.371
46762W        W18291  23.494  15.928   0.236
46763W        W18292  28.386   2.839   4.174
46764W        W18293  21.682  25.286   1.883
46765W        W18294  22.188  20.640   3.133
46766W        W18295   4.049   4.451   4.050
46767W        W18296  29.282  44.260   0.371
46768W        W18297  18.586  12.669   4.550
46769W        W18298  10.239  20.885   3.185
46770W        W18299  33.857  19.234   1.006
46771W        W18300  31.101  23.702  13.097
46772W        W18301  12.562   6.910   0.478
46773W        W18302   4.269  22.224  11.631
46774W        W18303  34.162   0.729  13.179
46775W        W18304  31.874  29.913  14.901
46776W        W18305   8.781   1.517   1.369
46777W        W18306  19.089  44.963  14.905
46778W        W18307  37.769  15.291  10.408
46779W        W18308  44.062   0.220   1.583
46780W        W18309  11.642  31.778   0.181
46781W        W18310  27.535  15.145   3.169
46782W        W18311  11.569  11.228  12.964
46783W        W18312  30.670  28.580   1.242
46784W        W18313  27.499   1.619   3.367
46785W        W18314  34.863  35.355   3.379
46786W        W18315   1.338  38.922   3.867
46787W        W18316  27.991  44.395   3.186
46788W        W18317  12.304  30.848  14.195
46789W        W18318  13.786   2.219  11.161
46790W        W18319  22.670  42.416   0.846
46791W        W18320   3.685  17.890  14.373
46792W        W18321  15.315  36.219   2.175
46793W        W18322  25.747  13.309  11.589
46794W        W18323  28.024   6.397   2.178
46795W        W18324  31.184  26.710  12.545
46796W        W18325  41.374  14.301  14.758
46797W        W18326  19.621   4.902   1.040
46798W        W18327  21.710  40.313   4.027
46799W        W18328  24.774  37.111   4.690
46800W        W18329  29.686   2.232   4.825
46801W        W18330  12.678   1.180   4.136
46802W        W18331  39.610  40.246  14.388
46803W        W18332   5.742  31.234  11.889
46804W        W18333  17.184  39.366  14.412
46805W        W18334  29.575  23.468  12.988
46806W        W18335  11.780  34.054  13.934
46807W        W18336  33.255  10.075   4.215
46808W        W18337  25.816   9.249   4.720
46809W        W18338  43.260  13.131  11.287
46810W        W18339  34.271  32.117   4.544
46811W        W18340  12.708  23.718   3.750
46812W        W18341  38.626  23.813  11.637
46813W        W18342  29.688  22.839   3.020
46814W        W18343  27.547  13.566  14.324
46815W        W18344  11.276  42.866   4.990
46816W        W18345  42.284  16.178   2.906
46817W        W18346  23.494  38.815   3.904
46818W        W18347  43.740  11.733   3.598
46819W        W18348  24.057  26.561  14.329
46820W        W18349   4.923   4.743   0.407
46821W        W18350  22.089  43.481   0.964
46822W        W18351  41.136  32.872  11.990
46823W        W18352   4.672  36.033  12.510
46824W        W18353  32.783  24.600   3.444
46825W        W18354  22.555  12.564   0.548
46826W        W18355  38.824  40.198  14.770
46827W        W18356  31.454  35.565  10.753
46828W        W18357  24.089  27.226   1.017
46829W        W18358   3.996  22.058  12.021
46830W        W18359  26.106   5.383   4.581
46831W        W18360  35.718   0.280  10.900
46832W        W18361  13.332  19.661  14.799
46833W        W18362  11.595  19.635   4.104
46834W        W18363  22.179  35.291  14.098
46835W        W18364  10.284  25.773   0.311
46836W        W18365  33.438  14.700   4.009
46837W        W18366  23.740  30.025  11.543
46838W        W18367  17.119  37.626  14.980
46839W        W18368   6.032   6.648  14.525
46840W        W18369  33.079  15.288   2.755
46841W        W18370  12.427   7.622  14.055
46842W        W18371  43.369   8.353  14.300
46843W        W18372  38.393  11.258   0.114
46844W        W18373  43.413  28.065  10.721
46845W        W18374   6.576  44.907  10.906
46846W        W18375  11.377  35.916  12.844
46847W        W18376   5.940  29.141  12.874
46848W        W18377  19.648  42.885  14.266
46849W        W18378   4.657   9.012   3.566
46850W        W18379  38.066  17.039  14.821
46851W        W18380  12.261  20.077  11.383
46852W        W18381  32.390  23.993  11.897
46853W        W18382  38.430  26.941   4.539
46854W        W18383  23.562  39.505  14.238
46855W        W18384  12.349  10.603   3.737
46856W        W18385   0.950  37.976   1.282
46857W        W18386  40.105  33.481   1.340
46858W        W18387  17.805   6.647   2.657
46859W        W18388  13.180  25.971  10.921
46860W        W18389  29.443  18.812   2.242
46861W        W18390  15.054  12.120  13.837
46862W        W18391  25.267  42.339   2.701
46863W        W18392  34.315  24.051   4.119
46864W        W18393  12.786  20.549   2.750
46865W        W18394  15.300  12.368   3.083
46866W        W18395  31.438  11.743  11.591
46867W        W18396  43.690  42.856  13.560
46868W        W18397  26.987   0.546  10.131
46869W        W18398  39.424  31.385  13.890
46870W        W18399   6.210   3.073  10.733
46871W        W18400  23.958   8.322   1.681
46872W        W18401  37.097  31.584   2.781
46873W        W18402  44.925  18.905   0.268
46874W        W18403  25.493  16.124   3.232
46875W        W18404   7.317  42.690  10.702
46876W        W18405  25.739   1.066  11.418
46877W        W18406  24.656  36.976   1.025
46878W        W18407  22.614   1.711   2.230
46879W        W18408  36.225   4.451  14.096
46880W        W18409  38.601   3.981  11.131
46881W        W18410  43.010  15.668   4.593
46882W        W18411  40.624  27.115  12.515
46883W        W18412  24.405  34.544  10.320
46884W        W18413  25.873  18.617   1.332
46885W        W18414  23.471  11.628  14.581
46886W        W18415  36.461   1.307  10.834
46887W        W18416  14.356  44.959  11.880
46888W        W18417  37.858  36.400   2.846
46889W        W18418  15.938  19.709   4.089
46890W        W18419  12.127  22.082  14.460
46891W        W18420  12.447   3.994   1.730
46892W        W18421   8.190  30.511  14.129
46893W        W18422  20.560   2.405  14.433
46894W        W18423  42.443  41.121   2.374
46895W        W18424  11.181  37.877   0.478
46896W        W18425  42.970  29.788  11.127
46897W        W18426  37.590  17.826  13.138
46898W        W18427   2.159   8.038  11.558
46899W        W18428  18.875   5.229  12.502
46900W        W18429  29.640   8.595  12.992
46901W        W18430  21.280  31.164  12.363
46902W        W18431  24.327  44.815   3.742
46903W        W18432   1.458   2.251  10.950
46904W        W18433  29.070   3.852  11.409
46905W        W18434  28.184  41.831  13.092
46906W        W18435  44.471  10.285  11.131
46907W        W18436   3.914  33.020  13.292
46908W        W18437   9.948  23.793  12.663
46909W        W18438   8.769   6.179  10.494
46910W        W18439  23.455  37.865   0.817
46911W        W18440  33.235   9.587  11.923
46912W        W18441  43.468  39.025  14.328
46913W        W18442   9.755  37.973  12.354
46914W        W18443  12.245  26.243   4.970
46915W        W18444  33.545  30.685   3.098
46916W        W18445  18.642  17.273   2.729
46917W        W18446  35.847  33.490   3.634
46918W        W18447  19.083  38.784   0.439
46919W        W18448  15.298  29.917   3.842
46920W        W18449   6.279   8.626  13.113
46921W        W18450  40.579   7.428   3.591
46922W        W18451  13.387  33.470   0.323
46923W        W18452  43.801  33.933   1.210
46924W        W18453  29.948  44.044   4.605
46925W        W18454  29.019  17.695  11.547
46926W        W18455  37.880  41.420   0.376
46927W        W18456  23.553  43.242   0.288
46928W        W18457   4.604  26.455  14.435
46929W        W18458  11.371   0.163   2.181
46930W        W18459   2.926   5.750   0.871
46931W        W18460  42.390   6.014  14.669
46932W        W18461  37.378   0.055   1.894
46933W        W18462   5.874   2.358  14.443
46934W        W18463  28.598   9.248  11.108
46935W        W18464  33.613   7.957   4.955
46936W        W18465  35.624  40.145  14.307
46937W        W18466   4.513  27.209  11.011
46938W        W18467  30.696  15.037   4.079
46939W        W18468  41.408  21.111  13.479
46940W        W18469  20.284  37.862  14.941
46941W        W18470  44.409  35.381   0.086
46942W        W18471  44.095  16.732  10.468
46943W        W18472  11.090  36.937  12.587
46944W        W18473  28.135  43.298   0.473
46945W        W18474  14.927  17.780  10.949
46946W        W18475   3.424  23.109   4.572
46947W        W18476  34.551  33.891   4.778
46948W        W18477  31.141  24.055   3.615
46949W        W18478  34.582   4.902   4.199
46950W        W18479  36.048   1.589  11.999
46951W        W18480   2.717   3.490  10.628
46952W        W18481  35.661  44.347  11.468
46953W        W18482  32.890  31.375   2.811
46954W        W18483  38.300   1.601  12.537
46955W        W18484  15.034  24.654   0.248
46956W        W18485   6.415   8.725   4.499
46957W        W18486  32.204  37.376   4.383
46958W        W18487  43.725   1.479   1.804
46959W        W18488  21.484  13.144  11.392
46960W        W18489  38.899  34.473  14.483
46961W        W18490  19.687  41.963  14.679
46962W        W18491  35.331  19.649   1.242
46963W        W18492  18.057  21.603  11.570
46964W        W18493  16.023  41.567   4.779
46965W        W18494  24.582  25.247   1.853
46966W        W18495  31.082   1.458   2.156
46967W        W18496  23.079   0.524   4.615
46968W        W18497  12.051  15.546  11.167
46969W        W18498  44.232  28.953  14.966
46970W        W18499  37.989  32.725   4.266
46971W        W18500   8.272  26.101   4.911
46972W        W18501  19.327  39.269   1.737
46973W        W18502  14.403  35.374  13.445
46974W        W18503  13.546  26.083  12.658
46975W        W18504  39.604  23.769  13.868
46976W        W18505  28.382  38.686   3.362
46977W        W18506  14.608  21.483  13.255
46978W        W18507  17.097  28.881  12.107
46979W        W18508  15.167  20.432   1.353
46980W        W18509  28.387  28.453   0.920
46981W        W18510  15.779  22.720  11.617
46982W        W18511  18.488  11.308  12.406
46983W        W18512  39.517  21.250   0.919
46984W        W18513  22.041  25.209  13.133
46985W        W18514  14.134  42.727  11.059
46986W        W18515  17.002  41.743   1.303
46987W        W18516  42.083  27.477  12.063
46988W        W18517  43.839   0.938  11.070
46989W        W18518   8.150  13.194  14.214
46990W        W18519  27.689  35.532  11.126
46991W        W18520   1.308  26.428   4.183
46992W        W18521  14.848  40.392  12.078
46993W        W18522  43.475  31.493  14.404
46994W        W18523   1.063  26.963  14.962
46995W        W18524   0.858  43.988   2.562
46996W        W18525  23.806  12.149   1.697
46997W        W18526  43.339  42.591  12.775
46998W        W18527  44.539  42.857   5.110
46999W        W18528   0.071  10.020   1.723
47000W        W18529  28.967  25.567   5.028
47001W        W18530  11.188  44.547   3.194
47002W        W18531  10.117   7.678  12.899
47003W        W18532  38.320   6.697   2.336
47004W        W18533  30.133  23.257   1.427
47005W        W18534  36.355  44.050   1.206
47006W        W18535  22.265  42.254   2.761
47007W        W18536   6.380  39.833  12.592
47008W        W18537  11.296  26.109  13.430
47009W        W18538  22.246  32.830   2.753
47010W        W18539  44.847  33.499  13.491
47011W        W18540  41.849  29.239   0.757
47012W        W18541  28.541   4.209   0.889
47013W        W18542  18.161  30.614  10.624
47014W        W18543  37.987   4.704  12.061
47015W        W18544  33.609   7.417   4.144
47016W        W18545  21.652   2.563  12.950
47017W        W18546   6.723  43.827  10.724
47018W        W18547  16.997  15.652   1.809
47019W        W18548  33.362  37.345  12.705
47020W        W18549   1.028  30.022  13.650
47021W        W18550  40.756  13.341  11.453
47022W        W18551  11.332   1.034  14.079
47023W        W18552  32.004  10.259   4.703
47024W        W18553  10.663  28.241   0.292
47025W        W18554  13.275  40.629   2.831
47026W        W18555  39.281   4.311  13.307
47027W        W18556  23.236  11.600   1.743
47028W        W18557  42.490  14.751  14.550
47029W        W18558  19.574  35.122   1.650
47030W        W18559  25.254  35.867  10.971
47031W        W18560  11.672   6.731   4.796
47032W        W18561  38.941   1.329   0.266
47033W        W18562  19.139  37.729  11.708
47034W        W18563  26.498  27.047   4.528
47035W        W18564  23.639  21.837   4.433
47036W        W18565  44.172  37.351  13.464
47037W        W18566  23.937  41.823  13.320
47038W        W18567  34.352  20.829   4.535
47039W        W18568   1.761  16.314  10.878
47040W        W18569  30.156  32.108   4.703
47041W        W18570   9.787  31.344  14.325
47042W        W18571  29.829   4.924  10.566
47043W        W18572  23.597  14.858  10.748
47044W        W18573  13.347  42.853  12.899
47045W        W18574   3.181   7.517  14.789
47046W        W18575  34.072   0.183   4.001
47047W        W18576  22.408  28.433   1.320
47048W        W18577  40.924  40.064  12.506
47049W        W18578  24.165   7.935  11.789
47050W        W18579  44.837  39.137  13.921
47051W        W18580  29.503  13.362  12.426
47052W        W18581   3.670   6.907  14.946
47053W        W18582   0.746  19.344  12.874
47054W        W18583   1.969   5.236   1.869
47055W        W18584  35.302  18.574  10.738
47056W        W18585  20.033  40.830   0.897
47057W        W18586  14.482  23.104   2.853
47058W        W18587  34.472  16.185   3.940
47059W        W18588  41.504  14.801   3.925
47060W        W18589  28.042  19.104   0.912
47061W        W18590  12.308   0.728  14.016
47062W        W18591   1.185  10.932   2.259
47063W        W18592   0.319  28.602  13.118
47064W        W18593  19.270  34.913   0.424
47065W        W18594  31.944  10.740   3.191
47066W        W18595  28.555  38.115  12.521
47067W        W18596   2.452   6.849   2.152
47068W        W18597  10.375  17.230   0.741
47069W        W18598  37.028  13.640  13.224
47070W        W18599   9.330  36.900   3.615
47071W        W18600  11.214   1.458  13.516
47072W        W18601  33.618   5.429  11.161
47073W        W18602   9.317  22.142  10.538
47074W        W18603  12.359  16.312  14.415
47075W        W18604   5.859  14.913   2.877
47076W        W18605  35.519  14.769   0.116
47077W        W18606  12.015  10.225  13.686
47078W        W18607  32.195  42.488   0.290
47079W        W18608  28.043   4.243   0.588
47080W        W18609  14.437   3.929   0.385
47081W        W18610  21.949   5.178   4.157
47082W        W18611  35.157  13.541  12.692
47083W        W18612  22.261  22.522  10.627
47084W        W18613  44.270  18.875  10.616
47085W        W18614  43.995  44.880   2.929
47086W        W18615  28.572   7.137   4.940
47087W        W18616  31.934   3.411   0.436
47088W        W18617  16.277   3.514   4.455
47089W        W18618   1.017  19.629   2.931
47090W        W18619  43.296  11.978  12.626
47091W        W18620  32.111  44.858  13.425
47092W        W18621   6.856  10.364   0.826
47093W        W18622  33.997  33.439   0.778
47094W        W18623  28.161  32.364   0.924
47095W        W18624  26.148  36.310   3.115
47096W        W18625  18.048   0.314  14.428
47097W        W18626  27.150  34.643  11.031
47098W        W18627   8.175   7.920   1.818
47099W        W18628  34.098  27.045  13.566
47100W        W18629   1.366  10.915   2.773
47101W        W18630   1.227  38.063   3.694
47102W        W18631  27.954   2.055   1.876
47103W        W18632  34.582   2.925   3.679
47104W        W18633  38.770  39.360   0.704
47105W        W18634  40.619  26.672   0.312
47106W        W18635  44.058   4.360  14.422
47107W        W18636   8.275   7.258  14.307
47108W        W18637  19.258  18.293   4.077
47109W        W18638  10.909  17.639   2.533
47110W        W18639  25.350  13.689   0.738
47111W        W18640  17.564   5.149   3.181
47112W        W18641  20.679  28.662   3.394
47113W        W18642  31.107  19.812  14.935
47114W        W18643  23.490  29.653  12.384
47115W        W18644  29.644  30.900   1.410
47116W        W18645   6.891  21.186   0.604
47117W        W18646  10.645  17.826  10.714
47118W        W18647  17.666  30.889  14.670
47119W        W18648   0.056  19.947  12.423
47120W        W18649  12.340  13.251  14.669
47121W        W18650   3.553   4.512  14.868
47122W        W18651  37.562  41.860   1.332
47123W        W18652  38.766  39.707  14.869
47124W        W18653  27.066  13.169  12.555
47125W        W18654  11.711   4.454   4.660
47126W        W18655  43.824  19.158   1.769
47127W        W18656  31.586   3.105   4.894
47128W        W18657   8.277  20.460   2.415
47129W        W18658  19.774   0.662  14.953
47130W        W18659   2.943  34.215  12.526
47131W        W18660   2.162  23.745   2.259
47132W        W18661  23.100   3.923   4.140
47133W        W18662   8.128  24.990  13.613
47134W        W18663  32.372  39.243  14.406
47135W        W18664  20.112  25.515   3.208
47136W        W18665  42.743  29.257   1.829
47137W        W18666  30.351  26.701   4.933
47138W        W18667  25.241  41.464  11.178
47139W        W18668   5.683  15.101  12.545
47140W        W18669  10.579  41.780  11.948
47141W        W18670   1.966   1.480   1.799
47142W        W18671   6.939   0.598  12.946
47143W        W18672   3.944   7.524   1.891
47144W        W18673  39.909  15.143  14.361
47145W        W18674  31.310   2.002   0.337
47146W        W18675  13.754   6.317  13.845
47147W        W18676  31.492  26.520  14.563
47148W        W18677  30.901  33.534   2.656
47149W        W18678   0.977  36.006   0.709
47150W        W18679  43.865  12.355   1.313
47151W        W18680  18.492   7.225   0.151
47152W        W18681  20.765  38.099   3.726
47153W        W18682   6.144  37.224   2.724
47154W        W18683  29.213   5.736   3.594
47155W        W18684  32.554  42.430   1.354
47156W        W18685  11.298   6.739   2.884
47157W        W18686  29.524  41.053  14.446
47158W        W18687  23.418  27.601   4.174
47159W        W18688   1.302  31.117   1.159
47160W        W18689  38.427  34.015  11.080
47161W        W18690  21.290  22.487   1.341
47162W        W18691  23.013  31.657  10.971
47163W        W18692   4.137  22.591   0.341
47164W        W18693  13.644  32.379   2.925
47165W        W18694  25.454  22.557   3.549
47166W        W18695  10.376  20.100  11.337
47167W        W18696  14.783  30.201   4.817
47168W        W18697  27.263  27.142   1.728
47169W        W18698  24.137   3.589  14.380
47170W        W18699  11.973  21.782  11.966
47171W        W18700   9.109   2.383   1.677
47172W        W18701   7.212   2.637   2.436
47173W        W18702  44.872   5.657   3.414
47174W        W18703  31.523  20.131   2.903
47175W        W18704  16.238  19.240  13.071
47176W        W18705  33.519  43.383  12.555
47177W        W18706  31.897  42.456   0.862
47178W        W18707   8.376  33.501  13.442
47179W        W18708  38.285   1.517  13.540
47180W        W18709   2.878  23.762   3.848
47181W        W18710  18.793  12.367   0.879
47182W        W18711  36.495  26.222   3.120
47183W        W18712  22.717  10.378  12.669
47184W        W18713   6.175  22.536   1.936
47185W        W18714  42.973  33.434  13.132
47186W        W18715  39.566  27.950  14.607
47187W        W18716  24.053   7.678   3.880
47188W        W18717  36.596  15.808   3.242
47189W        W18718  39.837  32.672   3.180
47190W        W18719  41.366  23.452   0.690
47191W        W18720  23.189  43.780  13.303
47192W        W18721  26.448  39.374  13.688
47193W        W18722  31.427  28.576   3.680
47194W        W18723  22.517   9.144  11.908
47195W        W18724  24.491  39.522   1.375
47196W        W18725  21.023  13.160  11.143
47197W        W18726  32.313   2.009  12.008
47198W        W18727  32.442  27.471   2.222
47199W        W18728  37.975  25.052   1.535
47200W        W18729   1.787  16.297  14.246
47201W        W18730   6.130  22.265   2.758
47202W        W18731  39.207  33.100  14.381
47203W        W18732  27.738  43.529  12.678
47204W        W18733  30.688  28.129   4.145
47205W        W18734  42.445   3.310  12.871
47206W        W18735  37.255  13.959  14.157
47207W        W18736  12.723  32.578  12.830
47208W        W18737  15.502   5.153  12.307
47209W        W18738  18.307  26.633  14.416
47210W        W18739  43.693  33.452   3.130
47211W        W18740  44.006  44.333  13.341
47212W        W18741  42.987  17.269   0.765
47213W        W18742  26.532  40.310   4.989
47214W        W18743  18.109  41.000   1.682
47215W        W18744  13.538  38.927  12.071
47216W        W18745  27.674  34.038   1.263
47217W        W18746  23.623  29.096   0.387
47218W        W18747  19.063  41.560   3.534
47219W        W18748   0.934  40.996  11.581
47220W        W18749   5.425  39.761  12.907
47221W        W18750  31.363  22.608   2.350
47222W        W18751  30.164  41.007  12.540
47223W        W18752   3.527   1.907  13.340
47224W        W18753  21.085  31.943  11.996
47225W        W18754  40.184  25.822  14.871
47226W        W18755   6.111  32.798  14.359
47227W        W18756  19.520  17.241  14.812
47228W        W18757  24.198  32.618   2.292
47229W        W18758  30.724   9.188   3.283
47230W        W18759   1.752  27.979  14.124
47231W        W18760   7.397  19.807  13.002
47232W        W18761  39.350   3.988  13.709
47233W        W18762  22.974   2.496   0.084
47234W        W18763   3.059  40.646   2.710
47235W        W18764  31.398   7.239  12.006
47236W        W18765   0.740  19.500   2.057
47237W        W18766  31.921  17.672   2.343
47238W        W18767  13.009  43.850   3.828
47239W        W18768  17.120  33.314  10.896
47240W        W18769  17.788  21.206   0.357
47241W        W18770   2.397   6.525  13.465
47242W        W18771  35.914   8.716   2.801
47243W        W18772   3.612  18.998   3.150
47244W        W18773   6.369  14.069  13.824
47245W        W18774  26.910   8.849   1.955
47246W        W18775  18.117  36.477  13.295
47247W        W18776  34.035   0.261  13.430
47248W        W18777   2.296  38.898   4.762
47249W        W18778  44.259  28.014  13.950
47250W        W18779  15.081  19.710   2.763
47251W        W18780  22.679  44.811   2.079
47252W        W18781  11.700  27.154   3.653
47253W        W18782  17.340  41.730   2.402
47254W        W18783  35.893  27.980  11.056
47255W        W18784  41.623  21.718   2.680
47256W        W18785   2.441   1.805   0.749
47257W        W18786   9.810  32.336  11.007
47258W        W18787   1.996  32.585  13.003
47259W        W18788  11.623  41.374  13.174
47260W        W18789   1.687  12.146   2.797
47261W        W18790  18.738  42.972   0.904
47262W        W18791  31.352  18.058  13.329
47263W        W18792  21.156  36.657   5.598
47264W        W18793  21.170  20.701  12.340
47265W        W18794   3.308  11.425  12.737
47266W        W18795   5.795  34.381  14.895
47267W        W18796  30.755   0.081   1.220
47268W        W18797   9.267  44.989   0.759
47269W        W18798  43.456   1.424   1.286
47270W        W18799   5.175  39.797   0.806
47271W        W18800  18.229  28.655   2.113
47272W        W18801  14.522   7.682   4.512
47273W        W18802  41.528  11.341   0.031
47274W        W18803  36.765   9.134   2.424
47275W        W18804  17.519  24.166  13.569
47276W        W18805   9.813   0.892  11.259
47277W        W18806  39.250   0.515  14.910
47278W        W18807  35.953  10.750   4.428
47279W        W18808  27.630  12.388  14.750
47280W        W18809  18.319  39.996  13.543
47281W        W18810  19.252  21.485   2.382
47282W        W18811  32.091  25.748   1.283
47283W        W18812  35.976  33.679   3.151
47284W        W18813  18.792  11.093   2.695
47285W        W18814   6.999  41.814   2.623
47286W        W18815  12.352  14.971   2.750
47287W        W18816  16.115  31.422  11.602
47288W        W18817  16.766  20.371   4.264
47289W        W18818  30.533  18.875  11.541
47290W        W18819  23.125  39.449   2.156
47291W        W18820  10.258   9.857   3.965
47292W        W18821   1.608  11.346   4.648
47293W        W18822  20.143  35.644   1.386
47294W        W18823  29.509  31.199   3.215
47295W        W18824  13.829   8.245  11.994
47296W        W18825   0.566  22.283  12.470
47297W        W18826   8.651  36.357  14.479
47298W        W18827  44.926  28.550   1.370
47299W        W18828  13.635  25.440   1.559
47300W        W18829  27.526  41.818   2.118
47301W        W18830  34.404   5.284   2.930
47302W        W18831  28.836  13.816  14.521
47303W        W18832  19.504  16.122   4.231
47304W        W18833  19.612  27.557   4.833
47305W        W18834  31.992  13.083   2.254
47306W        W18835  29.952   1.350   1.089
47307W        W18836   0.367  28.575   4.823
47308W        W18837   2.328   9.858   1.164
47309W        W18838  11.155  10.669   1.268
47310W        W18839  39.584   4.274  11.577
47311W        W18840  41.514  35.415   4.313
47312W        W18841  39.333   9.241  13.412
47313W        W18842  19.769   7.397  13.945
47314W        W18843  40.927  14.289  14.494
47315W        W18844   0.779  22.486   3.250
47316W        W18845   5.870  44.107  13.277
47317W        W18846  25.772  19.551  12.086
47318W        W18847  18.236   9.850  11.913
47319W        W18848  27.626  32.842   3.209
47320W        W18849  43.862  33.786   3.573
47321W        W18850  20.746  27.948  12.588
47322W        W18851  18.004  33.745  14.908
47323W        W18852  25.912  22.308  13.032
47324W        W18853   7.506   5.180   4.075
47325W        W18854  11.036   9.358  14.965
47326W        W18855   4.385   0.855  14.970
47327W        W18856  18.186  22.780  13.492
47328W        W18857   0.315  19.063  12.866
47329W        W18858  24.200  25.808  12.307
47330W        W18859  38.894   7.472  10.847
47331W        W18860   1.724  35.823  10.355
47332W        W18861  12.644   1.546  11.548
47333W        W18862  14.775   9.202  12.085
47334W        W18863  40.475   2.177   3.436
47335W        W18864   8.855   7.414   0.822
47336W        W18865   7.229   9.379   2.751
47337W        W18866   2.824  34.038  11.613
47338W        W18867  37.368  31.499  13.546
47339W        W18868  18.112  12.129  12.105
47340W        W18869  43.077  19.294   1.283
47341W        W18870  25.060   7.117   2.744
47342W        W18871  27.549  38.770   3.797
47343W        W18872  23.902  43.443   2.773
47344W        W18873  15.709  39.377   1.503
47345W        W18874  36.677  35.578   0.395
47346W        W18875  36.943  24.381   1.830
47347W        W18876  23.049  18.657  11.726
47348W        W18877  33.812  20.802   0.427
47349W        W18878  12.577  35.882   0.617
47350W        W18879  12.174  40.792   4.495
47351W        W18880   1.413  32.377  10.652
47352W        W18881   6.885   7.815   2.257
47353W        W18882  15.518  27.939  11.106
47354W        W18883  11.378   6.788  13.059
47355W        W18884  11.660  12.738  10.806
47356W        W18885  27.482  29.935  14.854
47357W        W18886  23.326   4.907  14.190
47358W        W18887  15.792   4.459   1.275
47359W        W18888  31.110  35.091   0.752
47360W        W18889  11.863  44.665  11.900
47361W        W18890  32.645  40.063   4.862
47362W        W18891   2.052  31.097  14.326
47363W        W18892  10.543  34.420  10.836
47364W        W18893  40.603  39.972   1.239
47365W        W18894  19.525  36.046   2.679
47366W        W18895  43.867  40.102   3.714
47367W        W18896  20.461  15.592   3.149
47368W        W18897  36.422   6.048  11.860
47369W        W18898  18.842  41.492  12.863
47370W        W18899  32.302   9.985   2.081
47371W        W18900  17.992  24.498  14.825
47372W        W18901  28.025   0.811  12.886
47373W        W18902  17.567   9.893   3.591
47374W        W18903  23.191  21.735   1.919
47375W        W18904  30.523  15.382  12.239
47376W        W18905  33.560   3.963   4.214
47377W        W18906   1.867  42.914   2.730
47378W        W18907  20.053  23.241   2.617
47379W        W18908   3.868   4.354  11.913
47380W        W18909  21.265  44.323   4.419
47381W        W18910   2.878  22.340  14.480
47382W        W18911   6.702  38.535   1.416
47383W        W18912  14.979  26.031  10.666
47384W        W18913  38.763  21.452   4.718
47385W        W18914  31.161  29.611   2.113
47386W        W18915  19.049  18.819   4.988
47387W        W18916  22.695  33.185  14.055
47388W        W18917   5.651   5.545  13.292
47389W        W18918  42.564  42.581  11.235
47390W        W18919  31.897  30.108   3.271
47391W        W18920  29.251  17.174   4.538
47392W        W18921  39.714  37.874  13.131
47393W        W18922  10.971   7.631  13.510
47394W        W18923  30.972  17.282   3.609
47395W        W18924  14.865  21.205  12.893
47396W        W18925  39.082  16.879   4.107
47397W        W18926  23.000  33.430   4.607
47398W        W18927  23.928  37.817  10.804
47399W        W18928  33.402  26.717   4.544
47400W        W18929   4.547  31.752   1.177
47401W        W18930  36.118  22.648  11.721
47402W        W18931  40.031  33.296  10.611
47403W        W18932  37.040  21.283   0.014
47404W        W18933  24.342  17.197   4.289
47405W        W18934  40.100   8.753   3.180
47406W        W18935  21.607  13.358   0.413
47407W        W18936  22.285  26.554   4.586
47408W        W18937  39.361   0.990   0.156
47409W        W18938  25.211  15.208  12.859
47410W        W18939  31.820  19.654  11.437
47411W        W18940   4.452   2.920  12.567
47412W        W18941  41.831  33.535   3.878
47413W        W18942  29.210  18.464  12.954
47414W        W18943  27.876   6.503  14.016
47415W        W18944   1.447  13.199  11.490
47416W        W18945  10.627  21.057   4.108
47417W        W18946   7.709  17.931  14.296
47418W        W18947  22.678  36.006  13.839
47419W        W18948  22.113  16.451   4.332
47420W        W18949  33.154  43.944  13.526
47421W        W18950  32.576   2.041   1.449
47422W        W18951   9.648  21.150  13.015
47423W        W18952  36.067  36.362  14.371
47424W        W18953  28.378  44.482  11.215
47425W        W18954  26.425  29.570  12.913
47426W        W18955  41.590  24.105   0.911
47427W        W18956   8.655   7.867   1.011
47428W        W18957   6.701  31.898   4.606
47429W        W18958  29.315   0.297   3.781
47430W        W18959   3.224  39.698   0.982
47431W        W18960  40.056  41.075  13.096
47432W        W18961  30.311  11.837  10.767
47433W        W18962  11.576  12.862   1.812
47434W        W18963  32.939  23.942   3.287
47435W        W18964  13.619  35.442  14.816
47436W        W18965   8.775   2.702   1.931
47437W        W18966  13.308  24.665   0.715
47438W        W18967  39.111  42.267  11.155
47439W        W18968   2.973   4.268  11.618
47440W        W18969  15.111  29.736  10.538
47441W        W18970  30.651  30.006   0.376
47442W        W18971  31.512  39.116   0.378
47443W        W18972  25.036   7.634  13.441
47444W        W18973  30.367  14.540  10.753
47445W        W18974  16.670  33.881   2.504
47446W        W18975  33.372  23.544   3.122
47447W        W18976  21.788  34.866  11.559
47448W        W18977  44.450   3.735  12.396
47449W        W18978  34.912  41.567  10.741
47450W        W18979  21.501   4.429   1.424
47451W        W18980  34.190  37.470   1.044
47452W        W18981  19.059  14.183  13.377
47453W        W18982  28.011  41.541  12.693
47454W        W18983  19.263   1.400  11.349
47455W        W18984  38.605  18.651   1.138
47456W        W18985  29.328   8.623   3.993
47457W        W18986  30.118  35.880   2.819
47458W        W18987   5.046  10.036   2.390
47459W        W18988  38.417  33.576  11.333
47460W        W18989  43.928  35.653  12.773
47461W        W18990  14.601  25.025   1.392
47462W        W18991   3.764  22.136  14.955
47463W        W18992  11.825  32.306  12.852
47464W        W18993  29.210  26.969   5.179
47465W        W18994  27.601  18.837   1.056
47466W        W18995   6.226  41.837   3.630
47467W        W18996   5.861  40.636  11.562
47468W        W18997   9.118  31.621   2.768
47469W        W18998  20.814  18.292  14.470
47470W        W18999  37.030  44.539  12.927
47471W        W19000  22.218   9.648   0.904
47472W        W19001  44.888  42.676   4.741
47473W        W19002   9.895  34.587   0.768
47474W        W19003  11.770  37.064  12.063
47475W        W19004   3.665  31.934   0.038
47476W        W19005  44.754  35.436   4.126
47477W        W19006   3.988  30.182  12.466
47478W        W19007  26.967  40.735   1.420
47479W        W19008  30.359  15.246  11.481
47480W        W19009  18.700   9.397   0.554
47481W        W19010   4.645  42.810   2.741
47482W        W19011  20.995   4.275  13.437
47483W        W19012  13.370   6.365  11.810
47484W        W19013  36.438  16.297   0.359
47485W        W19014   7.943   7.756  10.787
47486W        W19015  25.299  20.454   4.896
47487W        W19016   1.932  40.304  11.124
47488W        W19017  34.653  25.149   4.886
47489W        W19018   0.636  37.974   1.739
47490W        W19019   4.550  32.453   2.489
47491W        W19020   2.264  29.583   3.436
47492W        W19021  19.466  30.598  13.006
47493W        W19022  41.324   9.780  10.777
47494W        W19023  24.149  27.016   0.021
47495W        W19024  28.996   0.294   2.205
47496W        W19025  30.367  36.172  12.430
47497W        W19026  37.946  40.824   3.770
47498W        W19027  26.255  25.821   3.315
47499W        W19028  40.868   7.315  11.517
47500W        W19029  30.984  17.750  12.517
47501W        W19030  42.361  22.196  14.348
47502W        W19031  38.763   4.316   0.793
47503W        W19032  31.691  29.408  12.100
47504W        W19033  12.682  31.167   1.340
47505W        W19034  40.998  11.111  12.563
47506W        W19035  10.219   0.991  12.006
47507W        W19036   4.370  21.470  11.170
47508W        W19037  34.788  34.309  12.012
47509W        W19038  39.687  15.075  10.504
47510W        W19039   7.651  25.110  13.436
47511W        W19040   1.135  12.361   3.671
47512W        W19041  34.351   1.168   1.383
47513W        W19042   9.892   1.545  11.792
47514W        W19043   9.886  16.676   0.535
47515W        W19044  28.912  24.882   1.818
47516W        W19045  14.760  35.240  14.665
47517W        W19046  28.851  25.218  11.154
47518W        W19047   6.056  29.913  13.075
47519W        W19048  17.291  25.903  11.143
47520W        W19049   0.505   5.246  11.951
47521W        W19050  31.005  38.094   2.586
47522W        W19051   6.764  44.336   4.389
47523W        W19052  16.324   6.759  11.944
47524W        W19053  33.525  14.530  13.971
47525W        W19054  18.298  23.055  10.762
47526W        W19055   2.693  18.294   4.234
47527W        W19056  36.088  44.086  14.380
47528W        W19057   5.430  17.278   3.198
47529W        W19058  24.507  24.190   2.631
47530W        W19059  37.649  34.306  11.068
47531W        W19060  14.758  39.768   1.439
47532W        W19061  31.864  32.870  11.546
47533W        W19062  25.009  13.145  14.541
47534W        W19063  27.046   9.592  11.171
47535W        W19064  25.963   7.392   4.291
47536W        W19065  25.982  10.368  13.466
47537W        W19066  18.718  28.028   3.944
47538W        W19067  40.965  28.021  10.608
47539W        W19068  23.172  21.130  12.768
47540W        W19069   0.287  35.016   2.793
47541W        W19070   9.293  37.078   4.093
47542W        W19071   4.911  36.938   1.236
47543W        W19072  19.659  43.057   1.732
47544W        W19073   2.959  37.430  10.285
47545W        W19074  39.930  39.231   1.155
47546W        W19075  10.117  38.341   3.885
47547W        W19076  11.605  27.906   0.800
47548W        W19077  30.869  38.726   4.764
47549W        W19078  39.901  19.307  11.529
47550W        W19079  25.757   6.199   1.005
47551W        W19080   0.628  31.563   9.809
47552W        W19081  24.629  43.813  14.438
47553W        W19082   9.663  14.272   1.404
47554W        W19083  42.982   9.232   0.899
47555W        W19084  23.204  43.912  14.832
47556W        W19085   2.744  34.884   0.489
47557W        W19086  22.614  38.854  11.327
47558W        W19087  27.984  35.006   2.561
47559W        W19088  34.278  29.671   4.571
47560W        W19089  31.021  31.121  14.484
47561W        W19090  39.452  26.642  14.737
47562W        W19091  36.548  10.252  11.162
47563W        W19092  32.473  22.055   0.859
47564W        W19093   2.939  35.956   3.277
47565W        W19094  44.145  30.326   0.394
47566W        W19095  37.803   3.428  11.104
47567W        W19096  10.899  20.017  14.748
47568W        W19097  31.206  22.596   5.051
47569W        W19098  12.353  27.120   0.783
47570W        W19099  16.701  32.593  11.932
47571W        W19100  14.755  14.095  10.593
47572W        W19101  32.614  21.534   0.974
47573W        W19102  22.768  19.432  11.132
47574W        W19103  43.537  43.997   4.044
47575W        W19104   4.230  30.428  12.079
47576W        W19105  36.961  27.333  14.489
47577W        W19106  18.622   7.566  13.423
47578W        W19107   8.472  12.888  14.880
47579W        W19108  25.097  30.322  10.675
47580W        W19109  24.145   4.249  12.030
47581W        W19110  32.830  10.430   0.887
47582W        W19111   6.409  40.027  12.129
47583W        W19112   0.273  13.714  12.693
47584W        W19113   9.102  26.674  12.095
47585W        W19114  35.676  21.609  13.924
47586W        W19115  27.931  17.836   1.447
47587W        W19116  13.698  32.425   0.981
47588W        W19117  35.608  14.518  14.664
47589W        W19118  23.624   1.753   1.364
47590W        W19119   5.929  41.461  13.007
47591W        W19120  36.614  29.364  11.120
47592W        W19121   9.446  30.493   2.360
47593W        W19122  40.132  28.378   0.900
47594W        W19123  15.142  39.378   1.593
47595W        W19124  21.770  31.046  12.491
47596W        W19125  28.382  15.809   0.314
47597W        W19126  40.998  17.652   1.678
47598W        W19127  27.959  35.335  11.830
47599W        W19128  21.151  33.365   4.570
47600W        W19129  17.544   3.872  10.543
47601W        W19130  32.996  13.618  12.229
47602W        W19131  37.983  32.500   4.737
47603W        W19132  12.265   9.714  14.867
47604W        W19133   3.349  14.352   0.916
47605W        W19134  42.018   5.945   4.149
47606W        W19135  39.296  39.773  10.572
47607W        W19136  32.945  35.919   4.612
47608W        W19137  16.507  22.500  11.169
47609W        W19138  32.607  13.873   1.337
47610W        W19139  43.465  43.891   3.146
47611W        W19140   9.414   3.767  10.658
47612W        W19141  21.497   8.288   0.798
47613W        W19142  38.731  43.639  13.319
47614W        W19143  36.891  18.756   2.956
47615W        W19144  36.320  25.438  14.416
47616W        W19145  19.139   9.117   4.211
47617W        W19146  23.526   7.153   4.929
47618W        W19147  15.176   4.827  13.244
47619W        W19148  26.862  11.653   2.222
47620W        W19149  34.102   9.251   1.865
47621W        W19150  24.115   4.050  14.610
47622W        W19151  17.395  31.053   0.445
47623W        W19152  25.167   4.951  10.625
47624W        W19153   5.074   4.302  14.831
47625W        W19154  38.628  29.028  10.853
47626W        W19155   6.265  38.614  14.025
47627W        W19156  18.246  26.917  14.846
47628W        W19157  23.697  23.677   2.191
47629W        W19158  27.491  12.098  13.429
47630W        W19159  39.318  15.885   3.796
47631W        W19160  38.239  20.111  13.099
47632W        W19161  34.375  36.965   4.899
47633W        W19162  14.292  32.618  14.559
47634W        W19163  22.231  18.378   4.650
47635W        W19164  43.473  34.562  12.621
47636W        W19165  27.493  23.046   0.807
47637W        W19166   7.346  42.809   0.232
47638W        W19167  19.297  18.015   4.513
47639W        W19168  24.187  11.180  11.341
47640W        W19169   0.550  10.159  10.641
47641W        W19170  29.685  15.549  11.498
47642W        W19171   8.703  21.080  11.142
47643W        W19172   4.955  34.998   2.344
47644W        W19173  39.443  29.205  11.008
47645W        W19174  32.185  12.386  13.120
47646W        W19175  17.108  20.721  14.353
47647W        W19176   6.404   7.934  12.551
47648W        W19177  32.826  14.090  10.510
47649W        W19178  22.614  40.291  14.588
47650W        W19179  20.274  37.455   0.274
47651W        W19180  43.183  37.589  13.348
47652W        W19181   5.960  24.393  14.111
47653W        W19182  13.123  37.260   2.183
47654W        W19183  22.767  37.824  13.553
47655W        W19184  11.083  23.952  13.895
47656W        W19185  17.290  24.971   3.245
47657W        W19186  36.440   5.141  11.729
47658W        W19187  12.215  36.866   1.934
47659W        W19188  16.742  33.263   2.654
47660W        W19189  33.583  12.108  11.086
47661W        W19190   7.217  38.604   1.339
47662W        W19191  28.913  44.815   2.658
47663W        W19192  25.587  25.003  10.214
47664W        W19193   9.430   2.943   3.271
47665W        W19194  28.328  28.915  11.945
47666W        W19195  20.016  40.292  13.685
47667W        W19196   6.831  25.971  10.705
47668W        W19197   4.817  36.692   3.642
47669W        W19198  23.221   9.094  10.924
47670W        W19199  11.846   4.288   3.840
47671W        W19200  40.325  42.423  10.973
47672W        W19201  19.649  38.302   4.700
47673W        W19202  44.711  24.200  14.959
47674W        W19203  24.206  11.338  10.860
47675W        W19204  19.531  25.012   2.819
47676W        W19205   1.169  42.323   2.853
47677W        W19206  12.413  22.286   4.081
47678W        W19207  19.661  33.313   1.359
47679W        W19208   2.352  40.866   4.721
47680W        W19209  38.876   9.772   3.945
47681W        W19210   5.720   2.910  10.580
47682W        W19211   2.278  28.362   0.820
47683W        W19212  43.288   2.659  11.619
47684W        W19213  27.516  44.725   3.385
47685W        W19214   4.135   2.684   3.308
47686W        W19215  40.023   8.440  14.965
47687W        W19216   5.462  16.462  10.554
47688W        W19217  21.973  16.582   3.244
47689W        W19218  42.791  31.189   1.396
47690W        W19219  21.350  22.180  10.687
47691W        W19220  20.743  28.433   3.849
47692W        W19221  27.908  44.622   0.728
47693W        W19222   6.324   9.756   4.113
47694W        W19223  14.754   6.996  11.579
47695W        W19224   2.517   8.953  14.828
47696W        W19225   8.662  41.737   3.206
47697W        W19226  21.240   6.729   1.754
47698W        W19227  19.747  19.531   3.265
47699W        W19228   1.939  24.780  11.652
47700W        W19229   7.868  22.973   3.221
47701W        W19230  11.623  32.857  14.446
47702W        W19231  38.194  19.233  11.244
47703W        W19232  24.019   0.365  11.195
47704W        W19233  16.157  43.925  14.332
47705W        W19234   2.865   2.259   0.280
47706W        W19235  14.089  40.628   4.895
47707W        W19236  10.409  39.258  14.764
47708W        W19237  12.556  31.972   0.553
47709W        W19238  26.746  16.530  12.001
47710W        W19239  10.095  37.933  11.930
47711W        W19240  15.786  31.950  10.859
47712W        W19241  12.395  29.991  12.567
47713W        W19242   7.269  29.979  11.696
47714W        W19243  40.467  17.132  10.901
47715W        W19244  19.523  34.609   1.732
47716W        W19245  36.435   5.323  12.545
47717W        W19246  36.675  26.027   0.853
47718W        W19247  33.951   2.373  12.548
47719W        W19248  41.948   0.674  13.163
47720W        W19249  22.196  14.539   1.822
47721W        W19250  12.787   9.386  13.516
47722W        W19251  15.231  20.573  12.397
47723W        W19252  24.116  26.441   0.531
47724W        W19253  38.582  25.933   3.276
47725W        W19254  28.126  29.408  14.480
47726W        W19255  41.981  32.183   4.517
47727W        W19256  22.369  30.143   0.812
47728W        W19257  25.517  32.520  13.338
47729W        W19258   3.906   2.393   2.902
47730W        W19259  19.798  11.078  14.491
47731W        W19260   4.508   1.856   0.163
47732W        W19261   5.960  43.358  11.228
47733W        W19262   9.728  34.487   2.727
47734W        W19263  34.021  35.917  13.353
47735W        W19264  41.705  19.768  13.021
47736W        W19265  16.743   4.851  12.450
47737W        W19266  41.975  34.877   1.639
47738W        W19267  36.833  34.553   0.174
47739W        W19268   2.889  19.097   1.312
47740W        W19269  19.851   0.156   1.817
47741W        W19270   7.918   1.532  14.956
47742W        W19271  13.244  33.685  11.426
47743W        W19272  33.863  22.080  14.073
47744W        W19273  15.071  37.520  12.027
47745W        W19274  32.952  31.178   3.302
47746W        W19275  15.179  41.838   2.015
47747W        W19276  30.406  17.062  11.522
47748W        W19277  10.756  39.035  14.444
47749W        W19278  13.353   2.830  11.959
47750W        W19279  24.100  24.085  11.499
47751W        W19280  16.332  36.363   0.025
47752W        W19281  28.632  37.614  12.455
47753W        W19282  32.444  17.749   0.257
47754W        W19283  16.108  12.470  14.287
47755W        W19284  15.604  41.486   2.682
47756W        W19285  14.699  34.138   0.994
47757W        W19286  23.410  19.011  12.581
47758W        W19287  13.153  42.373  12.884
47759W        W19288  26.159  43.799  14.425
47760W        W19289  40.962  40.352   1.468
47761W        W19290  39.916  10.403   2.104
47762W        W19291  26.018  38.420   4.087
47763W        W19292  30.708   5.754   2.096
47764W        W19293  42.430  44.030   1.263
47765W        W19294  13.889  17.646  12.349
47766W        W19295  39.050   3.847   4.095
47767W        W19296  15.013  12.983   2.428
47768W        W19297  22.224   6.429   2.846
47769W        W19298   4.421  41.895   4.061
47770W        W19299  10.568  15.122  10.972
47771W        W19300  35.461  41.881  10.900
47772W        W19301  24.638   8.722  12.422
47773W        W19302  15.354  25.553  11.888
47774W        W19303  39.165  13.286  12.482
47775W        W19304  25.031  18.903   1.179
47776W        W19305   7.103   8.610   3.194
47777W        W19306  26.561   7.458  11.918
47778W        W19307  17.609   9.202  14.917
47779W        W19308  43.595  14.310   5.153
47780W        W19309  34.251  38.981   4.043
47781W        W19310   9.362   4.074   4.047
47782W        W19311  11.324  11.950  13.956
47783W        W19312  15.256  28.719   0.422
47784W        W19313  32.925  42.369  12.627
47785W        W19314  35.302  27.525   2.434
47786W        W19315  36.644  26.355   9.884
47787W        W19316  36.572  36.448   0.949
47788W        W19317  33.674  27.634  11.117
47789W        W19318   3.806  19.656   9.931
47790W        W19319   6.838  32.562   3.408
47791W        W19320   9.689  37.113  10.561
47792W        W19321   8.711  32.275  12.971
47793W        W19322  31.483  29.102   1.432
47794W        W19323   8.515  10.967  12.298
47795W        W19324  13.335  41.738  11.105
47796W        W19325  16.357  32.920  13.446
47797W        W19326   3.856  22.229   2.223
47798W        W19327  35.009  25.245  11.717
47799W        W19328  13.345   9.730  14.030
47800W        W19329  28.108  41.455   4.645
47801W        W19330   3.415  39.507   0.094
47802W        W19331  13.282  18.000  13.368
47803W        W19332   0.643  34.344  14.200
47804W        W19333  36.295  24.106  10.875
47805W        W19334  42.534  28.225   0.159
47806W        W19335  11.314  42.396  12.126
47807W        W19336  43.886  25.429   2.215
47808W        W19337   3.384  43.011   0.931
47809W        W19338  43.506  19.258  14.224
47810W        W19339  17.640  29.643  12.874
47811W        W19340  20.074  15.794   0.778
47812W        W19341  44.396  43.507  13.368
47813W        W19342  32.150  42.408   4.513
47814W        W19343   3.608  17.516  10.997
47815W        W19344  38.130  28.604  14.755
47816W        W19345  43.780  24.843  13.910
47817W        W19346  30.040   0.904   4.420
47818W        W19347   6.869   5.001   1.117
47819W        W19348  34.347  24.276   1.226
47820W        W19349  35.997  26.489   4.309
47821W        W19350  43.060   9.706   2.274
47822W        W19351  10.221  19.667  14.790
47823W        W19352  19.617   3.926  12.663
47824W        W19353   9.936  35.401   0.340
47825W        W19354  29.121  34.851  11.657
47826W        W19355  15.233  30.623   0.442
47827W        W19356  30.118  26.981   3.663
47828W        W19357   9.161  10.336  12.368
47829W        W19358  27.961  25.728   0.826
47830W        W19359  26.639   7.875  12.913
47831W        W19360   4.345  32.916  13.604
47832W        W19361  35.568  40.917   1.470
47833W        W19362   6.366  30.898   0.103
47834W        W19363  34.473  13.484  10.559
47835W        W19364  11.196  24.435  14.034
47836W        W19365  40.845  27.625  10.914
47837W        W19366  12.190   1.532   3.337
47838W        W19367  22.027  10.753  14.012
47839W        W19368   4.417  31.551   4.120
47840W        W19369  24.439  26.191  13.981
47841W        W19370  19.021   3.790   4.612
47842W        W19371   6.362  17.742  13.864
47843W        W19372  35.400  35.081   0.450
47844W        W19373  11.642   9.419   1.918
47845W        W19374   2.981  13.740  13.086
47846W        W19375   8.805  40.375   3.537
47847W        W19376   4.764  37.849  13.956
47848W        W19377  43.779  39.313  13.498
47849W        W19378   4.209  42.851   2.392
47850W        W19379   3.522  16.785  11.094
47851W        W19380   7.720  32.692   3.883
47852W        W19381  34.079  10.059  10.917
47853W        W19382  35.719  35.608   3.359
47854W        W19383  14.255  28.569  12.877
47855W        W19384  21.124  42.874   4.577
47856W        W19385  24.138  33.619  14.234
47857W        W19386  29.062  42.374   2.845
47858W        W19387  10.672  11.065   4.072
47859W        W19388   2.305  17.386  11.198
47860W        W19389  11.289  43.821   0.784
47861W        W19390   9.855  22.482  10.609
47862W        W19391   6.878  18.083   0.960
47863W        W19392  27.235  10.506  11.936
47864W        W19393  25.771  42.493  11.104
47865W        W19394  33.575  41.363   4.080
47866W        W19395   9.222  17.526  14.923
47867W        W19396  33.145  20.636   2.246
47868W        W19397   1.763   4.007  14.750
47869W        W19398   3.381  21.130   5.053
47870W        W19399  35.544  22.507   3.300
47871W        W19400  44.000  40.789   0.419
47872W        W19401  34.682  37.845  11.240
47873W        W19402  19.783  10.581  12.051
47874W        W19403   2.484  42.898  12.865
47875W        W19404   1.183  31.222  12.611
47876W        W19405  27.485  28.319   0.898
47877W        W19406  37.081  38.575  11.489
47878W        W19407  28.157  24.756  11.645
47879W        W19408  37.063  19.543  14.833
47880W        W19409  38.538  26.750   2.292
47881W        W19410  36.614  21.065   1.910
47882W        W19411  28.708  41.531   3.361
47883W        W19412  30.343  15.209   0.018
47884W        W19413  18.137  27.724  12.126
47885W        W19414  10.805   7.119  14.895
47886W        W19415  28.568  36.604   0.754
47887W        W19416   7.783  34.462   0.215
47888W        W19417  18.514  40.884   2.477
47889W        W19418  28.147  22.688  13.870
47890W        W19419  16.081  33.423   3.856
47891W        W19420  37.437  35.870   9.742
47892W        W19421  44.560  32.205   2.808
47893W        W19422  42.900  31.065  12.703
47894W        W19423   7.940  20.651  10.872
47895W        W19424  16.011  25.505   0.245
47896W        W19425  16.515   2.195   0.909
47897W        W19426   5.353   8.849  13.555
47898W        W19427  13.516  36.044   2.753
47899W        W19428   1.842  32.580  13.960
47900W        W19429  13.094  35.972   0.705
47901W        W19430   8.306  42.338   0.348
47902W        W19431   6.412  18.189  14.755
47903W        W19432   9.397   8.576  14.736
47904W        W19433  31.631  34.196   1.705
47905W        W19434  17.751  37.784   3.369
47906W        W19435   9.804  11.895  11.446
47907W        W19436   2.153  42.417   2.839
47908W        W19437   0.995  43.739   1.612
47909W        W19438  38.150  36.381  13.509
47910W        W19439  25.069  10.822   2.267
47911W        W19440  16.081  23.735   3.625
47912W        W19441   4.203  15.390   0.018
47913W        W19442  18.748  25.016  12.250
47914W        W19443  32.454  44.148  12.035
47915W        W19444  43.689  27.249   4.082
47916W        W19445   2.536  21.679   0.898
47917W        W19446   0.281  28.385  13.585
47918W        W19447  20.082  25.669   2.328
47919W        W19448  25.488  27.689  13.052
47920W        W19449  22.772  17.220   4.962
47921W        W19450  20.121  30.559  14.684
47922W        W19451  28.302  32.569  10.236
47923W        W19452  29.924  31.083  13.536
47924W        W19453   4.358  39.091  12.021
47925W        W19454  13.991  30.477   2.586
47926W        W19455  27.933   6.798  14.431
47927W        W19456   7.920   7.151  11.576
47928W        W19457  43.899   6.706  14.841
47929W        W19458  21.565  20.813   2.298
47930W        W19459  21.289  32.096   1.776
47931W        W19460  29.906   4.874  12.654
47932W        W19461  17.916  34.584  12.872
47933W        W19462  29.662  12.894  12.602
47934W        W19463  37.411  34.057  10.656
47935W        W19464  42.218  37.464  12.442
47936W        W19465  19.528   0.013   2.774
47937W        W19466   9.659  28.334   1.348
47938W        W19467  24.563  18.660  13.885
47939W        W19468  40.486  12.787  10.313
47940W        W19469  40.000  43.324  13.344
47941W        W19470  12.545   2.464   2.228
47942W        W19471   8.786   4.658   2.835
47943W        W19472  16.449  23.934  12.412
47944W        W19473  10.919   2.044  12.466
47945W        W19474  14.796  17.865  11.972
47946W        W19475   0.944  31.837   0.243
47947W        W19476  12.128   9.389   4.533
47948W        W19477  13.687  27.136  12.479
47949W        W19478  19.768   7.887  14.680
47950W        W19479  43.319  27.456  11.182
47951W        W19480   3.849  23.495  14.474
47952W        W19481  17.435   3.351  12.894
47953W        W19482   4.044  29.109   3.879
47954W        W19483  39.271  24.349   1.849
47955W        W19484  26.852  23.075  12.603
47956W        W19485  19.749   5.095   3.682
47957W        W19486   4.854  38.781   2.271
47958W        W19487  34.052   3.668   2.320
47959W        W19488   6.255   1.915  11.159
47960W        W19489  33.015   1.804  13.218
47961W        W19490  39.263   8.228   0.779
47962W        W19491  23.020  20.504   0.723
47963W        W19492  40.704  28.093  10.171
47964W        W19493  20.997  43.006  14.416
47965W        W19494  40.988  36.247   2.719
47966W        W19495  28.360  27.084   3.297
47967W        W19496  11.158  39.394  12.222
47968W        W19497   8.659  20.062  12.219
47969W        W19498  18.515  16.212  13.973
47970W        W19499  18.640  24.718   0.474
47971W        W19500   8.325   3.753   4.046
47972W        W19501  23.285  29.135  13.975
47973W        W19502  35.106  28.855   2.234
47974W        W19503  31.508  38.600  13.186
47975W        W19504  26.759  39.848  10.237
47976W        W19505  41.466  27.680   4.582
47977W        W19506   1.202  18.698  14.586
47978W        W19507  25.985  17.546  11.161
47979W        W19508  18.064  31.133   4.209
47980W        W19509  39.390   9.203  11.527
47981W        W19510  22.204  19.024   2.311
47982W        W19511   7.255   0.066   1.414
47983W        W19512  11.632  13.667   4.131
47984W        W19513  18.223   1.753  12.040
47985W        W19514  14.915   9.577  11.164
47986W        W19515  36.957  13.188  13.801
47987W        W19516   3.324  15.878  14.901
47988W        W19517  44.275  19.683   2.190
47989W        W19518   0.374  37.761  12.771
47990W        W19519  18.284  33.092   4.932
47991W        W19520  27.767  39.897   4.467
47992W        W19521  31.542   2.182   1.316
47993W        W19522  30.643  34.321   0.280
47994W        W19523   5.690  10.770  12.186
47995W        W19524  36.424   8.634  14.865
47996W        W19525  31.792  40.325   4.827
47997W        W19526  27.591  16.557  14.201
47998W        W19527  26.586  26.541   2.780
47999W        W19528  26.520  35.630  14.768
48000W        W19529  11.414  33.667  11.392
48001W        W19530  13.648  25.392  13.579
48002W        W19531  43.482   5.698   3.892
48003W        W19532  26.572  18.012  13.094
48004W        W19533  26.862  33.435   1.195
48005W        W19534  27.383   2.911  14.968
48006W        W19535   1.242  11.216   1.275
48007W        W19536  30.398  42.922  10.208
48008W        W19537  10.182  35.724   0.688
48009W        W19538   2.376  19.689  12.078
48010W        W19539  13.319  39.776  10.918
48011W        W19540  26.516  19.114   4.829
48012W        W19541  30.955  29.982   3.174
48013W        W19542  23.902  27.436   3.232
48014W        W19543   8.147  29.928  11.553
48015W        W19544   6.614   1.781   1.803
48016W        W19545  13.602  10.282   4.057
48017W        W19546  37.322  28.464   2.241
48018W        W19547  28.186  17.143   2.358
48019W        W19548  25.194  32.116  11.179
48020W        W19549  11.506  40.703  10.081
48021W        W19550  29.688  16.156  12.579
48022W        W19551  43.071  36.951  11.126
48023W        W19552  44.441   9.153   3.581
48024W        W19553   3.005  32.976   4.953
48025W        W19554  11.237  44.883  12.484
48026W        W19555  38.461  10.683  11.185
48027W        W19556  23.245  30.095  13.884
48028W        W19557  43.301  11.311   0.009
48029W        W19558  23.981  20.591  14.072
48030W        W19559  31.679  41.796  14.767
48031W        W19560  16.500  44.774   1.302
48032W        W19561  21.260  36.511  13.496
48033W        W19562  14.094   2.752  12.529
48034W        W19563  21.282  25.344   4.133
48035W        W19564  38.171  15.152   1.087
48036W        W19565   9.660  21.119   1.726
48037W        W19566   9.134   1.869   2.892
48038W        W19567  41.836  35.085   4.591
48039W        W19568  33.093  29.419   3.411
48040W        W19569   3.961  37.386  12.830
48041W        W19570  36.495  15.628   2.748
48042W        W19571  18.197  16.618   0.529
48043W        W19572   3.748  30.745   0.226
48044W        W19573  44.270  23.770  11.676
48045W        W19574  15.603  19.790   5.043
48046W        W19575  43.819  11.673  11.686
48047W        W19576  25.205  12.457  12.743
48048W        W19577  35.972   1.323  10.664
48049W        W19578  42.483  24.701  13.158
48050W        W19579  25.448  29.145   0.824
48051W        W19580  16.858   8.193   2.478
48052W        W19581   6.325   8.169  10.368
48053W        W19582   5.116   9.328   0.654
48054W        W19583  39.346  12.634   3.183
48055W        W19584  29.321  13.789  12.154
48056W        W19585  44.384  39.792   2.549
48057W        W19586  32.738   8.286   0.936
48058W        W19587  20.346  34.987  11.499
48059W        W19588  27.052   2.860   3.204
48060W        W19589  12.824  12.307  12.486
48061W        W19590  20.481  25.505   1.963
48062W        W19591  17.501  42.330  13.643
48063W        W19592   0.952  25.211  14.477
48064W        W19593  32.421  43.973   0.363
48065W        W19594  18.302  20.535  13.327
48066W        W19595  19.501  35.785   3.989
48067W        W19596  43.467  30.612  14.499
48068W        W19597  11.903  10.859   3.724
48069W        W19598  31.680  44.238  11.591
48070W        W19599  15.558   3.196  11.596
48071W        W19600  31.870  13.246   0.924
48072W        W19601  34.817   7.372   3.749
48073W        W19602   8.791  12.584   3.842
48074W        W19603  37.294  40.373   1.209
48075W        W19604  29.942  35.953  11.514
48076W        W19605   6.614  23.112  12.615
48077W        W19606  39.380  28.189  13.582
48078W        W19607   3.906   1.072  12.169
48079W        W19608  35.897  26.997   4.438
48080W        W19609  30.962   8.843   4.495
48081W        W19610  26.627  33.194   3.795
48082W        W19611   3.163  19.814  12.101
48083W        W19612  17.733   2.937  12.840
48084W        W19613  21.704  44.951   1.850
48085W        W19614  33.486  12.795  13.390
48086W        W19615  38.838  33.510   0.506
48087W        W19616  43.916  33.989  10.256
48088W        W19617  33.032   8.869  13.790
48089W        W19618  18.162  21.712   2.629
48090W        W19619   0.778  39.221  11.072
48091W        W19620  17.329  27.214  14.808
48092W        W19621  29.610   9.433  14.808
48093W        W19622  43.596  20.036   1.314
48094W        W19623  43.211   9.628  13.932
48095W        W19624  34.937  42.564  12.838
48096W        W19625  20.548  11.373   1.295
48097W        W19626  34.415  37.346   2.740
48098W        W19627  29.709  23.111  13.436
48099W        W19628  37.584   8.780  11.153
48100W        W19629  32.844  36.222   5.042
48101W        W19630   3.380   8.967   1.899
48102W        W19631   7.672  39.829   4.338
48103W        W19632   8.361  34.110  11.546
48104W        W19633   0.798  39.055  14.564
48105W        W19634  20.701   2.892  14.334
48106W        W19635   4.193  12.295   1.370
48107W        W19636  12.164   3.963   0.876
48108W        W19637  35.380  24.860   5.138
48109W        W19638  24.054  18.103  14.920
48110W        W19639   2.223  20.725  13.838
48111W        W19640  31.570  31.242  11.214
48112W        W19641  39.353   6.579   1.658
48113W        W19642  40.766  17.010   4.163
48114W        W19643  44.225  11.075   1.128
48115W        W19644  34.732  44.071   2.406
48116W        W19645  10.002  26.403   3.528
48117W        W19646   7.230  44.131  11.616
48118W        W19647  30.481   6.647   4.611
48119W        W19648  40.265  38.455   4.217
48120W        W19649  29.913   5.080  14.577
48121W        W19650   7.891  23.232  14.027
48122W        W19651  42.364  38.910   0.884
48123W        W19652  26.644  40.274   3.370
48124W        W19653  34.687  18.519  12.923
48125W        W19654   6.314  37.788  12.579
48126W        W19655  36.393   0.429   1.950
48127W        W19656  28.445   6.274  10.975
48128W        W19657   7.609  23.066   1.762
48129W        W19658  24.678  34.393  14.737
48130W        W19659  44.488   9.376  12.052
48131W        W19660  13.352  12.729  10.236
48132W        W19661  13.379  19.440  12.595
48133W        W19662  27.399   4.349   4.068
48134W        W19663  19.562  20.585  14.447
48135W        W19664  11.460  29.595  13.656
48136W        W19665  12.645  39.019   3.949
48137W        W19666  18.794  11.876  11.195
48138W        W19667  29.089  33.993   0.751
48139W        W19668  38.637   6.300  12.559
48140W        W19669  15.848  39.907   4.664
48141W        W19670  43.356  10.504   2.312
48142W        W19671  18.529  17.964   4.065
48143W        W19672  29.094   2.031  12.395
48144W        W19673  26.370  35.659   5.122
48145W        W19674  11.270  40.955   3.115
48146W        W19675  24.173   2.329   0.337
48147W        W19676  13.428   5.173  12.499
48148W        W19677  41.524  30.644  11.590
48149W        W19678   2.496  29.288   2.830
48150W        W19679   9.932   9.262   2.263
48151W        W19680  37.973  16.824   3.877
48152W        W19681  30.534  20.990  11.629
48153W        W19682  15.251   7.677   4.308
48154W        W19683   4.808  11.123  11.917
48155W        W19684   5.294   9.830  13.032
48156W        W19685   7.356  32.423  11.208
48157W        W19686  36.967  12.208  13.070
48158W        W19687  44.806  11.517   2.872
48159W        W19688   0.175   4.298  11.094
48160W        W19689  12.321  23.954  12.291
48161W        W19690  40.936  29.994   0.689
48162W        W19691  17.794   2.335   0.232
48163W        W19692  14.211  23.791   3.368
48164W        W19693  14.267  20.783   4.585
48165W        W19694   7.655   5.656  14.966
48166W        W19695  39.785  30.399  11.254
48167W        W19696   6.925  37.060  10.714
48168W        W19697  11.730  15.801   4.658
48169W        W19698  44.450   2.537  11.067
48170W        W19699   9.997  37.665   0.782
48171W        W19700  43.977  30.866   4.011
48172W        W19701  36.439   9.117  14.609
48173W        W19702  19.783  26.182   2.300
48174W        W19703   7.284  29.449  11.730
48175W        W19704  21.421  44.465  12.060
48176W        W19705  11.315  37.993   2.263
48177W        W19706  36.885  24.597  12.192
48178W        W19707  11.312  23.953   0.894
48179W        W19708  27.989  11.846   3.175
48180W        W19709  30.024  44.371  14.738
48181W        W19710   5.067   7.297   4.151
48182W        W19711  34.659  25.613   3.634
48183W        W19712   6.000  27.031   1.725
48184W        W19713  14.038  32.991  14.306
48185W        W19714  20.137  29.921  11.017
48186W        W19715   8.162   7.421   1.720
48187W        W19716  14.722  13.742   4.825
48188W        W19717  40.739  22.179  10.786
48189W        W19718   2.209  37.492   1.188
48190W        W19719  24.089   2.305   2.760
48191W        W19720  16.085  13.039  12.717
48192W        W19721  23.232  26.099   1.695
48193W        W19722  24.443  36.136   2.809
48194W        W19723  25.718  14.997   1.859
48195W        W19724  43.515   4.915   4.304
48196W        W19725   9.725  12.853   4.774
48197W        W19726  32.109  42.012  10.993
48198W        W19727  28.187   3.297   0.220
48199W        W19728  31.986   6.011  11.588
48200W        W19729   8.682  18.128  14.343
48201W        W19730  23.650   7.063   2.765
48202W        W19731  37.883  32.913  11.491
48203W        W19732  36.579  10.752  10.877
48204W        W19733   7.149   4.892  11.519
48205W        W19734  36.088  41.548  12.038
48206W        W19735  27.483  27.236  14.928
48207W        W19736  25.973  22.565   0.615
48208W        W19737   3.859  30.962   3.040
48209W        W19738  35.439  29.144  10.595
48210W        W19739  21.041  38.161  14.022
48211W        W19740  15.651   4.936   0.512
48212W        W19741  19.036  27.359   1.247
48213W        W19742  17.629   9.291   1.398
48214W        W19743  14.557  16.549   4.052
48215W        W19744  21.962   5.766  14.052
48216W        W19745  38.350  38.537   2.157
48217W        W19746  25.674  11.814   4.194
48218W        W19747   2.692  13.674   3.110
48219W        W19748  27.550  32.941  13.523
48220W        W19749  21.713  35.107  14.280
48221W        W19750   5.480   6.894  12.691
48222W        W19751  40.211  14.499  12.891
48223W        W19752   6.842  13.206  13.886
48224W        W19753  27.700  13.521   0.212
48225W        W19754  15.074  26.997  13.494
48226W        W19755  34.173  38.061   1.281
48227W        W19756   6.276  43.838  13.497
48228W        W19757  11.052  30.620   4.085
48229W        W19758  24.104  25.611   4.638
48230W        W19759  18.260  29.983   1.525
48231W        W19760  15.350  32.657   1.450
48232W        W19761  40.774  22.212   2.707
48233W        W19762  18.521  18.993  12.815
48234W        W19763   8.689  12.051   3.117
48235W        W19764   6.952  11.788   0.057
48236W        W19765   8.125  39.563   4.374
48237W        W19766   5.609   5.198   0.982
48238W        W19767  20.934  30.161  13.847
48239W        W19768  28.388   5.644  11.655
48240W        W19769   2.627   1.343   2.692
48241W        W19770  14.404  24.391   3.793
48242W        W19771  35.278  44.832   4.747
48243W        W19772  29.427  43.113  13.016
48244W        W19773  19.185  12.831   3.697
48245W        W19774  32.525  25.518   2.256
48246W        W19775  28.904  19.488  14.265
48247W        W19776  15.681  10.710  13.531
48248W        W19777  31.590  18.984   0.677
48249W        W19778  17.125  17.829  12.992
48250W        W19779  10.548  19.467   1.396
48251W        W19780  32.002  41.290  10.344
48252W        W19781  13.794  38.010   2.892
48253W        W19782   7.931   5.509   0.451
48254W        W19783  33.702  36.557   0.809
48255W        W19784  18.522  36.548  14.370
48256W        W19785   2.958  16.444   4.084
48257W        W19786  16.462  14.316   1.202
48258W        W19787  43.255  13.323  10.474
48259W        W19788  19.961   1.804  11.185
48260W        W19789  11.807  14.055  10.488
48261W        W19790  27.473  35.064   4.523
48262W        W19791  29.701  29.140  14.924
48263W        W19792  42.107   8.904  10.299
48264W        W19793   2.946  44.701  14.540
48265W        W19794  34.825  26.769   3.486
48266W        W19795  29.262  31.565   0.767
48267W        W19796  44.925  12.869   3.775
48268W        W19797   0.171  41.877  13.833
48269W        W19798  12.943  21.691  14.946
48270W        W19799   1.455   9.408   3.804
48271W        W19800  33.694  16.066   4.929
48272W        W19801  36.992  34.141   1.489
48273W        W19802   9.089  16.791   1.887
48274W        W19803  31.085  19.047   0.497
48275W        W19804  23.025  17.508   2.873
48276W        W19805  12.604  22.212   1.897
48277W        W19806  11.724  24.500   2.676
48278W        W19807  41.913  19.316  13.074
48279W        W19808  12.253   0.767  10.934
48280W        W19809  19.300  22.626   1.838
48281W        W19810  40.918   0.436   4.785
48282W        W19811  26.632  12.709   4.095
48283W        W19812  23.498  10.937   3.211
48284W        W19813  32.596   8.644  11.160
48285W        W19814   4.180  10.269   1.262
48286W        W19815  15.434   5.535  11.801
48287W        W19816   3.330  40.592  13.850
48288W        W19817  24.064   3.991  14.043
48289W        W19818   7.865  30.599   2.373
48290W        W19819   1.765   9.904  12.864
48291W        W19820  43.092  41.557  10.377
48292W        W19821  11.135  44.330   1.002
48293W        W19822  12.311  32.823  14.012
48294W        W19823  13.226  28.585   3.611
48295W        W19824  24.412  12.764   0.765
48296W        W19825  14.623  23.693  11.187
48297W        W19826   4.256   2.282   0.941
48298W        W19827  28.060  23.542  14.907
48299W        W19828  39.898   8.755  10.694
48300W        W19829  14.307  26.167  11.931
48301W        W19830   5.201  15.018  12.413
48302W        W19831   0.440   3.963   1.263
48303W        W19832  14.587  20.222  14.723
48304W        W19833  39.919   0.087   3.536
48305W        W19834  34.667   7.137  12.933
48306W        W19835  39.010  40.475   3.110
48307W        W19836   4.326  23.088  12.652
48308W        W19837   7.398  18.259  13.577
48309W        W19838   8.844  30.923  10.864
48310W        W19839  20.746  25.464   1.111
48311W        W19840  14.224  17.643  12.778
48312W        W19841  20.051   7.191  12.655
48313W        W19842   7.274  29.595  14.158
48314W        W19843   3.004  40.362   0.299
48315W        W19844  23.622   0.849   2.871
48316W        W19845   4.847  25.410  12.939
48317W        W19846  13.385   3.297  12.876
48318W        W19847  36.010  11.319   2.782
48319W        W19848  23.632   9.500   2.818
48320W        W19849  26.653  24.139   0.708
48321W        W19850  44.272  10.226   1.265
48322W        W19851  37.836  23.658   0.942
48323W        W19852  42.976  40.238  14.330
48324W        W19853  22.148   2.690   2.358
48325W        W19854  28.939  11.951  14.261
48326W        W19855   4.196  30.031  10.669
48327W        W19856   7.378  34.335   3.017
48328W        W19857  38.325   5.101   3.770
48329W        W19858  37.001  29.921   1.313
48330W        W19859  41.287  11.699   3.266
48331W        W19860  13.748  19.727  10.485
48332W        W19861  38.365  42.488  11.566
48333W        W19862  28.400   1.243   1.729
48334W        W19863   6.294  18.398   1.281
48335W        W19864   1.652  30.949  13.355
48336W        W19865   6.759  40.513  11.654
48337W        W19866  31.595   9.101   3.237
48338W        W19867  24.075  31.334   3.354
48339W        W19868  21.278  12.769   0.256
48340W        W19869  13.121  14.369   1.813
48341W        W19870   8.435   7.052  12.006
48342W        W19871   8.674  26.012   1.600
48343W        W19872  37.475  32.017  14.202
48344W        W19873  19.607  33.998  13.950
48345W        W19874  16.542   2.196   4.137
48346W        W19875  32.215  29.623  11.306
48347W        W19876   9.344  40.807  13.066
48348W        W19877  22.151  43.123  13.504
48349W        W19878  15.285   6.562  10.716
48350W        W19879  13.543  32.987  14.427
48351W        W19880  28.903  28.321  14.529
48352W        W19881   1.778  41.114  10.564
48353W        W19882   7.849  31.976   3.606
48354W        W19883  34.018  12.582   0.535
48355W        W19884  40.621   5.924  14.376
48356W        W19885  34.339   3.466  11.878
48357W        W19886   5.491  37.514   1.137
48358W        W19887  36.799  28.688  14.866
48359W        W19888  39.546  22.184   3.723
48360W        W19889  28.068   5.665   2.692
48361W        W19890   1.612  27.148   1.463
48362W        W19891   1.845  25.038  12.518
48363W        W19892  29.629  30.249  13.798
48364W        W19893  21.451  18.053  11.528
48365W        W19894  37.441  14.083   0.512
48366W        W19895  15.194   0.922  12.865
48367W        W19896   8.172  15.700  14.498
48368W        W19897  31.964   5.596   3.499
48369W        W19898  13.602  40.486  10.643
48370W        W19899  34.206  10.132  14.503
48371W        W19900   5.289   8.022  11.104
48372W        W19901  12.056  12.773  12.161
48373W        W19902  15.120  39.479  10.541
48374W        W19903  12.405   9.926  11.443
48375W        W19904  14.048   7.886   3.135
48376W        W19905  41.015   0.369   3.338
48377W        W19906   2.437  22.604  14.048
48378W        W19907  28.339  29.976  12.049
48379W        W19908  15.696  43.954  14.855
48380W        W19909  19.500   8.831   3.854
48381W        W19910  17.037  19.940   0.488
48382W        W19911  22.100  24.494  13.791
48383W        W19912  30.350  44.393   3.014
48384W        W19913  16.731  41.312   2.665
48385W        W19914  42.299  27.948  10.542
48386W        W19915   8.388   5.172  13.502
48387W        W19916  23.928   4.249   0.044
48388W        W19917  37.008   7.140   4.845
48389W        W19918  43.647  32.365   4.546
48390W        W19919  23.750   7.714  12.060
48391W        W19920   7.679  20.032  14.728
48392W        W19921  34.925  36.874   0.909
48393W        W19922  15.913  19.022   5.129
48394W        W19923  20.383  18.069   0.287
48395W        W19924   3.819  37.968   1.266
48396W        W19925  11.741  24.235   0.698
48397W        W19926   4.196  29.192   4.905
48398W        W19927  17.737  21.099   0.895
48399W        W19928  22.013  24.618   0.741
48400W        W19929  17.223   3.169  14.244
48401W        W19930  20.160   2.684   0.061
48402W        W19931   7.872  11.395   4.195
48403W        W19932  11.401  34.448   0.172
48404W        W19933   9.079   8.729  10.707
48405W        W19934  27.397  21.465   4.069
48406W        W19935  17.189   6.484   2.853
48407W        W19936   6.821  15.556   4.542
48408W        W19937  16.225  11.716  11.557
48409W        W19938   3.264  10.309   1.919
48410W        W19939  15.054   7.975   0.920
48411W        W19940  32.014   8.836  14.737
48412W        W19941  21.656  34.193   1.215
48413W        W19942  27.914   0.279  11.438
48414W        W19943  12.811   6.429   4.826
48415W        W19944  32.878  32.207   3.302
48416W        W19945   8.687  29.247  12.581
48417W        W19946  33.519   7.250  11.708
48418W        W19947  23.635  44.809  10.660
48419W        W19948  35.709  19.655   4.534
48420W        W19949   9.622   1.719  13.074
48421W        W19950  27.344  30.899  11.811
48422W        W19951  22.504  21.289  14.242
48423W        W19952  11.798  34.005  11.436
48424W        W19953  19.024  24.488   1.727
48425W        W19954  22.613  38.905   1.832
48426W        W19955   2.235  34.859   3.237
48427W        W19956  23.186   6.668   1.265
48428W        W19957  28.743  25.656   2.309
48429W        W19958  14.177  41.172   2.716
48430W        W19959  26.987   8.658   2.822
48431W        W19960   2.791  11.798   1.966
48432W        W19961  44.913  25.078   4.578
48433W        W19962  21.564  33.016   3.242
48434W        W19963  44.700  17.706  14.824
48435W        W19964  39.472  18.049  13.564
48436W        W19965  25.289   9.328   0.378
48437W        W19966  15.572  30.518   1.797
48438W        W19967  16.269   2.470   4.591
48439W        W19968   7.563  28.007  11.120
48440W        W19969  20.696  16.881   2.672
48441W        W19970  21.804   0.456   0.767
48442W        W19971   4.859  30.618   2.380
48443W        W19972  38.649  12.958  14.806
48444W        W19973  33.050  42.405   2.207
48445W        W19974  32.136  30.846   0.294
48446W        W19975  42.774  14.592   0.803
48447W        W19976  15.568   8.238  12.374
48448W        W19977   6.399  23.645   2.874
48449W        W19978   1.325   9.824  14.821
48450W        W19979  44.893  13.712  14.948
48451W        W19980  11.219  24.107   5.011
48452W        W19981  27.156  23.468   3.186
48453W        W19982   7.753   8.700   2.643
48454W        W19983  30.080   3.716  10.769
48455W        W19984  11.161  25.405  13.930
48456W        W19985  36.371  28.625   2.366
48457W        W19986   8.319  29.058   3.131
48458W        W19987   4.418  37.432   4.202
48459W        W19988  40.801  16.283  14.078
48460W        W19989  24.551   9.088  14.746
48461W        W19990  11.085  43.721   4.561
48462W        W19991  38.027  40.725  10.845
48463W        W19992  31.065  43.049   0.531
48464W        W19993  19.743  24.232  14.954
48465W        W19994  21.413  41.494  12.089
48466W        W19995  44.286  33.811   1.395
48467W        W19996   0.791  10.259   4.989
48468W        W19997  16.132  42.339   4.191
48469W        W19998   3.169   0.554   3.620
48470W        W19999  10.139   8.181  11.269
48471W        W20000  41.850  24.705  14.309
48472W        W20001  21.763  15.185  12.115
48473W        W20002  40.506  19.948   1.702
48474W        W20003  16.212  35.979   0.381
48475W        W20004  16.054  44.024   1.845
48476W        W20005  32.566   8.337   4.600
48477W        W20006   1.176  37.488   1.334
48478W        W20007  34.557  34.982  13.394
48479W        W20008   7.186   3.658   4.121
48480W        W20009   4.742  37.845   4.230
48481W        W20010  18.796  38.052   4.512
48482W        W20011  15.582  31.584   5.075
48483W        W20012   9.858  14.683  12.037
48484W        W20013   4.184  43.764  11.415
48485W        W20014  43.728   3.919  13.564
48486W        W20015   8.958  12.464  13.168
48487W        W20016  43.930  22.137   0.999
48488W        W20017  20.147  22.306   2.191
48489W        W20018   1.350  17.721  12.478
48490W        W20019  18.163  19.895  10.195
48491W        W20020  16.089  35.929   3.399
48492W        W20021  34.858  29.915  11.172
48493W        W20022  23.760  25.175  13.061
48494W        W20023  24.078  31.799   1.822
48495W        W20024  26.595  32.339   4.072
48496W        W20025  36.952  39.367   4.140
48497W        W20026   5.570  16.047  13.484
48498W        W20027  24.205   5.009  14.438
48499W        W20028  43.983  19.935   4.437
48500W        W20029   4.318  11.612  12.511
48501W        W20030  23.090  36.883  12.017
48502W        W20031   9.874   2.733   2.727
48503W        W20032  12.615  43.393   1.981
48504W        W20033   5.764  36.586   0.380
48505W        W20034  23.191  12.775   3.650
48506W        W20035   5.867  37.904   0.389
48507W        W20036  11.914  44.996   0.883
48508W        W20037  25.966   2.688   1.813
48509W        W20038   2.142  15.612  14.062
48510W        W20039  10.640  18.765  12.816
48511W        W20040   2.445  23.105   4.491
48512W        W20041  26.550   4.852   4.593
48513W        W20042  15.394  39.351   3.569
48514W        W20043  23.199   4.726  10.691
48515W        W20044  44.580   7.475   4.216
48516W        W20045  27.636  33.544   0.883
48517W        W20046  31.635  30.892  12.055
48518W        W20047  24.104  30.175   4.328
48519W        W20048  43.897  33.767   1.729
48520W        W20049  34.538  15.258   1.684
48521W        W20050  19.025   7.673  11.208
48522W        W20051  28.077  15.144   3.237
48523W        W20052  22.642  39.951  12.822
48524W        W20053  14.722   7.062   0.936
48525W        W20054   4.346  12.601   2.803
48526W        W20055  16.346   2.711   0.900
48527W        W20056   4.500   9.955  10.471
48528W        W20057  16.298   8.444   2.328
48529W        W20058  36.597   2.915  11.018
48530W        W20059   6.383  31.704  10.730
48531W        W20060  12.690  35.039  10.794
48532W        W20061  23.078  43.054   0.351
48533W        W20062  23.823  37.790   1.958
48534W        W20063  27.680  11.767  14.793
48535W        W20064  13.055  24.308   0.455
48536W        W20065  41.038  27.031  11.623
48537W        W20066  15.281  29.071  14.184
48538W        W20067   5.061   2.657   4.521
48539W        W20068  23.235  11.292  11.492
48540W        W20069  39.850  28.691   2.869
48541W        W20070   0.330  25.379   4.381
48542W        W20071  23.657  14.707  13.510
48543W        W20072  31.286   3.098  12.630
48544W        W20073  19.694  31.673   2.482
48545W        W20074   2.722  33.442  11.956
48546W        W20075  19.971  11.134  11.233
48547W        W20076  15.717  25.976  14.914
48548W        W20077  22.300  24.359  13.324
48549W        W20078  43.221  17.026   1.276
48550W        W20079  42.527  18.363   0.486
48551W        W20080   3.078  22.762   2.674
48552W        W20081  44.818  13.867  12.979
48553W        W20082   4.546  15.582   3.648
48554W        W20083  18.868  41.990   3.742
48555W        W20084   4.058   2.839  13.499
48556W        W20085  40.570  37.270  12.551
48557W        W20086  20.013  21.293   9.849
48558W        W20087   6.837  19.254  11.961
48559W        W20088  39.320   0.661  11.593
48560W        W20089   7.306  30.538  10.779
48561W        W20090  36.798  28.104  10.944
48562W        W20091  11.792   2.205  14.516
48563W        W20092  44.749  14.563  14.397
48564W        W20093  27.384  38.634   1.817
48565W        W20094  20.164  12.617  10.877
48566W        W20095  14.532  20.103  13.356
48567W        W20096  21.690  33.947  11.453
48568W        W20097  30.639  41.926   3.349
48569W        W20098  37.320  16.616  11.186
48570W        W20099   7.406  28.515   1.702
48571W        W20100  40.807  14.261   0.511
48572W        W20101   5.002   3.837   3.334
48573W        W20102   7.046  42.958  11.051
48574W        W20103  25.351  37.024   0.244
48575W        W20104  35.836   9.275  14.006
48576W        W20105  31.407  16.636  14.847
48577W        W20106  15.687  19.493   9.805
48578W        W20107  42.090  14.692   2.410
48579W        W20108  17.823  32.796  11.866
48580W        W20109   2.921  43.344   3.107
48581W        W20110  11.621  25.998  11.908
48582W        W20111  41.953  42.270   2.735
48583W        W20112  13.582  30.620   4.113
48584W        W20113  26.535  41.482  13.611
48585W        W20114   5.411  35.407   1.464
48586W        W20115   3.773  27.967   2.332
48587W        W20116  34.361  28.083  10.766
48588W        W20117  32.136  43.375  11.606
48589W        W20118  19.806  11.591   4.773
48590W        W20119  40.926   2.269  12.924
48591W        W20120  35.972  34.832   1.724
48592W        W20121  28.659  27.024  12.514
48593W        W20122  41.694  28.457   4.899
48594W        W20123  13.579  36.404   4.796
48595W        W20124  15.271   5.641   0.512
48596W        W20125  14.188  26.498   2.119
48597W        W20126  44.440  23.257   4.890
48598W        W20127  14.858  11.626   0.416
48599W        W20128  31.829  33.744   3.079
48600W        W20129  37.860  23.086   1.770
48601W        W20130  33.984  33.551   3.313
48602W        W20131  21.582  24.039   1.843
48603W        W20132  42.110  25.738   4.242
48604W        W20133  25.034  12.364   2.225
48605W        W20134  36.047  32.992  10.938
48606W        W20135  35.965  31.112   1.566
48607W        W20136  19.598  17.661   0.522
48608W        W20137  43.106  20.337  11.306
48609W        W20138  39.995  13.118  13.567
48610W        W20139  12.116  27.035  13.859
48611W        W20140  38.330   1.432   1.132
48612W        W20141  28.288  39.472   1.963
48613W        W20142  25.732   8.215  12.932
48614W        W20143  13.826   9.725   0.581
48615W        W20144  14.004  41.023  12.077
48616W        W20145  42.104  35.963   1.941
48617W        W20146  11.038  37.115  13.499
48618W        W20147  14.783   6.059   0.652
48619W        W20148  44.430  25.063   1.906
48620W        W20149  43.479  11.226  14.112
48621W        W20150   1.251  40.342  14.701
48622W        W20151  13.604   1.710  11.260
48623W        W20152   8.151   0.864  14.481
48624W        W20153   3.435  29.207   1.795
48625W        W20154  20.470  12.108   4.771
48626W        W20155  35.482  37.607  11.609
48627W        W20156  41.826  30.683  12.934
48628W        W20157   8.371   4.144  13.411
48629W        W20158  15.098  40.365   1.360
48630W        W20159   9.836  36.154   2.263
48631W        W20160   2.086  16.050  11.189
48632W        W20161   6.887   7.493   2.682
48633W        W20162  11.446  19.858  13.012
48634W        W20163  33.644  10.605  14.294
48635W        W20164  37.389  42.552   4.587
48636W        W20165  17.213  11.416   0.422
48637W        W20166  36.904  23.125   4.121
48638W        W20167  32.490  30.896   4.941
48639W        W20168  20.265  24.293   3.654
48640W        W20169  20.341   3.218  13.043
48641W        W20170   9.384  36.047   3.230
48642W        W20171  28.869  24.784   4.650
48643W        W20172  24.172  31.574   4.860
48644W        W20173  19.222  27.063  10.659
48645W        W20174  17.183   9.388   0.520
48646W        W20175  42.274  35.024   1.222
48647W        W20176   8.024  42.977  11.274
48648W        W20177  44.710   6.831  13.117
48649W        W20178  36.036  34.535  10.798
48650W        W20179   5.677  32.508  11.606
48651W        W20180  12.574  36.549  11.229
48652W        W20181  19.364  13.354   2.687
48653W        W20182  22.201  42.099   4.063
48654W        W20183  16.546  17.712   4.523
48655W        W20184   6.265   0.357  13.411
48656W        W20185  24.941   2.430   4.066
48657W        W20186  24.912  15.634   4.204
48658W        W20187  31.098  41.080   2.412
48659W        W20188  41.396   7.864  14.828
48660W        W20189  30.844  30.683  14.880
48661W        W20190  29.113  35.357   5.535
48662W        W20191  38.009  13.842   2.699
48663W        W20192   9.152  10.744  14.665
48664W        W20193  42.538  30.107  13.322
48665W        W20194  36.519  22.069  14.869
48666W        W20195  16.270  42.746   0.304
48667W        W20196  34.973  29.921   0.831
48668W        W20197  37.966   0.748  14.496
48669W        W20198  28.171  20.064  11.203
48670W        W20199  20.226  44.371  13.883
48671W        W20200  43.985  20.801   1.329
48672W        W20201  43.247   9.722  11.017
48673W        W20202   9.749  28.877  14.733
48674W        W20203  28.256  18.986   2.642
48675W        W20204   5.779  38.923  13.946
48676W        W20205  44.095  37.877  12.562
48677W        W20206  10.611  41.282  13.000
48678W        W20207  34.263  42.224   2.924
48679W        W20208   2.904  19.025  13.407
48680W        W20209  33.731   9.795  12.559
48681W        W20210  31.150   5.388  12.436
48682W        W20211   0.725  39.517   3.584
48683W        W20212  32.033  23.275   5.073
48684W        W20213   6.977  11.819  12.378
48685W        W20214   8.376  27.930  14.765
48686W        W20215  17.864  27.786   5.194
48687W        W20216   0.843  34.005  11.164
48688W        W20217  19.032  12.148   1.781
48689W        W20218  36.645  39.122   0.413
48690W        W20219  42.567   6.406   4.692
48691W        W20220  43.807   3.874  12.806
48692W        W20221  16.153   5.068  14.379
48693W        W20222   6.125  32.139  12.990
48694W        W20223   2.885  11.156  12.564
48695W        W20224  37.292  20.041   3.193
48696W        W20225   2.645  19.615   4.531
48697W        W20226   3.463  43.825  13.583
48698W        W20227   0.881  38.406  12.661
48699W        W20228  21.976  16.730  12.951
48700W        W20229  25.926  21.173   4.631
48701W        W20230  35.809   3.335  12.044
48702W        W20231  40.813  11.273   4.490
48703W        W20232  25.765  36.622  11.233
48704W        W20233   3.146  34.075   1.938
48705W        W20234  23.419  33.749   3.688
48706W        W20235  39.101  41.821  14.843
48707W        W20236  29.572   8.436   1.968
48708W        W20237  21.243  17.743  12.150
48709W        W20238   8.963  24.539   2.679
48710W        W20239  25.195  41.442   2.287
48711W        W20240  33.111   3.173  10.929
48712W        W20241  18.123  34.106  11.491
48713W        W20242   4.762  18.447   2.310
48714W        W20243   3.018  41.383  13.940
48715W        W20244  39.784  24.189  13.075
48716W        W20245  40.530  13.296  14.812
48717W        W20246  44.453  17.523   0.269
48718W        W20247   0.908  32.881   0.498
48719W        W20248  32.087   9.447  14.071
48720W        W20249  28.569  21.319   1.365
48721W        W20250  36.597   8.397   0.404
48722W        W20251  20.248  41.773  12.856
48723W        W20252  22.608   5.657   4.627
48724W        W20253   4.768  27.249   0.064
48725W        W20254  21.107  29.974   1.559
48726W        W20255  19.310  35.147   4.696
48727W        W20256  42.728   9.928  14.967
48728W        W20257  19.724   8.673   3.393
48729W        W20258  17.663  24.063   1.705
48730W        W20259  24.086   2.777   1.978
48731W        W20260  30.631  40.373   0.224
48732W        W20261  41.169   8.152   2.574
48733W        W20262   8.350  44.342  14.289
48734W        W20263  38.709  25.420   0.856
48735W        W20264   4.887  31.537  11.787
48736W        W20265  26.602  37.939   4.583
48737W        W20266  33.596   1.570   2.689
48738W        W20267  36.074  41.912   2.262
48739W        W20268  37.816  18.986  10.909
48740W        W20269  40.948  13.578   4.138
48741W        W20270   6.355  13.149  10.988
48742W        W20271  31.359  43.304   4.746
48743W        W20272  29.379  32.001   1.482
48744W        W20273  10.579  20.531   1.354
48745W        W20274  29.222  33.611  14.852
48746W        W20275  44.540  27.443   2.214
48747W        W20276  40.524  39.933  13.435
48748W        W20277   9.564  31.849   0.853
48749W        W20278  24.213   6.267  10.109
48750W        W20279  28.011  26.493   3.976
48751W        W20280   2.735  40.901  12.482
48752W        W20281  43.029  18.003  11.802
48753W        W20282  11.281  17.728  11.573
48754W        W20283   3.395  21.824   0.535
48755W        W20284  27.998  26.153  10.392
48756W        W20285  17.842   0.940   0.828
48757W        W20286  44.931  32.118  12.613
48758W        W20287   8.570   5.446   2.396
48759W        W20288   1.019  17.167   1.488
48760W        W20289   1.868   3.011  10.784
48761W        W20290  19.386  15.382  14.289
48762W        W20291  13.669  37.382   0.987
48763W        W20292  12.548  19.100   0.794
48764W        W20293  43.205  39.029   1.290
48765W        W20294  11.193  19.981  12.394
48766W        W20295  42.270  21.964  11.128
48767W        W20296  13.937   2.397  12.873
48768W        W20297  41.470  18.734  12.873
48769W        W20298  23.577  20.260   1.761
48770W        W20299  17.996   5.277  12.068
48771W        W20300  12.625  40.358  12.554
48772W        W20301   7.950  32.960  11.242
48773W        W20302  32.170  12.559   1.349
48774W        W20303   1.829   3.995  12.011
48775W        W20304  21.233  22.462   2.263
48776W        W20305  36.318  20.797  14.298
48777W        W20306  27.478  21.112   2.302
48778W        W20307   9.827   5.362  13.860
48779W        W20308  38.095  14.407   4.123
48780W        W20309  32.996   8.827  14.438
48781W        W20310   1.520  12.712   3.523
48782W        W20311  43.961  15.743  14.352
48783W        W20312   4.432  40.742  12.956
48784W        W20313  30.564  29.003  12.722
48785W        W20314  17.381   7.203   3.176
48786W        W20315  26.083  21.314   2.410
48787W        W20316  13.172  26.000  11.417
48788W        W20317  33.146  31.372   3.734
48789W        W20318  28.202  25.101  12.473
48790W        W20319   4.363  35.328  14.361
48791W        W20320  10.958  10.275   0.981
48792W        W20321   9.534  41.474   4.192
48793W        W20322   6.794  10.413   3.379
48794W        W20323   4.283  25.229  12.496
48795W        W20324  13.679  17.686   4.393
48796W        W20325   2.356  12.643   3.094
48797W        W20326  28.634   9.263   1.904
48798W        W20327   0.189   6.822  12.923
48799W        W20328  27.088  24.731  14.461
48800W        W20329  26.035  25.705  12.572
48801W        W20330  33.602   0.072   3.729
48802W        W20331   3.318   1.329  13.045
48803W        W20332  29.494  17.571  12.384
48804W        W20333  25.503  31.858   1.221
48805W        W20334   4.428  10.391  13.627
48806W        W20335  44.544  35.125  14.268
48807W        W20336  33.422  37.346   3.678
48808W        W20337  12.635  29.421   3.113
48809W        W20338   2.687  34.118  13.842
48810W        W20339   4.801  36.641  14.565
48811W        W20340  38.623   5.303  12.293
48812W        W20341  35.858   0.835   0.040
48813W        W20342  11.163  37.670  12.137
48814W        W20343  14.288  12.386   2.867
48815W        W20344  34.704  25.669   1.291
48816W        W20345  30.569   2.468  14.363
48817W        W20346  36.520  22.398   0.283
48818W        W20347  42.260  35.029  14.400
48819W        W20348  13.679  28.673  12.542
48820W        W20349  38.857  32.672   1.936
48821W        W20350   7.952  22.838  10.536
48822W        W20351   6.090  33.028   3.308
48823W        W20352  32.403  40.525  13.753
48824W        W20353  32.120  33.411   4.337
48825W        W20354   0.046   1.758   0.281
48826W        W20355  32.053  33.342   3.333
48827W        W20356  41.309   3.933  12.622
48828W        W20357   7.629  25.141  14.399
48829W        W20358  31.799   0.512   4.190
48830W        W20359  17.637   5.616   0.758
48831W        W20360  10.706  18.914   2.782
48832W        W20361  23.727  32.915   4.559
48833W        W20362  34.012  27.077  12.200
48834W        W20363  25.111   4.981   0.672
48835W        W20364  36.608  24.779   3.680
48836W        W20365  43.968  27.965   3.283
48837W        W20366  18.543  39.088  13.536
48838W        W20367  42.268  34.352   1.771
48839W        W20368  39.079   9.510   2.453
48840W        W20369  23.673  39.560   2.634
48841W        W20370  40.500  20.602  11.985
48842W        W20371  20.241  41.489   3.565
48843W        W20372   3.831  30.916  11.088
48844W        W20373  30.892  13.301  11.879
48845W        W20374  33.828   0.548   1.759
48846W        W20375  11.354   3.020  11.166
48847W        W20376  17.838   6.431   1.281
48848W        W20377  33.428  35.920   2.830
48849W        W20378  12.992  38.284   3.262
48850W        W20379   3.808   5.363   4.304
48851W        W20380  20.257  42.172   4.839
48852W        W20381  36.566  20.929   4.255
48853W        W20382   0.495  18.120  14.618
48854W        W20383  13.310  42.476   3.004
48855W        W20384  29.985  27.146  12.326
48856W        W20385  10.911  11.432  14.296
48857W        W20386  21.509  34.529   3.655
48858W        W20387  21.673  35.417  14.718
48859W        W20388   0.377  35.190  12.998
48860W        W20389  37.293  36.347  12.922
48861W        W20390  28.054  26.526   4.474
48862W        W20391   6.811   0.785  12.303
48863W        W20392  17.383   6.684   1.206
48864W        W20393   8.563  36.890   1.484
48865W        W20394  41.077  33.560   2.302
48866W        W20395  17.651  29.961   0.737
48867W        W20396  34.419  42.948   4.678
48868W        W20397  15.677  17.018   5.051
48869W        W20398  20.599  29.989   2.806
48870W        W20399  27.552  26.351   2.415
48871W        W20400   1.112   5.962  12.924
48872W        W20401  15.085  31.840  11.957
48873W        W20402   7.298  30.541  14.057
48874W        W20403  27.582  44.227   3.501
48875W        W20404   9.810  28.103   3.718
48876W        W20405  15.537  15.577   2.815
48877W        W20406  15.781  41.278   0.174
48878W        W20407  31.119  25.119  13.424
48879W        W20408   6.965   4.304   1.949
48880W        W20409  23.031  40.983   0.060
48881W        W20410  21.644  40.374   3.267
48882W        W20411   6.226  23.037  11.615
48883W        W20412  44.229  10.663  13.031
48884W        W20413  32.420  39.827  14.920
48885W        W20414   4.191  29.198   3.311
48886W        W20415  43.828  39.568  13.960
48887W        W20416  39.350  13.698  14.748
48888W        W20417  26.006  14.510  12.987
48889W        W20418  24.962  27.401  11.614
48890W        W20419  27.119  24.501  11.186
48891W        W20420  16.617  25.942  13.404
48892W        W20421  30.199   2.647  14.774
48893W        W20422  12.306   5.255   2.305
48894W        W20423  33.540  28.194  14.002
48895W        W20424   1.854   4.824   0.479
48896W        W20425  10.415  28.400  12.567
48897W        W20426  18.505  40.331  11.018
48898W        W20427  32.085  31.162   2.413
48899W        W20428  43.463  37.965   3.245
48900W        W20429  25.079   8.228   4.625
48901W        W20430   5.255   1.966   2.849
48902W        W20431  19.236  13.759   0.262
48903W        W20432  43.373  12.027  10.334
48904W        W20433  15.224  11.849   1.779
48905W        W20434  43.834  33.090   4.053
48906W        W20435   9.694   3.257   4.417
48907W        W20436  33.616  36.535   2.631
48908W        W20437  37.688  33.012   0.976
48909W        W20438   5.907  35.365   1.305
48910W        W20439  35.321   0.817   0.062
48911W        W20440  31.029   9.239  12.135
48912W        W20441  27.232  40.440  11.592
48913W        W20442  18.876  21.139   4.121
48914W        W20443  20.083  27.863  11.986
48915W        W20444   8.426  28.060   1.119
48916W        W20445  29.511  39.465   4.711
48917W        W20446  18.320  35.919   3.218
48918W        W20447   4.709  38.875   2.764
48919W        W20448  38.920  30.943   4.711
48920W        W20449   6.367  29.565  11.608
48921W        W20450   0.211  28.460  11.677
48922W        W20451  28.489  32.732   2.845
48923W        W20452  16.096   3.251  13.478
48924W        W20453   3.960  44.551   1.455
48925W        W20454  22.567  22.365   3.621
48926W        W20455  40.242  44.704  11.120
48927W        W20456  22.254  16.652   1.010
48928W        W20457  41.375  29.456   0.023
48929W        W20458  17.714  35.841  14.824
48930W        W20459  14.498  38.921   4.518
48931W        W20460   9.668  10.252  10.612
48932W        W20461  29.189  30.007  10.749
48933W        W20462  21.760  23.814   2.763
48934W        W20463  20.210   2.219  14.767
48935W        W20464   7.818  18.999   0.772
48936W        W20465   3.495  44.865  11.589
48937W        W20466  14.571  28.141  13.035
48938W        W20467  35.998   9.306  12.050
48939W        W20468   1.201  21.645   3.706
48940W        W20469  44.426  40.324   2.675
48941W        W20470  35.559  16.175  11.091
48942W        W20471   1.891  40.928   2.371
48943W        W20472   5.283  12.104   2.745
48944W        W20473  20.527   9.855   1.248
48945W        W20474  29.165  22.970   0.843
48946W        W20475  38.150   2.423  13.079
48947W        W20476  20.536   4.919  12.498
48948W        W20477  24.541  13.158  14.784
48949W        W20478  17.696   1.402   4.340
48950W        W20479  34.947  22.751  11.600
48951W        W20480  34.555  40.883  12.196
48952W        W20481  21.215  27.634  12.844
48953W        W20482  25.010  14.660   2.141
48954W        W20483  12.728  38.152  14.525
48955W        W20484  28.379  22.458   2.663
48956W        W20485  27.936  18.115   3.671
48957W        W20486  22.700  42.857   5.224
48958W        W20487  42.062  39.933   2.833
48959W        W20488  42.445   7.441  14.041
48960W        W20489  33.659  17.648   1.917
48961W        W20490  43.874  28.245  10.935
48962W        W20491  22.176  24.199   3.724
48963W        W20492  41.323  29.819  11.522
48964W        W20493  36.589  30.715   3.201
48965W        W20494  13.940  15.629  13.940
48966W        W20495  24.357  20.742   1.277
48967W        W20496  36.337  26.153  14.812
48968W        W20497  34.380  16.844  11.044
48969W        W20498  43.965  12.116   2.792
48970W        W20499  19.961  26.531  12.679
48971W        W20500  20.472  13.032  11.009
48972W        W20501   0.298  33.076  14.814
48973W        W20502  34.196  44.990  13.037
48974W        W20503  29.087  10.315  13.850
48975W        W20504   8.704   1.658  11.235
48976W        W20505  34.000  38.910  11.516
48977W        W20506   9.891   8.057   1.939
48978W        W20507  15.177   5.491   2.617
48979W        W20508  36.906  31.529  11.458
48980W        W20509  14.839  40.832   2.206
48981W        W20510  39.926  40.213   0.751
48982W        W20511  39.425  28.453   0.317
48983W        W20512  42.246  41.257   4.779
48984W        W20513  24.597   6.768   0.114
48985W        W20514  43.973   5.499   3.949
48986W        W20515  34.180  23.335  13.710
48987W        W20516   0.220  29.693  13.072
48988W        W20517  27.920  36.567   2.350
48989W        W20518  33.176  39.807  13.844
48990W        W20519  32.643  14.016  13.487
48991W        W20520  10.317  16.263   1.776
48992W        W20521  31.096  19.607  12.917
48993W        W20522   8.299  25.192   1.232
48994W        W20523  24.449   3.425   1.212
48995W        W20524  41.819  36.487   4.217
48996W        W20525  31.598  17.375  11.656
48997W        W20526   7.419  18.861  12.433
48998W        W20527   4.440  30.508  10.664
48999W        W20528   9.944  40.338   4.558
49000W        W20529   9.485  14.437  13.752
49001W        W20530  14.104  38.275  13.584
49002W        W20531  11.682  39.585   4.425
49003W        W20532  21.742  41.085   4.610
49004W        W20533   9.983  28.496   4.496
49005W        W20534  30.662  29.475   1.925
49006W        W20535  20.153  18.253   4.573
49007W        W20536  20.497   4.166  13.198
49008W        W20537  14.544  36.691  14.443
49009W        W20538   0.436  21.190  14.976
49010W        W20539   1.195  15.881   3.371
49011W        W20540  20.082   3.508   2.221
49012W        W20541  16.131   8.434  12.445
49013W        W20542  36.081  14.602   2.760
49014W        W20543  19.525  33.015   2.369
49015W        W20544  30.050  16.640   0.135
49016W        W20545  35.439   9.813  13.389
49017W        W20546  15.872  29.410  11.184
49018W        W20547   3.469   7.730   4.552
49019W        W20548  22.986  13.366   1.473
49020W        W20549  24.212  17.315   5.101
49021W        W20550   0.883  10.758   4.849
49022W        W20551   2.420  28.449   3.867
49023W        W20552   0.249   3.268   1.672
49024W        W20553  14.619  14.867  12.344
49025W        W20554  25.835   1.128   1.042
49026W        W20555  39.753  43.953  14.789
49027W        W20556  25.083   8.456  14.513
49028W        W20557   7.969  15.779   9.824
49029W        W20558  29.073  24.759  14.403
49030W        W20559  15.417  30.114   2.112
49031W        W20560   0.305  26.222   1.899
49032W        W20561  27.121   9.734   3.107
49033W        W20562  41.359  17.246  11.357
49034W        W20563  41.177  28.789  11.107
49035W        W20564  31.151  24.878   1.640
49036W        W20565  11.667  13.785  13.831
49037W        W20566  29.433  38.998   2.628
49038W        W20567  40.731  32.624   3.263
49039W        W20568  34.748  34.396   1.412
49040W        W20569   3.280   3.449   0.818
49041W        W20570   5.714  41.006  12.435
49042W        W20571  38.376  20.742   1.846
49043W        W20572  25.743  28.474  14.387
49044W        W20573  22.094  16.667  10.792
49045W        W20574   6.848  21.996   2.250
49046W        W20575  44.464   9.885   0.910
49047W        W20576  28.036  11.442   4.052
49048W        W20577  29.148  23.750  12.921
49049W        W20578  27.523  22.085  14.820
49050W        W20579  11.815  30.267   4.111
49051W        W20580  20.622  39.035   0.494
49052W        W20581  38.810  15.772  13.906
49053W        W20582  30.588  19.841   0.312
49054W        W20583  41.816   6.586   1.652
49055W        W20584  37.912   7.634   0.455
49056W        W20585  13.595  42.454  12.619
49057W        W20586   7.195  30.976   4.249
49058W        W20587  27.239  39.392   2.763
49059W        W20588  25.108  24.717  14.948
49060W        W20589  39.731  26.978   1.847
49061W        W20590  42.287  37.047   4.935
49062W        W20591   2.521  43.076  11.512
49063W        W20592  16.742  33.798  13.978
49064W        W20593   0.386  12.111   2.255
49065W        W20594  24.780   8.374  11.064
49066W        W20595  32.717  10.808   4.581
49067W        W20596  23.662  17.801  11.407
49068W        W20597   5.257  37.777   4.026
49069W        W20598   2.016   1.014  13.880
49070W        W20599  41.453  40.032   0.539
49071W        W20600  24.013  10.786  11.646
49072W        W20601   5.315  14.842   4.605
49073W        W20602  23.548  33.971   4.418
49074W        W20603  43.798  10.598  11.664
49075W        W20604  32.552  44.995   0.387
49076W        W20605  44.502   6.200  11.216
49077W        W20606  38.306  19.216  13.041
49078W        W20607   2.384   3.443   5.200
49079W        W20608  23.163  32.278   0.282
49080W        W20609  25.567  10.832   3.585
49081W        W20610  11.822   0.364  11.528
49082W        W20611  43.814  14.522   2.271
49083W        W20612  29.967  35.769  12.374
49084W        W20613   7.816   5.458  13.957
49085W        W20614  30.523  36.634  11.678
49086W        W20615  28.259  18.376  11.263
49087W        W20616  40.613   4.776   4.197
49088W        W20617   7.645   2.671  13.984
49089W        W20618  20.471  41.558  11.813
49090W        W20619  27.399   5.246   0.820
49091W        W20620   0.305  18.704   2.208
49092W        W20621   1.887  16.903   0.993
49093W        W20622  29.511  38.421  10.620
49094W        W20623   6.898  18.717   2.727
49095W        W20624  26.207  10.693  14.321
49096W        W20625  19.855   2.193  11.614
49097W        W20626  34.078  22.582   1.307
49098W        W20627   0.725  15.726  12.186
49099W        W20628  33.441  42.750   1.465
49100W        W20629  37.296  40.234   4.129
49101W        W20630  27.075  26.978  13.032
49102W        W20631   0.453   9.229   1.692
49103W        W20632  33.617  10.794  13.012
49104W        W20633  35.248  37.270   3.573
49105W        W20634  44.215  34.587  12.892
49106W        W20635  25.235  20.228   3.745
49107W        W20636  13.014  28.922   0.005
49108W        W20637  30.934   7.706   3.697
49109W        W20638  16.374  28.661  14.878
49110W        W20639  40.581  22.518   3.078
49111W        W20640  36.066  22.870  12.695
49112W        W20641  36.616  40.833  10.591
49113W        W20642  30.194   1.577   3.845
49114W        W20643   6.623  24.105   0.495
49115W        W20644   5.154  41.439  11.647
49116W        W20645  37.521  37.063   1.945
49117W        W20646  34.046  11.234   4.187
49118W        W20647   4.812  13.808   3.916
49119W        W20648  22.636  38.018  14.036
49120W        W20649   1.514  39.015   3.385
49121W        W20650  26.865  39.980   0.045
49122W        W20651  20.872  38.697   3.769
49123W        W20652  43.345   2.696   0.678
49124W        W20653  38.771  35.077   3.314
49125W        W20654  30.632  21.139   1.723
49126W        W20655  34.799  21.071   0.516
49127W        W20656  14.267  24.598   4.973
49128W        W20657  31.424  33.105  11.537
49129W        W20658  37.412  21.757  11.876
49130W        W20659   7.262   5.883   4.474
49131W        W20660  27.866  44.415  11.125
49132W        W20661   1.862  15.274  12.826
49133W        W20662  38.562  15.621   2.649
49134W        W20663   4.355  11.280   1.203
49135W        W20664  11.612  28.039   3.560
49136W        W20665  24.170  11.616  11.612
49137W        W20666  27.209  29.942  14.412
49138W        W20667  44.822  43.594  12.487
49139W        W20668  43.380  36.789  14.801
49140W        W20669  37.123  15.757  13.489
49141W        W20670  24.091  36.869   2.424
49142W        W20671   2.515  40.395  11.948
49143W        W20672  13.771  40.999  10.683
49144W        W20673  39.480   1.226   3.883
49145W        W20674  29.907  14.810   1.796
49146W        W20675  43.274  11.714  14.041
49147W        W20676  16.116  17.274   1.944
49148W        W20677  21.693  34.750   0.394
49149W        W20678  34.935  44.863   2.900
49150W        W20679  25.280  24.569  11.465
49151W        W20680   5.702  33.114  14.460
49152W        W20681  22.627   3.812  12.033
49153W        W20682  18.719  16.388  12.608
49154W        W20683   3.192  39.109  12.938
49155W        W20684  19.075  23.022   1.635
49156W        W20685  28.408  25.437  14.297
49157W        W20686  27.795  41.782   1.676
49158W        W20687  10.371  29.165  14.016
49159W        W20688  39.410  31.582  11.187
49160W        W20689  17.559  25.553  13.940
49161W        W20690  44.000   2.099  12.811
49162W        W20691  24.101  15.128  14.051
49163W        W20692  16.130   5.884   4.559
49164W        W20693  31.163  29.930   4.730
49165W        W20694   2.756  43.166   4.829
49166W        W20695  38.412  19.093   1.501
49167W        W20696  24.508  44.201  12.108
49168W        W20697  24.621  32.010  11.854
49169W        W20698  22.454  39.591  12.425
49170W        W20699  31.705  15.538  11.216
49171W        W20700   5.705  14.038   1.750
49172W        W20701  32.954   2.701   4.271
49173W        W20702  44.852   1.770   5.050
49174W        W20703  44.435  44.911   3.824
49175W        W20704  29.048  33.028  12.124
49176W        W20705  23.023  23.491  13.956
49177W        W20706   0.873  39.168   2.354
49178W        W20707  24.603  26.131  12.509
49179W        W20708  19.340  27.075   1.558
49180W        W20709   6.315  15.338   4.616
49181W        W20710  14.302   5.297   2.269
49182W        W20711   8.723  42.494   0.979
49183W        W20712  38.411  36.566   4.596
49184W        W20713  42.514  11.449  11.157
49185W        W20714  21.361  26.640  12.973
49186W        W20715  36.268  22.536  10.372
49187W        W20716  25.673   2.323   4.705
49188W        W20717  22.277  44.290  14.460
49189W        W20718  29.184   4.897  11.656
49190W        W20719  30.236  34.934  13.826
49191W        W20720  44.387  12.302   3.062
49192W        W20721  41.617  11.638  12.086
49193W        W20722  39.564  30.140   4.652
49194W        W20723  26.990  39.532  14.787
49195W        W20724  36.040  25.307  10.575
49196W        W20725  15.467  15.165   0.358
49197W        W20726   4.806   3.008  12.936
49198W        W20727  27.926  22.887   1.689
49199W        W20728   7.751  34.070   2.342
49200W        W20729  41.868   3.047  12.493
49201W        W20730  33.948  30.936   3.322
49202W        W20731  40.103  24.924   3.327
49203W        W20732  40.289  39.751  12.942
49204W        W20733  30.174  26.456   3.769
49205W        W20734   0.785  18.467   1.806
49206W        W20735  37.134  38.518  13.553
49207W        W20736  27.170  13.197   2.939
49208W        W20737  32.359  44.314  11.163
49209W        W20738  30.537   9.693   0.855
49210W        W20739  24.327   5.077   0.356
49211W        W20740   8.880  40.440   5.024
49212W        W20741   7.792  14.927  12.121
49213W        W20742  12.500  31.076  14.992
49214W        W20743  38.302  36.409  12.982
49215W        W20744  42.769  27.514  11.107
49216W        W20745  40.277  25.018  12.576
49217W        W20746  38.829  25.259   2.015
49218W        W20747   4.837  15.658  10.655
49219W        W20748  33.627   2.189   3.608
49220W        W20749  39.300  35.547   2.761
49221W        W20750  11.119  11.752  13.368
49222W        W20751  43.372  40.941   0.598
49223W        W20752   9.634   2.131  14.374
49224W        W20753   9.151  24.956   3.647
49225W        W20754  29.461  26.015   1.650
49226W        W20755  19.240  30.120   2.408
49227W        W20756   2.518  23.684  11.517
49228W        W20757  33.635  27.998  14.930
49229W        W20758  28.425  23.347   3.315
49230W        W20759  11.821  37.861   3.964
49231W        W20760   6.328  14.836   1.479
49232W        W20761  30.694   8.376   4.666
49233W        W20762  26.087  32.250   4.144
49234W        W20763   5.160  35.327   2.896
49235W        W20764  34.009  26.019  14.314
49236W        W20765   7.576   5.857   3.094
49237W        W20766  14.568  14.448  14.475
49238W        W20767  19.709  16.069   2.309
49239W        W20768  26.899  15.361   3.607
49240W        W20769  42.325  26.243   2.125
49241W        W20770  42.881  36.968  14.699
49242W        W20771  19.716   4.637   5.068
49243W        W20772  40.853   1.153   4.444
49244W        W20773  18.498  44.934  12.742
49245W        W20774  33.006  10.377   4.534
49246W        W20775  29.057  14.740   1.441
49247W        W20776  14.359  36.823   3.185
49248W        W20777  18.000  44.761  14.957
49249W        W20778  24.534  22.782   3.921
49250W        W20779   2.196  23.174   0.797
49251W        W20780   8.839  43.268  14.460
49252W        W20781  21.768  33.599   3.898
49253W        W20782  24.093  35.362  13.456
49254W        W20783   2.362  13.488  14.022
49255W        W20784  11.427  21.675  12.070
49256W        W20785  37.430  11.316   2.320
49257W        W20786  17.719   9.093  14.430
49258W        W20787  16.684  18.848   0.253
49259W        W20788   0.153  31.870   5.608
49260W        W20789  43.205  31.491   4.170
49261W        W20790  17.673  18.523  14.960
49262W        W20791  21.661   8.816  14.877
49263W        W20792   9.264  42.938  12.614
49264W        W20793   4.370  18.116   3.230
49265W        W20794   4.081  12.613  14.922
49266W        W20795  28.915  35.641   5.159
49267W        W20796   6.713  27.405   4.800
49268W        W20797  16.309  25.279  12.875
49269W        W20798  16.705  12.379   0.335
49270W        W20799  42.769   4.731   0.623
49271W        W20800  15.170  34.535   4.284
49272W        W20801  35.033   3.472  13.430
49273W        W20802   0.288   6.780   4.427
49274W        W20803  25.982  21.714  11.965
49275W        W20804  32.564  14.662  11.841
49276W        W20805  16.773  16.102  13.500
49277W        W20806  18.845   3.535  11.205
49278W        W20807  39.457  21.116   4.124
49279W        W20808  42.796  36.464  11.221
49280W        W20809  30.793  15.687  11.883
49281W        W20810  13.290  43.534   4.195
49282W        W20811  28.968  28.488  11.065
49283W        W20812  23.010   4.438   4.186
49284W        W20813  32.696  15.407   2.338
49285W        W20814   1.448  37.744  11.693
49286W        W20815  43.481  39.409   3.044
49287W        W20816  33.878  34.815   0.824
49288W        W20817  28.786  15.872   4.049
49289W        W20818  27.927  33.567  13.030
49290W        W20819  22.455   9.192  13.755
49291W        W20820  28.402  23.954   0.005
49292W        W20821  30.028  19.952   3.154
49293W        W20822  39.018  15.243  10.735
49294W        W20823  40.237  17.979   3.831
49295W        W20824  34.312  44.598   2.272
49296W        W20825  36.404  30.579   4.508
49297W        W20826   8.194  27.127   0.185
49298W        W20827  12.371  41.586  13.852
49299W        W20828   8.770   1.137  12.591
49300W        W20829   0.098  36.716  12.834
49301W        W20830  43.230  41.401   0.405
49302W        W20831  21.153  15.445   5.178
49303W        W20832  44.312  16.919  11.704
49304W        W20833  39.381  38.482  13.512
49305W        W20834  43.022  16.152   3.147
49306W        W20835  42.469  33.631  11.124
49307W        W20836  17.287  32.676  12.612
49308W        W20837  22.990  24.012  13.966
49309W        W20838  24.028  18.191  12.833
49310W        W20839  43.349  39.290  11.979
49311W        W20840  39.063   7.058   2.755
49312W        W20841  35.273  29.337   2.328
49313W        W20842   1.986  41.541   3.222
49314W        W20843  26.978  18.320   3.694
49315W        W20844   3.756  41.247  13.392
49316W        W20845  32.369  35.421  13.545
49317W        W20846  16.632  30.500   4.555
49318W        W20847  39.041  29.103   3.225
49319W        W20848  41.736  11.274   1.844
49320W        W20849  34.074   3.803  11.524
49321W        W20850   8.259  28.832   4.662
49322W        W20851  15.625  32.219   1.472
49323W        W20852  33.861  37.356   1.906
49324W        W20853  41.224  11.295   1.880
49325W        W20854  15.791  32.148  11.705
49326W        W20855   1.922  10.723   0.763
49327W        W20856  26.610  14.806   4.074
49328W        W20857   3.369  34.545  13.182
49329W        W20858  31.840  17.376   4.304
49330W        W20859   6.590   3.990  14.400
49331W        W20860  35.845  30.661  11.534
49332W        W20861  16.675  38.044   1.012
49333W        W20862   0.860  32.580  12.562
49334W        W20863  41.064  20.468   2.909
49335W        W20864   3.405  40.928   1.813
49336W        W20865  31.877   9.714   3.847
49337W        W20866  17.145  19.324  12.814
49338W        W20867   5.191  10.359   1.660
49339W        W20868   9.307  33.557   1.841
49340W        W20869  22.971   1.781   0.909
49341W        W20870  17.629  40.264   1.760
49342W        W20871  31.873  29.741   3.651
49343W        W20872  21.628  38.285   4.383
49344W        W20873   4.366   6.753   2.290
49345W        W20874  44.329  15.880  10.748
49346W        W20875  26.490   0.982  11.547
49347W        W20876  32.945  38.574  13.365
49348W        W20877  25.318  24.429  13.595
49349W        W20878   4.208  26.654  13.009
49350W        W20879  22.143  17.532  14.790
49351W        W20880  16.789   3.441  14.403
49352W        W20881   7.346  31.482  12.210
49353W        W20882  14.827  13.118  12.566
49354W        W20883   5.486  29.982  11.580
49355W        W20884   1.939  32.317   1.263
49356W        W20885  15.519  41.206   1.367
49357W        W20886   4.417  11.968   0.413
49358W        W20887   7.170  17.904   3.475
49359W        W20888  36.564  26.204   3.628
49360W        W20889   3.428   6.700  10.459
49361W        W20890  12.272  31.564   4.949
49362W        W20891   7.234  18.706  14.843
49363W        W20892  40.805  15.798  13.879
49364W        W20893  31.894   2.538   1.488
49365W        W20894   2.940  22.798  12.161
49366W        W20895  34.610  29.050   3.593
49367W        W20896   2.306  39.535  13.851
49368W        W20897  35.286  44.427   3.263
49369W        W20898   0.433  42.835  10.994
49370W        W20899  29.978  31.756   2.775
49371W        W20900  40.497  14.542  14.391
49372W        W20901  18.603  31.022   3.311
49373W        W20902  12.428  24.226  13.846
49374W        W20903   5.368  31.173  11.173
49375W        W20904   6.164  38.486   3.683
49376W        W20905  16.163  16.360   0.427
49377W        W20906  35.400  28.080  10.918
49378W        W20907  41.077  27.623  11.927
49379W        W20908  13.307  13.777  14.262
49380W        W20909  37.757   9.930   1.785
49381W        W20910   8.190  31.480   0.034
49382W        W20911  21.426  30.620   1.371
49383W        W20912   8.348  37.110  11.109
49384W        W20913  40.590  18.726  13.379
49385W        W20914  29.492  42.515  13.940
49386W        W20915  20.194   2.488   2.382
49387W        W20916  16.291  13.779   0.430
49388W        W20917  12.825  44.886  14.311
49389W        W20918  40.502  27.680   0.345
49390W        W20919  27.305  22.063  13.316
49391W        W20920   5.294  17.987   3.670
49392W        W20921  23.143  23.131  12.444
49393W        W20922  29.127  11.619  13.414
49394W        W20923  21.307   9.290   1.187
49395W        W20924  18.694  32.397   0.886
49396W        W20925  43.551  25.274  14.626
49397W        W20926  38.982  41.018   1.940
49398W        W20927  20.235   2.214   4.585
49399W        W20928  27.630   6.544  11.410
49400W        W20929  43.764   8.225  11.601
49401W        W20930  16.389   8.272  11.132
49402W        W20931   1.529   3.351  13.968
49403W        W20932  18.695  30.433  14.796
49404W        W20933  21.108  10.666   0.060
49405W        W20934  11.185   8.225  12.959
49406W        W20935   3.717   3.727   0.413
49407W        W20936  16.119   7.260   0.385
49408W        W20937  21.595  36.128   2.988
49409W        W20938  35.306  16.245  13.095
49410W        W20939  19.015   6.503   4.195
49411W        W20940  36.657  26.115   2.643
49412W        W20941  18.546   5.966   3.135
49413W        W20942  27.002  13.412  13.385
49414W        W20943  14.625  22.542  10.653
49415W        W20944   1.429  26.113  12.443
49416W        W20945  32.952  22.525   4.806
49417W        W20946  35.548  10.191  11.150
49418W        W20947  27.559  26.694   3.357
49419W        W20948  43.534  24.687  13.065
49420W        W20949  18.774   5.806   1.833
49421W        W20950  16.584  37.272  14.962
49422W        W20951  38.329   5.783   1.880
49423W        W20952   1.141  21.432   1.753
49424W        W20953  23.108  31.600  14.908
49425W        W20954  29.090  24.563  14.896
49426W        W20955  42.425  30.452  14.581
49427W        W20956  30.191  38.168   3.639
49428W        W20957  20.721  25.565  14.035
49429W        W20958  11.891  39.417   1.281
49430W        W20959   1.798   4.518   2.313
49431W        W20960  13.087  25.152  12.564
49432W        W20961  16.430  30.142  10.385
49433W        W20962  12.667   8.868   2.835
49434W        W20963  28.612  12.111   1.912
49435W        W20964  10.622  39.229  11.641
49436W        W20965  30.889  19.292   0.932
49437W        W20966   6.174  39.039  12.168
49438W        W20967  33.571   4.674   5.354
49439W        W20968  34.777   8.857  10.208
49440W        W20969  12.770   3.731   4.577
49441W        W20970   2.899  11.167  13.068
49442W        W20971  20.305  10.418  13.458
49443W        W20972  38.624  19.219   3.208
49444W        W20973  28.104  27.457  12.409
49445W        W20974  39.057  16.229  14.391
49446W        W20975  31.998  27.269   5.536
49447W        W20976  36.501  21.385   0.471
49448W        W20977  22.549   9.733   3.664
49449W        W20978   9.453  29.657  14.337
49450W        W20979  30.891  43.387   3.851
49451W        W20980  38.495  13.620   0.993
49452W        W20981  14.674  33.882  14.996
49453W        W20982  16.207  20.687  14.940
49454W        W20983  22.612  43.009   2.804
49455W        W20984  32.932  17.785   0.819
49456W        W20985   0.753   6.853  13.336
49457W        W20986  16.590  42.809   2.255
49458W        W20987  43.194  14.299  13.681
49459W        W20988  17.186  24.648  10.975
49460W        W20989  19.502  26.575   4.427
49461W        W20990   6.205  13.329   3.261
49462W        W20991  14.175  20.792   0.462
49463W        W20992  34.192  26.853   3.714
49464W        W20993  16.173  43.967   3.701
49465W        W20994  16.318  15.600   3.176
49466W        W20995  22.797   3.648   1.215
49467W        W20996  14.750  36.032   0.885
49468W        W20997  30.661  31.408  13.314
49469W        W20998  10.834  21.416  13.484
49470W        W20999   3.641  30.163   0.777
49471W        W21000   9.885  16.181   0.818
49472W        W21001   3.960   6.199  13.797
49473W        W21002  14.825  36.814   1.878
49474W        W21003   7.025  13.557   2.846
49475W        W21004   9.226   2.466  14.379
49476W        W21005   8.732  36.854  14.472
49477W        W21006  41.918   6.376   0.330
49478W        W21007   9.802   5.896   0.741
49479W        W21008  17.094   0.970  12.687
49480W        W21009   1.721   2.930   1.694
49481W        W21010  17.680  24.752  13.020
49482W        W21011  29.190  41.036  13.344
49483W        W21012  22.927  13.251  14.012
49484W        W21013  31.624  30.095  12.434
49485W        W21014  43.509  40.366  12.542
49486W        W21015  38.338  27.156   2.858
49487W        W21016  13.724  17.272   4.721
49488W        W21017   0.359  22.776   3.171
49489W        W21018  13.913  38.521   0.003
49490W        W21019   4.444  22.316  10.760
49491W        W21020   5.922  14.410  12.650
49492W        W21021  28.505  11.628   0.661
49493W        W21022  36.596  41.243  11.922
49494W        W21023  32.359  13.247  14.591
49495W        W21024  39.315   7.112  13.045
49496W        W21025  37.179  24.912   4.743
49497W        W21026  22.589  35.086   4.698
49498W        W21027  15.062  44.721  10.816
49499W        W21028  19.130   2.165   0.302
49500W        W21029  36.270  37.789  11.937
49501W        W21030  20.798  38.486  14.357
49502W        W21031   9.657  23.477   4.180
49503W        W21032  22.720  17.108   2.089
49504W        W21033  21.552   2.820  11.296
49505W        W21034  29.029  28.832  11.459
49506W        W21035   2.682  38.755  10.663
49507W        W21036  35.286  38.530  11.729
49508W        W21037  26.089   6.248  12.136
49509W        W21038  23.202   2.247   0.511
49510W        W21039  22.279  10.288  12.430
49511W        W21040  31.960  44.543  14.839
49512W        W21041  33.640  13.392  14.721
49513W        W21042   6.120  25.992  14.498
49514W        W21043  32.432  44.609   2.339
49515W        W21044  26.513  35.886   3.168
49516W        W21045  18.527  17.047   1.471
49517W        W21046  43.635  34.675   4.206
49518W        W21047  37.062  24.698  13.462
49519W        W21048  42.238  37.021  14.436
49520W        W21049   7.180  18.680  13.809
49521W        W21050  38.932  27.469  12.490
49522W        W21051  28.284  41.939   0.064
49523W        W21052  26.104  19.625   2.965
49524W        W21053  20.004  12.138   1.398
49525W        W21054  10.216  31.325  14.884
49526W        W21055   4.436  30.662   4.555
49527W        W21056  32.403   7.119   1.659
49528W        W21057  37.580  27.185  12.762
49529W        W21058  25.907  25.983   4.091
49530W        W21059  31.074  17.545   1.592
49531W        W21060   3.467  16.445   4.741
49532W        W21061  29.030  41.625  11.423
49533W        W21062  42.113   1.715  14.022
49534W        W21063  34.074  33.808  12.560
49535W        W21064  23.782  34.920  13.808
49536W        W21065  13.780  32.017  14.354
49537W        W21066   9.365   9.170   3.115
49538W        W21067   9.856   4.059  13.953
49539W        W21068  37.069   4.923   2.772
49540W        W21069   8.433  21.656  12.979
49541W        W21070   4.627  17.740  14.421
49542W        W21071  14.078  10.924  11.772
49543W        W21072  32.531  38.313   1.266
49544W        W21073  42.527  29.575   3.288
49545W        W21074  41.828  17.571   2.224
49546W        W21075  42.357  27.004   0.318
49547W        W21076   4.743  35.000  13.645
49548W        W21077  17.046  10.602   3.918
49549W        W21078  35.331   5.315  14.765
49550W        W21079  17.173   2.295  14.952
49551W        W21080   8.720  41.294   2.929
49552W        W21081  41.826  43.339   1.319
49553W        W21082  23.069   1.918   4.334
49554W        W21083  43.053  34.103  14.897
49555W        W21084  44.666   5.340   1.304
49556W        W21085  10.946  40.257  11.531
49557W        W21086   4.853   3.038  12.279
49558W        W21087  27.184  11.500   3.054
49559W        W21088  20.009   3.186  14.926
49560W        W21089  28.507  32.038  11.778
49561W        W21090  38.906  20.664   4.121
49562W        W21091  29.590  34.833   1.806
49563W        W21092  30.015  17.615   3.429
49564W        W21093  36.127  21.187   4.088
49565W        W21094  33.252  21.771   4.137
49566W        W21095   8.272  12.930   2.132
49567W        W21096  15.320  22.132  10.843
49568W        W21097  32.456  19.183   4.410
49569W        W21098  28.070   8.514  12.921
49570W        W21099  10.724  34.657   1.458
49571W        W21100   3.457  32.566   1.388
49572W        W21101  22.720  28.938   3.723
49573W        W21102   2.877  15.571  14.991
49574W        W21103  32.558  30.044  12.901
49575W        W21104  31.316  25.816   3.141
49576W        W21105   9.124  19.992  12.593
49577W        W21106  12.450  10.128   0.667
49578W        W21107  40.548  11.224  11.631
49579W        W21108   4.913   5.806  13.834
49580W        W21109  12.870  10.577  12.249
49581W        W21110  37.385  37.774  14.926
49582W        W21111   2.152  40.555  14.801
49583W        W21112  35.867  27.501  13.062
49584W        W21113   6.104  13.343   4.100
49585W        W21114   2.357  35.128   5.004
49586W        W21115  33.917  22.596   3.211
49587W        W21116   9.118  12.329   3.542
49588W        W21117  18.356   4.231   1.743
49589W        W21118   3.850  11.734  14.055
49590W        W21119  31.171  12.739  12.448
49591W        W21120  23.465  40.500   2.867
49592W        W21121   2.245   8.553  11.552
49593W        W21122  34.511  15.216  12.986
49594W        W21123  21.438  27.671  11.495
49595W        W21124   7.694   6.175  14.816
49596W        W21125  31.840  16.994  12.544
49597W        W21126  18.254  18.333  11.889
49598W        W21127  14.669   4.912  11.130
49599W        W21128  21.131   0.804   1.819
49600W        W21129   0.032  30.238   3.585
49601W        W21130  19.663  36.311   2.183
49602W        W21131  30.474  44.130  12.035
49603W        W21132  30.132  10.283  12.625
49604W        W21133  29.387   9.172   3.251
49605W        W21134  39.654  40.061  12.123
49606W        W21135   6.591  12.635  12.028
49607W        W21136   4.026   3.617   2.105
49608W        W21137  22.188  42.750   2.661
49609W        W21138  27.507  28.548  12.610
49610W        W21139   1.835  43.825  13.969
49611W        W21140  34.269  28.462   0.351
49612W        W21141  39.359  17.511   0.891
49613W        W21142  40.974  31.914   3.993
49614W        W21143  31.592  26.558  10.758
49615W        W21144   1.482   0.281  12.118
49616W        W21145  20.480  40.518  13.844
49617W        W21146  10.733  16.821  12.988
49618W        W21147  44.487  20.498   1.327
49619W        W21148  38.421  35.218   0.759
49620W        W21149   4.748  44.336   2.573
49621W        W21150  23.762  35.142   4.723
49622W        W21151   2.490  17.651  11.615
49623W        W21152   8.396  13.123  11.451
49624W        W21153  18.807  29.115   3.622
49625W        W21154   2.999  16.189  13.807
49626W        W21155   5.609  40.800  11.977
49627W        W21156   7.286  41.850   1.743
49628W        W21157   7.047  44.179   3.573
49629W        W21158   5.210  24.204   3.763
49630W        W21159  27.185  22.774   0.406
49631W        W21160  29.528  27.563   0.540
49632W        W21161  40.046   5.686   2.718
49633W        W21162  37.486  16.261  12.964
49634W        W21163  25.532  37.001   3.133
49635W        W21164  34.492   0.078   0.329
49636W        W21165   5.185  14.545   2.329
49637W        W21166  36.177  32.164   2.690
49638W        W21167  16.254   4.475   2.594
49639W        W21168  15.092  25.805  14.312
49640W        W21169  20.091  42.402   0.241
49641W        W21170  30.090  39.596   2.333
49642W        W21171  10.245   4.006  14.277
49643W        W21172  30.548  38.614   0.807
49644W        W21173   8.669  26.896  14.392
49645W        W21174  36.920  29.454  11.499
49646W        W21175   9.424  28.389   1.802
49647W        W21176  26.216   2.817  14.308
49648W        W21177  25.153   4.398  11.182
49649W        W21178   0.387  21.793   0.547
49650W        W21179  40.460  15.079  11.159
49651W        W21180  42.787  24.406   4.710
49652W        W21181  29.966  19.010  10.937
49653W        W21182   3.410  31.138  13.571
49654W        W21183  24.665  10.199   2.484
49655W        W21184  41.532  23.947  11.589
49656W        W21185  33.997  19.095  11.172
49657W        W21186  13.983  31.305   1.382
49658W        W21187  21.176   3.315  11.222
49659W        W21188   5.723  42.645  13.330
49660W        W21189  33.919  18.982   3.448
49661W        W21190  42.244  37.331  11.110
49662W        W21191  16.101  40.265   0.356
49663W        W21192   0.182  20.603  13.033
49664W        W21193   4.302  30.327  10.199
49665W        W21194  37.474  33.874   0.270
49666W        W21195  25.550  31.835  12.906
49667W        W21196  14.288  11.201   0.530
49668W        W21197  33.370  25.395  14.492
49669W        W21198  23.813  12.382  11.490
49670W        W21199  41.478  41.839   1.396
49671W        W21200  25.305   9.423  14.257
49672W        W21201   0.332   1.204   3.366
49673W        W21202  17.711  41.966  14.012
49674W        W21203  24.036   3.213   4.704
49675W        W21204  15.353   6.868   0.217
49676W        W21205   1.274  43.523   2.383
49677W        W21206  29.621  36.582   3.299
49678W        W21207  44.589  13.100   4.092
49679W        W21208  40.983   5.239  13.102
49680W        W21209   8.431  43.932  13.157
49681W        W21210  19.088  43.458  13.555
49682W        W21211   2.136  32.046   0.878
49683W        W21212   4.992  24.699   3.657
49684W        W21213  20.106  30.584   2.246
49685W        W21214  21.535  22.545   3.107
49686W        W21215   9.089  28.197   5.075
49687W        W21216  20.020  14.259   4.078
49688W        W21217   3.097  16.543  11.614
49689W        W21218  39.434  43.261   1.384
49690W        W21219  40.798  26.223   1.308
49691W        W21220  37.582  24.838   2.446
49692W        W21221  11.717  39.496  12.022
49693W        W21222  24.173  30.264  11.631
49694W        W21223   3.683  32.672   1.853
49695W        W21224   6.828  30.699   0.266
49696W        W21225  38.139  34.899   1.080
49697W        W21226   3.015   2.901   1.348
49698W        W21227  11.404  22.621  14.133
49699W        W21228  27.253  28.855   4.674
49700W        W21229  17.655  35.623   3.790
49701W        W21230   3.511  32.722   5.135
49702W        W21231  30.545  29.622  13.877
49703W        W21232  38.588  35.944  11.199
49704W        W21233  10.382   9.183  13.366
49705W        W21234  40.525  10.906   0.795
49706W        W21235  14.314  34.256   4.431
49707W        W21236   3.427  10.288   3.265
49708W        W21237  36.950  26.503  10.329
49709W        W21238  18.591  37.923   0.686
49710W        W21239  44.449  12.090   0.217
49711W        W21240  37.901   3.460  13.470
49712W        W21241   7.417   2.229  10.580
49713W        W21242   1.854  19.822  11.980
49714W        W21243  43.709   4.789  14.428
49715W        W21244  41.480  24.075  14.130
49716W        W21245   3.809  18.066   2.218
49717W        W21246  44.884  41.607  10.725
49718W        W21247  41.685  43.224  12.831
49719W        W21248   7.838  28.260   1.580
49720W        W21249  11.286   5.490   3.198
49721W        W21250  25.958  33.863   0.785
49722W        W21251   8.916   7.919  14.385
49723W        W21252   1.865  41.297  12.524
49724W        W21253  35.277  12.566  11.954
49725W        W21254   2.616  32.913   1.734
49726W        W21255  41.349  12.584   1.900
49727W        W21256  27.976  27.626   1.949
49728W        W21257  22.965  13.576  13.058
49729W        W21258  14.145   1.866   2.839
49730W        W21259  37.614  43.061  10.393
49731W        W21260  27.084  15.840   3.418
49732W        W21261   5.180  35.953   2.150
49733W        W21262   2.414   0.892  12.488
49734W        W21263  24.659  40.491   2.378
49735W        W21264  32.663  34.830   3.162
49736W        W21265  28.210  20.155  11.934
49737W        W21266  33.003  10.095  14.114
49738W        W21267   0.600  31.480   5.122
49739W        W21268  43.609  44.899  12.195
49740W        W21269   9.160   2.501  13.286
49741W        W21270  11.773  32.368  14.428
49742W        W21271  28.557   8.421  14.143
49743W        W21272  42.889  16.747   4.907
49744W        W21273  24.896  27.884  11.352
49745W        W21274  18.546  24.395   1.460
49746W        W21275  19.067  15.834   2.950
49747W        W21276  19.780  36.542  14.910
49748W        W21277  34.543  36.028   3.965
49749W        W21278  19.714  14.024   0.699
49750W        W21279  13.397  27.205   0.018
49751W        W21280  31.941   9.294   2.868
49752W        W21281  10.176  10.533  11.169
49753W        W21282  16.949  14.574  12.071
49754W        W21283  14.996  18.206   4.412
49755W        W21284  41.279  32.099   1.405
49756W        W21285  31.472  28.018  13.796
49757W        W21286  39.128  38.914  13.925
49758W        W21287  38.937   2.572   5.158
49759W        W21288  13.152  21.475   1.719
49760W        W21289   5.338  43.285  10.919
49761W        W21290   4.260   2.657  12.135
49762W        W21291  35.351  13.348   1.259
49763W        W21292   3.877  28.591   1.664
49764W        W21293   0.050   5.271  11.060
49765W        W21294   0.547  13.763  13.788
49766W        W21295   1.735  29.448   3.256
49767W        W21296  16.352  31.057   2.867
49768W        W21297   8.724   2.201  13.106
49769W        W21298  16.264  11.831   0.391
49770W        W21299  39.541  35.780   1.723
49771W        W21300   8.044  31.115   0.597
49772W        W21301  10.563   7.282  13.596
49773W        W21302  38.735  33.465  12.951
49774W        W21303  40.566   1.467  14.935
49775W        W21304  22.374  33.253  13.658
49776W        W21305   0.950  34.107   3.910
49777W        W21306  33.680  40.008   0.387
49778W        W21307   2.596   0.404   0.252
49779W        W21308   8.361  11.252   4.288
49780W        W21309  31.122   1.365  13.031
49781W        W21310   6.109  19.576   5.024
49782W        W21311  39.492   6.696   2.154
49783W        W21312  29.539  29.222   0.801
49784W        W21313  24.643   3.724   2.835
49785W        W21314  42.903  18.820   1.242
49786W        W21315  32.487  18.776   1.305
49787W        W21316  27.064  19.129   2.439
49788W        W21317   1.020  30.911   1.949
49789W        W21318  29.022  21.773   2.440
49790W        W21319  32.334  28.144   1.013
49791W        W21320  12.342  36.516  13.525
49792W        W21321  33.877  16.253  11.580
49793W        W21322   7.801  17.099   0.741
49794W        W21323   5.842   2.274  11.723
49795W        W21324  17.832  33.362   4.673
49796W        W21325  38.438   4.016  12.503
49797W        W21326  18.088  22.235   2.405
49798W        W21327  43.360   1.076   2.632
49799W        W21328  16.086  40.359   4.640
49800W        W21329  16.181   5.648  12.174
49801W        W21330  25.777  12.305   3.216
49802W        W21331  22.717  28.083   3.043
49803W        W21332  21.489  21.233  13.502
49804W        W21333  12.087  33.544  14.813
49805W        W21334  32.124  22.407  10.400
49806W        W21335  16.231  42.644   1.859
49807W        W21336  13.625  27.386   4.779
49808W        W21337   2.803  10.387   2.811
49809W        W21338  15.760  34.847  11.034
49810W        W21339  33.365   9.808   1.846
49811W        W21340  43.378  24.128   1.272
49812W        W21341  29.199   0.346  11.589
49813W        W21342  22.631  22.075   4.057
49814W        W21343  28.567  13.343  14.410
49815W        W21344   9.919  30.090   0.817
49816W        W21345   5.821   8.193  12.425
49817W        W21346  44.845   2.194   0.464
49818W        W21347  41.412  14.850  10.418
49819W        W21348  39.033   7.710  11.669
49820W        W21349  11.324  21.325   3.419
49821W        W21350  34.567  10.898   3.790
49822W        W21351   5.572  31.423  14.715
49823W        W21352  43.193  22.555   3.574
49824W        W21353  15.737  20.626   3.832
49825W        W21354   5.285  12.643   1.761
49826W        W21355  13.931  44.740  12.059
49827W        W21356  20.809  29.990   2.141
49828W        W21357  18.153  41.166   2.729
49829W        W21358  25.221   2.246   1.461
49830W        W21359  23.741  40.436  11.663
49831W        W21360  43.058  13.466   4.676
49832W        W21361  33.585  21.015  14.821
49833W        W21362   2.362  13.854   2.712
49834W        W21363   5.289  14.739  11.125
49835W        W21364  28.601  32.981   2.067
49836W        W21365  26.931  28.985  10.732
49837W        W21366  41.413  42.503   4.053
49838W        W21367  27.437  40.045  12.117
49839W        W21368  23.198  25.225   3.619
49840W        W21369  22.442  35.018  13.075
49841W        W21370  11.073  27.624   4.150
49842W        W21371   0.809  42.978   3.294
49843W        W21372   8.350   0.510   1.730
49844W        W21373   3.133  15.920  12.783
49845W        W21374  13.759  11.582   1.745
49846W        W21375  13.071  21.988   1.807
49847W        W21376  38.709   5.228  14.433
49848W        W21377   0.311  39.094  14.302
49849W        W21378  43.385  18.736   3.107
49850W        W21379   4.319   9.805  12.375
49851W        W21380   7.294  40.346  12.600
49852W        W21381  32.906  13.977  12.577
49853W        W21382  23.207  41.340   4.863
49854W        W21383  15.179  20.763   0.062
49855W        W21384  12.553  33.052   3.235
49856W        W21385  20.798  35.898   0.831
49857W        W21386  21.531  16.172   1.381
49858W        W21387  18.655   3.290   2.236
49859W        W21388  15.326  31.271   3.838
49860W        W21389  39.318  40.718   1.171
49861W        W21390  20.038  24.206   4.530
49862W        W21391   3.816  23.486   2.817
49863W        W21392  44.376  14.520  10.419
49864W        W21393  39.310  38.272   2.329
49865W        W21394   8.761  26.667   1.873
49866W        W21395   5.950  16.740   2.757
49867W        W21396  23.508  17.790  10.933
49868W        W21397  24.693  12.862   1.205
49869W        W21398   4.057  42.417   1.267
49870W        W21399  35.396  11.897  11.165
49871W        W21400  12.893  36.966   4.173
49872W        W21401   5.358  14.437  11.580
49873W        W21402  14.210   5.980  14.528
49874W        W21403  15.046   4.614   2.341
49875W        W21404   6.515  16.671   0.006
49876W        W21405  14.796  20.315  12.514
49877W        W21406  20.011   4.118   1.162
49878W        W21407  31.190  16.640   4.206
49879W        W21408  11.555   9.561  13.926
49880W        W21409   2.374  44.367  13.300
49881W        W21410  41.731  26.407  12.950
49882W        W21411  37.246  22.180  13.479
49883W        W21412  37.834   5.682  10.780
49884W        W21413  19.620  16.239  14.321
49885W        W21414  44.466  10.303  14.895
49886W        W21415  44.250  14.843   1.663
49887W        W21416  24.220  20.108   0.766
49888W        W21417   0.941  11.400  14.264
49889W        W21418   5.800  26.482  10.968
49890W        W21419  43.396  42.441  14.763
49891W        W21420  18.119  26.930  13.431
49892W        W21421   9.640   0.892   1.076
49893W        W21422  21.061   6.347   3.092
49894W        W21423  29.316  29.426  11.131
49895W        W21424  43.472  12.131   3.254
49896W        W21425   2.861  36.398   3.739
49897W        W21426  32.034  10.264  10.854
49898W        W21427  15.106   5.187   0.872
49899W        W21428  21.033  10.624   2.297
49900W        W21429   5.626   3.415  12.497
49901W        W21430  30.058  18.069   2.483
49902W        W21431  25.090  25.020  12.829
49903W        W21432  14.853   9.878  14.258
49904W        W21433   5.766   0.391   3.926
49905W        W21434   0.779  22.622   0.153
49906W        W21435  12.139  14.595   4.483
49907W        W21436  11.063  19.963   1.348
49908W        W21437   8.839   5.789  14.935
49909W        W21438  29.632  16.515   3.459
49910W        W21439  17.700  18.752  11.496
49911W        W21440  37.522   9.085  10.293
49912W        W21441  11.102  30.021  13.505
49913W        W21442  17.181  37.319  14.208
49914W        W21443  42.285  17.633  12.928
49915W        W21444  43.909  37.004   2.346
49916W        W21445  27.912   5.840  10.102
49917W        W21446  35.655  25.486   0.764
49918W        W21447  36.288  40.493   4.139
49919W        W21448  33.961  18.013  12.384
49920W        W21449   4.403  32.069   4.151
49921W        W21450   9.885  21.891  12.962
49922W        W21451   4.434  19.184   1.183
49923W        W21452  36.907  13.897   1.330
49924W        W21453  14.125  19.174  14.762
49925W        W21454   9.854  43.441   3.678
49926W        W21455   4.342   1.324  10.553
49927W        W21456  27.145   7.113   3.813
49928W        W21457  10.179  41.734   3.655
49929W        W21458   1.506  21.191   0.203
49930W        W21459  43.903  25.481  12.480
49931W        W21460  38.995  31.058   2.377
49932W        W21461  30.332  34.903   2.779
49933W        W21462   8.120  16.890  13.854
49934W        W21463  34.931  31.367   4.512
49935W        W21464  14.364  14.764  13.599
49936W        W21465  39.501   0.846  12.076
49937W        W21466  14.289   9.758  13.581
49938W        W21467  42.325  38.134  14.848
49939W        W21468   2.810  40.057   1.741
49940W        W21469  31.435   8.854  12.858
49941W        W21470  13.128  37.263   1.659
49942W        W21471  13.328  43.485   3.377
49943W        W21472  43.148   5.399  11.065
49944W        W21473   5.386  33.114  14.038
49945W        W21474  17.577  23.650   3.609
49946W        W21475  18.605   6.801   4.184
49947W        W21476  20.357  25.663  11.135
49948W        W21477  42.733  15.670   4.148
49949W        W21478  25.899  44.823   2.751
49950W        W21479  10.262  33.996  12.010
49951W        W21480  36.030  10.664   2.867
49952W        W21481  13.410  11.731  12.938
49953W        W21482  12.630   6.222  14.843
49954W        W21483  44.526  23.229   0.304
49955W        W21484  12.266  16.298   4.435
49956W        W21485  13.812  17.375  12.920
49957W        W21486   9.288   5.324  13.809
49958W        W21487  27.511   7.034  11.538
49959W        W21488   2.934   5.887   3.421
49960W        W21489  14.444  38.660   3.718
49961W        W21490   2.856  28.952  12.769
49962W        W21491  24.576   7.497   1.694
49963W        W21492  28.711  33.597  14.821
49964W        W21493   5.103  13.637  12.038
49965W        W21494   4.472  37.117   0.988
49966W        W21495  30.425   7.397   4.576
49967W        W21496   3.214  39.316   3.123
49968W        W21497  30.529  20.015  10.595
49969W        W21498  35.107  40.641   0.304
49970W        W21499  20.790  11.353  11.565
49971W        W21500  36.960   6.778  14.279
49972W        W21501  31.026  18.491   1.860
49973W        W21502  17.241  25.600   4.192
49974W        W21503  16.172  30.125   2.656
49975W        W21504  10.851   9.149   0.799
49976W        W21505  39.000  25.037  12.067
49977W        W21506   8.274  31.482   3.630
49978W        W21507   2.307  34.091  11.814
49979W        W21508  26.440  23.170  14.343
49980W        W21509  27.514   6.642  11.942
49981W        W21510  17.538  44.906   1.401
49982W        W21511   4.876  38.343   4.188
49983W        W21512  28.782  36.571  13.840
49984W        W21513  27.385  40.971  12.030
49985W        W21514  44.048  13.532  12.121
49986W        W21515  35.508  10.805   4.676
49987W        W21516  16.256  16.191  13.400
49988W        W21517  37.387  43.961   1.416
49989W        W21518   6.049  25.476   3.679
49990W        W21519  32.108  28.184  13.317
49991W        W21520   7.509  37.349  12.555
49992W        W21521   8.939  27.905  12.022
49993W        W21522  38.855   5.375  10.104
49994W        W21523  11.839  37.118  13.010
49995W        W21524  42.508  12.656  11.649
49996W        W21525  28.443  33.516  12.880
49997W        W21526   9.752  35.573   0.926
49998W        W21527  38.707  30.710   5.153
49999W        W21528  44.047  18.666   4.649
50000W        W21529  28.999  31.353  14.382
50001W        W21530  42.943  23.855   1.146
50002W        W21531  20.255  43.990  14.811
50003W        W21532  27.671  12.170   3.667
50004W        W21533  41.370  20.482   4.615
50005W        W21534  16.062  32.171   2.211
50006W        W21535  32.739  29.223   1.725
50007W        W21536  36.397  39.660  11.075
50008W        W21537  15.638  16.322   3.517
50009W        W21538  37.913   5.687  14.406
50010W        W21539  24.597  24.989   2.284
50011W        W21540  35.610  19.221   1.350
50012W        W21541  12.671  18.991  14.858
50013W        W21542  21.531  16.740  14.785
50014W        W21543  17.536  18.537  10.667
50015W        W21544  36.814  32.042  11.375
50016W        W21545  41.427  13.025  11.231
50017W        W21546  39.016  22.752   1.300
50018W        W21547  16.323  33.820  13.463
50019W        W21548   2.930  13.310   4.088
50020W        W21549  40.269  29.038   2.283
50021W        W21550  44.880  32.934   4.987
50022W        W21551  22.688  26.439  13.313
50023W        W21552  36.001   2.680  13.909
50024W        W21553  13.233   9.120   1.208
50025W        W21554  17.611  16.064  11.985
50026W        W21555   9.327  28.101   3.865
50027W        W21556  23.584  38.925  12.835
50028W        W21557   6.206   2.922   1.779
50029W        W21558  11.800   8.326  12.138
50030W        W21559  38.387  37.378  13.305
50031W        W21560  16.985  35.581   1.856
50032W        W21561  16.002   3.726   4.025
50033W        W21562  13.296   4.825  13.479
50034W        W21563  41.235  34.107  11.582
50035W        W21564  23.083   5.866   4.746
50036W        W21565   4.919  38.094  12.520
50037W        W21566  17.068  16.428  13.757
50038W        W21567   1.990  22.831   3.644
50039W        W21568   5.227   8.178   2.177
50040W        W21569  13.811  16.377  11.959
50041W        W21570  19.107  13.015   1.735
50042W        W21571   3.773  44.549   2.872
50043W        W21572  23.559   3.686   4.026
50044W        W21573   2.234   0.002   9.976
50045W        W21574  34.538  13.963   4.757
50046W        W21575  18.726  28.681  13.144
50047W        W21576   0.279   5.837   0.966
50048W        W21577  14.200  38.814   4.945
50049W        W21578   3.287  20.515  10.697
50050W        W21579   8.486  36.706  13.177
50051W        W21580  25.580  22.498   2.625
50052W        W21581   8.565  32.538  13.421
50053W        W21582   1.166  19.688   4.355
50054W        W21583  39.537  16.737   3.846
50055W        W21584  30.663  18.129  12.603
50056W        W21585  14.430   3.983   3.320
50057W        W21586  37.208  21.052  11.173
50058W        W21587  10.812  22.161  11.641
50059W        W21588  17.614  30.715   3.318
50060W        W21589   9.577  38.992   1.444
50061W        W21590  39.475   2.307  13.267
50062W        W21591  17.582   9.608  11.305
50063W        W21592  15.066  13.829  11.955
50064W        W21593   2.577  24.364   5.088
50065W        W21594  40.604  20.084  13.932
50066W        W21595  27.985   0.517  10.975
50067W        W21596   7.766  21.996  12.466
50068W        W21597  17.810  40.854  11.364
50069W        W21598  14.112  32.655   1.766
50070W        W21599  29.438  16.362   1.384
50071W        W21600  27.263   4.748   4.354
50072W        W21601   9.077  11.667   2.432
50073W        W21602  21.748  34.375   4.502
50074W        W21603  25.079  22.221  13.492
50075W        W21604  14.672  10.927   4.811
50076W        W21605   7.636  38.035  10.920
50077W        W21606  38.457  29.535  14.467
50078W        W21607  27.255  41.001   2.239
50079W        W21608  15.561  31.997  12.144
50080W        W21609  21.499  39.986  13.845
50081W        W21610   5.883  28.696  14.984
50082W        W21611  14.541  44.268   0.375
50083W        W21612   5.866  40.888  13.818
50084W        W21613  13.598  37.638  11.211
50085W        W21614  36.509  20.753  10.677
50086W        W21615   2.933   6.192  13.761
50087W        W21616  37.175  14.144  13.097
50088W        W21617  35.776  16.195   2.941
50089W        W21618  36.658  11.330  13.604
50090W        W21619  41.012  30.538  12.314
50091W        W21620  18.243  27.734   1.419
50092W        W21621  27.523  42.795  13.902
50093W        W21622  30.122  26.407  13.854
50094W        W21623  36.519  21.586   1.929
50095W        W21624  29.696  40.800  13.451
50096W        W21625  21.777  17.018   3.709
50097W        W21626   6.205  38.885   0.740
50098W        W21627  13.366   5.312   2.338
50099W        W21628  20.023  16.776   3.280
50100W        W21629  10.414  18.770   1.938
50101W        W21630   8.330  21.195   3.547
50102W        W21631  39.453  40.267   2.373
50103W        W21632  24.300  19.088  13.953
50104W        W21633  33.776  44.295   0.285
50105W        W21634  43.846  29.264   3.182
50106W        W21635  31.411  42.420  13.600
50107W        W21636   5.229   6.996  11.074
50108W        W21637  43.817  32.553   3.125
50109W        W21638   8.225   3.734   0.225
50110W        W21639  28.461  41.325   3.790
50111W        W21640  11.118  18.058   3.329
50112W        W21641  38.851  42.289   1.038
50113W        W21642  31.109   6.495   2.338
50114W        W21643  22.678  32.818  13.675
50115W        W21644  18.858  24.981   0.956
50116W        W21645   0.957  36.992  12.953
50117W        W21646  34.403   1.754  13.840
50118W        W21647  21.256  12.206   0.067
50119W        W21648   6.450  23.157  13.960
50120W        W21649  16.863   1.519   3.846
50121W        W21650  40.301  25.316  11.642
50122W        W21651  35.434  23.977  10.729
50123W        W21652  19.683  29.906   1.895
50124W        W21653  37.499  19.214  14.337
50125W        W21654  28.810  42.210   0.855
50126W        W21655  41.321  27.407  12.327
50127W        W21656  23.612  26.935  12.033
50128W        W21657  33.098  23.239  11.964
50129W        W21658  35.003  41.793   1.756
50130W        W21659  27.892  26.552   1.345
50131W        W21660  10.356   5.494  14.506
50132W        W21661  29.144  40.530   0.541
50133W        W21662  40.061   3.307  12.632
50134W        W21663  36.377  30.678   1.699
50135W        W21664  12.312  44.868  14.064
50136W        W21665  37.072   2.870  11.920
50137W        W21666  19.666  10.410  10.771
50138W        W21667  37.130  19.043  11.950
50139W        W21668  31.292  24.579   2.104
50140W        W21669  24.086  23.752  14.993
50141W        W21670  26.730  38.535  12.041
50142W        W21671  41.417   6.093   3.399
50143W        W21672   4.848  28.529  14.290
50144W        W21673  26.697  44.154   1.230
50145W        W21674   5.526   3.169   1.219
50146W        W21675  26.550  11.305   0.553
50147W        W21676  39.521  20.107   4.727
50148W        W21677  15.317  11.519   5.362
50149W        W21678   1.522  20.213   3.981
50150W        W21679   9.867   8.805   3.704
50151W        W21680  42.552  13.743   2.257
50152W        W21681  40.913   9.809  14.718
50153W        W21682  44.772  20.185   3.652
50154W        W21683  40.539  28.656  13.791
50155W        W21684  39.205  38.049  11.699
50156W        W21685  20.008  35.404   3.120
50157W        W21686  10.346  20.100   2.197
50158W        W21687  18.705  28.171   1.437
50159W        W21688   4.846   6.894   4.423
50160W        W21689   8.901   9.974  13.273
50161W        W21690  14.710  34.419   1.447
50162W        W21691  23.188  21.785  13.492
50163W        W21692  24.517  39.016   1.486
50164W        W21693  24.139  32.021  14.932
50165W        W21694  30.548  19.263  13.078
50166W        W21695  21.175  34.114   2.355
50167W        W21696  36.366  33.496   1.019
50168W        W21697  34.843  36.756   2.929
50169W        W21698   1.526  38.320  14.660
50170W        W21699  32.183  11.585   2.287
50171W        W21700  37.751  26.091   4.421
50172W        W21701  13.155  40.044  12.412
50173W        W21702  24.560   0.468  12.656
50174W        W21703  23.442  24.802  13.920
50175W        W21704  29.303  19.191  14.515
50176W        W21705  20.358   8.484   3.916
50177W        W21706  43.338  18.381  12.589
50178W        W21707  26.766  25.727   3.244
50179W        W21708  27.054  32.086  14.531
50180W        W21709  19.583   2.628  11.465
50181W        W21710  26.101  18.712  14.256
50182W        W21711   0.688   0.080  13.458
50183W        W21712  24.635  33.827   3.210
50184W        W21713  39.569  24.188  11.699
50185W        W21714  20.197  18.734   0.784
50186W        W21715  34.464  41.856  14.061
50187W        W21716   2.829  30.395   2.659
50188W        W21717  17.631  11.708  14.874
50189W        W21718   2.577   4.358   0.634
50190W        W21719  34.546  14.635   4.789
50191W        W21720  21.651  13.645  13.504
50192W        W21721  39.976  11.609   3.727
50193W        W21722  36.294  41.382  13.335
50194W        W21723   9.465  44.892  14.826
50195W        W21724   1.359  16.534   2.655
50196W        W21725  21.650  20.096   4.494
50197W        W21726  22.031  25.882   0.290
50198W        W21727  24.055  44.352  13.464
50199W        W21728  41.854  20.268   1.713
50200W        W21729  35.446  31.734  14.752
50201W        W21730  22.505  17.149   4.513
50202W        W21731  42.381  28.731   0.253
50203W        W21732  13.131  41.754   3.720
50204W        W21733  10.672  10.820  13.526
50205W        W21734   8.817   7.265  11.110
50206W        W21735  42.871   1.863   1.895
50207W        W21736  18.674  31.239  10.992
50208W        W21737  39.209  32.969   2.185
50209W        W21738  11.283  37.252   1.867
50210W        W21739  33.989  15.845   4.091
50211W        W21740   1.943  31.609  14.272
50212W        W21741  33.071   3.981  12.115
50213W        W21742  44.322  25.552   1.945
50214W        W21743  44.370  31.833  10.385
50215W        W21744  24.291  10.810   4.499
50216W        W21745   5.992  29.875   1.758
50217W        W21746  37.958   5.329   2.412
50218W        W21747  40.762  33.152   2.356
50219W        W21748  21.254  32.741  14.836
50220W        W21749   5.462  43.016   3.154
50221W        W21750  32.368  13.382  12.082
50222W        W21751  23.117  35.547  10.694
50223W        W21752  38.912  29.014  13.920
50224W        W21753  22.304  27.068   4.656
50225W        W21754  43.246  25.172   1.479
50226W        W21755  26.573   6.510  13.149
50227W        W21756  35.976  24.063   4.505
50228W        W21757  15.146  37.583   0.389
50229W        W21758  13.783  32.422  14.008
50230W        W21759  10.117  11.810   4.928
50231W        W21760  10.617  39.485  11.153
50232W        W21761  17.278  33.334  10.408
50233W        W21762  43.058  34.949  13.882
50234W        W21763  28.410  18.079   0.401
50235W        W21764  24.216  28.810  12.370
50236W        W21765  41.803   7.262  14.517
50237W        W21766  29.619  41.794   3.593
50238W        W21767  39.905  21.409  14.811
50239W        W21768   2.838  13.580  14.994
50240W        W21769  17.494  14.044  13.426
50241W        W21770  40.445  33.607  10.691
50242W        W21771  37.129  44.558   4.265
50243W        W21772  35.345  31.451   1.718
50244W        W21773  42.244  38.378  10.791
50245W        W21774  15.076  11.190  14.771
50246W        W21775  25.670  44.815  10.388
50247W        W21776   1.444  11.656   1.446
50248W        W21777  27.656  17.182   2.361
50249W        W21778  35.083  24.386   0.402
50250W        W21779  20.590   0.938  14.487
50251W        W21780  39.449  13.247   0.041
50252W        W21781  38.300  16.278  12.027
50253W        W21782  34.067  40.297   4.506
50254W        W21783  31.839  18.166   2.136
50255W        W21784  39.382   1.366  12.108
50256W        W21785  20.278  24.281  11.589
50257W        W21786  10.845  39.380   3.410
50258W        W21787  23.273  39.569   0.691
50259W        W21788  10.383   3.947  13.347
50260W        W21789  29.222  30.573   1.455
50261W        W21790   2.726  44.769   0.013
50262W        W21791  25.632  17.996  10.200
50263W        W21792  17.214  33.660   1.878
50264W        W21793  25.663  32.127  10.565
50265W        W21794  12.418  14.627   1.513
50266W        W21795   0.298   9.270  10.723
50267W        W21796   3.135  12.218  11.165
50268W        W21797  18.589  24.271   4.939
50269W        W21798  17.961   3.946   4.972
50270W        W21799  12.603  42.824  12.459
50271W        W21800   4.360  18.126  14.205
50272W        W21801  44.231  25.068  10.400
50273W        W21802   0.669  11.646  11.664
50274W        W21803  32.989  22.975   2.955
50275W        W21804  26.047   3.820   2.855
50276W        W21805   2.275  16.245   3.962
50277W        W21806  13.189  35.298  10.953
50278W        W21807  11.797  30.600   2.095
50279W        W21808   5.286  31.989   2.125
50280W        W21809   7.401   5.833  14.029
50281W        W21810   8.824  35.191   4.863
50282W        W21811  30.594   9.399  11.343
50283W        W21812   1.052  41.921   0.700
50284W        W21813  27.934  36.663  11.687
50285W        W21814  30.161   1.259  13.010
50286W        W21815  21.086   6.171  10.810
50287W        W21816   0.287  35.942  10.509
50288W        W21817   4.708  24.194  11.407
50289W        W21818  22.989   8.219  10.577
50290W        W21819  34.072  36.190  14.318
50291W        W21820  28.611  28.859   1.146
50292W        W21821  18.992  20.511   0.507
50293W        W21822  44.470   6.400   2.302
50294W        W21823   5.370  35.242  13.648
50295W        W21824  35.916  19.399   1.742
50296W        W21825  16.188  15.135   4.364
50297W        W21826   5.938  40.991  11.175
50298W        W21827  20.756   1.656   3.777
50299W        W21828  34.048  28.333  11.593
50300W        W21829   0.940  33.116  12.504
50301W        W21830  37.141  35.540   1.731
50302W        W21831  26.490  31.003  14.951
50303W        W21832  34.775   4.301  13.752
50304W        W21833  29.561  14.688   3.125
50305W        W21834  10.348  15.818   0.520
50306W        W21835  36.797  20.032  12.521
50307W        W21836  44.367  18.503   1.460
50308W        W21837   3.106  44.251   1.285
50309W        W21838  11.708  36.493  12.055
50310W        W21839  44.794   8.103   0.261
50311W        W21840  27.348  44.445  12.005
50312W        W21841  44.001  39.759   3.325
50313W        W21842  29.677  16.810   1.887
50314W        W21843  10.356  34.997   1.437
50315W        W21844   2.218   2.771   1.767
50316W        W21845  22.994  15.721   1.725
50317W        W21846  34.952  35.718  10.693
50318W        W21847  15.368   7.729   5.058
50319W        W21848  40.340   0.904  11.554
50320W        W21849  15.828  43.769  13.517
50321W        W21850  18.441  27.703   0.117
50322W        W21851  40.036  13.221  12.555
50323W        W21852  14.170  30.875  12.901
50324W        W21853   7.911  32.428   0.823
50325W        W21854  20.582  38.260  14.775
50326W        W21855  10.901  29.050  14.030
50327W        W21856  40.223  33.412   4.801
50328W        W21857  23.596  25.671   0.839
50329W        W21858  42.097   2.940   3.886
50330W        W21859  41.744   7.057   1.872
50331W        W21860   6.661   6.779  11.500
50332W        W21861  44.855  18.789  11.526
50333W        W21862  11.172  44.954  11.191
50334W        W21863   0.377  42.180   3.227
50335W        W21864  30.536   4.727  13.365
50336W        W21865  14.536  43.909   2.023
50337W        W21866  31.030  22.788  12.631
50338W        W21867  34.618  39.010   0.278
50339W        W21868  22.278  23.608   4.898
50340W        W21869  44.497  27.178  10.763
50341W        W21870   6.232  14.599  12.086
50342W        W21871   6.873  17.519   4.255
50343W        W21872   2.760  27.544  10.983
50344W        W21873  20.166  29.685   4.134
50345W        W21874  41.333   5.956  13.885
50346W        W21875  26.404  10.168  11.055
50347W        W21876  42.481  27.948  11.860
50348W        W21877  28.161   1.039  13.344
50349W        W21878  32.433   0.756   0.819
50350W        W21879  34.656  38.724  12.227
50351W        W21880   5.875  43.250  12.456
50352W        W21881  36.366  31.691  13.291
50353W        W21882  27.185  27.863  10.689
50354W        W21883  32.128  22.441   3.726
50355W        W21884  40.089  14.235  10.883
50356W        W21885   6.860  36.942  14.486
50357W        W21886  39.850  20.591  11.317
50358W        W21887  32.901  38.873   2.713
50359W        W21888  10.205  38.076   4.295
50360W        W21889  20.542  26.189   2.761
50361W        W21890  32.890  21.346   4.107
50362W        W21891   2.004   1.931   2.334
50363W        W21892  40.364   2.908  13.352
50364W        W21893  36.951   4.976   4.766
50365W        W21894  41.161   7.843  13.359
50366W        W21895  17.779  20.355   5.635
50367W        W21896   0.247  11.156   2.237
50368W        W21897  38.773  43.881  11.990
50369W        W21898  19.543  32.127  14.766
50370W        W21899  17.007  23.732   4.969
50371W        W21900   7.503  37.513   1.919
50372W        W21901  38.404   8.032   3.593
50373W        W21902  41.320   4.961  13.923
50374W        W21903  36.487  44.806  12.727
50375W        W21904  10.152  14.671  12.456
50376W        W21905  17.207   8.885  14.987
50377W        W21906   3.928  31.424   2.823
50378W        W21907   2.421  27.648  12.436
50379W        W21908  31.219   6.848   0.703
50380W        W21909   1.970   4.699   1.473
50381W        W21910   8.445  19.305   5.223
50382W        W21911  37.944   7.069   2.206
50383W        W21912   3.178  15.324  11.366
50384W        W21913  24.097  37.888   2.499
50385W        W21914  24.925  12.260  11.989
50386W        W21915  27.316   7.578   2.821
50387W        W21916  14.780  32.891   4.748
50388W        W21917   0.499  19.697  12.097
50389W        W21918  10.303  17.170   3.672
50390W        W21919  20.424  16.587   2.318
50391W        W21920  39.654  17.159   4.632
50392W        W21921   0.304  33.698  12.709
50393W        W21922   0.034  11.290  14.042
50394W        W21923  33.148  29.987   1.683
50395W        W21924  10.101  28.570   1.221
50396W        W21925  35.585  16.769   1.303
50397W        W21926  26.470  12.109   1.228
50398W        W21927  43.463  22.053   1.658
50399W        W21928  13.100  28.154   0.309
50400W        W21929  35.497   0.453  13.468
50401W        W21930  37.775  25.510  12.374
50402W        W21931  32.591  16.700   0.386
50403W        W21932  10.980   9.574   2.125
50404W        W21933  32.982  40.037   3.156
50405W        W21934  10.375  40.059   2.896
50406W        W21935  21.729  20.442  13.530
50407W        W21936  21.097   1.391  13.182
50408W        W21937  25.524  37.997   2.692
50409W        W21938   5.994   9.336   4.299
50410W        W21939  22.234  42.037  14.347
50411W        W21940  31.107  30.141  14.467
50412W        W21941  24.641  10.073  14.998
50413W        W21942  26.700  41.061  11.026
50414W        W21943  41.342  23.998   4.688
50415W        W21944  18.097  44.552  14.097
50416W        W21945  35.838   2.501   4.796
50417W        W21946  35.660   5.213   4.207
50418W        W21947  22.798  15.291  10.848
50419W        W21948  20.977  23.500  12.881
50420W        W21949  14.183   9.372  11.056
50421W        W21950  13.228  20.715   0.421
50422W        W21951  11.673  37.306   1.207
50423W        W21952  14.094  40.283  11.692
50424W        W21953   3.654  25.011   4.651
50425W        W21954  23.070  32.250   4.957
50426W        W21955  23.719  29.186   3.636
50427W        W21956   6.143   1.075   0.264
50428W        W21957  30.020  36.307   3.692
50429W        W21958  32.044   5.396  12.360
50430W        W21959  21.058  14.152  11.971
50431W        W21960  16.729   0.467  13.935
50432W        W21961  19.706  30.861  11.164
50433W        W21962  39.980  26.651   4.409
50434W        W21963  28.930  15.308   5.080
50435W        W21964  27.302  12.756  13.238
50436W        W21965  34.519  42.486  11.080
50437W        W21966   2.379   7.371  13.841
50438W        W21967  33.797   0.764  14.839
50439W        W21968  35.163  43.085   3.251
50440W        W21969  29.129  16.604  10.642
50441W        W21970   5.270  37.905  13.385
50442W        W21971  13.457  13.493  11.893
50443W        W21972   3.789   1.045  14.381
50444W        W21973  28.464   5.344  10.709
50445W        W21974  16.720  24.662  12.970
50446W        W21975  27.639  40.292   0.377
50447W        W21976   5.303  36.879  14.438
50448W        W21977  27.985   8.010   1.908
50449W        W21978  21.227  43.272  13.415
50450W        W21979  36.584  23.164  11.553
50451W        W21980  36.927   7.309  13.522
50452W        W21981  38.317   9.796   0.084
50453W        W21982  24.177  22.193  11.211
50454W        W21983   5.161  29.862   2.853
50455W        W21984  23.161   7.696  13.952
50456W        W21985  22.662  28.552  12.417
50457W        W21986  27.002   3.307   3.681
50458W        W21987  30.513  10.533  10.560
50459W        W21988  25.196  25.719  11.200
50460W        W21989  26.842  18.038   2.739
50461W        W21990  30.384  11.305   0.440
50462W        W21991  15.624  28.164  13.926
50463W        W21992  14.782  37.434  10.013
50464W        W21993  44.558   5.350   2.777
50465W        W21994  13.207  20.710   4.118
50466W        W21995  15.016  20.078  10.506
50467W        W21996   2.978  26.143   4.128
50468W        W21997  13.348   9.708   2.403
50469W        W21998  12.731  25.729  13.972
50470W        W21999  13.709   2.744   0.409
50471W        W22000   7.514  32.705   1.044
50472W        W22001  22.900  31.450   2.632
50473W        W22002  12.092   8.671   0.391
50474W        W22003  35.140  36.342   2.871
50475W        W22004  20.134  33.797   0.306
50476W        W22005  24.192  21.596   0.462
50477W        W22006  33.395  11.124  13.401
50478W        W22007   4.824  16.319  12.124
50479W        W22008  10.042  40.516  11.671
50480W        W22009  10.296  13.205   2.906
50481W        W22010  34.590  35.183   4.965
50482W        W22011   3.603  26.663   3.622
50483W        W22012   6.864  15.787   3.703
50484W        W22013  44.323   0.334   2.357
50485W        W22014   2.422   3.320  14.550
50486W        W22015  28.590   0.376   1.790
50487W        W22016  24.507  11.131   2.971
50488W        W22017  19.300  33.604   3.417
50489W        W22018  41.075   2.809  14.402
50490W        W22019  34.051   7.989   2.682
50491W        W22020   8.351  10.761  12.738
50492W        W22021  27.206  22.210   4.558
50493W        W22022  30.048  27.463   9.846
50494W        W22023   2.681   2.545   1.827
50495W        W22024  27.221  20.111  11.076
50496W        W22025  27.980   4.690   4.959
50497W        W22026  14.246  22.126   2.619
50498W        W22027  30.645  43.842   0.919
50499W        W22028  20.122  15.567   3.707
50500W        W22029  35.034  15.247   3.742
50501W        W22030  27.640  17.610   2.851
50502W        W22031  34.016   8.176  13.027
50503W        W22032   2.053  13.929  13.018
50504W        W22033  29.770   6.678   4.980
50505W        W22034  24.442  23.616  13.570
50506W        W22035  43.049   2.701  14.353
50507W        W22036  39.015  15.213  12.757
50508W        W22037   6.334   0.685  12.533
50509W        W22038  29.221  16.140  14.361
50510W        W22039  30.565  39.950  14.879
50511W        W22040   6.052  18.016   4.284
50512W        W22041  35.559  24.534  14.594
50513W        W22042  13.246   0.521   5.006
50514W        W22043  39.793  31.104   1.718
50515W        W22044  29.642  40.319  11.129
50516W        W22045  43.965  30.596  14.287
50517W        W22046  43.710   8.212   1.688
50518W        W22047   6.696   4.248   2.765
50519W        W22048  23.211  32.198   3.588
50520W        W22049   3.936  27.665   0.029
50521W        W22050   0.027  22.838  14.450
50522W        W22051  34.051  26.192   2.370
50523W        W22052  36.277  12.491  10.643
50524W        W22053  14.225  33.180  13.836
50525W        W22054   8.289   6.366   3.400
50526W        W22055  13.282   3.715   1.191
50527W        W22056  35.064  19.582   3.111
50528W        W22057  13.134  33.550   4.264
50529W        W22058  11.222  29.701  14.869
50530W        W22059   5.482  25.056  10.666
50531W        W22060  23.832  16.312   0.280
50532W        W22061   1.690   7.474   3.666
50533W        W22062  32.591  16.490  11.562
50534W        W22063  37.960  21.192  11.624
50535W        W22064  39.055  10.156   0.317
50536W        W22065  28.639   9.154  14.865
50537W        W22066  14.732  13.186  11.682
50538W        W22067  23.441  40.129   4.592
50539W        W22068   5.484  39.326   0.749
50540W        W22069  26.451  17.719   3.663
50541W        W22070  27.540  34.776  10.694
50542W        W22071  28.684  35.217  12.511
50543W        W22072  20.632  17.463  14.356
50544W        W22073  32.943  32.017   1.261
50545W        W22074   0.712  41.899  14.801
50546W        W22075  22.633  36.100   9.763
50547W        W22076  25.019  29.448  13.053
50548W        W22077  36.992  21.030   2.638
50549W        W22078  18.340  34.984   1.038
50550W        W22079  25.016  20.535   1.806
50551W        W22080  16.641  33.025   3.844
50552W        W22081  10.709  36.396   3.949
50553W        W22082  40.802   4.278   4.029
50554W        W22083   6.053  23.560  11.651
50555W        W22084  43.098  41.381  14.900
50556W        W22085  39.468  42.526   4.563
50557W        W22086  12.853  39.478   3.646
50558W        W22087  25.402  26.059   4.809
50559W        W22088  26.555  38.826   3.081
50560W        W22089   7.272  32.986   0.236
50561W        W22090  23.467  19.137  12.072
50562W        W22091   4.621  39.153  14.464
50563W        W22092  38.356   5.386  14.857
50564W        W22093  19.032  11.895  12.858
50565W        W22094  29.395  30.074  11.210
50566W        W22095  17.189  34.378   0.599
50567W        W22096  36.550   4.785  12.984
50568W        W22097  41.908  31.651   4.472
50569W        W22098   1.776  23.457   0.960
50570W        W22099   0.921   5.931  11.903
50571W        W22100  42.294  11.708  11.573
50572W        W22101  27.727  32.530  11.966
50573W        W22102  25.984   7.727   2.412
50574W        W22103   2.249  39.061   0.693
50575W        W22104  26.953  13.314   0.698
50576W        W22105  43.681   1.235   0.073
50577W        W22106  28.418  15.253  13.584
50578W        W22107  23.549  14.210  13.345
50579W        W22108  41.476  41.351   4.871
50580W        W22109  26.831  21.544  11.590
50581W        W22110  11.099   8.482  12.427
50582W        W22111   4.234  16.778   2.002
50583W        W22112   6.302  22.724  14.822
50584W        W22113  27.267  12.583   0.060
50585W        W22114  11.665  21.529   1.760
50586W        W22115  15.339   2.323  13.921
50587W        W22116  35.602  37.367   0.347
50588W        W22117  28.952   0.733  10.578
50589W        W22118  33.758  23.776  13.658
50590W        W22119  33.130  38.261  13.020
50591W        W22120   4.409  43.020  13.499
50592W        W22121  25.130  33.694   1.341
50593W        W22122  13.937  18.939  12.688
50594W        W22123  35.550   2.060   4.040
50595W        W22124  15.632  16.779   0.546
50596W        W22125  36.894  40.904   2.102
50597W        W22126  41.518  26.871   5.088
50598W        W22127  30.667  34.401   1.332
50599W        W22128  22.481  34.606  11.174
50600W        W22129  27.766  36.962  10.892
50601W        W22130  37.155  39.897  11.361
50602W        W22131  17.203  18.794  11.589
50603W        W22132  17.451  30.445   2.916
50604W        W22133   6.311   1.074  11.584
50605W        W22134  42.014  44.857   2.376
50606W        W22135  44.084  34.938   0.039
50607W        W22136   0.944  23.974  12.007
50608W        W22137  33.406  35.029   3.219
50609W        W22138  25.088   5.716  13.393
50610W        W22139  16.153   4.390   1.646
50611W        W22140  16.543  14.612  11.160
50612W        W22141  13.174  13.623   4.848
50613W        W22142  29.879   1.863   4.183
50614W        W22143  35.361  43.557  13.994
50615W        W22144  26.655  24.251  13.759
50616W        W22145   7.752  29.978  14.630
50617W        W22146  26.593  30.834  10.878
50618W        W22147   1.672   7.702  13.379
50619W        W22148  18.293   6.793  12.602
50620W        W22149  18.206  18.890   1.351
50621W        W22150  22.970  30.176  10.774
50622W        W22151   2.548  14.976   1.843
50623W        W22152  21.187   4.425   3.684
50624W        W22153  27.479  16.729   1.328
50625W        W22154  10.807  19.247  13.042
50626W        W22155  10.824   3.698   4.031
50627W        W22156  42.874   4.157  11.124
50628W        W22157  44.249  18.801   1.031
50629W        W22158  41.824   5.909   3.117
50630W        W22159  25.699  10.845  11.732
50631W        W22160  25.730  31.855  10.075
50632W        W22161  40.931  26.097   3.322
50633W        W22162   0.776  21.059   1.766
50634W        W22163  30.747  41.378   2.181
50635W        W22164  14.607  24.702   4.596
50636W        W22165   1.921  13.535   1.202
50637W        W22166  16.139  10.140  13.051
50638W        W22167  16.423  30.068   1.870
50639W        W22168  23.391  34.782  10.578
50640W        W22169   8.899   3.398   4.106
50641W        W22170   4.595  12.793  14.928
50642W        W22171  28.913   7.885   2.382
50643W        W22172   1.015  19.692   0.499
50644W        W22173  43.906  35.184   5.109
50645W        W22174  12.726  34.165   1.220
50646W        W22175   7.350  40.003   3.883
50647W        W22176   6.210  40.247   1.136
50648W        W22177  36.798  31.030  13.054
50649W        W22178  32.317   6.258   4.602
50650W        W22179   3.696  41.060   4.629
50651W        W22180  20.766  20.684  14.454
50652W        W22181  37.918  36.198   0.447
50653W        W22182  17.088   7.374   2.741
50654W        W22183  40.747   0.915   1.678
50655W        W22184   9.371   7.301   4.169
50656W        W22185  32.566   2.493   1.230
50657W        W22186  21.033  13.185  10.620
50658W        W22187  16.230  43.807  12.466
50659W        W22188  36.414   6.946   5.038
50660W        W22189  31.958  44.306   2.153
50661W        W22190  25.272  19.230   3.741
50662W        W22191  34.395  22.260   1.613
50663W        W22192  40.876   1.511   4.075
50664W        W22193  17.980  20.525   0.311
50665W        W22194  10.120  16.740   1.897
50666W        W22195  40.992  12.161  11.493
50667W        W22196  11.376  40.516  14.817
50668W        W22197   1.929  24.957   0.831
50669W        W22198   5.101  41.940   0.209
50670W        W22199  24.273  19.580   1.446
50671W        W22200  44.242  34.835   4.527
50672W        W22201   7.157  28.384  12.496
50673W        W22202  23.221  30.450   1.715
50674W        W22203   1.338  22.194  13.899
50675W        W22204  27.596   9.732  10.629
50676W        W22205   3.886  16.160   4.642
50677W        W22206   4.681  41.287  12.600
50678W        W22207  11.703  39.405  13.511
50679W        W22208  27.117  30.155   4.509
50680W        W22209  14.383  11.686  11.168
50681W        W22210  43.851  34.295  13.968
50682W        W22211  20.962  13.103   1.439
50683W        W22212   3.206   2.764  11.508
50684W        W22213  42.117  12.735   4.002
50685W        W22214  16.011  15.820  12.133
50686W        W22215  26.621  13.427  12.458
50687W        W22216   7.266  40.124   1.327
50688W        W22217  30.629  36.742  13.379
50689W        W22218  35.835   6.299  14.770
50690W        W22219   5.355  16.325  12.079
50691W        W22220  24.511   1.354  14.632
50692W        W22221  23.678  17.717  10.457
50693W        W22222  25.182  29.087  14.783
50694W        W22223   4.701   8.863   4.054
50695W        W22224  15.116  39.905   2.423
50696W        W22225   0.941  25.393   3.684
50697W        W22226   0.252  16.553  13.560
50698W        W22227  17.289   4.172  14.469
50699W        W22228   0.936  21.273   2.199
50700W        W22229  10.764  24.596  11.636
50701W        W22230  25.056  28.187   0.498
50702W        W22231  13.377  21.687  14.099
50703W        W22232  34.904   6.247   4.227
50704W        W22233   3.888  31.398   4.780
50705W        W22234  33.029   5.975  14.327
50706W        W22235  38.698  11.101   3.347
50707W        W22236  28.877  34.509  12.012
50708W        W22237  32.386  32.806  11.549
50709W        W22238  43.730  42.937  12.896
50710W        W22239   9.371   3.295   0.464
50711W        W22240  25.652  42.381   1.481
50712W        W22241  38.567  23.245  11.578
50713W        W22242  16.649  30.675  11.037
50714W        W22243  17.574  39.095  12.298
50715W        W22244   5.890   0.785  11.536
50716W        W22245  19.898  18.201   3.216
50717W        W22246  14.731  21.147  11.859
50718W        W22247  11.659  11.574  11.642
50719W        W22248  14.245  21.048   0.944
50720W        W22249  13.235  19.619   1.088
50721W        W22250  41.279   6.740  12.509
50722W        W22251  15.280  43.342  11.816
50723W        W22252  40.946  14.246  11.120
50724W        W22253  41.989  16.744   2.708
50725W        W22254  10.676   5.013  10.627
50726W        W22255  15.095  23.256  12.531
50727W        W22256  44.263  26.663   0.663
50728W        W22257  33.907  43.955  12.378
50729W        W22258  21.994  12.076   2.014
50730W        W22259  20.308  41.033   3.235
50731W        W22260   2.088  35.718  13.491
50732W        W22261  35.988  36.507   0.284
50733W        W22262  27.133  44.495  13.346
50734W        W22263   6.633   2.098  14.969
50735W        W22264  26.057  11.212  13.027
50736W        W22265  30.399  36.987   2.091
50737W        W22266  15.830  39.729   1.139
50738W        W22267   3.188   7.926   0.116
50739W        W22268  10.060  39.936   0.640
50740W        W22269  19.010  37.307   3.869
50741W        W22270  16.291  16.275   1.990
50742W        W22271   2.266   5.806   3.638
50743W        W22272  22.257  33.017   1.350
50744W        W22273  39.557  36.874   0.770
50745W        W22274  41.286  28.944   3.228
50746W        W22275   3.705  17.512   3.119
50747W        W22276  30.402   8.352  13.505
50748W        W22277  38.025  38.320  10.451
50749W        W22278   7.260  41.690   1.250
50750W        W22279  40.849   9.968   2.747
50751W        W22280  12.808  37.807   4.001
50752W        W22281  14.784  37.687   0.017
50753W        W22282  31.292  22.938  12.105
50754W        W22283  39.746  34.879   4.578
50755W        W22284  39.811  26.998   1.315
50756W        W22285  11.374   6.385  10.904
50757W        W22286  34.954  22.203  10.298
50758W        W22287   1.267   8.448   0.511
50759W        W22288   3.993   8.911  11.989
50760W        W22289  41.044  15.574   0.116
50761W        W22290  42.032  10.544   0.044
50762W        W22291  29.031  26.629   0.666
50763W        W22292  30.172   6.181  13.594
50764W        W22293  38.451  16.231  12.590
50765W        W22294  19.695   2.271  11.122
50766W        W22295  23.262  13.647   3.739
50767W        W22296  25.635  19.060   4.106
50768W        W22297  16.784   1.219   4.872
50769W        W22298  26.194  26.474  13.022
50770W        W22299  15.404  10.303  12.435
50771W        W22300  42.841  29.077   0.169
50772W        W22301  20.861   4.192   1.493
50773W        W22302   2.430  27.176  14.049
50774W        W22303  24.254  29.236   4.522
50775W        W22304  12.169  24.214  13.309
50776W        W22305  26.614  40.041  13.631
50777W        W22306  39.910  22.578   2.733
50778W        W22307  29.073  33.485   2.441
50779W        W22308  30.496   5.212   0.220
50780W        W22309  29.597  39.857   0.216
50781W        W22310   8.052  23.586  13.659
50782W        W22311  23.563  25.743  11.575
50783W        W22312  10.303  20.366   3.157
50784W        W22313   7.977  40.936   0.741
50785W        W22314  28.460  27.872   2.851
50786W        W22315  29.126  34.351  11.579
50787W        W22316  33.415  14.594   3.192
50788W        W22317  41.908  14.644   1.894
50789W        W22318  35.387   2.350   4.574
50790W        W22319  18.298   7.679  13.001
50791W        W22320   3.205  35.472   3.159
50792W        W22321  26.168  18.052   0.448
50793W        W22322  20.100  44.857   3.864
50794W        W22323  27.177  34.270  14.362
50795W        W22324  14.746  13.236   4.621
50796W        W22325  34.715   4.250  12.043
50797W        W22326  29.586   5.700  11.190
50798W        W22327   0.850   9.874  11.717
50799W        W22328  13.170  41.648  11.567
50800W        W22329  37.930  30.064  13.385
50801W        W22330  34.544   0.229   3.190
50802W        W22331  19.961  24.803   0.687
50803W        W22332   4.585  38.791  11.209
50804W        W22333  26.658  37.100   2.687
50805W        W22334  40.966  39.273   3.628
50806W        W22335   3.808   8.554  13.930
50807W        W22336   8.796  25.977  10.707
50808W        W22337   4.924  25.804   1.997
50809W        W22338   4.918  35.460  13.460
50810W        W22339  23.197  19.334  11.395
50811W        W22340  36.979  10.225  11.421
50812W        W22341  24.735  22.302   0.240
50813W        W22342   5.031  25.689   3.769
50814W        W22343   4.373  26.528  12.347
50815W        W22344  38.636  24.672   1.215
50816W        W22345  44.571  10.394   2.273
50817W        W22346   5.501  19.277  11.955
50818W        W22347  35.029  43.287  13.283
50819W        W22348  20.085  35.988  14.091
50820W        W22349  13.923  30.479  14.815
50821W        W22350   7.774   8.147  11.684
50822W        W22351  31.358  30.561  13.399
50823W        W22352  16.099  16.564   4.711
50824W        W22353  34.569  28.337  11.195
50825W        W22354  43.456  26.215   0.005
50826W        W22355  26.790  34.057  11.664
50827W        W22356  38.417  13.108   0.389
50828W        W22357  29.072  44.953  14.844
50829W        W22358  42.615  12.832   4.142
50830W        W22359  16.101  31.711   0.930
50831W        W22360  15.904  43.771  12.998
50832W        W22361   9.324  35.829   0.798
50833W        W22362   6.964   0.307   1.787
50834W        W22363  44.468  26.294   4.274
50835W        W22364   2.787  17.802   4.454
50836W        W22365  28.268   4.735  11.562
50837W        W22366  31.070  38.117   2.075
50838W        W22367  31.487   4.189  13.478
50839W        W22368   0.580  31.801  14.849
50840W        W22369  38.526   2.463  14.210
50841W        W22370  25.805  28.021  12.814
50842W        W22371  36.996  40.356  11.722
50843W        W22372  38.806   5.261   2.949
50844W        W22373  40.970   7.765  10.701
50845W        W22374  14.415  26.601   3.217
50846W        W22375  34.936  32.333   0.313
50847W        W22376  28.072  17.901  11.130
50848W        W22377  14.164  24.551   2.374
50849W        W22378  21.209  38.901   1.859
50850W        W22379  13.382  28.079   2.080
50851W        W22380  29.536  43.576  10.940
50852W        W22381  37.304  32.430  11.456
50853W        W22382  42.799  27.593   0.603
50854W        W22383   6.320  40.367  13.477
50855W        W22384  43.070  15.737  13.494
50856W        W22385   7.277   8.171   1.150
50857W        W22386   2.312  44.476  10.588
50858W        W22387   1.078  15.622  13.208
50859W        W22388  12.147  18.079   0.431
50860W        W22389  23.019  32.484  10.464
50861W        W22390  18.144   0.936  11.533
50862W        W22391  39.451  21.231   0.007
50863W        W22392   5.797   4.762   0.714
50864W        W22393  10.580   4.853  13.894
50865W        W22394  13.396  35.384   3.825
50866W        W22395   7.418  14.770   2.891
50867W        W22396  32.033  43.925   3.597
50868W        W22397  25.497  31.454   2.609
50869W        W22398   8.815  23.701   4.455
50870W        W22399   7.265  29.303  13.482
50871W        W22400  16.887   9.131   0.916
50872W        W22401  29.127   5.335   1.213
50873W        W22402  30.586  39.113   1.272
50874W        W22403  26.508  22.046  12.461
50875W        W22404  40.869  10.535   0.928
50876W        W22405  16.290  15.702   2.349
50877W        W22406  33.333  39.164   2.679
50878W        W22407   9.133  42.398   1.286
50879W        W22408  13.683   8.703  12.915
50880W        W22409   4.262  44.690   4.042
50881W        W22410  22.655  19.584   2.431
50882W        W22411  13.077  22.966   2.678
50883W        W22412   0.322   8.135  14.332
50884W        W22413  41.521  26.389  14.520
50885W        W22414  23.778  22.059   2.278
50886W        W22415   9.300   2.374   0.237
50887W        W22416  22.097  32.407  11.420
50888W        W22417   8.259  20.404   0.518
50889W        W22418  10.834  40.141   0.755
50890W        W22419  25.004  15.454  14.342
50891W        W22420  40.450  25.106  11.202
50892W        W22421   1.059  21.466  12.550
50893W        W22422  44.287  28.668   9.862
50894W        W22423   1.751  13.434  14.731
50895W        W22424  10.736  40.961  13.376
50896W        W22425  22.262  14.093   4.546
50897W        W22426   7.725  11.488  12.957
50898W        W22427   0.386   3.995   4.131
50899W        W22428  33.638  16.567   0.171
50900W        W22429  28.550  31.488   1.679
50901W        W22430  39.990  29.571  11.664
50902W        W22431   9.644   5.430  14.835
50903W        W22432   4.592  38.580  11.972
50904W        W22433   6.711  21.308   4.839
50905W        W22434   3.826  43.433   3.026
50906W        W22435  23.502  23.753   0.213
50907W        W22436  13.389  20.419   0.873
50908W        W22437   2.472  44.271   4.155
50909W        W22438   7.374   0.605  11.638
50910W        W22439  26.562   8.754  10.729
50911W        W22440  16.040  13.234   3.763
50912W        W22441   0.956  36.692   3.716
50913W        W22442  23.477  17.143  14.856
50914W        W22443  39.147  29.087  13.473
50915W        W22444  26.618  44.389   0.746
50916W        W22445  25.925  34.404  13.118
50917W        W22446  37.267  29.849  12.188
50918W        W22447  13.287  30.851  11.439
50919W        W22448  14.737  41.396  11.059
50920W        W22449   5.302  35.552  11.651
50921W        W22450  20.560  31.375   1.977
50922W        W22451  13.037  32.650   1.511
50923W        W22452  28.385  28.522   1.941
50924W        W22453  19.201  39.022  10.164
50925W        W22454   8.065   5.061  12.024
50926W        W22455  32.936   3.768   4.871
50927W        W22456  26.131  22.705   4.816
50928W        W22457  41.309  33.501  14.797
50929W        W22458  37.575   8.382   3.329
50930W        W22459  14.183  43.360   4.475
50931W        W22460  44.429   7.267  11.452
50932W        W22461  43.850   4.030   2.644
50933W        W22462   0.752  14.237  13.792
50934W        W22463  41.525   8.243  13.567
50935W        W22464  39.320  27.627  11.557
50936W        W22465  32.636  40.809   3.426
50937W        W22466  21.243  27.666  13.524
50938W        W22467  38.086  33.254  13.491
50939W        W22468  20.809  40.963   1.717
50940W        W22469  15.561  43.448   3.676
50941W        W22470  26.235  44.914   3.740
50942W        W22471  25.403  27.980   0.830
50943W        W22472   4.127  15.820  12.478
50944W        W22473  19.134  43.305  10.722
50945W        W22474  31.105   4.746   3.649
50946W        W22475  26.926  15.765  12.756
50947W        W22476  41.250  19.577   3.619
50948W        W22477  35.123   3.823  14.828
50949W        W22478  20.267  34.448  12.440
50950W        W22479   9.738  25.250  14.480
50951W        W22480  10.319  44.675   3.761
50952W        W22481   3.491  26.959   3.195
50953W        W22482  15.527  12.531  12.017
50954W        W22483  30.469  37.014   3.390
50955W        W22484   5.581  14.922  11.497
50956W        W22485  13.352  21.492   3.211
50957W        W22486  19.153   4.735   1.272
50958W        W22487  40.581  37.965  13.651
50959W        W22488   5.864  32.974  11.640
50960W        W22489   5.777  20.795   3.797
50961W        W22490  19.067  22.650  10.701
50962W        W22491  25.133   3.779   3.201
50963W        W22492  26.731  26.473  11.622
50964W        W22493  20.307  38.328   0.232
50965W        W22494  44.212  39.267   0.682
50966W        W22495  17.709  18.721   1.356
50967W        W22496  41.988  17.448  13.672
50968W        W22497  31.123  26.168   3.887
50969W        W22498  33.138  24.005   3.754
50970W        W22499  21.323  36.921  10.304
50971W        W22500   5.778  38.413  13.999
50972W        W22501   8.194  29.239   4.998
50973W        W22502  23.981  31.457  10.744
50974W        W22503  41.652  32.651  10.764
50975W        W22504  11.154  17.533  10.418
50976W        W22505   9.924  27.380  11.162
50977W        W22506  42.321  29.453   0.846
50978W        W22507  30.246  20.700   2.852
50979W        W22508   2.330  31.352   2.225
50980W        W22509  26.534  10.899  11.481
50981W        W22510  32.381  29.434  10.071
50982W        W22511  17.289   2.430   1.343
50983W        W22512  14.191   5.666  11.616
50984W        W22513  20.626  24.455  13.443
50985W        W22514  32.032  13.337  11.691
50986W        W22515  34.173  44.414  12.447
50987W        W22516  39.085  35.195  13.853
50988W        W22517  26.017  23.176  12.210
50989W        W22518  16.699   8.824   0.007
50990W        W22519  29.040  18.985  12.028
50991W        W22520  35.132  44.990  11.165
50992W        W22521  17.482  44.854  14.974
50993W        W22522  39.187  38.833  12.144
50994W        W22523   2.021  14.862   1.950
50995W        W22524  40.631  23.910  13.868
50996W        W22525   7.762  41.511  12.669
50997W        W22526  20.715  10.740   4.619
50998W        W22527   5.259  39.935  11.612
50999W        W22528  18.164  39.410   1.435
51000W        W22529  12.080  20.821  11.864
51001W        W22530  29.127  12.669  14.725
51002W        W22531  44.235  33.426  11.385
51003W        W22532  44.518  36.963  13.817
51004W        W22533  18.631  29.679   1.294
51005W        W22534  39.820   1.332  13.368
51006W        W22535   2.886  13.213  10.460
51007W        W22536  26.056  17.292  10.693
51008W        W22537  18.538  22.823  12.290
51009W        W22538  16.546  21.051  11.202
51010W        W22539   4.371   8.155  12.089
51011W        W22540  41.969  17.292  13.172
51012W        W22541  25.575   7.710   0.561
51013W        W22542  22.217  37.471   0.390
51014W        W22543   0.999  36.437   5.049
51015W        W22544  16.216  31.071  14.821
51016W        W22545  27.001  20.064   0.734
51017W        W22546  28.037  20.646  12.006
51018W        W22547   3.452  22.204  14.555
51019W        W22548  44.287  23.775   2.159
51020W        W22549  31.016  22.075   0.381
51021W        W22550  44.482  25.175   0.348
51022W        W22551  13.109   5.426  12.878
51023W        W22552  20.253  38.588   3.186
51024W        W22553  24.278  35.641  14.795
51025W        W22554   7.630  39.581   2.187
51026W        W22555  11.785   4.762  13.250
51027W        W22556  11.870  39.477   3.916
51028W        W22557  37.918  20.250  12.666
51029W        W22558  39.001  17.659  12.462
51030W        W22559  37.012  24.941  12.999
51031W        W22560   7.620  17.115  13.892
51032W        W22561  36.924  32.426   3.115
51033W        W22562  33.525  28.610  11.746
51034W        W22563  28.481  18.154   1.718
51035W        W22564   5.012  10.807  10.030
51036W        W22565   9.375  10.895  11.620
51037W        W22566  38.509  29.815  10.266
51038W        W22567  23.453  11.599  11.163
51039W        W22568  30.089  33.890  11.152
51040W        W22569  27.063  42.876   2.271
51041W        W22570   3.288  21.213  12.105
51042W        W22571  14.662  28.626  14.768
51043W        W22572   3.701  26.519   0.816
51044W        W22573  34.289   3.959  12.005
51045W        W22574  35.945  14.690   0.909
51046W        W22575  17.648  37.603  13.336
51047W        W22576  40.023   9.061  13.505
51048W        W22577  40.573  36.531  11.517
51049W        W22578  30.766  18.137   3.228
51050W        W22579  35.592   4.698   3.329
51051W        W22580  35.661   5.236  10.952
51052W        W22581  44.287  27.801   1.353
51053W        W22582  29.414  35.563  12.944
51054W        W22583   3.390   6.337  14.514
51055W        W22584  39.306  33.099  11.899
51056W        W22585   7.054  39.682  14.254
51057W        W22586  26.598  30.920   4.313
51058W        W22587  10.587   2.460   0.939
51059W        W22588  25.188  36.103  14.701
51060W        W22589  23.229   6.303  13.972
51061W        W22590  11.901  18.616   1.786
51062W        W22591  27.514  44.921  12.117
51063W        W22592   3.391  37.841   2.840
51064W        W22593  37.685  43.930   2.378
51065W        W22594  13.104   1.037   1.267
51066W        W22595  31.642  10.328   2.679
51067W        W22596  37.565  38.053  12.529
51068W        W22597  38.785  24.743  11.613
51069W        W22598  44.981   9.279  12.947
51070W        W22599  44.208  35.646  12.060
51071W        W22600  25.585  28.138   4.102
51072W        W22601  28.150  29.971   1.933
51073W        W22602   4.727  37.089   1.718
51074W        W22603  24.406   2.313  14.377
51075W        W22604   6.559  28.989  14.365
51076W        W22605  26.662  30.942  12.450
51077W        W22606  17.788  23.072  10.665
51078W        W22607  24.951   2.527   1.809
51079W        W22608  27.027  36.614   2.227
51080W        W22609   2.532  36.896   1.678
51081W        W22610   4.211  13.135  14.043
51082W        W22611   9.408  23.582   2.760
51083W        W22612  30.514  36.134  10.704
51084W        W22613   8.275  26.678  11.036
51085W        W22614  11.611  23.565   4.062
51086W        W22615  41.521  42.518  13.500
51087W        W22616  36.148  43.498   2.887
51088W        W22617  44.535  17.729  13.376
51089W        W22618  36.332  40.363   3.317
51090W        W22619  24.188   7.220  13.512
51091W        W22620  32.344  37.452   0.489
51092W        W22621  21.933  27.361   4.433
51093W        W22622  34.071  41.784  11.134
51094W        W22623  13.152   9.711  10.697
51095W        W22624  17.763  36.617   1.214
51096W        W22625  25.442  20.205  11.451
51097W        W22626  39.032   4.755   4.152
51098W        W22627  13.560  19.235   1.921
51099W        W22628   5.163  40.536  10.817
51100W        W22629  44.725   2.501   1.799
51101W        W22630  27.873  38.928   3.437
51102W        W22631   9.941   5.639   3.240
51103W        W22632  31.559   2.951   1.735
51104W        W22633  15.955   8.282   4.526
51105W        W22634  21.030  25.073  11.389
51106W        W22635  34.436  22.644  14.796
51107W        W22636  41.788  15.225  10.403
51108W        W22637   5.286  34.864  11.020
51109W        W22638   2.933  40.867  10.663
51110W        W22639  37.421  20.555  12.900
51111W        W22640  37.107  27.733  10.732
51112W        W22641  31.182  11.239  13.829
51113W        W22642  24.109  27.909   3.351
51114W        W22643  41.466   0.457  14.855
51115W        W22644  26.659   0.969  14.824
51116W        W22645  13.336  39.031  11.608
51117W        W22646  22.709   8.328  14.424
51118W        W22647  26.222  39.997  10.442
51119W        W22648  33.335  28.578  10.857
51120W        W22649   8.587  39.346   2.297
51121W        W22650   4.364  27.934   4.740
51122W        W22651   4.602  31.559  10.905
51123W        W22652  22.269  43.081   4.127
51124W        W22653   2.512   7.362   1.945
51125W        W22654  30.069   9.716   2.911
51126W        W22655  29.650  36.454  13.505
51127W        W22656  15.208   8.901   0.763
51128W        W22657  23.738   3.638  12.112
51129W        W22658  34.901  38.960  10.593
51130W        W22659  33.114   5.156   4.090
51131W        W22660  10.353  21.597  11.862
51132W        W22661   4.774  44.851   0.839
51133W        W22662  42.421  21.255  14.552
51134W        W22663  33.953   7.181  14.631
51135W        W22664   7.646  37.073   2.225
51136W        W22665  11.653  41.822  14.397
51137W        W22666   7.113  14.015  12.896
51138W        W22667   2.858  39.933   0.672
51139W        W22668  31.385   7.588   0.039
51140W        W22669  33.198  20.907   5.446
51141W        W22670  43.333  23.536   2.673
51142W        W22671  15.506  29.063  11.119
51143W        W22672  14.571  27.146  11.886
51144W        W22673  27.563   9.818   4.881
51145W        W22674  33.496  12.285   2.784
51146W        W22675  34.915  33.805   2.565
51147W        W22676  42.292  36.532   4.356
51148W        W22677  22.699  31.680   3.319
51149W        W22678  40.365  32.889   4.856
51150W        W22679  39.922  40.023  12.583
51151W        W22680  17.603  19.316  14.122
51152W        W22681  19.270   3.359  14.348
51153W        W22682  20.814  32.421  12.095
51154W        W22683   3.842   9.297  12.331
51155W        W22684  42.472  21.132  13.777
51156W        W22685  21.989  11.140   2.445
51157W        W22686  15.683  12.275  14.538
51158W        W22687  43.426  17.273  10.918
51159W        W22688  11.802  40.924  12.381
51160W        W22689  13.256  31.969  10.668
51161W        W22690  14.272  32.191  14.225
51162W        W22691  31.729  15.774  11.673
51163W        W22692  31.393  27.555   4.198
51164W        W22693   9.341  13.420  12.457
51165W        W22694  18.031  24.662   0.789
51166W        W22695  25.766  17.037   4.144
51167W        W22696  27.494  21.879  14.331
51168W        W22697  34.146   1.671  12.106
51169W        W22698   6.447  28.232   4.538
51170W        W22699  23.934   6.764  13.432
51171W        W22700  36.477  43.858   3.030
51172W        W22701  36.357  32.663  10.683
51173W        W22702  34.492   2.600   4.538
51174W        W22703  39.593  37.510   2.753
51175W        W22704  44.888   2.934   3.425
51176W        W22705  25.607  23.519   2.216
51177W        W22706  23.384  31.417  13.897
51178W        W22707   6.885   6.070   1.749
51179W        W22708  37.411  31.300   2.391
51180W        W22709  29.058  38.793  14.191
51181W        W22710  24.246   1.258  12.905
51182W        W22711  44.286  15.351   4.570
51183W        W22712  30.576  32.367  14.423
51184W        W22713  25.583   1.395   1.873
51185W        W22714  30.530  37.171  11.667
51186W        W22715  22.307  21.247  11.109
51187W        W22716  34.444  24.232   3.252
51188W        W22717  28.057  18.124  14.832
51189W        W22718  40.303   7.258   2.032
51190W        W22719  44.416   4.302   3.059
51191W        W22720  23.702  21.767  13.470
51192W        W22721  21.969   1.187   2.413
51193W        W22722  39.370  41.927   4.593
51194W        W22723  42.414  19.239   4.934
51195W        W22724  14.187   5.097  13.384
51196W        W22725  31.546  40.319   3.584
51197W        W22726  20.523   7.134  10.582
51198W        W22727  19.218   6.881  11.580
51199W        W22728  25.259  44.804  13.450
51200W        W22729  13.817  31.611  12.896
51201W        W22730  29.391  12.744   1.816
51202W        W22731  43.316  32.030   4.781
51203W        W22732   7.256   4.692   0.901
51204W        W22733  40.475  34.130  14.884
51205W        W22734  37.087  13.176  12.080
51206W        W22735  37.838  29.025   0.764
51207W        W22736   3.424  39.591  12.910
51208W        W22737  14.391  24.665  10.557
51209W        W22738  36.439  22.579   0.767
51210W        W22739   8.244  13.597   4.333
51211W        W22740  29.976   5.723  13.443
51212W        W22741  28.957   5.321   2.538
51213W        W22742  41.302  17.112  13.943
51214W        W22743  22.788   2.915   0.417
51215W        W22744  40.535  35.487   2.220
51216W        W22745   2.735  25.919   4.551
51217W        W22746  19.331  30.498   4.116
51218W        W22747  39.236  13.442  13.322
51219W        W22748  26.220  12.095   3.416
51220W        W22749  26.615  34.784  10.837
51221W        W22750  14.779   7.362   2.285
51222W        W22751   4.478   5.459  13.831
51223W        W22752  25.925   5.956   1.742
51224W        W22753  35.157  21.947   0.582
51225W        W22754  40.942  42.584  12.013
51226W        W22755  33.101  30.072   2.521
51227W        W22756  12.582  19.925  14.914
51228W        W22757  15.501  25.556   0.164
51229W        W22758  28.324  20.971   2.694
51230W        W22759  29.811  13.192  11.070
51231W        W22760  42.963  29.075   1.382
51232W        W22761  16.832  25.094  13.748
51233W        W22762  25.480  41.747  10.713
51234W        W22763  38.921   9.148   4.719
51235W        W22764  13.060  16.612   2.747
51236W        W22765  31.574   6.253   2.416
51237W        W22766  34.011   0.898   2.772
51238W        W22767  35.840  13.418   3.552
51239W        W22768  21.956  37.637   3.783
51240W        W22769  34.888   7.930   4.869
51241W        W22770  15.657  14.338   4.595
51242W        W22771  16.644  21.202   2.790
51243W        W22772  33.946  42.614   1.499
51244W        W22773   0.265  24.478  13.025
51245W        W22774  43.408   6.379   2.710
51246W        W22775  19.869  20.863   4.056
51247W        W22776  15.029  28.764   3.237
51248W        W22777  23.713  23.241   0.820
51249W        W22778  36.072  15.899   3.297
51250W        W22779  18.112  11.809   3.614
51251W        W22780  31.025  44.372   2.722
51252W        W22781   2.746   1.448  10.770
51253W        W22782  35.502   0.476  10.482
51254W        W22783  39.394  32.898   1.316
51255W        W22784   2.969  30.044  14.847
51256W        W22785  27.611  11.315  11.184
51257W        W22786   7.419   3.425  10.748
51258W        W22787   8.804  27.151  13.937
51259W        W22788  35.809  25.528   2.350
51260W        W22789  21.067  29.953  12.944
51261W        W22790  32.005  28.618   3.164
51262W        W22791  42.552  17.148  10.865
51263W        W22792  38.861  25.691  10.684
51264W        W22793  35.492  42.575  12.084
51265W        W22794  34.669  20.533  10.329
51266W        W22795   2.835  20.272  13.344
51267W        W22796  16.357  25.195  12.383
51268W        W22797  35.659   2.378   2.281
51269W        W22798  44.502  38.032   4.177
51270W        W22799  14.221  44.264  14.079
51271W        W22800  29.647  27.143   4.951
51272W        W22801  35.566  26.626  14.598
51273W        W22802  17.856  32.599  14.372
51274W        W22803  44.850  25.753   3.628
51275W        W22804  31.008   4.174  13.995
51276W        W22805  13.875   9.171   1.730
51277W        W22806  25.978  34.763  11.483
51278W        W22807  37.901  16.251  14.416
51279W        W22808  11.952   0.325   3.783
51280W        W22809  15.015  22.347   3.610
51281W        W22810  44.959  27.112   4.634
51282W        W22811   1.858  14.620  11.071
51283W        W22812  43.151   4.320  13.077
51284W        W22813   9.973  17.664  10.186
51285W        W22814  28.211   6.283  13.680
51286W        W22815  28.433  30.423   1.742
51287W        W22816  29.949  37.972  11.293
51288W        W22817  15.320  19.664  12.423
51289W        W22818  15.386   8.293   0.036
51290W        W22819  12.510  12.308   0.789
51291W        W22820  28.604  26.420   4.692
51292W        W22821  27.046  24.981  10.979
51293W        W22822  38.698  36.948   4.379
51294W        W22823  30.524  16.503  14.876
51295W        W22824  13.330   0.709  13.935
51296W        W22825  32.439  21.627   2.899
51297W        W22826  35.386  22.272  14.697
51298W        W22827   8.708   9.858  11.310
51299W        W22828  35.855   3.265   3.151
51300W        W22829  39.398  26.774  12.931
51301W        W22830  15.608   5.773   1.432
51302W        W22831  39.397  14.318   2.393
51303W        W22832  12.108  42.464  14.019
51304W        W22833  14.787   4.741   2.793
51305W        W22834  14.081  36.096  12.452
51306W        W22835  25.509  33.952  14.308
51307W        W22836  31.444  22.077  13.067
51308W        W22837  16.846  27.469  13.034
51309W        W22838  37.566  31.014  13.537
51310W        W22839  29.726  40.486  12.576
51311W        W22840  44.698  18.532  13.466
51312W        W22841  31.507  43.125   4.290
51313W        W22842   8.256  23.549  14.185
51314W        W22843   5.199  38.078   2.711
51315W        W22844  18.177  43.471  11.625
51316W        W22845  41.771  25.221  14.257
51317W        W22846  44.475  31.741  13.482
51318W        W22847  10.464  10.086   0.998
51319W        W22848  28.166  27.116   0.676
51320W        W22849   1.871  39.857  10.810
51321W        W22850  28.544  35.982   1.592
51322W        W22851  12.108   5.486  13.538
51323W        W22852  11.851  12.725   5.014
51324W        W22853  19.626  14.387  12.515
51325W        W22854  14.724  41.759  12.154
51326W        W22855  41.551  23.674  12.024
51327W        W22856  43.775   1.519  14.201
51328W        W22857   8.408  21.046   1.318
51329W        W22858  28.231  33.071   0.320
51330W        W22859   4.489  40.864   0.734
51331W        W22860  13.182  23.306   0.446
51332W        W22861  20.906   3.437   3.929
51333W        W22862  13.146   3.408  11.127
51334W        W22863  22.021  24.995   4.828
51335W        W22864  38.504  44.627  10.839
51336W        W22865   9.088   5.867  10.764
51337W        W22866  34.073  36.857  10.610
51338W        W22867  29.995  29.526   4.040
51339W        W22868  10.419  31.461   4.505
51340W        W22869  24.300  37.140   4.476
51341W        W22870   9.415  25.014  13.877
51342W        W22871  37.846  40.090  13.027
51343W        W22872  34.083  27.109  11.688
51344W        W22873  23.958  32.604  13.543
51345W        W22874  23.020   9.577  14.833
51346W        W22875  26.479  24.754   4.869
51347W        W22876  40.674   8.186  13.817
51348W        W22877  20.823  31.926  13.762
51349W        W22878  12.621  22.442  13.530
51350W        W22879  31.738  35.951   2.796
51351W        W22880  22.810  24.880  12.672
51352W        W22881  22.046  40.956  12.845
51353W        W22882  20.730  25.495  14.547
51354W        W22883  24.400  29.408   0.219
51355W        W22884  32.467  38.293   4.304
51356W        W22885   8.289  33.908  14.640
51357W        W22886  39.835  40.614   2.298
51358W        W22887  11.202   8.098   0.387
51359W        W22888  14.790  12.402   4.153
51360W        W22889  26.012  14.045  11.710
51361W        W22890  16.734   5.212  13.964
51362W        W22891  24.799  32.688  14.783
51363W        W22892  13.106  17.742   3.516
51364W        W22893   1.586  13.664  12.972
51365W        W22894  29.941  24.885   3.549
51366W        W22895  19.920  39.198  11.200
51367W        W22896  32.332  31.609   4.660
51368W        W22897  34.117  32.535   4.837
51369W        W22898   0.905   8.760   1.244
51370W        W22899  37.347  36.265  14.991
51371W        W22900  14.195  26.653  12.139
51372W        W22901  42.402   5.924   3.790
51373W        W22902  23.993  16.803  12.131
51374W        W22903   0.961  40.727  11.136
51375W        W22904  44.511  17.187  13.566
51376W        W22905  34.635  12.991  10.956
51377W        W22906   2.038  30.609  11.095
51378W        W22907   3.321  35.265  11.005
51379W        W22908  15.230  19.329   3.560
51380W        W22909  28.936   3.985  11.887
51381W        W22910  31.639  18.054  14.423
51382W        W22911  13.636  30.644  13.268
51383W        W22912   1.824  21.202  13.605
51384W        W22913   8.856  43.926   4.732
51385W        W22914  30.378  31.256  13.773
51386W        W22915   4.910  15.381  14.278
51387W        W22916  12.896  16.957   3.091
51388W        W22917  29.874  41.976   2.923
51389W        W22918  30.552  41.107   1.788
51390W        W22919  27.839  21.035  14.591
51391W        W22920  21.069  36.013  14.396
51392W        W22921  25.478  21.929   4.695
51393W        W22922   2.377   9.083   0.328
51394W        W22923  10.631  25.233   4.125
51395W        W22924  16.664  17.785  13.254
51396W        W22925   3.692  15.943   1.784
51397W        W22926   1.482  24.055   3.195
51398W        W22927  16.040  12.196  13.314
51399W        W22928   7.380  12.789   1.753
51400W        W22929  14.440  21.566  11.657
51401W        W22930   5.277  11.836   0.389
51402W        W22931   3.782  16.859  14.621
51403W        W22932  13.062  33.131  14.412
51404W        W22933  43.781  22.763   1.242
51405W        W22934  33.159  31.587  10.937
51406W        W22935  20.249  42.245   2.603
51407W        W22936  24.987  17.801   4.693
51408W        W22937  22.243   1.598  14.986
51409W        W22938  12.426  17.598  11.536
51410W        W22939  19.492  24.230   1.820
51411W        W22940  22.664  27.861   2.110
51412W        W22941  42.939  30.162   2.076
51413W        W22942  30.146   8.782  12.465
51414W        W22943   6.478  31.054   1.534
51415W        W22944  37.629  40.288  13.488
51416W        W22945   7.369   8.438   0.689
51417W        W22946  11.691  23.500  12.965
51418W        W22947  28.941  44.222   3.665
51419W        W22948  32.939  40.112   1.343
51420W        W22949  36.453  32.167  10.568
51421W        W22950   5.124  33.218   3.235
51422W        W22951  38.033  22.103  13.789
51423W        W22952  25.647  24.201  11.373
51424W        W22953   2.683   3.036  13.577
51425W        W22954   8.591  36.390  13.573
51426W        W22955  26.567  30.826  11.405
51427W        W22956   0.225   2.821  12.816
51428W        W22957  15.766  25.020   2.245
51429W        W22958  22.680  22.017  14.764
51430W        W22959  22.510  30.928   0.459
51431W        W22960   1.791  33.828  11.987
51432W        W22961  39.235   4.928   3.129
51433W        W22962  42.111  17.563  12.451
51434W        W22963  40.842  20.518   2.448
51435W        W22964   2.560   4.293   4.102
51436W        W22965  12.072  25.556   1.875
51437W        W22966  15.590  38.024   3.217
51438W        W22967  16.257  37.093   2.220
51439W        W22968  10.278  16.041   2.599
51440W        W22969  24.743  32.483  12.057
51441W        W22970  38.421  32.064   4.049
51442W        W22971  30.067  41.349  12.953
51443W        W22972  21.519   6.092  11.688
51444W        W22973   1.646  18.106   4.634
51445W        W22974  32.510  34.523  12.707
51446W        W22975  36.790  26.567   2.836
51447W        W22976   6.127   2.369  13.984
51448W        W22977  42.906  21.736   9.970
51449W        W22978  19.748   5.591   3.617
51450W        W22979  15.430  19.810  13.964
51451W        W22980  17.344  33.603  12.616
51452W        W22981  32.523   8.724   2.896
51453W        W22982   3.926  30.543  11.482
51454W        W22983   9.881   1.193   2.613
51455W        W22984  18.564   0.283   3.320
51456W        W22985  24.538  21.576   4.617
51457W        W22986  28.242  17.987  12.508
51458W        W22987  11.722  43.519  13.396
51459W        W22988   9.104  42.120  12.496
51460W        W22989  20.112  14.190   0.076
51461W        W22990  21.678  33.296   0.813
51462W        W22991  37.547  32.005   2.945
51463W        W22992  26.523  33.584  14.275
51464W        W22993  18.136  43.044  12.595
51465W        W22994  41.876  14.099  14.083
51466W        W22995  28.871  15.122  11.444
51467W        W22996   3.811  28.694   1.157
51468W        W22997  27.847   9.801  12.578
51469W        W22998  24.706  12.927   0.317
51470W        W22999  32.465  10.765  12.011
51471W        W23000  18.102  18.868   3.157
51472W        W23001   2.468   0.709   3.301
51473W        W23002  37.882  23.476   2.251
51474W        W23003  39.515  43.046  14.798
51475W        W23004  34.945  28.364  12.057
51476W        W23005  23.457  34.361  12.013
51477W        W23006   6.687  14.154   4.531
51478W        W23007  18.408  40.034  10.170
51479W        W23008  34.406  26.534  10.963
51480W        W23009  19.770   7.749   3.850
51481W        W23010  44.412  13.070  13.919
51482W        W23011  22.740  44.488  14.339
51483W        W23012   1.725  19.505  11.559
51484W        W23013  18.802  38.285  13.443
51485W        W23014  25.094   4.706  13.304
51486W        W23015  33.488  29.939   4.272
51487W        W23016  34.526  15.690  14.313
51488W        W23017  44.011  40.251  12.420
51489W        W23018   4.928  17.122   4.626
51490W        W23019  34.508   5.289   1.921
51491W        W23020  21.694  25.093  10.465
51492W        W23021   3.322  11.850   1.740
51493W        W23022  40.353  12.562  14.455
51494W        W23023  28.061  14.425   1.333
51495W        W23024  25.422  34.675   1.277
51496W        W23025  32.323  41.976   2.209
51497W        W23026  13.085  39.051  13.623
51498W        W23027  38.330   4.271   3.832
51499W        W23028  44.299  10.383  12.486
51500W        W23029   6.469   8.183  13.393
51501W        W23030  25.460   6.249  10.919
51502W        W23031  32.198   0.478   4.502
51503W        W23032  16.240  21.982  12.954
51504W        W23033   8.766  29.263  10.993
51505W        W23034  42.738   4.263  10.279
51506W        W23035  15.466   7.071  10.636
51507W        W23036  27.051   3.799   2.901
51508W        W23037  35.475  26.282  11.038
51509W        W23038  37.359  14.637  12.959
51510W        W23039  39.931  26.138  12.017
51511W        W23040  44.888  15.308   0.425
51512W        W23041   5.377  37.810  10.930
51513W        W23042  17.158  33.852   2.347
51514W        W23043  20.673  25.988   1.906
51515W        W23044  19.283  20.832  11.017
51516W        W23045  30.031  10.824  11.337
51517W        W23046  11.884  18.453  12.030
51518W        W23047  35.453  40.895  13.972
51519W        W23048  12.670  13.523   1.324
51520W        W23049  14.254  24.880   3.858
51521W        W23050  34.662  10.816  11.522
51522W        W23051  30.904  24.469   1.812
51523W        W23052  37.216  17.778   2.292
51524W        W23053  31.703  42.247  14.017
51525W        W23054  20.465  38.316   4.943
51526W        W23055  27.441  42.456   1.323
51527W        W23056  36.373  11.810   4.235
51528W        W23057  11.470  19.555   2.300
51529W        W23058  29.303  13.231  14.753
51530W        W23059  11.708  17.686  12.887
51531W        W23060  40.376   5.416   0.253
51532W        W23061  39.450  21.043   3.188
51533W        W23062  13.224  19.064   2.799
51534W        W23063  35.507  20.487  14.327
51535W        W23064   6.180  14.793   2.444
51536W        W23065  36.777   4.899  12.527
51537W        W23066  44.715  40.545   1.332
51538W        W23067  30.539  43.776   3.809
51539W        W23068  14.731  38.401  13.379
51540W        W23069  23.978  42.913   0.870
51541W        W23070  22.215   2.884   1.877
51542W        W23071  14.109  14.695  11.714
51543W        W23072  26.391  33.455   1.438
51544W        W23073  44.413   3.437   0.167
51545W        W23074  19.070  40.267   2.662
51546W        W23075  25.514  32.363   2.737
51547W        W23076  37.089  32.986   2.258
51548W        W23077  30.910  17.095  11.619
51549W        W23078  18.625  40.431  13.548
51550W        W23079  18.377  26.505   2.396
51551W        W23080  40.227  34.501  13.000
51552W        W23081   0.338  23.912  11.549
51553W        W23082  10.244  19.013  10.713
51554W        W23083   3.742  18.780   4.743
51555W        W23084  32.223  40.933  12.552
51556W        W23085  37.457  30.788   2.350
51557W        W23086  44.284  32.138  12.029
51558W        W23087   3.412  22.691   0.759
51559W        W23088  42.705  18.309  11.552
51560W        W23089  12.118  21.487  11.561
51561W        W23090  36.606  28.076   0.512
51562W        W23091  43.569  34.196   4.937
51563W        W23092   1.143  43.269  11.750
51564W        W23093  31.925  12.828  10.788
51565W        W23094   9.844   7.159   1.958
51566W        W23095  23.947  39.047  11.442
51567W        W23096  42.507  37.025  12.446
51568W        W23097  27.704  41.989   3.993
51569W        W23098   2.694  26.199   2.767
51570W        W23099  43.502  10.713   2.897
51571W        W23100   7.196  43.477   2.402
51572W        W23101  20.039  11.599   1.321
51573W        W23102   8.623  26.036   3.714
51574W        W23103  34.722  39.176   4.144
51575W        W23104  14.916  21.113  13.441
51576W        W23105  20.485  12.824  13.548
51577W        W23106  21.504   8.329  11.962
51578W        W23107  32.049  27.407  10.260
51579W        W23108  40.132  28.483  14.058
51580W        W23109  40.958  20.007   3.754
51581W        W23110  16.375   2.824  13.371
51582W        W23111  26.896  24.091  10.971
51583W        W23112   5.240  13.330   1.428
51584W        W23113   5.703  26.716   4.005
51585W        W23114  12.312  28.955  10.604
51586W        W23115   5.486   4.182   4.143
51587W        W23116  17.756  25.657   4.864
51588W        W23117   3.734  19.231  11.136
51589W        W23118  23.023   8.410   3.245
51590W        W23119  43.775  44.484   0.468
51591W        W23120   9.403  25.823  12.126
51592W        W23121  32.700  23.096  13.721
51593W        W23122   3.428   8.757   2.368
51594W        W23123  31.923  35.902  12.424
51595W        W23124   8.442  11.691  10.478
51596W        W23125  22.866  19.745  13.095
51597W        W23126  26.184   1.569  10.823
51598W        W23127  42.368  43.348   0.180
51599W        W23128  19.324  18.781  12.372
51600W        W23129  39.652   0.315   4.332
51601W        W23130  32.533  34.931   0.790
51602W        W23131  12.210  24.993   1.327
51603W        W23132   0.252  29.955   0.777
51604W        W23133  16.318   8.354   1.225
51605W        W23134  28.407  11.969  14.403
51606W        W23135  15.116  38.014   1.230
51607W        W23136  30.034   9.285  10.726
51608W        W23137  41.588  15.282   2.403
51609W        W23138   6.500  25.972  12.443
51610W        W23139  44.302  34.874   3.092
51611W        W23140  35.844  32.580  10.670
51612W        W23141  18.319  31.130   0.465
51613W        W23142  12.858  22.206   3.278
51614W        W23143  38.996  23.435   0.355
51615W        W23144   7.633  31.081   3.266
51616W        W23145  38.420  40.736  13.985
51617W        W23146  42.802  25.404   1.269
51618W        W23147  33.487  30.669   1.407
51619W        W23148  44.710  44.210   1.723
51620W        W23149  23.828  41.480  14.922
51621W        W23150  33.873  19.960  14.323
51622W        W23151  34.873   3.161   0.520
51623W        W23152  15.815  16.184  14.437
51624W        W23153  21.724  11.163  14.043
51625W        W23154   8.189  17.689   3.781
51626W        W23155  26.564  25.683  14.748
51627W        W23156  21.453  14.118   1.789
51628W        W23157  43.011  35.621  10.733
51629W        W23158  22.214  35.806  14.023
51630W        W23159  26.943  44.112   3.724
51631W        W23160  12.084  39.850  14.371
51632W        W23161  29.559  41.213  13.019
51633W        W23162  20.264  35.658   2.738
51634W        W23163  18.180  12.226  14.439
51635W        W23164  40.793  38.367  14.408
51636W        W23165  20.652   8.858   1.658
51637W        W23166  30.164   6.895  10.817
51638W        W23167  28.188   4.321   4.629
51639W        W23168  13.229  27.196   4.439
51640W        W23169  22.196   7.914  13.019
51641W        W23170  19.223  26.130  11.876
51642W        W23171   5.464  36.076  12.164
51643W        W23172   6.336   7.749   3.912
51644W        W23173  12.373   0.736   4.095
51645W        W23174   7.915  14.798   4.783
51646W        W23175   2.581  27.732  12.938
51647W        W23176   3.264  31.554  13.870
51648W        W23177  13.224  33.537   3.305
51649W        W23178  11.527  37.787  10.238
51650W        W23179  20.053   6.401   2.646
51651W        W23180  18.682  18.683   4.616
51652W        W23181  33.405  10.591   0.742
51653W        W23182  43.107   2.953  10.664
51654W        W23183  42.715  28.926   4.146
51655W        W23184  28.984   4.494   3.098
51656W        W23185  39.512  35.366  13.525
51657W        W23186  29.624  36.657  11.610
51658W        W23187  21.171   8.714  13.944
51659W        W23188  41.111   2.322   1.013
51660W        W23189  21.111  40.640  11.122
51661W        W23190   1.894  39.366   1.771
51662W        W23191  28.464  41.277  11.135
51663W        W23192   3.871   6.004   4.416
51664W        W23193   8.469  13.802   0.398
51665W        W23194   3.826  24.685  11.199
51666W        W23195   5.080  21.737   2.676
51667W        W23196  25.274  28.157  13.067
51668W        W23197  42.423  12.200   0.596
51669W        W23198  29.577  42.916   4.529
51670W        W23199  14.598   1.623   1.772
51671W        W23200  43.387  21.006  10.127
51672W        W23201   4.224  26.424   2.848
51673W        W23202   5.496  26.534   1.202
51674W        W23203  36.119  38.309   2.111
51675W        W23204  11.783  28.439  13.774
51676W        W23205  37.848  39.521  14.822
51677W        W23206   7.741  26.797   3.386
51678W        W23207  38.793   8.333   1.672
51679W        W23208  32.541  16.995   1.386
51680W        W23209  17.090  19.936   2.649
51681W        W23210  34.575  24.496  11.577
51682W        W23211   2.292  16.062  12.056
51683W        W23212  27.346  30.544  11.433
51684W        W23213  37.462   5.787  12.615
51685W        W23214  22.103  13.343   3.265
51686W        W23215  38.220  25.515  12.673
51687W        W23216  36.057   6.032   3.742
51688W        W23217  26.427  24.092  10.739
51689W        W23218  33.059  29.220   2.145
51690W        W23219  44.063  41.826  11.614
51691W        W23220  20.804  12.764   1.800
51692W        W23221  23.047   1.867   3.319
51693W        W23222  12.787  43.989   4.856
51694W        W23223  14.093  26.254  10.470
51695W        W23224  15.627  36.601   0.867
51696W        W23225   6.253  15.688   0.851
51697W        W23226  44.405   1.257   1.882
51698W        W23227  22.011   4.824   4.579
51699W        W23228  21.678  19.494  11.576
51700W        W23229  33.335  30.442   4.602
51701W        W23230  43.942  40.463   2.705
51702W        W23231   7.604  35.398  13.219
51703W        W23232  10.732  10.618   3.133
51704W        W23233  30.366   5.522  12.934
51705W        W23234  44.471  42.532  11.645
51706W        W23235  24.433   0.755   1.464
51707W        W23236  35.397  31.087  11.639
51708W        W23237  31.785   2.738   4.549
51709W        W23238  37.342   6.802  10.798
51710W        W23239   1.284  33.887   2.594
51711W        W23240  32.269  28.166   3.278
51712W        W23241  41.966   3.177   3.158
51713W        W23242  38.473  16.462  10.575
51714W        W23243  38.806  43.525   2.222
51715W        W23244  23.325   7.214   3.388
51716W        W23245  19.986  33.863   0.802
51717W        W23246   9.935   6.461  11.585
51718W        W23247  43.052  28.512   4.151
51719W        W23248  40.957  24.058  12.459
51720W        W23249  35.183  33.988   0.038
51721W        W23250   6.482   7.327  13.451
51722W        W23251  30.509  39.843   2.491
51723W        W23252  37.840   6.122  11.555
51724W        W23253  37.805   4.306   3.740
51725W        W23254  32.978  15.040  14.858
51726W        W23255  17.562  21.029   3.714
51727W        W23256  34.157  44.454   1.723
51728W        W23257  43.838  14.657  13.375
51729W        W23258   4.746   2.489  11.440
51730W        W23259  20.579  19.875   2.761
51731W        W23260  39.382  34.504  11.984
51732W        W23261  29.743  35.050  13.846
51733W        W23262   8.595  16.241   1.219
51734W        W23263  19.895  31.758  11.127
51735W        W23264   3.559  10.755   1.979
51736W        W23265  31.349  24.347   0.839
51737W        W23266  29.957  30.368  12.042
51738W        W23267   5.018  44.192   3.379
51739W        W23268   5.761  23.498   0.610
51740W        W23269  15.696  26.214   2.689
51741W        W23270  25.324  22.231  13.043
51742W        W23271  31.908   5.434  13.852
51743W        W23272  31.185  40.008   2.154
51744W        W23273  30.225  39.490  14.857
51745W        W23274  27.904  44.744  10.633
51746W        W23275  14.234  37.184  12.653
51747W        W23276  18.560  20.994  12.039
51748W        W23277  14.504  39.311  12.893
51749W        W23278  32.990  19.238  14.236
51750W        W23279  44.430   0.693   4.940
51751W        W23280  34.430  36.388  13.979
51752W        W23281  13.033  16.222   3.711
51753W        W23282  36.373  34.640  13.037
51754W        W23283  39.446  28.946  13.946
51755W        W23284  11.106  26.039   0.354
51756W        W23285  34.412  44.854  12.586
51757W        W23286  39.853  14.381   0.424
51758W        W23287   5.930  21.781  12.914
51759W        W23288   2.225   2.367   2.524
51760W        W23289   8.291  43.457  12.437
51761W        W23290  41.367  31.997   0.904
51762W        W23291   8.407  26.229  11.232
51763W        W23292  35.483  34.659  11.602
51764W        W23293  17.600  11.238   1.287
51765W        W23294  37.687  26.439   0.112
51766W        W23295   8.889   0.996   4.894
51767W        W23296  25.390  37.495   2.813
51768W        W23297  23.568  15.584   4.720
51769W        W23298   3.388  26.549  12.122
51770W        W23299   9.072  11.711   2.923
51771W        W23300   7.292  44.837   0.930
51772W        W23301  33.880  32.518   3.875
51773W        W23302  44.689  34.531  14.455
51774W        W23303   9.255  31.610   1.949
51775W        W23304   0.924   6.394  12.111
51776W        W23305  32.302   0.552   3.959
51777W        W23306  43.791  25.295  10.555
51778W        W23307  26.534  16.546  11.493
51779W        W23308  21.769  22.202  12.347
51780W        W23309   3.449  31.603  13.346
51781W        W23310  26.977  10.171   2.875
51782W        W23311  26.687  26.114   1.430
51783W        W23312   0.902   2.356   2.133
51784W        W23313   8.302  14.101  14.327
51785W        W23314   6.970  16.287  13.517
51786W        W23315   6.856   4.644  11.147
51787W        W23316  35.947  37.011   0.500
51788W        W23317  39.505   8.189   3.206
51789W        W23318  13.275  25.135  11.625
51790W        W23319  25.158  40.789  11.705
51791W        W23320  12.598  12.433  13.007
51792W        W23321   4.832  37.571  11.657
51793W        W23322  28.554  41.415  12.831
51794W        W23323  41.747  15.653  11.066
51795W        W23324  44.900  18.647  13.949
51796W        W23325  38.034  28.392   4.073
51797W        W23326  15.881  26.675   3.627
51798W        W23327  24.696  21.517  13.828
51799W        W23328  44.869  14.454   4.217
51800W        W23329  16.324   3.387  11.651
51801W        W23330  25.443  28.561  11.915
51802W        W23331  37.442  18.206  11.470
51803W        W23332   2.996  18.278   3.591
51804W        W23333   3.354  44.552   4.931
51805W        W23334  38.449  37.632  12.870
51806W        W23335   4.249  40.972  10.836
51807W        W23336  18.064  37.951   4.981
51808W        W23337  24.051  28.993   0.724
51809W        W23338  44.905   6.582   2.974
51810W        W23339  31.561  24.002  14.373
51811W        W23340  43.488  36.316  14.889
51812W        W23341  15.284  34.885   2.084
51813W        W23342  36.462  31.747   4.076
51814W        W23343   6.374   5.975   2.373
51815W        W23344  44.814  22.571  11.805
51816W        W23345  38.170  31.980  14.823
51817W        W23346  43.222  24.686   0.310
51818W        W23347  25.672  43.035   0.320
51819W        W23348  14.162  39.258   3.224
51820W        W23349  11.623  26.472   0.874
51821W        W23350  22.662  43.996   4.409
51822W        W23351  15.025  42.068  14.346
51823W        W23352  25.530   8.819  11.301
51824W        W23353  36.065  39.832   1.548
51825W        W23354  20.837  13.872  14.442
51826W        W23355  36.632   5.909   3.279
51827W        W23356  20.815  38.178  11.053
51828W        W23357   8.147  36.613  11.113
51829W        W23358  19.095  23.715  14.816
51830W        W23359  11.283  16.201  11.140
51831W        W23360  40.551  23.096  12.620
51832W        W23361  22.440  30.154  11.998
51833W        W23362  40.872  29.719  12.643
51834W        W23363   8.229  26.290  13.182
51835W        W23364   8.636  39.517   3.683
51836W        W23365  34.541  32.056  10.372
51837W        W23366  43.961  24.298  10.581
51838W        W23367   3.906  38.299  11.608
51839W        W23368   1.472  12.167   1.406
51840W        W23369  31.860  13.561  11.211
51841W        W23370   4.259  36.772   2.474
51842W        W23371  24.694  41.025   4.682
51843W        W23372  11.583  37.936   4.858
51844W        W23373  19.406  40.657   5.108
51845W        W23374  37.047  42.358  11.225
51846W        W23375  16.104  22.767  10.132
51847W        W23376  35.066  11.573   0.356
51848W        W23377  26.876  39.633  13.807
51849W        W23378  26.674  29.543  13.369
51850W        W23379  38.687  41.448   0.044
51851W        W23380  35.437  42.388   4.527
51852W        W23381   3.070  21.111  10.100
51853W        W23382   5.724  15.385  11.671
51854W        W23383   5.965  16.212  12.144
51855W        W23384   8.622  29.200  14.316
51856W        W23385  21.988   3.570  14.704
51857W        W23386  42.701  39.487  13.946
51858W        W23387  14.763   6.254  12.591
51859W        W23388  29.552  42.423   4.800
51860W        W23389  16.677   6.615   4.805
51861W        W23390   0.851  23.064  10.595
51862W        W23391  43.834  36.599  12.903
51863W        W23392  21.628  43.289  11.511
51864W        W23393   1.253  15.009   4.065
51865W        W23394  19.094  36.801   1.292
51866W        W23395  42.031  31.569  14.842
51867W        W23396  14.589  20.340   4.289
51868W        W23397  14.672   8.840  14.530
51869W        W23398  17.608  25.490   1.189
51870W        W23399  19.181   5.574  11.612
51871W        W23400   6.122  42.366   4.822
51872W        W23401   5.170  34.226   1.909
51873W        W23402  30.021  27.229   1.858
51874W        W23403  33.312  36.314   0.474
51875W        W23404  22.173  18.039  13.844
51876W        W23405  22.579  13.382  12.733
51877W        W23406  30.938  28.277  14.937
51878W        W23407  35.220  37.952  11.327
51879W        W23408   7.367  31.017   3.758
51880W        W23409  39.321  24.999   2.854
51881W        W23410   3.975  37.555  14.845
51882W        W23411   9.942  30.142  10.446
51883W        W23412  18.754  17.052  10.488
51884W        W23413  30.716   3.244   4.569
51885W        W23414  31.470   2.102  11.183
51886W        W23415  15.660   7.388   4.557
51887W        W23416  42.926  21.764   0.824
51888W        W23417   9.220  43.512   2.243
51889W        W23418  32.931  28.136  11.154
51890W        W23419  43.011  23.018  11.975
51891W        W23420  20.205  16.229   0.518
51892W        W23421  36.514  11.447   2.763
51893W        W23422  17.708   0.742   4.693
51894W        W23423  17.243   5.654   4.013
51895W        W23424   6.976   7.181  11.591
51896W        W23425  14.557  10.734   2.769
51897W        W23426   9.724  22.499   3.237
51898W        W23427  10.120   5.360   3.654
51899W        W23428  33.369  24.100  11.113
51900W        W23429  32.489  42.437  11.418
51901W        W23430  26.574  44.446   3.036
51902W        W23431   4.661   6.778  13.785
51903W        W23432  14.758  43.043   2.666
51904W        W23433  11.777  40.929   1.479
51905W        W23434   4.801  32.985   2.403
51906W        W23435   3.820  28.405   0.166
51907W        W23436  40.050   4.413  14.103
51908W        W23437   3.868  38.333   4.160
51909W        W23438  43.498  10.358   1.648
51910W        W23439  43.948  29.055   0.375
51911W        W23440  27.387   5.767  11.528
51912W        W23441   9.611  22.310  12.042
51913W        W23442  25.087  37.931   0.317
51914W        W23443  19.595  41.004  13.892
51915W        W23444  33.519   3.000  13.436
51916W        W23445  40.355  22.462   1.275
51917W        W23446  31.962  26.176  10.793
51918W        W23447  35.729  20.769  11.065
51919W        W23448  43.956  34.492   2.916
51920W        W23449  27.742  10.670  10.578
51921W        W23450  30.101   5.943   3.728
51922W        W23451   8.929  22.506  10.565
51923W        W23452   6.340  27.446   1.530
51924W        W23453  35.865  20.257  11.047
51925W        W23454  38.986  21.974   4.568
51926W        W23455  21.220  11.473   3.655
51927W        W23456   2.243  14.168  13.471
51928W        W23457  12.395  16.530  13.405
51929W        W23458  22.452  13.650   2.300
51930W        W23459  21.070  17.230   2.676
51931W        W23460  24.497  19.246   1.812
51932W        W23461  28.192  19.625  10.861
51933W        W23462  33.918  29.309  14.765
51934W        W23463  44.344  40.129  12.950
51935W        W23464   0.970  37.194   2.209
51936W        W23465   7.346  19.058  11.915
51937W        W23466  33.351  39.052   0.912
51938W        W23467  29.373  21.082  12.810
51939W        W23468   7.930  38.318  10.618
51940W        W23469  14.196  25.504  14.279
51941W        W23470  17.194   1.590  10.442
51942W        W23471  17.160  19.323   1.824
51943W        W23472  40.262  13.738  14.769
51944W        W23473  37.658  15.636  13.592
51945W        W23474  26.707  29.085   2.388
51946W        W23475   8.391   5.193   2.851
51947W        W23476  25.643  30.237   3.152
51948W        W23477  13.098  27.898   1.621
51949W        W23478   5.746   3.453  14.435
51950W        W23479  11.204  19.566   0.825
51951W        W23480   1.436  30.194   4.609
51952W        W23481  29.013  30.456  10.921
51953W        W23482  22.520  35.199  14.911
51954W        W23483  15.675  17.171   4.165
51955W        W23484   1.987  34.486  11.229
51956W        W23485   5.920  42.250   3.592
51957W        W23486  13.255   8.927  11.323
51958W        W23487   0.343  35.991  13.989
51959W        W23488  36.647  33.672  11.761
51960W        W23489  21.478  23.752   3.661
51961W        W23490  39.979  40.537  13.937
51962W        W23491  36.269   8.586  11.158
51963W        W23492  20.022   5.004   2.213
51964W        W23493   4.720  35.393   2.647
51965W        W23494   5.996  41.049   3.037
51966W        W23495  35.805  17.142  11.625
51967W        W23496  16.880   9.904  13.527
51968W        W23497  36.380  14.280   3.824
51969W        W23498   2.767  23.115   3.248
51970W        W23499  19.220  33.088  11.535
51971W        W23500  28.104   1.092   3.748
51972W        W23501  34.787  43.562   2.508
51973W        W23502  12.813  28.378  12.170
51974W        W23503  30.640  12.055   0.883
51975W        W23504  25.097   1.523   4.558
51976W        W23505  17.722  12.134   4.160
51977W        W23506  19.549  43.362   2.163
51978W        W23507  32.459  17.938  13.752
51979W        W23508  21.516   3.455  10.720
51980W        W23509  41.174  17.114   2.919
51981W        W23510   1.437  44.239   3.197
51982W        W23511  41.471   7.667  12.325
51983W        W23512  20.008  37.901   0.386
51984W        W23513  39.927   6.297  11.409
51985W        W23514  18.741  35.324   2.678
51986W        W23515  13.407  11.690  11.137
51987W        W23516   6.535  25.201   4.277
51988W        W23517   6.869  17.810  12.961
51989W        W23518  35.982  25.122   3.531
51990W        W23519   7.544  43.947   4.722
51991W        W23520  36.128   8.173   4.254
51992W        W23521   7.468  13.648  12.835
51993W        W23522  36.980  22.863   0.013
51994W        W23523  13.620  12.909   4.241
51995W        W23524  41.871  33.234   4.570
51996W        W23525  28.806  15.986  14.932
51997W        W23526  44.918  42.543  10.455
51998W        W23527  22.912   5.748   3.802
51999W        W23528  33.567  37.239   4.202
52000W        W23529  27.341  23.783  12.925
52001W        W23530  10.585  42.163   0.907
52002W        W23531  28.046  15.187   9.783
52003W        W23532  38.124   1.557   4.559
52004W        W23533   4.217  40.788   0.295
52005W        W23534   5.097  28.312   3.831
52006W        W23535   9.416  36.348   3.709
52007W        W23536  33.947  16.728   3.935
52008W        W23537  39.609   2.348   4.475
52009W        W23538   2.368  17.891   4.147
52010W        W23539  25.091  12.212  13.226
52011W        W23540  13.786  10.090   1.696
52012W        W23541  10.669  25.193  10.692
52013W        W23542   7.750  13.329  11.398
52014W        W23543  22.553  27.953   1.287
52015W        W23544  14.368  43.939   0.925
52016W        W23545  21.557  37.994   2.721
52017W        W23546   0.801  21.065  13.773
52018W        W23547   1.152  31.354   0.215
52019W        W23548  10.431   7.842   2.408
52020W        W23549   4.210  21.260   2.308
52021W        W23550  42.577  35.938   3.667
52022W        W23551  24.250  10.785   2.701
52023W        W23552  44.841  44.938  12.479
52024W        W23553  37.145   7.489  11.025
52025W        W23554  25.728  39.901   2.600
52026W        W23555  10.826   2.722   3.111
52027W        W23556   7.244  33.376  12.402
52028W        W23557  37.620  44.211  13.732
52029W        W23558  15.194  15.705   2.429
52030W        W23559  33.345  31.488  13.138
52031W        W23560  37.974  22.506   3.679
52032W        W23561   2.758  22.250   4.855
52033W        W23562  36.370  10.307  10.682
52034W        W23563  35.152  35.846   2.096
52035W        W23564  14.543  40.765  14.998
52036W        W23565  24.844  36.931   0.193
52037W        W23566  21.819  16.256  14.008
52038W        W23567  14.717  33.927   0.523
52039W        W23568  15.411   7.401   5.479
52040W        W23569  29.164  34.311  14.362
52041W        W23570  30.001   6.780   0.376
52042W        W23571  40.881   2.431   3.870
52043W        W23572  12.777  39.417   0.290
52044W        W23573  21.649  41.984  10.329
52045W        W23574  37.904  34.595   3.202
52046W        W23575   5.736  14.087  11.670
52047W        W23576  20.151  22.867  12.058
52048W        W23577  37.361  23.585   4.322
52049W        W23578  16.250  24.200  11.037
52050W        W23579  12.234  18.116   0.964
52051W        W23580  14.108  33.347  11.908
52052W        W23581  30.464  33.967   3.607
52053W        W23582  18.799  17.256   1.880
52054W        W23583  19.384  22.889  11.653
52055W        W23584  43.969  29.621   4.030
52056W        W23585  11.573  29.433  10.757
52057W        W23586   5.965  14.400  14.352
52058W        W23587  38.047   9.821  10.609
52059W        W23588  40.700  32.104   3.143
52060W        W23589  14.183   4.774   4.210
52061W        W23590  25.053  37.382  12.843
52062W        W23591   3.695  37.179   0.046
52063W        W23592   0.930  33.611   4.161
52064W        W23593  11.594   1.518   1.478
52065W        W23594  28.397  36.012  14.308
52066W        W23595   8.698  13.861   4.252
52067W        W23596  41.018  32.106  13.559
52068W        W23597   6.857  14.087  14.009
52069W        W23598  26.081  34.149  13.565
52070W        W23599   9.789  11.792  13.037
52071W        W23600   7.589   5.069   2.895
52072W        W23601  42.459  25.593   0.914
52073W        W23602  13.654   2.351   4.372
52074W        W23603   6.064  21.906  14.421
52075W        W23604  37.877  42.839   0.340
52076W        W23605  32.028  15.823   0.499
52077W        W23606  28.139   5.624  13.313
52078W        W23607  40.659  29.749   3.227
52079W        W23608  31.018  44.188  14.814
52080W        W23609  19.085  43.442  11.222
52081W        W23610  28.076  17.849  13.809
52082W        W23611   4.465  42.931  14.395
52083W        W23612  29.233  22.595   2.964
52084W        W23613   9.279   0.954   1.875
52085W        W23614  27.526  30.932  12.793
52086W        W23615  28.109   3.829  12.900
52087W        W23616  11.200   5.029   3.367
52088W        W23617  39.753   4.205  13.498
52089W        W23618   9.724  36.663  13.126
52090W        W23619  16.673  43.527  11.531
52091W        W23620  43.439  21.641   3.473
52092W        W23621  41.681   4.886  14.810
52093W        W23622  15.747  44.027  13.978
52094W        W23623  19.655  15.354   0.247
52095W        W23624  20.270   5.720   4.900
52096W        W23625  33.821   8.771   0.650
52097W        W23626  17.040  16.857   2.419
52098W        W23627  24.666  42.260   1.288
52099W        W23628  16.733  24.644  13.489
52100W        W23629   7.501  43.386  11.112
52101W        W23630  21.564  31.978   1.340
52102W        W23631  19.106  21.994   2.412
52103W        W23632  38.561   8.955  14.217
52104W        W23633  28.017  44.555   3.676
52105W        W23634  16.452  24.964  11.949
52106W        W23635   7.474   0.349  12.096
52107W        W23636  36.540   1.815   0.820
52108W        W23637  35.913   9.146   4.043
52109W        W23638  26.980  42.696   1.401
52110W        W23639  21.196  40.951   2.116
52111W        W23640  37.566  13.019   2.751
52112W        W23641  13.782   3.820   4.038
52113W        W23642  42.704  13.820   4.842
52114W        W23643  25.211  15.257   4.453
52115W        W23644  19.961  35.990   4.075
52116W        W23645   7.109  19.762  13.442
52117W        W23646  21.795  26.602  12.018
52118W        W23647  20.610  18.635  10.439
52119W        W23648  24.777  21.102   2.293
52120W        W23649  11.740   1.466   4.310
52121W        W23650  30.573   2.439  10.336
52122W        W23651   9.112  34.372  14.998
52123W        W23652   2.382  39.947   1.475
52124W        W23653  10.219  15.333   4.425
52125W        W23654  24.729  14.763  13.392
52126W        W23655  24.503  35.625   2.773
52127W        W23656  24.961  19.510   1.827
52128W        W23657   5.134   3.435  13.772
52129W        W23658  13.308  20.958   4.560
52130W        W23659   1.631  36.500   5.639
52131W        W23660  20.633  26.940  11.092
52132W        W23661  33.014  43.009  13.734
52133W        W23662  15.739  16.240  13.517
52134W        W23663  11.612  20.894   0.364
52135W        W23664  12.090  29.483   0.427
52136W        W23665  31.143  18.344  10.246
52137W        W23666   3.742   2.117  11.020
52138W        W23667  18.714  24.054   0.985
52139W        W23668  35.925  34.222   0.746
52140W        W23669  16.005   7.615  12.178
52141W        W23670  34.937  27.137   0.640
52142W        W23671  14.418  33.348  14.314
52143W        W23672  10.350  41.267   4.533
52144W        W23673  43.580  42.984   4.962
52145W        W23674  42.689   5.568   3.545
52146W        W23675  44.959   6.859  10.663
52147W        W23676  22.516  15.859  12.827
52148W        W23677   5.744  17.196   9.857
52149W        W23678  21.798   6.864  10.661
52150W        W23679   7.908  12.860  11.287
52151W        W23680   4.917  11.930   3.086
52152W        W23681   6.490  31.528   0.882
52153W        W23682   4.354  35.855   3.581
52154W        W23683  17.763  39.588   3.473
52155W        W23684   5.357  20.034   2.467
52156W        W23685  37.821  36.775  13.457
52157W        W23686  16.557  36.556   1.831
52158W        W23687  38.782  24.119  14.354
52159W        W23688  18.959   8.689   2.689
52160W        W23689  14.575  30.601  13.075
52161W        W23690   1.920  24.056  12.918
52162W        W23691   2.775   6.868  13.463
52163W        W23692  16.382  21.792  11.661
52164W        W23693  15.730   6.795  14.815
52165W        W23694  27.348  34.918   1.179
52166W        W23695  18.820  29.206   2.182
52167W        W23696   5.179  14.988   4.112
52168W        W23697   5.871  13.106  14.429
52169W        W23698  13.121  19.303  13.035
52170W        W23699   6.447   1.470   3.210
52171W        W23700  24.735  26.902  13.396
52172W        W23701   6.023  12.675   3.699
52173W        W23702  33.969  34.842  10.657
52174W        W23703   8.059  31.032   4.534
52175W        W23704  11.270  39.332   0.284
52176W        W23705  38.125  34.286   4.181
52177W        W23706  22.282   8.654   1.068
52178W        W23707   1.859  44.734   4.581
52179W        W23708  31.515  15.259   2.626
52180W        W23709  36.813  15.345  11.628
52181W        W23710   4.323  23.716  13.837
52182W        W23711  38.955  15.999  12.647
52183W        W23712   5.747  22.469  13.270
52184W        W23713  41.880  29.650  12.448
52185W        W23714  23.348   1.032  12.712
52186W        W23715   5.070   9.945  14.926
52187W        W23716  11.267  29.231   0.816
52188W        W23717  18.408  23.469   2.440
52189W        W23718  12.814  44.460  11.141
52190W        W23719   6.540  16.176  12.609
52191W        W23720  27.859  18.088   2.955
52192W        W23721  25.159   5.451  12.941
52193W        W23722  11.064   3.381  14.538
52194W        W23723  35.422   3.829  12.406
52195W        W23724   3.028  19.596   1.363
52196W        W23725   6.961  44.401  11.973
52197W        W23726  11.511  43.347   0.656
52198W        W23727  40.545   6.800  12.006
52199W        W23728  20.344  30.133   2.372
52200W        W23729  36.835  18.317  12.678
52201W        W23730  25.454  40.758  12.395
52202W        W23731  14.339  39.359  13.404
52203W        W23732  35.173  30.349   4.338
52204W        W23733   3.275  19.282  13.927
52205W        W23734  26.515  30.377  11.968
52206W        W23735  26.752   2.324  11.138
52207W        W23736  25.647  10.033   2.149
52208W        W23737  30.153  24.912   0.584
52209W        W23738  42.254   0.831   0.898
52210W        W23739  21.005  41.828   2.682
52211W        W23740  34.863  10.693  13.292
52212W        W23741  44.594  10.891  11.885
52213W        W23742  30.738  41.073   3.777
52214W        W23743  32.942  37.541   3.215
52215W        W23744   5.266  27.237   2.772
52216W        W23745  38.099  17.725   3.747
52217W        W23746  10.394   1.021   1.924
52218W        W23747  44.305  34.126  13.767
52219W        W23748  24.256  42.360   2.741
52220W        W23749  16.539   8.430   5.938
52221W        W23750  28.665   0.268  10.739
52222W        W23751  24.218  40.151  14.946
52223W        W23752  42.899  40.603   1.713
52224W        W23753  11.337  15.207  12.095
52225W        W23754  33.049  35.098  13.398
52226W        W23755  33.398  38.979   4.049
52227W        W23756  10.278   3.863  12.369
52228W        W23757   7.866  36.777  14.931
52229W        W23758  35.985  33.900   4.556
52230W        W23759   4.689  21.740  14.838
52231W        W23760  22.273  20.145  14.086
52232W        W23761  31.678  29.450   2.210
52233W        W23762  28.892  31.130   0.771
52234W        W23763   7.681  35.879   3.083
52235W        W23764  31.342   7.127   1.103
52236W        W23765  14.088  18.648  14.554
52237W        W23766  32.388   1.807   0.485
52238W        W23767  31.236  38.074   1.590
52239W        W23768   4.346  14.633   0.726
52240W        W23769  31.750  40.727  11.133
52241W        W23770  10.126  36.271   4.659
52242W        W23771   1.496  33.771   2.116
52243W        W23772  20.611  20.581  10.749
52244W        W23773  34.681  12.694   3.121
52245W        W23774  12.294   9.278   0.729
52246W        W23775  17.804  11.279   1.763
52247W        W23776  36.125   6.670   2.337
52248W        W23777  17.526  17.143  13.825
52249W        W23778  30.358  32.184  12.385
52250W        W23779  25.653   7.898   0.078
52251W        W23780  20.505  29.289  13.919
52252W        W23781   8.508  37.783  14.331
52253W        W23782   7.544  13.661  10.784
52254W        W23783  26.071  13.799  12.636
52255W        W23784   4.183  21.975   3.858
52256W        W23785  34.626  44.361  12.706
52257W        W23786  18.087  19.558  12.632
52258W        W23787   3.725  13.833   0.246
52259W        W23788  41.011  30.149   4.063
52260W        W23789   0.943  30.251  11.993
52261W        W23790  26.055  14.773  14.861
52262W        W23791  14.896   3.150   4.998
52263W        W23792   1.354  44.482  14.931
52264W        W23793  23.634  23.663  14.737
52265W        W23794  37.049  18.227   4.921
52266W        W23795  43.248  15.302  14.843
52267W        W23796  35.840  43.761  12.639
52268W        W23797  24.687  11.653   1.669
52269W        W23798  11.200  13.107   2.738
52270W        W23799  40.960  25.139  14.724
52271W        W23800  21.809   3.477  12.956
52272W        W23801  32.888  10.081  10.695
52273W        W23802  18.826  19.853   1.458
52274W        W23803  41.369   3.275  10.873
52275W        W23804  37.316   5.775  10.756
52276W        W23805  20.206  39.504   1.742
52277W        W23806  32.358  40.052  11.445
52278W        W23807   4.258  21.492   0.266
52279W        W23808   5.922  38.001   1.222
52280W        W23809   2.577   5.241  13.821
52281W        W23810  20.774   4.772  11.610
52282W        W23811  26.396   7.022  13.256
52283W        W23812  37.427  36.444  13.470
52284W        W23813  13.528   0.399  14.524
52285W        W23814   2.484  11.185  13.870
52286W        W23815   0.353  40.996   5.006
52287W        W23816  42.482  15.755   1.338
52288W        W23817  40.991  43.956  13.067
52289W        W23818   3.469  42.160  14.809
52290W        W23819  22.337   6.960   1.475
52291W        W23820  19.731  10.185   1.527
52292W        W23821  43.362   4.283   1.818
52293W        W23822  36.562  33.796  11.267
52294W        W23823  37.274  18.271   0.821
52295W        W23824  20.223  29.900  10.506
52296W        W23825   4.133  32.130  14.878
52297W        W23826  43.861   1.628  11.051
52298W        W23827   4.331  36.168   3.146
52299W        W23828  36.436  13.835  12.555
52300W        W23829  43.133  12.729   2.718
52301W        W23830  33.366  17.743   2.818
52302W        W23831  11.634   5.683   2.787
52303W        W23832  21.136  42.352   4.433
52304W        W23833   6.872  23.398  10.814
52305W        W23834   0.754  26.039   2.835
52306W        W23835  26.265  15.666  13.668
52307W        W23836  20.027  40.595   2.882
52308W        W23837   4.819   5.989  10.687
52309W        W23838  29.088  40.482   2.507
52310W        W23839  18.620  43.933  10.565
52311W        W23840   9.162  28.678  14.155
52312W        W23841  21.927  43.339   4.449
52313W        W23842  11.949  32.436  13.939
52314W        W23843  31.925  10.858  11.703
52315W        W23844   1.135  10.392   0.294
52316W        W23845   1.976  21.668  13.784
52317W        W23846  12.738  17.174   0.331
52318W        W23847   4.746   3.418   1.690
52319W        W23848  27.557  31.166  12.199
52320W        W23849  27.407  43.258   2.656
52321W        W23850  15.638  15.652   1.205
52322W        W23851  41.886  12.239   4.013
52323W        W23852  34.315  23.072   1.372
52324W        W23853  23.029   5.116   2.221
52325W        W23854  29.204   9.754  13.345
52326W        W23855  28.520  30.944  10.930
52327W        W23856   6.935  27.017  13.562
52328W        W23857  38.042  39.258  10.812
52329W        W23858  32.637  17.178  11.033
52330W        W23859  31.679  12.819  12.509
52331W        W23860  16.177  39.078  12.089
52332W        W23861  29.436  14.013   0.225
52333W        W23862   1.418  14.905  11.134
52334W        W23863  33.928  38.502  14.029
52335W        W23864   9.209  37.889  12.875
52336W        W23865  22.242  27.999  12.580
52337W        W23866  26.725  13.092   3.748
52338W        W23867  11.921  17.426   3.242
52339W        W23868   0.766  43.495   3.304
52340W        W23869  13.323  32.488  10.720
52341W        W23870  25.205  27.952   2.862
52342W        W23871  27.857  42.282  10.794
52343W        W23872   4.091  37.103  13.523
52344W        W23873   8.179  26.124   2.335
52345W        W23874  23.064  30.671   3.419
52346W        W23875   4.911  25.948  12.971
52347W        W23876  28.444   7.357  12.403
52348W        W23877  34.044  43.398   0.248
52349W        W23878   7.993  30.021  14.185
52350W        W23879  42.404  29.609  13.107
52351W        W23880  40.468   7.115  12.401
52352W        W23881  26.571  30.874  11.951
52353W        W23882  43.660  25.175   1.111
52354W        W23883  20.632  12.629  12.102
52355W        W23884  22.289  19.254  14.428
52356W        W23885   7.745  29.514  14.379
52357W        W23886  25.410  44.783   2.238
52358W        W23887  20.054   4.915   4.777
52359W        W23888  41.291  11.575   4.129
52360W        W23889  25.114  11.738   0.397
52361W        W23890  44.310  41.047   3.253
52362W        W23891   9.735  29.464   3.623
52363W        W23892  13.073   6.353  13.382
52364W        W23893  37.608  19.044   3.243
52365W        W23894  13.132   5.811  14.562
52366W        W23895  18.668  39.775   1.938
52367W        W23896  25.296   9.944   0.928
52368W        W23897  29.052  39.012   1.285
52369W        W23898  16.827   2.767  11.531
52370W        W23899  30.174  38.857  12.972
52371W        W23900  38.532   2.207   2.326
52372W        W23901  11.774  41.403  12.613
52373W        W23902  11.028  12.471  14.078
52374W        W23903  34.065  18.529  13.120
52375W        W23904  10.055  32.125   2.297
52376W        W23905   7.168   9.257  14.132
52377W        W23906  18.642  44.592   9.770
52378W        W23907  26.413  28.949   1.721
52379W        W23908  38.300  23.635   4.042
52380W        W23909  11.773   4.626  12.245
52381W        W23910  37.652  21.255  14.981
52382W        W23911  18.165   3.881   2.088
52383W        W23912  27.652  34.080   3.503
52384W        W23913  37.716   2.497   4.603
52385W        W23914  18.254   4.177   4.604
52386W        W23915  11.240   6.754  14.094
52387W        W23916  30.618  38.867   3.360
52388W        W23917  41.935  13.213   1.868
52389W        W23918  21.666   8.960  11.568
52390W        W23919   7.671  12.269  13.435
52391W        W23920  36.795  31.709   4.719
52392W        W23921   6.081  24.400  12.391
52393W        W23922  37.772  16.804   4.698
52394W        W23923   1.251  39.377  11.137
52395W        W23924  32.012   5.372  13.316
52396W        W23925  24.825  15.654  11.630
52397W        W23926   9.121  40.902   4.608
52398W        W23927  39.408  40.047   2.828
52399W        W23928  12.269  40.931   1.652
52400W        W23929  12.786  24.360  14.899
52401W        W23930   3.354  19.694   1.793
52402W        W23931  44.450  34.666   2.647
52403W        W23932   4.321  11.152  14.914
52404W        W23933  34.762  29.719   1.782
52405W        W23934   1.380  25.476  14.688
52406W        W23935  44.845  12.700  14.957
52407W        W23936  14.842   3.649  11.180
52408W        W23937  40.518  20.175  11.633
52409W        W23938   0.516  39.602  10.417
52410W        W23939   3.054   3.893  12.478
52411W        W23940  14.429  37.026  13.929
52412W        W23941  40.912  19.223   0.807
52413W        W23942  43.518  31.003  14.854
52414W        W23943  42.785  30.780   5.157
52415W        W23944  41.078  44.249  14.654
52416W        W23945   8.623  23.410   3.180
52417W        W23946  13.740  14.858   2.439
52418W        W23947   7.213  26.341  13.881
52419W        W23948  20.259   3.648  10.495
52420W        W23949  27.846  42.514   2.140
52421W        W23950  23.387  16.039  10.749
52422W        W23951  30.123  23.094   3.731
52423W        W23952  25.241   1.404   2.505
52424W        W23953  41.164  12.591   1.386
52425W        W23954  22.671  43.861  10.757
52426W        W23955  31.623  16.283  10.775
52427W        W23956  42.050  34.325  11.041
52428W        W23957  24.879   6.849  14.466
52429W        W23958  31.573  21.777   0.236
52430W        W23959  20.579   8.452  12.055
52431W        W23960  41.795  40.301  10.786
52432W        W23961  25.195  29.801  12.713
52433W        W23962  17.865  13.150   2.190
52434W        W23963  18.602  24.578   4.469
52435W        W23964  15.851  43.189   4.049
52436W        W23965  42.676  39.120   1.351
52437W        W23966  23.712  33.750  11.189
52438W        W23967  38.834  41.866  12.037
52439W        W23968  36.539  39.305   3.812
52440W        W23969  15.130   8.001  11.596
52441W        W23970  44.778  17.399   4.655
52442W        W23971  22.204  21.054  13.841
52443W        W23972  32.117  15.856  13.967
52444W        W23973  27.740  20.657   2.332
52445W        W23974  22.035  29.143   0.241
52446W        W23975  23.489  30.628  14.285
52447W        W23976   1.449  14.204   0.686
52448W        W23977  29.053  22.225   4.741
52449W        W23978  34.966  19.795   4.076
52450W        W23979  32.343  42.407   2.906
52451W        W23980  24.262   4.756  12.078
52452W        W23981  27.533   0.164   1.895
52453W        W23982  38.656  28.546  11.095
52454W        W23983  22.529  13.709  14.462
52455W        W23984  19.461  17.370   3.382
52456W        W23985  36.094  44.331   4.274
52457W        W23986  20.143  20.639   4.463
52458W        W23987  38.258  43.654   1.361
52459W        W23988  34.062  42.434  13.370
52460W        W23989  16.679  12.811  13.542
52461W        W23990  14.963  35.301   4.742
52462W        W23991  35.062  36.985   4.297
52463W        W23992   1.781  12.342   1.808
52464W        W23993  33.496  14.980   2.834
52465W        W23994  16.022  24.449   3.127
52466W        W23995  35.926   7.851   2.946
52467W        W23996  19.093  39.676  10.849
52468W        W23997   2.835  38.988  11.080
52469W        W23998  32.857  30.518  14.910
52470W        W23999   9.466  19.257   3.110
52471W        W24000  34.042  31.314  14.967
52472W        W24001  28.015  40.011  13.557
52473W        W24002   4.847  44.395   2.006
52474W        W24003  43.359  44.669   2.177
52475W        W24004   8.690   8.926  14.415
52476W        W24005   5.308  42.188   2.210
52477W        W24006  37.550  13.119   4.212
52478W        W24007  16.725  30.197  10.830
52479W        W24008  15.181   7.283  11.429
52480W        W24009   6.965  18.911  11.117
52481W        W24010  43.421   2.176   0.690
52482W        W24011  31.581  33.849  14.791
52483W        W24012   5.988  39.287  10.583
52484W        W24013  29.808  15.162   2.625
52485W        W24014   7.884  21.768  12.931
52486W        W24015   7.847   0.878   0.456
52487W        W24016  32.557  41.529   2.301
52488W        W24017  24.821  17.104   4.450
52489W        W24018  31.452  24.832   3.070
52490W        W24019  33.015  33.413  13.287
52491W        W24020  44.948  20.089  12.910
52492W        W24021  40.060  35.786   4.676
52493W        W24022  33.648   4.763   0.779
52494W        W24023  18.324  27.016  12.969
52495W        W24024  26.896  21.234   2.963
52496W        W24025   2.898  18.314   0.866
52497W        W24026   3.831  26.028   0.768
52498W        W24027  35.582  18.406  12.034
52499W        W24028  17.009  30.469  14.905
52500W        W24029  23.983  34.699  11.213
52501W        W24030  26.723  13.540  14.515
52502W        W24031  11.338   6.451   1.874
52503W        W24032   3.773  10.340  11.940
52504W        W24033   8.709  29.602   3.592
52505W        W24034  24.004   1.478  11.459
52506W        W24035   0.213   7.651  14.146
52507W        W24036  36.907   1.031  12.995
52508W        W24037  31.886  32.414  12.428
52509W        W24038  18.364  27.515  10.844
52510W        W24039  28.457  31.490   0.425
52511W        W24040  29.159  11.630   3.690
52512W        W24041  44.394  12.189  13.343
52513W        W24042  30.249  21.274   0.783
52514W        W24043  37.741  26.057  13.331
52515W        W24044  18.580  12.149  12.898
52516W        W24045  37.687  43.092  11.457
52517W        W24046  29.687  15.876   1.386
52518W        W24047  44.320   1.344  11.652
52519W        W24048  37.746  26.559   0.720
52520W        W24049   5.919  23.084  14.814
52521W        W24050  42.205  39.559   4.855
52522W        W24051  16.763  32.070  11.676
52523W        W24052  23.984  44.081  12.053
52524W        W24053  44.458  20.155  10.224
52525W        W24054  35.574   6.858   2.924
52526W        W24055   4.275   5.693  14.407
52527W        W24056   0.970   3.859  13.427
52528W        W24057  44.247  38.427   3.390
52529W        W24058  43.621  31.808   0.665
52530W        W24059  19.028   2.378   0.910
52531W        W24060   6.386   5.197   0.225
52532W        W24061   5.217  39.496  12.491
52533W        W24062  11.116  37.134  14.753
52534W        W24063  34.572  15.141  12.092
52535W        W24064   4.186   2.790  11.640
52536W        W24065   9.113  28.782  12.000
52537W        W24066  39.084  26.502  13.310
52538W        W24067  41.753  42.380  10.734
52539W        W24068  24.006   8.700   0.368
52540W        W24069   5.156  30.107   0.878
52541W        W24070  35.653  32.820  11.208
52542W        W24071   4.422  15.793   2.213
52543W        W24072  39.247  36.819   3.174
52544W        W24073   6.038  14.310   0.205
52545W        W24074  33.634  27.588   0.655
52546W        W24075  32.021   0.359  14.302
52547W        W24076   9.316   6.734   4.850
52548W        W24077  23.491  10.454  13.469
52549W        W24078   3.582  21.718  13.894
52550W        W24079  20.128  29.453   3.658
52551W        W24080   8.421  37.592   1.071
52552W        W24081   6.799   3.546  14.267
52553W        W24082   0.487  17.663  14.376
52554W        W24083  11.834  18.310   4.647
52555W        W24084  29.048  35.641   1.666
52556W        W24085   4.748  40.395   3.732
52557W        W24086  27.082   5.454   1.252
52558W        W24087  39.788  20.295   0.837
52559W        W24088  24.308   9.754  12.104
52560W        W24089   0.319  14.776   3.216
52561W        W24090   4.795   9.806  12.182
52562W        W24091  13.321  20.533   1.575
52563W        W24092  13.778  39.811   0.381
52564W        W24093  19.695  33.620   4.593
52565W        W24094  15.712  41.817  12.951
52566W        W24095  29.846  18.524   1.309
52567W        W24096  35.852  28.473   2.225
52568W        W24097  10.883  37.625  13.368
52569W        W24098  36.810  35.361   0.853
52570W        W24099  15.701  40.549   3.632
52571W        W24100   9.464   4.364   3.568
52572W        W24101  29.479   4.833   4.067
52573W        W24102  27.375  22.193  10.867
52574W        W24103  16.370  44.240   0.339
52575W        W24104  16.210  32.465   3.911
52576W        W24105  25.660  26.174  14.772
52577W        W24106  42.368  25.711   1.428
52578W        W24107  31.879   0.044  14.921
52579W        W24108   9.117  18.388   0.399
52580W        W24109  31.432  15.709   1.264
52581W        W24110  33.340  27.679  10.615
52582W        W24111  14.284   4.869   1.949
52583W        W24112   6.183  31.913  14.343
52584W        W24113  14.747  33.927   4.483
52585W        W24114  37.844  30.043   2.780
52586W        W24115  19.502  14.078  12.120
52587W        W24116   4.021  26.598   0.418
52588W        W24117  31.527  10.750   4.159
52589W        W24118  42.781  34.504   0.053
52590W        W24119  39.570  24.098   4.473
52591W        W24120  28.117  25.582  12.900
52592W        W24121  16.224  32.557   4.444
52593W        W24122  44.148  38.425  11.672
52594W        W24123  41.241  27.532  14.255
52595W        W24124  32.075  21.118  13.839
52596W        W24125  36.419  27.443  14.904
52597W        W24126  26.465  12.174  12.003
52598W        W24127   4.745  44.823  11.008
52599W        W24128  36.556  31.912   0.921
52600W        W24129  33.659   6.781  12.146
52601W        W24130  12.879   8.401   1.467
52602W        W24131  29.434  40.043   2.413
52603W        W24132  10.097  24.919   5.037
52604W        W24133   8.850  17.300   0.866
52605W        W24134  30.118   0.706   3.399
52606W        W24135   4.000  35.648  14.569
52607W        W24136  11.659  13.192   3.886
52608W        W24137  16.686  23.503   3.122
52609W        W24138  12.376   0.572   3.225
52610W        W24139  31.470  30.634   4.916
52611W        W24140  27.486  36.618   0.738
52612W        W24141  38.427  39.060  14.422
52613W        W24142  35.988   5.607   3.484
52614W        W24143  36.808  41.594  13.079
52615W        W24144  16.451  31.059  10.325
52616W        W24145  40.404   8.685   0.221
52617W        W24146   5.450  41.929   2.878
52618W        W24147  42.272   7.872   1.741
52619W        W24148  35.767  20.857   0.301
52620W        W24149  28.306  32.903   3.764
52621W        W24150  11.936  11.180   2.229
52622W        W24151  44.578   4.262  10.143
52623W        W24152   4.466  15.060   4.161
52624W        W24153  41.963  23.315   1.888
52625W        W24154  39.138  41.087  10.736
52626W        W24155   6.794  29.548  14.363
52627W        W24156  29.121   6.927   2.800
52628W        W24157  27.991   0.001  13.341
52629W        W24158  34.880  39.252   1.870
52630W        W24159  25.602  10.070  14.993
52631W        W24160  23.804   9.301  11.670
52632W        W24161  27.537  39.912   2.039
52633W        W24162   5.150   5.454  13.181
52634W        W24163  25.913  23.098   3.342
52635W        W24164  26.750   1.348   2.301
52636W        W24165  33.949  19.090  14.260
52637W        W24166  41.578   2.001   3.669
52638W        W24167  32.330  25.777   0.824
52639W        W24168  23.065  36.593   4.183
52640W        W24169  14.704  12.895  12.113
52641W        W24170  13.385  36.982   3.154
52642W        W24171   7.325  42.034  10.627
52643W        W24172  29.921  43.033  11.974
52644W        W24173  11.122  42.109   0.899
52645W        W24174  32.908  35.616   3.375
52646W        W24175  29.909  14.683   3.755
52647W        W24176  28.610  43.267   4.675
52648W        W24177  40.584  30.887  10.284
52649W        W24178  38.793   6.252   3.924
52650W        W24179  42.474   9.241  13.342
52651W        W24180  21.748   7.623   1.773
52652W        W24181   5.376  17.323  14.982
52653W        W24182   5.545  22.749   4.630
52654W        W24183   3.011  41.424   4.022
52655W        W24184  41.262  33.263   3.112
52656W        W24185  43.288  26.123  12.134
52657W        W24186   6.144  35.448   4.154
52658W        W24187   2.004  18.216   2.099
52659W        W24188  19.760  17.778   3.481
52660W        W24189  25.691  41.047  12.760
52661W        W24190  37.317   3.240   2.299
52662W        W24191  31.103   9.975   1.403
52663W        W24192  43.524   0.690   2.302
52664W        W24193  39.526  20.493  13.477
52665W        W24194  38.360  41.031  12.147
52666W        W24195  44.860   6.671  14.912
52667W        W24196  19.773  16.354   0.221
52668W        W24197  37.013  19.092  12.551
52669W        W24198  38.340  29.663  10.753
52670W        W24199  29.132  30.032  11.690
52671W        W24200  19.402  41.146   3.531
52672W        W24201  27.411  36.517  12.549
52673W        W24202  41.762  44.934   3.365
52674W        W24203  24.228  30.739   2.245
52675W        W24204  29.045  17.602  12.144
52676W        W24205  34.248  41.280   2.731
52677W        W24206  41.772  14.195   0.515
52678W        W24207  31.561  25.347   3.071
52679W        W24208   3.474  36.596  12.865
52680W        W24209   4.769  44.291   0.961
52681W        W24210  29.577  17.278   0.719
52682W        W24211  23.656  40.253  13.276
52683W        W24212   8.238  36.520   0.286
52684W        W24213  28.421  17.086  12.602
52685W        W24214  14.171   3.883   1.988
52686W        W24215  35.331  19.518  10.636
52687W        W24216  19.533   5.423   2.300
52688W        W24217  16.226  31.261   0.305
52689W        W24218  43.295  26.172   1.443
52690W        W24219  42.326  15.737  13.831
52691W        W24220   2.979  39.905  13.377
52692W        W24221  22.227  24.456   3.268
52693W        W24222  26.971  21.919  10.705
52694W        W24223   3.393  10.325  13.354
52695W        W24224  16.165  29.683  10.495
52696W        W24225  25.719  44.560  11.414
52697W        W24226   9.925  12.937  11.549
52698W        W24227  36.364  39.283   3.318
52699W        W24228   1.470   7.888   2.861
52700W        W24229  37.437  29.062  12.618
52701W        W24230   9.434  32.876   2.163
52702W        W24231  13.061  19.220   1.826
52703W        W24232  23.683   4.633   3.659
52704W        W24233  15.417  25.750   3.797
52705W        W24234   6.771  31.510  12.821
52706W        W24235  27.416   3.401   0.894
52707W        W24236  22.520  32.447   2.394
52708W        W24237  15.188  33.309   4.878
52709W        W24238  30.386   1.747   0.491
52710W        W24239   4.608  35.796  14.806
52711W        W24240   1.014  41.797  14.374
52712W        W24241  38.107  33.340  11.693
52713W        W24242  33.142  12.189   1.699
52714W        W24243  30.989   0.167   4.230
52715W        W24244  44.394  35.587  12.556
52716W        W24245  37.479  37.285  13.880
52717W        W24246   5.401  42.709   2.266
52718W        W24247  25.192   1.526   3.569
52719W        W24248  12.917  27.517   4.868
52720W        W24249   4.291  42.443   2.894
52721W        W24250   8.800  38.653   4.127
52722W        W24251  28.045  43.970   3.478
52723W        W24252  41.420  42.000   0.469
52724W        W24253  41.817   4.389  13.187
52725W        W24254  26.551  30.453  14.868
52726W        W24255   0.442  22.765   1.396
52727W        W24256  17.338  35.178   0.967
52728W        W24257  29.415  27.788  12.847
52729W        W24258  38.495  17.200  13.055
52730W        W24259  44.484  44.536   1.373
52731W        W24260  43.489  21.133  14.324
52732W        W24261  41.801   1.253   3.610
52733W        W24262   1.251   1.979   2.811
52734W        W24263  11.147  41.914  14.400
52735W        W24264  37.781  25.603   3.704
52736W        W24265  39.381   5.811  12.143
52737W        W24266   7.780  42.013   1.777
52738W        W24267   8.379  11.245  14.067
52739W        W24268   8.249  41.198  11.805
52740W        W24269  44.962  36.282  14.804
52741W        W24270   6.844  18.133   1.966
52742W        W24271   3.768  43.769  13.159
52743W        W24272  15.639  40.172  11.552
52744W        W24273  14.428   7.625  11.131
52745W        W24274  29.629  44.135  13.000
52746W        W24275  26.636   3.779  13.422
52747W        W24276   6.994  23.980   0.848
52748W        W24277   2.769  14.759  10.603
52749W        W24278  27.615   3.420  12.327
52750W        W24279  36.516  44.802  14.564
52751W        W24280  22.540  44.018  14.064
52752W        W24281  33.026  15.180  10.891
52753W        W24282   3.561  35.059   2.884
52754W        W24283  11.104  25.997  12.966
52755W        W24284  31.039  34.973  13.312
52756W        W24285  11.704  10.366   2.841
52757W        W24286  24.488  31.641  13.302
52758W        W24287  30.332  34.355  11.162
52759W        W24288  35.825  24.251   4.060
52760W        W24289  36.625   5.874  10.246
52761W        W24290   7.185   1.335   4.558
52762W        W24291  11.783  15.689  11.576
52763W        W24292   2.636  17.075  10.454
52764W        W24293  14.589  31.020  11.098
52765W        W24294  20.340  35.341   4.581
52766W        W24295  27.293  14.792  10.613
52767W        W24296  33.470  38.238  12.116
52768W        W24297  33.879   7.509   4.597
52769W        W24298   5.435  38.883   1.396
52770W        W24299   6.886  21.502   2.010
52771W        W24300  17.026  31.580  11.748
52772W        W24301   3.364  32.701  14.480
52773W        W24302  29.419   4.154   1.385
52774W        W24303  33.925  40.260  11.105
52775W        W24304  40.348  31.563   1.220
52776W        W24305  26.590  29.918   3.336
52777W        W24306  26.513   3.374   3.476
52778W        W24307   6.300   4.380   4.551
52779W        W24308  21.286  11.394  11.447
52780W        W24309  27.028  31.543  14.352
52781W        W24310  24.025  17.053   3.300
52782W        W24311   4.779  42.724   4.047
52783W        W24312  39.823  33.654   3.363
52784W        W24313  12.322  26.317   2.827
52785W        W24314  35.888  27.541  13.743
52786W        W24315  11.642  18.679   5.155
52787W        W24316   0.463   6.623  13.738
52788W        W24317  38.957  24.269   1.143
52789W        W24318   1.028  31.750  13.462
52790W        W24319  26.174  29.192   1.276
52791W        W24320   9.112  24.008   2.745
52792W        W24321  17.485  25.097  12.087
52793W        W24322   6.517  21.588  11.514
52794W        W24323  10.237  18.066  13.256
52795W        W24324  42.819   7.830  13.874
52796W        W24325  40.598   2.088  11.657
52797W        W24326  35.142   7.193   4.153
52798W        W24327  11.919   7.922  12.920
52799W        W24328  29.830  34.934   2.912
52800W        W24329  35.981   4.532   2.495
52801W        W24330   9.519  28.791   4.385
52802W        W24331  42.308  12.539  14.870
52803W        W24332  33.569  31.111  12.893
52804W        W24333  38.862   9.211   1.471
52805W        W24334  22.207  44.554   4.345
52806W        W24335  37.323  14.377   4.527
52807W        W24336  10.769  43.693  12.987
52808W        W24337  18.866  20.117   5.012
52809W        W24338  12.911  33.865  13.547
52810W        W24339  33.127  12.104   3.789
52811W        W24340  17.633  23.009  14.847
52812W        W24341  18.637  11.098  12.890
52813W        W24342  25.868   8.169  13.926
52814W        W24343   0.245   5.882   4.655
52815W        W24344  25.003  36.907   1.971
52816W        W24345  37.343  39.314  14.005
52817W        W24346  42.268  34.085   1.309
52818W        W24347  41.754  15.117   1.653
52819W        W24348  36.997  40.774   0.389
52820W        W24349  42.003  39.515  12.414
52821W        W24350   1.044  37.704   2.311
52822W        W24351  32.902   9.271  13.479
52823W        W24352  35.971  12.612  13.443
52824W        W24353   7.036   9.412  11.500
52825W        W24354   5.723  24.087  13.177
52826W        W24355   1.706  25.318   2.316
52827W        W24356  38.346  39.570   2.184
52828W        W24357   0.784  43.531  13.481
52829W        W24358  20.756   6.628   1.872
52830W        W24359  15.120   2.335   4.268
52831W        W24360  34.574  23.015   0.152
52832W        W24361  15.700  13.665  14.307
52833W        W24362  33.300  19.023   4.228
52834W        W24363  32.759   2.783   1.782
52835W        W24364  23.663  15.457   0.372
52836W        W24365  13.544   0.771  13.414
52837W        W24366  27.184   5.964  14.395
52838W        W24367   9.284   1.241   4.537
52839W        W24368  42.213  28.800   4.108
52840W        W24369   2.510   1.874   2.272
52841W        W24370  23.682  14.215   0.717
52842W        W24371  16.812  39.444  14.752
52843W        W24372  33.023  18.077   1.234
52844W        W24373  22.740   0.829  10.890
52845W        W24374  41.039  41.376  10.713
52846W        W24375  34.275  33.112   3.375
52847W        W24376   0.112   6.809   3.939
52848W        W24377  12.120  36.442   4.241
52849W        W24378   7.246   3.420  11.594
52850W        W24379  44.418  11.157   2.013
52851W        W24380  18.055   0.308  11.111
52852W        W24381  38.888  23.985   0.277
52853W        W24382   2.527  39.356   0.127
52854W        W24383  35.749  41.637   3.259
52855W        W24384   6.188   8.442  14.159
52856W        W24385   3.810  38.953   3.070
52857W        W24386  24.209   4.775   1.421
52858W        W24387   8.299  18.746   0.745
52859W        W24388   7.553   1.818   1.944
52860W        W24389  31.612  42.455   1.278
52861W        W24390  10.611  33.512  14.471
52862W        W24391  24.698  24.775   0.929
52863W        W24392  39.005  13.199   4.651
52864W        W24393  16.874   1.449   2.928
52865W        W24394  32.825  23.550  14.976
52866W        W24395  31.580  39.777   3.653
52867W        W24396   7.529  10.821  13.756
52868W        W24397  17.180  32.362  14.976
52869W        W24398   8.697  32.133   1.422
52870W        W24399  27.488  12.782   1.801
52871W        W24400  40.582  20.224   2.126
52872W        W24401  31.575  34.873  13.281
52873W        W24402  23.604   8.748  14.996
52874W        W24403   8.666  37.842  10.769
52875W        W24404   3.213  40.677   0.665
52876W        W24405   6.396  26.120   1.805
52877W        W24406  38.886  22.105  10.178
52878W        W24407  42.475   8.419   3.136
52879W        W24408  22.999  15.516  13.357
52880W        W24409  22.196  11.760  13.861
52881W        W24410   0.926  12.370   1.393
52882W        W24411  17.969  10.427  14.756
52883W        W24412  32.604  25.990   3.491
52884W        W24413  25.140   6.526  11.755
52885W        W24414  40.357  15.617  12.115
52886W        W24415  38.306  42.123   3.665
52887W        W24416  27.098  27.970  10.156
52888W        W24417  44.996  39.791  11.148
52889W        W24418  33.077   4.718  13.076
52890W        W24419  15.861  24.146  12.970
52891W        W24420  35.389  37.836   0.385
52892W        W24421  24.206  12.385   1.928
52893W        W24422  34.410   6.212   3.448
52894W        W24423  31.423  36.938  13.632
52895W        W24424  22.481  32.528   3.937
52896W        W24425  19.588  36.208   3.710
52897W        W24426   8.910  37.519   3.329
52898W        W24427  33.539  39.289  10.380
52899W        W24428  20.695  15.857  14.418
52900W        W24429  20.056  40.598   3.402
52901W        W24430  30.956  17.975  13.006
52902W        W24431  37.029  15.069  10.663
52903W        W24432  26.112   8.901   0.937
52904W        W24433  15.208   6.041  10.731
52905W        W24434   7.671  41.366   5.027
52906W        W24435  21.990  42.412   5.413
52907W        W24436   2.482  34.688   1.397
52908W        W24437   3.343  15.159  13.125
52909W        W24438  33.542  40.030   3.853
52910W        W24439  33.933   1.457  14.271
52911W        W24440  17.575  14.389   0.440
52912W        W24441  19.545  38.880   5.327
52913W        W24442   8.680   4.482  11.415
52914W        W24443  16.229  18.131   3.229
52915W        W24444  23.924  28.474  13.002
52916W        W24445  13.966  38.548   0.532
52917W        W24446   7.589  40.196  11.923
52918W        W24447  28.986  16.989  13.909
52919W        W24448  14.470  16.257   0.870
52920W        W24449   1.092  11.752   0.819
52921W        W24450  34.489  41.998   0.478
52922W        W24451   5.892  44.271  14.643
52923W        W24452  41.519  39.993  10.481
52924W        W24453  10.592  15.255   1.184
52925W        W24454  34.891  26.610  11.692
52926W        W24455  20.564   0.526   0.900
52927W        W24456  43.621  10.618  13.395
52928W        W24457  16.343  32.929  10.766
52929W        W24458   6.408   7.848   2.094
52930W        W24459   3.439  16.804   0.012
52931W        W24460   4.835  26.779  12.459
52932W        W24461  34.457   6.358   0.577
52933W        W24462   0.465  14.148  12.454
52934W        W24463   9.834  29.622  12.000
52935W        W24464  24.918   1.244  12.325
52936W        W24465  44.015  14.741  10.731
52937W        W24466   8.120  30.232   0.495
52938W        W24467  24.497  25.645  10.834
52939W        W24468  21.306   9.954   4.465
52940W        W24469  23.418  34.189  11.127
52941W        W24470  38.801  18.788   0.683
52942W        W24471  32.160  22.556   2.758
52943W        W24472   6.751  12.825  10.761
52944W        W24473  14.635  16.715  10.958
52945W        W24474  44.590  23.448   1.263
52946W        W24475  43.863  16.832  11.976
52947W        W24476  40.321   3.477  10.813
52948W        W24477  34.355  24.518  13.561
52949W        W24478  20.035  10.368  12.986
52950W        W24479   6.387  19.242   4.071
52951W        W24480  21.429  19.720  13.938
52952W        W24481   9.257  26.525   1.776
52953W        W24482   8.782  40.081  11.155
52954W        W24483  42.753  19.785   0.624
52955W        W24484   0.081  23.316   1.921
52956W        W24485  10.668  21.236  11.640
52957W        W24486  18.201   0.275   1.644
52958W        W24487  25.719   5.827  13.125
52959W        W24488  32.981  12.148   2.714
52960W        W24489  11.825   1.285  12.768
52961W        W24490  14.771  27.604   0.056
52962W        W24491  31.410   4.198   2.141
52963W        W24492   8.226  37.062   0.193
52964W        W24493  30.571  32.905   3.675
52965W        W24494   3.891   3.263  13.865
52966W        W24495  20.412   9.022   2.401
52967W        W24496  10.563  31.252   2.347
52968W        W24497  39.323  35.671   1.218
52969W        W24498  33.670  18.151  14.102
52970W        W24499  37.320  25.642  12.554
52971W        W24500   4.942  43.034   3.180
52972W        W24501   0.950   4.345  12.228
52973W        W24502  34.398  12.868   0.288
52974W        W24503  32.978  34.563  13.386
52975W        W24504  16.004   6.746  12.329
52976W        W24505  36.056   5.844  14.962
52977W        W24506  38.203   6.202  11.888
52978W        W24507  41.508  44.106  14.337
52979W        W24508  33.359  24.125   1.794
52980W        W24509   9.725  31.499   1.219
52981W        W24510  34.039  10.563   3.569
52982W        W24511   6.271  40.068   2.286
52983W        W24512   5.320  30.996  13.175
52984W        W24513  21.956  27.397  10.638
52985W        W24514  28.680  24.139  10.646
52986W        W24515  36.015  10.780  14.868
52987W        W24516   0.925  38.151  14.827
52988W        W24517  43.997  23.236   3.169
52989W        W24518  13.521   2.616  11.462
52990W        W24519  10.765   8.372  14.302
52991W        W24520   3.405  41.128  10.689
52992W        W24521  33.592  32.462  12.916
52993W        W24522  12.848   9.720  12.324
52994W        W24523  14.234  38.478  13.126
52995W        W24524  16.287   4.987  13.153
52996W        W24525  27.071   8.870  10.697
52997W        W24526  38.407   7.977   0.288
52998W        W24527   4.555  19.810   4.966
52999W        W24528  28.977  18.157  13.954
53000W        W24529  43.946   9.327  12.968
53001W        W24530  16.830  42.744  12.515
53002W        W24531  12.503  25.019   2.614
53003W        W24532  26.891  43.248   2.650
53004W        W24533  30.959  31.706   4.162
53005W        W24534   0.428   1.817  12.631
53006W        W24535  28.373  28.850   3.808
53007W        W24536  41.633  12.846   1.362
53008W        W24537  40.157  31.752  11.616
53009W        W24538   3.849  33.730  12.573
53010W        W24539  16.721   2.371  12.618
53011W        W24540  16.951  29.954   4.087
53012W        W24541   7.266   0.853  12.075
53013W        W24542  30.790  13.496  10.950
53014W        W24543  31.462   3.791  12.047
53015W        W24544  14.115  24.074   4.683
53016W        W24545   6.421  13.838   1.699
53017W        W24546  35.669  21.061  13.417
53018W        W24547   7.212  37.955   1.840
53019W        W24548  17.538  34.373   4.417
53020W        W24549  27.290  15.993   5.064
53021W        W24550  11.788  32.883  11.957
53022W        W24551  40.002  33.592  12.016
53023W        W24552  39.483   7.807  12.493
53024W        W24553  26.923  17.761  11.601
53025W        W24554  26.197  39.754   1.949
53026W        W24555  31.810  36.065   1.008
53027W        W24556  16.322   9.627  14.844
53028W        W24557  23.606  41.090   0.739
53029W        W24558  34.905   6.110  13.010
53030W        W24559  39.549  34.178  14.960
53031W        W24560   8.917  12.752   1.278
53032W        W24561  32.217  23.743   0.872
53033W        W24562   8.826  15.594   1.866
53034W        W24563   8.775  12.034   3.774
53035W        W24564  38.846  25.986  11.115
53036W        W24565  26.489  19.602  10.899
53037W        W24566   9.802  16.340  12.821
53038W        W24567  19.088  22.678  13.434
53039W        W24568   4.280  28.237  13.474
53040W        W24569  14.034  37.373  11.035
53041W        W24570  15.315  17.154   2.360
53042W        W24571  33.531  43.277   5.118
53043W        W24572   7.472   4.724  13.302
53044W        W24573  36.394  29.209  13.468
53045W        W24574  33.941  23.037   1.015
53046W        W24575  32.335  14.351  13.252
53047W        W24576  22.475  18.323   3.719
53048W        W24577  15.029  41.922   0.683
53049W        W24578   3.501  28.981  14.525
53050W        W24579  19.738   6.026  12.964
53051W        W24580  22.222  14.086   2.106
53052W        W24581  37.981  29.696   4.160
53053W        W24582  15.356  37.863   4.085
53054W        W24583  21.317   7.651  13.961
53055W        W24584  11.038  24.678  11.212
53056W        W24585   6.857  41.827  11.467
53057W        W24586  10.347   3.553   3.893
53058W        W24587  30.465  40.802   0.522
53059W        W24588  10.099  22.255   2.876
53060W        W24589  10.281  29.959   4.100
53061W        W24590   7.854  40.075   0.344
53062W        W24591   1.346  28.517   4.508
53063W        W24592  17.057  13.527   4.608
53064W        W24593  38.560  19.643  12.890
53065W        W24594   0.618  42.298   0.902
53066W        W24595   0.498   6.316   1.720
53067W        W24596  23.230  11.189  14.406
53068W        W24597   7.723  12.296   0.955
53069W        W24598   0.862  10.733   3.725
53070W        W24599   5.796   1.451   0.003
53071W        W24600   1.729  28.254   4.272
53072W        W24601  23.396   7.117  14.516
53073W        W24602   3.258  16.678   1.456
53074W        W24603  14.796   1.266   2.616
53075W        W24604  29.492  27.608   2.431
53076W        W24605  43.825  41.362  11.607
53077W        W24606  43.029  10.887   1.162
53078W        W24607  23.572   9.762  13.994
53079W        W24608   2.381  32.429  11.591
53080W        W24609  36.489   5.749   4.586
53081W        W24610   7.190   4.952  10.636
53082W        W24611  33.571  11.853   3.708
53083W        W24612  30.618  38.476  14.908
53084W        W24613  18.061  25.158   3.669
53085W        W24614  31.415  22.717   4.566
53086W        W24615  12.313  27.569   3.167
53087W        W24616   6.721  22.645  11.350
53088W        W24617  43.670   8.483   1.235
53089W        W24618  20.464  21.356  11.172
53090W        W24619  39.879   2.319  14.058
53091W        W24620  38.811  30.143   0.918
53092W        W24621   4.295  36.097  13.861
53093W        W24622  37.845  31.430   3.705
53094W        W24623  30.105  16.199  14.869
53095W        W24624  31.938  38.475  11.738
53096W        W24625  17.530  30.198  14.225
53097W        W24626  35.505  15.798   4.105
53098W        W24627  22.546  13.093  11.566
53099W        W24628  39.024   6.453  10.667
53100W        W24629   6.361  23.707  12.045
53101W        W24630  20.989  21.782  12.492
53102W        W24631   8.296  27.105  13.745
53103W        W24632  29.390  34.605   3.812
53104W        W24633  14.534   8.170   0.225
53105W        W24634  18.686  10.414   4.104
53106W        W24635  31.388  11.937   2.622
53107W        W24636   3.840  24.060  14.444
53108W        W24637  28.182   5.821  11.025
53109W        W24638   9.703  20.681  12.831
53110W        W24639  11.682  26.365  14.195
53111W        W24640  31.512  30.356  12.905
53112W        W24641   5.684  22.255   3.349
53113W        W24642  34.052  39.947   3.804
53114W        W24643  32.949  42.879   0.212
53115W        W24644   6.874  44.360   0.437
53116W        W24645   1.100  31.418   1.982
53117W        W24646  40.484  32.103  13.282
53118W        W24647  31.717   3.735  12.623
53119W        W24648  43.224  31.032  10.826
53120W        W24649  38.979  29.294   0.473
53121W        W24650  12.655  20.170  10.993
53122W        W24651   4.803   1.517   5.118
53123W        W24652   3.607   0.254   3.691
53124W        W24653  16.256   3.999   4.749
53125W        W24654   9.686  26.514  11.424
53126W        W24655  29.332  22.685  10.731
53127W        W24656   0.922  30.715   5.267
53128W        W24657  22.025  40.552   2.774
53129W        W24658  19.599  35.679  13.618
53130W        W24659  21.648   0.434  11.590
53131W        W24660  13.524  35.238   5.040
53132W        W24661  42.311  42.942   4.533
53133W        W24662  10.060  14.688  14.269
53134W        W24663  16.144  29.747   3.532
53135W        W24664   9.473  33.088  13.762
53136W        W24665  28.285  16.265  10.909
53137W        W24666  31.419  42.867   5.031
53138W        W24667  10.828  32.465  14.174
53139W        W24668  17.394  42.740  11.982
53140W        W24669  38.760  20.153   0.883
53141W        W24670  33.527  17.133  11.146
53142W        W24671  20.219  31.350   3.146
53143W        W24672  19.383  30.489   3.171
53144W        W24673  25.380  33.950  10.392
53145W        W24674   7.414  35.125  12.440
53146W        W24675   4.494  29.388   1.358
53147W        W24676  20.153   8.913  10.653
53148W        W24677  33.565  33.054  10.626
53149W        W24678   6.119  19.685   2.384
53150W        W24679  38.383  30.387   0.031
53151W        W24680  20.597  32.530   0.435
53152W        W24681  25.381  39.504  11.935
53153W        W24682  21.722  44.510   4.587
53154W        W24683   5.728  27.321   2.305
53155W        W24684  16.479  44.236   1.366
53156W        W24685  35.025  31.444  14.794
53157W        W24686   4.831  37.577  12.535
53158W        W24687  18.732  42.081  11.193
53159W        W24688   5.738  28.488  12.540
53160W        W24689  12.294  41.905   4.096
53161W        W24690  42.400   5.936   0.185
53162W        W24691  13.856  35.903  12.910
53163W        W24692  20.526  40.794   2.825
53164W        W24693   5.071  14.170  10.633
53165W        W24694  22.248  44.914  11.026
53166W        W24695  33.784  16.617   2.245
53167W        W24696  20.167   4.406  14.849
53168W        W24697   2.774  41.500   4.507
53169W        W24698  30.633  29.967  11.552
53170W        W24699   8.185  32.372  14.754
53171W        W24700   5.316  32.733   3.173
53172W        W24701  35.115  36.271   3.820
53173W        W24702  41.607  34.476  13.569
53174W        W24703   2.653  19.196   1.883
53175W        W24704  43.688   9.763  12.086
53176W        W24705  26.332   3.853   4.782
53177W        W24706  38.460   2.298  13.742
53178W        W24707  42.026  16.670   1.249
53179W        W24708   3.693   9.923  11.063
53180W        W24709  36.036  36.019   1.201
53181W        W24710  18.984  43.228   3.085
53182W        W24711   8.926  16.932  10.133
53183W        W24712  37.943  23.057  14.723
53184W        W24713  13.045  10.207  10.254
53185W        W24714  32.943  21.057  14.401
53186W        W24715  14.283  29.719  13.836
53187W        W24716  39.736   5.304   0.996
53188W        W24717  28.645  30.669   3.832
53189W        W24718  32.485  19.981   4.881
53190W        W24719  10.780  22.193   1.040
53191W        W24720  11.818  32.992   1.882
53192W        W24721  25.702   6.585  12.204
53193W        W24722  21.845  26.816   4.500
53194W        W24723  40.438  10.733   3.853
53195W        W24724  27.019  24.810   1.621
53196W        W24725  38.652  28.075   2.388
53197W        W24726   2.291  38.938   1.253
53198W        W24727  35.353  19.197   3.675
53199W        W24728  38.911   9.577  10.140
53200W        W24729  17.421   7.999  10.316
53201W        W24730  14.615  12.226   2.460
53202W        W24731  15.541  36.969   0.013
53203W        W24732  33.816   7.497   3.620
53204W        W24733  36.838  40.829  11.515
53205W        W24734   2.724  40.440   0.736
53206W        W24735  27.651   9.305   4.089
53207W        W24736  30.463  17.380   2.240
53208W        W24737   0.070  34.046  14.416
53209W        W24738   5.373   7.505  14.837
53210W        W24739  28.504  25.659   3.178
53211W        W24740  31.243   7.738  13.303
53212W        W24741  11.261  22.893  11.947
53213W        W24742  12.880  34.515   0.198
53214W        W24743  18.677  38.982   4.997
53215W        W24744   9.014  37.013   3.217
53216W        W24745  39.523   0.189  12.592
53217W        W24746   5.731  36.907  14.082
53218W        W24747   0.829  25.500   4.569
53219W        W24748  28.709   6.957  13.995
53220W        W24749  36.316  29.475   3.584
53221W        W24750  28.503  16.942   1.396
53222W        W24751   0.193  29.470  14.007
53223W        W24752  21.240  29.423  14.265
53224W        W24753  44.021   7.895   4.916
53225W        W24754  20.213  26.711  13.835
53226W        W24755  22.649  15.979   1.389
53227W        W24756  19.662  26.515   0.562
53228W        W24757   3.625  31.384  11.137
53229W        W24758  13.552   5.300   4.536
53230W        W24759  22.160  28.407   2.851
53231W        W24760  31.720  23.122  13.993
53232W        W24761  33.523  31.897   4.130
53233W        W24762  24.322  17.756   2.784
53234W        W24763  43.656  24.024  14.817
53235W        W24764  30.526   8.419  12.948
53236W        W24765  38.812  18.803  14.274
53237W        W24766  42.288  14.229  12.073
53238W        W24767  33.040   3.465  12.359
53239W        W24768  29.553  16.422  11.116
53240W        W24769  21.798  26.021   3.146
53241W        W24770  16.292   2.959   3.616
53242W        W24771  12.622  19.559   4.832
53243W        W24772   1.868  41.116  13.024
53244W        W24773  11.661  17.668   0.728
53245W        W24774  23.636  34.928   3.085
53246W        W24775   4.804  10.660   3.153
53247W        W24776  34.349  43.072   1.339
53248W        W24777  36.925  36.287  11.121
53249W        W24778  13.203  17.769   2.113
53250W        W24779  37.670  26.549   3.210
53251W        W24780  41.415  38.881  11.543
53252W        W24781  36.027  39.977   0.533
53253W        W24782   7.787   5.653   4.404
53254W        W24783  24.719  22.965  11.493
53255W        W24784  38.843  31.252  14.896
53256W        W24785   3.723   2.391   3.401
53257W        W24786  10.274  21.155  12.173
53258W        W24787   8.533   0.818  11.248
53259W        W24788  39.321  12.340  10.649
53260W        W24789  18.186  40.364   4.648
53261W        W24790  25.018  40.926  12.187
53262W        W24791  19.262  32.580   2.284
53263W        W24792  18.657  13.535   2.739
53264W        W24793  16.095   1.840  11.943
53265W        W24794  33.492  37.406  13.727
53266W        W24795  39.904   9.776  12.942
53267W        W24796  32.403  22.841   4.250
53268W        W24797  11.980   1.013  11.441
53269W        W24798  26.630  15.788  14.448
53270W        W24799  12.139  20.770  14.174
53271W        W24800  14.160  20.697  13.220
53272W        W24801  23.968  38.298   4.340
53273W        W24802   7.256  24.236  12.372
53274W        W24803  42.443  23.570  11.934
53275W        W24804  43.367  30.651   1.883
53276W        W24805   1.240  43.101  10.447
53277W        W24806  20.415  11.161  12.078
53278W        W24807   8.897   7.743   3.384
53279W        W24808  29.153  22.311  13.073
53280W        W24809  31.626  25.894   1.019
53281W        W24810   5.713  31.839  12.897
53282W        W24811  40.353  11.655   0.380
53283W        W24812   8.752  44.913   0.883
53284W        W24813   4.301  38.312  14.589
53285W        W24814  25.482  28.369   3.607
53286W        W24815  42.389   5.138   4.373
53287W        W24816  36.013  19.069   0.449
53288W        W24817  39.817  21.570  10.589
53289W        W24818  26.027  23.183   2.223
53290W        W24819  42.448  27.677  13.003
53291W        W24820  20.653  27.090  12.158
53292W        W24821  42.946  12.186   1.789
53293W        W24822  37.176  26.178   2.665
53294W        W24823  20.987   5.816   3.873
53295W        W24824  24.644  34.908  11.046
53296W        W24825  24.267  39.434   0.730
53297W        W24826  10.122  20.555  14.914
53298W        W24827  20.019   5.548   2.179
53299W        W24828  25.705  37.467  12.491
53300W        W24829  11.901  30.672  13.593
53301W        W24830  16.611  42.515  11.522
53302W        W24831   5.535  44.395  12.002
53303W        W24832  19.835  25.527  11.011
53304W        W24833  40.715  29.487   3.674
53305W        W24834  10.701  31.107  13.134
53306W        W24835  20.056  13.994  11.134
53307W        W24836  15.370  27.034   3.839
53308W        W24837  28.243  18.709   1.858
53309W        W24838  33.009  14.652  12.098
53310W        W24839  43.194   9.857  12.128
53311W        W24840  10.412  42.027   1.378
53312W        W24841  35.064   7.507  12.950
53313W        W24842  14.197  26.110   0.424
53314W        W24843  23.204   3.501   0.932
53315W        W24844  17.744  21.588   0.709
53316W        W24845  35.534   0.274  11.373
53317W        W24846  22.694  21.502  14.680
53318W        W24847  26.313  31.347   1.564
53319W        W24848  40.053   9.629   4.158
53320W        W24849  23.715  19.051   2.298
53321W        W24850  16.971  10.316  14.832
53322W        W24851  32.056  28.430  10.245
53323W        W24852  34.895  37.807  14.932
53324W        W24853  34.464  27.404  14.926
53325W        W24854  34.770  44.454   3.183
53326W        W24855   7.897  18.663  12.960
53327W        W24856  20.664  34.855   1.230
53328W        W24857  26.853  19.162   0.208
53329W        W24858   0.425  31.477  11.087
53330W        W24859   4.717  13.801  10.707
53331W        W24860   4.578  28.873   1.445
53332W        W24861  34.581  16.564   1.313
53333W        W24862   9.603  37.030   2.293
53334W        W24863  35.870  33.823   4.046
53335W        W24864  24.234  15.190   1.416
53336W        W24865   5.975  35.382   2.266
53337W        W24866  35.327  16.687  12.202
53338W        W24867   4.177   1.801   4.184
53339W        W24868   3.373  33.069   4.230
53340W        W24869  42.398  33.479   3.306
53341W        W24870  44.953  29.001  13.869
53342W        W24871  11.422  34.989  11.671
53343W        W24872   9.498  19.743  12.330
53344W        W24873   7.697   3.874  10.735
53345W        W24874  11.060  23.283  11.665
53346W        W24875  12.151  42.964  14.249
53347W        W24876  34.441  22.919   0.651
53348W        W24877   5.791   3.010  13.349
53349W        W24878  40.632  13.818   4.452
53350W        W24879  23.062  10.354   1.499
53351W        W24880  23.683  23.565  10.964
53352W        W24881  15.273  24.335   1.477
53353W        W24882  32.624  15.704   1.897
53354W        W24883  18.024  15.030   1.540
53355W        W24884   6.700  27.266  14.933
53356W        W24885   4.754  30.579  13.780
53357W        W24886   6.985  21.295   5.273
53358W        W24887   4.578  22.822  10.884
53359W        W24888  27.673   4.424   4.558
53360W        W24889   0.671  39.641   2.415
53361W        W24890  41.749   8.500  11.481
53362W        W24891   1.856  30.017  11.815
53363W        W24892  38.285  17.640   3.131
53364W        W24893  17.069  19.870  10.676
53365W        W24894  38.995  18.544   0.248
53366W        W24895  43.063  43.338   1.847
53367W        W24896   9.618  26.340   4.271
53368W        W24897  32.716   9.719  12.013
53369W        W24898   2.474  19.529   5.006
53370W        W24899   3.351  40.393   4.874
53371W        W24900  22.244  34.047  12.645
53372W        W24901  28.989  20.804  12.989
53373W        W24902  38.246  44.005  14.904
53374W        W24903   5.701  37.086   1.865
53375W        W24904  16.511  31.392   1.680
53376W        W24905  20.121  30.892   2.928
53377W        W24906  34.584  10.294   2.786
53378W        W24907  29.931  15.595   0.477
53379W        W24908  33.061  35.509   0.301
53380W        W24909  21.114  39.379  13.460
53381W        W24910  43.916   0.417   2.050
53382W        W24911  12.751  15.776   3.806
53383W        W24912  31.473  24.267  11.641
53384W        W24913  42.435  33.403  12.456
53385W        W24914  17.159  14.711  12.519
53386W        W24915  27.168  44.378   1.287
53387W        W24916   2.003  28.174  11.181
53388W        W24917   7.822  17.680   2.706
53389W        W24918   5.958  20.130  10.215
53390W        W24919  39.514  43.129   9.907
53391W        W24920  36.832  18.002  10.897
53392W        W24921  13.035   7.147  12.348
53393W        W24922  21.637  41.824  14.289
53394W        W24923  28.277  13.793  10.724
53395W        W24924  35.057   0.741  13.556
53396W        W24925  41.582  33.564   2.256
53397W        W24926  27.136   8.394   0.179
53398W        W24927  22.168   5.125  12.543
53399W        W24928  19.327  38.746   3.525
53400W        W24929  40.752  16.869  13.292
53401W        W24930  25.489  11.842   3.215
53402W        W24931  31.409   1.995   3.299
53403W        W24932  37.152   5.207  14.223
53404W        W24933   9.610   9.683  11.955
53405W        W24934  41.947   7.386   4.184
53406W        W24935  23.402  21.539   3.087
53407W        W24936  21.199  32.635   3.210
53408W        W24937  37.733  10.437   0.870
53409W        W24938  34.130  21.604   2.701
53410W        W24939  38.598  21.382   2.636
53411W        W24940   0.711  30.503   3.272
53412W        W24941  10.184  25.250   0.328
53413W        W24942   3.808  35.178  14.725
53414W        W24943  36.374  24.650  14.084
53415W        W24944  40.896   2.368  11.239
53416W        W24945  14.593  16.554   3.240
53417W        W24946   3.442  10.725   4.634
53418W        W24947  31.875  30.038  11.501
53419W        W24948  26.683   8.713   4.141
53420W        W24949  12.691  42.856  11.139
53421W        W24950   3.739  31.407   2.317
53422W        W24951  18.724  22.287  11.002
53423W        W24952  40.899  23.127   3.677
53424W        W24953  44.680  30.032  11.154
53425W        W24954   6.953  42.843   3.300
53426W        W24955  32.852   8.409   2.660
53427W        W24956   9.592  23.827  14.513
53428W        W24957  38.959  41.883   4.240
53429W        W24958  36.741  33.420  10.277
53430W        W24959  21.078  30.514  14.267
53431W        W24960  41.507  31.725  12.706
53432W        W24961  42.276  44.408   4.082
53433W        W24962  20.095  27.920   0.366
53434W        W24963  30.401  31.214   1.796
53435W        W24964  42.503   3.296  13.391
53436W        W24965  18.325   2.400   4.792
53437W        W24966   1.806  13.751   2.806
53438W        W24967  42.674   9.102   3.900
53439W        W24968  43.529   1.780  13.808
53440W        W24969   1.825   2.801   4.287
53441W        W24970  22.391  13.669   0.821
53442W        W24971  10.267  25.154   1.527
53443W        W24972  42.911   2.198   4.271
53444W        W24973   5.376  44.284   0.411
53445W        W24974  44.329  11.835  10.873
53446W        W24975  22.882   7.322   0.347
53447W        W24976  12.220  18.631   0.362
53448W        W24977   7.418  22.041  13.951
53449W        W24978  40.271  40.786  14.447
53450W        W24979  13.186  23.820   0.388
53451W        W24980  26.402  39.099   1.701
53452W        W24981  15.398  40.784  12.559
53453W        W24982  35.127  21.586   1.531
53454W        W24983  38.002   9.267  10.349
53455W        W24984  43.564  10.816   4.609
53456W        W24985  43.525  33.850   5.339
53457W        W24986  21.370  34.988   5.131
53458W        W24987   7.511  23.734  14.604
53459W        W24988  36.075  44.548  12.031
53460W        W24989  41.805  21.559  12.429
53461W        W24990  32.589  38.252  11.887
53462W        W24991  40.057   1.357  11.518
53463W        W24992   0.403  26.151   1.014
53464W        W24993   5.442  15.718  12.940
53465W        W24994   8.083   1.934   1.830
53466W        W24995   6.737  25.633  12.807
53467W        W24996  43.556   2.268  12.977
53468W        W24997  21.205  25.795  14.286
53469W        W24998  34.944   3.217  12.965
53470W        W24999  30.971   3.666  10.775
53471W        W25000  16.786   5.437  14.898
53472W        W25001  28.989  35.176  12.920
53473W        W25002  23.938  14.225  14.402
53474W        W25003  24.725   2.797  12.491
53475W        W25004  18.751  30.882   0.746
53476W        W25005   1.398  29.627   0.212
53477W        W25006   1.439  16.320   3.362
53478W        W25007   7.398  24.022  13.778
53479W        W25008  30.556   2.181   1.395
53480W        W25009  35.469  24.919   3.715
53481W        W25010  28.052   7.679  12.609
53482W        W25011  43.205  28.917   0.939
53483W        W25012  10.512  20.242   3.631
53484W        W25013   3.304  39.198  11.032
53485W        W25014  41.571  33.457   1.221
53486W        W25015  11.356   3.853  12.009
53487W        W25016  16.013  32.000   3.391
53488W        W25017  27.545  40.090  14.469
53489W        W25018  32.416  11.659  12.042
53490W        W25019  17.299  23.434   4.167
53491W        W25020  24.950  41.024   0.753
53492W        W25021  11.536  22.605  14.616
53493W        W25022  18.645  15.262  11.807
53494W        W25023  26.916  17.798  14.464
53495W        W25024  33.097  19.660  11.986
53496W        W25025  38.062  43.270   3.088
53497W        W25026  36.876  11.089  11.981
53498W        W25027   0.500  11.164  12.993
53499W        W25028  44.555  21.294  13.541
53500W        W25029  20.766   7.208  11.481
53501W        W25030  43.155   8.232  13.833
53502W        W25031  33.829  27.962   1.896
53503W        W25032  43.267  39.120   2.673
53504W        W25033  36.161   6.729   4.639
53505W        W25034  20.483  41.803   0.929
53506W        W25035  10.395  10.182  11.508
53507W        W25036  30.179   6.641   4.131
53508W        W25037  34.859  43.768  13.319
53509W        W25038  21.272  27.000   4.107
53510W        W25039  13.714  21.256   4.187
53511W        W25040  35.483  15.321   4.868
53512W        W25041   6.351  37.927  10.532
53513W        W25042   7.464  40.408   1.695
53514W        W25043   2.432  17.843  13.597
53515W        W25044  24.149  33.200   1.469
53516W        W25045  28.283  12.301  12.471
53517W        W25046  28.095  41.952   4.337
53518W        W25047  15.823  44.927   3.361
53519W        W25048   2.296   3.813  11.389
53520W        W25049  22.266  35.251   3.776
53521W        W25050  10.268  10.513   4.649
53522W        W25051  35.719  23.163   2.160
53523W        W25052  36.464  37.281  10.640
53524W        W25053  12.250  40.507   1.323
53525W        W25054  32.058  40.248  10.702
53526W        W25055  12.296   5.250  11.005
53527W        W25056   4.333  37.895  14.269
53528W        W25057  36.469  16.929  12.168
53529W        W25058  26.958   6.392   3.218
53530W        W25059  12.774  37.816   3.165
53531W        W25060  33.393   8.673  12.449
53532W        W25061  36.873  23.972  10.752
53533W        W25062  12.450   6.958  11.137
53534W        W25063  28.070  29.636   2.827
53535W        W25064  25.633  20.473  10.656
53536W        W25065  33.618  12.876  14.801
53537W        W25066  37.638   1.334   3.720
53538W        W25067  15.187  14.935  13.959
53539W        W25068  21.587  15.780  14.286
53540W        W25069  10.704  32.962   0.523
53541W        W25070  17.045  31.835   4.185
53542W        W25071  17.300  16.407   2.234
53543W        W25072   8.574  17.622  14.405
53544W        W25073  21.802   9.607   0.542
53545W        W25074   2.433  41.890   4.515
53546W        W25075   7.203  10.268   3.889
53547W        W25076  35.017  37.451  11.405
53548W        W25077   7.237   4.409  12.864
53549W        W25078   3.513   2.933   1.250
53550W        W25079  37.327  16.648   3.444
53551W        W25080  10.838  27.147   4.078
53552W        W25081  29.030  25.663   0.958
53553W        W25082  17.717  28.631   1.262
53554W        W25083  32.280   4.461  14.751
53555W        W25084  36.448   6.240  13.875
53556W        W25085   4.202  41.534  12.644
53557W        W25086  30.156  11.612   5.166
53558W        W25087  29.337  41.409  12.586
53559W        W25088   6.751   4.751  12.906
53560W        W25089  31.925  37.304   1.835
53561W        W25090  15.342   9.231   1.347
53562W        W25091   9.419  18.575  10.678
53563W        W25092  42.314  33.394  13.823
53564W        W25093  28.884  17.473  14.087
53565W        W25094  36.255  32.140  14.104
53566W        W25095  20.117  10.683   0.341
53567W        W25096   7.333  40.314   5.168
53568W        W25097  38.474  13.887  13.328
53569W        W25098  28.517  15.408   1.790
53570W        W25099  33.339  31.994   5.052
53571W        W25100  27.412   5.184  14.915
53572W        W25101  13.917  32.673   4.812
53573W        W25102   6.673  18.629   3.998
53574W        W25103   9.200   4.931   2.106
53575W        W25104  12.964  18.197  12.089
53576W        W25105   5.271  44.322   2.371
53577W        W25106   4.961  35.533   1.684
53578W        W25107  15.733  24.450  12.052
53579W        W25108  38.032  30.196   0.784
53580W        W25109   4.674  34.951   4.622
53581W        W25110  16.090  18.318  13.923
53582W        W25111  35.208   4.901   0.445
53583W        W25112  26.023  29.451  13.840
53584W        W25113   7.723  26.460   3.781
53585W        W25114  14.313  39.904   3.301
53586W        W25115  16.368  39.368  13.020
53587W        W25116   9.010  44.207   2.768
53588W        W25117  15.954   2.222  14.315
53589W        W25118  16.335  17.310  14.098
53590W        W25119  19.535  20.786   2.811
53591W        W25120  44.100  33.243   0.880
53592W        W25121  41.880  39.945  12.650
53593W        W25122  19.709  27.217  10.678
53594W        W25123  24.231  20.563   1.998
53595W        W25124   8.809  30.966   2.570
53596W        W25125   5.647  11.692  11.987
53597W        W25126   7.286   0.246   0.214
53598W        W25127  33.058  30.673  10.985
53599W        W25128  19.205  39.645  13.746
53600W        W25129   2.403  36.805   4.948
53601W        W25130  31.673  25.064   2.658
53602W        W25131   5.397   6.977  14.031
53603W        W25132   9.919  10.353  11.550
53604W        W25133   2.400  37.908   2.897
53605W        W25134  18.295  27.968   2.693
53606W        W25135  22.210  16.579  13.892
53607W        W25136   8.162  22.190  14.578
53608W        W25137  38.000  29.705   1.889
53609W        W25138  14.043  44.429  10.097
53610W        W25139  40.938  33.383  10.713
53611W        W25140  32.215  28.525  11.911
53612W        W25141   5.949  13.524   2.538
53613W        W25142  34.145  13.699  14.117
53614W        W25143  25.314   8.144   1.396
53615W        W25144  43.758  32.646  11.654
53616W        W25145  28.680  23.126   0.965
53617W        W25146   6.811  13.803   2.040
53618W        W25147  10.720  39.625   4.640
53619W        W25148  43.247  21.265  10.646
53620W        W25149   8.877  40.420   4.508
53621W        W25150  30.871   3.799  13.005
53622W        W25151  43.081  22.112  11.636
53623W        W25152  11.842  37.969   3.412
53624W        W25153  36.547  39.341  10.696
53625W        W25154  42.243  20.207   4.763
53626W        W25155  35.620  18.548  13.073
53627W        W25156  28.642   4.165  11.509
53628W        W25157   6.799   4.205   4.513
53629W        W25158  27.028  44.005  12.427
53630W        W25159  16.400   3.835   1.710
53631W        W25160  28.677  26.920  13.012
53632W        W25161  11.648  32.075  11.561
53633W        W25162  18.128  40.127   2.591
53634W        W25163  15.340  30.453   2.646
53635W        W25164  29.599   6.509   4.525
53636W        W25165  12.882   3.282  12.930
53637W        W25166  13.815  17.078  10.728
53638W        W25167   1.515  31.553  14.542
53639W        W25168  11.173  12.048   1.951
53640W        W25169   2.770   5.729  13.094
53641W        W25170  27.966   7.790   4.647
53642W        W25171  29.607  38.206  11.608
53643W        W25172  25.629  41.370  14.429
53644W        W25173   2.361  20.187   2.725
53645W        W25174  32.900  42.910   3.444
53646W        W25175  29.478   2.909   5.088
53647W        W25176   6.317  21.805   4.375
53648W        W25177  24.007   1.000  13.266
53649W        W25178   6.944  18.205  14.560
53650W        W25179  40.429   6.501  11.607
53651W        W25180  17.111   3.506  13.825
53652W        W25181  10.798  37.905   3.234
53653W        W25182  25.562   5.753   0.294
53654W        W25183  23.863  22.745   4.098
53655W        W25184   6.303  20.214  10.573
53656W        W25185  28.212  16.221  12.308
53657W        W25186  31.328  14.828  12.458
53658W        W25187   1.990  39.396  12.564
53659W        W25188  13.728  28.949   4.273
53660W        W25189  37.641  43.949  11.206
53661W        W25190  16.061  44.027  11.098
53662W        W25191  23.668  33.325   1.101
53663W        W25192  29.627   2.257   0.296
53664W        W25193  36.090   9.473  13.592
53665W        W25194  36.813  35.989  11.530
53666W        W25195  27.523  19.041  14.632
53667W        W25196   5.037   0.161   2.045
53668W        W25197  31.410  34.675  12.178
53669W        W25198  16.711  38.277   0.116
53670W        W25199  27.203  13.384  10.654
53671W        W25200  15.153   3.788  10.438
53672W        W25201  17.590  34.273  11.294
53673W        W25202  44.476   4.843   4.369
53674W        W25203  11.416  23.524  12.538
53675W        W25204   3.202  19.758   0.003
53676W        W25205  10.036  37.628  12.566
53677W        W25206  42.910  31.325  11.113
53678W        W25207  44.327   1.771   3.266
53679W        W25208  29.998  33.073  12.734
53680W        W25209  40.242  33.365  13.138
53681W        W25210  10.249  25.921   4.995
53682W        W25211  33.488   3.758  11.400
53683W        W25212  42.793  29.681   0.970
53684W        W25213  17.200   0.485   2.630
53685W        W25214  26.941  12.260   0.273
53686W        W25215  14.674   8.186   1.216
53687W        W25216   1.735  13.280   2.169
53688W        W25217  21.030  29.885  10.501
53689W        W25218  32.438  27.676  11.900
53690W        W25219  16.345   3.238  12.638
53691W        W25220  30.595  21.487  11.473
53692W        W25221  40.057  19.713   1.725
53693W        W25222  23.931  10.035   4.874
53694W        W25223  37.585  31.332  10.674
53695W        W25224  19.864  18.103   0.266
53696W        W25225  43.577  39.361  10.591
53697W        W25226   2.771  40.267  14.849
53698W        W25227  33.279   4.748   4.855
53699W        W25228  13.129  16.228  12.946
53700W        W25229   6.974  16.154  10.783
53701W        W25230  40.812  33.517   0.553
53702W        W25231  39.078  12.808  12.645
53703W        W25232  24.921   2.479  13.423
53704W        W25233   2.494   5.293   2.760
53705W        W25234  32.547  23.659   0.471
53706W        W25235  43.527  24.715   3.076
53707W        W25236  36.107   2.840   3.280
53708W        W25237  16.215  13.272   0.480
53709W        W25238  20.454  26.574  12.572
53710W        W25239   7.283  40.825   2.722
53711W        W25240  18.673  18.506   3.346
53712W        W25241  38.279  37.886  12.076
53713W        W25242  43.501  41.834   0.306
53714W        W25243  31.939  44.160   2.687
53715W        W25244  42.388  39.930   4.556
53716W        W25245   4.638  11.711  10.758
53717W        W25246  31.152  42.012   2.408
53718W        W25247  22.180   4.358   4.884
53719W        W25248   9.703   8.646  12.514
53720W        W25249  28.061  39.976  14.375
53721W        W25250  43.979  42.521  12.739
53722W        W25251  17.233  36.963  12.892
53723W        W25252  29.361  30.158   3.141
53724W        W25253  11.383  44.572  12.082
53725W        W25254  19.492  43.430  10.322
53726W        W25255   0.467  36.038  13.467
53727W        W25256  36.535  38.336   1.312
53728W        W25257  19.189  42.053  14.819
53729W        W25258  15.974  41.425   3.733
53730W        W25259  33.183  16.858   3.772
53731W        W25260  21.103  44.771  12.767
53732W        W25261  24.530  43.338  11.682
53733W        W25262  31.864  42.733  13.890
53734W        W25263  36.303  42.557  10.529
53735W        W25264  43.343  25.159   3.837
53736W        W25265  34.010  18.551   2.592
53737W        W25266  17.377  23.678   1.269
53738W        W25267  10.099  39.413   2.244
53739W        W25268  41.940  42.874  10.649
53740W        W25269  36.121  18.210   3.228
53741W        W25270  25.040   6.050  13.819
53742W        W25271  21.688   1.372   3.167
53743W        W25272  37.314  30.120   2.825
53744W        W25273  38.878   5.365   1.903
53745W        W25274  11.595   8.515  13.836
53746W        W25275  32.716  22.964   4.617
53747W        W25276   0.236   6.005  14.978
53748W        W25277  42.528  24.234   4.092
53749W        W25278  35.901  34.508  14.704
53750W        W25279  27.761  40.496  11.568
53751W        W25280  18.422  30.469   0.847
53752W        W25281  43.577  18.718   1.847
53753W        W25282  20.070  14.583   1.245
53754W        W25283  34.681  22.205   2.649
53755W        W25284  11.378  29.898   2.336
53756W        W25285  24.224  35.281   4.443
53757W        W25286   0.620  26.750   0.708
53758W        W25287   0.937  30.317   4.703
53759W        W25288   0.653   6.674  11.170
53760W        W25289  23.128  27.489  12.807
53761W        W25290  24.756  27.920  11.849
53762W        W25291  28.294  28.050  13.467
53763W        W25292  12.088  19.097   1.787
53764W        W25293  10.348   5.084   3.136
53765W        W25294   6.725  10.843  12.435
53766W        W25295  30.086  44.023   2.765
53767W        W25296   0.032  15.764   0.247
53768W        W25297  37.815  24.719  11.455
53769W        W25298  31.761  14.549  11.181
53770W        W25299  27.934  41.146   1.140
53771W        W25300  28.109  41.374   1.577
53772W        W25301  13.435  37.435  14.782
53773W        W25302  25.785  30.357   1.300
53774W        W25303  11.103   5.815   1.883
53775W        W25304  26.448   2.818   2.130
53776W        W25305  17.448  20.268   2.822
53777W        W25306   5.364  14.721   2.815
53778W        W25307   7.627  35.033   0.807
53779W        W25308  31.926  42.755  14.468
53780W        W25309  15.176   1.792   3.109
53781W        W25310  37.192  43.995   2.306
53782W        W25311   7.873  12.705  10.797
53783W        W25312  36.559  36.428  11.892
53784W        W25313  33.948  36.739   4.056
53785W        W25314  26.744  40.829  14.002
53786W        W25315  39.347   1.746   2.062
53787W        W25316  31.002  33.667  13.340
53788W        W25317  19.641  12.412   4.850
53789W        W25318  32.782  18.589   2.725
53790W        W25319   6.941   7.139   0.879
53791W        W25320  28.852  30.190   3.696
53792W        W25321  16.110   9.297   2.205
53793W        W25322  32.824  40.552   3.857
53794W        W25323   9.133  16.783  10.928
53795W        W25324  43.011   8.934  14.518
53796W        W25325  37.410  14.829  13.861
53797W        W25326  17.199  17.504  13.435
53798W        W25327  26.677  18.655   5.031
53799W        W25328   8.155  32.040  12.906
53800W        W25329  23.731  33.336  14.056
53801W        W25330   0.563  12.462  11.951
53802W        W25331   8.386   6.250  10.832
53803W        W25332  25.884  23.174   4.921
53804W        W25333  22.381  12.812  13.361
53805W        W25334  35.538  15.738  14.390
53806W        W25335   2.856  16.270  10.781
53807W        W25336   8.106   4.228   0.024
53808W        W25337  24.754  28.394  14.835
53809W        W25338  38.096  39.276  12.628
53810W        W25339  10.776  18.190  13.923
53811W        W25340  40.852  29.195  14.408
53812W        W25341  18.688  35.008   3.292
53813W        W25342  26.651   4.927   4.090
53814W        W25343  26.879  22.666   2.937
53815W        W25344  41.847  43.805  13.587
53816W        W25345  39.252   0.646  12.533
53817W        W25346  14.878  37.074   2.364
53818W        W25347   6.629  40.468   2.413
53819W        W25348  21.617  33.590  10.652
53820W        W25349   2.820  13.247  12.961
53821W        W25350  36.162  11.581  14.451
53822W        W25351  33.021  12.652  11.921
53823W        W25352  38.494   0.948  11.411
53824W        W25353   1.751   8.343  10.772
53825W        W25354  27.437  21.779   0.231
53826W        W25355  31.504   3.725   1.195
53827W        W25356  20.568  30.425   1.432
53828W        W25357   7.154  42.466   2.334
53829W        W25358  38.005  35.826   0.080
53830W        W25359  31.625  27.550  14.970
53831W        W25360   3.391  15.074   0.369
53832W        W25361  42.355  24.189  12.127
53833W        W25362   1.230  20.593  13.906
53834W        W25363  26.578   3.151  12.577
53835W        W25364  39.413  10.615  13.871
53836W        W25365   2.252  33.203  12.031
53837W        W25366   7.321  29.096  13.943
53838W        W25367  31.219  39.372  13.461
53839W        W25368   6.494  20.607  11.264
53840W        W25369   1.670   3.343   4.864
53841W        W25370  27.229  20.845  14.345
53842W        W25371   8.743  13.709   3.627
53843W        W25372  29.458  13.146  11.432
53844W        W25373  16.721  41.046   2.235
53845W        W25374   5.381  37.526   0.634
53846W        W25375   3.004  17.643  10.735
53847W        W25376  41.991   9.770   1.378
53848W        W25377  33.317   8.361   2.893
53849W        W25378   6.907  29.304  11.416
53850W        W25379  29.795  10.419  11.541
53851W        W25380  24.519  41.836  11.121
53852W        W25381  39.193  20.286   4.356
53853W        W25382  16.823  26.152  11.489
53854W        W25383  12.904  40.102   1.836
53855W        W25384  20.680  34.344   2.567
53856W        W25385   7.088  31.040   2.387
53857W        W25386  35.560  35.886   2.451
53858W        W25387  17.636  15.807  13.062
53859W        W25388  34.593  20.048   0.385
53860W        W25389  10.665   4.729   4.168
53861W        W25390  20.127  26.515   0.288
53862W        W25391  36.300  19.602   3.734
53863W        W25392  11.047  20.762   4.237
53864W        W25393  20.333  28.500   5.553
53865W        W25394  22.155  32.092  13.768
53866W        W25395  16.052  44.545  11.158
53867W        W25396  39.782  30.206  14.797
53868W        W25397  23.261  14.743   3.867
53869W        W25398  19.645  39.512  11.488
53870W        W25399  11.780  17.138   3.641
53871W        W25400  38.314  39.125  12.095
53872W        W25401  12.926  28.164  11.692
53873W        W25402  31.551  43.878   3.774
53874W        W25403  17.638  35.397  13.315
53875W        W25404   6.222  13.320  13.664
53876W        W25405  30.124  36.279  13.874
53877W        W25406  33.015   2.281  11.550
53878W        W25407   5.432  16.285   3.299
53879W        W25408  27.142  23.236   1.631
53880W        W25409  26.652  17.212   1.897
53881W        W25410  27.663   0.739   3.234
53882W        W25411  22.184  44.931  13.290
53883W        W25412  29.620  10.665  14.323
53884W        W25413  18.731  41.643   4.140
53885W        W25414  28.208  19.539  14.936
53886W        W25415  16.697  32.694   1.184
53887W        W25416  37.852  15.794   1.389
53888W        W25417  21.006  37.289   2.757
53889W        W25418  19.893  31.836  13.282
53890W        W25419   7.343  21.095  11.937
53891W        W25420  22.180  39.055  14.348
53892W        W25421  43.234  35.487   1.833
53893W        W25422   5.176  23.487  11.143
53894W        W25423  14.971  21.731   4.206
53895W        W25424  13.234   4.280   3.624
53896W        W25425  27.066   5.138  13.157
53897W        W25426  11.524   9.304  13.001
53898W        W25427   6.029   8.234  14.633
53899W        W25428   3.734   0.580  11.480
53900W        W25429   4.503  29.232  13.511
53901W        W25430  11.804  14.775  14.024
53902W        W25431  42.272  31.888  11.941
53903W        W25432   7.814  43.746  12.369
53904W        W25433  17.702  16.742   3.072
53905W        W25434  38.289  41.804   3.266
53906W        W25435   1.007  24.438   1.358
53907W        W25436  13.255   5.306  11.624
53908W        W25437  44.467  40.843   0.061
53909W        W25438  37.598  35.055  10.697
53910W        W25439  14.284   3.723  12.354
53911W        W25440  25.908  19.962  11.574
53912W        W25441  44.771  13.622   1.792
53913W        W25442  12.670  39.894   0.126
53914W        W25443  43.214  27.618  13.425
53915W        W25444  22.530  32.317  11.692
53916W        W25445  24.460  15.744  13.028
53917W        W25446  19.601   7.172  12.945
53918W        W25447   2.880  38.287  11.567
53919W        W25448  30.332  24.126   3.170
53920W        W25449  25.999   5.749  14.934
53921W        W25450  41.987   5.782   1.551
53922W        W25451  32.512  18.034   3.356
53923W        W25452  20.976   1.304  14.467
53924W        W25453  33.598   6.382   3.927
53925W        W25454  25.011  20.028   1.872
53926W        W25455  40.580  30.630   3.124
53927W        W25456  20.322  28.396  11.467
53928W        W25457  34.123   4.735  11.672
53929W        W25458   8.386  43.802  11.088
53930W        W25459   7.702   4.923   0.823
53931W        W25460  23.462  41.562   1.365
53932W        W25461  34.934  29.049   0.065
53933W        W25462  15.872  16.692  14.473
53934W        W25463  41.692  26.432  11.219
53935W        W25464   9.720  19.157   4.069
53936W        W25465  12.663   0.008  12.388
53937W        W25466  12.257   7.626  10.654
53938W        W25467   5.341  28.023  13.163
53939W        W25468  19.700   2.867   4.092
53940W        W25469  28.646   9.377   0.335
53941W        W25470   6.483  36.936  14.121
53942W        W25471  25.679  31.315  11.164
53943W        W25472  38.563  42.946  12.638
53944W        W25473  11.048  14.564  12.747
53945W        W25474  38.578   8.244   2.166
53946W        W25475  42.949  36.986   0.989
53947W        W25476  21.111  12.321  11.128
53948W        W25477   5.972  28.382   4.778
53949W        W25478   1.219  16.823  13.864
53950W        W25479  37.646  16.282  14.883
53951W        W25480  14.172  37.082   3.632
53952W        W25481  23.558  24.001   4.169
53953W        W25482   4.055  30.429  11.000
53954W        W25483   7.593  34.596   3.839
53955W        W25484   0.102   8.180  14.803
53956W        W25485  24.605  18.315   4.222
53957W        W25486  41.691  31.985  14.403
53958W        W25487  17.789  30.596  13.813
53959W        W25488  35.368   8.300  14.440
53960W        W25489  32.411  19.349  13.875
53961W        W25490  10.119  15.034  11.655
53962W        W25491  14.625   1.957  14.157
53963W        W25492   3.461   4.876   1.214
53964W        W25493   9.895  14.318  13.329
53965W        W25494  29.010  22.003  12.430
53966W        W25495   7.291  30.548  11.784
53967W        W25496  27.692   4.192   0.063
53968W        W25497  18.086  27.832  13.758
53969W        W25498  33.160   5.468   3.678
53970W        W25499  38.023   4.459  13.860
53971W        W25500  35.351   9.711  11.141
53972W        W25501  42.871   0.490  12.050
53973W        W25502   9.756  38.038  14.073
53974W        W25503  43.064   2.377   0.993
53975W        W25504  25.765  36.062   0.424
53976W        W25505  33.529  10.364   4.576
53977W        W25506   7.272  39.763  12.137
53978W        W25507  37.687   6.222  12.020
53979W        W25508  17.617  44.650   4.766
53980W        W25509  25.436   5.798   1.792
53981W        W25510  18.335  39.393   2.865
53982W        W25511  33.440  19.018   3.299
53983W        W25512  14.755  13.162   1.986
53984W        W25513  10.175  19.267   3.804
53985W        W25514  18.846   2.814   3.324
53986W        W25515  31.121  26.963   2.718
53987W        W25516  23.291  34.781  13.780
53988W        W25517   1.343  25.562   1.186
53989W        W25518  17.822  20.465  13.107
53990W        W25519  11.856  43.246   4.179
53991W        W25520  10.166  24.193  13.722
53992W        W25521  10.795   1.711   2.330
53993W        W25522  22.550  29.259  14.344
53994W        W25523  39.529   6.658  14.478
53995W        W25524   8.123   7.409  12.191
53996W        W25525  29.604  25.602  12.771
53997W        W25526  31.563  10.317   4.432
53998W        W25527  25.434   4.147   4.493
53999W        W25528  23.344   3.783   0.500
54000W        W25529  16.692   7.847  14.525
54001W        W25530  27.245   7.607  11.872
54002W        W25531  35.163   7.015  13.007
54003W        W25532   5.809  30.414  13.424
54004W        W25533  11.243  15.761   4.836
54005W        W25534   1.939  29.055  10.736
54006W        W25535  15.566   6.699   1.457
54007W        W25536  13.353   1.525  10.817
54008W        W25537  34.635   3.720  12.931
54009W        W25538   6.720  21.469   4.298
54010W        W25539  10.301  41.319   0.922
54011W        W25540  38.622   2.386  13.252
54012W        W25541  32.124  41.341  12.111
54013W        W25542  28.645  12.213   4.655
54014W        W25543   8.212   4.580   3.692
54015W        W25544  14.315  21.433  14.459
54016W        W25545  32.501   7.365  10.761
54017W        W25546  19.961  13.353   3.862
54018W        W25547   3.313  29.888  10.499
54019W        W25548   6.926   9.433   2.255
54020W        W25549  19.704   4.188   2.303
54021W        W25550  15.701  43.018  13.959
54022W        W25551  27.276   2.866  10.713
54023W        W25552  20.232  30.391   2.803
54024W        W25553  19.148  26.032   1.777
54025W        W25554  39.057  34.464  11.030
54026W        W25555  44.045  21.190   4.053
54027W        W25556   3.248   2.705   3.347
54028W        W25557  18.317   6.647   2.838
54029W        W25558  33.549  21.391   3.322
54030W        W25559  33.287  33.249   1.268
54031W        W25560  38.892  33.723  11.144
54032W        W25561  42.722   3.752  12.045
54033W        W25562   2.580  38.236  13.590
54034W        W25563  33.872  31.458   3.371
54035W        W25564  15.348  16.253  12.787
54036W        W25565   4.904  25.644  11.603
54037W        W25566   7.398  43.887   0.730
54038W        W25567  31.496  31.395   2.291
54039W        W25568  44.900  43.351  13.426
54040W        W25569  11.337  41.303  14.465
54041W        W25570   9.383   1.732   4.631
54042W        W25571   9.808  13.501  14.849
54043W        W25572  32.988  15.554  14.886
54044W        W25573  22.466  18.574   2.379
54045W        W25574  35.930  31.900   0.430
54046W        W25575  18.581  29.652  11.867
54047W        W25576  36.846   2.073  12.881
54048W        W25577  25.932   7.380  11.092
54049W        W25578   5.889  17.198   0.694
54050W        W25579  30.468  31.909   4.058
54051W        W25580  16.176  29.113  12.653
54052W        W25581  30.882  15.770  13.384
54053W        W25582  10.430   2.751   4.180
54054W        W25583  44.904  27.435  10.544
54055W        W25584  32.985  42.999  10.423
54056W        W25585  35.454  42.602  14.621
54057W        W25586  39.660  31.603  12.485
54058W        W25587  20.085  10.899   2.281
54059W        W25588  31.498  10.305  14.873
54060W        W25589  43.967  35.995  13.623
54061W        W25590   9.286  39.081  10.663
54062W        W25591   6.194  43.380  10.375
54063W        W25592  44.577   8.532   2.020
54064W        W25593  28.673  33.970   3.629
54065W        W25594  25.078   3.642  10.768
54066W        W25595  20.258  43.782  12.141
54067W        W25596  14.767  35.990   3.950
54068W        W25597   2.868   4.532   3.513
54069W        W25598   0.718  34.612   1.380
54070W        W25599  34.039  41.845   1.257
54071W        W25600  32.347  28.721  12.370
54072W        W25601   4.210   6.789  14.863
54073W        W25602  33.967   3.534  10.992
54074W        W25603  36.623  22.379  11.624
54075W        W25604  28.996  10.315   3.754
54076W        W25605  32.472   6.298  14.443
54077W        W25606  37.488  38.561  12.624
54078W        W25607  23.038  16.421  11.607
54079W        W25608  15.577   9.129   3.981
54080W        W25609  31.618   7.285   0.684
54081W        W25610  43.589   8.837   0.422
54082W        W25611   0.729  40.443  14.430
54083W        W25612  41.216  12.654  12.060
54084W        W25613  20.765   7.620  10.642
54085W        W25614   5.698   5.367  12.022
54086W        W25615  31.555  15.772   2.656
54087W        W25616  32.895  22.012   2.754
54088W        W25617  17.085  17.372  10.644
54089W        W25618  17.527   2.832   2.815
54090W        W25619  23.208  21.594   4.155
54091W        W25620  24.624  35.131  10.592
54092W        W25621  22.264   0.533   2.788
54093W        W25622  29.404  32.399   1.149
54094W        W25623  32.254  24.152   2.725
54095W        W25624   4.497  21.981  12.041
54096W        W25625   2.580  23.241  14.574
54097W        W25626  24.703  20.002   2.285
54098W        W25627  26.749  25.069  14.252
54099W        W25628  33.067  39.558   2.937
54100W        W25629  12.761  26.181   0.208
54101W        W25630  26.148  28.669  10.380
54102W        W25631  29.167  22.116  14.786
54103W        W25632  10.042  17.140   4.141
54104W        W25633  25.978  35.184  13.547
54105W        W25634  30.092  21.128   3.671
54106W        W25635  43.138  38.127  10.719
54107W        W25636  10.846  12.833  11.602
54108W        W25637  16.007  11.089   9.770
54109W        W25638   3.822   5.486  14.998
54110W        W25639   6.842  23.965  12.131
54111W        W25640   0.446  44.372   0.994
54112W        W25641  22.308  36.875   0.793
54113W        W25642  44.407  44.252   3.178
54114W        W25643  40.836   6.437   4.557
54115W        W25644  24.993  42.946  13.806
54116W        W25645  28.865   5.158   4.641
54117W        W25646  24.880  40.022   3.601
54118W        W25647  35.097   8.408  12.016
54119W        W25648  10.876   1.009   1.715
54120W        W25649  25.511   1.680  10.116
54121W        W25650  27.700  38.920  13.036
54122W        W25651  20.486  21.790  12.684
54123W        W25652  21.561  44.051  14.849
54124W        W25653  23.518   4.372  12.524
54125W        W25654   9.229   1.466  12.841
54126W        W25655  40.399   3.661  13.785
54127W        W25656  34.480   3.972   1.022
54128W        W25657  40.283   2.409  14.385
54129W        W25658   2.919  19.639   4.094
54130W        W25659  11.324  30.699  12.424
54131W        W25660   9.589   6.202  14.526
54132W        W25661  12.962   3.872  11.153
54133W        W25662   5.487  35.067  11.596
54134W        W25663  16.702  19.803  12.471
54135W        W25664  43.481  29.206  11.274
54136W        W25665  10.646  13.956   0.790
54137W        W25666   6.842   7.859  11.206
54138W        W25667   7.183  11.352   0.931
54139W        W25668  29.732  17.134   4.656
54140W        W25669   3.870  13.295   3.184
54141W        W25670  20.042  15.200  11.577
54142W        W25671  29.289  36.814   5.171
54143W        W25672  29.626  12.136  14.009
54144W        W25673  21.484   3.845  12.760
54145W        W25674   8.786  39.626   0.497
54146W        W25675  32.442  22.623  13.547
54147W        W25676  14.523  14.474  10.308
54148W        W25677  21.265  26.149   4.229
54149W        W25678  12.296  40.277   2.838
54150W        W25679  38.730  10.351  14.455
54151W        W25680   8.326  31.806   0.407
54152W        W25681  17.905   3.335  11.092
54153W        W25682  40.630  21.795   0.720
54154W        W25683  25.965   7.755   0.907
54155W        W25684  16.689  34.719  11.189
54156W        W25685  42.618  40.865  12.303
54157W        W25686  36.805  40.049  10.220
54158W        W25687  18.722  23.354   2.892
54159W        W25688  34.900  20.329   4.036
54160W        W25689   6.277  28.010   4.999
54161W        W25690  19.263  41.698  12.526
54162W        W25691  22.641  17.005   1.570
54163W        W25692  12.207  41.098   4.070
54164W        W25693  33.291   8.234   2.395
54165W        W25694  20.475  25.018  10.655
54166W        W25695  42.244  19.614  11.088
54167W        W25696  15.424  21.787  13.926
54168W        W25697   7.858  35.447   3.789
54169W        W25698  16.926  28.626   3.058
54170W        W25699  37.379   0.322  14.842
54171W        W25700  33.943   1.200  10.735
54172W        W25701   9.242  23.262   0.762
54173W        W25702  28.179  20.271  12.845
54174W        W25703   1.863  10.049   2.095
54175W        W25704  39.073  35.882   0.603
54176W        W25705  34.819  20.286   0.809
54177W        W25706   2.926  20.174   0.165
54178W        W25707  23.181  20.873  13.221
54179W        W25708  24.206  39.989  11.274
54180W        W25709  18.478   4.078   2.860
54181W        W25710  11.218   3.634  12.848
54182W        W25711  15.370  18.499   2.301
54183W        W25712   3.803  31.057   1.167
54184W        W25713  33.997  29.047   2.194
54185W        W25714  37.465  44.738   3.625
54186W        W25715  16.705  41.975  13.858
54187W        W25716  19.495  18.609  14.420
54188W        W25717  36.976   6.624   0.375
54189W        W25718  19.058  26.825  13.361
54190W        W25719  11.355   7.446  11.879
54191W        W25720   8.205   7.790   1.305
54192W        W25721  31.242  27.262   5.009
54193W        W25722  18.483  22.445  11.432
54194W        W25723  14.601  17.138  14.925
54195W        W25724  37.988  31.911   3.823
54196W        W25725  42.960  43.518  13.722
54197W        W25726  10.801  42.942  14.801
54198W        W25727  28.045   8.090  11.098
54199W        W25728   4.530  36.374   2.253
54200W        W25729  21.115  41.047   5.007
54201W        W25730  28.037  22.584  14.362
54202W        W25731   4.955  30.388   4.521
54203W        W25732  32.062  30.419  14.011
54204W        W25733  34.996  38.876  12.560
54205W        W25734  13.233  22.114   2.784
54206W        W25735  18.599  14.617  11.075
54207W        W25736  28.144  25.516   3.630
54208W        W25737  30.439  22.243   2.702
54209W        W25738  24.196  14.167   3.391
54210W        W25739  12.156  17.067  13.836
54211W        W25740  37.909   2.742  14.729
54212W        W25741  23.165   0.032   1.781
54213W        W25742  16.522  38.154  10.971
54214W        W25743  29.043  18.600  14.403
54215W        W25744  39.510  17.177   4.146
54216W        W25745  30.085  35.027   2.192
54217W        W25746  41.294  44.721   4.334
54218W        W25747   9.775   1.383  12.707
54219W        W25748  23.768   6.123  13.568
54220W        W25749  31.508  11.063   0.754
54221W        W25750  17.543   0.263  11.142
54222W        W25751  27.769  35.023  11.482
54223W        W25752  42.556  38.420   0.749
54224W        W25753  34.863  28.510  10.510
54225W        W25754  44.942  32.678  13.888
54226W        W25755  22.488  25.658   0.367
54227W        W25756  40.230  34.920  10.526
54228W        W25757  36.143  19.945  11.865
54229W        W25758  19.594  25.345   5.125
54230W        W25759  32.894   2.579  14.727
54231W        W25760  13.602  35.917  12.454
54232W        W25761  12.802  19.559   0.776
54233W        W25762  39.402  44.869   4.237
54234W        W25763  12.345  28.210  13.323
54235W        W25764  34.619  27.956  12.113
54236W        W25765  39.614  44.540   1.902
54237W        W25766  36.885  43.985   2.719
54238W        W25767  25.137  24.102  13.211
54239W        W25768  30.624  42.938   3.817
54240W        W25769  18.220  24.040   1.222
54241W        W25770  10.618   7.685  12.805
54242W        W25771  18.635  21.980  10.587
54243W        W25772  42.391   7.171   4.392
54244W        W25773  23.396   7.331   0.345
54245W        W25774  32.188  34.215  13.552
54246W        W25775  16.253  28.159  14.766
54247W        W25776  34.542  42.359   1.923
54248W        W25777   0.051  37.493   3.098
54249W        W25778   9.830  31.893  11.925
54250W        W25779  29.150  34.984   0.883
54251W        W25780  29.953  27.746  11.139
54252W        W25781  21.568  38.666  12.845
54253W        W25782  21.616   5.252   3.682
54254W        W25783  14.651  26.031  11.069
54255W        W25784  14.935   4.488   0.982
54256W        W25785   0.894  34.672   0.776
54257W        W25786  37.867  13.163   0.383
54258W        W25787   5.747  38.445  10.852
54259W        W25788  20.338   1.837   2.723
54260W        W25789  39.768  19.210  12.012
54261W        W25790  27.650  33.595   3.720
54262W        W25791   2.302  23.559  11.072
54263W        W25792  19.137  40.682  13.957
54264W        W25793  31.032  16.783   1.004
54265W        W25794  23.204  17.782  11.609
54266W        W25795  31.552   8.683   1.155
54267W        W25796  27.491  13.616   9.464
54268W        W25797  21.200  10.389   1.857
54269W        W25798  23.688   7.831  12.930
54270W        W25799  11.905  18.168  11.260
54271W        W25800  12.414  26.555   1.984
54272W        W25801  29.250   0.266   2.695
54273W        W25802  19.681  25.011  14.368
54274W        W25803  34.933   8.406   3.709
54275W        W25804  33.980  24.579  12.855
54276W        W25805  16.587  13.737  13.569
54277W        W25806  37.085  26.099  12.450
54278W        W25807  44.052  36.360  10.738
54279W        W25808  11.346   2.466   5.337
54280W        W25809  37.380   2.278   3.452
54281W        W25810  16.186  27.053   3.347
54282W        W25811  21.489  15.791   1.721
54283W        W25812  10.114  37.134   0.424
54284W        W25813  20.387  18.250   3.158
54285W        W25814   9.161  42.715  13.658
54286W        W25815  22.680   3.960  12.903
54287W        W25816  22.661  31.734   0.738
54288W        W25817  38.873   7.857   1.877
54289W        W25818  42.821  20.683  12.761
54290W        W25819  12.236  43.203  12.550
54291W        W25820  14.800  29.015  12.374
54292W        W25821  24.773   8.652  12.937
54293W        W25822   8.766  11.316  10.704
54294W        W25823  38.990  32.365   4.648
54295W        W25824  43.338  29.470  13.501
54296W        W25825  31.651   7.672  12.154
54297W        W25826  27.465   4.917  13.401
54298W        W25827  17.083  39.468   4.844
54299W        W25828  26.728  28.025   4.541
54300W        W25829  24.133  13.216   0.966
54301W        W25830  25.713  13.731  11.077
54302W        W25831  32.946  27.438   1.284
54303W        W25832  15.851  27.242  12.479
54304W        W25833   4.337  35.489  11.139
54305W        W25834  29.411  22.663   1.242
54306W        W25835  43.905  20.535  14.920
54307W        W25836   0.046  22.866   3.755
54308W        W25837  29.184  41.426   1.419
54309W        W25838  28.922   2.682   3.208
54310W        W25839  30.506  10.258  13.398
54311W        W25840   4.253  41.992   0.771
54312W        W25841   9.816  24.977   2.202
54313W        W25842  31.968  14.712  12.371
54314W        W25843   1.415  43.033  12.891
54315W        W25844  11.570  35.937   0.799
54316W        W25845  44.417  33.203   2.790
54317W        W25846   5.115  15.270  14.945
54318W        W25847  15.705  26.403   0.326
54319W        W25848  34.006  31.591   3.876
54320W        W25849  12.801  13.731  14.432
54321W        W25850  44.338  12.910  14.841
54322W        W25851   0.765  39.140   0.075
54323W        W25852  40.645  34.433   4.114
54324W        W25853  11.707  43.798   2.411
54325W        W25854  20.834  29.760   3.268
54326W        W25855  12.539  15.766   2.964
54327W        W25856  24.066  43.849  10.789
54328W        W25857  31.210  35.599  14.369
54329W        W25858  24.535  24.431  12.074
54330W        W25859   5.344  11.663   0.903
54331W        W25860  40.895  29.525  14.841
54332W        W25861  23.920  12.621  13.195
54333W        W25862  40.713   3.281  10.304
54334W        W25863  22.154  34.469  10.755
54335W        W25864  39.831  22.070  13.313
54336W        W25865  40.417  25.672   3.679
54337W        W25866  34.430  32.650  10.492
54338W        W25867  15.150  27.505   3.907
54339W        W25868   3.886   9.337  14.563
54340W        W25869  28.998  42.701   0.884
54341W        W25870  10.684  31.259  12.294
54342W        W25871   7.721  25.577  12.509
54343W        W25872  40.849   2.905   4.165
54344W        W25873  24.974  16.644   2.337
54345W        W25874  16.652   9.397   2.468
54346W        W25875  28.174  16.233  12.825
54347W        W25876  41.685  18.499  10.670
54348W        W25877  42.704  35.485  12.172
54349W        W25878  37.997  38.510  11.495
54350W        W25879  24.621  37.920   0.538
54351W        W25880  12.158  37.160   1.062
54352W        W25881   1.865   5.665  13.293
54353W        W25882  34.677   4.030   0.555
54354W        W25883  10.862  10.796   1.696
54355W        W25884  38.827  28.555   2.293
54356W        W25885  43.870  41.123   3.707
54357W        W25886  11.704  44.317   2.326
54358W        W25887  33.751  20.208   2.650
54359W        W25888   0.931  14.383  13.321
54360W        W25889   5.554  16.115  12.509
54361W        W25890  24.397  36.648   2.811
54362W        W25891  21.687  29.891  11.184
54363W        W25892   5.856  23.457  10.826
54364W        W25893   8.317  33.042  10.829
54365W        W25894  29.568   6.684   2.794
54366W        W25895   1.904  23.047  12.416
54367W        W25896  22.972  27.095   3.903
54368W        W25897  17.755  18.516   0.867
54369W        W25898   1.713   4.459   1.037
54370W        W25899  34.556   5.411  12.085
54371W        W25900  41.921  39.797  11.596
54372W        W25901  24.024  17.279  11.918
54373W        W25902  20.078  38.699  11.052
54374W        W25903   5.752  17.720   3.343
54375W        W25904   5.929  41.410   0.515
54376W        W25905  23.044  34.440   0.826
54377W        W25906   8.723  22.154   4.330
54378W        W25907  35.657  36.749   1.292
54379W        W25908  29.222   7.205  12.023
54380W        W25909   9.547  16.267   2.154
54381W        W25910  19.235  39.555   3.200
54382W        W25911  30.359  11.089  13.294
54383W        W25912  14.360  21.088  13.494
54384W        W25913  30.151  26.124  12.560
54385W        W25914  43.439  41.026  14.278
54386W        W25915  17.910   1.239  14.993
54387W        W25916   6.223   1.243  12.808
54388W        W25917   3.209   3.963   0.857
54389W        W25918  39.476  27.419   1.424
54390W        W25919  38.821  34.871  10.811
54391W        W25920  31.095  42.410   1.272
54392W        W25921  10.856  44.361   0.350
54393W        W25922  20.347  39.951   0.853
54394W        W25923  39.526   0.738   4.622
54395W        W25924  20.218   9.422  10.564
54396W        W25925  30.460  35.728  13.298
54397W        W25926  22.418   2.664   1.441
54398W        W25927   0.555  28.925   4.484
54399W        W25928  44.254  11.424  10.556
54400W        W25929  29.450  40.802  12.028
54401W        W25930  22.600  44.890   4.141
54402W        W25931  31.742  44.898  14.074
54403W        W25932  17.969  43.847   4.642
54404W        W25933  28.403  41.717  13.549
54405W        W25934  43.948  34.597   1.425
54406W        W25935  39.506  42.585  11.138
54407W        W25936  15.380  16.193  10.948
54408W        W25937  18.307   5.937  14.658
54409W        W25938  23.875   8.494   2.744
54410W        W25939  42.108  29.390   4.658
54411W        W25940  21.605  26.137  14.424
54412W        W25941  25.147  35.592  13.921
54413W        W25942   9.382  17.272  11.111
54414W        W25943  32.437  25.509   3.647
54415W        W25944  30.325   1.792  11.837
54416W        W25945   9.689  10.552  11.021
54417W        W25946  28.650  18.012  11.174
54418W        W25947  12.394  15.215  14.537
54419W        W25948  28.137   0.835  14.297
54420W        W25949  33.519   3.890  14.881
54421W        W25950  43.920  39.291  14.388
54422W        W25951   6.698  30.563   4.634
54423W        W25952   8.066  43.610   1.682
54424W        W25953  37.408  23.043   0.467
54425W        W25954  30.085  42.401   2.278
54426W        W25955   8.826  24.026  12.490
54427W        W25956  33.902  17.713  14.301
54428W        W25957  44.625  10.675   2.689
54429W        W25958  32.494   5.182  12.561
54430W        W25959  21.050  34.770  13.748
54431W        W25960  21.018  36.921  14.457
54432W        W25961  30.511  12.337   3.099
54433W        W25962  35.943   3.925  11.455
54434W        W25963  19.441  13.288   0.095
54435W        W25964  20.105  31.101   0.960
54436W        W25965   7.330  43.892  14.819
54437W        W25966  32.455  32.394  13.389
54438W        W25967  19.232   1.299  13.011
54439W        W25968   0.204  37.548   4.310
54440W        W25969  42.565  16.752  11.633
54441W        W25970  32.718  14.544  11.376
54442W        W25971  19.329  42.791   4.652
54443W        W25972  26.725  24.651   0.792
54444W        W25973  22.028  21.640  14.947
54445W        W25974  30.980  40.609  13.974
54446W        W25975  18.549  20.682  12.485
54447W        W25976   1.399  21.076  13.870
54448W        W25977  14.874   5.645   0.932
54449W        W25978  37.860  28.663  11.482
54450W        W25979  34.567  41.313  11.940
54451W        W25980   8.424  38.033   4.686
54452W        W25981   0.326  42.383  12.718
54453W        W25982  39.920  16.259   1.881
54454W        W25983  37.339  39.388   4.766
54455W        W25984   1.863   0.514  11.087
54456W        W25985   3.047  41.332  11.703
54457W        W25986  28.895  24.465   2.654
54458W        W25987   7.417  43.525  14.034
54459W        W25988   6.078  41.863   0.793
54460W        W25989  39.248   5.254   2.708
54461W        W25990  31.060  21.206  13.493
54462W        W25991   4.078  38.971   1.731
54463W        W25992  18.184  40.506  11.382
54464W        W25993  15.646  30.021   2.584
54465W        W25994  32.764   2.102   3.606
54466W        W25995   5.416  24.627   4.329
54467W        W25996   2.685  14.621  11.849
54468W        W25997  39.974  24.180   2.718
54469W        W25998  35.564  28.333   4.251
54470W        W25999  19.457  40.368   0.837
54471W        W26000  14.872  17.178  13.952
54472W        W26001  37.523  27.030   0.786
54473W        W26002  13.156  11.772  13.395
54474W        W26003  37.537  33.760   2.131
54475W        W26004   5.772  15.203  10.733
54476W        W26005  42.517   3.458   1.407
54477W        W26006   4.960  19.695  14.435
54478W        W26007  25.458   1.450  13.707
54479W        W26008  40.928  41.277   0.195
54480W        W26009  44.697  23.464   2.222
54481W        W26010  23.098  32.499  10.977
54482W        W26011   9.693  11.920   1.914
54483W        W26012  38.484  41.245  13.897
54484W        W26013  44.975  41.542   2.832
54485W        W26014  34.001  16.122   2.497
54486W        W26015  42.028  33.823   3.467
54487W        W26016  25.097  18.024  11.546
54488W        W26017  31.425  38.409  11.894
54489W        W26018   0.732  35.308  14.024
54490W        W26019  40.090   8.320  10.928
54491W        W26020   2.961  18.568  13.661
54492W        W26021  36.301  18.142   5.054
54493W        W26022  38.820  22.004  11.066
54494W        W26023  41.544  30.487   4.252
54495W        W26024  20.699  31.731   0.992
54496W        W26025  40.036  20.759   1.772
54497W        W26026  19.471  34.562   3.196
54498W        W26027  43.247  43.927  12.112
54499W        W26028  18.922  29.299  12.023
54500W        W26029   0.893  39.729  11.169
54501W        W26030  26.758  33.935   3.401
54502W        W26031  37.882  17.989  11.665
54503W        W26032   6.574   9.343  11.101
54504W        W26033   5.907  13.897  12.586
54505W        W26034  24.156  10.115   0.198
54506W        W26035  21.551   3.846  14.705
54507W        W26036  40.253  23.288   4.860
54508W        W26037  10.582  20.544  14.674
54509W        W26038  33.976  43.505   3.060
54510W        W26039  29.384  26.088   0.373
54511W        W26040  13.108  12.088   4.138
54512W        W26041   9.345  10.338   2.846
54513W        W26042  29.155  20.294  12.902
54514W        W26043  26.464  29.091   2.874
54515W        W26044  23.976  29.676   2.380
54516W        W26045   9.378  10.773   4.191
54517W        W26046  32.004   2.484   3.324
54518W        W26047  44.567  10.124  11.590
54519W        W26048  32.653  12.199  13.259
54520W        W26049  41.047   2.878   0.207
54521W        W26050   7.517  12.854   2.677
54522W        W26051  44.290   6.124  10.732
54523W        W26052   7.418  38.839   1.774
54524W        W26053  16.324   5.167  12.254
54525W        W26054  20.949  20.754   3.804
54526W        W26055  44.218   3.165   5.426
54527W        W26056  35.942  24.768   0.393
54528W        W26057  25.439  11.776  13.264
54529W        W26058  34.512   4.680  13.947
54530W        W26059   1.099   7.137  12.542
54531W        W26060  34.904   3.725   3.791
54532W        W26061  26.586  10.138  14.212
54533W        W26062  18.782  25.758  13.467
54534W        W26063  27.025  26.434   0.216
54535W        W26064  10.053   5.778   4.461
54536W        W26065  17.665   1.307  11.096
54537W        W26066  23.820   4.839   5.026
54538W        W26067  35.455  26.393   1.718
54539W        W26068  34.385  19.556  10.693
54540W        W26069  43.827  26.455   2.185
54541W        W26070   2.978   8.810   4.545
54542W        W26071  25.490   0.462   1.765
54543W        W26072   3.315  18.145  12.458
54544W        W26073  28.435  33.620   2.628
54545W        W26074  16.518  43.780   0.115
54546W        W26075   3.394  13.113  14.502
54547W        W26076  28.834  31.553  11.099
54548W        W26077   9.545   6.320   1.439
54549W        W26078   4.180  33.643   3.319
54550W        W26079  32.179  17.290   4.695
54551W        W26080  37.905  41.883   2.915
54552W        W26081  33.794   3.402   4.580
54553W        W26082   1.085   3.515   2.835
54554W        W26083  41.109  25.858   2.651
54555W        W26084  17.250  18.382  13.164
54556W        W26085   3.475  26.062  14.785
54557W        W26086  21.162   4.245   1.923
54558W        W26087   9.028  11.662  13.549
54559W        W26088   1.861   1.104   1.313
54560W        W26089   3.790  23.102   1.267
54561W        W26090  36.373  15.477  11.249
54562W        W26091   3.264  26.197   3.654
54563W        W26092   0.296   8.664  12.867
54564W        W26093  31.384  20.606  11.485
54565W        W26094   2.327  34.607   3.776
54566W        W26095  14.058  11.060   3.304
54567W        W26096  15.416  30.135  10.701
54568W        W26097  30.073  18.047   4.862
54569W        W26098   3.915  30.966   2.548
54570W        W26099  11.115  43.595  11.898
54571W        W26100  36.023  17.296   4.564
54572W        W26101  27.990  44.493  12.455
54573W        W26102  33.032   4.939   3.203
54574W        W26103  31.650   6.148   3.431
54575W        W26104  29.579   6.351  10.544
54576W        W26105  32.818  17.617   4.537
54577W        W26106  20.933  18.139  11.578
54578W        W26107  14.380  31.100   2.952
54579W        W26108  40.009  37.161   1.903
54580W        W26109   7.199  40.378  13.542
54581W        W26110  33.003  24.896  12.531
54582W        W26111  18.267  41.728  10.735
54583W        W26112  31.462   7.652   2.878
54584W        W26113  17.106  18.077   9.950
54585W        W26114  18.045  20.288  12.378
54586W        W26115  18.335  24.671  14.467
54587W        W26116  15.786  29.165  13.019
54588W        W26117  30.346  42.546  14.758
54589W        W26118  13.401   4.756   3.680
54590W        W26119   0.975  30.450   3.727
54591W        W26120   8.341  29.514  11.185
54592W        W26121  21.889  12.243   4.057
54593W        W26122  14.187   7.989  11.707
54594W        W26123  25.470  24.193   0.819
54595W        W26124  37.128   3.864  14.536
54596W        W26125  25.152  37.472   4.622
54597W        W26126  37.496   3.993  10.537
54598W        W26127  13.828  36.980  13.843
54599W        W26128   4.700  40.823  13.389
54600W        W26129  22.039  43.752  13.823
54601W        W26130  24.698  19.810  13.401
54602W        W26131   7.808  18.946   2.234
54603W        W26132  36.886  15.441   1.467
54604W        W26133  16.190   2.494  12.960
54605W        W26134  40.233  16.713   3.118
54606W        W26135  23.996  20.513   0.998
54607W        W26136  25.450  33.488   2.439
54608W        W26137   1.665  10.260   1.661
54609W        W26138  44.230  37.136   5.011
54610W        W26139  18.799  12.707  10.790
54611W        W26140  35.688  27.898  13.416
54612W        W26141   5.244  18.122  11.749
54613W        W26142   8.904  36.614   3.740
54614W        W26143   9.868  10.289   2.203
54615W        W26144   1.859   7.688   4.125
54616W        W26145   6.484   2.876  12.819
54617W        W26146  19.630  37.964  13.357
54618W        W26147   6.907  17.123  11.401
54619W        W26148  43.347  23.137   4.746
54620W        W26149  31.437   0.350   3.420
54621W        W26150   9.615  16.606   0.975
54622W        W26151  41.852  26.845   4.687
54623W        W26152  13.731   3.348   1.275
54624W        W26153  42.202  15.649   4.160
54625W        W26154  33.328  31.675   2.113
54626W        W26155   3.622  33.516   4.261
54627W        W26156  38.139   1.223   2.450
54628W        W26157  22.927  43.461   1.314
54629W        W26158  14.168  10.926   0.098
54630W        W26159  18.199  32.602  11.508
54631W        W26160  35.068   5.923  11.507
54632W        W26161  39.848  32.577   0.417
54633W        W26162  16.765  44.403   4.313
54634W        W26163  29.065   6.354   2.684
54635W        W26164  12.875  27.565   3.851
54636W        W26165  42.806  20.224   0.921
54637W        W26166  21.545   3.358  14.934
54638W        W26167   5.215  21.664  12.106
54639W        W26168  23.162  29.132   3.104
54640W        W26169   0.484  17.702   3.245
54641W        W26170   2.149  13.107   1.356
54642W        W26171   5.050  16.227  12.571
54643W        W26172  43.075  23.152  14.935
54644W        W26173  15.120  34.763  14.897
54645W        W26174  23.168  10.532  10.250
54646W        W26175  41.879   3.758  13.884
54647W        W26176  24.555  24.719  11.030
54648W        W26177  12.463  16.152   4.953
54649W        W26178  17.248  22.937   2.679
54650W        W26179  26.675  38.343  14.325
54651W        W26180  39.549  22.205  14.996
54652W        W26181  25.948  36.568  14.253
54653W        W26182  11.256  21.949  12.980
54654W        W26183  36.359  34.962  12.574
54655W        W26184   8.753  15.151  13.668
54656W        W26185  36.047  32.820   1.974
54657W        W26186  14.312  30.013  14.359
54658W        W26187  39.082  42.071  12.435
54659W        W26188  15.693  11.929  14.923
54660W        W26189  30.052   6.400  10.765
54661W        W26190  14.052  44.341   0.523
54662W        W26191   0.787  11.709  13.856
54663W        W26192  36.318  10.642   2.219
54664W        W26193  20.231   2.405   4.125
54665W        W26194  20.512  40.401  13.349
54666W        W26195  41.280  14.692   4.397
54667W        W26196  41.455  39.772  11.344
54668W        W26197  24.235  33.073  11.005
54669W        W26198  43.221  18.480   0.942
54670W        W26199   5.095  29.115   2.187
54671W        W26200  41.181  38.570  10.732
54672W        W26201  32.258  28.491  12.867
54673W        W26202   6.030  40.410  11.114
54674W        W26203  38.490  44.645  11.364
54675W        W26204  28.477  25.931   3.617
54676W        W26205   8.246  37.799   4.260
54677W        W26206  20.446  17.092   3.167
54678W        W26207  24.192  11.395   0.851
54679W        W26208  26.928   0.908   1.213
54680W        W26209  38.831   9.372  14.100
54681W        W26210   5.802   8.171  10.465
54682W        W26211  42.451  40.976  11.844
54683W        W26212  33.446  20.214  12.971
54684W        W26213  38.909   6.085   2.526
54685W        W26214  43.851  23.123   0.447
54686W        W26215  31.614  39.351   2.745
54687W        W26216  31.392   8.342  12.787
54688W        W26217  40.359  15.623  11.090
54689W        W26218  28.037  11.370  11.823
54690W        W26219  16.264  33.402   3.355
54691W        W26220  23.791  19.087  13.912
54692W        W26221  26.111  14.664   1.797
54693W        W26222  25.087  13.625   2.790
54694W        W26223  24.729   8.857   5.197
54695W        W26224  40.450  12.794   1.818
54696W        W26225  41.986  15.080   0.738
54697W        W26226  10.723   3.475   3.562
54698W        W26227  37.318  15.813  13.989
54699W        W26228  35.028  34.410   4.722
54700W        W26229  12.028   6.697  11.938
54701W        W26230  17.139  21.197  14.592
54702W        W26231  36.855  28.597   1.292
54703W        W26232  32.876   5.697   1.240
54704W        W26233  10.831   4.898   1.783
54705W        W26234  29.014  34.358   3.555
54706W        W26235  17.648  13.953  12.922
54707W        W26236  15.235  23.208  12.031
54708W        W26237  26.183   4.753  11.597
54709W        W26238   5.682   4.286   3.673
54710W        W26239   8.630   5.769   4.848
54711W        W26240  12.715  40.875  11.600
54712W        W26241  25.271  28.593   0.982
54713W        W26242   6.863   0.885   3.842
54714W        W26243   7.656  18.701   0.132
54715W        W26244   7.988  43.409   0.323
54716W        W26245  34.466  42.443   0.747
54717W        W26246  28.572  10.178  14.045
54718W        W26247  19.136  37.142   4.894
54719W        W26248  15.544   9.869  12.702
54720W        W26249  26.676  11.668  11.078
54721W        W26250  27.515  35.274  13.925
54722W        W26251  40.719  19.029   2.747
54723W        W26252  21.347  39.994   1.816
54724W        W26253  25.887  43.076   2.809
54725W        W26254   6.849   5.893   1.258
54726W        W26255   8.774  23.915   1.298
54727W        W26256  40.443  28.614  13.298
54728W        W26257  33.394  29.899  10.292
54729W        W26258  27.642  10.281  12.555
54730W        W26259   9.397  31.028  14.498
54731W        W26260  37.198  15.194   1.972
54732W        W26261  23.635  13.561  12.465
54733W        W26262   1.255  11.134   3.243
54734W        W26263  37.781  12.702  11.606
54735W        W26264  42.984  34.156   3.601
54736W        W26265  30.922  23.282   3.374
54737W        W26266  38.818   8.991  11.983
54738W        W26267  39.696  21.005  11.059
54739W        W26268   2.275   1.732  12.976
54740W        W26269  12.797  14.916  11.190
54741W        W26270  22.026  26.988   2.652
54742W        W26271  33.431   7.964   1.323
54743W        W26272  25.035  32.494   3.767
54744W        W26273  22.614  23.276   4.624
54745W        W26274  30.715  29.132   0.009
54746W        W26275  19.331  34.209  14.338
54747W        W26276  30.987  39.534   1.303
54748W        W26277  38.407  33.624   1.715
54749W        W26278   1.737  20.610  12.391
54750W        W26279  21.017  33.474  14.467
54751W        W26280  22.077  41.541  14.361
54752W        W26281  36.815   2.855   1.206
54753W        W26282  34.899  32.510   1.800
54754W        W26283  14.391  39.320  11.780
54755W        W26284  26.112  13.667   2.664
54756W        W26285  36.190  32.630   2.441
54757W        W26286  11.412  26.650   0.434
54758W        W26287  15.997   0.573  11.096
54759W        W26288   2.123   5.331  14.065
54760W        W26289  44.455  30.039   3.344
54761W        W26290  25.774   3.383   4.260
54762W        W26291  30.119  26.819  14.177
54763W        W26292  41.683  23.122   0.917
54764W        W26293  33.912  17.328   1.109
54765W        W26294  28.466  41.814   4.701
54766W        W26295   3.253  31.892   2.201
54767W        W26296  38.588   1.417  11.596
54768W        W26297  36.837  27.290  10.807
54769W        W26298  43.067  39.372   2.206
54770W        W26299  40.713  41.903   2.377
54771W        W26300  26.525   3.636   0.596
54772W        W26301  24.628  19.251  11.328
54773W        W26302  34.357  20.164  14.211
54774W        W26303  44.942   7.018   0.971
54775W        W26304  11.197  12.898  13.869
54776W        W26305   6.347  25.101   0.872
54777W        W26306   4.189  28.966   2.753
54778W        W26307   4.890   2.196   4.399
54779W        W26308   2.309  12.696   4.187
54780W        W26309  31.713  25.119   4.471
54781W        W26310   0.757  41.464   4.568
54782W        W26311   7.198  16.325   0.295
54783W        W26312  11.309  30.464   4.529
54784W        W26313  36.772  17.609   4.535
54785W        W26314  35.141  33.057   4.838
54786W        W26315  26.026   2.775  11.454
54787W        W26316  36.471   1.530  12.601
54788W        W26317  42.797  27.781   0.113
54789W        W26318  34.955  19.108   3.317
54790W        W26319  30.148  23.701   3.405
54791W        W26320   9.476  19.239  10.259
54792W        W26321   4.851   0.997  13.888
54793W        W26322  18.279  32.586   3.200
54794W        W26323  42.200  42.366   3.180
54795W        W26324  16.538   0.431  13.405
54796W        W26325  17.535  28.960   1.803
54797W        W26326   2.719  30.617   1.688
54798W        W26327  14.744  26.773   4.827
54799W        W26328  27.072   3.446  11.507
54800W        W26329  16.103  14.635   3.574
54801W        W26330   3.230   0.734  11.434
54802W        W26331  10.375  11.799   1.210
54803W        W26332   1.366  37.935  14.979
54804W        W26333  13.825  10.664   0.572
54805W        W26334  11.131  36.469  11.168
54806W        W26335  27.290  25.361  13.029
54807W        W26336  23.901  36.527   2.866
54808W        W26337   5.362  21.597   3.980
54809W        W26338   2.383  44.592   4.562
54810W        W26339  24.499  39.944   0.364
54811W        W26340  23.644  16.011  13.969
54812W        W26341   9.120   8.858   4.138
54813W        W26342  29.430  11.927   3.324
54814W        W26343  33.560  23.949  14.921
54815W        W26344   3.454  33.404  12.485
54816W        W26345   1.820  17.669   3.716
54817W        W26346  41.374  34.371   0.410
54818W        W26347  34.241   8.885  11.860
54819W        W26348   2.459   3.945   3.351
54820W        W26349   7.243  27.464  10.612
54821W        W26350   3.915   3.958   4.154
54822W        W26351  38.033  24.906  13.475
54823W        W26352   8.907  16.545   3.776
54824W        W26353  14.062  32.797   4.301
54825W        W26354  32.115  27.204  13.629
54826W        W26355  13.768  19.239   4.319
54827W        W26356  38.651  28.633  12.422
54828W        W26357  32.073  11.383  12.984
54829W        W26358  35.036  32.981   1.976
54830W        W26359  39.351   3.428  11.953
54831W        W26360  35.875   2.864   2.349
54832W        W26361  24.613   7.950  10.851
54833W        W26362   7.238   1.616  13.732
54834W        W26363   2.840  18.252   4.734
54835W        W26364   6.841  23.083  13.619
54836W        W26365   8.320  28.235   0.225
54837W        W26366   4.595  22.818  13.876
54838W        W26367  28.942   0.491  11.142
54839W        W26368  32.861  25.480  13.356
54840W        W26369  32.389  35.512  14.931
54841W        W26370  42.002   3.905  10.392
54842W        W26371  39.567  34.444  11.037
54843W        W26372  40.405  17.531  12.148
54844W        W26373   2.708  24.031  11.156
54845W        W26374  21.716  16.510   4.701
54846W        W26375  25.121  12.641  10.895
54847W        W26376  34.221  32.381  13.481
54848W        W26377  38.162  11.106  11.126
54849W        W26378  16.745  21.688  14.274
54850W        W26379  30.302   5.726  13.839
54851W        W26380   9.474  27.563  11.303
54852W        W26381  19.659  42.085  10.814
54853W        W26382  24.568  14.900   2.468
54854W        W26383  11.381  38.416  11.121
54855W        W26384   3.952   6.774   2.600
54856W        W26385  11.157  26.958   2.626
54857W        W26386  23.456  12.099   2.883
54858W        W26387  18.224  23.624  14.898
54859W        W26388  39.350   1.858  12.015
54860W        W26389  40.496  37.790  12.439
54861W        W26390  26.703   1.732  14.652
54862W        W26391  13.631  14.880   3.757
54863W        W26392   9.725  28.003   4.232
54864W        W26393  42.831  38.311   4.488
54865W        W26394  14.914  40.059   1.814
54866W        W26395   3.808   4.898   4.093
54867W        W26396  41.397  21.258  14.930
54868W        W26397   6.816  12.688  13.800
54869W        W26398  32.845  13.323   4.147
54870W        W26399  30.423  31.579   1.305
54871W        W26400  22.429   8.196   1.305
54872W        W26401  36.482  23.968  10.410
54873W        W26402  26.112   9.916  14.973
54874W        W26403  19.566   8.331  14.488
54875W        W26404  40.405   1.851   1.222
54876W        W26405  13.469  15.298   1.664
54877W        W26406  17.039   0.294  13.463
54878W        W26407  27.364  32.878   4.893
54879W        W26408  20.195  12.179   4.234
54880W        W26409   7.345  16.570   3.891
54881W        W26410  29.970  25.478   1.179
54882W        W26411  40.788  21.013   4.454
54883W        W26412  24.616   4.642   0.226
54884W        W26413  34.365   4.357  12.955
54885W        W26414  14.855  10.825   2.333
54886W        W26415  22.912  23.122  11.051
54887W        W26416  32.046  19.123   1.918
54888W        W26417  34.095  14.497   2.087
54889W        W26418  31.501   0.900  14.862
54890W        W26419  12.772  30.930   0.886
54891W        W26420  28.611   9.273   2.847
54892W        W26421  20.733  35.421   2.667
54893W        W26422  12.672  34.089  11.383
54894W        W26423   2.310  12.484  14.112
54895W        W26424  11.334  36.596  14.837
54896W        W26425  17.523  24.000  12.364
54897W        W26426  39.263  24.740  13.829
54898W        W26427  13.539  11.702   2.886
54899W        W26428  17.819  13.803   2.934
54900W        W26429   0.241  22.344  12.033
54901W        W26430  26.065   8.341  13.464
54902W        W26431  22.579   7.100  12.051
54903W        W26432  14.221  34.471   0.533
54904W        W26433   1.342  10.931   3.723
54905W        W26434  14.041   0.091  10.958
54906W        W26435  23.363  10.742   1.672
54907W        W26436  20.982  15.153  12.978
54908W        W26437  41.284  22.219   4.334
54909W        W26438  44.632  29.540   3.278
54910W        W26439   8.844   4.698  10.780
54911W        W26440  17.429  25.986  12.082
54912W        W26441  36.390   6.164   1.560
54913W        W26442  29.478  19.184  11.118
54914W        W26443  41.520   5.569   1.694
54915W        W26444  31.940  43.777   0.249
54916W        W26445   1.763  17.317  14.246
54917W        W26446  10.835  23.789   4.813
54918W        W26447  28.589  26.589  11.140
54919W        W26448   8.913   7.730  13.368
54920W        W26449   5.217  20.708   2.774
54921W        W26450  40.773   9.150   0.793
54922W        W26451  38.797  16.283  13.939
54923W        W26452  16.791  19.657   4.467
54924W        W26453  12.351  12.286   2.764
54925W        W26454  37.084  37.342   1.978
54926W        W26455  11.756  29.203   4.383
54927W        W26456  13.076  43.644   1.912
54928W        W26457  24.292   1.944  12.646
54929W        W26458  38.633   8.918  13.350
54930W        W26459  23.617  23.691   1.683
54931W        W26460  24.885   5.585  14.035
54932W        W26461  33.158  27.981   3.372
54933W        W26462  32.109   7.522   3.358
54934W        W26463  10.049  44.845   1.296
54935W        W26464  35.465  42.232  11.267
54936W        W26465  42.497   9.741  13.531
54937W        W26466  25.549  25.114   0.671
54938W        W26467   3.416   2.560   2.787
54939W        W26468   5.778   9.610  14.444
54940W        W26469  15.175   7.924  13.636
54941W        W26470  13.246  29.058  11.060
54942W        W26471  28.913   7.474   0.189
54943W        W26472   7.431  38.959   2.674
54944W        W26473  40.456  30.191   3.410
54945W        W26474  26.637  32.713  11.112
54946W        W26475  27.476  13.344   3.336
54947W        W26476  19.045  39.941  12.014
54948W        W26477  44.943  38.372  11.030
54949W        W26478   7.166   2.234  14.506
54950W        W26479  21.359  40.691  13.440
54951W        W26480   2.378  41.579  14.699
54952W        W26481  39.758  31.434  11.578
54953W        W26482  22.526  26.144  11.496
54954W        W26483  23.145   5.717   0.243
54955W        W26484  39.834  37.876  11.098
54956W        W26485  42.528  42.052  10.619
54957W        W26486  26.985  28.645   4.273
54958W        W26487  13.420   2.642   2.535
54959W        W26488  27.433   5.854   3.979
54960W        W26489  36.887  30.600   1.791
54961W        W26490  40.079  34.528   2.293
54962W        W26491  24.702   9.271  11.090
54963W        W26492  34.930  33.859   2.064
54964W        W26493   6.829  38.745  14.657
54965W        W26494  29.708  29.188  10.867
54966W        W26495  32.234  40.999  14.370
54967W        W26496   5.689  40.277   3.374
54968W        W26497  18.783   4.693   2.609
54969W        W26498   9.932  24.000   2.173
54970W        W26499  30.574  34.347  14.354
54971W        W26500  32.650  35.584  13.942
54972W        W26501  11.735  40.674   0.480
54973W        W26502   2.375  20.594   3.838
54974W        W26503  17.068  44.872  13.769
54975W        W26504  31.946  41.925   4.597
54976W        W26505   8.891  41.008  10.961
54977W        W26506  37.727  44.025  14.902
54978W        W26507  16.251  37.456   3.116
54979W        W26508  23.183  37.710  11.504
54980W        W26509   5.964  18.308  11.968
54981W        W26510   0.296  19.515   3.871
54982W        W26511  40.940  19.023  13.623
54983W        W26512  14.222  16.977  13.381
54984W        W26513  11.246  25.043  12.497
54985W        W26514   7.232  25.582  12.682
54986W        W26515  31.908  24.977   3.216
54987W        W26516  25.431   5.985   4.599
54988W        W26517  39.119  36.840  11.662
54989W        W26518  16.134  13.678   2.111
54990W        W26519  25.630  38.631   4.355
54991W        W26520  39.483  40.295   3.264
54992W        W26521   3.281   2.406   0.017
54993W        W26522  28.989  18.824   1.262
54994W        W26523  23.074   3.432   4.998
54995W        W26524   6.207  10.887  14.446
54996W        W26525  13.856  22.531  13.824
54997W        W26526  33.919  28.823   3.949
54998W        W26527  44.674   2.568   2.657
54999W        W26528  35.897  43.889  11.696
55000W        W26529  22.027  13.282   2.354
55001W        W26530  22.730  35.996   4.760
55002W        W26531  21.535  41.309   3.228
55003W        W26532  21.704  36.824   1.840
55004W        W26533  12.402  38.612   3.751
55005W        W26534  15.853  19.370   2.025
55006W        W26535   6.122  13.254   1.790
55007W        W26536  30.453  30.884   4.618
55008W        W26537  13.576  32.933  11.576
55009W        W26538  27.211  15.677   3.904
55010W        W26539  37.936  13.163  12.429
55011W        W26540  19.189  26.205   4.012
55012W        W26541  23.538   7.655   0.737
55013W        W26542  21.199  19.363  11.647
55014W        W26543  23.151  27.009   2.610
55015W        W26544  24.080   9.571   2.160
55016W        W26545  10.884  17.742   2.016
55017W        W26546  34.403  10.248   1.446
55018W        W26547  19.817  14.642   1.702
55019W        W26548  44.773  30.227  14.565
55020W        W26549   7.756  26.082  12.593
55021W        W26550  16.247  16.055   4.778
55022W        W26551  38.861  38.338  10.066
55023W        W26552   6.343   3.885   3.807
55024W        W26553  33.345  40.274   0.038
55025W        W26554  15.327  44.273   4.236
55026W        W26555   1.859   3.461   0.812
55027W        W26556  18.234  16.419   0.009
55028W        W26557   2.698   9.758  14.356
55029W        W26558   9.380  39.306   0.340
55030W        W26559   8.365  29.333   0.714
55031W        W26560  29.606  22.721  12.434
55032W        W26561  43.334  26.517   3.800
55033W        W26562  35.537  23.686   1.238
55034W        W26563  32.676   3.281   0.158
55035W        W26564   0.304  43.276  11.260
55036W        W26565  14.094  33.548   1.904
55037W        W26566   1.914  44.077   0.391
55038W        W26567  40.888  11.325   2.631
55039W        W26568  10.792  11.810  12.960
55040W        W26569  34.278  29.866  12.571
55041W        W26570  39.957  30.114   3.551
55042W        W26571  21.243   7.885  12.067
55043W        W26572  41.451   8.472  11.947
55044W        W26573  36.474  22.626  13.797
55045W        W26574  32.996  12.316  12.311
55046W        W26575   9.065   2.873   4.600
55047W        W26576  27.684  42.284  13.924
55048W        W26577  34.972  16.213   4.665
55049W        W26578  38.093  30.168   1.657
55050W        W26579  38.103  44.386  10.253
55051W        W26580  12.936   5.887   2.317
55052W        W26581  11.141  18.845  12.941
55053W        W26582  14.597  31.556  10.366
55054W        W26583  15.361  26.025   1.868
55055W        W26584  41.425   2.261  11.224
55056W        W26585   6.378  12.437  13.877
55057W        W26586  22.768   3.249   3.171
55058W        W26587  33.713   9.701  14.378
55059W        W26588   3.388  14.418   2.246
55060W        W26589  33.571  22.180   3.306
55061W        W26590  44.519  39.286  14.816
55062W        W26591  37.252  10.271   0.801
55063W        W26592   6.336  16.892   1.370
55064W        W26593  24.075  41.349   4.463
55065W        W26594  32.603   0.985   4.101
55066W        W26595   6.813  43.106   0.357
55067W        W26596  15.286  23.375   2.663
55068W        W26597  35.068  11.832   3.447
55069W        W26598  26.129  28.024  12.026
55070W        W26599   1.330   8.775   0.921
55071W        W26600   3.865   9.402  13.554
55072W        W26601  20.891  36.798   2.853
55073W        W26602  38.351  24.438  10.707
55074W        W26603  20.276   8.725  13.444
55075W        W26604  11.748  25.799   3.210
55076W        W26605   4.536  16.279  11.681
55077W        W26606  30.347   6.183   0.278
55078W        W26607   4.506  43.805   1.349
55079W        W26608   8.312  31.494  13.890
55080W        W26609  33.966   9.219  14.378
55081W        W26610  26.914  21.762   1.877
55082W        W26611   4.020  11.388   2.404
55083W        W26612  17.523  32.001   4.172
55084W        W26613   9.298  43.200   1.216
55085W        W26614   3.329  31.706   0.428
55086W        W26615  38.124  36.051  13.968
55087W        W26616  40.313  33.455  13.655
55088W        W26617  11.131   2.129   2.290
55089W        W26618  18.587  37.931  13.829
55090W        W26619   4.313   4.245   4.538
55091W        W26620  17.743   8.094  13.640
55092W        W26621  29.938  39.887  11.120
55093W        W26622  20.078   0.288  13.340
55094W        W26623  40.321  32.516  14.211
55095W        W26624  35.267  16.501  10.829
55096W        W26625  43.986  26.497  14.010
55097W        W26626  24.746  18.800  12.494
55098W        W26627  12.861   6.265   2.667
55099W        W26628   1.893  42.082   3.191
55100W        W26629  16.282  17.217  11.114
55101W        W26630  10.276  36.245  14.308
55102W        W26631  16.273   2.432   1.316
55103W        W26632  25.559  33.126  13.736
55104W        W26633  19.831  32.853   2.878
55105W        W26634  32.623   1.633  13.496
55106W        W26635   4.650  35.447  13.950
55107W        W26636  26.689   4.016  12.176
55108W        W26637  10.257  22.253  14.914
55109W        W26638  37.810  25.097   2.044
55110W        W26639  34.558  26.323   4.281
55111W        W26640  42.300  10.708   3.967
55112W        W26641  27.928  21.083  10.095
55113W        W26642  15.803  10.625  12.555
55114W        W26643  31.054  26.068  11.868
55115W        W26644   8.803  28.803   0.939
55116W        W26645   7.425   6.875   2.351
55117W        W26646  32.316  31.244  14.920
55118W        W26647  12.828  33.257  10.626
55119W        W26648  35.989  44.499  11.105
55120W        W26649   0.679  39.661   0.647
55121W        W26650  36.611   7.759  11.683
55122W        W26651   1.940  12.318  10.619
55123W        W26652  26.593   6.605   2.059
55124W        W26653  32.961  11.459  12.561
55125W        W26654   3.253   1.998  13.823
55126W        W26655   7.447  44.893   4.741
55127W        W26656  23.897   3.686   2.299
55128W        W26657   5.929   2.831  12.062
55129W        W26658  36.780   7.303   1.349
55130W        W26659  27.426  43.908  11.476
55131W        W26660  43.440  34.919  11.347
55132W        W26661   5.278  22.587   0.935
55133W        W26662  28.679  21.014   1.747
55134W        W26663  22.718  16.782  12.521
55135W        W26664   3.529   7.916   0.513
55136W        W26665   7.842   8.610   4.572
55137W        W26666   0.965  22.558  11.794
55138W        W26667  18.082   6.391   0.260
55139W        W26668  17.314   6.326   3.322
55140W        W26669   4.945  20.592  14.220
55141W        W26670   5.892  23.114  13.791
55142W        W26671  33.467  40.231   3.361
55143W        W26672  42.011  36.618  12.510
55144W        W26673   4.615   1.279   3.701
55145W        W26674  24.576  39.948   2.233
55146W        W26675   9.346   7.880   2.486
55147W        W26676  18.112   6.686   4.194
55148W        W26677  27.534  32.634   0.513
55149W        W26678   2.571  24.691   2.029
55150W        W26679   2.839  33.619  13.426
55151W        W26680  32.423   1.362   3.358
55152W        W26681  14.820  26.130  11.995
55153W        W26682  37.922  17.229   2.088
55154W        W26683  12.612  43.042   3.768
55155W        W26684   7.057   5.843  11.749
55156W        W26685   8.752  35.564   4.492
55157W        W26686   7.217  33.404  11.394
55158W        W26687  33.497  38.557   0.941
55159W        W26688  34.159  10.770  11.616
55160W        W26689  22.663  10.116  13.134
55161W        W26690  32.696  30.049   2.853
55162W        W26691  10.301  11.197  13.492
55163W        W26692  25.785  31.707  11.968
55164W        W26693  16.691  28.983  11.821
55165W        W26694   8.796  32.497  13.902
55166W        W26695  23.109   1.283  13.840
55167W        W26696   3.934   1.976   2.113
55168W        W26697  23.716  35.139  11.370
55169W        W26698  20.167  17.755  10.729
55170W        W26699  19.769  21.365   4.213
55171W        W26700  18.846  34.400   2.098
55172W        W26701  32.163  21.333   0.777
55173W        W26702  32.711   7.974  13.273
55174W        W26703  37.515  40.795   0.825
55175W        W26704  35.375  43.232   0.532
55176W        W26705  19.694  31.031   0.211
55177W        W26706  30.850  20.772  11.104
55178W        W26707  35.562  11.796  10.617
55179W        W26708  10.975   5.632   4.092
55180W        W26709  18.252  23.142   2.824
55181W        W26710   4.075  42.481   4.633
55182W        W26711  22.657  10.957  13.436
55183W        W26712  27.408   2.316  13.325
55184W        W26713  31.150   1.173  11.081
55185W        W26714  24.078   5.268  13.535
55186W        W26715  13.804  26.963   2.730
55187W        W26716  35.227   1.336  11.043
55188W        W26717   9.824   3.263   0.217
55189W        W26718  13.382  17.269   4.229
55190W        W26719  15.597   4.659  13.883
55191W        W26720  34.691  38.816  14.023
55192W        W26721  16.656  17.589  12.771
55193W        W26722   2.520  22.432   0.510
55194W        W26723  23.698   5.619   1.744
55195W        W26724   0.747   4.864  13.550
55196W        W26725  32.751  25.640  12.014
55197W        W26726  16.610  43.086   1.295
55198W        W26727   0.865   4.838   2.281
55199W        W26728  30.051  15.856   0.935
55200W        W26729   9.300  14.260  14.430
55201W        W26730  44.060  33.544  14.414
55202W        W26731  28.142  30.648   5.152
55203W        W26732  39.418  18.610   1.563
55204W        W26733  18.609  35.905   4.868
55205W        W26734  35.602  23.545   4.107
55206W        W26735   9.828   4.723  10.624
55207W        W26736   7.860  14.860  13.421
55208W        W26737  35.905   1.019   2.678
55209W        W26738  17.071  14.007   4.783
55210W        W26739  17.808  17.251  11.058
55211W        W26740  36.026   4.395   4.013
55212W        W26741  38.506   2.856   4.412
55213W        W26742  14.515  14.227   0.584
55214W        W26743  24.147  41.453   3.946
55215W        W26744  11.199   7.073   0.437
55216W        W26745  27.683   4.357   3.627
55217W        W26746  38.763  13.887   2.386
55218W        W26747   4.782  24.072   2.848
55219W        W26748   0.942   3.691   1.296
55220W        W26749   4.980   0.987  13.032
55221W        W26750   7.910  15.160  12.585
55222W        W26751  15.176  43.221   4.234
55223W        W26752   7.512  35.406   2.497
55224W        W26753   2.348  32.750  10.224
55225W        W26754  23.969  10.297   2.637
55226W        W26755  43.339  31.938  12.003
55227W        W26756   4.340  30.247  11.581
55228W        W26757   8.211   1.819  10.997
55229W        W26758  34.953  40.764   4.260
55230W        W26759  29.317   6.890   1.818
55231W        W26760   9.116  11.366  11.599
55232W        W26761   4.549  29.671  14.900
55233W        W26762  43.712  30.813  13.792
55234W        W26763  40.476   3.928  11.565
55235W        W26764  32.291  27.973   1.744
55236W        W26765  17.820  25.970  11.668
55237W        W26766  10.710   1.474   9.754
55238W        W26767   1.001   7.751   3.057
55239W        W26768   5.681   1.194   0.461
55240W        W26769  20.603  24.615  10.947
55241W        W26770  36.730   5.457  13.355
55242W        W26771  18.804   5.698  13.518
55243W        W26772  41.405  13.732   1.575
55244W        W26773  21.040   5.018  13.502
55245W        W26774  35.544  26.048  11.508
55246W        W26775  26.136  16.889  12.776
55247W        W26776  21.758  29.289  12.882
55248W        W26777  31.344  34.047  13.403
55249W        W26778  21.583  25.076  12.195
55250W        W26779  24.249  39.907   1.665
55251W        W26780  13.295  25.625  14.764
55252W        W26781  31.560  20.091  12.375
55253W        W26782  40.551  10.286   3.640
55254W        W26783  39.582  21.548   1.849
55255W        W26784   2.812   1.371   4.153
55256W        W26785  14.840  19.009   0.205
55257W        W26786   1.917  42.831   0.871
55258W        W26787  31.493  27.595  14.124
55259W        W26788  38.532   8.674   1.128
55260W        W26789   1.332   0.277  11.111
55261W        W26790  25.175  15.054  13.356
55262W        W26791  27.744  10.687   4.603
55263W        W26792  32.435  38.851  12.812
55264W        W26793  30.815  27.633  13.362
55265W        W26794  36.804  16.772  12.514
55266W        W26795  24.561  43.575  10.789
55267W        W26796   0.578  35.116   1.888
55268W        W26797  17.702  31.177  12.857
55269W        W26798  35.603  13.207  12.559
55270W        W26799   0.736  28.046   2.175
55271W        W26800  43.971  12.168  13.876
55272W        W26801  36.787  39.498   0.803
55273W        W26802  37.373  40.353  13.025
55274W        W26803  30.981  26.492  13.735
55275W        W26804  43.877  26.407   0.855
55276W        W26805   6.350  39.495   0.434
55277W        W26806  40.824  29.492   0.841
55278W        W26807  16.620  31.478   3.312
55279W        W26808   3.969  13.327   2.660
55280W        W26809   2.333  27.565   4.697
55281W        W26810   5.940  22.894  12.019
55282W        W26811  18.613   3.077   3.708
55283W        W26812   3.305   2.285   0.539
55284W        W26813  19.345  44.232   1.721
55285W        W26814  29.537   2.681   1.278
55286W        W26815  11.067  31.002  13.762
55287W        W26816  41.931  28.327  10.605
55288W        W26817  40.834  22.686  12.423
55289W        W26818  27.628   0.009   2.954
55290W        W26819  39.778  11.224  14.797
55291W        W26820   7.025  38.468   1.812
55292W        W26821  22.959  34.923   0.978
55293W        W26822   2.158  15.362   1.908
55294W        W26823  27.964  38.589   0.868
55295W        W26824  42.243   7.688   2.478
55296W        W26825   3.184  32.601   3.518
55297W        W26826  39.374  37.560   0.355
55298W        W26827  35.894   9.793   0.912
55299W        W26828  44.414   1.164   2.456
55300W        W26829  11.059  17.590   3.069
55301W        W26830  42.754  29.511   0.499
55302W        W26831  12.490  39.748   3.348
55303W        W26832  27.064  25.193  14.745
55304W        W26833  41.759   9.587  13.938
55305W        W26834  27.067  30.991  11.379
55306W        W26835  36.588   2.933   4.102
55307W        W26836  25.546  10.302   1.291
55308W        W26837  33.658  29.191   0.907
55309W        W26838   3.155  39.057   4.363
55310W        W26839  43.473   8.649  11.686
55311W        W26840  41.017  37.034  12.327
55312W        W26841  29.555  18.612  14.356
55313W        W26842  44.944  38.278   0.328
55314W        W26843   2.077   6.391  14.830
55315W        W26844   8.372  19.518   0.228
55316W        W26845  21.952  26.582  10.403
55317W        W26846  31.794  43.526  13.535
55318W        W26847  31.069  42.842   1.814
55319W        W26848  37.299  32.986   1.347
55320W        W26849  23.936  10.435  14.336
55321W        W26850  17.928  43.816  12.945
55322W        W26851  23.620  41.784   3.201
55323W        W26852   6.830  19.486  14.850
55324W        W26853  28.659  42.055  11.630
55325W        W26854  40.390  17.082  10.404
55326W        W26855  24.250  31.057   1.358
55327W        W26856  31.516  37.662   1.802
55328W        W26857  18.116   6.645  12.147
55329W        W26858  37.423   5.877   0.684
55330W        W26859  30.655  33.536  14.795
55331W        W26860  44.037   6.420  11.064
55332W        W26861   9.553  38.341  12.644
55333W        W26862  27.470  12.352   3.070
55334W        W26863  17.386   7.005  10.068
55335W        W26864  21.045  31.925  11.085
55336W        W26865  39.195  44.825   2.176
55337W        W26866  44.301  12.278   4.538
55338W        W26867  33.367   9.512   3.113
55339W        W26868  15.566  32.436   0.091
55340W        W26869  36.371  33.646  14.549
55341W        W26870   8.409  18.678   1.928
55342W        W26871  23.164   7.043  14.965
55343W        W26872   1.381  18.210  14.806
55344W        W26873  33.558  22.642   3.587
55345W        W26874  21.791  38.863  11.085
55346W        W26875  12.133  31.110  11.380
55347W        W26876  43.539  11.234   4.204
55348W        W26877  13.264  15.125   2.686
55349W        W26878   7.403  14.663  13.378
55350W        W26879  29.172  12.061   2.886
55351W        W26880   5.888  17.096   1.216
55352W        W26881  19.661  13.308  10.769
55353W        W26882  43.250  20.776   2.395
55354W        W26883   1.837   0.686  14.877
55355W        W26884  25.983  30.214  14.970
55356W        W26885  26.325   9.220  11.993
55357W        W26886  30.942  10.338   0.756
55358W        W26887  30.989  39.242   3.291
55359W        W26888  12.198  16.283   0.392
55360W        W26889  11.363  36.927   4.622
55361W        W26890   4.175  40.604   1.102
55362W        W26891   2.262  12.751   0.020
55363W        W26892  27.390  14.529   0.863
55364W        W26893  31.095  23.157   0.373
55365W        W26894   0.486  41.448  14.588
55366W        W26895  18.203   4.278   2.426
55367W        W26896  14.542  32.430  12.788
55368W        W26897  42.377  24.463   0.565
55369W        W26898  11.293  11.078   1.703
55370W        W26899  35.145  37.406   4.788
55371W        W26900  36.766  43.868  14.857
55372W        W26901  41.067   5.045  12.000
55373W        W26902  17.833   0.770   3.598
55374W        W26903  23.682   0.799  13.582
55375W        W26904  24.699  39.845   2.733
55376W        W26905   7.806  24.607  13.458
55377W        W26906   7.742  15.825   1.982
55378W        W26907  32.595  20.270  10.509
55379W        W26908   9.400  39.952  13.535
55380W        W26909  33.676  13.722   4.799
55381W        W26910   5.660  41.503  12.585
55382W        W26911   1.910  14.891  13.424
55383W        W26912  38.024   0.763   0.431
55384W        W26913  30.575  35.969   2.315
55385W        W26914  14.637  43.311   4.152
55386W        W26915   7.434  15.491   1.714
55387W        W26916  15.280  34.985  11.621
55388W        W26917  18.164  43.067   2.999
55389W        W26918  32.368  26.019  12.905
55390W        W26919  43.541  31.585  12.991
55391W        W26920  12.898  14.113   5.298
55392W        W26921  43.945  31.306   3.719
55393W        W26922  27.507  35.467  11.607
55394W        W26923  38.937  24.623   4.678
55395W        W26924  29.679  36.339  11.147
55396W        W26925  22.110   0.951  10.224
55397W        W26926  35.901   6.322   1.727
55398W        W26927  37.293  40.295   3.219
55399W        W26928   1.313  42.346   2.304
55400W        W26929  20.416   8.856   4.570
55401W        W26930  25.412  35.918   3.643
55402W        W26931  29.190   1.194  11.920
55403W        W26932  32.634  28.546  14.295
55404W        W26933  39.994  15.803   3.162
55405W        W26934  41.055  29.158   3.874
55406W        W26935  36.402  36.118   1.903
55407W        W26936  35.357  33.537  13.432
55408W        W26937  40.581  41.564   3.757
55409W        W26938  14.901   2.916  12.408
55410W        W26939  18.134  20.116   0.575
55411W        W26940  15.712   9.721  14.333
55412W        W26941   7.560  39.247  12.062
55413W        W26942  40.415  25.369   0.802
55414W        W26943  11.370  16.895   1.350
55415W        W26944   3.242  13.350  12.113
55416W        W26945  43.948   1.206   2.720
55417W        W26946  11.203   6.972   4.660
55418W        W26947  42.139  42.894  14.518
55419W        W26948  27.954  18.826   4.720
55420W        W26949  29.135   4.333  11.540
55421W        W26950  30.511  38.946  13.329
55422W        W26951  25.081   4.444   4.256
55423W        W26952  24.565  31.451   1.440
55424W        W26953   9.597  32.026   3.693
55425W        W26954  32.031  27.692   5.180
55426W        W26955  25.903  21.572   2.929
55427W        W26956  22.495   3.261   3.614
55428W        W26957  11.670  38.981  11.923
55429W        W26958  16.364  38.506   1.276
55430W        W26959  26.226   9.571   1.957
55431W        W26960  25.567  12.882  10.704
55432W        W26961   0.350  14.705   4.144
55433W        W26962   8.234   0.113  11.618
55434W        W26963  31.799  38.756   4.973
55435W        W26964  35.819  26.543  11.583
55436W        W26965  11.281  41.389  12.780
55437W        W26966  19.119  44.271   3.723
55438W        W26967  24.450  33.331   1.040
55439W        W26968  24.709  37.356   2.184
55440W        W26969  36.599   4.427  12.480
55441W        W26970  26.496  43.860   1.832
55442W        W26971  14.930  35.388  11.606
55443W        W26972  29.663  31.537  13.504
55444W        W26973   1.245  31.353   2.905
55445W        W26974   0.043   8.549   0.147
55446W        W26975   3.424  38.273  10.679
55447W        W26976  22.183   1.822  14.093
55448W        W26977  40.667   4.691  12.013
55449W        W26978  25.779  40.180  10.732
55450W        W26979  33.201  29.699   1.267
55451W        W26980  36.134   2.386   2.858
55452W        W26981  34.878  38.317  11.429
55453W        W26982  18.779   0.252   4.222
55454W        W26983  16.206  27.561  10.719
55455W        W26984  18.151  27.957  10.695
55456W        W26985   1.367  35.017   4.966
55457W        W26986  34.321   2.222   4.853
55458W        W26987  14.173   4.201   2.407
55459W        W26988   2.388  33.179   3.642
55460W        W26989   6.395  39.760   1.178
55461W        W26990  23.505  43.899  11.945
55462W        W26991  13.865  23.701  13.490
55463W        W26992  35.828  34.047  10.771
55464W        W26993  10.889  44.715  12.104
55465W        W26994  29.022   7.487  14.658
55466W        W26995  16.478   6.446  11.065
55467W        W26996  29.010  42.260  14.892
55468W        W26997  13.152  38.846  11.146
55469W        W26998  44.220  17.173   1.241
55470W        W26999   0.342  37.563   3.754
55471W        W27000  32.426  28.513   2.887
55472W        W27001  44.478  13.689   1.289
55473W        W27002  15.530  16.724  13.489
55474W        W27003  36.021  39.479   3.689
55475W        W27004   5.460  29.548   1.233
55476W        W27005  12.265  21.054  12.845
55477W        W27006  37.999   1.529  13.986
55478W        W27007   6.417  19.413  11.557
55479W        W27008  34.630  18.028  13.764
55480W        W27009  18.054  39.216   0.960
55481W        W27010  28.794  14.077  12.498
55482W        W27011   7.871  16.643  14.458
55483W        W27012   5.623   0.048  11.186
55484W        W27013   7.965  39.580   1.774
55485W        W27014  12.123  27.825  13.624
55486W        W27015   0.826  33.464  11.094
55487W        W27016   4.631  33.516  11.968
55488W        W27017  29.478  18.553   0.928
55489W        W27018  31.652   5.720   2.341
55490W        W27019   0.984  28.066   0.831
55491W        W27020  26.074  43.272   0.698
55492W        W27021  37.780  40.770  13.373
55493W        W27022  44.969  30.524  11.857
55494W        W27023   1.431  18.479   0.947
55495W        W27024   1.411  21.703  10.414
55496W        W27025   4.980  41.467   4.554
55497W        W27026   8.961  29.191   9.981
55498W        W27027  27.633  35.475   0.257
55499W        W27028  43.918  41.319   0.435
55500W        W27029  17.329  41.587  13.971
55501W        W27030  35.415  19.592  11.519
55502W        W27031  14.087  12.098   2.495
55503W        W27032  30.463  42.312  13.769
55504W        W27033  25.016  12.883   2.252
55505W        W27034  44.340   4.331  13.029
55506W        W27035  20.950  24.990  10.889
55507W        W27036   1.756   9.155  14.592
55508W        W27037   1.043   3.316  10.987
55509W        W27038  35.284  26.204  14.738
55510W        W27039  41.177  12.598  11.350
55511W        W27040  17.173  43.385  12.059
55512W        W27041  41.785  27.404   1.019
55513W        W27042  14.608   8.180   3.666
55514W        W27043  21.039  30.904  11.176
55515W        W27044  14.756  17.003   4.191
55516W        W27045  17.221  11.629   1.745
55517W        W27046  10.707  32.988   2.840
55518W        W27047  19.027  33.069   2.477
55519W        W27048  17.016  14.092   3.782
55520W        W27049   9.224  37.584   0.479
55521W        W27050  43.637  10.138   2.086
55522W        W27051  25.910  17.081  12.080
55523W        W27052  19.785  44.644   0.983
55524W        W27053  44.343   5.509   0.943
55525W        W27054  21.062  32.175  11.542
55526W        W27055  41.664   7.346  10.350
55527W        W27056  25.760   6.699  14.209
55528W        W27057  22.451  17.111  14.750
55529W        W27058   6.393  42.019   1.701
55530W        W27059  37.911   3.886  13.802
55531W        W27060  12.149   8.788   0.906
55532W        W27061   5.652   4.925  14.259
55533W        W27062  27.392  10.768   4.173
55534W        W27063  18.766  12.313   2.334
55535W        W27064  19.737   7.372  14.877
55536W        W27065  20.736  42.286   2.777
55537W        W27066  35.923  44.739   1.694
55538W        W27067  40.620  29.848  10.563
55539W        W27068   0.410  30.528  12.949
55540W        W27069   3.474  36.076  12.917
55541W        W27070  28.209  23.637  12.505
55542W        W27071  35.864   9.602  11.109
55543W        W27072  35.005  40.275   4.408
55544W        W27073  19.027  13.870  12.968
55545W        W27074  28.220  21.153   1.039
55546W        W27075   8.359  35.323  13.793
55547W        W27076  17.143  35.881   2.485
55548W        W27077  26.679  29.382  10.976
55549W        W27078  19.634  15.631   3.589
55550W        W27079  35.793  36.986   3.260
55551W        W27080   4.678  17.551  12.442
55552W        W27081  24.628  43.309  12.588
55553W        W27082  43.494   6.994   0.005
55554W        W27083  32.580  19.328  14.824
55555W        W27084   6.850  39.075  12.504
55556W        W27085  40.180  31.911   3.591
55557W        W27086   2.159   5.844  14.545
55558W        W27087  31.933  40.332  13.890
55559W        W27088  29.572  11.644   2.866
55560W        W27089  33.020  40.669  11.232
55561W        W27090   8.265  27.500  13.404
55562W        W27091   6.914  41.561   0.212
55563W        W27092  14.733  12.943   4.113
55564W        W27093  32.358  18.481  12.474
55565W        W27094  31.828  29.443   2.704
55566W        W27095  26.591  18.093  10.835
55567W        W27096  15.788  10.011   4.062
55568W        W27097  28.092  37.282   1.788
55569W        W27098  14.292  30.911  13.394
55570W        W27099  37.865  19.545  12.095
55571W        W27100  13.411  41.394  12.099
55572W        W27101  32.029  33.545  14.765
55573W        W27102   4.786  39.001   3.260
55574W        W27103  10.201   9.059   1.836
55575W        W27104  37.867  41.856   3.549
55576W        W27105  38.844   3.791   1.050
55577W        W27106  16.584  13.386  10.665
55578W        W27107  41.133  24.098   0.675
55579W        W27108  19.708  24.809   2.373
55580W        W27109   7.936  35.020  11.561
55581W        W27110  20.708  24.930   1.173
55582W        W27111   2.357  36.319  11.472
55583W        W27112  40.493  22.640  10.655
55584W        W27113  41.944  31.118  12.406
55585W        W27114  39.009   4.396  10.203
55586W        W27115   9.396  38.575  14.758
55587W        W27116   7.806  34.400  13.817
55588W        W27117  10.577  30.379  13.923
55589W        W27118   2.406  27.430   1.758
55590W        W27119  12.879  15.051  14.638
55591W        W27120  17.181  18.130   0.281
55592W        W27121  34.970   8.389   0.255
55593W        W27122  22.718  22.250   4.539
55594W        W27123  44.343   1.835  11.874
55595W        W27124   1.800  40.992   2.904
55596W        W27125  14.288  11.156   1.058
55597W        W27126  10.337  31.008  12.000
55598W        W27127  21.516  13.446   2.375
55599W        W27128  27.678  15.720  13.837
55600W        W27129  38.835   5.742   3.869
55601W        W27130  20.689  13.758   3.698
55602W        W27131  34.499  22.631   2.342
55603W        W27132  36.485   3.276   5.019
55604W        W27133   4.387  13.096   0.950
55605W        W27134  21.332  28.983  12.856
55606W        W27135  37.267  39.792   3.269
55607W        W27136  13.811  26.749   1.872
55608W        W27137  24.081  11.848  14.800
55609W        W27138   9.133  10.139  12.844
55610W        W27139  14.253  13.905   5.004
55611W        W27140  16.209  29.383   0.747
55612W        W27141  26.109   3.092  10.475
55613W        W27142   3.434  26.144   1.109
55614W        W27143  16.206   2.825  13.869
55615W        W27144   7.582  10.633  10.991
55616W        W27145  17.178  19.629  14.128
55617W        W27146  25.805   3.956   3.673
55618W        W27147  39.035  24.629   3.699
55619W        W27148  15.629  43.712  12.122
55620W        W27149  14.514  24.108   0.866
55621W        W27150  22.258  29.241  12.050
55622W        W27151   2.774  43.853   2.200
55623W        W27152  23.502  33.820  13.008
55624W        W27153   7.362  13.798   4.811
55625W        W27154  25.684  36.097   4.676
55626W        W27155  41.039  15.923  13.428
55627W        W27156   1.794  15.282   2.868
55628W        W27157   6.686  11.410   4.779
55629W        W27158  28.926   8.209   2.787
55630W        W27159   2.122  26.266  10.866
55631W        W27160   5.793  31.407  11.375
55632W        W27161  37.909  25.657   2.770
55633W        W27162  32.584  16.988  11.494
55634W        W27163   2.765  13.627   4.463
55635W        W27164  11.113   1.911   3.223
55636W        W27165  19.138  25.502  13.126
55637W        W27166  16.897  42.256  12.584
55638W        W27167  43.440  12.669   1.399
55639W        W27168  11.771  39.109   4.265
55640W        W27169   1.026  34.648  14.331
55641W        W27170   9.911  38.621   1.623
55642W        W27171  41.492  14.641  11.886
55643W        W27172  36.774  22.626  10.509
55644W        W27173  32.617   8.834   4.361
55645W        W27174  36.976  24.275   2.755
55646W        W27175  30.082  24.249  10.644
55647W        W27176  36.926  23.639  13.519
55648W        W27177  28.716  21.284  14.585
55649W        W27178  37.632  42.864  14.888
55650W        W27179  38.509  36.344   3.615
55651W        W27180  35.496  39.357  10.714
55652W        W27181  34.510  10.985  12.441
55653W        W27182  37.000  23.574   3.482
55654W        W27183  31.949  41.284  12.856
55655W        W27184  13.232  22.788   0.392
55656W        W27185  22.724  40.477  14.110
55657W        W27186  11.563  39.292   2.376
55658W        W27187  29.552  16.260  12.097
55659W        W27188  13.700  13.084   4.958
55660W        W27189  12.418  42.253   2.012
55661W        W27190   3.804  44.946  13.538
55662W        W27191  27.602  31.341   1.690
55663W        W27192  26.456  19.962  14.966
55664W        W27193   1.297  19.497   1.866
55665W        W27194  10.352  13.761  11.646
55666W        W27195  28.676  19.999  13.977
55667W        W27196  36.818  23.551  10.452
55668W        W27197  40.354  32.620   0.237
55669W        W27198  35.943   3.366  13.030
55670W        W27199  16.497  15.353   4.021
55671W        W27200   2.456   4.234  11.639
55672W        W27201  34.145  14.796   3.829
55673W        W27202  28.328  32.577   4.171
55674W        W27203  30.167  38.426   0.473
55675W        W27204  34.004   7.729   4.060
55676W        W27205  25.161  17.950  12.434
55677W        W27206   5.193   0.321   1.296
55678W        W27207  42.387   0.506   4.694
55679W        W27208  39.392  23.167   3.875
55680W        W27209  30.777  33.242   4.019
55681W        W27210  15.897   5.788   5.014
55682W        W27211  10.075   8.562   1.957
55683W        W27212  19.951  36.706  11.552
55684W        W27213  32.356   1.449   4.241
55685W        W27214  10.185  12.852   0.661
55686W        W27215   7.649  28.121  12.439
55687W        W27216  26.065  41.747  12.521
55688W        W27217  14.539   1.781  13.552
55689W        W27218  30.625  36.916   3.883
55690W        W27219  27.798  29.452   1.778
55691W        W27220   5.290  27.929   0.983
55692W        W27221  25.094   1.989   2.793
55693W        W27222   2.302  43.532   1.928
55694W        W27223  12.635  31.768  13.813
55695W        W27224   1.818  31.436  11.232
55696W        W27225  29.405  42.047   4.443
55697W        W27226   6.383  26.283   0.819
55698W        W27227  15.850  34.992   4.290
55699W        W27228   7.859  26.714  10.338
55700W        W27229   5.748  20.731   2.853
55701W        W27230  42.107   5.620  12.076
55702W        W27231  35.127  41.993   0.295
55703W        W27232  38.559  19.713   4.954
55704W        W27233  29.109   1.441  14.768
55705W        W27234  25.072   9.463  12.956
55706W        W27235  28.953  43.171   1.884
55707W        W27236   1.823  28.891  13.866
55708W        W27237  33.670  34.579   4.513
55709W        W27238  33.880   9.022  12.196
55710W        W27239   0.201  41.731   3.968
55711W        W27240   4.427  23.532   0.483
55712W        W27241   9.511  14.588  10.671
55713W        W27242  42.685  29.561   0.002
55714W        W27243  35.027   9.697   1.355
55715W        W27244  15.050  33.947  11.595
55716W        W27245  12.333  23.033  14.359
55717W        W27246   6.001  34.529   1.808
55718W        W27247  19.559  26.973  13.513
55719W        W27248   8.899  13.424  12.869
55720W        W27249  31.076  20.084   0.403
55721W        W27250  10.089  17.834   3.883
55722W        W27251  29.127  22.666  11.205
55723W        W27252  13.187  28.414  14.270
55724W        W27253  16.176  33.525   1.922
55725W        W27254   8.766  22.224   2.429
55726W        W27255  38.170  37.454   5.081
55727W        W27256  41.805  17.903  14.492
55728W        W27257  44.874  28.491   4.599
55729W        W27258  10.318  17.860  11.456
55730W        W27259  26.462  17.648   2.188
55731W        W27260  26.018  10.270  12.953
55732W        W27261  32.416  21.769  13.343
55733W        W27262   2.690  33.453   2.256
55734W        W27263  14.745  39.979  13.852
55735W        W27264   6.909   9.176   0.887
55736W        W27265  19.285   7.833  10.755
55737W        W27266  27.475   5.920   0.344
55738W        W27267  39.503  17.974  11.585
55739W        W27268  30.115  35.416  12.703
55740W        W27269  41.427  27.059   1.709
55741W        W27270  11.122  15.642   1.814
55742W        W27271   6.949  33.535  10.594
55743W        W27272  32.862  34.389  11.906
55744W        W27273   9.073  21.849  11.286
55745W        W27274  18.306  17.508   4.575
55746W        W27275  25.359  16.334  14.584
55747W        W27276  31.555  22.741   1.828
55748W        W27277  44.391   9.731   1.439
55749W        W27278  29.907   6.196   4.157
55750W        W27279  11.750  39.650   1.717
55751W        W27280   5.237  11.303   0.064
55752W        W27281   0.945  31.453  13.024
55753W        W27282  12.243  12.103   3.753
55754W        W27283  28.577  30.819  13.049
55755W        W27284   6.415  30.583   4.169
55756W        W27285  36.312  37.351   3.656
55757W        W27286  18.696   3.798  12.518
55758W        W27287  13.245  38.341  11.100
55759W        W27288  27.460  37.547  11.554
55760W        W27289  35.743  37.366  14.352
55761W        W27290  20.662  16.445   2.940
55762W        W27291  23.350  32.968  10.951
55763W        W27292   3.386   7.670  11.135
55764W        W27293  18.814  16.674   1.206
55765W        W27294  44.481  27.443  12.904
55766W        W27295  12.701  25.880  11.148
55767W        W27296  26.468  14.442  14.886
55768W        W27297  25.164  11.217  11.236
55769W        W27298  25.786  44.434   1.124
55770W        W27299   1.068  13.801  13.822
55771W        W27300  30.487  43.754  14.462
55772W        W27301  20.655  43.572  10.727
55773W        W27302   4.312  43.358   2.618
55774W        W27303  42.488  42.935  14.884
55775W        W27304  22.793  25.574  13.134
55776W        W27305  10.815  39.091   4.650
55777W        W27306  34.191   4.377  11.176
55778W        W27307   3.922  36.096  11.184
55779W        W27308  11.891  15.597   2.235
55780W        W27309   1.786  44.372   1.047
55781W        W27310  22.378  27.126  11.694
55782W        W27311  11.769  43.985   1.909
55783W        W27312  16.905  30.049   4.602
55784W        W27313  40.246  18.747  10.756
55785W        W27314   0.293  10.558   4.351
55786W        W27315  13.697  31.102  12.812
55787W        W27316  13.814  43.626  14.284
55788W        W27317  29.377  39.834  13.313
55789W        W27318  36.590  17.134  13.221
55790W        W27319  25.530   0.173   2.645
55791W        W27320  30.983  36.068  14.455
55792W        W27321  27.513  16.071   2.679
55793W        W27322   2.953  26.045   0.921
55794W        W27323  41.127  25.018  10.600
55795W        W27324  11.203   2.438   3.339
55796W        W27325  18.102  26.584  10.101
55797W        W27326   4.214  30.684   3.286
55798W        W27327  14.813   8.291  11.915
55799W        W27328  22.128   1.386  10.509
55800W        W27329  13.716   8.420   3.641
55801W        W27330  40.567  37.024  11.334
55802W        W27331   2.290   3.782  11.897
55803W        W27332  21.631  25.769  14.995
55804W        W27333  21.530  18.416  12.842
55805W        W27334  24.513   7.836   4.047
55806W        W27335   8.873   9.829   1.625
55807W        W27336  35.139  38.512  10.662
55808W        W27337  27.503   8.238  13.222
55809W        W27338  24.673   3.334  10.689
55810W        W27339  43.564  33.766   2.686
55811W        W27340  25.699  14.571   0.486
55812W        W27341  17.271  10.803  13.063
55813W        W27342  42.407  36.683   2.906
55814W        W27343   0.741  33.102   4.130
55815W        W27344  18.652  38.237   0.239
55816W        W27345  22.610  25.203   1.406
55817W        W27346  14.847  29.594   1.671
55818W        W27347  31.409  32.689  10.687
55819W        W27348  23.424  28.006   3.780
55820W        W27349  15.071  21.718  13.296
55821W        W27350  24.382  26.108  11.259
55822W        W27351  16.114  20.034   0.408
55823W        W27352  23.844   6.654  12.171
55824W        W27353  16.437  14.451  12.002
55825W        W27354  16.480  27.143  10.559
55826W        W27355  12.624   3.455  13.463
55827W        W27356  44.833  14.446   0.330
55828W        W27357  29.987   9.175   1.637
55829W        W27358  15.154  19.913   1.374
55830W        W27359  18.614  40.958   2.986
55831W        W27360  15.124  36.615  13.563
55832W        W27361  37.042  28.431   3.204
55833W        W27362   8.226  23.927  14.958
55834W        W27363   6.983  21.720  14.427
55835W        W27364  43.502  28.752  11.545
55836W        W27365  15.029  32.668  12.818
55837W        W27366  43.779  28.857  11.991
55838W        W27367  42.793  28.367   3.683
55839W        W27368  41.710   6.979   3.186
55840W        W27369  13.414  34.155   0.618
55841W        W27370   7.137  33.847   3.315
55842W        W27371   5.710  16.601  12.365
55843W        W27372  38.904  15.840   1.203
55844W        W27373  15.283  36.993  14.562
55845W        W27374   7.451  25.927  12.992
55846W        W27375  16.202   2.403   2.327
55847W        W27376   7.314  10.695   4.676
55848W        W27377  32.336   2.971   3.293
55849W        W27378  35.525   2.352   0.746
55850W        W27379   4.862  29.683   2.098
55851W        W27380  20.125   0.023  10.868
55852W        W27381   2.742  44.788   0.902
55853W        W27382  16.713  12.319   2.193
55854W        W27383  44.300   9.689   4.224
55855W        W27384  35.988  43.396   4.370
55856W        W27385  44.339  39.815  12.533
55857W        W27386  32.078  22.444  11.588
55858W        W27387  20.518  12.877   1.297
55859W        W27388   5.760   2.009  11.086
55860W        W27389   1.799  41.406  13.463
55861W        W27390   7.910   2.628  11.571
55862W        W27391  34.838  27.033   1.155
55863W        W27392  27.609  33.048   0.213
55864W        W27393  37.535   3.558  12.397
55865W        W27394  30.423   7.011  14.833
55866W        W27395  33.553  32.673   1.920
55867W        W27396   4.479  33.878   1.261
55868W        W27397   0.486   9.166  12.928
55869W        W27398  38.825   4.299   3.972
55870W        W27399  18.567  10.925  14.303
55871W        W27400   4.224  23.808   0.864
55872W        W27401  15.676  36.755   2.891
55873W        W27402  18.589  36.514  13.856
55874W        W27403  12.726  11.305   1.776
55875W        W27404  21.980  43.984  12.455
55876W        W27405  28.670   7.118  12.880
55877W        W27406  13.999   3.357   4.782
55878W        W27407  35.835   3.172   0.459
55879W        W27408  12.186  24.013   0.535
55880W        W27409  20.207  36.919   1.825
55881W        W27410  11.075   6.220   2.274
55882W        W27411  40.143  44.667   2.070
55883W        W27412  19.242   1.802   3.686
55884W        W27413  33.866  15.102   3.158
55885W        W27414  12.367  30.018  14.712
55886W        W27415   2.550  18.659  13.357
55887W        W27416  36.602   9.411  10.686
55888W        W27417  29.944   8.489  14.439
55889W        W27418  18.625  33.078   2.146
55890W        W27419  38.464   9.838   0.618
55891W        W27420   8.890  33.511  13.302
55892W        W27421  13.700  27.695  10.511
55893W        W27422  43.411  35.833  10.991
55894W        W27423   5.352  16.242  14.917
55895W        W27424  32.431   3.673   4.743
55896W        W27425   1.082  11.820  14.533
55897W        W27426   5.964  35.574   4.629
55898W        W27427  30.746  10.074  10.243
55899W        W27428  21.597  31.104   1.266
55900W        W27429   8.755  22.021   1.104
55901W        W27430  15.857  28.349   2.249
55902W        W27431  35.654   9.164   3.603
55903W        W27432  33.088  26.553   1.455
55904W        W27433  31.442  16.789   3.796
55905W        W27434  10.305  40.080  10.834
55906W        W27435  10.995  35.037  12.008
55907W        W27436  21.835  19.043  13.326
55908W        W27437  15.591   3.907   2.729
55909W        W27438  18.968   0.617  11.112
55910W        W27439  30.663  35.878  11.128
55911W        W27440  28.539  27.074  13.480
55912W        W27441  16.093  31.743  12.125
55913W        W27442  18.772  35.792  14.555
55914W        W27443  25.980  16.648  12.353
55915W        W27444  11.632  27.125  11.088
55916W        W27445  36.589  40.581   1.823
55917W        W27446  28.818  13.100  14.806
55918W        W27447  32.675  33.534  12.880
55919W        W27448  35.848  24.190  11.130
55920W        W27449   4.851   1.981   2.253
55921W        W27450   2.735  32.407   1.682
55922W        W27451   8.443  15.860   2.709
55923W        W27452  37.394   4.798   2.320
55924W        W27453   3.891  11.085   3.286
55925W        W27454   4.951  12.515  13.909
55926W        W27455  17.938  25.971  12.176
55927W        W27456  13.359   9.843  13.044
55928W        W27457  34.557  34.067  14.376
55929W        W27458   7.725  17.358  13.341
55930W        W27459   2.080  35.945   2.788
55931W        W27460   8.665  27.263  14.948
55932W        W27461  29.210  31.063   4.134
55933W        W27462  38.509  24.693   0.357
55934W        W27463  20.291  26.216   4.517
55935W        W27464   4.961  42.072  12.129
55936W        W27465   0.630  29.820  13.375
55937W        W27466   8.374   2.799  10.798
55938W        W27467  13.451  27.527   1.684
55939W        W27468  19.205  35.793   1.191
55940W        W27469  14.707  44.626  11.396
55941W        W27470  29.518  26.111  11.993
55942W        W27471  40.354  15.078   3.316
55943W        W27472  16.069  24.662   0.243
55944W        W27473   4.429  43.966   4.502
55945W        W27474  44.008  30.988  14.664
55946W        W27475  14.340  21.124  12.964
55947W        W27476  32.041   6.700  12.919
55948W        W27477  20.262  16.055  11.299
55949W        W27478  35.667  44.066   4.185
55950W        W27479  17.398  38.615   4.604
55951W        W27480  21.688  12.811   2.719
55952W        W27481  24.140   3.837   1.866
55953W        W27482  27.504  15.590   2.876
55954W        W27483  29.536  28.273  12.892
55955W        W27484  36.371  25.424  12.187
55956W        W27485  35.236  43.786   2.357
55957W        W27486   7.507  38.548   0.854
55958W        W27487  25.090  22.374   2.757
55959W        W27488  31.070  15.543   2.558
55960W        W27489   8.463  27.044   3.431
55961W        W27490  29.588  13.412  14.375
55962W        W27491  16.269  18.882   3.845
55963W        W27492  10.234  19.572   0.920
55964W        W27493  39.388   0.949  14.633
55965W        W27494  27.673  11.639   0.368
55966W        W27495  41.273  27.888  12.527
55967W        W27496  10.843  11.068   1.250
55968W        W27497  12.975  25.201   3.005
55969W        W27498  34.353  42.173  11.934
55970W        W27499  40.366   3.649  12.920
55971W        W27500   5.331   3.441  10.218
55972W        W27501  43.511  34.090   1.632
55973W        W27502  19.094  22.971  13.859
55974W        W27503  30.300  32.044   1.508
55975W        W27504  35.431  27.412   3.243
55976W        W27505   2.966  11.368  14.028
55977W        W27506  17.641  33.051  14.280
55978W        W27507  42.043   9.693  11.940
55979W        W27508  41.053  36.490  12.496
55980W        W27509   6.907   8.628  11.511
55981W        W27510   3.775  34.055   4.449
55982W        W27511  12.575  20.195  13.359
55983W        W27512   4.233  39.697  11.089
55984W        W27513  25.389  17.247  12.989
55985W        W27514  30.659  37.160  12.462
55986W        W27515  24.157  12.824   0.317
55987W        W27516  19.875  37.111   2.751
55988W        W27517  25.991  40.815   3.575
55989W        W27518  14.242  15.059  12.051
55990W        W27519   0.973  19.148  10.453
55991W        W27520  39.336  42.185  14.500
55992W        W27521   2.466   2.313  11.697
55993W        W27522  35.305  38.892   2.910
55994W        W27523  23.104  29.682   0.530
55995W        W27524  41.085  19.458   4.578
55996W        W27525  36.551  32.068  12.970
55997W        W27526  40.477  36.341  13.612
55998W        W27527  39.529  30.105  12.062
55999W        W27528  43.756  33.058  14.488
56000W        W27529  10.172  29.119  14.488
56001W        W27530  13.606  14.681  14.226
56002W        W27531   0.963  14.544   4.962
56003W        W27532  12.371   2.313   1.723
56004W        W27533  14.971   9.672  12.034
56005W        W27534  12.228  30.383  10.671
56006W        W27535  25.477   9.789  12.828
56007W        W27536  14.708  31.093  13.026
56008W        W27537   5.072   4.971  12.500
56009W        W27538  17.665  15.122  12.090
56010W        W27539  38.972  28.576   3.257
56011W        W27540  34.333  24.638  12.048
56012W        W27541  29.468  30.478   4.743
56013W        W27542   1.524   3.264   4.238
56014W        W27543  44.466  42.455   0.041
56015W        W27544  11.176   7.593   0.430
56016W        W27545  35.045  27.105   2.690
56017W        W27546   5.302  44.085   4.159
56018W        W27547  30.136  11.829  12.421
56019W        W27548   7.705  39.308   4.142
56020W        W27549  29.885  27.467  10.710
56021W        W27550  33.103  28.167   4.332
56022W        W27551  42.281   3.841   3.680
56023W        W27552  19.552  21.811  13.053
56024W        W27553   0.551  17.268   1.693
56025W        W27554  12.163  23.034  12.099
56026W        W27555  31.626  31.559   1.278
56027W        W27556  27.084   8.123   3.669
56028W        W27557  32.970   7.758   1.894
56029W        W27558  22.677  10.618  10.439
56030W        W27559  10.442  34.357   9.881
56031W        W27560   6.824   3.991   4.060
56032W        W27561  44.750  16.275  12.917
56033W        W27562  25.968  10.364  14.750
56034W        W27563   0.266  36.387   0.237
56035W        W27564  16.781   7.982  13.344
56036W        W27565  12.431   0.996   5.433
56037W        W27566  12.642  40.290   2.408
56038W        W27567   1.704  16.598  13.782
56039W        W27568  34.851  29.396  12.907
56040W        W27569   8.941  38.034   2.979
56041W        W27570  30.931  36.013  13.419
56042W        W27571  13.322  18.727   3.670
56043W        W27572   8.006  16.927   5.049
56044W        W27573  43.453   3.859   2.361
56045W        W27574  13.670   2.629  14.461
56046W        W27575  43.014  37.388  12.872
56047W        W27576  35.322   8.862   1.201
56048W        W27577   8.831   2.975  12.492
56049W        W27578  12.234  19.923   2.879
56050W        W27579  37.025  34.858  11.478
56051W        W27580  16.194  40.573  11.098
56052W        W27581   9.915  18.826  11.533
56053W        W27582  35.310   4.931   1.950
56054W        W27583  17.660  14.294   4.753
56055W        W27584  30.182  18.499   0.429
56056W        W27585  14.236  27.198  10.731
56057W        W27586  15.725  24.206   9.791
56058W        W27587  13.751  37.950   1.724
56059W        W27588  29.105  16.662  12.172
56060W        W27589  23.254  35.024   3.423
56061W        W27590  42.481  41.713   4.861
56062W        W27591  36.947  33.607  14.933
56063W        W27592  43.510  14.613   3.803
56064W        W27593  30.421  32.572  13.971
56065W        W27594  21.317  14.223   3.662
56066W        W27595  26.229   5.806  12.347
56067W        W27596  43.812  25.960  12.626
56068W        W27597  11.834  41.872   4.352
56069W        W27598  34.035  37.992   2.712
56070W        W27599  38.204  33.834  11.809
56071W        W27600  11.893   6.446   1.879
56072W        W27601   1.536  37.935   2.067
56073W        W27602  36.808  32.865  13.030
56074W        W27603  21.052  22.043   1.205
56075W        W27604  32.675  35.729   2.143
56076W        W27605  13.317  17.044   1.348
56077W        W27606  27.570   8.704  10.652
56078W        W27607  37.160  44.381  11.550
56079W        W27608  33.679  38.483  14.489
56080W        W27609   5.229  40.010  13.877
56081W        W27610   2.353  10.731   2.682
56082W        W27611  17.137  18.266   4.175
56083W        W27612  28.966  16.181  13.516
56084W        W27613  14.693   6.821   4.493
56085W        W27614   8.377  21.864   2.357
56086W        W27615  25.285   0.902  12.045
56087W        W27616  38.538   8.816  11.085
56088W        W27617   7.337  28.863  12.587
56089W        W27618   4.833   6.952   3.376
56090W        W27619  16.322  40.765  13.838
56091W        W27620  18.322   5.659   2.760
56092W        W27621  19.218  30.649  14.841
56093W        W27622  11.935  28.180   1.106
56094W        W27623   6.074   7.793   4.853
56095W        W27624   5.653  25.662  11.180
56096W        W27625  38.983  36.376   3.271
56097W        W27626  10.160  13.676  14.009
56098W        W27627  44.707   4.441   3.836
56099W        W27628  11.860  19.824  13.367
56100W        W27629  34.022   0.658   0.321
56101W        W27630   4.394  17.668  12.897
56102W        W27631   5.209  14.777  13.701
56103W        W27632   2.946   3.412   4.055
56104W        W27633  10.238   5.988   3.511
56105W        W27634  35.569  26.720   1.285
56106W        W27635   0.901  30.007  14.149
56107W        W27636  24.559  15.361  13.820
56108W        W27637   2.975  14.972  11.028
56109W        W27638  36.663   6.388   4.200
56110W        W27639  43.326   7.160  13.512
56111W        W27640  36.065   4.059   3.309
56112W        W27641   0.197  17.624  10.753
56113W        W27642  18.666   3.196  11.551
56114W        W27643   7.428  32.359  12.166
56115W        W27644  43.959  36.220  14.225
56116W        W27645  12.418   3.272  13.902
56117W        W27646  27.029  42.998  14.594
56118W        W27647  22.757  27.064   0.378
56119W        W27648  36.922   9.682   0.605
56120W        W27649  41.708   4.658   3.615
56121W        W27650   6.468  27.100  11.024
56122W        W27651  33.512   3.136   0.843
56123W        W27652  39.413  21.667  12.756
56124W        W27653   2.936   0.365   4.045
56125W        W27654  37.538  30.462  11.289
56126W        W27655  23.654  42.588   5.245
56127W        W27656  42.355  27.801  14.842
56128W        W27657  38.534  25.900   0.840
56129W        W27658   0.757  16.853  12.266
56130W        W27659  26.058  20.165  14.467
56131W        W27660  29.025  42.847   1.440
56132W        W27661  44.979  21.326  14.759
56133W        W27662  27.911   4.221   4.115
56134W        W27663   0.102   5.818   3.826
56135W        W27664   9.216  41.600  13.485
56136W        W27665  32.117  25.638  14.825
56137W        W27666  26.209  31.571  10.330
56138W        W27667   3.003  37.538  13.002
56139W        W27668  10.149  22.021   4.432
56140W        W27669  23.756  29.693  11.930
56141W        W27670  31.937   0.197  12.418
56142W        W27671  35.898  37.894   2.381
56143W        W27672  17.479  18.113  10.984
56144W        W27673  23.090  38.685  11.592
56145W        W27674   4.931   5.799  12.000
56146W        W27675  43.730  38.761  11.710
56147W        W27676   0.366  12.729   4.103
56148W        W27677  30.686  38.007  14.432
56149W        W27678  34.355  19.306   2.717
56150W        W27679  44.432  16.648   3.773
56151W        W27680  10.215  11.319   3.227
56152W        W27681  21.461  10.263  10.492
56153W        W27682  42.424   9.629  10.704
56154W        W27683  10.703   7.400   3.828
56155W        W27684   4.304  23.165  12.045
56156W        W27685  19.736  16.457   2.942
56157W        W27686  39.004  29.921   1.347
56158W        W27687   1.494  26.734   4.569
56159W        W27688   9.298  33.150  10.834
56160W        W27689  18.641  31.889   0.912
56161W        W27690  17.214  12.764   1.726
56162W        W27691  13.261  37.089   0.236
56163W        W27692  14.789  12.615   2.145
56164W        W27693  34.891  23.261  14.277
56165W        W27694   3.904   7.338  14.770
56166W        W27695  38.239  41.950   2.420
56167W        W27696  39.288  27.537  14.814
56168W        W27697  10.326  12.964  14.669
56169W        W27698  41.438  22.325  12.123
56170W        W27699  31.759  11.201   3.305
56171W        W27700  25.253  12.321   3.151
56172W        W27701  44.325  37.091  10.612
56173W        W27702   0.577  29.317   4.155
56174W        W27703  14.361  31.145  10.654
56175W        W27704  33.178  24.830   0.898
56176W        W27705  10.075  26.459  11.757
56177W        W27706  37.966  41.560   1.236
56178W        W27707  20.133  38.062  11.530
56179W        W27708   9.482  16.781  12.826
56180W        W27709  12.161   5.380   3.788
56181W        W27710  27.966  15.475  11.524
56182W        W27711  29.603  36.910   4.741
56183W        W27712  13.736  13.601  12.428
56184W        W27713  36.425  44.510   0.957
56185W        W27714  20.754  22.245  12.597
56186W        W27715   0.307   9.633   1.361
56187W        W27716   6.966  34.824   0.446
56188W        W27717  22.806  31.676   4.171
56189W        W27718  19.318  30.974   3.869
56190W        W27719   6.388   0.246  11.237
56191W        W27720  30.873  25.150  13.973
56192W        W27721  26.615  15.520   1.783
56193W        W27722  36.868  21.783  13.020
56194W        W27723   8.863  33.062   4.621
56195W        W27724  29.010  32.718   1.881
56196W        W27725  26.200  13.043  11.563
56197W        W27726  23.159  41.412  10.465
56198W        W27727  38.424  25.574   2.874
56199W        W27728  31.125   1.331  12.036
56200W        W27729  37.799   2.440   1.806
56201W        W27730  21.384  23.131  13.178
56202W        W27731   3.889  43.835   2.062
56203W        W27732  21.722  23.028  13.793
56204W        W27733   4.473  43.017   1.984
56205W        W27734   8.625  23.080  14.758
56206W        W27735  19.743  29.144  12.504
56207W        W27736  11.786  22.897   1.865
56208W        W27737  24.222  41.408  13.386
56209W        W27738  26.727   6.016  13.079
56210W        W27739  14.461  16.620   0.111
56211W        W27740  42.743  40.895  14.787
56212W        W27741   8.620   7.175   1.751
56213W        W27742  19.082  30.314  12.101
56214W        W27743  29.633  38.047  13.156
56215W        W27744  18.490   4.953   0.741
56216W        W27745  23.930   5.791   2.766
56217W        W27746  18.417  32.229  11.015
56218W        W27747  28.399  43.616   4.367
56219W        W27748  40.826  22.376   4.122
56220W        W27749  36.791  22.236   3.278
56221W        W27750  24.979  33.541   0.851
56222W        W27751  41.550  25.252   1.814
56223W        W27752  42.416   6.345   0.497
56224W        W27753  20.544  22.777   0.878
56225W        W27754  29.528  43.322  12.553
56226W        W27755  40.966  28.151   4.672
56227W        W27756  10.157  37.843   4.739
56228W        W27757  15.246   4.348  11.578
56229W        W27758  43.252  35.352  13.602
56230W        W27759   5.189  11.928   4.856
56231W        W27760  40.558  23.396  13.933
56232W        W27761  35.512   4.168  11.606
56233W        W27762   6.994   6.375  11.115
56234W        W27763   2.940  12.211   2.281
56235W        W27764  27.489   1.830  13.066
56236W        W27765  29.980  41.921  14.437
56237W        W27766  16.649   5.492   0.791
56238W        W27767  29.390  37.270   1.058
56239W        W27768  10.377  36.416  11.561
56240W        W27769  37.475  33.356   0.116
56241W        W27770  31.385  13.045  11.989
56242W        W27771   3.926  22.969   4.615
56243W        W27772  40.633  13.386   0.978
56244W        W27773  36.573  34.509   3.732
56245W        W27774   1.002  42.981  14.342
56246W        W27775  13.765   8.148  14.353
56247W        W27776  44.971  22.072  13.235
56248W        W27777  37.752  18.405   1.090
56249W        W27778  40.621  29.550  11.105
56250W        W27779  39.473  20.582   3.434
56251W        W27780  22.494   4.714   4.626
56252W        W27781  25.049  36.527   0.457
56253W        W27782  22.700  19.217  10.648
56254W        W27783  15.303  15.682   0.822
56255W        W27784  15.041  11.074  12.027
56256W        W27785   0.212  11.284  14.963
56257W        W27786  28.034   0.861   5.025
56258W        W27787   0.924   6.662  12.549
56259W        W27788  39.636  28.711  12.543
56260W        W27789  18.113  43.210   4.044
56261W        W27790  26.258  15.074   4.686
56262W        W27791  41.839   8.293  12.821
56263W        W27792  39.409  11.410  14.296
56264W        W27793   6.915   5.955   2.271
56265W        W27794  39.815  17.308   0.840
56266W        W27795  23.272  39.513  11.370
56267W        W27796  16.614   0.162   0.422
56268W        W27797   9.143   6.891  11.575
56269W        W27798  37.941   1.788   4.000
56270W        W27799  41.077  23.412  13.981
56271W        W27800  43.114  43.113   3.651
56272W        W27801  20.879   9.801  13.816
56273W        W27802   7.913  34.063   0.948
56274W        W27803   1.228   7.841  14.400
56275W        W27804  42.878  30.234   3.093
56276W        W27805  40.407  44.791  14.793
56277W        W27806  22.553   1.765  10.447
56278W        W27807  10.385   5.800  12.553
56279W        W27808  16.126   2.906   2.584
56280W        W27809  34.367  10.699  13.514
56281W        W27810  15.746   2.442  11.090
56282W        W27811  23.135  10.317  11.893
56283W        W27812  27.121   5.621  14.784
56284W        W27813  39.290   2.199   3.549
56285W        W27814  20.521  40.172   0.397
56286W        W27815  35.991  21.678   0.840
56287W        W27816   6.722  43.547  13.490
56288W        W27817  23.326  22.081   0.546
56289W        W27818  12.060  19.832  14.916
56290W        W27819  30.962  11.807   0.031
56291W        W27820  42.936  21.175  12.858
56292W        W27821  10.842  15.684   0.411
56293W        W27822  43.227   0.432  13.854
56294W        W27823  20.208  22.315   0.684
56295W        W27824  15.211   3.883   3.687
56296W        W27825  44.324  40.411  10.891
56297W        W27826  25.326  22.536  12.589
56298W        W27827  39.040  26.570   0.176
56299W        W27828   9.167  11.160  13.500
56300W        W27829  10.261   8.666  11.383
56301W        W27830  39.036   2.365   2.270
56302W        W27831  20.782  11.076  13.596
56303W        W27832  27.496  22.839   3.807
56304W        W27833  22.924  27.951   3.946
56305W        W27834  13.366  14.314  14.937
56306W        W27835  39.058  19.680  14.681
56307W        W27836  30.432   0.030  14.913
56308W        W27837  10.676  18.506  14.328
56309W        W27838   6.252  14.122  11.863
56310W        W27839  14.845  32.351   4.826
56311W        W27840   8.467   8.826   2.355
56312W        W27841  15.384  41.313  12.127
56313W        W27842  24.309  44.394   1.157
56314W        W27843   7.236  22.478   3.542
56315W        W27844  19.980  16.434  12.057
56316W        W27845  39.869  41.646   4.521
56317W        W27846  14.783  42.345   4.578
56318W        W27847  38.945   3.481   3.175
56319W        W27848  12.636  34.679  13.961
56320W        W27849  44.929   0.843   4.888
56321W        W27850  30.711  16.228  12.503
56322W        W27851  40.335   4.764  13.827
56323W        W27852  15.112  14.251   3.881
56324W        W27853  16.059  15.637   4.200
56325W        W27854   6.572  26.689   4.048
56326W        W27855  29.439  30.429  14.717
56327W        W27856  14.850  23.195   2.392
56328W        W27857  10.322  35.387   4.504
56329W        W27858   0.738  11.202   3.898
56330W        W27859  40.430  20.268   2.616
56331W        W27860  35.812  14.243   4.579
56332W        W27861  36.600   9.355  12.720
56333W        W27862   7.416  20.242   1.400
56334W        W27863  36.555  27.341   4.221
56335W        W27864  24.024  33.360   3.670
56336W        W27865  26.692  22.669  13.640
56337W        W27866   3.859  34.975   1.260
56338W        W27867   6.020  26.496   1.116
56339W        W27868  20.584  15.266   0.269
56340W        W27869  42.257  33.108  14.491
56341W        W27870   8.830  37.851   4.404
56342W        W27871  38.908  44.400   2.303
56343W        W27872   1.546  43.772   4.470
56344W        W27873  43.271   7.061  14.504
56345W        W27874  16.712  17.246  13.343
56346W        W27875  29.558  17.285   1.744
56347W        W27876  24.283  26.556  14.811
56348W        W27877  33.957   7.457   1.851
56349W        W27878  23.422  21.312  13.423
56350W        W27879  34.129  30.900  13.510
56351W        W27880   0.753  16.254   3.632
56352W        W27881   6.801  41.458   1.236
56353W        W27882   2.229  15.517   4.509
56354W        W27883   7.113  21.187  13.053
56355W        W27884  28.982  26.960   0.287
56356W        W27885  20.605  44.074   0.629
56357W        W27886   0.537   4.462   4.270
56358W        W27887   1.191   2.885   1.728
56359W        W27888   4.184  23.748   4.081
56360W        W27889   3.025  16.133   1.371
56361W        W27890   4.887  27.307  12.405
56362W        W27891  35.048   5.679   2.416
56363W        W27892  32.866  25.731   0.819
56364W        W27893  29.529  19.349   4.143
56365W        W27894  10.012  27.632   0.235
56366W        W27895   2.386   0.446   1.270
56367W        W27896  31.467  10.716   0.211
56368W        W27897   5.596  23.486  14.755
56369W        W27898  40.924  42.355   3.888
56370W        W27899   6.340   7.353   1.779
56371W        W27900   2.509  28.659   0.423
56372W        W27901  19.322  36.420   0.408
56373W        W27902   1.867  22.640  12.845
56374W        W27903  35.554  14.920  11.227
56375W        W27904   3.817   0.036   1.336
56376W        W27905  10.685  12.445   2.645
56377W        W27906  27.939   8.282   2.367
56378W        W27907  23.630  13.391   2.932
56379W        W27908  38.006  30.045  10.686
56380W        W27909  12.242   6.593  10.733
56381W        W27910  13.440   2.424  13.429
56382W        W27911  38.139  40.393  13.332
56383W        W27912   9.557  25.376  13.465
56384W        W27913  30.358   1.252   4.215
56385W        W27914   7.893  29.694   4.293
56386W        W27915   1.971  35.420   0.233
56387W        W27916  37.832  25.102   3.563
56388W        W27917  37.058  35.551  10.648
56389W        W27918  34.254  33.986   3.110
56390W        W27919  17.371  41.009  11.601
56391W        W27920   6.682  14.429   2.771
56392W        W27921  26.883   3.361   0.848
56393W        W27922   5.933  38.905   1.502
56394W        W27923  17.974  37.517   1.044
56395W        W27924  21.231  28.123  12.580
56396W        W27925  26.047  33.793  12.566
56397W        W27926  20.195  19.595   0.343
56398W        W27927  22.015  30.233  14.855
56399W        W27928  13.521  30.963  12.348
56400W        W27929   1.494  17.279   3.321
56401W        W27930  32.876  31.484   1.364
56402W        W27931  33.881  35.426  14.821
56403W        W27932  30.220  23.137  13.411
56404W        W27933  36.112   8.593   0.297
56405W        W27934  26.133  29.820  12.556
56406W        W27935  38.522  14.840  13.625
56407W        W27936  26.587  11.305   4.124
56408W        W27937  31.822  38.004  11.479
56409W        W27938  28.905  40.104   0.739
56410W        W27939  15.624  26.673   5.044
56411W        W27940  34.407  20.531   1.381
56412W        W27941   2.524  19.748  10.331
56413W        W27942  39.124  22.506   0.354
56414W        W27943   9.319  38.358   3.180
56415W        W27944   6.220  12.246   2.682
56416W        W27945  22.364  21.675  10.053
56417W        W27946  29.997  20.327  14.310
56418W        W27947  35.035  17.160   2.067
56419W        W27948   5.156  33.298  12.123
56420W        W27949  43.420  42.953  14.009
56421W        W27950   8.788  34.678  13.804
56422W        W27951  41.746  29.090  14.328
56423W        W27952  20.420  42.865   1.015
56424W        W27953  37.153   2.575  13.960
56425W        W27954  40.804  11.182  12.094
56426W        W27955   2.302  26.157  12.568
56427W        W27956  31.845   0.406   1.982
56428W        W27957  15.385  25.507   4.289
56429W        W27958  13.294  13.486   1.712
56430W        W27959  13.727  31.944  14.888
56431W        W27960  33.537   3.213   3.711
56432W        W27961   9.528  24.564  11.121
56433W        W27962  19.153  39.266   9.711
56434W        W27963   7.493  23.051   0.771
56435W        W27964   2.097  19.110   1.874
56436W        W27965  23.649  37.987   0.247
56437W        W27966  21.680  16.307  13.509
56438W        W27967  44.270  26.625  14.419
56439W        W27968  38.492  30.099  13.453
56440W        W27969  22.589   1.224   1.285
56441W        W27970  25.524  13.824  12.424
56442W        W27971  12.352   6.277  11.938
56443W        W27972   6.513  23.052   0.815
56444W        W27973   5.851  30.943  13.519
56445W        W27974  36.801  23.543   0.863
56446W        W27975  43.021  28.407  10.774
56447W        W27976   0.589  40.840  13.088
56448W        W27977  32.419  23.409   2.680
56449W        W27978  26.746  15.116   4.498
56450W        W27979  12.147  32.661  13.523
56451W        W27980   3.820   9.232   0.601
56452W        W27981  42.931  35.434   4.421
56453W        W27982  33.517   6.521  14.010
56454W        W27983  36.659   6.363  14.404
56455W        W27984   3.021   2.439  14.178
56456W        W27985  10.426  30.077  14.740
56457W        W27986  25.675  35.615  12.532
56458W        W27987  24.683   5.855  14.454
56459W        W27988  39.920  36.387  10.372
56460W        W27989  33.171  33.929   1.308
56461W        W27990  14.577  22.861   4.145
56462W        W27991   0.912  10.628  12.155
56463W        W27992  30.168  20.833   0.087
56464W        W27993  36.002  23.821   4.960
56465W        W27994  15.497  23.039  14.519
56466W        W27995   1.814  30.007  10.810
56467W        W27996  12.313  10.269   1.156
56468W        W27997  11.169  32.330   1.817
56469W        W27998  41.318  33.527   3.760
56470W        W27999  38.887   2.022  12.178
56471W        W28000  16.553  31.970  14.457
56472W        W28001   7.379   2.306   2.783
56473W        W28002  37.573  15.081   3.789
56474W        W28003  18.276  21.119   1.485
56475W        W28004  34.431  40.975  11.226
56476W        W28005  14.534  41.554   2.813
56477W        W28006  22.145   5.397  10.316
56478W        W28007   8.119  38.484   1.461
56479W        W28008  33.610   2.722   3.591
56480W        W28009   7.469  28.212   1.254
56481W        W28010  20.243  36.726  11.994
56482W        W28011  38.936  11.743  11.691
56483W        W28012  22.655   5.897   0.261
56484W        W28013  41.711  29.663   4.899
56485W        W28014  16.122   1.736   3.632
56486W        W28015  40.785   2.919   0.689
56487W        W28016  43.251  15.339  11.601
56488W        W28017  34.895  10.211   1.322
56489W        W28018  36.999   9.078   3.413
56490W        W28019  41.100   0.747   2.317
56491W        W28020  23.953  11.644  11.158
56492W        W28021  29.694  40.045  11.584
56493W        W28022   2.316  28.676  14.051
56494W        W28023   9.341   1.200  12.422
56495W        W28024  37.050   3.066  14.783
56496W        W28025  11.705  36.954  10.155
56497W        W28026   7.896  15.072  10.748
56498W        W28027  38.904   8.336  13.021
56499W        W28028  34.368  23.355   0.920
56500W        W28029  28.212  34.409  14.855
56501W        W28030  23.255   7.887   2.790
56502W        W28031  38.486  41.474  12.403
56503W        W28032   3.987  39.573   0.818
56504W        W28033  34.149   9.758   2.340
56505W        W28034  38.583  35.995   1.879
56506W        W28035  12.114  12.526  11.695
56507W        W28036  39.461  32.685   4.549
56508W        W28037  23.952  13.777   0.711
56509W        W28038   8.550  34.023   1.738
56510W        W28039  42.088  12.295  11.488
56511W        W28040  23.619   5.872   0.379
56512W        W28041  22.848  20.876   4.663
56513W        W28042  23.047  28.858  13.584
56514W        W28043   2.694  15.287   3.657
56515W        W28044  13.071   5.313   0.754
56516W        W28045  39.176   8.551   0.360
56517W        W28046  20.362  18.740   4.554
56518W        W28047   3.756  32.217  12.597
56519W        W28048  26.092   5.002  13.480
56520W        W28049  20.273  36.004  11.299
56521W        W28050   0.722  39.394  14.143
56522W        W28051   9.745  43.373   4.568
56523W        W28052  33.975  42.944  10.698
56524W        W28053  39.603   5.321  13.401
56525W        W28054  27.020  11.462   0.726
56526W        W28055  44.190  41.228   2.380
56527W        W28056  25.974  23.658  12.458
56528W        W28057  35.993   5.919   0.829
56529W        W28058  38.293  37.903   4.224
56530W        W28059  15.347   7.247   4.078
56531W        W28060   3.345  34.380  14.939
56532W        W28061  15.973   1.998  11.080
56533W        W28062  29.116  42.440  13.491
56534W        W28063   0.279   1.247  14.076
56535W        W28064  16.146  34.031   2.673
56536W        W28065  10.872   9.619   3.386
56537W        W28066  23.209  38.472   3.155
56538W        W28067  21.736  41.431  13.803
56539W        W28068  20.742   9.544  10.622
56540W        W28069  19.195   3.711  12.454
56541W        W28070  15.040  14.697   1.600
56542W        W28071   9.261  12.802   3.691
56543W        W28072  35.868  33.433   4.789
56544W        W28073  17.657  29.585  12.004
56545W        W28074  43.439   5.873  12.624
56546W        W28075  25.011  43.012  12.787
56547W        W28076  37.261  18.709   4.552
56548W        W28077   7.759   3.426   2.241
56549W        W28078  32.188  13.578   1.378
56550W        W28079   1.467  45.000  12.871
56551W        W28080  23.455  23.691   3.658
56552W        W28081   5.074  18.656   3.369
56553W        W28082   5.744  15.684  14.526
56554W        W28083  28.579   9.706   0.749
56555W        W28084  15.043  40.922   3.139
56556W        W28085   9.308   5.680  13.291
56557W        W28086   6.425   6.770  12.031
56558W        W28087  43.588   4.358   2.314
56559W        W28088  35.906  36.583   4.110
56560W        W28089  42.757   1.704   4.287
56561W        W28090  26.049  31.596   1.185
56562W        W28091   1.207  18.710  12.315
56563W        W28092   9.168   0.676   1.318
56564W        W28093  44.502   6.804   3.211
56565W        W28094  28.226  37.076  11.477
56566W        W28095  37.514  17.757  10.724
56567W        W28096  23.702  27.233   4.547
56568W        W28097  29.018  29.425   3.208
56569W        W28098  15.787   5.859   0.709
56570W        W28099   4.913   2.717   3.793
56571W        W28100  14.349  26.857   3.706
56572W        W28101  12.637  37.342   1.413
56573W        W28102  30.959   3.842  12.211
56574W        W28103  44.385  11.052   4.190
56575W        W28104  31.705  15.978   0.914
56576W        W28105  31.020  32.514   4.545
56577W        W28106  14.282  22.258   3.302
56578W        W28107   8.348   4.407   0.462
56579W        W28108  19.600  13.316   4.272
56580W        W28109   1.804   6.442  12.048
56581W        W28110  39.127  19.786   0.879
56582W        W28111  33.565  14.800  11.407
56583W        W28112  42.755   5.251  13.492
56584W        W28113   5.790   6.081  12.585
56585W        W28114  31.201  18.238  12.580
56586W        W28115  15.677  29.924  11.954
56587W        W28116  15.707  13.750  11.431
56588W        W28117   6.723   2.677   3.805
56589W        W28118   4.964  15.159  13.405
56590W        W28119  40.348  29.336   0.992
56591W        W28120   8.028  36.843   0.701
56592W        W28121  11.183  24.227  12.009
56593W        W28122  37.805  16.047   4.093
56594W        W28123  27.465  34.908   0.297
56595W        W28124  34.648   5.023   0.742
56596W        W28125  15.141  41.495  11.349
56597W        W28126  29.002   8.848  11.474
56598W        W28127  15.223  33.397   2.250
56599W        W28128  11.402   6.772  14.581
56600W        W28129  41.705  33.066   2.346
56601W        W28130   4.773  40.953   4.550
56602W        W28131  13.102  29.430   4.050
56603W        W28132  29.282  24.152  13.825
56604W        W28133  39.048  21.549  11.043
56605W        W28134   1.792  26.824  10.055
56606W        W28135   9.362  19.479   1.761
56607W        W28136   5.890  39.674  14.614
56608W        W28137  14.849  13.547  10.630
56609W        W28138  28.187   4.662   0.879
56610W        W28139  34.500  43.414   0.949
56611W        W28140  27.524   7.700  13.102
56612W        W28141   0.553  31.430  14.474
56613W        W28142  30.835  37.093   1.736
56614W        W28143  23.549  18.202  14.140
56615W        W28144  33.731  30.885  14.973
56616W        W28145  43.049   7.904   2.288
56617W        W28146  41.400   4.350  12.923
56618W        W28147  28.395  25.737  11.592
56619W        W28148   7.788   0.982  12.796
56620W        W28149  10.612  44.249  12.121
56621W        W28150   8.811   6.392  14.014
56622W        W28151  10.276  30.733   3.683
56623W        W28152   5.448  41.385  12.128
56624W        W28153  12.731   1.807  14.336
56625W        W28154  23.443   5.780  11.550
56626W        W28155  29.957  16.772  11.069
56627W        W28156   3.966  12.660  13.944
56628W        W28157  38.346  20.280  11.865
56629W        W28158  19.159  23.495  13.823
56630W        W28159  10.902  28.793  11.186
56631W        W28160  39.720  40.368   0.291
56632W        W28161  23.217   5.857  11.114
56633W        W28162  22.206  18.563   4.176
56634W        W28163   8.777  17.802   3.142
56635W        W28164  34.613  30.633   2.630
56636W        W28165  21.781   5.769  13.552
56637W        W28166  20.676   3.800   3.643
56638W        W28167   7.320   3.681   2.369
56639W        W28168  37.905  13.830  13.169
56640W        W28169  30.580  24.850  12.668
56641W        W28170  37.537  11.324   1.417
56642W        W28171  11.288  28.430   2.395
56643W        W28172  25.707  41.085   0.496
56644W        W28173  40.333   0.849  14.997
56645W        W28174   7.831  37.135  12.046
56646W        W28175  18.051   7.337   4.715
56647W        W28176  39.048   7.377   1.908
56648W        W28177  12.296  32.246  14.275
56649W        W28178  27.193  27.613   3.739
56650W        W28179  31.369  12.244  11.078
56651W        W28180  36.400  10.754   4.157
56652W        W28181  23.476  24.806   1.063
56653W        W28182  13.729  28.684   2.840
56654W        W28183   7.280  10.236  11.146
56655W        W28184  35.740  33.886  12.013
56656W        W28185  44.514  38.499  10.338
56657W        W28186   3.740  21.189  11.825
56658W        W28187  12.823  34.870  12.606
56659W        W28188  10.861   5.907  12.802
56660W        W28189  43.833   6.307   3.669
56661W        W28190  38.473  44.971   1.232
56662W        W28191  26.640  44.879   3.340
56663W        W28192  13.563  20.181  13.009
56664W        W28193  26.153   8.420  10.794
56665W        W28194  17.468   1.836   2.434
56666W        W28195  28.123  44.181   4.094
56667W        W28196  37.879  15.750   2.340
56668W        W28197  12.159   8.846   3.253
56669W        W28198  43.021   6.761   1.500
56670W        W28199  35.283  36.867   2.159
56671W        W28200   0.772  29.956  14.653
56672W        W28201   7.046  39.896   4.903
56673W        W28202  23.460  31.540  10.732
56674W        W28203   6.446  43.042  12.920
56675W        W28204  30.424  13.061  13.562
56676W        W28205  42.787  37.684   0.394
56677W        W28206   5.921  15.578   2.105
56678W        W28207  40.923  27.102   0.986
56679W        W28208  11.400  37.129   3.476
56680W        W28209  40.044  19.125   0.308
56681W        W28210  22.186  23.429   3.290
56682W        W28211  22.540   4.349  14.503
56683W        W28212   2.251  14.164   2.289
56684W        W28213  34.927  44.502  11.102
56685W        W28214  10.419  20.123  14.956
56686W        W28215  39.666  21.067   2.723
56687W        W28216  35.650  38.550  10.700
56688W        W28217  42.439  19.793   5.012
56689W        W28218  21.298  30.164   4.675
56690W        W28219  38.911  20.577   0.629
56691W        W28220  43.159   0.485  11.590
56692W        W28221  44.006  44.043   4.765
56693W        W28222  13.159  14.869  12.904
56694W        W28223  39.824  10.314  13.856
56695W        W28224  15.571  40.421  10.570
56696W        W28225  43.204  20.923  12.452
56697W        W28226   4.868   2.940  14.954
56698W        W28227  19.257   8.141  11.167
56699W        W28228  41.863  43.910   1.951
56700W        W28229  22.700  35.290   0.389
56701W        W28230  44.219  26.690  13.568
56702W        W28231  28.623   5.770  13.099
56703W        W28232  11.140  24.394  10.803
56704W        W28233   7.879  41.616  11.131
56705W        W28234  37.299   4.370  14.683
56706W        W28235  27.925  21.628   0.335
56707W        W28236  36.232  16.032   1.629
56708W        W28237  10.712  30.719  13.536
56709W        W28238  31.141   4.165  14.865
56710W        W28239   4.771  24.069  14.533
56711W        W28240   4.958  26.566   9.979
56712W        W28241  38.971   4.306  12.892
56713W        W28242  40.933  26.287  12.558
56714W        W28243  28.599  42.304  11.183
56715W        W28244   7.799   9.644  12.020
56716W        W28245  39.880   7.819  13.834
56717W        W28246  13.285  44.167  14.915
56718W        W28247  41.056  37.293  14.043
56719W        W28248  39.019  31.128   1.849
56720W        W28249   0.595   9.300   2.642
56721W        W28250  20.944  38.182  10.238
56722W        W28251   0.524  39.327   4.104
56723W        W28252  31.907  15.589  13.489
56724W        W28253  24.959  44.752  13.867
56725W        W28254  33.922  26.953   1.248
56726W        W28255  40.730  38.325   3.982
56727W        W28256  12.200  37.488  11.258
56728W        W28257   2.721  44.819   3.925
56729W        W28258  12.065  17.970  13.537
56730W        W28259  35.508  17.219   4.918
56731W        W28260  36.559  30.612   2.331
56732W        W28261  26.578  42.693   2.329
56733W        W28262  34.980  24.674  11.294
56734W        W28263  15.806  29.704   0.824
56735W        W28264  29.768  20.499   4.979
56736W        W28265  38.960  21.025  14.913
56737W        W28266  30.594   4.736   0.836
56738W        W28267  10.904  32.404   4.679
56739W        W28268  42.754  38.976   2.836
56740W        W28269  30.211  25.748  11.515
56741W        W28270   0.892  21.004  14.807
56742W        W28271  11.563  39.591  11.532
56743W        W28272  12.435  31.384  13.044
56744W        W28273  20.495   8.972  13.910
56745W        W28274  16.982  29.165   1.276
56746W        W28275  11.267  18.570   3.224
56747W        W28276  23.607  20.263   1.235
56748W        W28277  28.624  40.035  13.753
56749W        W28278  28.605  44.300  14.569
56750W        W28279  18.195   1.489   2.622
56751W        W28280  11.231  24.520   3.662
56752W        W28281   2.828   6.837   1.173
56753W        W28282  41.373  43.832  11.300
56754W        W28283  34.248  31.210  12.132
56755W        W28284   5.832  43.717  10.768
56756W        W28285   0.478  41.672  13.464
56757W        W28286  37.699  15.329   1.143
56758W        W28287  26.585   9.723   3.244
56759W        W28288  19.056  13.513  14.832
56760W        W28289  31.351  24.325   4.010
56761W        W28290   1.444   2.749   1.272
56762W        W28291   1.010   1.341   9.888
56763W        W28292  24.960  39.279   0.501
56764W        W28293  35.951  27.719   1.964
56765W        W28294  28.963  29.632  14.974
56766W        W28295  43.268  44.956   1.738
56767W        W28296   7.758   1.808  11.229
56768W        W28297   8.395  21.545  10.657
56769W        W28298   0.366  23.681  14.875
56770W        W28299  21.469  16.027   3.774
56771W        W28300  15.553  44.179   1.889
56772W        W28301  43.835  17.366  14.981
56773W        W28302  10.708  44.526  14.884
56774W        W28303  14.127   5.935  12.048
56775W        W28304  20.333  27.107   1.269
56776W        W28305  26.380  14.896  11.493
56777W        W28306  35.960  14.093  12.508
56778W        W28307  13.603  14.396  12.099
56779W        W28308  43.301  19.574   3.827
56780W        W28309  37.034  14.698   1.804
56781W        W28310  38.754   2.505  12.267
56782W        W28311  35.469   1.398  10.603
56783W        W28312  23.570  31.903  12.981
56784W        W28313  33.163  43.918  11.071
56785W        W28314  18.214  22.731  14.427
56786W        W28315  38.914  33.178   3.326
56787W        W28316  41.462  27.508   1.460
56788W        W28317  44.495  11.283  13.981
56789W        W28318  21.659   9.265   4.591
56790W        W28319  44.803  35.984   4.389
56791W        W28320  24.028  16.782   0.261
56792W        W28321   4.737  42.843   0.168
56793W        W28322  13.766   9.738  13.661
56794W        W28323  32.506  40.076  13.178
56795W        W28324  14.013  36.127   2.685
56796W        W28325  37.571   6.658  13.434
56797W        W28326  30.695   8.715  12.443
56798W        W28327  20.677  32.053  10.757
56799W        W28328  33.065  20.171  13.479
56800W        W28329  16.302   3.298   1.790
56801W        W28330  41.434  31.828   0.343
56802W        W28331   6.352   0.569  11.632
56803W        W28332   9.385  36.496   1.382
56804W        W28333  42.458  33.359  10.150
56805W        W28334  40.090  27.584   4.515
56806W        W28335  15.617  14.180  13.493
56807W        W28336   6.835  30.489   1.675
56808W        W28337  24.475  17.029  12.073
56809W        W28338  21.015  20.993   2.140
56810W        W28339  40.390  26.718   3.530
56811W        W28340  31.244  22.021  14.894
56812W        W28341   5.726  10.158   0.287
56813W        W28342  26.149   2.442   0.485
56814W        W28343   7.555  17.443  14.413
56815W        W28344  37.968  19.980  11.717
56816W        W28345  31.303  43.996   4.277
56817W        W28346   3.247  27.107   2.769
56818W        W28347  16.281   6.420  11.557
56819W        W28348  44.632   3.304   2.417
56820W        W28349  24.044  32.464   4.775
56821W        W28350  16.143  43.305  10.711
56822W        W28351  31.888  31.096  12.480
56823W        W28352  35.468  18.284  14.092
56824W        W28353   6.861  34.151   4.830
56825W        W28354  18.229  35.636  14.804
56826W        W28355   5.838   6.137   0.812
56827W        W28356   2.350   7.836   1.835
56828W        W28357  10.802  24.665  14.342
56829W        W28358  14.225  31.393  11.148
56830W        W28359  27.142  11.583   4.748
56831W        W28360   3.952  19.493  14.258
56832W        W28361  43.488  33.018  13.690
56833W        W28362  29.617  21.238   3.883
56834W        W28363  35.917  21.078  10.690
56835W        W28364  17.153  26.672   4.615
56836W        W28365  41.337  23.865   1.307
56837W        W28366  34.522  23.021  11.546
56838W        W28367  13.211  12.589   4.164
56839W        W28368  39.303  24.470   2.784
56840W        W28369  27.865  28.036   1.187
56841W        W28370  15.586  13.496   0.210
56842W        W28371  22.048  43.428  10.551
56843W        W28372  16.137  23.236  13.927
56844W        W28373   4.343  19.596  10.695
56845W        W28374  22.444  14.092  11.480
56846W        W28375  30.203  39.323  13.514
56847W        W28376  17.346  26.166   4.850
56848W        W28377  39.127  13.435   0.810
56849W        W28378   3.941  29.116  11.000
56850W        W28379  16.900  41.548   2.178
56851W        W28380  44.449  38.822  13.894
56852W        W28381  10.493  36.833   3.248
56853W        W28382  32.162  24.078   3.226
56854W        W28383  11.096   2.720   0.247
56855W        W28384  18.510  38.448  13.862
56856W        W28385  40.006  29.050  11.464
56857W        W28386   2.493  28.036  13.359
56858W        W28387  36.119  16.558  13.962
56859W        W28388  18.580  15.216   4.445
56860W        W28389  28.081  35.993   4.614
56861W        W28390  39.330  30.427   1.855
56862W        W28391  31.960  23.244   4.191
56863W        W28392   2.208  26.485   9.984
56864W        W28393  17.330  21.474  12.243
56865W        W28394  30.875  26.218  11.419
56866W        W28395   9.003  16.435  12.424
56867W        W28396  39.355  21.498   1.365
56868W        W28397   0.419  28.941   0.808
56869W        W28398  21.683   2.816   2.156
56870W        W28399  38.572  10.624   3.564
56871W        W28400  25.629   3.641  12.449
56872W        W28401  18.242  43.680   4.194
56873W        W28402   1.884   5.436  14.797
56874W        W28403  17.616  32.601  13.344
56875W        W28404  42.591  36.077  13.592
56876W        W28405  37.583   6.132  13.522
56877W        W28406  37.924  15.950  11.916
56878W        W28407   0.232  27.564   4.564
56879W        W28408  37.927   0.010  13.076
56880W        W28409  36.325  42.991  12.040
56881W        W28410   6.840  40.121  12.424
56882W        W28411   7.794   3.613   4.861
56883W        W28412  35.471  42.742  11.143
56884W        W28413   9.647   2.437  14.832
56885W        W28414  16.119  36.975   4.684
56886W        W28415   5.935  17.590   1.375
56887W        W28416  22.687  21.782  14.234
56888W        W28417  26.622   7.758  14.724
56889W        W28418  15.068   9.912  12.487
56890W        W28419   6.454   0.083  11.701
56891W        W28420   4.230  14.076   1.810
56892W        W28421  10.733   3.637  13.542
56893W        W28422  20.879   5.179   0.808
56894W        W28423  25.991  20.216  14.975
56895W        W28424  10.762  16.942   3.671
56896W        W28425  23.125   0.444   0.363
56897W        W28426  23.093   0.267  13.860
56898W        W28427   0.028  15.160   2.382
56899W        W28428  30.971  21.801   0.949
56900W        W28429  11.214  25.673   1.720
56901W        W28430  41.894  11.843  13.567
56902W        W28431  27.889  22.871  12.084
56903W        W28432   3.125  42.940  13.450
56904W        W28433  41.256  16.214  14.304
56905W        W28434  28.086   5.426   1.302
56906W        W28435  44.769   5.732  11.103
56907W        W28436  22.325  17.549   4.223
56908W        W28437   5.152  37.234   4.945
56909W        W28438  41.685   6.817   0.171
56910W        W28439  38.943  32.378   0.759
56911W        W28440  36.967  16.308   0.315
56912W        W28441  22.584  17.701   2.676
56913W        W28442  34.443  24.740   4.613
56914W        W28443   4.777  35.439   2.147
56915W        W28444   0.652  28.608  14.425
56916W        W28445   2.775  11.435  11.070
56917W        W28446   2.963  10.212  13.044
56918W        W28447  43.018   9.958  10.607
56919W        W28448   4.730  14.683  13.491
56920W        W28449  20.536  31.294   0.741
56921W        W28450   7.682  38.905  11.182
56922W        W28451  41.757  34.936   1.121
56923W        W28452  18.682  32.402  11.442
56924W        W28453  17.440  24.160   3.732
56925W        W28454   0.158  12.241   3.678
56926W        W28455   9.580   1.037  10.279
56927W        W28456  43.847  35.092   1.320
56928W        W28457   0.971  30.929   3.363
56929W        W28458   1.926  23.069   4.542
56930W        W28459  24.128  24.100  13.484
56931W        W28460  24.649  28.822  13.920
56932W        W28461  36.744  43.368   1.444
56933W        W28462  23.860  10.704   1.788
56934W        W28463  43.851  43.099   0.792
56935W        W28464  30.258  21.737  12.598
56936W        W28465  33.337   5.402  11.601
56937W        W28466  21.754  33.412  12.041
56938W        W28467  24.073  11.993  10.813
56939W        W28468  24.658  18.275  12.584
56940W        W28469  11.737  28.685   2.549
56941W        W28470  14.520   1.766  11.094
56942W        W28471  22.285  17.556   3.329
56943W        W28472  32.916  43.435  11.140
56944W        W28473  11.303  19.690   4.561
56945W        W28474  42.480   9.589   3.838
56946W        W28475  39.844   2.044  11.213
56947W        W28476  35.602  12.229  14.770
56948W        W28477  26.524  40.572  13.622
56949W        W28478   9.283   3.168   1.227
56950W        W28479  12.781   9.192  14.493
56951W        W28480  18.254  35.512   0.843
56952W        W28481   7.929  28.410   4.625
56953W        W28482  15.853   8.203   0.288
56954W        W28483   5.353  37.982   0.355
56955W        W28484  36.442  13.992   3.413
56956W        W28485  36.998  10.144  11.920
56957W        W28486  32.601  12.397   1.602
56958W        W28487  24.024  25.508  11.416
56959W        W28488   6.779  14.825  12.066
56960W        W28489  40.832  16.954  12.155
56961W        W28490  12.572  35.098  12.218
56962W        W28491  19.526  19.804  12.458
56963W        W28492  44.298  36.671  11.087
56964W        W28493  36.828  23.431  10.971
56965W        W28494   7.299  17.322   1.446
56966W        W28495  36.905  25.621  11.540
56967W        W28496  19.512  16.656  13.985
56968W        W28497  40.287  38.836   1.250
56969W        W28498  10.852  11.561   1.309
56970W        W28499  40.717  36.996  14.300
56971W        W28500  20.317  11.323  13.612
56972W        W28501  27.418  37.943  13.904
56973W        W28502   3.820  39.057   0.667
56974W        W28503  35.817   3.842   0.957
56975W        W28504   1.988  43.504   2.618
56976W        W28505  21.304  43.703   1.968
56977W        W28506  24.487   6.877   1.565
56978W        W28507   8.809   0.515  10.160
56979W        W28508   1.701  44.764   3.206
56980W        W28509  41.750  34.026  10.733
56981W        W28510   4.930  33.609   1.203
56982W        W28511  14.851  13.505   0.842
56983W        W28512  34.408   3.443   3.177
56984W        W28513  31.058  42.305   3.205
56985W        W28514  33.668  30.948   0.518
56986W        W28515   0.258  34.255  12.919
56987W        W28516  24.660  22.318   3.022
56988W        W28517  10.135  34.920  12.110
56989W        W28518  14.908  14.024   0.875
56990W        W28519  36.760  35.124   3.635
56991W        W28520  28.622  15.235  14.543
56992W        W28521  17.603   4.737   4.371
56993W        W28522  42.780  42.278  11.598
56994W        W28523  38.972  14.736  12.520
56995W        W28524  44.811   7.306  11.865
56996W        W28525   5.441  34.359  13.405
56997W        W28526  34.660   4.812  11.581
56998W        W28527  28.613  15.516  11.187
56999W        W28528  32.992  24.647   0.452
57000W        W28529   2.687   4.670   1.873
57001W        W28530   4.878  19.949   2.294
57002W        W28531  21.145  12.682  11.909
57003W        W28532   3.815   1.238  13.875
57004W        W28533  18.141   1.421   4.619
57005W        W28534  32.162  35.478   2.762
57006W        W28535  39.617  24.401  14.539
57007W        W28536  33.011  35.984  12.518
57008W        W28537  22.539  28.562   3.159
57009W        W28538  44.938   0.889   0.393
57010W        W28539  22.713  14.397  13.259
57011W        W28540  24.990  37.422   0.406
57012W        W28541  23.814  24.451  13.740
57013W        W28542  11.735  44.334  11.530
57014W        W28543  32.791  25.446   0.371
57015W        W28544  40.030  22.319  11.237
57016W        W28545   1.505   1.668   1.581
57017W        W28546  28.063  22.391   5.117
57018W        W28547  33.315  25.575  13.047
57019W        W28548   6.274   9.504   2.736
57020W        W28549  19.239  28.022   2.742
57021W        W28550  29.797   4.803   4.491
57022W        W28551   4.575  41.383   3.789
57023W        W28552  27.466  42.814  14.817
57024W        W28553   2.668  23.247   1.791
57025W        W28554  40.044  31.983   4.863
57026W        W28555  19.488  42.530  11.019
57027W        W28556  31.698  39.241   0.858
57028W        W28557  32.637  27.179   3.711
57029W        W28558  13.537  37.792  12.889
57030W        W28559   8.206  37.908  13.351
57031W        W28560  23.401   9.385   4.137
57032W        W28561  28.189  33.523  14.984
57033W        W28562   6.107  13.582  12.925
57034W        W28563  18.796  27.853   2.459
57035W        W28564  11.304   0.547  13.845
57036W        W28565  32.433  43.771   1.872
57037W        W28566  30.661   7.924  13.366
57038W        W28567  23.705  28.046   4.204
57039W        W28568  30.628  18.377  11.361
57040W        W28569   2.958   4.875  11.002
57041W        W28570  19.295   0.829   3.663
57042W        W28571  11.996  30.130   1.908
57043W        W28572   1.695  19.829   4.836
57044W        W28573  10.720  18.699  13.815
57045W        W28574  43.392  37.748   2.785
57046W        W28575   9.222   8.918  14.310
57047W        W28576  32.965  35.117   3.505
57048W        W28577   5.859  23.872  12.322
57049W        W28578  10.313  24.740  11.897
57050W        W28579   1.424   0.829  12.490
57051W        W28580  35.355   3.961  10.614
57052W        W28581  20.146  38.079   4.583
57053W        W28582  38.061  25.407  13.968
57054W        W28583  43.568   3.877  14.897
57055W        W28584   7.691  43.349  13.058
57056W        W28585  32.501  37.901  10.806
57057W        W28586  13.195   1.525   3.203
57058W        W28587   5.649  17.600   0.953
57059W        W28588  35.540  38.187   3.613
57060W        W28589  19.323   6.951   4.400
57061W        W28590  10.711  26.739   5.004
57062W        W28591  33.119   4.504   0.907
57063W        W28592  38.980  40.591   4.708
57064W        W28593  28.209  43.285  14.971
57065W        W28594  39.167  36.887   4.120
57066W        W28595   0.399  35.832   2.405
57067W        W28596  35.299  29.650  12.744
57068W        W28597  26.695   1.116   4.028
57069W        W28598  30.200   6.547   1.706
57070W        W28599  37.001   6.918   1.857
57071W        W28600  37.626  18.014   4.143
57072W        W28601  23.081  11.289  12.008
57073W        W28602   5.174  14.912   3.268
57074W        W28603  26.606   9.995   4.532
57075W        W28604  25.522  18.791   3.638
57076W        W28605  42.199  18.254  11.659
57077W        W28606  39.493  37.673   1.266
57078W        W28607  14.404  34.147   3.131
57079W        W28608  12.800   1.277   3.638
57080W        W28609  32.875  37.145  11.025
57081W        W28610   0.771  20.084   0.728
57082W        W28611  43.112  37.612  11.499
57083W        W28612   1.906  11.137  14.152
57084W        W28613   8.765   7.261  10.589
57085W        W28614  31.364   1.484   0.279
57086W        W28615  18.234   7.439   2.396
57087W        W28616  37.942  20.847   2.702
57088W        W28617  11.346  15.883   4.299
57089W        W28618  12.598   9.652   3.335
57090W        W28619  14.827  30.092   0.390
57091W        W28620  21.799  28.034  14.948
57092W        W28621  20.780  20.243   0.466
57093W        W28622  16.799  39.991   0.931
57094W        W28623  14.268  37.635   0.355
57095W        W28624   6.498  19.920  11.484
57096W        W28625  20.247  30.197   0.086
57097W        W28626   4.396   5.215   2.481
57098W        W28627  21.861   4.693   0.204
57099W        W28628  22.721  13.737  13.950
57100W        W28629  36.855  10.325   4.281
57101W        W28630  10.731  23.518   0.243
57102W        W28631  19.838  31.330  14.833
57103W        W28632   0.582   2.387   1.239
57104W        W28633  12.161  19.433  10.714
57105W        W28634   2.422  11.302   2.674
57106W        W28635  17.584   9.938  12.922
57107W        W28636  15.896   3.339  14.366
57108W        W28637  31.392   0.777   3.752
57109W        W28638  24.099  44.339   2.859
57110W        W28639  13.665  20.691  13.127
57111W        W28640  10.747  17.467   3.458
57112W        W28641  42.336  29.049   2.285
57113W        W28642   9.120  41.535   2.222
57114W        W28643  28.768  36.174   3.950
57115W        W28644  14.600  35.717   1.902
57116W        W28645  15.122  37.930   4.578
57117W        W28646   4.810  43.312  13.301
57118W        W28647  32.897  24.631  13.498
57119W        W28648  21.227  19.246   2.221
57120W        W28649  43.093  35.015   0.790
57121W        W28650   5.102  22.730  13.807
57122W        W28651  37.827  17.206   2.587
57123W        W28652  32.968  20.440   0.257
57124W        W28653   8.798  25.447  10.672
57125W        W28654  39.880  34.638  12.115
57126W        W28655  14.706  44.919   2.716
57127W        W28656  23.218  11.794  11.664
57128W        W28657  37.740  20.021  13.097
57129W        W28658  32.170   3.249  12.402
57130W        W28659  36.026   1.789  12.464
57131W        W28660  42.944  43.101  14.029
57132W        W28661  43.158  17.979   2.330
57133W        W28662  15.124   7.751  13.172
57134W        W28663  15.727  18.907  12.484
57135W        W28664  34.236  13.474   1.801
57136W        W28665  24.721  25.120   0.528
57137W        W28666   3.907  10.435  10.392
57138W        W28667  33.441  25.732   0.827
57139W        W28668  31.094  36.319  13.012
57140W        W28669  31.124  19.037  10.612
57141W        W28670  38.465  43.382   4.963
57142W        W28671  16.210  17.666   0.723
57143W        W28672  25.276  36.118   0.223
57144W        W28673   3.633  35.947   0.873
57145W        W28674  15.557  33.558   4.085
57146W        W28675  40.577  32.488  10.534
57147W        W28676  11.573   5.633  10.667
57148W        W28677  19.039  44.783   3.710
57149W        W28678  41.058  24.563   0.431
57150W        W28679  40.778  25.201   4.055
57151W        W28680  18.122  12.857   2.592
57152W        W28681  18.728   5.080  14.331
57153W        W28682  15.284  35.493  12.071
57154W        W28683  44.411   1.388   2.919
57155W        W28684  39.870   8.341   4.875
57156W        W28685   7.372  24.560  11.002
57157W        W28686  25.417  26.015   0.787
57158W        W28687  16.127  28.267   3.588
57159W        W28688  18.238  42.115   2.565
57160W        W28689   6.257  43.783   1.978
57161W        W28690   5.474  39.457   4.547
57162W        W28691   5.145  19.055   3.771
57163W        W28692  14.710  38.862  14.712
57164W        W28693  30.327  17.768   1.118
57165W        W28694  30.571  15.815   1.351
57166W        W28695  41.084   6.939   1.259
57167W        W28696   8.435  20.241   5.002
57168W        W28697  36.182  14.434  12.959
57169W        W28698  33.338   1.751   2.108
57170W        W28699  42.438  19.146   1.255
57171W        W28700  30.329  20.465   4.722
57172W        W28701  41.375   1.531   3.787
57173W        W28702  33.634  33.926  14.288
57174W        W28703  10.796  41.962  14.763
57175W        W28704   6.622  28.436  12.441
57176W        W28705  25.475  43.818  12.922
57177W        W28706   9.377  42.735   4.075
57178W        W28707  27.954  25.561   2.747
57179W        W28708  42.597  13.818  14.336
57180W        W28709  22.291  37.067   2.925
57181W        W28710   1.240  28.723   0.776
57182W        W28711  10.058  42.304   0.217
57183W        W28712  10.221  18.380  11.503
57184W        W28713  38.120   8.715  11.441
57185W        W28714  23.720   6.190  14.251
57186W        W28715   7.172   9.451  13.641
57187W        W28716  11.970  33.529  11.578
57188W        W28717  35.634  18.421  13.570
57189W        W28718  22.492   3.504   4.448
57190W        W28719  22.624   2.215  11.666
57191W        W28720  37.158  13.053  10.769
57192W        W28721  27.692  19.946   2.798
57193W        W28722  44.890  17.020  11.511
57194W        W28723   4.874  19.283  10.738
57195W        W28724  27.264   4.810  10.677
57196W        W28725  10.914  31.438   0.962
57197W        W28726  21.361  35.166   3.176
57198W        W28727   0.932  43.143  14.823
57199W        W28728  15.204  18.124   3.388
57200W        W28729  21.665  27.724   2.299
57201W        W28730  31.938  30.934  11.005
57202W        W28731  28.818   3.695   4.081
57203W        W28732   4.727   2.543  12.327
57204W        W28733  30.170  15.936   5.360
57205W        W28734  25.523  43.756   1.741
57206W        W28735  21.811  35.841  12.430
57207W        W28736  25.702   6.954  14.947
57208W        W28737  11.280  10.368   4.140
57209W        W28738  16.833  33.023  11.682
57210W        W28739  11.916  42.065  13.383
57211W        W28740  17.636  37.587  14.240
57212W        W28741  13.384  20.611  14.935
57213W        W28742   2.482  41.270   1.744
57214W        W28743   5.713  23.714  13.545
57215W        W28744  15.295  32.026  11.493
57216W        W28745   2.828  12.991   5.045
57217W        W28746  29.563   1.473   0.740
57218W        W28747  30.642  42.767   2.819
57219W        W28748   9.838   1.935  11.441
57220W        W28749   0.509   8.424   0.969
57221W        W28750   4.988  26.604   0.291
57222W        W28751  44.790  22.199  13.694
57223W        W28752   7.391  18.597  12.878
57224W        W28753  15.075  40.372   4.675
57225W        W28754  19.948   7.392  11.684
57226W        W28755  13.763  41.023  11.200
57227W        W28756  27.236  14.191   0.400
57228W        W28757  16.543   0.265   2.473
57229W        W28758  22.788  16.782  10.271
57230W        W28759  18.635  22.724  13.790
57231W        W28760  44.688  26.582  11.940
57232W        W28761  35.680   5.988  10.853
57233W        W28762  18.253  12.328   2.381
57234W        W28763  17.581  12.205   2.258
57235W        W28764  35.824  29.373   2.258
57236W        W28765  27.746  16.318  12.535
57237W        W28766  17.035  31.949   2.345
57238W        W28767  26.599  43.469  13.998
57239W        W28768   3.226  18.754   3.717
57240W        W28769  39.014   6.594  13.461
57241W        W28770  18.559  34.431  14.434
57242W        W28771  40.488  23.732  11.635
57243W        W28772  29.438  29.081   4.627
57244W        W28773  30.135  25.257  11.503
57245W        W28774  21.251  23.703  10.103
57246W        W28775  25.719   5.899   3.590
57247W        W28776  30.479   9.531  10.862
57248W        W28777   5.002  40.039  13.034
57249W        W28778   7.045  14.757  12.495
57250W        W28779  10.913  37.431   0.528
57251W        W28780  17.996   1.894   2.370
57252W        W28781  23.228  43.531  14.411
57253W        W28782   1.685  24.239  13.326
57254W        W28783  44.749  25.621   0.274
57255W        W28784   3.724  41.059  11.107
57256W        W28785  26.962  40.356  13.844
57257W        W28786   5.617  30.807  13.979
57258W        W28787  30.468  31.344   3.343
57259W        W28788  20.548  20.037   4.914
57260W        W28789  34.051  32.519  10.830
57261W        W28790   7.185  38.558   4.446
57262W        W28791  14.165  17.421  14.893
57263W        W28792  13.181   1.004   3.179
57264W        W28793  15.035  41.390   2.708
57265W        W28794  11.144   3.698   2.267
57266W        W28795  11.604  31.976   1.658
57267W        W28796  41.758  17.981  11.246
57268W        W28797  15.741  16.474   2.827
57269W        W28798  11.261  20.011   3.189
57270W        W28799   6.220  28.230   2.421
57271W        W28800  36.286  18.084  12.784
57272W        W28801  10.772   3.120   0.311
57273W        W28802  36.092   0.290  10.564
57274W        W28803  14.166  21.056   1.796
57275W        W28804  39.574  24.445   1.423
57276W        W28805  43.094   6.805   0.981
57277W        W28806  43.868  41.021   4.795
57278W        W28807  25.668  27.416   3.767
57279W        W28808  35.375  24.928  11.483
57280W        W28809  25.518  25.256   1.981
57281W        W28810   1.029  12.132  13.678
57282W        W28811  39.759  14.926  13.860
57283W        W28812  34.951  30.382   5.132
57284W        W28813   9.550   6.177   2.469
57285W        W28814  10.399  26.966  11.444
57286W        W28815   2.245  35.385  14.780
57287W        W28816  32.440  13.537   4.407
57288W        W28817  15.442   6.253   4.258
57289W        W28818   6.290   2.006  12.129
57290W        W28819   5.146  20.067  11.581
57291W        W28820  14.571  19.993  14.268
57292W        W28821  28.343   8.011   0.838
57293W        W28822   7.954  38.964   2.644
57294W        W28823  14.545  31.109  12.500
57295W        W28824  44.930   6.511   0.891
57296W        W28825  33.583   0.142   1.580
57297W        W28826   0.573   4.334  13.534
57298W        W28827  11.203   4.873   2.881
57299W        W28828  22.970   9.945   0.198
57300W        W28829   9.586  33.572  10.649
57301W        W28830  30.006   4.226  14.749
57302W        W28831  16.627  44.183  12.450
57303W        W28832  35.609  10.841  10.571
57304W        W28833  23.008  31.125  13.704
57305W        W28834  15.440  37.276   3.523
57306W        W28835  37.787  36.387  13.136
57307W        W28836  28.769  37.979  12.965
57308W        W28837   1.458  40.006  13.565
57309W        W28838  33.451  18.627  10.879
57310W        W28839  10.329  34.383  11.599
57311W        W28840   0.907  15.899  14.566
57312W        W28841  30.586  31.043   1.329
57313W        W28842   1.540  22.575   3.720
57314W        W28843  12.420  23.957  11.149
57315W        W28844  13.131   9.748  11.550
57316W        W28845  27.376   8.369   3.159
57317W        W28846  23.561  42.357   0.301
57318W        W28847  35.800  34.721   3.145
57319W        W28848  40.360  20.670  10.540
57320W        W28849  33.533  31.914  13.902
57321W        W28850  21.464  44.985  14.997
57322W        W28851  21.245  44.703   1.992
57323W        W28852  43.512  27.621   1.369
57324W        W28853  21.223  22.226  13.562
57325W        W28854  43.898   2.606  11.928
57326W        W28855  18.541  37.582   4.147
57327W        W28856  16.688  29.594   4.354
57328W        W28857  25.082  27.241   1.507
57329W        W28858   2.630  21.675   3.670
57330W        W28859  36.428  29.117   0.305
57331W        W28860  12.690  16.538  14.824
57332W        W28861  19.309  31.660   4.307
57333W        W28862   4.384   7.743   0.698
57334W        W28863  20.223  20.685   1.969
57335W        W28864  37.798  34.390  12.789
57336W        W28865  26.266  36.595  11.149
57337W        W28866  34.114  43.324   1.738
57338W        W28867  37.169  34.451  14.708
57339W        W28868  13.325  31.075   2.844
57340W        W28869  36.832  31.412   4.244
57341W        W28870  28.128  24.249  12.021
57342W        W28871  31.504  15.119  12.059
57343W        W28872  31.745  24.432   2.259
57344W        W28873  19.236  15.676  12.051
57345W        W28874  11.229  28.853  10.771
57346W        W28875  32.661   6.625  12.015
57347W        W28876  27.036  18.058   1.439
57348W        W28877   9.816  25.459   2.406
57349W        W28878   6.699  16.543   2.459
57350W        W28879  21.282  44.094   1.516
57351W        W28880  31.400  13.299   2.899
57352W        W28881   1.746  10.638  10.362
57353W        W28882  15.216  30.725   5.053
57354W        W28883   1.750   4.858   4.165
57355W        W28884   2.930  10.753   0.423
57356W        W28885  21.480   7.171   3.599
57357W        W28886  32.050  29.676   4.522
57358W        W28887  44.548  30.333  12.638
57359W        W28888  31.084  32.592  12.025
57360W        W28889   5.968  17.428  11.562
57361W        W28890  10.367   4.907   3.620
57362W        W28891   8.729   6.705  10.401
57363W        W28892  20.565  24.569  14.998
57364W        W28893   4.455   1.819  10.715
57365W        W28894  32.862   3.707   0.767
57366W        W28895  39.022  44.993   5.076
57367W        W28896  40.945   0.475   1.898
57368W        W28897  44.231  15.335   2.901
57369W        W28898  17.735  37.047   3.894
57370W        W28899  44.083  16.072   0.357
57371W        W28900  30.559  25.098   0.307
57372W        W28901  44.928  21.549  10.899
57373W        W28902   1.437  23.187   2.170
57374W        W28903  22.544  23.714  13.887
57375W        W28904  44.776  44.246  11.973
57376W        W28905  14.000  30.947  11.935
57377W        W28906  14.143  40.813   0.781
57378W        W28907  34.059  40.782  13.442
57379W        W28908  27.600  31.593   4.611
57380W        W28909  28.752   6.590   1.031
57381W        W28910  36.591  29.880   1.678
57382W        W28911  35.824  14.380  10.697
57383W        W28912   2.417  28.913   4.082
57384W        W28913   9.764   1.041  11.738
57385W        W28914   4.688   0.207   1.212
57386W        W28915   7.693  20.424  14.375
57387W        W28916   5.574   4.542  12.335
57388W        W28917   2.840  41.416   0.422
57389W        W28918   7.742  10.631   1.072
57390W        W28919  26.869  42.940   4.814
57391W        W28920  36.029  33.643  12.391
57392W        W28921   3.569  15.527   4.188
57393W        W28922   3.250  10.093   2.801
57394W        W28923  30.528   0.773   4.139
57395W        W28924   4.914  19.138  13.438
57396W        W28925  23.988  37.995   4.765
57397W        W28926  42.333  10.143   1.217
57398W        W28927  31.024   9.226   0.194
57399W        W28928  17.568  12.658  12.485
57400W        W28929   0.022  31.823  13.494
57401W        W28930  26.171  44.718   0.762
57402W        W28931   7.440  11.711  14.866
57403W        W28932  42.137  42.878   3.346
57404W        W28933  33.648  36.610   4.872
57405W        W28934  10.180  26.992   2.876
57406W        W28935  42.876  34.015  13.831
57407W        W28936  12.488  42.524  11.605
57408W        W28937   9.140  36.320   1.863
57409W        W28938  28.133   6.593  11.628
57410W        W28939  36.571  14.664   4.118
57411W        W28940  34.647  20.661   3.716
57412W        W28941  12.277  28.894  13.834
57413W        W28942   0.730  41.515   0.216
57414W        W28943  11.834  20.157   4.017
57415W        W28944  31.671   8.943  13.942
57416W        W28945  11.547  13.302   2.406
57417W        W28946  22.857  35.056  13.819
57418W        W28947  39.682  21.074   0.441
57419W        W28948  37.935   4.192   0.462
57420W        W28949   1.743   5.575  14.310
57421W        W28950   9.880  15.851  14.072
57422W        W28951   5.328   8.021  14.831
57423W        W28952  29.798  12.705   9.828
57424W        W28953   9.776  40.936   3.223
57425W        W28954  34.670  33.114  13.730
57426W        W28955  31.987  21.411  11.609
57427W        W28956  11.754  24.488   3.585
57428W        W28957   8.248   3.827  13.861
57429W        W28958  27.211   6.227  11.321
57430W        W28959   9.360  41.127   0.851
57431W        W28960  40.438   1.299   2.852
57432W        W28961  11.936  34.873  11.731
57433W        W28962  27.169  34.389   1.359
57434W        W28963  11.600  11.595   4.198
57435W        W28964  12.055  44.506  14.599
57436W        W28965  36.839  15.628  13.885
57437W        W28966  26.644  29.006  12.312
57438W        W28967  39.221  14.290  10.661
57439W        W28968  42.304   0.096  13.067
57440W        W28969  19.145   7.743   1.767
57441W        W28970  19.427   9.159  12.001
57442W        W28971  36.628  24.169  13.968
57443W        W28972  31.774  39.424   1.842
57444W        W28973  34.101  23.121   4.034
57445W        W28974  42.684   8.851   2.715
57446W        W28975  13.184  30.046  13.216
57447W        W28976   6.401  27.202  12.525
57448W        W28977  25.190  12.638   0.343
57449W        W28978   2.884  32.954   2.193
57450W        W28979  29.697  42.459   1.701
57451W        W28980  37.987  33.870  11.350
57452W        W28981  10.667  19.221  12.544
57453W        W28982  25.045  21.612   1.866
57454W        W28983  13.829  31.855   2.925
57455W        W28984  39.279  29.900  14.833
57456W        W28985  23.916  44.388   3.834
57457W        W28986  33.844  24.999   1.598
57458W        W28987  26.060  41.037  10.645
57459W        W28988  31.652  13.549  12.010
57460W        W28989  18.146  28.636  11.490
57461W        W28990  10.559  25.532   3.695
57462W        W28991  18.291  15.025  10.987
57463W        W28992  29.353  18.997  11.601
57464W        W28993  15.000   9.562  12.908
57465W        W28994  25.148   8.955  14.396
57466W        W28995  12.759   6.441   0.345
57467W        W28996  43.848  24.665  10.991
57468W        W28997  44.049  13.211   2.896
57469W        W28998  32.311  14.075  10.626
57470W        W28999  15.229   4.827  14.854
57471W        W29000  12.450  22.703   1.283
57472W        W29001  13.863  11.721  12.028
57473W        W29002   7.184  20.616  13.663
57474W        W29003  44.013   4.758  10.679
57475W        W29004  32.602  18.217  10.596
57476W        W29005  17.714   6.847  11.719
57477W        W29006   5.366   2.987   3.706
57478W        W29007  31.932   5.489   0.318
57479W        W29008  21.625  32.161  13.231
57480W        W29009  20.417  17.316  11.648
57481W        W29010  31.247  34.143  14.485
57482W        W29011  17.215  43.525  12.568
57483W        W29012  27.551  23.670  13.845
57484W        W29013   6.730  41.979   3.573
57485W        W29014  18.724  27.939   5.465
57486W        W29015  17.961  22.256  14.411
57487W        W29016   3.436   2.632  11.951
57488W        W29017  12.840  27.104   4.066
57489W        W29018  21.031  11.145   2.324
57490W        W29019   5.808  28.106  10.866
57491W        W29020  20.352  18.854   3.776
57492W        W29021  11.292  41.513  11.778
57493W        W29022  40.769  11.737   3.321
57494W        W29023  28.891  23.075   3.256
57495W        W29024   1.916   5.526  12.208
57496W        W29025  16.294  26.655  10.665
57497W        W29026  31.045  20.561   1.301
57498W        W29027  31.009   8.221  13.113
57499W        W29028   1.939  17.358  14.729
57500W        W29029  20.510  27.771  14.530
57501W        W29030  22.169  22.749  14.980
57502W        W29031   4.737  13.592  12.385
57503W        W29032  20.177  35.951  14.581
57504W        W29033  36.409  21.068  12.019
57505W        W29034  29.658  27.467   1.580
57506W        W29035  13.860  41.920   4.401
57507W        W29036  23.797  31.484  11.956
57508W        W29037  27.332  40.098   3.355
57509W        W29038   5.808  10.256  11.565
57510W        W29039  15.777  42.916  12.380
57511W        W29040  44.746   0.754  10.675
57512W        W29041   4.308  43.902  11.902
57513W        W29042   5.021  41.809   1.980
57514W        W29043  27.028   3.148  11.092
57515W        W29044  42.295  12.780  12.130
57516W        W29045  29.385  44.666   1.709
57517W        W29046  39.799  41.492   0.828
57518W        W29047  31.818  36.493   0.740
57519W        W29048  13.120  17.913   1.638
57520W        W29049  22.977  16.663  12.072
57521W        W29050  22.449  12.221  13.803
57522W        W29051  40.902  14.665   2.037
57523W        W29052   7.735   0.955   4.141
57524W        W29053  37.616  21.678   3.272
57525W        W29054  29.977  32.628   4.423
57526W        W29055  33.194  26.127  11.468
57527W        W29056  20.750  29.596  11.111
57528W        W29057  42.947  17.653  13.416
57529W        W29058  19.855  38.056   2.434
57530W        W29059  22.927  30.168  12.966
57531W        W29060  31.893   8.571   0.773
57532W        W29061  10.851  31.730   0.522
57533W        W29062   9.912  27.872   1.291
57534W        W29063  19.997   1.357  14.262
57535W        W29064   1.828  22.192   2.986
57536W        W29065  23.512  29.962  14.867
57537W        W29066  42.378  31.402  11.537
57538W        W29067   0.912  42.021   4.547
57539W        W29068   1.478  19.949   1.665
57540W        W29069  36.932  12.345   1.810
57541W        W29070  36.628  23.842  11.175
57542W        W29071  21.924  13.336   0.010
57543W        W29072  29.608   9.640  11.663
57544W        W29073  38.907  11.764   1.840
57545W        W29074  15.675  35.685  10.585
57546W        W29075  17.137  14.201  13.952
57547W        W29076   1.186  39.593   2.335
57548W        W29077   7.001  32.526  14.278
57549W        W29078  27.278  24.964   3.240
57550W        W29079  43.121  36.423   2.699
57551W        W29080  37.257   5.646   2.320
57552W        W29081  35.509  17.865  13.780
57553W        W29082  33.058  25.952   3.162
57554W        W29083  25.874   2.821   1.307
57555W        W29084   7.738  14.766   3.332
57556W        W29085  39.287  22.708  11.414
57557W        W29086   3.696  21.155  13.932
57558W        W29087   2.919   0.934   3.382
57559W        W29088   1.466  14.170  14.352
57560W        W29089  22.738  37.384   3.586
57561W        W29090  21.683  11.632  13.810
57562W        W29091  21.705   1.424  14.850
57563W        W29092  27.200  37.003   0.931
57564W        W29093  25.553  29.040   4.312
57565W        W29094  20.490  22.721  13.492
57566W        W29095  34.412   8.190   4.910
57567W        W29096  39.865  36.965  14.953
57568W        W29097  31.222  27.989   2.822
57569W        W29098  20.551   9.144   0.661
57570W        W29099   5.570  40.810   2.287
57571W        W29100  11.133   0.584  11.938
57572W        W29101  17.192  14.523   1.230
57573W        W29102  40.328   1.176   4.394
57574W        W29103  32.567  40.464  12.745
57575W        W29104   5.138  40.305   0.886
57576W        W29105  17.614   2.897   4.304
57577W        W29106  20.185  15.358   1.049
57578W        W29107  18.568  16.289  12.113
57579W        W29108   1.975  13.681   3.773
57580W        W29109  17.670  12.214  10.825
57581W        W29110  39.891  10.322   2.609
57582W        W29111  30.944  41.673  11.421
57583W        W29112  33.563  35.483  13.806
57584W        W29113  24.617  17.328   3.441
57585W        W29114  40.283  27.714  13.266
57586W        W29115  20.266  44.848  10.410
57587W        W29116  16.816  35.171   0.617
57588W        W29117  32.034  35.398  12.556
57589W        W29118  36.840  43.423  11.371
57590W        W29119   1.021  14.235   0.376
57591W        W29120   9.724  25.185  11.920
57592W        W29121  37.804  25.493  11.871
57593W        W29122  31.626  25.136  13.512
57594W        W29123  15.984   8.705   0.432
57595W        W29124  28.584  26.785   1.376
57596W        W29125  28.726   2.446   2.326
57597W        W29126   3.409  27.965   4.995
57598W        W29127  41.443  33.601   2.758
57599W        W29128  23.022  11.881   0.386
57600W        W29129   8.278  26.512  10.564
57601W        W29130  13.715  39.992  14.873
57602W        W29131  14.541   0.670  13.337
57603W        W29132  44.859   7.112   2.949
57604W        W29133  25.120  31.902  13.820
57605W        W29134  38.558   7.224   1.940
57606W        W29135  22.084   7.064  13.576
57607W        W29136  43.788   2.038  14.659
57608W        W29137   4.917  33.607  11.186
57609W        W29138   8.137  44.036   2.052
57610W        W29139  25.143  31.999   3.536
57611W        W29140  18.950   9.801  12.414
57612W        W29141  15.291  36.834  14.050
57613W        W29142  38.347   1.965   4.299
57614W        W29143  34.220   1.897  12.969
57615W        W29144   1.228   6.609   2.746
57616W        W29145  36.802  35.098  10.579
57617W        W29146  28.739  31.127  11.376
57618W        W29147  43.230  18.014  12.953
57619W        W29148  35.392   8.707   3.721
57620W        W29149   1.873  19.349   2.833
57621W        W29150  31.211  23.113   4.844
57622W        W29151  10.455   5.560   3.289
57623W        W29152  31.910  32.504  11.882
57624W        W29153  13.375  31.080  14.695
57625W        W29154  25.995  28.196   1.434
57626W        W29155  35.341   9.141   4.011
57627W        W29156   4.018  21.517  13.198
57628W        W29157  17.517  31.490  11.605
57629W        W29158  20.738  23.661   2.717
57630W        W29159  25.478  13.085  14.315
57631W        W29160  11.080  21.829   4.305
57632W        W29161  15.565  12.597   4.624
57633W        W29162  13.322  11.919  13.865
57634W        W29163   6.089  29.452   2.867
57635W        W29164  39.040  27.229   0.993
57636W        W29165   2.974  10.974   4.540
57637W        W29166  11.097  25.729  11.157
57638W        W29167  15.879   4.200   0.836
57639W        W29168  13.044  19.738   3.801
57640W        W29169   7.462   4.150  12.426
57641W        W29170  33.078   1.759  11.442
57642W        W29171  14.243  37.608   3.610
57643W        W29172  11.858  33.694  12.410
57644W        W29173  30.747   8.186   3.865
57645W        W29174   2.645  31.931   0.938
57646W        W29175  29.880  19.814   5.087
57647W        W29176   6.734  15.099   4.839
57648W        W29177  10.119   0.936   1.346
57649W        W29178  33.340  39.350  13.593
57650W        W29179  20.424  20.844   3.740
57651W        W29180  36.448  14.685   1.165
57652W        W29181  10.506  36.450   4.981
57653W        W29182  11.381  12.262  14.385
57654W        W29183  30.523   6.770  11.438
57655W        W29184  12.804  22.086   4.566
57656W        W29185  29.981  17.204   3.807
57657W        W29186  21.613  23.495  12.346
57658W        W29187  36.287  16.626  12.515
57659W        W29188  22.089  37.762  14.057
57660W        W29189  30.457  19.261   3.534
57661W        W29190  21.537  29.628   1.347
57662W        W29191  21.859   6.181  11.322
57663W        W29192  30.438  17.370   3.582
57664W        W29193  36.483  23.464   4.139
57665W        W29194  12.611  41.989   2.736
57666W        W29195  43.977  43.799  11.464
57667W        W29196  21.531   3.388  12.503
57668W        W29197   5.776  24.970   4.559
57669W        W29198  35.495  33.904  11.170
57670W        W29199  30.346  25.533   2.537
57671W        W29200  41.528  37.059   0.763
57672W        W29201  26.039  34.644  12.019
57673W        W29202  44.970  20.777   2.007
57674W        W29203  38.421  20.653   5.026
57675W        W29204  23.027  39.804   3.700
57676W        W29205  35.441  44.526  10.519
57677W        W29206  43.657   8.007   1.028
57678W        W29207   6.446   0.240   1.846
57679W        W29208  14.326  24.230   3.130
57680W        W29209   4.870  36.990   0.688
57681W        W29210   6.942  42.446   3.650
57682W        W29211   8.346  36.081  12.504
57683W        W29212   5.229   7.519  11.110
57684W        W29213  17.969  29.243   0.334
57685W        W29214  36.052  16.824  12.920
57686W        W29215  32.400  32.749   1.180
57687W        W29216  10.925   0.977   3.705
57688W        W29217  11.510  24.054  11.613
57689W        W29218  17.919  40.510   4.231
57690W        W29219  26.028  10.406   0.279
57691W        W29220   8.062  22.536  14.206
57692W        W29221  39.136  37.993  10.352
57693W        W29222   9.938  21.739  10.925
57694W        W29223   7.279  31.903   0.820
57695W        W29224  17.171  10.704  14.079
57696W        W29225  36.501  26.207   5.020
57697W        W29226  11.815  34.363   3.668
57698W        W29227  20.283  43.793   2.726
57699W        W29228  33.774  21.659  10.275
57700W        W29229   7.397  13.657   4.303
57701W        W29230   3.696  30.149   2.530
57702W        W29231  29.052  12.217   2.384
57703W        W29232   4.772   5.627   3.616
57704W        W29233  38.819  25.730   1.267
57705W        W29234  20.574  18.485  13.119
57706W        W29235   0.261  12.662  13.257
57707W        W29236  16.615  24.119  11.969
57708W        W29237  17.535  34.887  13.926
57709W        W29238  41.876  20.582  12.822
57710W        W29239   4.869  32.918  12.866
57711W        W29240   6.276   9.867  14.395
57712W        W29241   7.020  29.206   4.309
57713W        W29242  40.186  34.439   1.346
57714W        W29243  19.213  22.163  13.483
57715W        W29244  27.986  11.860  12.589
57716W        W29245   7.132  20.631   0.043
57717W        W29246  23.156  37.997  11.030
57718W        W29247  32.879  22.982  10.612
57719W        W29248  19.744  26.012  12.604
57720W        W29249  18.840  32.108   4.582
57721W        W29250   0.781  35.936  11.233
57722W        W29251  31.551  23.426   1.211
57723W        W29252  38.045   1.833  12.112
57724W        W29253  14.383   2.920  14.955
57725W        W29254  20.334  40.887  13.399
57726W        W29255   7.095  44.783  10.795
57727W        W29256  19.782   2.768  13.701
57728W        W29257  15.198  23.786   1.336
57729W        W29258  33.031  19.217   2.178
57730W        W29259  25.786   3.032  13.836
57731W        W29260  36.380   5.948   4.131
57732W        W29261  32.909  21.065   4.546
57733W        W29262   6.929  11.677   3.771
57734W        W29263  22.610  13.099   0.540
57735W        W29264  26.533  21.463  11.986
57736W        W29265   9.901  21.619   3.836
57737W        W29266   2.725   6.787   2.606
57738W        W29267  33.632   7.035  13.883
57739W        W29268  41.404   5.178  13.433
57740W        W29269  16.181  20.535  13.152
57741W        W29270  42.472  41.313  13.584
57742W        W29271  27.128  18.092  13.265
57743W        W29272  27.225  22.733  12.615
57744W        W29273   8.728   0.497   2.229
57745W        W29274  33.215  13.081  11.674
57746W        W29275  22.092  11.605   2.235
57747W        W29276  17.615  40.368   3.834
57748W        W29277  27.584  15.153  12.680
57749W        W29278  13.858  40.031   1.840
57750W        W29279  17.858  43.660  12.005
57751W        W29280   0.738  41.975  10.710
57752W        W29281  42.766  27.101  14.274
57753W        W29282  13.412   7.256  11.996
57754W        W29283  44.301   3.301   1.659
57755W        W29284  15.419  31.183  10.730
57756W        W29285  39.932   8.784   1.727
57757W        W29286  30.345  29.120   4.219
57758W        W29287   5.886  12.634   1.421
57759W        W29288  39.437  30.943   2.081
57760W        W29289  17.828   8.121   0.093
57761W        W29290  11.346  27.566   2.677
57762W        W29291  40.027  18.564   1.684
57763W        W29292  34.820  33.994  13.912
57764W        W29293   6.818  37.651   4.578
57765W        W29294   2.754   6.344   1.351
57766W        W29295  11.255  43.243   3.753
57767W        W29296  42.993  21.160  13.835
57768W        W29297  11.594  27.320  10.029
57769W        W29298  37.525  17.556   1.276
57770W        W29299   6.885  33.357   2.173
57771W        W29300  25.525  29.489  11.452
57772W        W29301  13.225   8.406  12.780
57773W        W29302  12.650  21.488   0.960
57774W        W29303  10.051  12.838   2.136
57775W        W29304  19.773   6.707   4.641
57776W        W29305  10.261   7.221   4.010
57777W        W29306  33.922   4.446  12.481
57778W        W29307  27.465  43.730  12.300
57779W        W29308  37.932  25.261  13.097
57780W        W29309  14.787   4.214   3.619
57781W        W29310  30.886  41.977   1.449
57782W        W29311   3.865  14.661   2.237
57783W        W29312  44.892   2.885   1.494
57784W        W29313  12.443  44.932   0.841
57785W        W29314  10.204  32.914  13.034
57786W        W29315  23.610  37.827  11.208
57787W        W29316  13.652  40.804   3.168
57788W        W29317  10.759  27.449  12.889
57789W        W29318   4.698  21.498  12.046
57790W        W29319  10.565   3.029   4.601
57791W        W29320  25.967  25.542   1.935
57792W        W29321  34.970  41.462   2.155
57793W        W29322  34.697  21.620  14.877
57794W        W29323   9.415  10.743   4.711
57795W        W29324  12.620  35.923  10.673
57796W        W29325  34.723  32.262   4.796
57797W        W29326   1.789  20.087   0.761
57798W        W29327   6.014  19.638  12.537
57799W        W29328   5.734  30.479  12.418
57800W        W29329  25.016  41.936   2.974
57801W        W29330   7.308  41.052   4.226
57802W        W29331   7.119  25.581  13.192
57803W        W29332  34.352  42.637  13.806
57804W        W29333  17.343  42.913  10.769
57805W        W29334  32.975  38.705  14.160
57806W        W29335  40.012  39.779  13.426
57807W        W29336   4.516  35.497   1.247
57808W        W29337  18.082   4.262  12.085
57809W        W29338  27.948  42.043  13.505
57810W        W29339  43.845  39.388   2.386
57811W        W29340  44.506  16.250   0.910
57812W        W29341  10.153  33.385  11.466
57813W        W29342  35.206  15.732   4.705
57814W        W29343  24.245  16.079   2.870
57815W        W29344  21.790  33.476   3.014
57816W        W29345  16.628  16.588  10.761
57817W        W29346   5.668  34.123   4.189
57818W        W29347  24.274  26.682  10.728
57819W        W29348  12.270  20.611  13.129
57820W        W29349  18.744  18.152  13.956
57821W        W29350  27.116  24.598   2.585
57822W        W29351  19.663   1.609   1.718
57823W        W29352  15.303  24.529   4.176
57824W        W29353  26.998   9.093   3.785
57825W        W29354   3.391  31.898  12.402
57826W        W29355  26.203  11.350   0.925
57827W        W29356  40.510  11.313  12.516
57828W        W29357  13.592   3.172  10.989
57829W        W29358   0.945  33.543  12.881
57830W        W29359  42.026  16.042   2.053
57831W        W29360  41.224  18.651   4.048
57832W        W29361  18.803  11.302   0.931
57833W        W29362   7.287  17.731   2.930
57834W        W29363  18.707  44.759  11.746
57835W        W29364  42.324   1.753  11.988
57836W        W29365   2.472  40.544   0.226
57837W        W29366  44.013  22.042  10.708
57838W        W29367  37.450   6.156   3.102
57839W        W29368  31.502  40.870  14.769
57840W        W29369  24.429  24.232  11.148
57841W        W29370  35.943  37.910  13.546
57842W        W29371  25.391  21.655   0.731
57843W        W29372  30.978  17.026  13.243
57844W        W29373  12.817  22.315  14.004
57845W        W29374  25.263  42.753  11.995
57846W        W29375  39.419  37.381   0.830
57847W        W29376  21.586  15.219   4.236
57848W        W29377  28.139  10.560   3.638
57849W        W29378  18.122  40.478   1.806
57850W        W29379  32.621  24.639   4.350
57851W        W29380  23.289  19.765   1.949
57852W        W29381   6.826  21.687  12.389
57853W        W29382  23.434  40.136  10.771
57854W        W29383  42.820  44.774   1.898
57855W        W29384  28.899   8.407   0.117
57856W        W29385  15.935  14.488   1.351
57857W        W29386  41.083  23.836   3.371
57858W        W29387   0.313  35.417   3.736
57859W        W29388  22.680  39.418   3.744
57860W        W29389  17.926  18.165  11.464
57861W        W29390  34.962  38.805   1.625
57862W        W29391  15.933   7.273  10.693
57863W        W29392  28.779   4.765   2.415
57864W        W29393  19.249  29.172  14.959
57865W        W29394  15.013   8.421  12.362
57866W        W29395   0.486  36.602  11.057
57867W        W29396  41.507  40.051   4.587
57868W        W29397   0.725  24.552   0.330
57869W        W29398  25.147  11.740   3.597
57870W        W29399  12.165  16.064   3.142
57871W        W29400  21.448  19.354  11.046
57872W        W29401   9.596  34.646   2.172
57873W        W29402  31.278  19.160  11.989
57874W        W29403  13.741  13.711   4.576
57875W        W29404  30.956  28.001  13.856
57876W        W29405  37.769  38.447   4.876
57877W        W29406  30.835   8.807   0.710
57878W        W29407  32.094  27.695  11.522
57879W        W29408  18.555  10.124  11.551
57880W        W29409  39.299  23.714  11.890
57881W        W29410  26.768  31.399  13.339
57882W        W29411  27.270  43.148   3.490
57883W        W29412  12.699  32.475  11.033
57884W        W29413   1.297  40.971  11.964
57885W        W29414  24.660   8.797  14.296
57886W        W29415  19.580  26.528  11.434
57887W        W29416  33.671  13.421  12.830
57888W        W29417  19.265  27.661   2.380
57889W        W29418  41.055  29.891   0.204
57890W        W29419  40.874  17.969  14.206
57891W        W29420  42.948  20.212   3.280
57892W        W29421  16.112  28.915   3.111
57893W        W29422  35.161  22.458   0.462
57894W        W29423   0.722   6.779   1.616
57895W        W29424   8.307  44.972   1.707
57896W        W29425  24.220  22.248  10.657
57897W        W29426  34.337  41.394  11.497
57898W        W29427   5.446  42.413  10.626
57899W        W29428  22.212   0.535   0.449
57900W        W29429  41.987  11.448   3.744
57901W        W29430  30.068   5.920  10.603
57902W        W29431  31.081  25.612   2.252
57903W        W29432   0.960  11.709  13.005
57904W        W29433   6.853   0.299  12.518
57905W        W29434  19.069  35.592  12.840
57906W        W29435  33.117  42.245  13.076
57907W        W29436  21.224  17.243  12.003
57908W        W29437  36.664   0.315   3.862
57909W        W29438   6.384  38.400  11.355
57910W        W29439   0.941  32.818   2.853
57911W        W29440  11.082  17.916   4.579
57912W        W29441  43.720   6.508   1.796
57913W        W29442   1.978  27.543   2.198
57914W        W29443  32.316   8.226  11.982
57915W        W29444  32.915  34.406  12.409
57916W        W29445  22.494  11.056   1.528
57917W        W29446  16.036   0.790  10.610
57918W        W29447  10.307   1.289   3.292
57919W        W29448  41.720  33.170   2.854
57920W        W29449  41.585  19.716  12.174
57921W        W29450  22.137  36.765  13.792
57922W        W29451  23.447   9.641  10.809
57923W        W29452   2.513  26.841  12.031
57924W        W29453  16.073   7.733   3.275
57925W        W29454  37.931   2.296  12.624
57926W        W29455   7.081  34.856  14.286
57927W        W29456  42.488  41.028  14.356
57928W        W29457  27.613   9.464  12.927
57929W        W29458  27.022  20.273  11.883
57930W        W29459  28.644  39.485  11.532
57931W        W29460  38.089   3.200  13.061
57932W        W29461  36.669  27.927  10.475
57933W        W29462  24.099  30.230   2.225
57934W        W29463  21.118  29.960  11.983
57935W        W29464  11.602  30.272   0.291
57936W        W29465  22.992  12.146  14.433
57937W        W29466  32.621  17.439   3.556
57938W        W29467  24.325  15.167   2.900
57939W        W29468  21.024   3.412  13.389
57940W        W29469  42.918   8.653  14.063
57941W        W29470  22.657  38.784  13.594
57942W        W29471  16.655  24.752   1.435
57943W        W29472  38.029  35.271  13.361
57944W        W29473  10.734  33.834  13.078
57945W        W29474  12.400  34.889  14.402
57946W        W29475  26.197   3.787   3.357
57947W        W29476  30.458  15.100  13.295
57948W        W29477  12.869  24.961  11.037
57949W        W29478  20.596  21.610   1.704
57950W        W29479  24.191  44.371  10.609
57951W        W29480   5.301   4.325   1.266
57952W        W29481  32.973   8.659   3.157
57953W        W29482  43.785   1.117   4.216
57954W        W29483  44.879  23.309  14.943
57955W        W29484  37.988   9.981   0.776
57956W        W29485   6.104   7.618   2.435
57957W        W29486   5.259  25.682   2.710
57958W        W29487   1.755  40.029  11.744
57959W        W29488  13.810  19.731  13.821
57960W        W29489  22.730  30.457   1.917
57961W        W29490  22.126  36.838  12.900
57962W        W29491  40.877  34.493   0.116
57963W        W29492  23.999  24.027   4.537
57964W        W29493  22.477  12.836  12.016
57965W        W29494  36.185  30.204   1.549
57966W        W29495  22.490   5.259  11.967
57967W        W29496  43.536  41.833   4.646
57968W        W29497  18.371  12.657  12.963
57969W        W29498  11.682  39.900   3.668
57970W        W29499  12.170  21.453   1.896
57971W        W29500  17.068   5.488  14.300
57972W        W29501  37.174   7.280   3.839
57973W        W29502   6.413  17.331   2.179
57974W        W29503  13.069  24.958   4.617
57975W        W29504  22.062  17.542   2.412
57976W        W29505   7.858  11.822   1.174
57977W        W29506  28.027  31.389  11.567
57978W        W29507   4.981  44.765   2.372
57979W        W29508  30.232  41.577   1.278
57980W        W29509  28.689  16.554  11.039
57981W        W29510  44.547  10.679   1.174
57982W        W29511  38.794  41.297   2.648
57983W        W29512  19.042  29.173  13.205
57984W        W29513  16.546  34.231  11.221
57985W        W29514  39.545  20.600   2.905
57986W        W29515  40.483   0.745   0.894
57987W        W29516  42.268  42.513   2.215
57988W        W29517  27.185  43.137   0.161
57989W        W29518  22.041  38.821   0.668
57990W        W29519   3.764  17.324   3.897
57991W        W29520  39.101  15.934   4.304
57992W        W29521  24.073  30.552   5.055
57993W        W29522  18.036  24.441   1.803
57994W        W29523  21.745   3.154  14.475
57995W        W29524  10.918  42.483   4.717
57996W        W29525  10.652  27.874   2.719
57997W        W29526  31.236  23.594   4.632
57998W        W29527  40.999  19.268  10.623
57999W        W29528  37.881   5.750   1.609
58000W        W29529  16.723   1.888  12.379
58001W        W29530  37.443  30.556  10.795
58002W        W29531  15.505  35.969   4.258
58003W        W29532  37.142  44.906   2.317
58004W        W29533  13.507  28.771  14.040
58005W        W29534  10.051  22.405  11.823
58006W        W29535  39.833   8.186   3.852
58007W        W29536  36.031  42.991  14.314
58008W        W29537  25.041   9.287   2.698
58009W        W29538   6.420  11.689  12.094
58010W        W29539  16.180  13.464  11.874
58011W        W29540   8.180  26.555  12.121
58012W        W29541  20.867  32.115   5.173
58013W        W29542  29.372  34.010   3.184
58014W        W29543  16.234   5.424  14.000
58015W        W29544  38.377  14.414   3.693
58016W        W29545  20.010   3.850  10.910
58017W        W29546  36.575  14.344  12.581
58018W        W29547  41.091  18.733  14.013
58019W        W29548   4.150  37.618   3.790
58020W        W29549  40.455  26.194   0.389
58021W        W29550   5.297  11.931  11.213
58022W        W29551  11.252  28.974   3.189
58023W        W29552  18.626   6.644   2.393
58024W        W29553   0.347  27.750   1.843
58025W        W29554  18.548  32.022   4.124
58026W        W29555  23.544  19.286   1.859
58027W        W29556   8.390  28.017   4.015
58028W        W29557  10.315  31.318   1.863
58029W        W29558  42.639  18.058   2.350
58030W        W29559  29.930  26.575  12.439
58031W        W29560  39.833  22.338  12.869
58032W        W29561  19.727  43.455   0.810
58033W        W29562  14.679  10.365  11.092
58034W        W29563  24.910  31.335   1.839
58035W        W29564  12.871  16.656  12.503
58036W        W29565  25.618  23.150   3.761
58037W        W29566  18.275  33.885  12.474
58038W        W29567  35.462  35.041   3.907
58039W        W29568   8.738  15.594   4.152
58040W        W29569  16.612   4.906   2.382
58041W        W29570   3.506  13.411   2.418
58042W        W29571  31.058  37.946   3.666
58043W        W29572  29.418  39.045  13.900
58044W        W29573   0.693  28.419   2.684
58045W        W29574   1.190  31.037   0.645
58046W        W29575  18.301  29.974   1.000
58047W        W29576  22.581   2.508  13.626
58048W        W29577  30.134   4.752   4.095
58049W        W29578  32.175   1.876  10.647
58050W        W29579  15.701  30.526   3.303
58051W        W29580  29.022  38.046   4.791
58052W        W29581  33.454  31.082   3.425
58053W        W29582  38.969  43.141  14.445
58054W        W29583   0.973   7.388  13.012
58055W        W29584  15.048  17.520  14.339
58056W        W29585  35.561  10.169   0.738
58057W        W29586  13.022  36.245  14.874
58058W        W29587  12.825   1.465  13.972
58059W        W29588  16.570  11.833  13.899
58060W        W29589   2.185   9.866  11.229
58061W        W29590  23.501  20.722   1.482
58062W        W29591  11.716   9.343   2.711
58063W        W29592  32.059   7.476  12.443
58064W        W29593   8.728   8.129   3.721
58065W        W29594  12.976  31.289  14.941
58066W        W29595  38.823   3.286  14.888
58067W        W29596  10.202  16.170  13.081
58068W        W29597  16.045  11.143  12.142
58069W        W29598   7.661  21.544   3.318
58070W        W29599  11.431  32.098  10.246
58071W        W29600  40.487  33.413  12.040
58072W        W29601   2.653  32.321   0.049
58073W        W29602  41.081  10.754  12.178
58074W        W29603  22.421  23.185   2.359
58075W        W29604  14.113  35.767   4.362
58076W        W29605  41.784  40.541  13.311
58077W        W29606  14.142   1.773  13.130
58078W        W29607  34.255  38.119  11.155
58079W        W29608  42.774   7.099  14.267
58080W        W29609   5.506  43.993   3.193
58081W        W29610  43.325  16.978  12.926
58082W        W29611   3.497  26.173  10.708
58083W        W29612   7.170  43.005  11.993
58084W        W29613   1.183  37.531   4.902
58085W        W29614   6.322   9.632   0.748
58086W        W29615  32.663  29.095   1.024
58087W        W29616  13.635  13.191   3.655
58088W        W29617  31.497  18.308  11.977
58089W        W29618  19.508  17.928   3.036
58090W        W29619  42.741  15.323   1.483
58091W        W29620  30.201  17.669  14.392
58092W        W29621  43.494  29.446   2.803
58093W        W29622  20.240   8.482   2.428
58094W        W29623   7.872   5.970   2.663
58095W        W29624  10.947  17.365  14.860
58096W        W29625  28.248  41.632  14.423
58097W        W29626  24.725  14.204  11.726
58098W        W29627  28.690  22.155   2.293
58099W        W29628  31.993  40.773  12.988
58100W        W29629  41.920  14.272  10.961
58101W        W29630  26.892  40.358  13.326
58102W        W29631  25.257  42.413  11.161
58103W        W29632  44.980   0.384   0.707
58104W        W29633  36.259   2.065  10.260
58105W        W29634  36.261  37.503   5.078
58106W        W29635  43.991   9.375   3.657
58107W        W29636  17.919  23.401  12.963
58108W        W29637  26.271  42.829  14.402
58109W        W29638  37.946  20.332  14.044
58110W        W29639  33.003  14.215  13.802
58111W        W29640  28.161   5.083  12.377
58112W        W29641  13.635  18.704  13.032
58113W        W29642  10.279  28.428  12.059
58114W        W29643  43.446  28.491   0.049
58115W        W29644  20.795  39.936   2.679
58116W        W29645  14.308  38.520  13.998
58117W        W29646  29.577  15.867   4.501
58118W        W29647  16.759   6.678  11.627
58119W        W29648  38.113  10.188   2.128
58120W        W29649  16.302  34.453  14.429
58121W        W29650  44.062   5.852   3.595
58122W        W29651  16.760   1.205   1.518
58123W        W29652   4.469  43.719  10.589
58124W        W29653  42.555  13.368   3.767
58125W        W29654  23.219  40.437  11.642
58126W        W29655  26.030   8.737  14.487
58127W        W29656  44.955   4.738  13.126
58128W        W29657  27.412  38.779  12.600
58129W        W29658  27.406   7.405  12.492
58130W        W29659  35.219   5.966  12.596
58131W        W29660  43.992  20.611  12.218
58132W        W29661  31.091  44.833   3.380
58133W        W29662   7.142  35.916  13.809
58134W        W29663   4.165  19.154   1.690
58135W        W29664  39.969  12.938   3.665
58136W        W29665  42.405  14.300  14.310
58137W        W29666  43.312  35.922  10.446
58138W        W29667  40.927  35.670  12.037
58139W        W29668  32.057  11.093   2.391
58140W        W29669  24.758  36.549   3.724
58141W        W29670  23.677  28.243   2.201
58142W        W29671  37.308  43.166   2.888
58143W        W29672  35.425  23.085   0.806
58144W        W29673  43.459  11.042   3.269
58145W        W29674  38.288   4.287  12.040
58146W        W29675   9.702  26.478  10.918
58147W        W29676  10.224  22.796  10.421
58148W        W29677  14.287   4.465  14.487
58149W        W29678  21.507  14.092   4.153
58150W        W29679  32.442  32.509   2.413
58151W        W29680  14.270  37.856  11.679
58152W        W29681   1.950  16.136   3.150
58153W        W29682  13.893  40.318  13.393
58154W        W29683  33.028   4.757  13.593
58155W        W29684  44.696  20.506   2.334
58156W        W29685  28.596   6.847   0.279
58157W        W29686  16.475  11.454   4.042
58158W        W29687  39.457  33.200   4.482
58159W        W29688  22.088  35.444  10.719
58160W        W29689  35.939  27.199   1.870
58161W        W29690  43.035  29.994   4.107
58162W        W29691  19.886  44.331  14.993
58163W        W29692  32.952  32.970   3.762
58164W        W29693  19.869  25.249   0.958
58165W        W29694  26.196   7.245  14.994
58166W        W29695  36.019  14.910  12.855
58167W        W29696  15.779  22.225  10.024
58168W        W29697   9.086  40.297  11.485
58169W        W29698  22.936   3.936  14.886
58170W        W29699  34.883   1.762   0.324
58171W        W29700  40.585  42.833  11.205
58172W        W29701  39.398  38.549   4.797
58173W        W29702  31.893   7.981   2.699
58174W        W29703  15.658   7.719  13.773
58175W        W29704  11.391  36.145  10.418
58176W        W29705  22.153  31.342   3.719
58177W        W29706  26.025  23.475   0.919
58178W        W29707  12.108  11.518  11.408
58179W        W29708  39.530   9.824  12.569
58180W        W29709  15.607  17.360  14.734
58181W        W29710  23.774   9.152   0.313
58182W        W29711   2.867   5.772  12.047
58183W        W29712  33.566   1.917  10.755
58184W        W29713  23.115   1.262   0.511
58185W        W29714  27.467  25.433   2.568
58186W        W29715  33.478   3.459   4.159
58187W        W29716   0.286  19.896   3.490
58188W        W29717  18.906  21.702   2.040
58189W        W29718   8.628  32.083   4.750
58190W        W29719  35.375  27.002   0.885
58191W        W29720  15.103  11.386  14.283
58192W        W29721  24.970  16.963   1.500
58193W        W29722  19.184  33.636  11.442
58194W        W29723  40.257  31.581  14.511
58195W        W29724  15.986  11.211   1.328
58196W        W29725  44.461  40.252  10.135
58197W        W29726  31.484   3.510   3.060
58198W        W29727  10.571  35.336  12.053
58199W        W29728  35.025  43.069  12.821
58200W        W29729  42.438   7.847   1.231
58201W        W29730  44.894  30.530  10.902
58202W        W29731   6.782  17.929   0.000
58203W        W29732  39.223  35.025   4.697
58204W        W29733  44.370  29.813  13.439
58205W        W29734  37.375  21.151   0.808
58206W        W29735  27.942   2.391   1.064
58207W        W29736  14.604  39.072   3.443
58208W        W29737  28.547  26.444  13.136
58209W        W29738   1.590  36.404   5.120
58210W        W29739  13.852  10.208   0.327
58211W        W29740  42.891   3.885  11.570
58212W        W29741  14.049  43.607   4.932
58213W        W29742  16.275  31.263  12.065
58214W        W29743   3.530  33.448  14.750
58215W        W29744  12.830  35.357   4.558
58216W        W29745  11.364  25.002   0.940
58217W        W29746  29.595  36.564   3.856
58218W        W29747  14.901  17.821   1.377
58219W        W29748  11.915  43.325   2.442
58220W        W29749  34.461  29.551  14.100
58221W        W29750  18.892  21.242  10.314
58222W        W29751  38.338   2.851   0.022
58223W        W29752  14.081  30.031   0.902
58224W        W29753  14.282  12.427   4.842
58225W        W29754   2.596  25.548  14.623
58226W        W29755   5.400  38.320   3.141
58227W        W29756  41.386  10.409  14.067
58228W        W29757  37.966  35.584   4.193
58229W        W29758  39.166  41.715  10.259
58230W        W29759   6.395  19.824  10.254
58231W        W29760  25.223  37.948   3.330
58232W        W29761  12.145  20.502  12.374
58233W        W29762  41.793   1.305   4.649
58234W        W29763  42.308  11.600   1.399
58235W        W29764  29.003   9.445   2.219
58236W        W29765  39.208   8.500  13.828
58237W        W29766  18.993  22.229   5.023
58238W        W29767  21.785  16.635   2.767
58239W        W29768   2.267   3.483   3.496
58240W        W29769  36.986  10.727  10.541
58241W        W29770  38.013  24.537   0.356
58242W        W29771  20.088  36.137   0.040
58243W        W29772  22.172  39.934  14.834
58244W        W29773  25.998   9.724   2.406
58245W        W29774  27.688  19.111   0.548
58246W        W29775  11.069  29.983   4.560
58247W        W29776  34.171  12.358   1.883
58248W        W29777  12.113   5.489   0.893
58249W        W29778   8.655  35.344   3.465
58250W        W29779  11.844  42.620   0.411
58251W        W29780  33.531  26.432  10.628
58252W        W29781   3.968  42.958  14.487
58253W        W29782  10.807  26.606  11.129
58254W        W29783  16.854  14.400   4.172
58255W        W29784   7.771  10.681   1.945
58256W        W29785  29.638  20.788   1.636
58257W        W29786   0.262   1.700   3.713
58258W        W29787   2.764  14.896  14.529
58259W        W29788   8.867  27.369   4.119
58260W        W29789  16.534  37.563   1.715
58261W        W29790  23.184  17.042   4.110
58262W        W29791   8.211   5.958   4.358
58263W        W29792  25.272  38.433   2.822
58264W        W29793  41.592  10.623  12.071
58265W        W29794  23.794  27.593  11.091
58266W        W29795  14.218   4.709  10.897
58267W        W29796  37.234   3.898   4.583
58268W        W29797  31.688  32.378  10.389
58269W        W29798  36.601  42.982  10.528
58270W        W29799  43.204   5.749  11.718
58271W        W29800   4.634   6.461   3.280
58272W        W29801  12.148  21.454   3.244
58273W        W29802  43.312  29.841   3.681
58274W        W29803  12.123  28.482  10.679
58275W        W29804  36.523  22.173  10.667
58276W        W29805  15.092   3.691   4.152
58277W        W29806  34.099   4.610  10.728
58278W        W29807  23.257   4.415   0.842
58279W        W29808  17.146   4.453   3.292
58280W        W29809  11.785  39.077  12.883
58281W        W29810  14.548  40.515  13.918
58282W        W29811  41.559  39.968   0.025
58283W        W29812  14.310  25.161   2.863
58284W        W29813   2.992  27.516  14.858
58285W        W29814  30.002  41.889   0.464
58286W        W29815  22.018  22.917  11.405
58287W        W29816  29.702  11.274  11.286
58288W        W29817  39.107  39.811   2.442
58289W        W29818  41.146  40.945  10.455
58290W        W29819   0.289  20.232   3.062
58291W        W29820  26.649  30.027   2.803
58292W        W29821   7.360  33.155  12.966
58293W        W29822  29.170  19.087   4.698
58294W        W29823  19.474  29.846  11.323
58295W        W29824   6.612  23.728   4.633
58296W        W29825  36.627   2.355   0.108
58297W        W29826  28.102   1.859  11.937
58298W        W29827  21.655  29.779  13.958
58299W        W29828  39.951  18.071   4.271
58300W        W29829  26.488   4.704  13.328
58301W        W29830  18.595  19.184  13.828
58302W        W29831  19.597  18.626  11.374
58303W        W29832   6.303  30.555   5.049
58304W        W29833  21.754   9.776   4.663
58305W        W29834  17.717  23.209   4.400
58306W        W29835  31.934  34.571  13.037
58307W        W29836  20.454  16.110  12.833
58308W        W29837  22.026  21.260   2.969
58309W        W29838  22.626  30.833   2.276
58310W        W29839  21.736  40.857   4.140
58311W        W29840  29.538  10.837  11.130
58312W        W29841  11.805   2.764  11.088
58313W        W29842   9.362  36.339  12.929
58314W        W29843  38.337  24.497   0.810
58315W        W29844  24.012  28.066  10.853
58316W        W29845  23.917  35.621  12.066
58317W        W29846  10.923  44.928   2.135
58318W        W29847  40.413  14.789  12.502
58319W        W29848  33.891   7.732   1.359
58320W        W29849  37.451  28.958   2.202
58321W        W29850   0.934   4.465  14.285
58322W        W29851  39.924  36.000  11.203
58323W        W29852   9.190  29.860   1.798
58324W        W29853  18.599  18.271   0.985
58325W        W29854  40.503   8.197   4.141
58326W        W29855  44.993   3.460  12.069
58327W        W29856  41.522  28.948  14.896
58328W        W29857  11.517   8.246  11.717
58329W        W29858  42.963  16.668   2.455
58330W        W29859  10.466  12.278   0.915
58331W        W29860  33.829   2.857  14.913
58332W        W29861  41.557  20.079   2.096
58333W        W29862  41.989  44.702   3.760
58334W        W29863  29.888  11.814   0.583
58335W        W29864   3.373  27.962  10.624
58336W        W29865  12.153  35.600   1.588
58337W        W29866   6.141  31.484  12.106
58338W        W29867  42.353  27.209  12.836
58339W        W29868   0.828  22.218   2.281
58340W        W29869  30.840  19.762   4.039
58341W        W29870   3.205  43.388  14.476
58342W        W29871  41.989  40.991  11.627
58343W        W29872  35.946  28.031   4.501
58344W        W29873  17.688  39.386   2.059
58345W        W29874  25.007  25.229  14.707
58346W        W29875  33.831   1.174  12.111
58347W        W29876  36.998  41.956   4.681
58348W        W29877  20.118  37.574  10.128
58349W        W29878  34.430  34.904   0.177
58350W        W29879  42.828  31.651  14.550
58351W        W29880  24.577  22.283  14.400
58352W        W29881  15.277  34.585   1.494
58353W        W29882  18.275   0.429  11.600
58354W        W29883   7.734  41.556   3.244
58355W        W29884  14.625  10.419  14.752
58356W        W29885  27.469  34.017   0.777
58357W        W29886  12.175   7.817   1.919
58358W        W29887  31.796  38.437   2.306
58359W        W29888   9.177  36.415  14.455
58360W        W29889  24.604  32.960   1.370
58361W        W29890  43.445  11.332   3.705
58362W        W29891  30.056  43.555   3.746
58363W        W29892  17.632   8.566   1.424
58364W        W29893  18.568  19.011   3.314
58365W        W29894  28.088  32.145   5.056
58366W        W29895   3.293  29.427   4.079
58367W        W29896  10.724  26.946  12.990
58368W        W29897   5.826  15.423   2.990
58369W        W29898  20.706  15.634  12.941
58370W        W29899  43.825  40.285   0.331
58371W        W29900  42.271  24.535  14.570
58372W        W29901  27.127  17.091   1.230
58373W        W29902  40.428  33.009  13.969
58374W        W29903  15.328  31.389  12.056
58375W        W29904  29.469   1.574   2.169
58376W        W29905  15.840   4.290  12.026
58377W        W29906  18.019  20.895  11.991
58378W        W29907  38.530  33.652   0.884
58379W        W29908  10.265   7.721   1.540
58380W        W29909  31.025  35.214   4.520
58381W        W29910  23.143  43.744   4.168
58382W        W29911  37.004  15.080  12.065
58383W        W29912  11.921  31.053  13.942
58384W        W29913  28.291  36.543   1.516
58385W        W29914  21.001  13.600  11.401
58386W        W29915   8.995  32.407  14.443
58387W        W29916  40.879   8.932   1.835
58388W        W29917  29.713  10.877  12.316
58389W        W29918   5.621  32.554  12.467
58390W        W29919  26.817   0.236   2.840
58391W        W29920  26.284   0.824   4.132
58392W        W29921  26.521  19.958  10.507
58393W        W29922  31.192  20.721   1.762
58394W        W29923  33.906   2.283   0.839
58395W        W29924   0.777  32.564   4.106
58396W        W29925  27.498  39.841   2.547
58397W        W29926  44.902  21.012   3.256
58398W        W29927  31.653   4.913  13.018
58399W        W29928  32.933  12.123   2.170
58400W        W29929  29.451  10.274  10.318
58401W        W29930  33.618  39.857  11.058
58402W        W29931  40.685   1.920  12.566
58403W        W29932  15.375   7.868   3.848
58404W        W29933  14.178   3.185   2.411
58405W        W29934   2.466  22.217  11.816
58406W        W29935  15.584  20.649   0.414
58407W        W29936  21.955  41.337   2.414
58408W        W29937  35.581  43.510  11.849
58409W        W29938  18.628  26.127   0.592
58410W        W29939  44.490  19.692  11.213
58411W        W29940   7.281  17.944  14.870
58412W        W29941  26.154  35.120  11.800
58413W        W29942   7.388  14.721   4.729
58414W        W29943  37.831  36.349  12.650
58415W        W29944  35.879  43.866   1.671
58416W        W29945  30.457   6.352   3.743
58417W        W29946  19.858   8.784  14.249
58418W        W29947   6.963   5.399  13.476
58419W        W29948  37.014  29.969   4.587
58420W        W29949  17.117  31.502  11.255
58421W        W29950  44.782  16.207   1.362
58422W        W29951  38.029  36.220  11.208
58423W        W29952  31.682  39.527  10.717
58424W        W29953  29.525  17.717  11.360
58425W        W29954   4.060  21.566   2.702
58426W        W29955  43.255  25.650  14.355
58427W        W29956   8.788  27.538   0.412
58428W        W29957  35.621  13.267   4.629
58429W        W29958  17.803   5.963   0.429
58430W        W29959  36.375  30.718  12.972
58431W        W29960  35.863  20.218   0.806
58432W        W29961  28.926  34.656  14.050
58433W        W29962   4.678   5.787  11.537
58434W        W29963  17.019  44.977   1.281
58435W        W29964   5.806  36.566   4.582
58436W        W29965  40.480   3.142  13.840
58437W        W29966  11.286  41.992   1.383
58438W        W29967  32.704  30.519   3.089
58439W        W29968  41.177  24.470   1.761
58440W        W29969  10.552  44.755   1.230
58441W        W29970   6.000  17.574  10.232
58442W        W29971  20.674  29.511   1.932
58443W        W29972  37.727  27.031  11.119
58444W        W29973   5.145  21.108  11.651
58445W        W29974  18.917  12.660   4.131
58446W        W29975  40.213   2.364   1.449
58447W        W29976   3.124   3.847  12.995
58448W        W29977  11.057  13.351   2.322
58449W        W29978  31.825  31.551   4.847
58450W        W29979  38.943  18.831   1.481
58451W        W29980  31.651   0.706  14.398
58452W        W29981  11.753   9.633  14.938
58453W        W29982  14.608  33.595   1.893
58454W        W29983  12.393  23.048   4.992
58455W        W29984   7.843  42.117   3.688
58456W        W29985  12.991  40.927   0.907
58457W        W29986  27.279   1.348  13.019
58458W        W29987  39.352   8.580  12.875
58459W        W29988  37.521  31.494   1.945
58460W        W29989  15.599  20.628  11.595
58461W        W29990  31.384  21.477  11.137
58462W        W29991  19.755   8.184   3.567
58463W        W29992   6.682   7.326  11.189
58464W        W29993  35.280   4.954  13.428
58465W        W29994   1.462  25.764  11.052
58466W        W29995  34.606  31.932  11.650
58467W        W29996  28.571  29.486   0.379
58468W        W29997  36.472   8.904   0.819
58469W        W29998  19.339  27.757  14.961
58470W        W29999   4.010  10.673  13.988
58471W        W30000  10.225  43.976   2.723
58472W        W30001  32.549   2.440   0.333
58473W        W30002  20.248  38.304  11.994
58474W        W30003  33.558  13.865  11.461
58475W        W30004   7.205  12.513  14.325
58476W        W30005  40.234  23.966  12.017
58477W        W30006   4.139  17.172  11.666
58478W        W30007  12.362  24.868  11.096
58479W        W30008  11.024  42.162  10.784
58480W        W30009   4.875  19.218  14.588
58481W        W30010   9.871   6.024  12.504
58482W        W30011   6.986  37.493   0.810
58483W        W30012   6.811  43.519  14.002
58484W        W30013  13.246   1.281   1.862
58485W        W30014  38.577   9.143   5.105
58486W        W30015  36.594  42.086   2.831
58487W        W30016  26.489  22.379  11.094
58488W        W30017  24.309  15.586   3.630
58489W        W30018  22.154   4.753  10.661
58490W        W30019  33.242  43.337  10.743
58491W        W30020  20.225  25.459  13.853
58492W        W30021  11.716  39.953  14.767
58493W        W30022   0.260   8.860  14.128
58494W        W30023  29.507   6.842   0.518
58495W        W30024  35.352  29.965  11.077
58496W        W30025  20.150  41.616  12.369
58497W        W30026  12.763  35.976   4.882
58498W        W30027  35.631  42.303  13.822
58499W        W30028  35.016   4.468   2.832
58500W        W30029   9.248  22.414  14.023
58501W        W30030  15.866  12.213  10.209
58502W        W30031  20.095  44.010  10.787
58503W        W30032  44.972  21.227   1.314
58504W        W30033  33.297   8.879  11.540
58505W        W30034  18.081  30.839  12.103
58506W        W30035  22.143  25.356   2.791
58507W        W30036  33.612  12.245  10.009
58508W        W30037  39.685  42.446   2.478
58509W        W30038   3.544  30.498  11.062
58510W        W30039   4.031   2.983   1.302
58511W        W30040  39.053  22.986   2.284
58512W        W30041  10.427  39.488   4.231
58513W        W30042   0.401  16.901   2.855
58514W        W30043  16.772  36.194   3.812
58515W        W30044  19.755  17.247   0.818
58516W        W30045  35.372   6.053   4.173
58517W        W30046  34.317   2.624   3.366
58518W        W30047   4.911   0.464  11.551
58519W        W30048  33.402  23.418   2.136
58520W        W30049  18.042   7.161   1.933
58521W        W30050   7.621   8.144   4.455
58522W        W30051  29.754  37.514   3.147
58523W        W30052  25.207  26.625   3.143
58524W        W30053  17.165  12.073  10.564
58525W        W30054  34.059   3.478  14.378
58526W        W30055  39.914  40.623   3.212
58527W        W30056  33.625  15.755   0.235
58528W        W30057  30.075   7.679   0.497
58529W        W30058  19.518  36.603   0.857
58530W        W30059  39.549  22.552  13.265
58531W        W30060  14.092   0.181   0.258
58532W        W30061  34.955  11.671   4.429
58533W        W30062   0.886   9.734  11.230
58534W        W30063  44.465  17.683   2.408
58535W        W30064  37.102   8.132   3.288
58536W        W30065  28.860  22.620   2.382
58537W        W30066  14.808  14.749  14.845
58538W        W30067  22.772  41.359   3.687
58539W        W30068  38.355   1.359  10.609
58540W        W30069  34.935  40.947  13.785
58541W        W30070   2.291  25.369   3.244
58542W        W30071  37.326  34.266   1.904
58543W        W30072  28.014  12.826  10.726
58544W        W30073  12.706  35.045   3.141
58545W        W30074  40.107  30.520   2.958
58546W        W30075  19.135  16.075  14.869
58547W        W30076   8.697  44.381  13.074
58548W        W30077  31.809  12.269   0.343
58549W        W30078  33.518  14.145   0.840
58550W        W30079  18.490   4.600   2.105
58551W        W30080  43.778  24.291  14.385
58552W        W30081   2.838  29.175  10.632
58553W        W30082  35.580  27.714   2.829
58554W        W30083  14.554  28.003   1.751
58555W        W30084  29.529  31.408   0.338
58556W        W30085  14.288  36.791   1.839
58557W        W30086  32.525  18.328   1.009
58558W        W30087  27.174  29.447  14.543
58559W        W30088  33.173  31.134  12.593
58560W        W30089   6.270  12.358   1.210
58561W        W30090  15.155  18.710  13.337
58562W        W30091  25.859  39.538  12.113
58563W        W30092  28.653   3.273  14.953
58564W        W30093  16.620   9.248   1.958
58565W        W30094  27.865  37.664  11.910
58566W        W30095  36.612   9.466  13.655
58567W        W30096  34.730   1.221  11.073
58568W        W30097   4.563   8.714   0.638
58569W        W30098   1.369  15.136   4.556
58570W        W30099  21.284  37.123  13.534
58571W        W30100   1.389   1.924   0.012
58572W        W30101  37.972  25.965  11.929
58573W        W30102  16.637  22.026  13.910
58574W        W30103  13.981  34.144  14.038
58575W        W30104   9.292  44.458   0.751
58576W        W30105   9.617   7.057  10.497
58577W        W30106  43.295  37.916   1.001
58578W        W30107   0.774  26.260   0.669
58579W        W30108  35.906  20.023  12.315
58580W        W30109  32.571   6.038  12.991
58581W        W30110  11.105  39.338   2.131
58582W        W30111  17.421  42.206   2.108
58583W        W30112  18.077   5.703   3.207
58584W        W30113   3.833  32.557   4.722
58585W        W30114   6.256  35.331   2.714
58586W        W30115  21.439  36.340  12.456
58587W        W30116  29.546   3.344  12.016
58588W        W30117  33.941  39.431   1.435
58589W        W30118  34.893  44.259   4.551
58590W        W30119  33.014  38.617   3.161
58591W        W30120  32.175  22.306   2.229
58592W        W30121  35.256  22.739  13.441
58593W        W30122  27.431  21.106  12.628
58594W        W30123  19.143  16.396  14.432
58595W        W30124  27.711  10.877   2.828
58596W        W30125   2.544  31.695   3.703
58597W        W30126  34.293  30.602  11.493
58598W        W30127  37.883  17.480   4.174
58599W        W30128  21.029  23.210   1.838
58600W        W30129  37.880  39.949  14.486
58601W        W30130  31.082  37.032   3.606
58602W        W30131  32.704  16.703  13.985
58603W        W30132  42.397  37.651  14.977
58604W        W30133  38.434   9.625   3.728
58605W        W30134   5.906  21.137  13.610
58606W        W30135  16.825  23.287   2.673
58607W        W30136  33.808   8.182  14.501
58608W        W30137  29.580  24.533  14.985
58609W        W30138  33.512  24.150  10.601
58610W        W30139  11.345   0.225  12.884
58611W        W30140  36.724  22.089   1.890
58612W        W30141  17.208  19.632  12.427
58613W        W30142  41.311  22.153  13.511
58614W        W30143  18.961  15.618  11.608
58615W        W30144  17.611  14.572   2.004
58616W        W30145  35.346  44.923  12.476
58617W        W30146  12.718  25.060   1.189
58618W        W30147  32.894  17.111  13.265
58619W        W30148  41.189  27.045  14.050
58620W        W30149   9.584  39.021   4.220
58621W        W30150  44.335  42.401  10.292
58622W        W30151  28.327  39.891   4.559
58623W        W30152  10.700  27.829  13.243
58624W        W30153  28.822  18.150   3.230
58625W        W30154  10.434  42.508   2.710
58626W        W30155  24.478  29.872   4.134
58627W        W30156  15.893  23.646  14.742
58628W        W30157  30.109  16.866  10.162
58629W        W30158   5.776   6.429   0.323
58630W        W30159  13.397  36.430  13.332
58631W        W30160  21.589  43.075   4.791
58632W        W30161  12.749  25.451  13.544
58633W        W30162  21.906  28.400  13.076
58634W        W30163  38.263  14.202  14.414
58635W        W30164  20.781  13.588  14.886
58636W        W30165   4.294   7.638  11.175
58637W        W30166   6.910   6.699  11.940
58638W        W30167  39.620  34.511   4.077
58639W        W30168  36.027   2.272  10.680
58640W        W30169   7.943  17.009  10.329
58641W        W30170  38.857  40.323  13.158
58642W        W30171   3.789   7.991  14.066
58643W        W30172  11.957   4.397  13.567
58644W        W30173  43.497  28.329   2.140
58645W        W30174  38.834   2.366   3.226
58646W        W30175   0.819  21.547  13.005
58647W        W30176   2.522  16.693   2.807
58648W        W30177  37.726  23.901  14.538
58649W        W30178  22.375  31.931   2.339
58650W        W30179  43.967  27.348   2.588
58651W        W30180   5.831  36.572   1.959
58652W        W30181   6.321  41.680  14.769
58653W        W30182  12.607  27.927  11.994
58654W        W30183  44.451  17.289   0.765
58655W        W30184  27.577  15.112  12.162
58656W        W30185   1.916  39.836  11.311
58657W        W30186  24.687  29.799   1.195
58658W        W30187   6.590  15.014   0.354
58659W        W30188  22.178   7.449   4.774
58660W        W30189  10.831  44.025  14.878
58661W        W30190  21.801  15.706   3.559
58662W        W30191  39.332   9.746   4.203
58663W        W30192  42.766  37.925   0.853
58664W        W30193  25.121  19.669  10.741
58665W        W30194  13.424  33.086  13.469
58666W        W30195  31.174  12.702   3.225
58667W        W30196  32.027   1.223   5.245
58668W        W30197  29.487  24.098   4.653
58669W        W30198  31.768  26.973   3.628
58670W        W30199  24.921  25.337  12.456
58671W        W30200  22.788  23.624   5.000
58672W        W30201  35.762   3.249   4.947
58673W        W30202  37.587  27.561   3.151
58674W        W30203  22.734   3.855  10.548
58675W        W30204   3.016  43.287  10.735
58676W        W30205  24.968  42.923   3.362
58677W        W30206  19.066  33.955   2.263
58678W        W30207  31.861  12.129  11.102
58679W        W30208  43.434  10.949  11.617
58680W        W30209  17.086  25.179   3.687
58681W        W30210  23.263  33.982   0.866
58682W        W30211  26.498  28.114  14.892
58683W        W30212  41.433  44.423  13.876
58684W        W30213  23.234  24.009  11.402
58685W        W30214  20.222  40.305   1.292
58686W        W30215  18.305   3.930   3.871
58687W        W30216  27.206  34.168   3.232
58688W        W30217  27.991  22.933   0.875
58689W        W30218  25.552  11.578   2.408
58690W        W30219   0.409  11.680   4.203
58691W        W30220  37.612  15.075   2.879
58692W        W30221  40.241  25.871  10.704
58693W        W30222  29.211  13.237   3.589
58694W        W30223  11.163  25.285  12.037
58695W        W30224  15.738  31.456  12.341
58696W        W30225  12.816  44.858  11.928
58697W        W30226  27.981   7.194   0.667
58698W        W30227  11.583  21.149   3.858
58699W        W30228   7.238  27.521   1.862
58700W        W30229   8.781  30.162   4.318
58701W        W30230  23.695  43.356   3.256
58702W        W30231   7.396  11.676   4.640
58703W        W30232   8.707  36.438  12.385
58704W        W30233   9.719  33.564  14.849
58705W        W30234  27.986  25.192   4.396
58706W        W30235  14.793  34.616  11.974
58707W        W30236  29.248  26.765   3.317
58708W        W30237   8.157  17.804  10.726
58709W        W30238  20.320   7.874  10.759
58710W        W30239   6.304   0.581   1.462
58711W        W30240   9.809  40.769   0.693
58712W        W30241  35.060   4.378   0.497
58713W        W30242  35.033   6.355  11.175
58714W        W30243   6.656  37.499  10.652
58715W        W30244  44.330  30.994   4.752
58716W        W30245  44.037  17.237  14.424
58717W        W30246   1.055  29.493   4.135
58718W        W30247  28.042  32.978  11.117
58719W        W30248  20.647  12.543  13.150
58720W        W30249  43.837  42.666  14.020
58721W        W30250  19.745  14.793  11.618
58722W        W30251  21.759  24.786  14.875
58723W        W30252  33.029  14.868   4.255
58724W        W30253  10.184  39.452   4.686
58725W        W30254   9.299  15.376  10.727
58726W        W30255  10.799  43.981   0.846
58727W        W30256  16.579  39.387   2.227
58728W        W30257  33.760  17.202   5.243
58729W        W30258  13.165  12.061  10.856
58730W        W30259  13.881  39.653   4.478
58731W        W30260  33.263   9.834   2.718
58732W        W30261  10.011  24.751  11.174
58733W        W30262   0.055  30.516  11.366
58734W        W30263   8.931  19.786  13.983
58735W        W30264  23.010  28.481   2.890
58736W        W30265  11.324  24.554  11.632
58737W        W30266   0.253  36.231  12.849
58738W        W30267  10.263  34.885   2.380
58739W        W30268  28.584  41.497  10.665
58740W        W30269  16.339  12.974  13.921
58741W        W30270  27.938  42.854  10.043
58742W        W30271  19.191  20.686  13.126
58743W        W30272  10.576   9.493  12.961
58744W        W30273  29.910  42.560  11.787
58745W        W30274  18.854   7.313  14.790
58746W        W30275  22.764  35.034   3.187
58747W        W30276  40.547  21.518   1.661
58748W        W30277  29.953  23.782   9.817
58749W        W30278  13.322  36.859  12.038
58750W        W30279  19.519  11.226  14.048
58751W        W30280  26.192  16.660   3.180
58752W        W30281  13.353  21.108  11.691
58753W        W30282  27.362  35.674  10.757
58754W        W30283  17.083  41.175  10.348
58755W        W30284  34.366  41.406   4.680
58756W        W30285  41.747   3.923  12.932
58757W        W30286   9.342  44.711  10.931
58758W        W30287  29.697   4.423  10.536
58759W        W30288  29.997   9.401   2.104
58760W        W30289  14.319  37.569   4.529
58761W        W30290   7.291  23.110  11.035
58762W        W30291  39.398  35.596   4.126
58763W        W30292   6.260  39.783   2.719
58764W        W30293  34.396   3.384   1.608
58765W        W30294  10.318  16.576  12.786
58766W        W30295  20.157  27.019  10.876
58767W        W30296  18.996  25.795  10.646
58768W        W30297  27.648   6.849   3.631
58769W        W30298  25.558  16.314   0.567
58770W        W30299  20.699  24.051   2.148
58771W        W30300  37.372  16.767  14.920
58772W        W30301   3.181  25.549   2.333
58773W        W30302  10.690  18.612   4.094
58774W        W30303   8.549   8.876   3.254
58775W        W30304  13.416  27.901   2.572
58776W        W30305   9.835  31.719  13.295
58777W        W30306  44.508  19.056   4.141
58778W        W30307  28.947  14.281  14.305
58779W        W30308  16.032  11.749  10.010
58780W        W30309  24.843   1.937   3.304
58781W        W30310  30.627  10.918   4.573
58782W        W30311  29.187  43.640   1.944
58783W        W30312  26.695   2.886   3.595
58784W        W30313  22.574  37.088  13.080
58785W        W30314  34.317   5.839   0.556
58786W        W30315  26.680  15.284   5.021
58787W        W30316   7.780   8.249   1.889
58788W        W30317  12.453  17.557  12.419
58789W        W30318  18.782  37.902   2.744
58790W        W30319  25.650  35.616  13.483
58791W        W30320  20.555  34.631   3.724
58792W        W30321  29.973  32.499  11.580
58793W        W30322  10.383   2.213  10.623
58794W        W30323   8.083  28.135   3.582
58795W        W30324   1.511  16.438  12.086
58796W        W30325  19.566   0.279  13.373
58797W        W30326  39.924   8.318   4.333
58798W        W30327  22.888  26.582   2.730
58799W        W30328  38.570  10.633  13.983
58800W        W30329  16.077   1.316  14.234
58801W        W30330  38.505  28.125   3.659
58802W        W30331  36.943  25.685   2.619
58803W        W30332  27.711  35.544  12.216
58804W        W30333  39.803  38.565  10.516
58805W        W30334  26.090  34.938  10.993
58806W        W30335  25.737  24.060   2.237
58807W        W30336  20.243  20.852  11.906
58808W        W30337  12.215   9.827   4.146
58809W        W30338   7.595  23.890   0.519
58810W        W30339  36.359  44.275   4.731
58811W        W30340  35.907  40.532  11.007
58812W        W30341  14.698  44.415   2.823
58813W        W30342  15.625  12.730  13.424
58814W        W30343   8.034  21.699   4.550
58815W        W30344  25.351  33.728   0.042
58816W        W30345  15.868  27.705  14.077
58817W        W30346  42.656  30.067  12.431
58818W        W30347  10.348  13.579  13.122
58819W        W30348   7.907  39.342  14.809
58820W        W30349   0.043   8.630   1.123
58821W        W30350  14.342  12.121   0.955
58822W        W30351  34.172  38.970  13.991
58823W        W30352  43.583  10.113  13.357
58824W        W30353  25.826  14.772   3.713
58825W        W30354  24.640  15.180  10.954
58826W        W30355  18.674   3.781   1.984
58827W        W30356  31.163  38.254  12.865
58828W        W30357  22.199   3.547   1.183
58829W        W30358  10.566  18.008   4.175
58830W        W30359  41.114  37.881   1.632
58831W        W30360   1.818  34.610  13.487
58832W        W30361   4.464  37.223   2.288
58833W        W30362  41.204  25.691   1.806
58834W        W30363  31.327  16.569   2.570
58835W        W30364  26.255   7.625   3.946
58836W        W30365  34.059  24.643   1.925
58837W        W30366  32.898  30.463   4.322
58838W        W30367  16.499  44.410   0.832
58839W        W30368  10.343  17.031  11.872
58840W        W30369  31.428   9.548   1.661
58841W        W30370  19.376   8.286   1.387
58842W        W30371  36.546   8.959  13.569
58843W        W30372  25.003   2.738   1.345
58844W        W30373  10.821  42.687  12.083
58845W        W30374  13.713   3.143  14.397
58846W        W30375  20.510   3.862  14.414
58847W        W30376   3.695   3.949  11.208
58848W        W30377  12.330  38.522  12.177
58849W        W30378  37.918  38.336   1.950
58850W        W30379  12.391   5.768   2.274
58851W        W30380  33.205  15.125  11.787
58852W        W30381  34.354   0.253  11.437
58853W        W30382  33.144  19.580  11.093
58854W        W30383   7.325  44.197   3.147
58855W        W30384  26.232  10.906   0.238
58856W        W30385  37.104  38.804   3.131
58857W        W30386  35.636  18.622  14.770
58858W        W30387  33.450  20.593  10.598
58859W        W30388   6.400  13.080  10.450
58860W        W30389  14.604  10.299   4.036
58861W        W30390  44.012   2.642   3.268
58862W        W30391   6.725  35.672  13.029
58863W        W30392  31.027  18.168  11.091
58864W        W30393   6.469  42.945  10.209
58865W        W30394  20.882   5.114   1.865
58866W        W30395  12.293  33.359   2.873
58867W        W30396  35.557   3.755  13.376
58868W        W30397  43.688  27.256   0.343
58869W        W30398  14.325  24.176  11.307
58870W        W30399  13.945  33.981   4.203
58871W        W30400   8.820  25.645   0.702
58872W        W30401   0.983  15.213   2.854
58873W        W30402   8.965  10.821  12.511
58874W        W30403  32.217  32.566   1.942
58875W        W30404  22.408  40.545  11.192
58876W        W30405   1.739  34.922  11.398
58877W        W30406  33.703  24.401   2.290
58878W        W30407  12.144  22.567  10.465
58879W        W30408  27.410   6.723  14.168
58880W        W30409  41.886  19.533   4.160
58881W        W30410  15.921  25.175   1.030
58882W        W30411   2.984  44.946  11.634
58883W        W30412  43.346  28.134  13.010
58884W        W30413  27.999  40.697   0.350
58885W        W30414  39.809  18.075   4.781
58886W        W30415   6.752   7.097  10.701
58887W        W30416  37.927  27.898   0.469
58888W        W30417  44.433  30.816  12.444
58889W        W30418   8.592   0.275  12.911
58890W        W30419  43.698  41.572  12.065
58891W        W30420  23.666  36.876   0.819
58892W        W30421  28.940   1.869   1.953
58893W        W30422  23.203  27.254  11.801
58894W        W30423  44.165  29.486   0.548
58895W        W30424  41.487  36.259   2.833
58896W        W30425   1.401   6.488   3.600
58897W        W30426  32.837   8.737  11.767
58898W        W30427  37.567  37.499  14.364
58899W        W30428  40.850  42.315  12.491
58900W        W30429  30.936   5.271   4.415
58901W        W30430  22.211  15.231   3.556
58902W        W30431  16.187  22.061   1.383
58903W        W30432  11.951  27.574   3.890
58904W        W30433  30.555  17.362  13.319
58905W        W30434  29.065  21.339   2.151
58906W        W30435   8.765  37.356  10.871
58907W        W30436  41.184   5.726  12.965
58908W        W30437  26.478  30.705   1.843
58909W        W30438  35.949  42.990   4.698
58910W        W30439  28.971  23.600   4.096
58911W        W30440   5.808  37.751  12.519
58912W        W30441  12.382  37.997  10.693
58913W        W30442   6.323  26.773  12.130
58914W        W30443  42.269  28.329   3.866
58915W        W30444  40.151  25.597   2.834
58916W        W30445   4.813   3.453   4.283
58917W        W30446   9.659   9.069   1.391
58918W        W30447  13.757   2.103   3.624
58919W        W30448   4.785  14.770  11.127
58920W        W30449  34.593  39.756   0.753
58921W        W30450   5.879  28.158  11.911
58922W        W30451  12.901   0.315   4.664
58923W        W30452  20.020  23.280   2.109
58924W        W30453  30.532  13.900  13.995
58925W        W30454  39.948  41.714   1.905
58926W        W30455  11.983  39.832  10.768
58927W        W30456  19.284   6.914  10.737
58928W        W30457   1.955  39.611   2.653
58929W        W30458  22.709  12.636   3.604
58930W        W30459  33.856  31.539  12.972
58931W        W30460  22.178  18.722  14.471
58932W        W30461  30.207  31.666  14.058
58933W        W30462  17.981  24.287  14.370
58934W        W30463   0.443  43.963   4.567
58935W        W30464  20.559   2.184   3.010
58936W        W30465   2.465  20.719   2.279
58937W        W30466  24.227   4.004   3.016
58938W        W30467  42.926  25.781  12.263
58939W        W30468  13.699  17.092  11.564
58940W        W30469  42.777  25.065   2.972
58941W        W30470   5.668  39.758   1.853
58942W        W30471   0.193  24.293  12.503
58943W        W30472  44.964  10.286  13.072
58944W        W30473  17.589   5.731  14.091
58945W        W30474  12.808  34.670   1.209
58946W        W30475  14.824   6.882  10.709
58947W        W30476   7.302   5.340  13.863
58948W        W30477   4.067  15.923   3.182
58949W        W30478   1.659  31.887  10.621
58950W        W30479  19.111  32.544   3.962
58951W        W30480  20.060  39.574   4.068
58952W        W30481  22.020  38.861   3.089
58953W        W30482   7.907  21.039  14.840
58954W        W30483  23.786  39.579   0.687
58955W        W30484  29.166  19.763  10.706
58956W        W30485  29.724  10.171  14.423
58957W        W30486  41.564  24.457  11.632
58958W        W30487  22.741   6.330   1.290
58959W        W30488  34.073  39.837   1.747
58960W        W30489  11.638  31.044   3.652
58961W        W30490  14.171  13.892  13.619
58962W        W30491  34.137   8.305   3.216
58963W        W30492  36.065  11.674  12.893
58964W        W30493   5.399  36.632  13.780
58965W        W30494  12.162  14.211  14.779
58966W        W30495  11.771  23.783  13.963
58967W        W30496   0.729   5.844   1.877
58968W        W30497  40.742  24.169   3.204
58969W        W30498  23.524   2.654  12.021
58970W        W30499  26.549  28.540   4.546
58971W        W30500  28.623  23.958   4.259
58972W        W30501  39.711  33.436   4.861
58973W        W30502  29.164   8.396  12.884
58974W        W30503  30.650   7.467   3.315
58975W        W30504  18.880   4.726  11.640
58976W        W30505  29.971  39.362  11.251
58977W        W30506   0.267  38.036  14.236
58978W        W30507  39.358  41.080  11.965
58979W        W30508  24.930  43.721   4.254
58980W        W30509  16.333   0.895  14.414
58981W        W30510   6.295  38.865  10.448
58982W        W30511  21.113  23.998  13.038
58983W        W30512  27.934  13.526  12.222
58984W        W30513  16.528  26.192  10.702
58985W        W30514  17.372  31.085   3.686
58986W        W30515  10.819  26.227   3.199
58987W        W30516   5.208  44.568   0.825
58988W        W30517  33.381  17.702  14.995
58989W        W30518  41.813  23.055  10.661
58990W        W30519   7.616  19.785  13.492
58991W        W30520  16.197  22.319  10.804
58992W        W30521  16.394  21.624   2.641
58993W        W30522  41.327  40.352   2.752
58994W        W30523  25.437  44.042   0.801
58995W        W30524  27.176  13.613  14.735
58996W        W30525  17.337  12.574  11.692
58997W        W30526  20.191  27.761   3.691
58998W        W30527   9.796  43.549  14.862
58999W        W30528  33.348  11.350  11.634
59000W        W30529   7.526  31.827   4.299
59001W        W30530  35.467  35.919   2.953
59002W        W30531  24.655  11.674   2.210
59003W        W30532  24.166  14.721  11.191
59004W        W30533  36.811   3.311   2.212
59005W        W30534  22.649  18.844   1.458
59006W        W30535  41.570  19.076   4.876
59007W        W30536  10.090  37.471  13.877
59008W        W30537  25.116  16.562   4.001
59009W        W30538  21.731   9.022   1.251
59010W        W30539   9.478  30.931  12.510
59011W        W30540   8.811  25.190  11.109
59012W        W30541  20.497   7.455  12.583
59013W        W30542  32.911  32.946   4.639
59014W        W30543  21.968  39.837   2.248
59015W        W30544  44.485   2.171   2.367
59016W        W30545  37.083   1.357   4.576
59017W        W30546  30.388  39.616  11.102
59018W        W30547  30.580   2.049   3.226
59019W        W30548  15.922  14.295  12.142
59020W        W30549  30.242   0.331   2.466
59021W        W30550   9.339  34.082  13.979
59022W        W30551  11.129  37.264  13.007
59023W        W30552   6.870   2.246   2.709
59024W        W30553  33.313  30.760   1.960
59025W        W30554   0.331  25.253  12.365
59026W        W30555  11.833  36.913  13.925
59027W        W30556  35.284  34.952  10.718
59028W        W30557  16.418  40.387  11.939
59029W        W30558  36.720   4.072  11.163
59030W        W30559  28.405  10.694  14.028
59031W        W30560   4.838  30.060   3.203
59032W        W30561  42.969  22.932   2.059
59033W        W30562  11.575  38.845   2.651
59034W        W30563  22.740   4.517   0.950
59035W        W30564   9.601  16.156   1.260
59036W        W30565  28.955  18.492  13.504
59037W        W30566  15.711  40.772  14.341
59038W        W30567  24.484  33.142  11.651
59039W        W30568  21.096  26.722   0.925
59040W        W30569  44.113   5.396   2.485
59041W        W30570  39.632   5.372  12.861
59042W        W30571   6.147  40.950  14.288
59043W        W30572   3.943   0.749  10.741
59044W        W30573  41.332  34.111   1.895
59045W        W30574  19.175  39.221   4.130
59046W        W30575  10.130  29.994   0.347
59047W        W30576   7.172  33.588  13.797
59048W        W30577   1.186  23.166  11.669
59049W        W30578  12.100  39.814   4.280
59050W        W30579  32.366   4.785   0.277
59051W        W30580  39.387   7.746   0.952
59052W        W30581  11.438  27.707  11.535
59053W        W30582  19.121  39.534   0.681
59054W        W30583  17.967  34.376   3.613
59055W        W30584  27.502  11.144   0.469
59056W        W30585   3.722  44.884  10.583
59057W        W30586  19.537  30.302  14.545
59058W        W30587  26.989   7.110  12.644
59059W        W30588  38.336  26.568  12.980
59060W        W30589  25.257  27.107  14.551
59061W        W30590  40.805  21.037   2.283
59062W        W30591   6.876  43.909   3.125
59063W        W30592   9.306  40.778   2.759
59064W        W30593  33.930  12.156  11.761
59065W        W30594  37.948  35.473   0.792
59066W        W30595   1.263  26.716   3.297
59067W        W30596  27.038  22.245   2.697
59068W        W30597   4.106  15.581  11.156
59069W        W30598  36.274  36.385  10.926
59070W        W30599  43.932  11.200   3.418
59071W        W30600  21.316  25.689  13.032
59072W        W30601  17.369  13.886   0.407
59073W        W30602  27.692  42.933   1.373
59074W        W30603  29.138  39.934   1.714
59075W        W30604  18.976  19.564  12.141
59076W        W30605  43.528  30.455  13.431
59077W        W30606  40.306  35.473  12.013
59078W        W30607  43.950  10.202  10.471
59079W        W30608  14.363  19.020  14.303
59080W        W30609  22.106  18.982  14.013
59081W        W30610  10.404  27.066  13.416
59082W        W30611  26.624  23.740  13.745
59083W        W30612  44.042   1.231   3.245
59084W        W30613  25.335  15.104  11.521
59085W        W30614  33.079  29.186   1.301
59086W        W30615  39.041  36.137  11.234
59087W        W30616  10.714  25.533  12.112
59088W        W30617  36.695  33.120   3.616
59089W        W30618   1.840  25.370   4.706
59090W        W30619  39.488   7.614   1.838
59091W        W30620  43.876   6.189   0.957
59092W        W30621   5.417  31.735  13.875
59093W        W30622   0.914  21.445  14.479
59094W        W30623  42.899  10.361  13.829
59095W        W30624   3.322  20.297  12.053
59096W        W30625  33.576  19.715   0.979
59097W        W30626  19.111  28.256   4.204
59098W        W30627  20.313  43.302  11.425
59099W        W30628   7.912  34.498   1.244
59100W        W30629  12.276   0.835  13.085
59101W        W30630  25.488   9.574   1.278
59102W        W30631   1.850  10.728   2.825
59103W        W30632   8.619  26.262   3.130
59104W        W30633  37.713   6.753  12.542
59105W        W30634  11.942   4.390  14.944
59106W        W30635   2.373  39.088  12.697
59107W        W30636  26.001   9.650  14.515
59108W        W30637  40.899  41.525   2.691
59109W        W30638  37.978  21.991  13.244
59110W        W30639  21.983  34.353   3.599
59111W        W30640  11.526  41.280   0.693
59112W        W30641  40.400  17.723   4.270
59113W        W30642  31.119  14.629  14.586
59114W        W30643  11.709   5.021  11.918
59115W        W30644  31.115   7.010  13.531
59116W        W30645  24.404  13.101  11.889
59117W        W30646  26.671  24.921  12.374
59118W        W30647  31.558  38.972   1.684
59119W        W30648  32.583   3.283  13.165
59120W        W30649  19.249   8.894  11.566
59121W        W30650   0.533  30.559   1.305
59122W        W30651  17.197  19.686  13.619
59123W        W30652  34.656  18.017   4.050
59124W        W30653   6.327  16.695  13.947
59125W        W30654  10.469  11.166  14.411
59126W        W30655  15.600   2.944   2.801
59127W        W30656  31.484   9.178  11.911
59128W        W30657  19.590  38.765  11.226
59129W        W30658  28.652  35.481   2.854
59130W        W30659  19.713  39.305  14.994
59131W        W30660   7.266  25.928  11.318
59132W        W30661  43.419  23.473  10.779
59133W        W30662  42.451  23.409  12.971
59134W        W30663   9.365  24.532   1.588
59135W        W30664  25.430  28.935   4.845
59136W        W30665  37.494  30.236   4.620
59137W        W30666   5.666  23.411   1.857
59138W        W30667  29.959  34.458   1.982
59139W        W30668  33.009   5.007  14.540
59140W        W30669  29.833  12.690  10.730
59141W        W30670  37.706  44.876   2.273
59142W        W30671  28.941  13.602   4.877
59143W        W30672  43.193  37.102   5.209
59144W        W30673  14.799  25.947   0.173
59145W        W30674  25.913   5.777  14.012
59146W        W30675   8.324  14.660  13.072
59147W        W30676  10.396  44.878   2.239
59148W        W30677   1.895  14.531  12.347
59149W        W30678  29.341  34.750   2.248
59150W        W30679  15.566  21.819   3.336
59151W        W30680   4.740  14.214   1.779
59152W        W30681  31.175  18.659  12.192
59153W        W30682  33.764  41.571   0.509
59154W        W30683  35.875  42.519  12.966
59155W        W30684  15.745  41.291  13.034
59156W        W30685  11.928  27.079  10.640
59157W        W30686  41.968   4.170   1.704
59158W        W30687  32.418  27.008   2.411
59159W        W30688  19.051  40.474  13.202
59160W        W30689  42.098  39.413  14.765
59161W        W30690  14.841   7.218  13.114
59162W        W30691   8.966  21.676  12.085
59163W        W30692   6.149  40.751   1.278
59164W        W30693  30.236  39.442   0.794
59165W        W30694  36.520  38.127  12.304
59166W        W30695  22.122  10.438  14.420
59167W        W30696  32.652  44.757  10.975
59168W        W30697   9.455  10.701  12.643
59169W        W30698  27.348  12.061  10.735
59170W        W30699  18.095  34.188  14.231
59171W        W30700  41.866  13.710  13.740
59172W        W30701  15.639  29.646  10.453
59173W        W30702   5.346  13.238   4.582
59174W        W30703  15.347  12.101  11.139
59175W        W30704   9.644  13.677  10.881
59176W        W30705  21.176  30.903   0.095
59177W        W30706   2.712  44.130  13.891
59178W        W30707  18.255   8.691  12.980
59179W        W30708  12.213  39.902  13.739
59180W        W30709  29.179  28.334  11.498
59181W        W30710  30.648  16.501   0.771
59182W        W30711  33.033  18.135  11.372
59183W        W30712  42.831  40.578   5.116
59184W        W30713  23.668  42.265   1.804
59185W        W30714  18.823   0.754  14.610
59186W        W30715  28.953   1.183   4.163
59187W        W30716  35.420  13.874  11.044
59188W        W30717  37.090  15.636   3.272
59189W        W30718  40.505   9.315  13.496
59190W        W30719  27.726  34.348  14.439
59191W        W30720  22.578  17.274   3.012
59192W        W30721   2.836  37.972  14.477
59193W        W30722  19.052  23.691  10.999
59194W        W30723  35.816  22.328  12.025
59195W        W30724   4.315  34.090   3.087
59196W        W30725  44.673   8.408  13.943
59197W        W30726  44.513   2.522   1.337
59198W        W30727  27.728  43.875   3.878
59199W        W30728  36.124   7.849   1.918
59200W        W30729  14.156  30.532  11.702
59201W        W30730  22.240  23.652   2.833
59202W        W30731   1.772  10.209  10.070
59203W        W30732   6.318  26.545   0.364
59204W        W30733  29.710  39.023  11.617
59205W        W30734  26.976  42.567   3.886
59206W        W30735  41.376  20.040   1.611
59207W        W30736  20.048  15.048   1.432
59208W        W30737   9.327  29.199   2.590
59209W        W30738  42.587   0.510   1.157
59210W        W30739  42.069   6.670   1.175
59211W        W30740  20.325  21.059  12.362
59212W        W30741  34.871  16.687   0.777
59213W        W30742  39.433  27.556  14.310
59214W        W30743  26.538  34.135   4.376
59215W        W30744   1.461   0.778   2.515
59216W        W30745  13.998  13.785  11.568
59217W        W30746   5.196  10.252   3.077
59218W        W30747  29.075  13.396  14.305
59219W        W30748  25.442  19.232   2.644
59220W        W30749  21.103   6.519   0.735
59221W        W30750   4.911  10.238  13.453
59222W        W30751  30.162  23.500   4.945
59223W        W30752  16.633  27.976   9.915
59224W        W30753  14.871  18.177  14.818
59225W        W30754  19.322  43.481   1.700
59226W        W30755   4.299   3.909   1.659
59227W        W30756  37.816  23.126  12.940
59228W        W30757  21.720  26.708   3.640
59229W        W30758  10.650  25.968   2.775
59230W        W30759  42.216  25.580  14.403
59231W        W30760   6.427  38.796  12.554
59232W        W30761  20.211  27.956  12.551
59233W        W30762  29.071   5.814   2.716
59234W        W30763  37.526  39.890   4.747
59235W        W30764  40.822   4.881  11.571
59236W        W30765   0.553  33.002   1.322
59237W        W30766   4.280  22.540   3.075
59238W        W30767  28.138  11.498  12.988
59239W        W30768  41.528  41.052  10.792
59240W        W30769   5.490  36.966  12.014
59241W        W30770  14.324  24.488  11.837
59242W        W30771  20.984  11.597  12.922
59243W        W30772   7.972  27.196  11.588
59244W        W30773  26.481   4.144   0.506
59245W        W30774   0.881  16.736   2.727
59246W        W30775   0.280  24.757   0.538
59247W        W30776  17.305  16.554   3.829
59248W        W30777   7.700  17.162   1.745
59249W        W30778  23.261  15.138   0.532
59250W        W30779  40.441  31.482  12.960
59251W        W30780   6.166  30.319   3.781
59252W        W30781  13.642  30.599  13.809
59253W        W30782  32.590  32.408  11.281
59254W        W30783   9.618  19.147   4.579
59255W        W30784  44.454  37.148   3.614
59256W        W30785   9.675  31.799   2.191
59257W        W30786  10.806  43.506   3.711
59258W        W30787  40.175  38.180   4.644
59259W        W30788   1.351  18.030  12.027
59260W        W30789  21.736  15.688   4.079
59261W        W30790   9.806  35.256  13.540
59262W        W30791  30.932  43.861   2.749
59263W        W30792  21.234  16.834  11.144
59264W        W30793   5.083  40.206   4.118
59265W        W30794  35.079   4.760   0.926
59266W        W30795  35.580  29.140   3.882
59267W        W30796   2.866  19.127  10.828
59268W        W30797  23.504  40.385  11.214
59269W        W30798  43.542  11.243  13.097
59270W        W30799  40.363  29.617  12.501
59271W        W30800  21.846  31.579   1.193
59272W        W30801  37.495   4.582  12.227
59273W        W30802   4.837   1.861   1.195
59274W        W30803  41.573  18.836   2.964
59275W        W30804  33.465  20.391   1.512
59276W        W30805  37.950  33.547   4.632
59277W        W30806  32.317  40.387   1.922
59278W        W30807   1.934  41.897  11.212
59279W        W30808  43.528   6.377  11.077
59280W        W30809  42.552  18.113  12.011
59281W        W30810  32.820  14.520  13.428
59282W        W30811  22.033   4.685   0.684
59283W        W30812   0.272  21.940  10.737
59284W        W30813  37.551  32.432   2.636
59285W        W30814  36.093  15.729  14.372
59286W        W30815  24.569  19.800  11.566
59287W        W30816  28.661   9.748  13.301
59288W        W30817  27.845  12.835  14.588
59289W        W30818  10.445   0.269   0.702
59290W        W30819   6.140  25.972  13.338
59291W        W30820  12.670   9.426   1.392
59292W        W30821  35.874  39.700   4.133
59293W        W30822  30.665  37.519  13.208
59294W        W30823   6.817   6.512   3.124
59295W        W30824  24.053   9.634   1.132
59296W        W30825  25.875  16.645   2.057
59297W        W30826  41.967  32.697   3.710
59298W        W30827  30.040  24.496  14.084
59299W        W30828  11.664  32.394  13.426
59300W        W30829  10.904  22.546  14.013
59301W        W30830  30.182  30.111  13.628
59302W        W30831   7.780  11.109  10.863
59303W        W30832  35.338  24.863  10.946
59304W        W30833  34.684  28.173  13.457
59305W        W30834   6.702  15.826   0.615
59306W        W30835  21.119  36.481   3.623
59307W        W30836   0.986  35.038  10.409
59308W        W30837  30.441   4.771  13.858
59309W        W30838  32.385  21.053   1.172
59310W        W30839  43.973  12.932  13.545
59311W        W30840  40.895   6.002   2.242
59312W        W30841  37.186  43.734   4.559
59313W        W30842  34.867   9.296   0.441
59314W        W30843  29.229  18.026  12.389
59315W        W30844  35.613  39.441   2.889
59316W        W30845  16.137   4.398   0.138
59317W        W30846  19.466  14.140   3.153
59318W        W30847   4.837  24.795  10.537
59319W        W30848  12.620   4.235  11.106
59320W        W30849  33.912  12.497  12.143
59321W        W30850   2.228  37.410   2.614
59322W        W30851   8.268  17.876   1.859
59323W        W30852  22.539   6.986   4.208
59324W        W30853   1.392  12.688   4.012
59325W        W30854  20.305  32.963   0.485
59326W        W30855  24.123  44.346  14.830
59327W        W30856  36.209  38.712  10.323
59328W        W30857  36.661   9.846  12.554
59329W        W30858  21.565  39.814   1.391
59330W        W30859  25.949  42.945  12.955
59331W        W30860  36.294   6.221   2.740
59332W        W30861  19.626  27.699  10.351
59333W        W30862  22.096  21.058   3.427
59334W        W30863  35.508  34.103  14.306
59335W        W30864  18.093  26.798   1.548
59336W        W30865   2.712  38.944   0.973
59337W        W30866  43.698  18.242   3.245
59338W        W30867  23.636   6.949   1.281
59339W        W30868  31.510  44.577   2.693
59340W        W30869  28.507   1.929  13.806
59341W        W30870  17.019  20.969   0.447
59342W        W30871  37.255  41.768   2.246
59343W        W30872   8.539  36.810  11.476
59344W        W30873   9.472  38.031  14.524
59345W        W30874  35.053  22.024  10.772
59346W        W30875  34.417  24.325  14.042
59347W        W30876  12.919  19.246   0.285
59348W        W30877  41.532   1.824  10.767
59349W        W30878  28.638  33.884  13.157
59350W        W30879  22.831  40.219   0.466
59351W        W30880   4.232   8.270   3.918
59352W        W30881  24.114   8.116  13.521
59353W        W30882   3.999   6.761   1.221
59354W        W30883  12.562  15.783  11.895
59355W        W30884   3.477  13.172   2.882
59356W        W30885  39.240   0.584   0.453
59357W        W30886  17.126   3.421   3.701
59358W        W30887  27.108  26.375   4.065
59359W        W30888  26.029  37.563  11.251
59360W        W30889  24.553  22.196  13.530
59361W        W30890   5.237   7.028   3.693
59362W        W30891  44.158  22.398   2.726
59363W        W30892  28.367   4.797  13.520
59364W        W30893  17.045  36.509  11.608
59365W        W30894  44.887   7.243  14.039
59366W        W30895  20.387  33.151  12.765
59367W        W30896  34.935  43.777   4.719
59368W        W30897   7.329  26.052  11.825
59369W        W30898  23.014   6.859  11.712
59370W        W30899  43.866  37.093  11.525
59371W        W30900   3.816  28.169   1.333
59372W        W30901  33.905  44.350   2.622
59373W        W30902  24.763  21.983  14.787
59374W        W30903  21.136   4.681  13.132
59375W        W30904  33.012   2.880   2.843
59376W        W30905   1.788  22.696   3.155
59377W        W30906   5.763  21.286   3.899
59378W        W30907  23.064  23.524   4.569
59379W        W30908  36.358  35.199   1.712
59380W        W30909   6.863   2.062  11.788
59381W        W30910  39.935   2.992   2.312
59382W        W30911  15.607  15.713   0.367
59383W        W30912  29.824  35.319   4.011
59384W        W30913   7.248  39.545  13.046
59385W        W30914  15.290  42.381  10.726
59386W        W30915  22.405  24.666   5.077
59387W        W30916  15.609  43.463   4.452
59388W        W30917   5.750  33.896   1.280
59389W        W30918  14.019  28.109  10.505
59390W        W30919  24.597   6.415  14.284
59391W        W30920  27.212   0.949  14.720
59392W        W30921   9.074  22.268   4.688
59393W        W30922  36.507  23.745   3.700
59394W        W30923  20.626  16.370   3.845
59395W        W30924  26.130  35.654   0.256
59396W        W30925  18.625  13.215  14.093
59397W        W30926   6.115   8.135  13.001
59398W        W30927   3.404  38.312  11.539
59399W        W30928  26.916  30.330  13.110
59400W        W30929  29.473   6.339  14.283
59401W        W30930  24.372  29.321  12.441
59402W        W30931  30.776   2.687  10.735
59403W        W30932  14.204   4.704   1.446
59404W        W30933  25.111  24.738  13.260
59405W        W30934  13.079  29.777   0.399
59406W        W30935  41.747  10.237  14.386
59407W        W30936  43.569  15.845  13.515
59408W        W30937  15.284  24.887  14.282
59409W        W30938  27.986  43.995   1.402
59410W        W30939  20.724  13.569  13.137
59411W        W30940  23.396   4.928  11.125
59412W        W30941  25.077   5.201  11.896
59413W        W30942  26.773  16.369  13.382
59414W        W30943  38.474  13.959  13.827
59415W        W30944  41.537  43.506   1.727
59416W        W30945   2.004  40.821   0.262
59417W        W30946  29.846   7.176  12.640
59418W        W30947  26.478  11.684   3.586
59419W        W30948  25.617  23.229   4.268
59420W        W30949  36.342  16.797  13.531
59421W        W30950  29.919   2.913   4.254
59422W        W30951  26.448  14.058   2.657
59423W        W30952  20.695  42.580   3.213
59424W        W30953  44.430   7.943  13.949
59425W        W30954  20.295   0.961  14.061
59426W        W30955   3.303  28.259  12.577
59427W        W30956   6.589  13.857  10.478
59428W        W30957   1.373  27.616   1.711
59429W        W30958   4.897  21.751  12.919
59430W        W30959  23.077   1.395  12.431
59431W        W30960  21.089   0.392   5.079
59432W        W30961   0.062   0.880   1.250
59433W        W30962  17.291  20.832   0.847
59434W        W30963  17.090   6.661   2.394
59435W        W30964  43.546  38.408  10.563
59436W        W30965  34.959  19.792  14.771
59437W        W30966  44.359  12.800   4.506
59438W        W30967  35.909  30.482  12.907
59439W        W30968   3.186  35.321  13.879
59440W        W30969   2.292   3.787   4.333
59441W        W30970  11.816   1.227  14.249
59442W        W30971  40.533  24.604   0.363
59443W        W30972   6.418  20.094  12.339
59444W        W30973   0.249  30.872  10.707
59445W        W30974  17.199  35.113   1.894
59446W        W30975  37.021  38.832  14.440
59447W        W30976  28.063   1.553   1.917
59448W        W30977  44.680  43.511   4.640
59449W        W30978  39.250   8.144  11.163
59450W        W30979  44.892   2.232   4.571
59451W        W30980  17.711   3.748  12.459
59452W        W30981  40.770  37.540  13.386
59453W        W30982  26.272   1.390   4.931
59454W        W30983   6.456   2.068  10.486
59455W        W30984  24.712  11.179  12.469
59456W        W30985  34.040  19.797   4.092
59457W        W30986  14.796  43.938  12.533
59458W        W30987  15.556  41.564  13.452
59459W        W30988  32.561  22.025  12.420
59460W        W30989  32.667  11.200   4.237
59461W        W30990  17.527   0.408  14.430
59462W        W30991   9.183   7.821   2.974
59463W        W30992  21.146  37.342   1.489
59464W        W30993   9.233  26.684   3.594
59465W        W30994  27.955  41.182  11.026
59466W        W30995   8.918   1.588   3.672
59467W        W30996  44.028  12.065  14.848
59468W        W30997  20.363  13.182   3.030
59469W        W30998   2.383  24.187  14.529
59470W        W30999   8.892   8.806  12.430
59471W        W31000  32.054  37.102   3.090
59472W        W31001   4.453  22.905   2.716
59473W        W31002  42.265  24.684   2.466
59474W        W31003   7.883  28.923  12.922
59475W        W31004  31.072   5.527   0.503
59476W        W31005  26.039  42.511  11.538
59477W        W31006   9.316  11.152   1.724
59478W        W31007  21.684   6.734   4.548
59479W        W31008   3.922  20.231   2.922
59480W        W31009  27.105  16.709  12.380
59481W        W31010   3.969   2.922  14.458
59482W        W31011  23.686  44.262   4.902
59483W        W31012  36.466  33.383  12.539
59484W        W31013   3.337  32.108   3.567
59485W        W31014   0.475   4.216   1.720
59486W        W31015  29.747   1.432  10.703
59487W        W31016  29.296  29.865   4.997
59488W        W31017  22.570  28.927   2.217
59489W        W31018   0.463  30.485  12.048
59490W        W31019  31.041  10.378  12.092
59491W        W31020  22.013  20.586   0.830
59492W        W31021  13.590   6.059   0.203
59493W        W31022   1.076  41.198   0.513
59494W        W31023  16.228  14.656  10.751
59495W        W31024  21.015   4.390   0.382
59496W        W31025   9.832  31.090  12.848
59497W        W31026  40.575  32.415   2.335
59498W        W31027  27.165   0.900   2.163
59499W        W31028   2.733  22.495  12.542
59500W        W31029  13.401  17.699   3.949
59501W        W31030  15.106  19.597  10.641
59502W        W31031  41.999  12.795  10.091
59503W        W31032   4.685  32.906   4.576
59504W        W31033  33.315   4.556   0.435
59505W        W31034  42.498  18.717  12.879
59506W        W31035  34.880  20.688  12.656
59507W        W31036  29.268  31.841   2.261
59508W        W31037   1.383  26.002  14.702
59509W        W31038  34.891  24.118  14.039
59510W        W31039  24.535  28.377   2.293
59511W        W31040  36.989  27.009   0.794
59512W        W31041   3.875  20.084   4.829
59513W        W31042  24.851  37.356   1.354
59514W        W31043  28.085  10.522  11.315
59515W        W31044   2.938  24.394   4.058
59516W        W31045   3.814  44.193   1.097
59517W        W31046  41.534   9.270  14.815
59518W        W31047   9.721  17.230  13.004
59519W        W31048  32.001  17.490  14.949
59520W        W31049  20.344  28.322   5.073
59521W        W31050   4.985  16.775  11.947
59522W        W31051  20.063   7.717   2.871
59523W        W31052  19.975  27.884   1.810
59524W        W31053  20.224  33.775  10.565
59525W        W31054  20.437  26.631  10.723
59526W        W31055  16.178  40.905  12.067
59527W        W31056  37.431  42.480   0.325
59528W        W31057  11.107   4.516  12.604
59529W        W31058  25.132  41.294   3.702
59530W        W31059  16.049  17.777   4.697
59531W        W31060  24.378  10.853  13.263
59532W        W31061  28.839  34.717  12.500
59533W        W31062  38.487  18.580   0.320
59534W        W31063  27.576  28.118  12.952
59535W        W31064  43.672   8.867   2.753
59536W        W31065  16.242  34.270   3.302
59537W        W31066  29.628  31.355   4.221
59538W        W31067  14.518  38.542   0.457
59539W        W31068  42.298  43.820  11.186
59540W        W31069  44.463   3.533   1.131
59541W        W31070  38.445   8.481   3.846
59542W        W31071  15.062  20.123  14.398
59543W        W31072   3.229  31.357   2.282
59544W        W31073  38.959   7.209   3.751
59545W        W31074   6.480  11.935   2.336
59546W        W31075  40.628  31.686  11.517
59547W        W31076  25.867  15.618   1.285
59548W        W31077   5.218  12.773   2.270
59549W        W31078   7.134  35.371   4.195
59550W        W31079  35.043  14.968  11.052
59551W        W31080  35.659  14.387  12.828
59552W        W31081  22.495   8.704  11.221
59553W        W31082   3.944  16.443   4.218
59554W        W31083  23.700  35.517   1.332
59555W        W31084  17.583  41.807  13.524
59556W        W31085   4.543   8.745   1.152
59557W        W31086  25.393  13.584   0.245
59558W        W31087  20.193  24.013   3.231
59559W        W31088   3.799  44.360   0.059
59560W        W31089  44.000  28.045  14.416
59561W        W31090  12.260  13.584  12.519
59562W        W31091  36.875  29.430  10.670
59563W        W31092  14.534  28.972   3.324
59564W        W31093  37.078  23.051   4.612
59565W        W31094  26.950  24.078   4.556
59566W        W31095   3.486  17.171   3.472
59567W        W31096  44.822  17.148  11.004
59568W        W31097  13.683   0.259   5.020
59569W        W31098  35.911  37.947   4.749
59570W        W31099   0.982  36.145  13.490
59571W        W31100  24.064  38.138   1.181
59572W        W31101   0.383  12.620  14.773
59573W        W31102  39.280  30.576  10.426
59574W        W31103   9.389  13.790  14.786
59575W        W31104  25.478  26.748  12.887
59576W        W31105  33.834   2.382   4.743
59577W        W31106  34.882  42.120  11.966
59578W        W31107  13.043   4.903   2.400
59579W        W31108  39.867  23.187   4.107
59580W        W31109  11.670  10.636   1.361
59581W        W31110  12.141  30.500  14.755
59582W        W31111  36.065  26.621  10.642
59583W        W31112   7.579  34.892   1.324
59584W        W31113  34.310  15.400  13.482
59585W        W31114   4.230  24.064  10.492
59586W        W31115  21.831  28.030   2.720
59587W        W31116  29.989  33.174   3.138
59588W        W31117  10.069  11.805   3.206
59589W        W31118  32.906  21.585  13.358
59590W        W31119  10.338   7.312   0.720
59591W        W31120  37.980  30.452   1.228
59592W        W31121  26.705  10.598   2.847
59593W        W31122  18.664  12.751  12.538
59594W        W31123  37.618  41.797   4.913
59595W        W31124  27.992  33.183  13.388
59596W        W31125   0.316  11.232   3.636
59597W        W31126  15.964  16.702   4.182
59598W        W31127  23.111  19.548   3.236
59599W        W31128   1.586  29.936  13.139
59600W        W31129  27.465   6.908   2.047
59601W        W31130   1.342   0.445   3.624
59602W        W31131  28.959   2.021  14.633
59603W        W31132  16.718  12.307  13.397
59604W        W31133  35.119  23.462   3.241
59605W        W31134   5.337   2.378   1.733
59606W        W31135  44.221  35.116  11.024
59607W        W31136   0.994   4.044   2.800
59608W        W31137  21.783  39.150  12.838
59609W        W31138  39.719  33.056  14.366
59610W        W31139  32.983  36.854   3.778
59611W        W31140  44.052  10.318  12.031
59612W        W31141  38.995  35.869  14.620
59613W        W31142  12.279  37.338   0.554
59614W        W31143  10.857  42.283  14.166
59615W        W31144  37.830   5.367  14.812
59616W        W31145  14.119  27.084  11.672
59617W        W31146   2.988  18.818   2.218
59618W        W31147  35.006  17.188   0.751
59619W        W31148  23.907  29.669   2.898
59620W        W31149  14.051  34.819   3.741
59621W        W31150  17.803  42.586   3.411
59622W        W31151  37.884   9.193   1.454
59623W        W31152  10.787  25.739   0.085
59624W        W31153  35.565  29.341   0.521
59625W        W31154   7.843   4.836  11.084
59626W        W31155  40.377  17.248  14.438
59627W        W31156  15.081  44.359   3.312
59628W        W31157  20.099  40.372  14.193
59629W        W31158  33.495  14.441   1.253
59630W        W31159  32.539  28.158  12.038
59631W        W31160  40.944  37.047  13.298
59632W        W31161  21.401  36.202   9.825
59633W        W31162  26.521   4.309   1.835
59634W        W31163  40.271   7.213   0.244
59635W        W31164  44.971  38.082  11.575
59636W        W31165   6.312  13.875   1.125
59637W        W31166   8.528  30.730   3.178
59638W        W31167  19.654  24.500  13.450
59639W        W31168  23.040  31.005  11.945
59640W        W31169  21.291  14.605   1.836
59641W        W31170  34.372  26.943  13.124
59642W        W31171  33.082  11.242   2.802
59643W        W31172  28.893  43.078   2.830
59644W        W31173  10.982  33.858  12.518
59645W        W31174  15.386  37.071  13.587
59646W        W31175   9.915  26.494   1.327
59647W        W31176  29.872  10.426   3.182
59648W        W31177  23.695   7.559  10.655
59649W        W31178  43.407  43.282  13.575
59650W        W31179   1.788  10.619  14.289
59651W        W31180  23.827  44.957  11.882
59652W        W31181  18.839  27.005  12.932
59653W        W31182   4.315   0.910   2.812
59654W        W31183  19.767  40.630   1.797
59655W        W31184  31.757  32.672   4.077
59656W        W31185   4.740  25.953   3.419
59657W        W31186  42.905  39.233  12.818
59658W        W31187  35.283   6.680   3.345
59659W        W31188  29.907   1.369   4.635
59660W        W31189  42.425  11.707   0.399
59661W        W31190  37.036  11.967  12.542
59662W        W31191   3.241  22.626  11.050
59663W        W31192  37.562   1.986  12.025
59664W        W31193   4.337   3.713  10.641
59665W        W31194  18.173  33.116   0.699
59666W        W31195  10.904   2.779  11.104
59667W        W31196  11.084  35.646  13.612
59668W        W31197  23.593   7.471   1.216
59669W        W31198  21.097  16.597  11.593
59670W        W31199  21.514   6.207   0.879
59671W        W31200  22.713  43.764  14.996
59672W        W31201  40.531  29.908  12.049
59673W        W31202  39.272  35.008   0.347
59674W        W31203   2.460   0.825   2.813
59675W        W31204   8.699  30.444  14.009
59676W        W31205  36.612  43.923   3.916
59677W        W31206  40.740  35.277  11.198
59678W        W31207  34.981  39.647   0.386
59679W        W31208  23.148  18.392   4.495
59680W        W31209   0.941  15.150   2.346
59681W        W31210  21.014   9.186  10.291
59682W        W31211  44.032  24.195  11.953
59683W        W31212  41.984  20.802   2.684
59684W        W31213  10.373  22.078  12.587
59685W        W31214  15.358   2.492  14.412
59686W        W31215  36.600  43.125   0.692
59687W        W31216  44.739  13.098  14.605
59688W        W31217  35.055  18.508   1.756
59689W        W31218  40.990  31.033  12.055
59690W        W31219  44.788  31.108   0.813
59691W        W31220  22.327  19.558  14.867
59692W        W31221   8.989  21.564  10.457
59693W        W31222  30.384  16.778  11.959
59694W        W31223  20.909  15.642   0.353
59695W        W31224  37.053  28.657  13.117
59696W        W31225  25.716   1.183  12.786
59697W        W31226  25.815   7.635  13.019
59698W        W31227   3.379  11.021   0.255
59699W        W31228  19.645  18.328   4.775
59700W        W31229  25.341  30.928  12.423
59701W        W31230  35.295  12.274  13.841
59702W        W31231  42.422   7.791  12.545
59703W        W31232   4.028  28.448  13.883
59704W        W31233  22.471  27.138  12.228
59705W        W31234  44.782  17.906   4.908
59706W        W31235  10.355   3.017  11.962
59707W        W31236  35.124  25.191  13.103
59708W        W31237  25.736  39.938  11.172
59709W        W31238  43.251  39.951  10.640
59710W        W31239   8.921  10.817   4.474
59711W        W31240  11.432  20.683   1.892
59712W        W31241  44.284  10.862   0.665
59713W        W31242   0.472  13.355   2.808
59714W        W31243  26.798   7.734   2.776
59715W        W31244  13.035  37.504  10.697
59716W        W31245  41.522   3.861  10.620
59717W        W31246  37.829  44.384   0.817
59718W        W31247  37.401   2.881   3.638
59719W        W31248  13.639  15.393   3.669
59720W        W31249  31.966  33.841   1.872
59721W        W31250  15.260  12.223  14.835
59722W        W31251  31.088  26.967   0.217
59723W        W31252  28.639  17.665  14.633
59724W        W31253  23.191   3.049  13.375
59725W        W31254   4.167   6.713  13.537
59726W        W31255  43.922  33.181   0.381
59727W        W31256   0.990  19.674  11.977
59728W        W31257  36.647  19.247  10.727
59729W        W31258  25.574  36.848  11.640
59730W        W31259  31.628  16.754   0.323
59731W        W31260  38.614  17.912  13.887
59732W        W31261  31.167  17.520   0.290
59733W        W31262  26.249  34.029  10.793
59734W        W31263  20.742  41.947  10.894
59735W        W31264  30.127  17.629   0.302
59736W        W31265  38.086  37.676   3.770
59737W        W31266   4.977  17.112  12.579
59738W        W31267  41.702  41.277  11.938
59739W        W31268  32.475  34.280  11.194
59740W        W31269  17.781  27.292  14.043
59741W        W31270   7.429   3.210   4.117
59742W        W31271  34.988  18.249  13.318
59743W        W31272  28.195   0.808   1.901
59744W        W31273   8.216  24.448  14.277
59745W        W31274   2.046  42.687  12.643
59746W        W31275  37.124  22.505   4.666
59747W        W31276  19.261  36.372   3.357
59748W        W31277  11.818  36.783  11.626
59749W        W31278  22.428  33.299  11.492
59750W        W31279   5.127   8.401  11.488
59751W        W31280   3.538  10.216   4.215
59752W        W31281  18.097  26.731  12.053
59753W        W31282   8.747   5.884  14.055
59754W        W31283  10.799   1.429  10.778
59755W        W31284  28.705  10.680  10.740
59756W        W31285  37.634  13.906   0.043
59757W        W31286  42.198  28.494   4.657
59758W        W31287  14.303  26.101   2.448
59759W        W31288  41.382  36.029   4.637
59760W        W31289  18.677  14.822   3.185
59761W        W31290  42.299  10.433  11.134
59762W        W31291  42.673  16.632  13.435
59763W        W31292  35.048  14.824   0.803
59764W        W31293  20.081  40.768  12.945
59765W        W31294  21.234  14.497  11.614
59766W        W31295  41.774  36.935   1.222
59767W        W31296  21.681  13.900  13.052
59768W        W31297  17.629  37.304  13.776
59769W        W31298   1.661  38.780  14.427
59770W        W31299  37.964   8.674   4.672
59771W        W31300  30.520  35.991  14.751
59772W        W31301  36.632  38.591  13.645
59773W        W31302   8.112  32.922  14.803
59774W        W31303  34.508  12.561   0.709
59775W        W31304  30.003  41.269  14.281
59776W        W31305  22.038   6.181  13.736
59777W        W31306  41.426   2.026   1.932
59778W        W31307  36.403  10.370  14.832
59779W        W31308  13.623   3.489  12.438
59780W        W31309  33.759  37.660  12.806
59781W        W31310  10.643  14.992  13.548
59782W        W31311  12.766  14.545  11.610
59783W        W31312  37.060  30.931  12.588
59784W        W31313  21.088   8.967   1.963
59785W        W31314   5.800  15.740   2.580
59786W        W31315  12.549  13.234   2.221
59787W        W31316   8.264  16.133  11.540
59788W        W31317  21.159  13.156  12.716
59789W        W31318   7.662  43.520  13.542
59790W        W31319  27.698  19.727   1.389
59791W        W31320  27.153  28.984   2.150
59792W        W31321  39.011  30.451  14.442
59793W        W31322  24.940  34.682  12.080
59794W        W31323  39.350   3.766  12.399
59795W        W31324  18.857  37.410  11.410
59796W        W31325  13.781  32.715   1.384
59797W        W31326  14.857  13.809   3.821
59798W        W31327  24.033   0.075   3.260
59799W        W31328  25.296  18.261  11.129
59800W        W31329  27.500  36.991  13.301
59801W        W31330  31.216  24.744  10.770
59802W        W31331  10.679  12.828  13.786
59803W        W31332   7.898   8.806  13.925
59804W        W31333  12.432  39.955  13.275
59805W        W31334  10.426  42.309  13.315
59806W        W31335  44.919  14.969   4.250
59807W        W31336  23.682  11.669  10.707
59808W        W31337  27.195  23.834   2.196
59809W        W31338  27.479  41.297   0.002
59810W        W31339  13.591  40.291   2.455
59811W        W31340   5.175   9.067  11.623
59812W        W31341  11.247   8.529  13.415
59813W        W31342  12.282  37.603  14.878
59814W        W31343  19.722  16.944   2.650
59815W        W31344  39.264  39.029  11.248
59816W        W31345  25.668   7.704   1.566
59817W        W31346  14.585  32.353   1.758
59818W        W31347  33.942  18.724   1.184
59819W        W31348   2.756  23.711  11.967
59820W        W31349  26.467  43.890   3.705
59821W        W31350   5.886  20.124  13.552
59822W        W31351  32.896  43.850   1.677
59823W        W31352  26.406  32.605  11.567
59824W        W31353   4.411  27.348  14.202
59825W        W31354  15.376  23.688  13.586
59826W        W31355   5.128   6.296   3.175
59827W        W31356  18.348  11.272   3.601
59828W        W31357  20.133  14.030   4.537
59829W        W31358  38.407   7.204   2.443
59830W        W31359  20.114  26.453   3.156
59831W        W31360  32.524   0.218  12.617
59832W        W31361  31.159  37.507  10.979
59833W        W31362  12.077  14.293   1.748
59834W        W31363  42.618  44.256  11.389
59835W        W31364   0.368  32.977  13.883
59836W        W31365  41.513   7.110  10.797
59837W        W31366  35.400   5.223   3.222
59838W        W31367   7.980   4.937   3.246
59839W        W31368  19.177  15.281   0.485
59840W        W31369  15.087  42.163   4.060
59841W        W31370  10.251  39.850   3.383
59842W        W31371   0.516  19.314  14.338
59843W        W31372  24.066  30.950   0.031
59844W        W31373   8.835  15.304  14.660
59845W        W31374  20.640   4.663  13.395
59846W        W31375  40.882   1.418   3.581
59847W        W31376   0.123   9.125   1.312
59848W        W31377   1.361  28.197  12.041
59849W        W31378  24.619  34.578   4.513
59850W        W31379  43.623   6.119   1.406
59851W        W31380  31.087  11.789   0.978
59852W        W31381  21.300  36.451  14.503
59853W        W31382  14.913  29.468  13.295
59854W        W31383   5.387   1.168  11.665
59855W        W31384  34.180  22.648   0.269
59856W        W31385  32.323  35.527  11.223
59857W        W31386   7.133   6.122   4.030
59858W        W31387  12.224  43.434  11.828
59859W        W31388  42.738  15.592   3.219
59860W        W31389  13.647   7.334   2.735
59861W        W31390  36.478  33.163  10.706
59862W        W31391  37.336  21.797  11.356
59863W        W31392  27.488  30.831   1.711
59864W        W31393  19.614   7.854  13.340
59865W        W31394  25.690  18.554  11.264
59866W        W31395  42.787   7.671   0.867
59867W        W31396  41.773  22.672  10.314
59868W        W31397  19.822  40.654   0.035
59869W        W31398  19.110  41.778   1.554
59870W        W31399  30.923   6.904   4.517
59871W        W31400  34.574  21.983  10.590
59872W        W31401  22.918  39.507  12.599
59873W        W31402  44.769  38.351  13.426
59874W        W31403   3.609  29.149  12.569
59875W        W31404  32.144  23.139   2.357
59876W        W31405  27.914  15.119   3.738
59877W        W31406  27.567  31.366   2.616
59878W        W31407  40.816  28.347   2.351
59879W        W31408   1.664  10.377   0.244
59880W        W31409  19.227  44.691   0.852
59881W        W31410   0.752  26.615  13.390
59882W        W31411  39.501   3.904   1.201
59883W        W31412  14.627   8.461   3.209
59884W        W31413   9.335  23.035  11.792
59885W        W31414  11.615   6.890   1.777
59886W        W31415   0.531  36.993  12.103
59887W        W31416  40.781  34.405  11.680
59888W        W31417  39.154   6.333  12.637
59889W        W31418  18.244  37.687   3.264
59890W        W31419  22.197  12.154   0.532
59891W        W31420   1.677  15.283  13.697
59892W        W31421  26.480   3.794  12.578
59893W        W31422  13.316  12.529  11.698
59894W        W31423   1.032  42.278   1.834
59895W        W31424  26.656   5.397   3.904
59896W        W31425  41.301  38.063  14.791
59897W        W31426  35.221  35.096  11.667
59898W        W31427  13.627  44.280   3.172
59899W        W31428  43.707  44.528   3.311
59900W        W31429  16.326  38.353  11.815
59901W        W31430   3.397  27.547  11.979
59902W        W31431   5.516  22.897  13.492
59903W        W31432  42.012  43.989   0.546
59904W        W31433   1.693  31.394  12.604
59905W        W31434  29.543  32.059  14.429
59906W        W31435  44.932  21.087  14.313
59907W        W31436  41.949   5.257   1.738
59908W        W31437  34.893  19.661  12.429
59909W        W31438  22.293  32.183   1.891
59910W        W31439  14.045  28.398  11.420
59911W        W31440  38.099   5.216  12.132
59912W        W31441  43.310  19.737  14.233
59913W        W31442  44.833  37.839  13.382
59914W        W31443   8.223  42.562   0.814
59915W        W31444  24.117   0.354   3.688
59916W        W31445  25.694  23.728  13.952
59917W        W31446  10.018  16.965  14.688
59918W        W31447  17.729  25.021  11.611
59919W        W31448   0.360  44.834   3.585
59920W        W31449   3.886  14.607  11.567
59921W        W31450  38.307  12.715  13.297
59922W        W31451   3.893  32.915   2.906
59923W        W31452  20.590  22.132   1.432
59924W        W31453  33.063   3.281   3.514
59925W        W31454   7.287  38.657   3.137
59926W        W31455  12.385  18.201   2.998
59927W        W31456  40.988  11.681  13.563
59928W        W31457  12.747  21.139   1.789
59929W        W31458  24.299   3.433   3.247
59930W        W31459  16.410  25.708  12.499
59931W        W31460  27.163  35.519  11.214
59932W        W31461  29.178  36.619  10.819
59933W        W31462   4.925  38.014   3.242
59934W        W31463   7.210  40.253  11.580
59935W        W31464   0.525  38.815  12.754
59936W        W31465  10.289  23.134   0.688
59937W        W31466  17.702  17.579  13.599
59938W        W31467  44.792  33.609  12.592
59939W        W31468  13.577  19.742   3.260
59940W        W31469  12.459  16.200   0.843
59941W        W31470  44.873  25.680  11.744
59942W        W31471  15.083  16.729   2.123
59943W        W31472  20.983   5.460   2.246
59944W        W31473  26.845  31.449   1.492
59945W        W31474  36.791  12.978  12.445
59946W        W31475  23.139   1.932   1.402
59947W        W31476   1.250  14.072  12.956
59948W        W31477  25.866  44.299  11.835
59949W        W31478  19.011   8.427  13.453
59950W        W31479   3.280  27.469   4.931
59951W        W31480  19.785  14.295  10.801
59952W        W31481  37.268  27.166   1.228
59953W        W31482  17.547  36.586  14.367
59954W        W31483  14.313  37.190   2.786
59955W        W31484   4.605  11.139   0.762
59956W        W31485   8.345  36.983   4.377
59957W        W31486  12.198   8.306   2.115
59958W        W31487  26.559  29.972  12.320
59959W        W31488  18.467   7.414  10.735
59960W        W31489  11.607  37.064  12.555
59961W        W31490  28.792  13.172   4.600
59962W        W31491   8.931  15.818   3.740
59963W        W31492  24.134  34.796   4.638
59964W        W31493  20.501  18.704  14.448
59965W        W31494   4.418   8.218  13.501
59966W        W31495  11.225  35.491  11.938
59967W        W31496  24.930  24.643   0.441
59968W        W31497  18.507  27.952  13.018
59969W        W31498  23.641  42.852   4.152
59970W        W31499  42.878  36.090   0.805
59971W        W31500  35.509  19.361   0.414
59972W        W31501   0.194   3.245   3.763
59973W        W31502  36.621  19.549   0.872
59974W        W31503  42.442  34.409   0.942
59975W        W31504   0.431   2.807  14.634
59976W        W31505  23.569  14.640   1.627
59977W        W31506  25.244  34.527  13.886
59978W        W31507  38.368  28.473   1.208
59979W        W31508  37.005  31.182   0.832
59980W        W31509  38.377  10.758  14.958
59981W        W31510  28.520   8.389   4.466
59982W        W31511  40.763  25.201  13.889
59983W        W31512  23.018  43.989  11.770
59984W        W31513   4.424  15.292  12.094
59985W        W31514  19.543  23.045   0.280
59986W        W31515  22.850  15.148   0.227
59987W        W31516  30.179  15.500   2.814
59988W        W31517  36.573  42.819   4.297
59989W        W31518   6.753  23.001  11.756
59990W        W31519   4.024  31.615  14.835
59991W        W31520  30.511  16.846  10.507
59992W        W31521   1.230  40.365   3.796
59993W        W31522  39.395  28.622   1.327
59994W        W31523  26.946   4.763   2.905
59995W        W31524  30.235  31.713   0.626
59996W        W31525  21.641   0.061   2.849
59997W        W31526  29.763  38.779  10.305
59998W        W31527  30.160  38.341  10.969
59999W        W31528   5.369  12.433   1.282
60000W        W31529  24.109   0.445  14.996
60001W        W31530   1.960  17.606  12.561
60002W        W31531  32.525  27.709  10.195
60003W        W31532  25.838  30.987  12.505
60004W        W31533   8.294  27.707   0.323
60005W        W31534  30.737  16.127   4.112
60006W        W31535  19.384  27.446   3.345
60007W        W31536  38.157  28.381   0.702
60008W        W31537  27.950  31.674   4.204
60009W        W31538  44.352  13.834   2.876
60010W        W31539  40.826  18.237   0.813
60011W        W31540  18.317  20.572   1.529
60012W        W31541  36.865  44.508   5.180
60013W        W31542  40.586  19.594  14.768
60014W        W31543  15.215   6.318   1.401
60015W        W31544   2.071  21.740   0.052
60016W        W31545  35.250  30.382  14.936
60017W        W31546  35.297  14.295   4.430
60018W        W31547  19.537  27.538   1.310
60019W        W31548  38.648  38.491   1.229
60020W        W31549   9.894  29.962  14.869
60021W        W31550  17.258  38.446  10.854
60022W        W31551  35.602  28.916   2.352
60023W        W31552  22.836  39.196   3.302
60024W        W31553  39.388   3.493  12.865
60025W        W31554   1.965  17.302   1.950
60026W        W31555  33.587  19.126   1.880
60027W        W31556  17.993  13.876  10.622
60028W        W31557   0.439  16.366  14.448
60029W        W31558   8.816  21.457   1.741
60030W        W31559  13.864  30.950  14.535
60031W        W31560  32.041  41.600   4.172
60032W        W31561   0.072  42.395   1.835
60033W        W31562  37.882   7.426  14.958
60034W        W31563   4.141  15.649   1.761
60035W        W31564  20.698  10.181   3.640
60036W        W31565  22.588   5.281   3.724
60037W        W31566  17.966  20.133   3.712
60038W        W31567  13.674  15.547  14.403
60039W        W31568  31.518  38.725  12.684
60040W        W31569  36.443  13.205  13.961
60041W        W31570  25.911  27.450   1.926
60042W        W31571   8.750  20.362  10.461
60043W        W31572  36.807  30.984  11.558
60044W        W31573  22.781  21.910  12.820
60045W        W31574   4.955  10.554   2.298
60046W        W31575  30.425  14.737  12.896
60047W        W31576  34.827  21.995   3.176
60048W        W31577  14.629  15.097   3.205
60049W        W31578  21.784  26.311   4.567
60050W        W31579  29.692  18.789   1.784
60051W        W31580  43.560   0.680  12.877
60052W        W31581  37.331  22.974   1.778
60053W        W31582  36.150  37.404   2.289
60054W        W31583  14.779  37.587   1.198
60055W        W31584  28.781  37.840   0.480
60056W        W31585  25.367  27.169   0.064
60057W        W31586  40.039   9.559  14.239
60058W        W31587  11.242  35.151  10.673
60059W        W31588   4.367  30.747  11.700
60060W        W31589  33.025  22.709  11.039
60061W        W31590  40.849  17.310  10.561
60062W        W31591  21.196  27.424   3.212
60063W        W31592  10.800   9.106   3.073
60064W        W31593  24.790  17.079  14.453
60065W        W31594  14.675  36.566   0.865
60066W        W31595  35.405  14.612   2.076
60067W        W31596  22.036   9.154   4.145
60068W        W31597  17.102  12.111   2.473
60069W        W31598  41.162   0.634  10.446
60070W        W31599   5.876  39.608  13.308
60071W        W31600  32.100  13.822  11.995
60072W        W31601  42.918  24.656   0.804
60073W        W31602  43.808  23.244  12.981
60074W        W31603  28.616   8.419   0.992
60075W        W31604  41.391  39.992   4.102
60076W        W31605  34.973   2.230   0.566
60077W        W31606  32.201  12.945   5.268
60078W        W31607   8.905  41.738   2.698
60079W        W31608  35.497  38.754  12.580
60080W        W31609  32.139  40.460   0.472
60081W        W31610  31.850  42.429   3.708
60082W        W31611  25.732  15.209   4.697
60083W        W31612   3.430  15.363  13.992
60084W        W31613  13.105  12.186   1.428
60085W        W31614  28.682  39.521  13.697
60086W        W31615  21.707  19.931  13.443
60087W        W31616  36.922  24.078  12.644
60088W        W31617   1.680  34.878  12.645
60089W        W31618  22.234   4.406   3.724
60090W        W31619  20.014   2.394  13.409
60091W        W31620  36.483  44.006   1.714
60092W        W31621  20.604   1.798   0.300
60093W        W31622  44.883  14.731  14.880
60094W        W31623  38.083  42.639  14.860
60095W        W31624  33.930  14.594   4.778
60096W        W31625  43.016  10.096   4.334
60097W        W31626  16.215  13.864   3.104
60098W        W31627  37.750  24.606  12.491
60099W        W31628  21.591  25.264   4.636
60100W        W31629  30.722  36.589   3.231
60101W        W31630  36.883  28.983   0.526
60102W        W31631  38.067  44.562  11.635
60103W        W31632   2.214  16.617  13.981
60104W        W31633   9.568   5.046   4.072
60105W        W31634  35.336  13.221   3.643
60106W        W31635  19.516  40.605   4.185
60107W        W31636  22.499  36.019  14.724
60108W        W31637  10.783   6.204   2.725
60109W        W31638  39.836  42.772   0.518
60110W        W31639   7.764  28.381  12.009
60111W        W31640   7.364  31.478   3.529
60112W        W31641  22.641  18.691  10.680
60113W        W31642  41.766  43.047   1.874
60114W        W31643  12.323  30.364   1.245
60115W        W31644  28.120  25.257   0.497
60116W        W31645  42.246  21.286  12.418
60117W        W31646  42.502  16.409   3.857
60118W        W31647  29.910  29.889   2.271
60119W        W31648  21.637  39.060   2.752
60120W        W31649  40.732  36.299   3.432
60121W        W31650  23.542  21.954   1.350
60122W        W31651  14.965  33.242  11.884
60123W        W31652  16.806  25.173   1.170
60124W        W31653   8.071  41.428   4.604
60125W        W31654  17.803  23.640   4.708
60126W        W31655  12.766  31.690   2.277
60127W        W31656   4.827  35.511  11.359
60128W        W31657   7.153  12.854  12.940
60129W        W31658  40.355  22.242   0.516
60130W        W31659  37.178  37.106   3.740
60131W        W31660  19.585   7.201  12.063
60132W        W31661  30.140  38.216  14.971
60133W        W31662   9.953  42.963   3.826
60134W        W31663   1.840  29.697   3.711
60135W        W31664   4.440  28.861   3.642
60136W        W31665  26.386  39.111  11.235
60137W        W31666  29.567   3.944   2.665
60138W        W31667   3.161  12.307   0.802
60139W        W31668  27.153  35.312   1.680
60140W        W31669   3.473  39.319   2.657
60141W        W31670  26.470  24.257   4.618
60142W        W31671  10.197  29.170  12.424
60143W        W31672  13.681  16.302   2.267
60144W        W31673   1.078  34.099  12.546
60145W        W31674  28.034  25.692  14.533
60146W        W31675  10.809  12.531  11.188
60147W        W31676  18.262  31.932  12.821
60148W        W31677  22.083  34.724  13.365
60149W        W31678  37.833  12.673  10.291
60150W        W31679  21.336   0.429   2.664
60151W        W31680   8.657  22.231   3.824
60152W        W31681  38.543  19.817  14.709
60153W        W31682  35.763  37.871  11.944
60154W        W31683  27.586  32.627   2.719
60155W        W31684   1.674  22.597   0.351
60156W        W31685   2.497  27.625   2.251
60157W        W31686   7.952  37.351   0.826
60158W        W31687  11.799   3.206  12.124
60159W        W31688  32.898  33.234  14.759
60160W        W31689  28.699   0.923   3.133
60161W        W31690  18.792  37.647   1.480
60162W        W31691  31.049  25.387   1.784
60163W        W31692  32.048   3.106   0.025
60164W        W31693  20.552  12.751  11.587
60165W        W31694  30.090  34.365   3.645
60166W        W31695  14.287  34.444   1.072
60167W        W31696  42.792  37.587   2.750
60168W        W31697  20.605  19.298   1.734
60169W        W31698  30.518   9.714   2.662
60170W        W31699  43.415  16.660   1.600
60171W        W31700  27.707  21.085  13.098
60172W        W31701  33.436  34.847   0.434
60173W        W31702   0.681  42.714  14.658
60174W        W31703   1.438   0.808   1.368
60175W        W31704  29.588  35.884  13.483
60176W        W31705   8.809  19.055   1.251
60177W        W31706   2.196  42.065  13.815
60178W        W31707   0.722  21.568   0.204
60179W        W31708   0.581  29.039  13.212
60180W        W31709  38.670  13.612  11.573
60181W        W31710   2.864  33.500   0.896
60182W        W31711   7.954  43.551   2.170
60183W        W31712  30.688  21.008  12.552
60184W        W31713   4.700  39.931   0.133
60185W        W31714  14.684  10.724  13.910
60186W        W31715  27.958  18.584   0.756
60187W        W31716  26.640  18.270   1.665
60188W        W31717  26.762  10.457  12.960
60189W        W31718  39.813   7.225  13.584
60190W        W31719  40.026  43.674   1.900
60191W        W31720   5.205   6.461   3.700
60192W        W31721  17.238  38.247  11.736
60193W        W31722   1.887  24.411   0.427
60194W        W31723  25.959   9.419   3.206
60195W        W31724  15.828  36.583  13.052
60196W        W31725  29.212  10.778   3.629
60197W        W31726  26.661  44.246   2.164
60198W        W31727   7.127   7.338   2.199
60199W        W31728  37.996  30.300  14.418
60200W        W31729  16.158  34.653  12.948
60201W        W31730  18.368  44.244   0.475
60202W        W31731  42.439  27.820   3.750
60203W        W31732  39.389  28.944   4.148
60204W        W31733  26.200  28.195  13.091
60205W        W31734  16.761  32.227   2.676
60206W        W31735  40.209  18.178   5.129
60207W        W31736  34.688  26.432   5.028
60208W        W31737   8.877  31.933  11.183
60209W        W31738  31.356  18.569  14.425
60210W        W31739   3.664   1.064  11.683
60211W        W31740   8.786  33.407  14.261
60212W        W31741  31.564  31.057  13.506
60213W        W31742  22.565  11.658   0.404
60214W        W31743  27.443  41.968  13.384
60215W        W31744  20.990  35.112   2.292
60216W        W31745  40.601  16.871  12.603
60217W        W31746   7.732  35.052  12.028
60218W        W31747   8.745  39.223   0.849
60219W        W31748  10.942  26.459  13.147
60220W        W31749  12.477  20.495   4.628
60221W        W31750  18.831  24.583  14.530
60222W        W31751  18.232  21.816   4.155
60223W        W31752   6.846  25.032  13.948
60224W        W31753   5.760  12.110   1.384
60225W        W31754  18.207  35.584  13.787
60226W        W31755  43.310  28.407  13.953
60227W        W31756  11.756   0.774  12.983
60228W        W31757  26.499  37.955   2.640
60229W        W31758  15.790  12.247   4.296
60230W        W31759  35.142  37.710   3.841
60231W        W31760  42.790  32.624  13.540
60232W        W31761  35.583  31.656   3.828
60233W        W31762  31.583  21.704   2.285
60234W        W31763  11.970  33.837  13.488
60235W        W31764  33.461  13.212   0.181
60236W        W31765   8.870   6.768  14.357
60237W        W31766   5.465  14.552  10.690
60238W        W31767  22.540  26.922  11.078
60239W        W31768  33.105   9.257  10.972
60240W        W31769  29.675  42.156  11.997
60241W        W31770  34.330  10.256   0.939
60242W        W31771  22.706  39.028  12.649
60243W        W31772  23.248  37.790   1.284
60244W        W31773  25.568   4.704   0.676
60245W        W31774  40.533  13.335  12.349
60246W        W31775  31.924  21.024  12.912
60247W        W31776  30.151  15.121   2.249
60248W        W31777   6.962   5.737   3.687
60249W        W31778  44.564  15.101  11.951
60250W        W31779  16.252  32.631   1.979
60251W        W31780  16.755  33.863   4.875
60252W        W31781  11.194  44.796   0.480
60253W        W31782  17.654   8.213  10.783
60254W        W31783   2.708  14.028  14.786
60255W        W31784  34.419   8.296   3.658
60256W        W31785   6.682  37.880   3.083
60257W        W31786  11.054  35.763   1.433
60258W        W31787  15.889  12.357  12.663
60259W        W31788  34.216  32.816  12.605
60260W        W31789   7.574  18.495   4.169
60261W        W31790   1.215  32.049   3.337
60262W        W31791   1.741   1.880   3.925
60263W        W31792  43.803  23.469   2.351
60264W        W31793  44.562  22.808   3.614
60265W        W31794  31.099  33.913  13.835
60266W        W31795  39.993   0.267  10.342
60267W        W31796  44.827  19.370  14.963
60268W        W31797  37.891  31.128  14.841
60269W        W31798  11.658  24.763   3.139
60270W        W31799  36.238  19.754  14.087
60271W        W31800   3.429  18.813  11.117
60272W        W31801   3.408   1.183  11.228
60273W        W31802  12.636  18.476  14.936
60274W        W31803  26.121  34.361   2.373
60275W        W31804  21.699  16.273  12.987
60276W        W31805  36.320  25.791   3.410
60277W        W31806  16.456  30.783  12.096
60278W        W31807   0.524   5.573  11.573
60279W        W31808  17.057   3.908  14.862
60280W        W31809  17.875  27.859  10.262
60281W        W31810  11.219  20.684  11.998
60282W        W31811   4.941  17.772  11.504
60283W        W31812  40.539  33.130   3.862
60284W        W31813  13.068   6.700   0.833
60285W        W31814  41.907  18.517  12.440
60286W        W31815   8.433  19.815   0.650
60287W        W31816   1.413   3.339   1.864
60288W        W31817   2.405   9.583   0.238
60289W        W31818  36.963  37.647   0.915
60290W        W31819   6.810  43.150   2.609
60291W        W31820  40.129  30.541   4.833
60292W        W31821   2.814  14.246  10.467
60293W        W31822   5.746   1.390  12.631
60294W        W31823  13.650  26.920  11.041
60295W        W31824  26.713  32.993  13.455
60296W        W31825   8.221  39.318  11.946
60297W        W31826  44.295   4.432   0.248
60298W        W31827  23.713  19.272  13.019
60299W        W31828  10.617   4.876   2.750
60300W        W31829  33.582   4.792  14.006
60301W        W31830  26.237  11.749   0.528
60302W        W31831  24.145   6.444  11.789
60303W        W31832  27.483  33.327  11.763
60304W        W31833  43.691  23.159   2.750
60305W        W31834   2.207   1.831   4.131
60306W        W31835   2.585  28.287  14.341
60307W        W31836  44.462  34.511   0.834
60308W        W31837  27.008  20.174   2.229
60309W        W31838  33.974  24.941   4.560
60310W        W31839  11.262   1.717  10.721
60311W        W31840  23.881  37.115   1.246
60312W        W31841   4.899   9.103  10.405
60313W        W31842  15.911  12.869   3.175
60314W        W31843  11.864  20.698  12.770
60315W        W31844  29.891  21.280  13.787
60316W        W31845  40.494  41.206  14.908
60317W        W31846  34.949  41.955   2.299
60318W        W31847  41.549  14.308   4.124
60319W        W31848  35.930  35.317   3.732
60320W        W31849   6.277  42.368   2.685
60321W        W31850  10.878   5.391   3.520
60322W        W31851  41.898  26.924   1.912
60323W        W31852  15.162  39.618  11.062
60324W        W31853  22.315  31.824   3.666
60325W        W31854  16.105  12.600   4.616
60326W        W31855  41.935   4.726   1.714
60327W        W31856  38.436  35.656   4.442
60328W        W31857   9.868   3.735   0.005
60329W        W31858  33.900  10.759   3.117
60330W        W31859  36.709  38.001  11.033
60331W        W31860  35.959  30.484   3.517
60332W        W31861  34.007  28.374   0.817
60333W        W31862  20.705   5.585   4.601
60334W        W31863  25.113  19.281  14.228
60335W        W31864  31.484  30.572   1.806
60336W        W31865  39.269  36.556  14.363
60337W        W31866  27.527  27.520  12.364
60338W        W31867   3.143  36.872  12.588
60339W        W31868  42.194  22.156   0.163
60340W        W31869  41.614   1.242   2.194
60341W        W31870  22.223  44.485  11.577
60342W        W31871  37.841  34.425   2.718
60343W        W31872  42.718   4.304   0.892
60344W        W31873   3.998  16.385  13.337
60345W        W31874  22.403  11.937  13.386
60346W        W31875  32.060  40.890  10.736
60347W        W31876   9.437  35.053   0.356
60348W        W31877   4.858  26.187  13.530
60349W        W31878  39.629  39.766   2.416
60350W        W31879  33.923  29.011   0.387
60351W        W31880  15.638  29.625   1.920
60352W        W31881  40.859  14.757  11.199
60353W        W31882  21.604  39.857  11.080
60354W        W31883  28.938  38.294  14.308
60355W        W31884  36.427   5.354  14.552
60356W        W31885  33.677   9.731   1.390
60357W        W31886   1.286  39.518  12.503
60358W        W31887   0.442  20.803  12.587
60359W        W31888  30.905  13.869   0.398
60360W        W31889  23.725  18.681   0.832
60361W        W31890  10.719  35.854  10.746
60362W        W31891  34.362  18.439  11.584
60363W        W31892  39.818  24.574  10.792
60364W        W31893  22.184  31.679   1.670
60365W        W31894  42.075  35.360  11.584
60366W        W31895   3.956  35.209  10.200
60367W        W31896   8.687  44.764   1.385
60368W        W31897  27.718   2.788   1.441
60369W        W31898  43.992  10.125   0.792
60370W        W31899  20.584  34.203  13.914
60371W        W31900  19.320  29.350  14.479
60372W        W31901  35.842  10.152   2.785
60373W        W31902  43.747  37.606  14.776
60374W        W31903  30.101  25.168  10.654
60375W        W31904  11.376   8.048  13.535
60376W        W31905  16.540  16.741  13.259
60377W        W31906   8.179  16.963  12.579
60378W        W31907   3.877  21.711  12.371
60379W        W31908   9.558  15.127  12.110
60380W        W31909  13.721  21.174  14.823
60381W        W31910  32.165  20.883  13.367
60382W        W31911  37.987  11.837  10.690
60383W        W31912   6.577  25.084   0.367
60384W        W31913  20.313  15.672  13.283
60385W        W31914  40.749  33.412  13.306
60386W        W31915   8.734  39.589  12.005
60387W        W31916  21.601  42.935   1.335
60388W        W31917  29.676  14.878  13.349
60389W        W31918   0.289  30.996  11.205
60390W        W31919   5.352   6.975   1.746
60391W        W31920  11.813   6.747  14.275
60392W        W31921  27.949  39.467  12.007
60393W        W31922   9.858  13.128   0.202
60394W        W31923  20.299  44.996  13.947
60395W        W31924  35.857  32.933   0.337
60396W        W31925  40.420   1.782  12.045
60397W        W31926  18.446  30.826   5.739
60398W        W31927  20.766  29.075   4.681
60399W        W31928  38.887   9.822   4.449
60400W        W31929  43.042  34.463   0.491
60401W        W31930  26.093  17.135   4.911
60402W        W31931   7.402  15.131   2.084
60403W        W31932  17.733  38.316   0.951
60404W        W31933  29.604   3.376   0.434
60405W        W31934  28.635   4.290  12.325
60406W        W31935   7.887  43.326   1.297
60407W        W31936   8.952   1.466  11.672
60408W        W31937  32.934  38.978  12.401
60409W        W31938  18.604  38.280   2.255
60410W        W31939  40.422  33.504  14.199
60411W        W31940  11.216   7.567   3.779
60412W        W31941  15.806  15.790   4.676
60413W        W31942  28.474  32.866  13.928
60414W        W31943  22.697  34.279   3.000
60415W        W31944   4.083  37.071   3.606
60416W        W31945   3.896  40.186   4.674
60417W        W31946   3.494  37.770  14.857
60418W        W31947   5.646   3.362  14.968
60419W        W31948   1.771  11.788   0.359
60420W        W31949  10.256  28.847  12.828
60421W        W31950   3.074   4.464  14.670
60422W        W31951  38.421   2.906  13.974
60423W        W31952  18.131  35.483  11.568
60424W        W31953   0.254  25.768   3.289
60425W        W31954  11.087  19.038  13.955
60426W        W31955  36.297  41.858  10.765
60427W        W31956   1.075  32.941   5.000
60428W        W31957  36.016  10.060   0.471
60429W        W31958  29.586  34.661  11.527
60430W        W31959  16.741  31.592   2.107
60431W        W31960  11.841  42.739  12.966
60432W        W31961  18.228  32.865  10.585
60433W        W31962  30.473   8.147  11.171
60434W        W31963  13.115  33.824   3.788
60435W        W31964  25.948  16.743   4.560
60436W        W31965   9.584   4.484  11.540
60437W        W31966   5.370   9.857   1.396
60438W        W31967  38.973  25.855   1.774
60439W        W31968  12.602   2.430   0.079
60440W        W31969  24.567  30.048  11.370
60441W        W31970   0.883  30.618  10.143
60442W        W31971  16.602   0.290   1.461
60443W        W31972  13.130  29.676   3.159
60444W        W31973  42.044  11.167   1.309
60445W        W31974   7.412  27.233  11.042
60446W        W31975  35.899   7.414  14.484
60447W        W31976  24.709  19.097  12.931
60448W        W31977  23.738  20.908   0.557
60449W        W31978  20.098  25.121   2.217
60450W        W31979  41.540  11.745  10.827
60451W        W31980   1.689   2.750  12.598
60452W        W31981  19.609   8.586   2.133
60453W        W31982  44.497  31.798   0.302
60454W        W31983  21.193  35.051   0.867
60455W        W31984  26.316  36.899  10.747
60456W        W31985  40.958  18.062   4.178
60457W        W31986  31.348   7.799  11.268
60458W        W31987   2.943   1.588   1.859
60459W        W31988  42.979  16.632   4.423
60460W        W31989  27.609  14.218  11.160
60461W        W31990  16.861  26.672   0.773
60462W        W31991  27.456  24.804   1.913
60463W        W31992  32.880  24.113   4.195
60464W        W31993  40.648  19.725  11.951
60465W        W31994  19.183  11.799   0.752
60466W        W31995  12.289   7.930  13.273
60467W        W31996  23.409  25.618   1.687
60468W        W31997  22.937  10.186  14.314
60469W        W31998  16.550  36.186  14.295
60470W        W31999  10.690  11.115   3.222
60471W        W32000   9.715   3.759  13.579
60472W        W32001  18.383  39.421  11.175
60473W        W32002   3.796  24.213  11.402
60474W        W32003  32.874  29.585   4.337
60475W        W32004  21.102   8.310  11.214
60476W        W32005  26.158  42.377   5.051
60477W        W32006  37.980  32.596   0.906
60478W        W32007  15.218  16.330   2.937
60479W        W32008  22.030  20.274  13.104
60480W        W32009  24.241  18.516  13.524
60481W        W32010  13.109  13.207   0.679
60482W        W32011   3.296  19.383   5.021
60483W        W32012   3.683  37.592   1.644
60484W        W32013  18.586  37.923   4.966
60485W        W32014  24.616  25.773   4.963
60486W        W32015  26.306  33.596   0.430
60487W        W32016  36.988  26.126  11.558
60488W        W32017  13.149  31.821  13.922
60489W        W32018   8.817  10.666  12.024
60490W        W32019  28.484  13.872   5.010
60491W        W32020  19.814  19.640   4.567
60492W        W32021   7.847  10.497  14.037
60493W        W32022  19.822  21.627   3.050
60494W        W32023  29.154  44.803   2.180
60495W        W32024  14.120  15.136  14.079
60496W        W32025   2.764  41.652   3.059
60497W        W32026  15.844  43.086   0.994
60498W        W32027   1.985  41.735   1.855
60499W        W32028  29.957  29.014   4.776
60500W        W32029  23.131   2.299   3.635
60501W        W32030  34.586   7.863  14.589
60502W        W32031  10.266  10.806   3.206
60503W        W32032  39.043   8.674   1.337
60504W        W32033  43.933   6.927  13.446
60505W        W32034  22.702  23.573   3.134
60506W        W32035  30.081  19.591  12.948
60507W        W32036  24.217  11.756   2.506
60508W        W32037   8.910  31.280  13.653
60509W        W32038   7.686  16.233   4.560
60510W        W32039  31.339  43.357  12.709
60511W        W32040  29.413   4.865  12.533
60512W        W32041  24.756   4.275   0.603
60513W        W32042  17.268  30.244   4.934
60514W        W32043  40.284  12.819   4.072
60515W        W32044  35.076   1.784   1.803
60516W        W32045   1.923   9.806   3.315
60517W        W32046  33.389  21.057   0.745
60518W        W32047  38.806  31.856   2.851
60519W        W32048  16.227  18.151  12.558
60520W        W32049   3.536  44.638   0.434
60521W        W32050  28.833  21.740  11.633
60522W        W32051  21.200  34.601   0.519
60523W        W32052  19.518  43.468  12.000
60524W        W32053  13.637  25.614  10.429
60525W        W32054  21.332   1.900   2.780
60526W        W32055  14.051  32.835  11.878
60527W        W32056  36.812  13.486  11.617
60528W        W32057  42.350  41.253   3.475
60529W        W32058  35.857  26.956  11.917
60530W        W32059  34.596  11.363   2.789
60531W        W32060  18.542  33.592  14.251
60532W        W32061  26.793  33.811   2.341
60533W        W32062  15.645  18.258  10.896
60534W        W32063  17.476  30.172  11.473
60535W        W32064  28.067  34.500   2.741
60536W        W32065  35.328  13.388   2.761
60537W        W32066  20.007   6.801  11.179
60538W        W32067  25.565  16.472   1.690
60539W        W32068  11.360   4.004   3.165
60540W        W32069   4.263  38.803   4.559
60541W        W32070  40.822  37.159   1.485
60542W        W32071  18.738  14.026   4.157
60543W        W32072  24.054  30.123  11.135
60544W        W32073  21.305   6.173  14.034
60545W        W32074  25.402  19.236   0.405
60546W        W32075  27.408  32.098   1.333
60547W        W32076  32.432  33.589  10.050
60548W        W32077  30.664  43.354   1.666
60549W        W32078  28.717  12.408  14.454
60550W        W32079   1.874  34.064  11.527
60551W        W32080  31.610  28.469  13.522
60552W        W32081   6.680   7.675   4.720
60553W        W32082  31.187   7.952   4.776
60554W        W32083  23.721  13.908   3.626
60555W        W32084  23.012  40.362   2.639
60556W        W32085  38.299  27.921   4.103
60557W        W32086  29.009   6.761   3.823
60558W        W32087  33.267  12.517  11.479
60559W        W32088  23.726  14.419   2.687
60560W        W32089  40.942  18.540  11.187
60561W        W32090  26.684  35.527  13.420
60562W        W32091  33.533  35.022  13.518
60563W        W32092  31.123  19.555   4.947
60564W        W32093   5.796  37.835   4.172
60565W        W32094  24.926  41.107   1.680
60566W        W32095   7.723  32.972   2.381
60567W        W32096  34.621  31.425  14.402
60568W        W32097  32.941  23.124  14.713
60569W        W32098  35.381   4.298   4.194
60570W        W32099  26.334   1.750   3.287
60571W        W32100  14.753  21.228  14.720
60572W        W32101   5.644   1.629   4.156
60573W        W32102  28.454  37.807   3.751
60574W        W32103   2.619  26.031   3.253
60575W        W32104  26.210  29.485  14.959
60576W        W32105  15.536  31.998   1.955
60577W        W32106  17.204  24.155   1.422
60578W        W32107  17.634  27.934  10.717
60579W        W32108  26.500  31.795  11.013
60580W        W32109  44.369   0.298  14.423
60581W        W32110  18.736  16.108   2.437
60582W        W32111  22.460  44.497  13.354
60583W        W32112  35.948  10.128   3.699
60584W        W32113   7.102  43.886   1.172
60585W        W32114  34.631  37.375   4.706
60586W        W32115  44.860  12.878   2.328
60587W        W32116  16.785  15.228   3.587
60588W        W32117  10.936  18.352  12.892
60589W        W32118   9.541  19.821  11.675
60590W        W32119  38.241   6.818  12.546
60591W        W32120  23.237   1.750   0.442
60592W        W32121  34.233   4.454  12.084
60593W        W32122   0.771  31.084   1.001
60594W        W32123   9.360  13.623  13.033
60595W        W32124  31.576  18.627   4.714
60596W        W32125  36.374  42.360   2.238
60597W        W32126  25.953  40.762   1.749
60598W        W32127  33.386  20.105   3.444
60599W        W32128  12.972  39.078  14.490
60600W        W32129  21.518  30.137   3.905
60601W        W32130   5.878  23.601   2.817
60602W        W32131  20.397   9.100   1.177
60603W        W32132  19.740  29.640  14.415
60604W        W32133  14.104  12.835  12.844
60605W        W32134  35.288  35.479   2.630
60606W        W32135  44.925  27.627   4.101
60607W        W32136  39.055  37.318   0.010
60608W        W32137  29.498  42.517  14.830
60609W        W32138   6.363   9.955  10.818
60610W        W32139  11.492   8.253  10.475
60611W        W32140  26.632  23.641  14.972
60612W        W32141  30.910  32.390  13.977
60613W        W32142  39.867   4.728  10.371
60614W        W32143  25.098  29.292   3.686
60615W        W32144  21.428  10.934   4.298
60616W        W32145  30.915  24.548   3.664
60617W        W32146  35.474  10.416  14.737
60618W        W32147   5.476  36.600  12.381
60619W        W32148   0.992  24.499  13.721
60620W        W32149   5.902  23.390  12.116
60621W        W32150  31.824  10.552  13.005
60622W        W32151   6.161  11.861  11.657
60623W        W32152  44.511  23.787  14.397
60624W        W32153  36.540  18.731  12.545
60625W        W32154  27.938  11.117   4.889
60626W        W32155  34.626  12.764   1.166
60627W        W32156  24.994   1.648  13.927
60628W        W32157  40.608  16.816  14.584
60629W        W32158  29.701  18.306  13.950
60630W        W32159   6.614  31.645  11.932
60631W        W32160   5.182  42.808   3.610
60632W        W32161   7.402  10.057   0.792
60633W        W32162  37.283  23.315   0.044
60634W        W32163  27.673  35.547   4.652
60635W        W32164  40.302   4.894  11.709
60636W        W32165  40.839  40.756  11.968
60637W        W32166  22.653  39.446  11.958
60638W        W32167  13.095   2.827   1.715
60639W        W32168  38.427  39.646  12.072
60640W        W32169  44.355  27.666  10.570
60641W        W32170  32.534  37.536  11.200
60642W        W32171   0.866   3.783   4.231
60643W        W32172  11.288  25.533   0.236
60644W        W32173  28.508   0.887   4.107
60645W        W32174  42.022   7.280   0.084
60646W        W32175   0.256   0.435   2.792
60647W        W32176   6.979  43.483  11.052
60648W        W32177  17.662   7.831   4.166
60649W        W32178  12.294  41.066  14.754
60650W        W32179  37.809  39.786  12.615
60651W        W32180  26.202  12.145   4.743
60652W        W32181  39.307  16.485  10.378
60653W        W32182  21.796  24.031  14.412
60654W        W32183  20.134  14.798  12.632
60655W        W32184   7.931  24.097   2.408
60656W        W32185  12.637   6.991   1.531
60657W        W32186  25.734  40.211  11.590
60658W        W32187  38.728   6.196  14.452
60659W        W32188  13.981  21.706   4.058
60660W        W32189   7.171  12.269   1.725
60661W        W32190   7.509  30.607   4.043
60662W        W32191  36.091  16.688  10.443
60663W        W32192   6.099  36.733   2.825
60664W        W32193  11.984  18.219  14.938
60665W        W32194  13.691   6.956   2.375
60666W        W32195   3.977  10.558   4.584
60667W        W32196  29.006   9.404  12.992
60668W        W32197  25.490  20.520   0.847
60669W        W32198   5.502  15.211   2.631
60670W        W32199  41.749  44.248  13.031
60671W        W32200  29.437  15.289  13.101
60672W        W32201   4.474  41.245  13.072
60673W        W32202  29.074  41.010  12.797
60674W        W32203   5.326  41.635   3.275
60675W        W32204   7.850  28.992  13.897
60676W        W32205  37.724  17.687   2.263
60677W        W32206  27.643  43.226   3.127
60678W        W32207  35.523  44.408   0.970
60679W        W32208  40.670  19.417  10.167
60680W        W32209  19.803   0.065  13.784
60681W        W32210   9.844  34.335  14.424
60682W        W32211  15.144  43.148  13.008
60683W        W32212   1.280  20.363   1.924
60684W        W32213  35.470  33.571  14.236
60685W        W32214  37.603  32.253   2.169
60686W        W32215  36.012  18.616  11.473
60687W        W32216  14.449  20.105   5.482
60688W        W32217   5.653   2.190   3.939
60689W        W32218  22.151  26.388  14.432
60690W        W32219  28.004   3.456  11.577
60691W        W32220  41.066   6.973   2.705
60692W        W32221  43.314  27.988   4.081
60693W        W32222  43.709  37.777  13.409
60694W        W32223  32.612   8.904   3.841
60695W        W32224  39.004  28.927  12.935
60696W        W32225  23.946  12.329  12.265
60697W        W32226  36.396  23.174  11.064
60698W        W32227  11.677  23.833   0.343
60699W        W32228  17.697  36.380  14.827
60700W        W32229  35.980   1.788   4.091
60701W        W32230  20.220  43.531  12.706
60702W        W32231   2.360  44.495  14.775
60703W        W32232  12.305  19.784  13.112
60704W        W32233   0.308  21.644   1.461
60705W        W32234  34.887  10.260   2.282
60706W        W32235  44.076  31.183  10.855
60707W        W32236  32.490  12.716  14.917
60708W        W32237  34.348  14.811  12.635
60709W        W32238  27.719   1.395   2.533
60710W        W32239  36.592  29.457   2.715
60711W        W32240  23.244  20.166   2.865
60712W        W32241  17.113  39.851  11.985
60713W        W32242  28.060   1.360   1.294
60714W        W32243   9.991  37.487  10.781
60715W        W32244   5.736  30.702  11.957
60716W        W32245  19.298   5.636  14.908
60717W        W32246  42.613   1.969   2.912
60718W        W32247   0.104  33.168   0.741
60719W        W32248  41.953  35.746   1.034
60720W        W32249  22.077  16.871   4.614
60721W        W32250  30.063   4.872   0.416
60722W        W32251   9.350  21.458   0.412
60723W        W32252  27.986  16.834   1.252
60724W        W32253  34.688  26.086  12.218
60725W        W32254  14.304  42.081  13.869
60726W        W32255  37.439  33.873  13.842
60727W        W32256  32.482  43.170  10.250
60728W        W32257  22.602   6.464   4.178
60729W        W32258  36.024  28.517  12.961
60730W        W32259  43.478   7.631   2.284
60731W        W32260  20.549  41.918  14.989
60732W        W32261  15.947  19.025   4.630
60733W        W32262  19.210  12.524  14.606
60734W        W32263  18.939  40.343   0.972
60735W        W32264  34.952  22.033  14.597
60736W        W32265  25.616   2.419  14.779
60737W        W32266  23.310  39.939   2.755
60738W        W32267  36.061  41.553   4.581
60739W        W32268  31.907  21.636   3.700
60740W        W32269  15.479  41.938   0.934
60741W        W32270  36.468  31.636   0.497
60742W        W32271  21.243  24.398  13.384
60743W        W32272  41.910  44.488   0.704
60744W        W32273  28.003  40.555   5.051
60745W        W32274  37.499  33.216   4.473
60746W        W32275  10.326  19.741   3.656
60747W        W32276  38.853  32.119   2.365
60748W        W32277   3.501  42.272  11.672
60749W        W32278   0.894   0.604  11.085
60750W        W32279  16.574  27.874   0.076
60751W        W32280  26.524   4.050   4.329
60752W        W32281  37.338  40.821  14.173
60753W        W32282  19.255  17.220  10.510
60754W        W32283  40.688  34.385   1.158
60755W        W32284  44.284  25.534   4.500
60756W        W32285  26.686  33.673   4.117
60757W        W32286  20.221   5.479   0.064
60758W        W32287  16.497  38.898   4.626
60759W        W32288  38.911  12.200  10.948
60760W        W32289  14.671   0.049  14.022
60761W        W32290  16.705  19.584   2.717
60762W        W32291  38.940   3.746  12.735
60763W        W32292  24.717  38.287  13.366
60764W        W32293  28.771   4.683  11.411
60765W        W32294  18.770  37.883   3.642
60766W        W32295  20.172  31.613   2.712
60767W        W32296  18.650  15.899  13.575
60768W        W32297  33.582   1.587   4.453
60769W        W32298  36.945   9.238  12.338
60770W        W32299  40.254  28.944  11.970
60771W        W32300  14.636  32.449  13.734
60772W        W32301  40.329  32.880   2.436
60773W        W32302   9.165  19.529   1.254
60774W        W32303  31.538  20.846   4.043
60775W        W32304  10.416  15.983  12.651
60776W        W32305   9.320   6.414   0.845
60777W        W32306  25.979  13.204   2.848
60778W        W32307   6.222   2.822   4.482
60779W        W32308  35.458  23.217  11.203
60780W        W32309  44.194  40.445  13.331
60781W        W32310  41.295   4.029  14.064
60782W        W32311  38.474  39.846   1.741
60783W        W32312  42.449  13.125   2.858
60784W        W32313  18.762   1.543  12.011
60785W        W32314  14.595  13.892  12.284
60786W        W32315  36.918   7.409  10.558
60787W        W32316   9.022  12.360  11.584
60788W        W32317   8.832  23.257   0.422
60789W        W32318  39.032  17.242   1.276
60790W        W32319  32.836  13.886   0.398
60791W        W32320  18.062  33.031   3.373
60792W        W32321  27.409  42.046  10.657
60793W        W32322  15.928  21.085  14.039
60794W        W32323  43.821  26.211   1.726
60795W        W32324   2.053  28.350  14.350
60796W        W32325  25.721  30.717  11.949
60797W        W32326  43.027   7.282   1.726
60798W        W32327  43.848  36.085  11.111
60799W        W32328  20.102  12.633  11.374
60800W        W32329  39.564   6.420   4.915
60801W        W32330  16.733   5.553  11.039
60802W        W32331   6.854  27.522  13.411
60803W        W32332  40.382   0.224   3.918
60804W        W32333  34.359  36.895   3.066
60805W        W32334  19.007  40.799   2.668
60806W        W32335  11.262  18.604   2.301
60807W        W32336  44.367  32.630  14.916
60808W        W32337  41.248  44.912   3.437
60809W        W32338  12.960  19.751  12.491
60810W        W32339  13.265   7.193   4.500
60811W        W32340   1.253   7.945   0.399
60812W        W32341  35.657  11.697   2.662
60813W        W32342   6.693  20.050   1.892
60814W        W32343  42.035  40.782   3.610
60815W        W32344  43.115  21.776  14.506
60816W        W32345  30.315  26.133   0.398
60817W        W32346  40.262  33.514   3.625
60818W        W32347  40.261   3.473   2.926
60819W        W32348   0.482  39.917   3.815
60820W        W32349  32.445  36.249   3.257
60821W        W32350  28.530   1.799   4.048
60822W        W32351  25.145  16.165   2.453
60823W        W32352  28.121  24.626   3.652
60824W        W32353  24.008  40.059  13.608
60825W        W32354  14.866  17.265   2.125
60826W        W32355  28.075   1.672   4.619
60827W        W32356   3.468  17.876  10.647
60828W        W32357  26.216  17.029  13.290
60829W        W32358  39.786  39.827  10.770
60830W        W32359  31.184  16.639   2.063
60831W        W32360   6.301  35.375  13.196
60832W        W32361  39.257  25.047   4.574
60833W        W32362   7.256  40.788   0.239
60834W        W32363  43.366  22.156  12.070
60835W        W32364  28.742  40.349   1.835
60836W        W32365   7.707  16.121   2.699
60837W        W32366  21.246  11.467   0.296
60838W        W32367  11.894  13.807   1.791
60839W        W32368  12.585  39.554  11.550
60840W        W32369  15.494  39.699   0.310
60841W        W32370   2.434  37.959   1.384
60842W        W32371   2.573  25.297   2.791
60843W        W32372   2.304  22.775  12.595
60844W        W32373  30.484  12.976   4.874
60845W        W32374  24.003  25.487   0.437
60846W        W32375   1.982  42.175  12.880
60847W        W32376  36.634  16.257  12.395
60848W        W32377   2.956  28.128  13.586
60849W        W32378  12.633  34.000  14.382
60850W        W32379  22.185   8.821  11.639
60851W        W32380   1.394  40.807  11.440
60852W        W32381   6.676   5.778  11.415
60853W        W32382  30.201  19.058  13.890
60854W        W32383  32.897  39.641   4.647
60855W        W32384   1.386  32.183   2.602
60856W        W32385  31.184   3.220  14.815
60857W        W32386  42.570  30.563  12.476
60858W        W32387  14.136  33.714  13.039
60859W        W32388  16.672  27.822   1.375
60860W        W32389   9.877  17.190   1.817
60861W        W32390  33.032  42.628  13.400
60862W        W32391   1.869   8.641   1.693
60863W        W32392  18.535  42.319  13.470
60864W        W32393  36.330  11.340   3.574
60865W        W32394  31.381  14.323  11.666
60866W        W32395  17.088  44.789  13.248
60867W        W32396  37.867  16.581  11.985
60868W        W32397  18.285  13.752  12.624
60869W        W32398  25.575  14.330   3.667
60870W        W32399  41.903   6.597  12.028
60871W        W32400  20.003  29.251  11.498
60872W        W32401  25.236  38.115  13.859
60873W        W32402  15.068  41.678   3.902
60874W        W32403  11.395  41.834  12.998
60875W        W32404  12.072  32.027  12.481
60876W        W32405   5.140  35.420  12.729
60877W        W32406  21.156  12.104  12.042
60878W        W32407   2.809  13.250  13.844
60879W        W32408  24.748  34.292  13.749
60880W        W32409   5.515  31.077   1.386
60881W        W32410  19.636  19.336   4.948
60882W        W32411  15.331  42.287   2.279
60883W        W32412  19.406  30.996  12.497
60884W        W32413  27.091   7.134   0.910
60885W        W32414  39.301  29.521   1.251
60886W        W32415   4.747   5.883   4.075
60887W        W32416  12.900  20.298   2.205
60888W        W32417  38.370  28.528  11.546
60889W        W32418  41.945  17.465   1.706
60890W        W32419  25.342   1.927  14.876
60891W        W32420  39.230   2.678   0.937
60892W        W32421   4.208  33.285   2.425
60893W        W32422  37.300  10.573   4.206
60894W        W32423  13.921  15.841   3.658
60895W        W32424  35.432  28.354  14.962
60896W        W32425  30.639  38.342  10.762
60897W        W32426  20.234  34.701   2.925
60898W        W32427  10.396  32.046  13.334
60899W        W32428   4.282  43.296   3.822
60900W        W32429  21.473  23.205   2.744
60901W        W32430  17.810  18.002  11.949
60902W        W32431  44.076  17.121   0.426
60903W        W32432   5.819   2.313   3.441
60904W        W32433  25.348  17.739   2.745
60905W        W32434  19.625  14.159   1.727
60906W        W32435   5.644  14.572  13.942
60907W        W32436   9.655   3.858   3.674
60908W        W32437  32.371  43.842  11.493
60909W        W32438  12.867  33.594   0.327
60910W        W32439  21.617  44.556   2.808
60911W        W32440  37.640  15.707  14.891
60912W        W32441  12.771  20.113   1.704
60913W        W32442  35.582   5.084  11.948
60914W        W32443  15.630  35.114  10.523
60915W        W32444  16.688  18.384   9.999
60916W        W32445  41.382  15.266  10.728
60917W        W32446  44.926  32.447   0.395
60918W        W32447   7.334  32.647  13.043
60919W        W32448  28.926  17.363  14.935
60920W        W32449   4.927  24.449   4.122
60921W        W32450   8.715  23.067   0.932
60922W        W32451  41.334  27.983   3.216
60923W        W32452  41.064  17.535  12.844
60924W        W32453   9.619  18.606  13.421
60925W        W32454  22.614   1.295  12.627
60926W        W32455  38.288  14.427   0.340
60927W        W32456  33.488  43.505   2.854
60928W        W32457  33.741  13.093  11.076
60929W        W32458   3.427  27.183   4.535
60930W        W32459  40.298  41.362   0.799
60931W        W32460  39.491   3.793   2.489
60932W        W32461  40.868   3.049  13.352
60933W        W32462  27.175  23.954   4.112
60934W        W32463  29.600   3.427   2.778
60935W        W32464  39.045   6.772  10.210
60936W        W32465  39.100  20.257  11.384
60937W        W32466  39.579  11.744   2.624
60938W        W32467  10.928  35.084  11.490
60939W        W32468  40.509  25.641  14.025
60940W        W32469  38.365  13.574  11.151
60941W        W32470   0.233  27.048  12.905
60942W        W32471  29.954  15.145   3.094
60943W        W32472  23.143  32.068   4.115
60944W        W32473  16.719   7.773   4.048
60945W        W32474  10.128  19.129   1.185
60946W        W32475  35.802  15.076  11.672
60947W        W32476  15.728  32.995   1.783
60948W        W32477  13.710  10.644   4.464
60949W        W32478  31.257   5.469   3.233
60950W        W32479  24.464  18.897   3.378
60951W        W32480  10.178  21.207   1.761
60952W        W32481  33.466  44.573   2.837
60953W        W32482  44.349  44.956  10.736
60954W        W32483  10.774  23.010  12.070
60955W        W32484  22.349   6.084   1.010
60956W        W32485  26.650  31.892  13.416
60957W        W32486   3.962  16.617  11.987
60958W        W32487  23.117   6.348   4.030
60959W        W32488  10.066  30.303  11.239
60960W        W32489  21.021  26.857  11.886
60961W        W32490  41.397  44.283  11.013
60962W        W32491  24.286  34.521  13.783
60963W        W32492  12.320  11.813  13.833
60964W        W32493  35.627  25.109  13.365
60965W        W32494   0.990  13.294  11.740
60966W        W32495  36.129  32.481   4.792
60967W        W32496  40.382  42.910  14.138
60968W        W32497  19.131  28.884  12.261
60969W        W32498  11.151   7.782  14.936
60970W        W32499  44.757  10.922   3.121
60971W        W32500  41.429  37.340  12.481
60972W        W32501  25.189  21.631   5.033
60973W        W32502  22.927  16.298  12.636
60974W        W32503  35.401   6.495  14.398
60975W        W32504  29.150  43.951  13.088
60976W        W32505  11.556  38.394   3.201
60977W        W32506  22.286  43.987   2.271
60978W        W32507   3.776   2.540  12.342
60979W        W32508   2.239  24.972   1.738
60980W        W32509  31.964  22.166  11.161
60981W        W32510  20.669  38.618   2.803
60982W        W32511  29.952  32.620  12.987
60983W        W32512   1.811   0.187   3.501
60984W        W32513  31.869   3.704   2.717
60985W        W32514  14.968  28.919   0.043
60986W        W32515   0.111  12.240  12.054
60987W        W32516   5.801  12.054   2.926
60988W        W32517  44.401   2.783   4.198
60989W        W32518   7.618  35.031   3.058
60990W        W32519  39.526  40.558  11.910
60991W        W32520  42.867   0.687  11.217
60992W        W32521  36.506  40.005  13.781
60993W        W32522  26.637  25.608  12.959
60994W        W32523   8.322  17.850  13.993
60995W        W32524   1.036   9.201  12.156
60996W        W32525  39.230   5.143   0.962
60997W        W32526  32.547   3.254  10.634
60998W        W32527  33.859  41.345   4.538
60999W        W32528  33.819  42.657  14.729
61000W        W32529  35.053  25.267   3.597
61001W        W32530  43.773  42.070   1.054
61002W        W32531  33.459   7.447   1.290
61003W        W32532  44.305  14.548  13.170
61004W        W32533   6.473  24.675   2.581
61005W        W32534  22.759   3.776  13.825
61006W        W32535  14.142  36.679   2.727
61007W        W32536  19.902  36.895   4.450
61008W        W32537  40.523  26.023  11.148
61009W        W32538  30.778  29.608  11.184
61010W        W32539   9.918  34.918   1.207
61011W        W32540  27.058  44.050   0.868
61012W        W32541  42.578  35.450  14.444
61013W        W32542  21.723  29.395   1.795
61014W        W32543  16.783   0.724   2.384
61015W        W32544  41.639   9.482   3.576
61016W        W32545  43.068  32.905  11.968
61017W        W32546  31.894  15.138  14.389
61018W        W32547  40.996   3.179   3.232
61019W        W32548  39.763  16.678  12.870
61020W        W32549  31.319  12.019  12.884
61021W        W32550  15.691   4.644  11.614
61022W        W32551  30.647  13.801  14.965
61023W        W32552  30.378  38.733   2.265
61024W        W32553  15.116   8.676  14.786
61025W        W32554   8.201  38.486   0.494
61026W        W32555  29.667  38.913  12.924
61027W        W32556  19.260  33.818  14.716
61028W        W32557  34.027   0.479  14.335
61029W        W32558  31.578  26.661   4.470
61030W        W32559   7.512  23.155  10.446
61031W        W32560  14.994   6.708  14.322
61032W        W32561   6.711  42.088  11.032
61033W        W32562  21.654  27.540  11.934
61034W        W32563   3.242  23.496  14.987
61035W        W32564  20.520  36.657  12.480
61036W        W32565  15.894  32.629   2.387
61037W        W32566  10.602   7.606  14.857
61038W        W32567  19.175   9.968   2.257
61039W        W32568   3.431  24.424   1.582
61040W        W32569   1.339  40.021  12.404
61041W        W32570  36.450  26.975  10.674
61042W        W32571  30.220   0.814   0.272
61043W        W32572  20.365  23.177  12.386
61044W        W32573  27.222   1.844  13.526
61045W        W32574  43.242  13.658   0.988
61046W        W32575  23.630   9.938  13.497
61047W        W32576  39.244  13.205   2.184
61048W        W32577   1.957  34.992   3.673
61049W        W32578  13.291  14.305   4.125
61050W        W32579  16.681  42.283  14.434
61051W        W32580  24.735   4.255   1.317
61052W        W32581  33.980  12.637   3.783
61053W        W32582   7.239  32.933  11.697
61054W        W32583  11.473  32.684  12.877
61055W        W32584  23.553  12.134   4.673
61056W        W32585  31.380   6.450   0.986
61057W        W32586   0.225  17.836   2.793
61058W        W32587  38.534  41.003   0.798
61059W        W32588   3.905  31.082  13.453
61060W        W32589  26.152  10.070  11.547
61061W        W32590   8.713  22.045   0.113
61062W        W32591  41.046  29.201   4.406
61063W        W32592   9.845  13.371   3.793
61064W        W32593  22.566  12.809   0.983
61065W        W32594   1.443  40.833  12.980
61066W        W32595   2.869   9.713  12.860
61067W        W32596   5.881  30.370   1.760
61068W        W32597   3.282  25.234   1.907
61069W        W32598   3.018   8.987  13.568
61070W        W32599  21.152  20.125   2.071
61071W        W32600   8.676  33.334   3.820
61072W        W32601   1.140  32.017   2.195
61073W        W32602  11.246  23.590   4.569
61074W        W32603   9.841  11.952   3.645
61075W        W32604  33.519  15.298   3.762
61076W        W32605  20.285  12.926   0.270
61077W        W32606  26.149  28.756  12.382
61078W        W32607  38.815  32.443  12.294
61079W        W32608  24.747   0.216  14.070
61080W        W32609   1.362  13.633  14.997
61081W        W32610  25.130  23.722   2.391
61082W        W32611  26.512  14.621   4.552
61083W        W32612  40.897  44.671  14.046
61084W        W32613   9.270  20.309   4.675
61085W        W32614  20.508  11.789   4.201
61086W        W32615  10.786  30.591  13.034
61087W        W32616  24.429  39.785   3.732
61088W        W32617  18.486  36.995  14.033
61089W        W32618  30.869  13.306  13.452
61090W        W32619  35.017  24.953  14.624
61091W        W32620   6.826  27.507  11.606
61092W        W32621  22.516  42.467   1.340
61093W        W32622  40.915  22.282  12.028
61094W        W32623  31.579  15.827   1.759
61095W        W32624  42.444  44.511  13.361
61096W        W32625   6.675   9.156   4.810
61097W        W32626  21.320  15.519   3.720
61098W        W32627  42.556   2.968   4.143
61099W        W32628   2.342   1.844  13.829
61100W        W32629  34.734   5.933   0.242
61101W        W32630   6.868   6.241  10.609
61102W        W32631   3.886  24.696   3.280
61103W        W32632  13.285   6.611   2.677
61104W        W32633  21.014  10.029   2.324
61105W        W32634  12.159  18.271   3.458
61106W        W32635   8.383  25.878  13.464
61107W        W32636  37.938  41.833   1.691
61108W        W32637  32.880  17.861   3.686
61109W        W32638  34.349   5.060  10.788
61110W        W32639  26.622  38.384   0.302
61111W        W32640  44.749  31.294   2.781
61112W        W32641  26.927  38.986   2.734
61113W        W32642  36.370  30.894   3.654
61114W        W32643  30.661  40.890   4.839
61115W        W32644  40.917   5.739  12.497
61116W        W32645  12.622  36.924   0.936
61117W        W32646  32.198   3.328  11.395
61118W        W32647   3.261  22.148   4.660
61119W        W32648   1.683  43.095   3.250
61120W        W32649  41.512  32.537  11.645
61121W        W32650  30.860  11.779  10.757
61122W        W32651  35.365  10.278   2.932
61123W        W32652  11.235  33.656   2.265
61124W        W32653   6.363  42.549   4.142
61125W        W32654  44.786  38.866   4.133
61126W        W32655  37.543  27.546   2.595
61127W        W32656   4.773  31.098  13.910
61128W        W32657  12.259  12.103  13.404
61129W        W32658   1.948  30.109   2.647
61130W        W32659  43.537  33.509  14.468
61131W        W32660  41.877   7.695  14.812
61132W        W32661   7.379  11.782   1.455
61133W        W32662  10.427  17.164   3.175
61134W        W32663  17.695  25.536  11.926
61135W        W32664  15.257   9.600  13.978
61136W        W32665  31.011  10.370  13.519
61137W        W32666  24.928  42.359   2.208
61138W        W32667   5.534  26.377   3.634
61139W        W32668  38.013  39.775  10.757
61140W        W32669  36.978  30.115  13.888
61141W        W32670  27.029  19.573   0.898
61142W        W32671  42.280  15.084   1.703
61143W        W32672  27.710  42.954   3.667
61144W        W32673  15.357  27.966  14.973
61145W        W32674  44.072   9.196   2.789
61146W        W32675   2.377   8.334   4.471
61147W        W32676   8.204  22.438  12.055
61148W        W32677  37.358  29.082  13.532
61149W        W32678   3.006  40.196   3.572
61150W        W32679   2.243   8.876   0.832
61151W        W32680  37.581   1.519   1.840
61152W        W32681  41.340  15.582   3.116
61153W        W32682  18.023  26.604  11.553
61154W        W32683  20.750  22.209   3.397
61155W        W32684  25.470   2.233   0.746
61156W        W32685  20.134   3.060   3.478
61157W        W32686   4.433  36.390  10.630
61158W        W32687  24.963  13.671  12.530
61159W        W32688   7.793  37.952   3.716
61160W        W32689  28.635   6.822   4.174
61161W        W32690  39.041   9.872  12.749
61162W        W32691   2.621  11.288   3.677
61163W        W32692  39.284  14.759   1.420
61164W        W32693   8.239  16.398  13.865
61165W        W32694  40.549  32.821   1.978
61166W        W32695  13.257  32.365  13.928
61167W        W32696   6.782  16.633  11.502
61168W        W32697   4.982   2.474   2.073
61169W        W32698  31.666   8.036  13.106
61170W        W32699  34.566  43.456   4.574
61171W        W32700  43.000   2.516   3.862
61172W        W32701  30.472  29.453  11.564
61173W        W32702  12.825   1.337  12.440
61174W        W32703  38.579  37.397  11.895
61175W        W32704  36.876   2.238  12.403
61176W        W32705  13.729  28.200   3.789
61177W        W32706  24.147  17.735  12.621
61178W        W32707  33.983  37.985  10.744
61179W        W32708  34.352   1.682   1.310
61180W        W32709  24.911   1.960   3.829
61181W        W32710   7.675  34.057  14.473
61182W        W32711  36.903  22.467   0.980
61183W        W32712  44.300  35.326   4.366
61184W        W32713  11.303  18.492  12.528
61185W        W32714  14.722  14.227   3.050
61186W        W32715  15.051   4.768   3.234
61187W        W32716  36.126  43.244  12.493
61188W        W32717  29.410  12.672   0.924
61189W        W32718  24.528  16.807  10.770
61190W        W32719   2.307  31.542   0.782
61191W        W32720  26.096  12.755   4.062
61192W        W32721  17.019  15.728   0.319
61193W        W32722  19.811  36.481  11.089
61194W        W32723   2.846  19.239   4.817
61195W        W32724  16.824  12.953   2.249
61196W        W32725  16.029  33.044  11.247
61197W        W32726  12.622  26.644   1.501
61198W        W32727  39.561  32.072  14.750
61199W        W32728  26.478  15.808   2.213
61200W        W32729  40.504  12.472   0.803
61201W        W32730   6.923  30.014   1.466
61202W        W32731  24.617  39.860  12.729
61203W        W32732  44.457  40.562   0.504
61204W        W32733   4.317   1.445   4.568
61205W        W32734  12.915  34.124   0.737
61206W        W32735  32.852   8.289  12.021
61207W        W32736  34.919  18.371  11.128
61208W        W32737  42.223   2.245   4.686
61209W        W32738  15.160  24.912   1.705
61210W        W32739  37.875   3.411  14.543
61211W        W32740  15.655  38.324  12.429
61212W        W32741  21.002  39.540  12.967
61213W        W32742  44.557  14.369   9.940
61214W        W32743  29.466  18.277  12.011
61215W        W32744  18.957  22.132  14.336
61216W        W32745  26.340  43.117   3.615
61217W        W32746  42.765  26.826   2.644
61218W        W32747  30.581  26.584   0.517
61219W        W32748  26.044   8.907   3.141
61220W        W32749  18.503  38.099  11.020
61221W        W32750  30.863  13.314   1.053
61222W        W32751   3.467  31.983   3.077
61223W        W32752  39.926   9.589   0.668
61224W        W32753  16.840  21.007  11.622
61225W        W32754  16.169   7.227  13.244
61226W        W32755  40.547   1.765   3.751
61227W        W32756  38.075  23.039   4.365
61228W        W32757  33.721  13.303  10.609
61229W        W32758  18.763  19.001  14.812
61230W        W32759  25.500  23.849   0.388
61231W        W32760  42.244  26.202   3.665
61232W        W32761  12.234  32.542   4.807
61233W        W32762  19.067   1.077  14.966
61234W        W32763  37.939  12.130  12.417
61235W        W32764   2.498  30.164  12.836
61236W        W32765  11.701  39.907   1.231
61237W        W32766  19.732  11.998  12.359
61238W        W32767  27.383   8.788  11.513
61239W        W32768   4.811   5.340  11.825
61240W        W32769   1.525  24.099  14.273
61241W        W32770   5.798  17.201  14.265
61242W        W32771   1.366  29.081  14.048
61243W        W32772  29.493   8.987   1.473
61244W        W32773  28.090  11.017   4.367
61245W        W32774  23.643  27.154   4.049
61246W        W32775   6.131   7.337   5.212
61247W        W32776   5.708  10.150  12.947
61248W        W32777  42.003  37.049   2.207
61249W        W32778  32.459  16.210   3.184
61250W        W32779  21.421   0.002  12.396
61251W        W32780  10.782   5.379   1.991
61252W        W32781   7.733   6.685  11.492
61253W        W32782   5.125  44.962  10.686
61254W        W32783  14.372   6.214  14.964
61255W        W32784   2.812  16.005   1.845
61256W        W32785   1.336  20.858   0.624
61257W        W32786  27.173   9.165  14.737
61258W        W32787  35.916  33.524   1.384
61259W        W32788  21.423  32.626  13.496
61260W        W32789  26.014  43.507  12.334
61261W        W32790  24.154  35.339  10.672
61262W        W32791  30.171   4.484  12.873
61263W        W32792  13.088  36.582   3.878
61264W        W32793  20.564  17.902   0.792
61265W        W32794  16.059  26.420   4.853
61266W        W32795  25.607   5.797   1.307
61267W        W32796  19.031  23.385   0.239
61268W        W32797  29.094  14.877   3.313
61269W        W32798  21.799  38.944  13.336
61270W        W32799  26.008  19.220  10.611
61271W        W32800  35.345  37.894   2.295
61272W        W32801  27.393  41.773  14.827
61273W        W32802  13.292  43.492  14.296
61274W        W32803  32.694  13.467  10.101
61275W        W32804  20.001  23.501  10.388
61276W        W32805  16.625  13.178  11.947
61277W        W32806  42.930  27.337  12.372
61278W        W32807  38.509  26.198   5.126
61279W        W32808   0.086  11.265   4.905
61280W        W32809  27.427   1.320  14.406
61281W        W32810  14.957   5.454  12.943
61282W        W32811  20.030  19.067  12.961
61283W        W32812  42.208   9.867   1.851
61284W        W32813   1.883  41.962   2.693
61285W        W32814  29.362  10.431   3.100
61286W        W32815  15.735  14.003  10.676
61287W        W32816  44.187  14.675  11.206
61288W        W32817   2.881  10.262  13.547
61289W        W32818  23.247  19.483   1.481
61290W        W32819  21.661  27.542  14.791
61291W        W32820  28.015   7.812   2.892
61292W        W32821   1.092   2.341   1.143
61293W        W32822   8.176  17.626  11.956
61294W        W32823  42.902  24.940   4.758
61295W        W32824   2.489  18.350  13.797
61296W        W32825  40.289   5.166  10.456
61297W        W32826   1.237  27.714  12.957
61298W        W32827  35.353   5.542  10.679
61299W        W32828  25.112  21.085   2.695
61300W        W32829  28.405  16.075   3.132
61301W        W32830  15.230  42.041  12.977
61302W        W32831  29.491  18.901   1.322
61303W        W32832  38.911   1.041   1.833
61304W        W32833   2.264  14.289  14.806
61305W        W32834  12.354  36.852   3.312
61306W        W32835  28.357  41.827   1.399
61307W        W32836  36.131  21.265   0.101
61308W        W32837  33.383   9.012  12.028
61309W        W32838  17.206  20.877  13.557
61310W        W32839  37.497   4.478  13.797
61311W        W32840   5.745  22.980   0.263
61312W        W32841  40.418  44.981   0.305
61313W        W32842   9.453  18.207   1.247
61314W        W32843   8.208   7.102   0.564
61315W        W32844  36.738  29.495   1.321
61316W        W32845  41.936   2.205  13.074
61317W        W32846  40.100  22.755  10.979
61318W        W32847  26.197  34.556  14.121
61319W        W32848  30.483  31.905  10.725
61320W        W32849  10.116   4.490   2.167
61321W        W32850   6.217  26.027   0.378
61322W        W32851  36.467  41.041   2.402
61323W        W32852  14.582   6.373  14.526
61324W        W32853  27.862   6.765  12.950
61325W        W32854  40.229  42.704  12.999
61326W        W32855   4.233  21.982   4.388
61327W        W32856  39.548  38.759  14.156
61328W        W32857  23.599  13.586   1.587
61329W        W32858  42.715  32.458  14.013
61330W        W32859  26.688   9.681  13.273
61331W        W32860   9.635  42.195   1.827
61332W        W32861  42.384  14.685  11.886
61333W        W32862  30.239  38.281   1.368
61334W        W32863  32.061   2.451  11.899
61335W        W32864  22.275  29.943  11.539
61336W        W32865  14.595   6.290   2.453
61337W        W32866   1.461   5.313   1.772
61338W        W32867   7.376   1.728  10.404
61339W        W32868  37.433  32.621   3.094
61340W        W32869  43.840  12.612   1.775
61341W        W32870  43.542  21.675   2.949
61342W        W32871  40.540  44.796  13.690
61343W        W32872  37.357  11.700   4.100
61344W        W32873  34.022  13.179   2.276
61345W        W32874  26.459  18.503  13.926
61346W        W32875  17.617  20.375  14.959
61347W        W32876   5.476  34.517  14.316
61348W        W32877   2.436   7.879   0.036
61349W        W32878  21.279  39.521  14.872
61350W        W32879  30.978  28.198   1.009
61351W        W32880  36.018  26.527  13.840
61352W        W32881  28.497  28.289   3.815
61353W        W32882   7.474  33.615  12.796
61354W        W32883   7.181  12.242   2.765
61355W        W32884  34.464   2.205   1.323
61356W        W32885  24.462  31.469   2.799
61357W        W32886  24.217  14.052  11.830
61358W        W32887  18.078  22.542   1.757
61359W        W32888  11.314  43.303  12.292
61360W        W32889   8.103  19.636  13.541
61361W        W32890  12.242  40.555  14.846
61362W        W32891   6.881  10.838  14.938
61363W        W32892  29.475   9.848   2.056
61364W        W32893  19.003  27.026   3.679
61365W        W32894  30.023  21.244  14.799
61366W        W32895  39.518  28.717  13.465
61367W        W32896  10.202  41.345   1.871
61368W        W32897   0.393  11.390  12.012
61369W        W32898  39.993  13.046   2.663
61370W        W32899  26.088  23.528   3.089
61371W        W32900  22.672  32.975   0.535
61372W        W32901  15.707  12.101   2.886
61373W        W32902  38.440  43.515   0.017
61374W        W32903  22.097  37.363   0.990
61375W        W32904   6.812  24.100  12.646
61376W        W32905  32.182  10.174   3.733
61377W        W32906   1.922  15.534   0.988
61378W        W32907   5.978  36.472   3.681
61379W        W32908  14.104   4.550   5.186
61380W        W32909  10.241  32.571   2.665
61381W        W32910  23.759   0.223   2.207
61382W        W32911  11.946   7.065   2.128
61383W        W32912  23.762  43.947   2.597
61384W        W32913   2.955   4.289   1.636
61385W        W32914  19.581  43.043  10.648
61386W        W32915  30.063  42.943  13.467
61387W        W32916  26.906  22.528   0.948
61388W        W32917  19.846  14.626  13.442
61389W        W32918   7.836  31.340  14.709
61390W        W32919  36.423  23.650  11.594
61391W        W32920  33.026  43.564   0.964
61392W        W32921  28.734   6.703  10.951
61393W        W32922  37.758   4.437   2.391
61394W        W32923  21.033  16.535  14.628
61395W        W32924  40.127  42.015   0.010
61396W        W32925  41.735  32.444  12.396
61397W        W32926   1.215  28.409  13.646
61398W        W32927  43.529  29.451  10.377
61399W        W32928  18.147  15.829   3.122
61400W        W32929  21.643  36.065  12.852
61401W        W32930  33.894  41.537   3.075
61402W        W32931  35.320  32.611  13.782
61403W        W32932  37.571  22.011  10.057
61404W        W32933  29.686   4.544  14.497
61405W        W32934  44.778  44.526  12.865
61406W        W32935   6.773  16.775   3.822
61407W        W32936  20.047  44.878   2.800
61408W        W32937  17.782   2.298   1.188
61409W        W32938  39.521  16.480  14.385
61410W        W32939  25.599   9.095   3.371
61411W        W32940  29.172  12.647  13.483
61412W        W32941  35.361  40.605  11.128
61413W        W32942  15.217  22.443   1.751
61414W        W32943  20.290  28.192   2.165
61415W        W32944  30.461  25.464   3.074
61416W        W32945  20.728   1.903  12.511
61417W        W32946   8.668  38.268  14.435
61418W        W32947  36.297  25.681  13.954
61419W        W32948  32.009  34.033   4.401
61420W        W32949   9.725   3.233  14.229
61421W        W32950  39.913  35.570   4.193
61422W        W32951  20.182  31.127   2.491
61423W        W32952  26.057  14.800   0.819
61424W        W32953   0.489   5.735  12.094
61425W        W32954  36.326   2.722  10.624
61426W        W32955  44.902   5.131   4.255
61427W        W32956   1.411  34.248   3.728
61428W        W32957  27.600  29.049   3.104
61429W        W32958  15.158  42.583   1.374
61430W        W32959  32.999   6.666   1.297
61431W        W32960  26.544   0.091   4.155
61432W        W32961  28.117   5.651  14.373
61433W        W32962   4.196  28.678  13.020
61434W        W32963  35.982  23.460  13.498
61435W        W32964  27.538  39.420  13.025
61436W        W32965  21.655   3.392   4.082
61437W        W32966   0.432  24.232  11.155
61438W        W32967  14.508  41.850   0.759
61439W        W32968  42.299  29.760   0.325
61440W        W32969   2.263  23.697  12.097
61441W        W32970  13.320  30.973   3.822
61442W        W32971   5.243  40.010   2.611
61443W        W32972  43.576  29.654   1.943
61444W        W32973  22.207  23.497  13.445
61445W        W32974   2.205  37.090   3.475
61446W        W32975  36.930  32.738   0.930
61447W        W32976  26.155  11.289   3.749
61448W        W32977   5.046  25.073   1.312
61449W        W32978  36.387  17.648   3.229
61450W        W32979   5.853  19.250   3.192
61451W        W32980  39.968   7.859   3.092
61452W        W32981   9.576   8.841  10.726
61453W        W32982  10.540  27.983  10.069
61454W        W32983  30.390  44.116   3.456
61455W        W32984   6.788   2.864   0.712
61456W        W32985   4.929  41.198   4.116
61457W        W32986  33.709   7.811  11.150
61458W        W32987   9.074  37.554   2.813
61459W        W32988  23.016  38.991   4.032
61460W        W32989  36.228  17.507  11.158
61461W        W32990  13.680  30.170   0.618
61462W        W32991   9.166  30.645   4.152
61463W        W32992  20.583   0.272   4.962
61464W        W32993   1.778  43.355   0.904
61465W        W32994   8.775   9.712   3.347
61466W        W32995   7.671   2.256  14.455
61467W        W32996   0.881  39.749  11.901
61468W        W32997   4.458   1.911   1.930
61469W        W32998  28.956   7.278   3.634
61470W        W32999  40.032  29.206  12.356
61471W        W33000   7.224   4.702   2.894
61472W        W33001  26.018  24.908  14.871
61473W        W33002  14.236   5.971   2.702
61474W        W33003  27.932  11.160  10.554
61475W        W33004  21.023   4.752  10.240
61476W        W33005   2.341  13.314   0.923
61477W        W33006  30.482  23.192   4.163
61478W        W33007   3.406  19.912   4.976
61479W        W33008  18.259  29.420  14.381
61480W        W33009   1.567  39.544  11.562
61481W        W33010   6.001  15.216  13.414
61482W        W33011   0.418  22.587   4.537
61483W        W33012  30.847  35.555   4.139
61484W        W33013  29.616  40.050  14.227
61485W        W33014  41.053  13.326  11.038
61486W        W33015  26.103  10.917  12.597
61487W        W33016  34.913  10.012   1.808
61488W        W33017  43.949  10.211  14.873
61489W        W33018  43.852  11.252   2.211
61490W        W33019  19.307  12.023  11.954
61491W        W33020  42.595  21.694  13.435
61492W        W33021  15.218  41.904   0.191
61493W        W33022  31.747  28.444  12.087
61494W        W33023  41.081   5.893  10.715
61495W        W33024  38.353  21.552   0.294
61496W        W33025  32.387  13.029   4.383
61497W        W33026  43.492  17.172   0.303
61498W        W33027  18.123  21.008   1.960
61499W        W33028  31.313  18.529  13.561
61500W        W33029  24.144  15.605   2.636
61501W        W33030  14.859   2.495  12.986
61502W        W33031  11.145  26.170  14.375
61503W        W33032  14.212  18.564  12.373
61504W        W33033  37.872  29.671   5.114
61505W        W33034  24.538  41.844   2.741
61506W        W33035   4.675  27.738  14.016
61507W        W33036  39.926  28.966   4.191
61508W        W33037  26.940   8.372   5.227
61509W        W33038  13.599  12.328  14.682
61510W        W33039  38.068  26.610   3.623
61511W        W33040  41.986  26.510  14.767
61512W        W33041  27.009  18.076  12.787
61513W        W33042   8.695  24.404  14.542
61514W        W33043  20.701  17.999  13.123
61515W        W33044  11.367   2.302  12.449
61516W        W33045   5.822  27.630  10.645
61517W        W33046   1.492  11.104  10.381
61518W        W33047  19.636  27.877  11.676
61519W        W33048  33.037  35.828   2.508
61520W        W33049  15.838  37.474  11.543
61521W        W33050  38.501  11.752  11.921
61522W        W33051  41.772  12.583   4.376
61523W        W33052  14.796  13.824   0.429
61524W        W33053  35.875  43.077   0.455
61525W        W33054  31.833  32.306  14.334
61526W        W33055  21.334  15.861   3.301
61527W        W33056  35.017  34.460  13.746
61528W        W33057  43.238  40.337   0.893
61529W        W33058  39.627   3.027  12.870
61530W        W33059  10.698  24.237  14.089
61531W        W33060  21.750   4.265   0.825
61532W        W33061  13.035  20.197  14.946
61533W        W33062   5.499   7.704  14.372
61534W        W33063   6.511  11.852  12.571
61535W        W33064   3.334  34.497  11.597
61536W        W33065  22.519   9.159   1.216
61537W        W33066  37.258  19.922   4.189
61538W        W33067  19.774  27.280  13.103
61539W        W33068  36.175  28.221  12.553
61540W        W33069  25.683  42.252   2.409
61541W        W33070   6.460  36.601  11.519
61542W        W33071   9.717   3.348  11.357
61543W        W33072  14.968   6.897   4.077
61544W        W33073  31.967  39.084   4.019
61545W        W33074  20.296  15.256  10.763
61546W        W33075  39.523  38.039  12.110
61547W        W33076  23.055  39.519   1.650
61548W        W33077  33.067  40.109  12.469
61549W        W33078  26.562  31.153   0.443
61550W        W33079  29.918  27.243  13.926
61551W        W33080   0.105  26.580  14.738
61552W        W33081  23.501   8.512  13.774
61553W        W33082  17.069  41.355  14.418
61554W        W33083  41.828   3.412  11.730
61555W        W33084  37.271  13.967   2.256
61556W        W33085  37.533  30.373   0.967
61557W        W33086  42.407  39.226  11.125
61558W        W33087  36.605  14.132  13.053
61559W        W33088  17.563  31.173   4.179
61560W        W33089   3.897  24.756  13.898
61561W        W33090  12.892  41.264  13.477
61562W        W33091   5.661   8.446  13.859
61563W        W33092  44.480  10.799  13.779
61564W        W33093   4.458  44.924   4.793
61565W        W33094  37.484  12.680   3.898
61566W        W33095  10.732  12.228   3.255
61567W        W33096  13.602  17.603   3.444
61568W        W33097   8.837   0.526   0.429
61569W        W33098  44.663  29.316   2.367
61570W        W33099  18.019   6.631   1.994
61571W        W33100  44.493  44.885   4.363
61572W        W33101  10.643  13.091  11.986
61573W        W33102   6.616  22.178  13.597
61574W        W33103  32.684  13.452   1.654
61575W        W33104  13.888  40.593   4.402
61576W        W33105   4.707  24.261   3.684
61577W        W33106  41.083  19.022  11.124
61578W        W33107  30.143  41.486  13.444
61579W        W33108  22.965   9.596   3.940
61580W        W33109  28.535  15.498  11.902
61581W        W33110  28.528  26.658   0.480
61582W        W33111  32.549  17.292   0.523
61583W        W33112   5.953  24.448   3.700
61584W        W33113  11.035   5.866  10.304
61585W        W33114  37.927  10.655   4.852
61586W        W33115  41.368   1.298   0.720
61587W        W33116   3.365  37.124  12.980
61588W        W33117  19.002  44.971  12.646
61589W        W33118  16.201  42.931  14.241
61590W        W33119  39.829   7.433   2.164
61591W        W33120  29.503  22.499  13.434
61592W        W33121  10.584  12.707  10.756
61593W        W33122  26.595  36.061   4.560
61594W        W33123   2.156  43.001   2.237
61595W        W33124   8.893  23.209  11.139
61596W        W33125  14.043  30.180  13.914
61597W        W33126  31.142  12.188  10.618
61598W        W33127  25.537  42.072   4.601
61599W        W33128   4.894  44.579   3.839
61600W        W33129  34.825  35.401   4.435
61601W        W33130  24.230  11.879   1.988
61602W        W33131   1.274  33.724  11.172
61603W        W33132  16.387  43.620  11.062
61604W        W33133  42.860  22.566  14.828
61605W        W33134  22.307   3.181  14.789
61606W        W33135  30.538  44.910  11.452
61607W        W33136  30.926  44.295  12.259
61608W        W33137  12.771  25.179  11.480
61609W        W33138   2.982   9.107   2.272
61610W        W33139  38.529   1.270  12.878
61611W        W33140  44.604  34.095  11.668
61612W        W33141  14.123  10.434  11.903
61613W        W33142  30.868  33.575  11.881
61614W        W33143  40.058  42.517  14.904
61615W        W33144   2.695   5.769  14.537
61616W        W33145  39.373   4.427  11.100
61617W        W33146   4.650  20.679   4.684
61618W        W33147  36.456  18.300  14.038
61619W        W33148   6.314   1.349  13.309
61620W        W33149  26.386  27.883   4.198
61621W        W33150  37.651   9.427   0.903
61622W        W33151  11.690  27.043  13.541
61623W        W33152  24.094  42.844  10.636
61624W        W33153   9.387  36.327  10.733
61625W        W33154  21.605  33.722  12.497
61626W        W33155  41.817   1.436  14.376
61627W        W33156  30.428  39.793  13.474
61628W        W33157  43.123  44.121   2.173
61629W        W33158   9.933  35.583  12.623
61630W        W33159  41.353  14.181  11.618
61631W        W33160   7.745  29.423  12.004
61632W        W33161  16.517  19.951   1.818
61633W        W33162  25.158   0.337   0.480
61634W        W33163   1.776  14.530  11.561
61635W        W33164  44.075   6.182   4.596
61636W        W33165  15.536   0.909   2.801
61637W        W33166  13.685  20.271   4.095
61638W        W33167  15.149  14.516  12.653
61639W        W33168  11.184  12.311   0.355
61640W        W33169  19.804  33.157  13.383
61641W        W33170   6.020  15.271   2.536
61642W        W33171  30.475  39.240   2.192
61643W        W33172   5.467   5.395  14.146
61644W        W33173  14.601  13.714   2.242
61645W        W33174  38.311  38.400   0.747
61646W        W33175  44.225  14.865   0.752
61647W        W33176  17.271   0.389  13.919
61648W        W33177  39.481  28.462  14.776
61649W        W33178  41.731  27.680   2.849
61650W        W33179  40.392  32.551  14.723
61651W        W33180  10.305  21.670   1.584
61652W        W33181   0.606  29.820   4.055
61653W        W33182   0.846  38.953   4.522
61654W        W33183  44.830  18.362  10.981
61655W        W33184  29.138  15.265   2.079
61656W        W33185  18.758   2.204   2.210
61657W        W33186  35.137  12.642   1.221
61658W        W33187  17.525  15.601   1.834
61659W        W33188  40.432  16.629   3.914
61660W        W33189  34.570  30.524  11.091
61661W        W33190   8.898  19.261   1.726
61662W        W33191  40.795  23.508   0.149
61663W        W33192  32.800  17.712  12.118
61664W        W33193  19.047  42.380   0.223
61665W        W33194  25.594   7.191   1.693
61666W        W33195   4.890  38.123  14.804
61667W        W33196  15.043   4.217  13.537
61668W        W33197  13.076  39.387   2.284
61669W        W33198  43.923  33.031   2.910
61670W        W33199  19.562  39.179   3.366
61671W        W33200  12.719  19.608   1.757
61672W        W33201  25.221  30.854   1.925
61673W        W33202  43.386  22.701  13.337
61674W        W33203  40.284  20.352   0.905
61675W        W33204  44.267  28.802  14.458
61676W        W33205  15.649   7.942  11.930
61677W        W33206  23.679  25.306   4.318
61678W        W33207   2.514  11.752   4.708
61679W        W33208   0.881  27.313  10.639
61680W        W33209  35.799  36.521  13.093
61681W        W33210   3.727  14.378   3.987
61682W        W33211  25.851   8.058  11.659
61683W        W33212  21.080  38.547  13.001
61684W        W33213  13.804  42.667  13.051
61685W        W33214  14.860  21.733   1.390
61686W        W33215   3.835  42.822  14.981
61687W        W33216   7.292  10.234   3.379
61688W        W33217  14.864  12.436  12.001
61689W        W33218  44.783  43.856  13.419
61690W        W33219  33.022  12.799  12.566
61691W        W33220  12.015   5.153  11.493
61692W        W33221  30.997   2.446   1.496
61693W        W33222  38.429  17.232   0.860
61694W        W33223  16.384  14.328   3.259
61695W        W33224  10.702  24.431   2.735
61696W        W33225  20.936  16.163   4.523
61697W        W33226   7.925  41.605   0.675
61698W        W33227  11.146  13.844  13.953
61699W        W33228  43.436  32.691  14.779
61700W        W33229  22.118  33.568   2.200
61701W        W33230  17.788  15.716  10.514
61702W        W33231   2.681  16.735  10.846
61703W        W33232  28.647  44.961   3.081
61704W        W33233   8.072  28.701   1.464
61705W        W33234  13.912   9.786  11.193
61706W        W33235  17.400   9.395   3.631
61707W        W33236   5.680  23.215  11.661
61708W        W33237  26.990  26.935  14.651
61709W        W33238  43.307  16.777  12.070
61710W        W33239   4.364  44.404   2.244
61711W        W33240  39.751  41.355   4.064
61712W        W33241  31.837  12.180  13.500
61713W        W33242  42.437  36.273  14.070
61714W        W33243  38.539  22.541   1.228
61715W        W33244  44.402  20.202   2.003
61716W        W33245  15.399  14.681  13.548
61717W        W33246  21.496  37.487   5.320
61718W        W33247  30.885  25.581  13.359
61719W        W33248  40.324  24.908   1.018
61720W        W33249  18.785  33.871  14.901
61721W        W33250  10.853  30.011  10.738
61722W        W33251   6.374   1.842  13.827
61723W        W33252  39.859  19.688  11.188
61724W        W33253  40.305  31.472  11.114
61725W        W33254   8.405   8.842  14.849
61726W        W33255  31.472   2.414   1.797
61727W        W33256   8.804  31.408  11.136
61728W        W33257   3.923  29.683  14.030
61729W        W33258   2.077  15.774   4.084
61730W        W33259  28.981  15.705   1.825
61731W        W33260   4.012  44.824   4.490
61732W        W33261  41.815  11.390  14.599
61733W        W33262   6.857   6.224   4.468
61734W        W33263  22.154  40.815  12.326
61735W        W33264   3.118  31.653   1.202
61736W        W33265   7.816  31.488   1.245
61737W        W33266  40.917   0.017   0.579
61738W        W33267  21.716   1.718   4.758
61739W        W33268  38.654   1.792   4.702
61740W        W33269  16.130  41.455   2.688
61741W        W33270  38.067  25.234   3.055
61742W        W33271   4.595  34.588  12.121
61743W        W33272  19.498  23.999  11.147
61744W        W33273  27.076  26.265   2.223
61745W        W33274  11.412   6.285   3.631
61746W        W33275  21.129  33.692  10.785
61747W        W33276  34.528  29.668   0.879
61748W        W33277  39.517  15.705   2.962
61749W        W33278  43.360  14.795   0.411
61750W        W33279   7.328  30.720  14.552
61751W        W33280  18.143  41.897  14.920
61752W        W33281  10.472  38.973   0.437
61753W        W33282  16.197  29.146   0.272
61754W        W33283  24.658  14.281   0.912
61755W        W33284   5.134  19.503  11.294
61756W        W33285  29.399  20.722   4.613
61757W        W33286  39.798   8.881   2.751
61758W        W33287  37.374  26.077  14.873
61759W        W33288  11.387  22.165   2.314
61760W        W33289  30.402   4.268   0.963
61761W        W33290   5.976   8.170   1.440
61762W        W33291  37.557  28.317  13.947
61763W        W33292  32.447  41.498   2.809
61764W        W33293  36.458  23.438   0.325
61765W        W33294  27.029   5.006  14.033
61766W        W33295  37.458  27.149   4.633
61767W        W33296  42.417  14.987   0.122
61768W        W33297  44.976   4.442   2.908
61769W        W33298  13.414  39.811   4.690
61770W        W33299   5.429  38.119  12.538
61771W        W33300   4.888  21.526   1.664
61772W        W33301  34.519   8.128  13.101
61773W        W33302  30.033  43.777   2.306
61774W        W33303  27.173  11.439  10.465
61775W        W33304  32.077   9.128  13.628
61776W        W33305  25.783   5.990  11.236
61777W        W33306  43.509   0.216   4.569
61778W        W33307  20.197  42.769  13.963
61779W        W33308  14.422  16.172  14.327
61780W        W33309  11.286  23.453  10.341
61781W        W33310  10.844  11.993  14.202
61782W        W33311  17.665   5.159   4.711
61783W        W33312   9.481   0.671  13.220
61784W        W33313  36.807  21.558   3.640
61785W        W33314  10.828  29.699  11.128
61786W        W33315  15.738  27.249  14.299
61787W        W33316  34.439   3.179  11.062
61788W        W33317  24.102  28.974   0.194
61789W        W33318  20.492  43.301   1.311
61790W        W33319  19.065   1.572   3.219
61791W        W33320  11.955   8.857  11.303
61792W        W33321   4.397   7.919  10.766
61793W        W33322   2.201  44.984   2.248
61794W        W33323  41.211  34.638  11.013
61795W        W33324  10.310  39.287   1.797
61796W        W33325  20.761   9.056  14.798
61797W        W33326   4.277  44.837  11.849
61798W        W33327  35.480  36.579   1.751
61799W        W33328  11.645  37.891   1.333
61800W        W33329  35.838  24.328  10.649
61801W        W33330   2.379  11.284   4.168
61802W        W33331  24.566  35.134   1.868
61803W        W33332  31.849  40.519   0.917
61804W        W33333  42.838  21.071   0.407
61805W        W33334   2.768   5.718   4.404
61806W        W33335   3.765  39.976   1.796
61807W        W33336   2.263  17.556  14.018
61808W        W33337  22.609  19.914  11.135
61809W        W33338  35.619  32.638  14.782
61810W        W33339   4.854   6.466   0.359
61811W        W33340  27.462   0.897   2.611
61812W        W33341  22.924   0.298   2.168
61813W        W33342   5.944  32.658  12.045
61814W        W33343  42.211   6.170  13.869
61815W        W33344  27.002  24.854   2.155
61816W        W33345   2.174  23.022  14.804
61817W        W33346  42.426  35.825   0.791
61818W        W33347  37.797  21.726  11.541
61819W        W33348  40.743  11.807   2.406
61820W        W33349  17.241  33.692   4.512
61821W        W33350  17.150  27.974   1.698
61822W        W33351  30.800   3.273  12.506
61823W        W33352   2.967  25.385  14.314
61824W        W33353  42.476  25.977  13.736
61825W        W33354   3.373  37.869   3.732
61826W        W33355  11.692  25.855   1.643
61827W        W33356  15.458   3.177  14.965
61828W        W33357  25.648  40.505   0.427
61829W        W33358  37.070  13.261   0.871
61830W        W33359  37.845   8.454   4.211
61831W        W33360   0.952  30.021   3.265
61832W        W33361  11.302   8.068   3.683
61833W        W33362   3.946  18.321   2.644
61834W        W33363   3.465   7.961  10.718
61835W        W33364  42.924  23.765  14.193
61836W        W33365  12.199  40.683   3.776
61837W        W33366  40.480  11.503   3.689
61838W        W33367  39.201  25.487  10.331
61839W        W33368  10.900  17.124   0.781
61840W        W33369  35.964  42.194  13.395
61841W        W33370  43.110  20.268   1.367
61842W        W33371  30.696  27.861   2.770
61843W        W33372  30.110   4.027  11.806
61844W        W33373  39.964  19.410   2.137
61845W        W33374  15.016   5.553  10.615
61846W        W33375  16.576  32.100   2.163
61847W        W33376   5.804  35.509   0.387
61848W        W33377   4.409  13.126  10.679
61849W        W33378   1.926  16.191   1.125
61850W        W33379  22.713  39.266  10.936
61851W        W33380   3.490  29.462  12.159
61852W        W33381  25.014  10.438  10.774
61853W        W33382  26.218  11.888  11.114
61854W        W33383   9.823  28.327   2.611
61855W        W33384  16.818  26.709   4.076
61856W        W33385  22.589  15.759   4.158
61857W        W33386  15.775  30.601  12.675
61858W        W33387  21.782  15.262   2.805
61859W        W33388  28.458   8.736   3.629
61860W        W33389   2.704  37.007  11.703
61861W        W33390  42.894   5.844  10.932
61862W        W33391   9.681  42.811  10.600
61863W        W33392  27.476  36.879  11.884
61864W        W33393  42.241   3.246  11.459
61865W        W33394   9.182  42.481  12.851
61866W        W33395  20.928  16.990   1.673
61867W        W33396  35.026  11.080   2.748
61868W        W33397  23.936  32.451  11.706
61869W        W33398   6.824  21.360  14.097
61870W        W33399  16.825  21.770   3.936
61871W        W33400  31.573  36.441  12.811
61872W        W33401  32.402  15.074  14.395
61873W        W33402  22.820  27.553   1.147
61874W        W33403  20.322   7.306   1.793
61875W        W33404   9.272  26.162  14.827
61876W        W33405  42.984  36.785   2.325
61877W        W33406  27.658  37.655  13.524
61878W        W33407  40.567  44.306   3.559
61879W        W33408  10.875  17.934   3.764
61880W        W33409   6.846   0.335  11.484
61881W        W33410  11.663  12.788  11.793
61882W        W33411  42.012  19.267  14.600
61883W        W33412  42.803  26.933  14.784
61884W        W33413  35.650   8.291   3.908
61885W        W33414   0.367  32.248   0.035
61886W        W33415  32.270  30.902   1.970
61887W        W33416   6.695  30.533   2.691
61888W        W33417  12.841  26.541   3.348
61889W        W33418   7.892  19.199   4.515
61890W        W33419  41.764   6.256  14.110
61891W        W33420  42.959  34.886  11.189
61892W        W33421  28.019  43.291   4.107
61893W        W33422  18.733   8.851  13.129
61894W        W33423  36.260  15.212  13.485
61895W        W33424  41.843  17.260  11.591
61896W        W33425  24.197  36.036  11.898
61897W        W33426   0.508  26.908  13.797
61898W        W33427   3.261  34.892  13.528
61899W        W33428  40.954  39.781   3.962
61900W        W33429  25.645  26.488   4.592
61901W        W33430   3.057  13.229   2.582
61902W        W33431  22.019  33.496  12.717
61903W        W33432  32.097  19.436   2.343
61904W        W33433  30.475  41.434  12.647
61905W        W33434  28.947  23.124  11.948
61906W        W33435  14.251   4.210  13.919
61907W        W33436  40.412  36.166  11.150
61908W        W33437  29.988  22.644  13.579
61909W        W33438   0.489  25.140   1.349
61910W        W33439  43.443  22.187  13.499
61911W        W33440   3.609   1.733  12.850
61912W        W33441  27.949   5.462  14.923
61913W        W33442   3.788  33.428   1.521
61914W        W33443   7.631   3.464  12.919
61915W        W33444  30.913  15.672   2.083
61916W        W33445   5.434  39.305   1.745
61917W        W33446  38.362  20.046   1.464
61918W        W33447   7.565  25.590   2.843
61919W        W33448  21.123  35.563   1.120
61920W        W33449  41.597  42.838   3.347
61921W        W33450   2.774   3.696  14.764
61922W        W33451   4.758  10.109   0.392
61923W        W33452  19.972  25.051  10.477
61924W        W33453   2.471  14.358   2.754
61925W        W33454  17.258   1.964  14.551
61926W        W33455   3.679  20.301  12.894
61927W        W33456  27.963   4.279  10.940
61928W        W33457  40.258   0.586  11.146
61929W        W33458  17.008   0.205   2.242
61930W        W33459   7.736  13.158  12.435
61931W        W33460  29.402  26.590   0.226
61932W        W33461  23.172  30.417   3.950
61933W        W33462  34.511   5.410  14.353
61934W        W33463  36.496  21.032   2.813
61935W        W33464   5.980   6.432   1.262
61936W        W33465  36.663  34.919  14.846
61937W        W33466  34.840  34.724  10.599
61938W        W33467  25.122  44.198   4.091
61939W        W33468  39.562  18.275  11.176
61940W        W33469  43.000  19.286   2.323
61941W        W33470   7.421   7.347  14.442
61942W        W33471   9.858  21.460  12.058
61943W        W33472  40.620   8.156  12.510
61944W        W33473   0.604  16.794   4.482
61945W        W33474  22.015  40.098   3.622
61946W        W33475  15.195  18.113  11.683
61947W        W33476   4.384  29.881   1.210
61948W        W33477  36.317   4.425  11.193
61949W        W33478  38.835   4.427  11.155
61950W        W33479  38.903   0.182  14.303
61951W        W33480  32.877  13.740   4.555
61952W        W33481  33.141  10.596   3.569
61953W        W33482  23.201  42.266  11.055
61954W        W33483  36.980  39.875  11.930
61955W        W33484  42.497  25.207   0.373
61956W        W33485  19.649  11.393  11.564
61957W        W33486  34.978  23.906   0.548
61958W        W33487  26.942  40.795   0.304
61959W        W33488  29.948  33.129   1.113
61960W        W33489  40.742   6.275   1.810
61961W        W33490  32.969  28.836  14.948
61962W        W33491   1.715  35.854  12.864
61963W        W33492   5.159  13.684   1.811
61964W        W33493  40.278  19.331   4.323
61965W        W33494   9.459  43.312   2.713
61966W        W33495  28.960  34.772  10.809
61967W        W33496  21.943  38.054   4.076
61968W        W33497  29.041  42.963   0.422
61969W        W33498  27.218  41.950   0.788
61970W        W33499  21.006  35.607   2.188
61971W        W33500  12.207  16.702   0.711
61972W        W33501  22.285  39.385  14.837
61973W        W33502  22.305  19.594   1.159
61974W        W33503  23.012  31.980  14.085
61975W        W33504  33.084  22.470  13.038
61976W        W33505  11.526  34.535  11.001
61977W        W33506  17.552   3.166   1.645
61978W        W33507  29.481  30.756   2.330
61979W        W33508  28.517  18.812  11.138
61980W        W33509  34.479  28.182   0.735
61981W        W33510  18.570  14.190  13.688
61982W        W33511  22.866  13.217  11.978
61983W        W33512  41.602  31.167   0.922
61984W        W33513  33.632  37.956   0.412
61985W        W33514  25.203  41.411  11.695
61986W        W33515  41.838   4.943  13.794
61987W        W33516  22.789  42.003   1.686
61988W        W33517  29.149  35.423   2.738
61989W        W33518  14.714  20.601  11.665
61990W        W33519  22.587  31.206   4.201
61991W        W33520  25.966  16.569   0.357
61992W        W33521  32.124   1.527   9.779
61993W        W33522  39.923   1.264   2.193
61994W        W33523  32.361  12.146  11.177
61995W        W33524  23.762   0.757  12.013
61996W        W33525  37.999   0.141   1.255
61997W        W33526  26.426  25.569   1.674
61998W        W33527   1.091  18.124  10.482
61999W        W33528  29.650   2.462   1.886
62000W        W33529  12.711  27.499  14.415
62001W        W33530  12.604   3.418   0.899
62002W        W33531  13.361  26.565  12.016
62003W        W33532  20.027   2.817  12.998
62004W        W33533  17.518   7.187   1.901
62005W        W33534  41.868  22.099   3.682
62006W        W33535  20.484  32.524  14.948
62007W        W33536  36.020  18.557   4.049
62008W        W33537  37.334  18.557   0.292
62009W        W33538  33.042  20.763  13.977
62010W        W33539  19.126  40.637  14.839
62011W        W33540  15.138  22.174   2.520
62012W        W33541  27.210  18.786   3.715
62013W        W33542  10.054  25.589  11.371
62014W        W33543  26.780  34.006  14.081
62015W        W33544  10.026   6.950  11.757
62016W        W33545   4.604  12.772   4.603
62017W        W33546  28.215   9.412   0.015
62018W        W33547  30.025  17.104   1.581
62019W        W33548  35.172  14.019   0.475
62020W        W33549  11.856  34.307  14.378
62021W        W33550  28.028  17.247   1.875
62022W        W33551   2.842  40.697   3.410
62023W        W33552   5.305  21.735  10.737
62024W        W33553  17.392  10.916   2.628
62025W        W33554  19.127  40.725   0.697
62026W        W33555  24.656  28.451  10.683
62027W        W33556  34.704   6.232  12.516
62028W        W33557  34.807  41.582   0.395
62029W        W33558  22.030  44.735  14.281
62030W        W33559  15.767  37.933  14.927
62031W        W33560  36.434  10.855  13.514
62032W        W33561  24.893   4.868   4.038
62033W        W33562  15.625  34.372  11.908
62034W        W33563  27.705  37.020   4.796
62035W        W33564   6.020  26.847   4.980
62036W        W33565   9.705   6.984  14.991
62037W        W33566   9.657   8.220   4.663
62038W        W33567  18.653  23.150   2.035
62039W        W33568  42.201  10.318   2.773
62040W        W33569   1.353  38.618   2.660
62041W        W33570  29.112  39.860  13.775
62042W        W33571  39.913  19.036   3.123
62043W        W33572  22.211  29.548   3.857
62044W        W33573  32.378   2.968  13.534
62045W        W33574  18.804  44.006  13.137
62046W        W33575  29.855   3.515  11.610
62047W        W33576  30.645  44.466  10.699
62048W        W33577  15.345  20.296  13.747
62049W        W33578  39.495  18.127   4.031
62050W        W33579  31.598  34.857  13.788
62051W        W33580  29.663   5.538  11.890
62052W        W33581  14.825  19.179  11.546
62053W        W33582  26.455  11.591  14.335
62054W        W33583   7.677  32.628  13.450
62055W        W33584  29.801  14.238   3.124
62056W        W33585  22.182  22.109   4.626
62057W        W33586  13.171  44.677   1.811
62058W        W33587   6.856  34.840   1.373
62059W        W33588  38.846  23.303  11.130
62060W        W33589   5.612  44.789   1.289
62061W        W33590   4.307   2.274  13.563
62062W        W33591  20.751  38.424  11.928
62063W        W33592  30.073  13.652  12.913
62064W        W33593  38.488  24.988   3.202
62065W        W33594  35.499   0.761   2.956
62066W        W33595   8.940  37.599   1.849
62067W        W33596  33.911  23.962   1.304
62068W        W33597   3.708   8.706  13.021
62069W        W33598  40.409   8.759  13.673
62070W        W33599  10.811  35.385  10.546
62071W        W33600  19.349  40.918  14.362
62072W        W33601  38.331  44.151   1.514
62073W        W33602  30.061   7.356  11.722
62074W        W33603  17.052  33.615  14.433
62075W        W33604   6.261  40.336  11.735
62076W        W33605  30.474  35.241   4.627
62077W        W33606  43.367  29.886   0.523
62078W        W33607  35.485  34.149  11.631
62079W        W33608  41.240  16.038  14.786
62080W        W33609  21.474  10.183  10.987
62081W        W33610  44.321  33.601  12.355
62082W        W33611   1.371   2.307  12.538
62083W        W33612  43.313  23.982  10.864
62084W        W33613  37.457  39.533  10.618
62085W        W33614  44.547   1.173  14.827
62086W        W33615  18.665   9.397   4.341
62087W        W33616  39.001   2.266  14.997
62088W        W33617  11.807  15.748   4.096
62089W        W33618  39.377  20.610  11.164
62090W        W33619   4.768  41.157  10.114
62091W        W33620  25.634  24.377   3.206
62092W        W33621  41.814   9.742   4.563
62093W        W33622   5.310  22.433  10.263
62094W        W33623  13.652   4.247   0.327
62095W        W33624  17.182  44.100  11.567
62096W        W33625  17.197  23.112  13.519
62097W        W33626  41.994  24.742   4.810
62098W        W33627   0.687  43.310  10.518
62099W        W33628   1.926  11.873   3.190
62100W        W33629   2.141  10.279   1.441
62101W        W33630  20.735   9.681   3.634
62102W        W33631  26.154  38.637   4.849
62103W        W33632  34.807   5.644  13.909
62104W        W33633  10.655   8.650  14.729
62105W        W33634  33.949  35.163  13.805
62106W        W33635  11.271  37.152  12.140
62107W        W33636  15.098  42.815   3.349
62108W        W33637   7.659  42.444  11.472
62109W        W33638  24.532  15.720   0.278
62110W        W33639   7.827   9.820  11.132
62111W        W33640   1.412  28.936   1.440
62112W        W33641  26.614  10.010  12.396
62113W        W33642  37.293  43.268   4.127
62114W        W33643  33.173  21.613   2.414
62115W        W33644  29.136  13.024  10.176
62116W        W33645  30.749  31.637  13.782
62117W        W33646  43.214  20.953   1.760
62118W        W33647  17.667  24.662   2.474
62119W        W33648  29.369  30.105   3.665
62120W        W33649   0.884  41.508  11.498
62121W        W33650   2.671   6.366   3.267
62122W        W33651  43.835  10.606  12.483
62123W        W33652  28.745  16.690   0.757
62124W        W33653  35.889  22.195  14.605
62125W        W33654   3.404  14.419  11.587
62126W        W33655  17.512  38.212  12.504
62127W        W33656  27.582  26.428  13.764
62128W        W33657  43.988  28.595  12.369
62129W        W33658   1.117   5.553   3.744
62130W        W33659  36.125  36.521   1.242
62131W        W33660  26.291  22.423  12.718
62132W        W33661  44.841  10.368  14.549
62133W        W33662  29.538  19.809  14.026
62134W        W33663  43.562   6.289   4.522
62135W        W33664  43.782  15.345   1.817
62136W        W33665  43.855  36.654   0.051
62137W        W33666  24.973  27.585   2.322
62138W        W33667  38.287  40.314   0.895
62139W        W33668  37.946  43.249  12.412
62140W        W33669  11.830  17.614   2.390
62141W        W33670  38.283  13.168  13.533
62142W        W33671  24.648  14.223   3.726
62143W        W33672  16.040  21.919   3.563
62144W        W33673   1.345  13.374  13.915
62145W        W33674  23.045   3.330   3.642
62146W        W33675  24.157  32.641  13.049
62147W        W33676  23.237   7.696  11.916
62148W        W33677   4.037  43.836  10.890
62149W        W33678  43.975  27.638   2.175
62150W        W33679  22.195  12.871  14.278
62151W        W33680   5.823  32.053   2.358
62152W        W33681  29.510  17.355   5.079
62153W        W33682  10.717  43.836   2.229
62154W        W33683  28.758  19.035  14.509
62155W        W33684  15.668  27.361   0.383
62156W        W33685   7.400  36.934   2.669
62157W        W33686  19.193   9.805  11.000
62158W        W33687   2.018  16.035   4.924
62159W        W33688  37.613  41.390  14.939
62160W        W33689   0.774  13.305   2.161
62161W        W33690  32.249  35.950  13.744
62162W        W33691  20.139  20.817   2.476
62163W        W33692   5.266  38.251  11.200
62164W        W33693  16.218  28.702  10.233
62165W        W33694  22.216  39.093   3.894
62166W        W33695  10.888  17.039  11.125
62167W        W33696  42.501  35.914  12.410
62168W        W33697   1.885  30.124   4.343
62169W        W33698   8.889   1.207  14.949
62170W        W33699  43.819  39.766  12.396
62171W        W33700  23.033  31.202   3.504
62172W        W33701  14.209  28.838  11.190
62173W        W33702  23.158   9.282   2.864
62174W        W33703   1.431  21.572  10.924
62175W        W33704  40.814  13.156  10.590
62176W        W33705   0.532  31.681  13.355
62177W        W33706  23.338  43.276   4.158
62178W        W33707   7.992   5.207   4.225
62179W        W33708  37.999  19.465  10.821
62180W        W33709  37.236   8.583   4.241
62181W        W33710  22.689  26.025   2.638
62182W        W33711  10.808  10.920  13.019
62183W        W33712   0.775   9.764   2.752
62184W        W33713  44.507  21.163  14.038
62185W        W33714  43.958  25.160   0.281
62186W        W33715  21.606   7.645  11.269
62187W        W33716  12.359  25.700  12.776
62188W        W33717  11.385  39.413   4.053
62189W        W33718  41.951  34.510   0.327
62190W        W33719  15.350  15.089   1.714
62191W        W33720  35.877  27.107   3.134
62192W        W33721  10.206  41.855  13.457
62193W        W33722  23.994  21.988   3.637
62194W        W33723  16.777  14.742   1.510
62195W        W33724  23.635  15.282   2.563
62196W        W33725  14.658  22.490  13.492
62197W        W33726  40.515   6.387  12.832
62198W        W33727  44.687  15.130  13.446
62199W        W33728  42.979  41.878   0.307
62200W        W33729  14.826  24.998  13.988
62201W        W33730  20.808  15.561  13.441
62202W        W33731  42.383   5.498   4.750
62203W        W33732   8.199   9.365   0.456
62204W        W33733  31.929   9.444   0.545
62205W        W33734  17.714   0.031  10.692
62206W        W33735  41.806   5.249  10.707
62207W        W33736  41.272  18.073   4.599
62208W        W33737  14.291  34.214  13.074
62209W        W33738  21.666   8.162  14.417
62210W        W33739  32.307   2.996   0.463
62211W        W33740  30.287  23.854  12.493
62212W        W33741  23.318   6.647  12.081
62213W        W33742  31.897   9.187   0.097
62214W        W33743  23.349  20.276  12.384
62215W        W33744  15.555  19.796   1.944
62216W        W33745  11.317  18.374   4.625
62217W        W33746  16.182  13.712   4.180
62218W        W33747   4.793  38.378   2.595
62219W        W33748   0.998  18.053   3.872
62220W        W33749  15.185   9.399  12.422
62221W        W33750  11.226  28.237  14.930
62222W        W33751   5.695  34.942  12.081
62223W        W33752  42.286   2.830   0.818
62224W        W33753  39.870  20.008  12.175
62225W        W33754  29.459  44.302   4.279
62226W        W33755  10.695  26.728   0.050
62227W        W33756  39.043  30.953   0.280
62228W        W33757  30.015  28.643   4.395
62229W        W33758  10.707  25.026  12.054
62230W        W33759  33.405  34.377  13.611
62231W        W33760  10.114  11.370   0.307
62232W        W33761  44.410   4.009  14.752
62233W        W33762  44.603   3.992  13.366
62234W        W33763  26.780   7.914  11.989
62235W        W33764  43.296  28.775   4.562
62236W        W33765  19.116  25.506   4.135
62237W        W33766   0.801  31.603   1.146
62238W        W33767  12.878   5.172  12.492
62239W        W33768  13.614  22.814   2.716
62240W        W33769  31.355   8.697   0.588
62241W        W33770  37.899  22.141   1.247
62242W        W33771  36.590   2.550  12.795
62243W        W33772   7.369  37.410  12.046
62244W        W33773   9.272  11.983   0.284
62245W        W33774  10.790   1.535  12.469
62246W        W33775  11.147  29.212   1.767
62247W        W33776   2.338  19.766  14.088
62248W        W33777  44.726  13.881  11.048
62249W        W33778   7.994  33.729  11.641
62250W        W33779  25.563  30.156   0.856
62251W        W33780   2.812  27.269   0.379
62252W        W33781  24.386  13.690   0.966
62253W        W33782  21.275  27.973   1.938
62254W        W33783  27.539   6.268   2.350
62255W        W33784  35.375  38.067  10.824
62256W        W33785  13.800  34.818   3.115
62257W        W33786  41.352  20.169  12.066
62258W        W33787   9.964  19.265   5.130
62259W        W33788  31.158   3.321   1.744
62260W        W33789   4.732   4.459  10.548
62261W        W33790  17.562  31.208   3.217
62262W        W33791  44.713  37.372   5.342
62263W        W33792   5.843  17.771   3.861
62264W        W33793   5.437  20.610   1.911
62265W        W33794  39.052  24.109  11.626
62266W        W33795  35.069  15.354   2.754
62267W        W33796  24.753  42.291  11.210
62268W        W33797  29.504   3.675  13.022
62269W        W33798  34.776  15.186  11.558
62270W        W33799  29.418   1.196  14.406
62271W        W33800   4.254   5.487  12.453
62272W        W33801  17.165  33.459  13.082
62273W        W33802  23.662  44.334   3.111
62274W        W33803  11.294   4.630  13.085
62275W        W33804  37.327  27.582  11.452
62276W        W33805  42.909   3.119   4.635
62277W        W33806  15.222   7.373   0.243
62278W        W33807  12.527   1.688   1.206
62279W        W33808   2.564  18.782   4.126
62280W        W33809  21.465  21.651   3.625
62281W        W33810  33.835  21.063  11.239
62282W        W33811  24.216   8.964  10.613
62283W        W33812  30.467  37.957   4.412
62284W        W33813  37.002  42.601  11.670
62285W        W33814  39.974  38.536  14.846
62286W        W33815  13.583  36.391   3.752
62287W        W33816  15.733  31.120   0.057
62288W        W33817   8.797  33.207   0.140
62289W        W33818  33.431  23.793   4.161
62290W        W33819  41.734   0.029   4.329
62291W        W33820  26.731   6.440  11.444
62292W        W33821  44.980   7.953  11.334
62293W        W33822  17.482  20.644  13.981
62294W        W33823  18.820   3.305   4.552
62295W        W33824  43.196  26.146   4.691
62296W        W33825  12.917  11.481  14.786
62297W        W33826   7.890  32.365  13.856
62298W        W33827  15.817  26.732   2.628
62299W        W33828  19.834   3.288  11.998
62300W        W33829  44.637  44.058  12.432
62301W        W33830  15.704  41.456   0.935
62302W        W33831  40.840   7.594   2.215
62303W        W33832   9.648  16.236   0.345
62304W        W33833  16.298  22.064   2.391
62305W        W33834  16.553  20.767   0.333
62306W        W33835   6.828   0.206   2.675
62307W        W33836  31.018   7.492   1.221
62308W        W33837  21.969   8.773  11.168
62309W        W33838  17.617   4.599   2.424
62310W        W33839   0.927  23.698   5.114
62311W        W33840  19.237  30.585  11.220
62312W        W33841  21.459  32.705   4.206
62313W        W33842   8.005  20.007  14.330
62314W        W33843  14.499   5.275   0.871
62315W        W33844  22.363   6.114  11.470
62316W        W33845  17.326  11.926   2.934
62317W        W33846   2.747  15.760   0.466
62318W        W33847  23.926  34.232   0.028
62319W        W33848   4.540  24.700  11.650
62320W        W33849  25.626  43.542   0.258
62321W        W33850   3.918  33.210  12.527
62322W        W33851  44.263  12.256   5.052
62323W        W33852  32.902  11.649  11.693
62324W        W33853  22.167  18.158   1.429
62325W        W33854   1.276  25.061   2.519
62326W        W33855  12.892  27.500  12.041
62327W        W33856  36.851  41.481   4.372
62328W        W33857  20.374  20.534  14.770
62329W        W33858  20.951  31.031   1.976
62330W        W33859   7.979  40.826  13.050
62331W        W33860  11.937  36.424   2.461
62332W        W33861   6.292   9.162  14.863
62333W        W33862  17.494   0.432   0.299
62334W        W33863  31.401  33.479  11.920
62335W        W33864  32.104  21.654  11.156
62336W        W33865  15.282  30.538  12.401
62337W        W33866  25.153  33.053   2.326
62338W        W33867  34.921   7.102   3.254
62339W        W33868  32.154  27.518  14.898
62340W        W33869   2.780  25.613   1.272
62341W        W33870   9.198  30.379   1.883
62342W        W33871   9.342  33.492  12.978
62343W        W33872  38.936  34.426  13.333
62344W        W33873  27.408  21.320  14.462
62345W        W33874  41.725  36.022  10.519
62346W        W33875  37.344  26.296   1.925
62347W        W33876  12.683   5.039   4.099
62348W        W33877  21.030   6.534   0.156
62349W        W33878  35.376  16.606   0.824
62350W        W33879  36.836   2.438  11.064
62351W        W33880  42.388  24.531   1.471
62352W        W33881  11.343   4.487  11.176
62353W        W33882  11.333  44.279   0.530
62354W        W33883  19.315  42.862   3.255
62355W        W33884   8.648  15.663  14.335
62356W        W33885   8.820  42.706   4.079
62357W        W33886  22.649  19.704   2.999
62358W        W33887  11.534  33.228   3.396
62359W        W33888  23.433  30.002   0.812
62360W        W33889  24.359   5.445  13.958
62361W        W33890   6.101  10.234  10.454
62362W        W33891  26.399   3.033  13.857
62363W        W33892   8.125  44.815   0.329
62364W        W33893   6.176  27.267  11.433
62365W        W33894  25.282  30.170  12.373
62366W        W33895   1.181  25.584  11.453
62367W        W33896  27.738  20.692  11.579
62368W        W33897  38.998  20.690   3.622
62369W        W33898  23.115  24.507   2.347
62370W        W33899  39.408  11.962   1.325
62371W        W33900  19.065  19.690  11.652
62372W        W33901  27.913  25.653  11.723
62373W        W33902  41.327  20.825   0.441
62374W        W33903  28.924  16.616   1.377
62375W        W33904  27.474   5.458  13.075
62376W        W33905  39.283  30.476   3.609
62377W        W33906  14.149  23.534  13.030
62378W        W33907  11.362  36.563  10.728
62379W        W33908  42.110  23.973   0.831
62380W        W33909  24.102  35.932   1.832
62381W        W33910  33.920  41.022  14.843
62382W        W33911  19.341  23.366  11.275
62383W        W33912   0.305  37.494   2.643
62384W        W33913  39.464  30.125  10.622
62385W        W33914  37.084   0.918   0.634
62386W        W33915  38.881   3.130   3.604
62387W        W33916  40.393  10.070  12.629
62388W        W33917  19.849  40.866  14.329
62389W        W33918   5.732  15.072  13.872
62390W        W33919  27.577  41.387   1.431
62391W        W33920  14.228  27.212   4.160
62392W        W33921  29.735  35.377  14.313
62393W        W33922  22.893  22.405  12.756
62394W        W33923  42.862  23.261   4.303
62395W        W33924  31.837   9.790  11.033
62396W        W33925  18.622   8.283   2.728
62397W        W33926  38.584  42.990   0.767
62398W        W33927   1.335  13.898  11.072
62399W        W33928   9.965  40.872   1.868
62400W        W33929  35.063  42.924  10.883
62401W        W33930   4.219  27.026  12.161
62402W        W33931  15.823  31.169   3.739
62403W        W33932  37.610   5.382  12.332
62404W        W33933  44.750  27.456  12.333
62405W        W33934  15.466  27.187  13.832
62406W        W33935  34.496  43.623  12.955
62407W        W33936  27.551  37.878   4.641
62408W        W33937  40.802   9.823  10.698
62409W        W33938  33.489  23.869   5.033
62410W        W33939   8.790  15.785  12.009
62411W        W33940  25.079  22.695  13.058
62412W        W33941  11.327  27.520  11.033
62413W        W33942   2.609  11.671   3.310
62414W        W33943  28.663  27.065   2.349
62415W        W33944   5.188   1.848   4.182
62416W        W33945   7.960  15.231  14.351
62417W        W33946   5.194  38.704   4.030
62418W        W33947  30.942  17.557   2.158
62419W        W33948   7.911  25.748   4.134
62420W        W33949  17.999  29.160   3.176
62421W        W33950   7.855  20.910  13.403
62422W        W33951  34.748  37.008   3.407
62423W        W33952  12.347   5.928  12.545
62424W        W33953   5.935  13.262  11.903
62425W        W33954  23.327  26.483  14.879
62426W        W33955  23.711  41.361  12.490
62427W        W33956  36.306   5.957  10.665
62428W        W33957   9.765  18.661   4.247
62429W        W33958  15.063  33.174  12.878
62430W        W33959   7.797  42.840   4.284
62431W        W33960  35.629   5.534   0.867
62432W        W33961  20.244   2.527   3.278
62433W        W33962   6.043  25.206   4.152
62434W        W33963  15.371   6.033   3.713
62435W        W33964  20.094  11.183   4.372
62436W        W33965  19.053  19.523  14.203
62437W        W33966  37.930  28.306   9.950
62438W        W33967  33.010  35.734   1.156
62439W        W33968  23.150  30.731  10.734
62440W        W33969  19.161  32.378   4.949
62441W        W33970  43.883  26.729  12.427
62442W        W33971  34.764  34.474  11.040
62443W        W33972  18.773  17.127  14.037
62444W        W33973  29.429  23.506   2.560
62445W        W33974  32.034  17.775   1.834
62446W        W33975  11.208  24.168   4.475
62447W        W33976  32.079  35.657  14.514
62448W        W33977  31.293  25.273  14.895
62449W        W33978  28.420  39.946  14.761
62450W        W33979  39.390  42.044   2.767
62451W        W33980  28.990  32.965  13.499
62452W        W33981  18.805  13.702  12.534
62453W        W33982  36.091  26.858  14.285
62454W        W33983   5.095  13.716   4.709
62455W        W33984  35.064   5.748  14.739
62456W        W33985  32.025  22.084  14.201
62457W        W33986   3.070  24.486  13.396
62458W        W33987   9.002  23.487  13.336
62459W        W33988  38.546  28.958   1.402
62460W        W33989  15.163  43.359  10.290
62461W        W33990  38.981   6.880   1.818
62462W        W33991   6.606  27.574  13.858
62463W        W33992  30.952  34.740   1.632
62464W        W33993   1.758  36.454  12.149
62465W        W33994   9.314  19.672  14.325
62466W        W33995  35.092  24.555  14.321
62467W        W33996   7.228   2.658   0.893
62468W        W33997  39.636  23.946  14.759
62469W        W33998  26.270  30.280   0.390
62470W        W33999  37.600   4.987  13.894
62471W        W34000  13.266  39.582   0.330
62472W        W34001  33.078  38.285   3.583
62473W        W34002   1.218  41.525   3.314
62474W        W34003  15.991  40.985   1.459
62475W        W34004   7.026   9.834  14.905
62476W        W34005  43.718  35.595   3.297
62477W        W34006  35.203  14.887   2.931
62478W        W34007   0.170  20.143  14.821
62479W        W34008   9.253  30.155  12.213
62480W        W34009  21.579   7.261   0.784
62481W        W34010  42.790   7.388  12.822
62482W        W34011  20.213  16.180   2.886
62483W        W34012  26.647   2.306   0.457
62484W        W34013  30.243  39.850  12.943
62485W        W34014   5.724   1.930  12.575
62486W        W34015  25.127  25.058   2.329
62487W        W34016  25.109  15.354   1.354
62488W        W34017  36.150  36.346  12.201
62489W        W34018  38.541   6.648   4.154
62490W        W34019  21.132  14.862  12.559
62491W        W34020  14.430   4.506   0.794
62492W        W34021  38.215   6.748  13.835
62493W        W34022  13.730   9.394   3.905
62494W        W34023  40.978  37.586  12.430
62495W        W34024  44.469  11.783   4.500
62496W        W34025   5.822  30.636   2.206
62497W        W34026  44.131  10.661   2.846
62498W        W34027  13.619  25.924  13.525
62499W        W34028   1.600  31.567  12.144
62500W        W34029  21.160  43.591  11.595
62501W        W34030   8.397  19.616   2.395
62502W        W34031  24.026  18.618  13.984
62503W        W34032   7.866  20.141   0.219
62504W        W34033  35.628  42.756  11.627
62505W        W34034  35.484  25.155  10.532
62506W        W34035  38.256   9.997   1.650
62507W        W34036   5.247   1.481  10.587
62508W        W34037  44.414  30.645  14.557
62509W        W34038  30.438  36.901  12.096
62510W        W34039  40.933  10.179   4.042
62511W        W34040  26.618  33.989  10.426
62512W        W34041  34.304  17.571  10.780
62513W        W34042  44.557  38.740   4.599
62514W        W34043   7.782  37.486   1.409
62515W        W34044  32.642  27.943  10.782
62516W        W34045   8.266  37.501  13.049
62517W        W34046  35.936  15.473   2.349
62518W        W34047  32.634  20.493   4.778
62519W        W34048  31.950  39.856  11.759
62520W        W34049  42.478  28.781  13.914
62521W        W34050  28.875  44.751   0.816
62522W        W34051  42.285  15.252  10.607
62523W        W34052  36.553  36.940  12.914
62524W        W34053  44.255  39.572  13.498
62525W        W34054  36.346   1.984   3.635
62526W        W34055   0.894   5.235   2.677
62527W        W34056  28.224  22.501   4.182
62528W        W34057  39.074  30.884   3.837
62529W        W34058   5.455   0.419  10.851
62530W        W34059  12.951  33.318  13.527
62531W        W34060  27.014  24.287   1.651
62532W        W34061  13.245  17.272   3.291
62533W        W34062  38.067   2.928   3.398
62534W        W34063  25.175   3.422   0.528
62535W        W34064  29.259   9.323  11.433
62536W        W34065  11.860  20.659  10.607
62537W        W34066  40.236  32.603  13.199
62538W        W34067   2.241  32.986   2.736
62539W        W34068   1.934   7.880   4.658
62540W        W34069  18.997  11.855   2.228
62541W        W34070   5.665  23.968   3.671
62542W        W34071  24.162  13.144   4.078
62543W        W34072   0.033  10.261  11.170
62544W        W34073   6.468  20.329  14.922
62545W        W34074  37.395  36.882   3.304
62546W        W34075  17.530  16.616   0.025
62547W        W34076  27.890   2.972  14.948
62548W        W34077  32.254  25.881  11.741
62549W        W34078  21.991  37.570   2.956
62550W        W34079  24.970  19.013   1.686
62551W        W34080   1.866   9.798  10.378
62552W        W34081   6.551  40.302   0.707
62553W        W34082  39.220  41.302  12.931
62554W        W34083  15.583   5.742   4.077
62555W        W34084  29.391  13.677   3.766
62556W        W34085  39.539   1.852  14.205
62557W        W34086  20.932  20.290   2.824
62558W        W34087  15.643  17.545   4.978
62559W        W34088  38.047   8.101   3.216
62560W        W34089   9.640  30.585  11.624
62561W        W34090  44.309  30.649  10.266
62562W        W34091  31.982  15.739   5.415
62563W        W34092  38.387   2.125  12.348
62564W        W34093  31.621  29.381  14.500
62565W        W34094  25.024  38.713  10.807
62566W        W34095  31.054  30.192  13.121
62567W        W34096  33.876   3.850  13.905
62568W        W34097  20.622  28.248  13.875
62569W        W34098  11.371  38.560  11.930
62570W        W34099  41.879  25.413  14.755
62571W        W34100  30.006   6.868   4.558
62572W        W34101  25.184  28.440  10.598
62573W        W34102  20.186  39.560  14.953
62574W        W34103  14.776  27.364  11.459
62575W        W34104  29.413  37.465  14.364
62576W        W34105  17.580  40.033   1.272
62577W        W34106   9.223  17.113   4.658
62578W        W34107   7.098  21.487   9.953
62579W        W34108  35.701  11.789  14.337
62580W        W34109   3.741  18.451  11.810
62581W        W34110   8.437  27.461   2.803
62582W        W34111   5.280  30.175  14.933
62583W        W34112  12.191  34.361  13.834
62584W        W34113   3.232   4.161   2.604
62585W        W34114   2.701  12.174   3.620
62586W        W34115  32.803  21.224   3.619
62587W        W34116  29.429  20.841   3.110
62588W        W34117  14.170   3.668  13.930
62589W        W34118  10.719  32.118   0.189
62590W        W34119  35.879  36.005   0.347
62591W        W34120  20.273   7.821  14.477
62592W        W34121  42.992  16.396   1.763
62593W        W34122  25.186   6.861   4.778
62594W        W34123  14.123  25.481   1.331
62595W        W34124   8.449  31.008  13.648
62596W        W34125  27.061  18.671  14.491
62597W        W34126  12.852  33.915   1.667
62598W        W34127  29.845   2.569  12.577
62599W        W34128  25.263  29.738  13.986
62600W        W34129  21.858  33.771   4.406
62601W        W34130   1.626   7.393   2.811
62602W        W34131  31.076  40.382   1.711
62603W        W34132  19.377  19.919   9.470
62604W        W34133  31.651  32.180   0.407
62605W        W34134  29.682   2.508   2.412
62606W        W34135  14.378  40.731   4.353
62607W        W34136  28.990   6.703   2.295
62608W        W34137   8.284   7.071   1.347
62609W        W34138  42.886  41.585   0.751
62610W        W34139  43.360  17.039   2.362
62611W        W34140  18.529  32.966   4.092
62612W        W34141  10.586   5.039   4.944
62613W        W34142  37.446  13.575   3.666
62614W        W34143  21.511  40.899  10.888
62615W        W34144  21.562   0.748   4.270
62616W        W34145  39.732  27.155  14.419
62617W        W34146  25.559  34.907  14.825
62618W        W34147   5.823  29.157   1.236
62619W        W34148  28.225  31.587   3.230
62620W        W34149  39.600  34.589  10.535
62621W        W34150  42.340  30.594  12.028
62622W        W34151  22.751   5.148   4.635
62623W        W34152  44.711   3.157   0.764
62624W        W34153   9.639  40.047   4.208
62625W        W34154  25.581  35.885  13.920
62626W        W34155  15.754  23.377   2.877
62627W        W34156  39.344   7.451  13.470
62628W        W34157  43.433  31.362   0.825
62629W        W34158   6.727  38.333  10.968
62630W        W34159  29.730  29.589   4.875
62631W        W34160  28.577  37.052  14.297
62632W        W34161   4.337   2.935  13.913
62633W        W34162  10.570  12.877  12.467
62634W        W34163   1.177   6.902  13.014
62635W        W34164   7.315  21.079  10.857
62636W        W34165  43.939  28.594   1.174
62637W        W34166  39.258  19.124   1.793
62638W        W34167  25.248  37.979  14.353
62639W        W34168  28.032  29.923  12.465
62640W        W34169  32.115  31.751   1.651
62641W        W34170  34.988   4.722   5.137
62642W        W34171  16.008  28.408   3.120
62643W        W34172   2.809  16.550   1.169
62644W        W34173   3.300  30.430   2.364
62645W        W34174   2.833  40.940   4.894
62646W        W34175  30.552   2.983   1.681
62647W        W34176  40.983  27.707   4.382
62648W        W34177  34.644  15.820  12.809
62649W        W34178  44.240  27.499   0.891
62650W        W34179  39.465  24.062  13.469
62651W        W34180  23.378  35.781   0.651
62652W        W34181  29.008  44.027  12.600
62653W        W34182   5.392  29.532   2.146
62654W        W34183  34.494   4.842  13.017
62655W        W34184  43.386   6.651  13.312
62656W        W34185  36.532   5.872  14.261
62657W        W34186   7.159   9.128   3.228
62658W        W34187  30.616  34.462   3.588
62659W        W34188  16.111  19.115  13.541
62660W        W34189  38.285  13.206   2.338
62661W        W34190  26.702  24.612   3.819
62662W        W34191   6.135   8.127   2.454
62663W        W34192  27.646   3.931  13.132
62664W        W34193   8.004  36.890  10.678
62665W        W34194  25.284  13.997  11.106
62666W        W34195  33.033  34.790   0.749
62667W        W34196  32.097   6.395   3.540
62668W        W34197  41.047  25.033   0.224
62669W        W34198  17.426  34.526  12.693
62670W        W34199  40.449  44.216  12.093
62671W        W34200  18.568  13.352  13.620
62672W        W34201  42.956  12.970   1.195
62673W        W34202  35.927  37.419   1.706
62674W        W34203   5.320  17.589   2.772
62675W        W34204  25.603   2.322   3.376
62676W        W34205  39.983  17.149  13.033
62677W        W34206  41.552   8.660   0.379
62678W        W34207  30.877  16.594  10.219
62679W        W34208  19.527  42.341  13.463
62680W        W34209   1.601  41.201   3.340
62681W        W34210   5.702  27.470   4.593
62682W        W34211   3.879  41.561  11.160
62683W        W34212  11.875  10.166  14.932
62684W        W34213  36.625  12.975   3.505
62685W        W34214  29.274  19.152   1.870
62686W        W34215   8.655  23.145   3.632
62687W        W34216  25.180  10.843  12.183
62688W        W34217  29.356  12.879  10.812
62689W        W34218  11.166   6.822   0.942
62690W        W34219  16.109  40.221  12.729
62691W        W34220  43.558  12.179  13.064
62692W        W34221  40.032  26.176   0.782
62693W        W34222   2.301  38.144  11.229
62694W        W34223  29.473  41.473   2.383
62695W        W34224  10.469  19.136  11.198
62696W        W34225   9.906  15.872  12.559
62697W        W34226  27.911  15.426   5.281
62698W        W34227  27.184  14.667   2.705
62699W        W34228  25.135  17.611  10.625
62700W        W34229  42.858  13.058  10.974
62701W        W34230  34.894  31.899  13.943
62702W        W34231  17.128  38.040   1.347
62703W        W34232  26.968  18.617  13.984
62704W        W34233  17.061  16.856  10.681
62705W        W34234  24.335   1.899  14.721
62706W        W34235  39.523  13.053   3.446
62707W        W34236  23.716  19.579  13.497
62708W        W34237  25.792  32.706   0.946
62709W        W34238   2.303  17.660  14.527
62710W        W34239  41.222  15.933  12.001
62711W        W34240  16.257  29.680  11.010
62712W        W34241   4.678  41.717  13.733
62713W        W34242  42.521  15.920  10.333
62714W        W34243  14.350  27.078   1.879
62715W        W34244   2.313   4.769  13.782
62716W        W34245  31.010  17.384   4.605
62717W        W34246  29.250   8.158   1.467
62718W        W34247  15.700  29.689  13.028
62719W        W34248  33.251  38.298  14.292
62720W        W34249  19.067  20.820   3.747
62721W        W34250  11.228  39.748   1.849
62722W        W34251  15.654   5.926   0.224
62723W        W34252  43.806  35.376   4.198
62724W        W34253  27.567  30.777   0.236
62725W        W34254  39.994  28.523  13.528
62726W        W34255  34.567  30.694  12.831
62727W        W34256  12.873  27.118   0.903
62728W        W34257  34.472  20.174   3.709
62729W        W34258  35.615   5.144  11.440
62730W        W34259  24.153  37.779   0.801
62731W        W34260   1.995  30.895   1.053
62732W        W34261  23.503  16.570  11.404
62733W        W34262  29.712  33.526   0.866
62734W        W34263  16.343  15.754  10.681
62735W        W34264   2.018  25.529  13.328
62736W        W34265   2.848   1.539  13.009
62737W        W34266  30.037   2.609   0.268
62738W        W34267  44.216  20.856  10.487
62739W        W34268  23.845  30.559  11.972
62740W        W34269  22.163  21.574   1.956
62741W        W34270  22.616  27.567   3.758
62742W        W34271  22.233   4.788  12.031
62743W        W34272  12.528  10.727   3.262
62744W        W34273  35.022  29.853  12.009
62745W        W34274   6.432  18.372   4.422
62746W        W34275   0.507  11.367  12.509
62747W        W34276   9.082  39.085   4.178
62748W        W34277  29.001  20.769   0.420
62749W        W34278  29.135  27.135  11.141
62750W        W34279  43.905  41.210  10.747
62751W        W34280   0.530  37.481   2.189
62752W        W34281  12.098  44.480  13.284
62753W        W34282   9.984  19.738  12.489
62754W        W34283  29.998  24.526   0.886
62755W        W34284   7.426  19.929  14.280
62756W        W34285  28.081   9.893  14.889
62757W        W34286  38.863  20.315   9.840
62758W        W34287   3.940  16.702   0.131
62759W        W34288  31.169  12.125   1.369
62760W        W34289  11.171  11.511   1.969
62761W        W34290  40.833  14.766   2.998
62762W        W34291  27.255  38.037  12.990
62763W        W34292  15.526  43.917   2.881
62764W        W34293  30.406  24.051  14.562
62765W        W34294  31.128  10.315  11.150
62766W        W34295  11.966  18.594  10.561
62767W        W34296  40.477  12.161   0.332
62768W        W34297  15.871   4.904   3.773
62769W        W34298   4.946  22.749   2.841
62770W        W34299  10.694   9.742   4.356
62771W        W34300   8.814  22.521   5.080
62772W        W34301   3.934  28.470   0.707
62773W        W34302   2.095   4.616  14.244
62774W        W34303   0.652  19.458   0.176
62775W        W34304  43.848   7.195   3.745
62776W        W34305  40.028  41.874  12.657
62777W        W34306  23.692  43.963  13.312
62778W        W34307   5.225   7.928  12.965
62779W        W34308  13.925   8.365   4.544
62780W        W34309  20.833  11.763   4.609
62781W        W34310  35.618  32.342  11.068
62782W        W34311  20.570   8.728  13.028
62783W        W34312   1.916  42.043   1.314
62784W        W34313   2.240   9.626  14.217
62785W        W34314  15.505  18.808   3.138
62786W        W34315  10.004  37.949  14.527
62787W        W34316  17.447  17.861   3.589
62788W        W34317  29.617  16.729  11.909
62789W        W34318  42.372   4.437   0.442
62790W        W34319  36.001  44.815  12.482
62791W        W34320   8.860  15.853   2.318
62792W        W34321  22.287  23.697   2.323
62793W        W34322  18.839  29.395   1.708
62794W        W34323  12.448  37.605  12.547
62795W        W34324  40.348   2.180  13.832
62796W        W34325   8.828  39.239   3.284
62797W        W34326  30.594  12.877  14.008
62798W        W34327  22.598  44.372   4.028
62799W        W34328  36.894  40.099  13.032
62800W        W34329  24.072  31.796   0.921
62801W        W34330  16.019   7.607  10.299
62802W        W34331  18.239   2.173   1.427
62803W        W34332  41.461  27.584   0.261
62804W        W34333  15.527  15.300  13.693
62805W        W34334  30.318  35.017   3.782
62806W        W34335   2.362   3.463   1.000
62807W        W34336   7.230  22.084  13.051
62808W        W34337  32.080  25.024  13.799
62809W        W34338  18.400  24.073  13.831
62810W        W34339  41.460  17.783   1.943
62811W        W34340  16.595  43.910   4.037
62812W        W34341  10.747  39.594  14.579
62813W        W34342  10.417   1.911  12.348
62814W        W34343  42.894   2.700  12.578
62815W        W34344  11.675  29.496  14.133
62816W        W34345   1.696  30.551   2.483
62817W        W34346  15.061  35.308  13.427
62818W        W34347  29.611  13.752  14.793
62819W        W34348  37.427  43.174  14.525
62820W        W34349  25.976  15.017   0.363
62821W        W34350  36.805  27.286   0.205
62822W        W34351  36.126   2.726   4.176
62823W        W34352  38.407  32.231   4.930
62824W        W34353  35.347  38.531   1.888
62825W        W34354  29.557  37.986   3.267
62826W        W34355   3.103  28.643  13.520
62827W        W34356  38.371  10.989  11.582
62828W        W34357  23.132  18.324   1.815
62829W        W34358  30.067  32.564   4.933
62830W        W34359  25.142  13.186  12.455
62831W        W34360   5.448  22.727   2.752
62832W        W34361  33.830  27.562   4.113
62833W        W34362   2.862   0.644  14.802
62834W        W34363  27.925   8.700   3.570
62835W        W34364  33.965  44.009  12.885
62836W        W34365   6.582  33.360   0.779
62837W        W34366   6.328   5.926   0.865
62838W        W34367  34.531  20.043   1.379
62839W        W34368   2.676  20.486   1.833
62840W        W34369   9.587  16.536   4.257
62841W        W34370  18.914  11.494   5.105
62842W        W34371  24.149  25.036   3.611
62843W        W34372  42.971  16.538  13.840
62844W        W34373  23.234  31.562   4.882
62845W        W34374  15.612  33.055  11.607
62846W        W34375  36.049  32.168   0.866
62847W        W34376  41.879   2.670  14.880
62848W        W34377  16.990   4.436  14.854
62849W        W34378  16.595  27.776  14.576
62850W        W34379  39.516   6.671   0.025
62851W        W34380  43.104  12.629   4.142
62852W        W34381  26.851  27.643   4.161
62853W        W34382  37.429  32.556   0.853
62854W        W34383  23.960   9.627   0.204
62855W        W34384   7.410  39.949  14.535
62856W        W34385  24.624  31.550   4.595
62857W        W34386  30.691  10.826  13.600
62858W        W34387  17.934  28.595   1.708
62859W        W34388  15.857  19.049   2.850
62860W        W34389  32.713  35.845  11.088
62861W        W34390  15.734  36.937   0.497
62862W        W34391  12.629   2.927   0.220
62863W        W34392  30.854  18.566   4.584
62864W        W34393   0.494  23.627  14.374
62865W        W34394  33.463  12.788  13.925
62866W        W34395   8.165  44.888   2.615
62867W        W34396  14.497  36.499  14.978
62868W        W34397  25.988  24.293   1.380
62869W        W34398   0.848  18.928   0.273
62870W        W34399  32.667   5.492   4.049
62871W        W34400  16.382   2.490  10.700
62872W        W34401  11.933  23.337   5.024
62873W        W34402  22.482  41.541   1.729
62874W        W34403  34.440  30.414   0.302
62875W        W34404  24.807  39.589  14.879
62876W        W34405  36.402   4.401   0.127
62877W        W34406  33.949  38.084  12.002
62878W        W34407  18.041  32.894  13.978
62879W        W34408  20.618  30.006  10.812
62880W        W34409  29.361  20.680   1.213
62881W        W34410   8.803   1.285  13.093
62882W        W34411  39.028  35.313   1.491
62883W        W34412  25.991  42.941   4.362
62884W        W34413  17.233   3.553  12.433
62885W        W34414   3.291  31.475   3.106
62886W        W34415   2.763  25.649   0.194
62887W        W34416   5.079  30.578   0.208
62888W        W34417   5.771  40.304  11.964
62889W        W34418   4.503  30.212  12.461
62890W        W34419  40.809   8.353   0.311
62891W        W34420   6.691  39.360   1.403
62892W        W34421  22.703  16.151  14.079
62893W        W34422  40.367  10.244  12.152
62894W        W34423  18.664  16.362   0.352
62895W        W34424  39.728  38.054   1.546
62896W        W34425  24.059   5.270  14.900
62897W        W34426  41.667  14.332  13.130
62898W        W34427  20.950  38.741  10.284
62899W        W34428  34.509   7.892  14.090
62900W        W34429  43.530  26.611  14.250
62901W        W34430   5.880   8.369   2.843
62902W        W34431  36.133  21.131  11.175
62903W        W34432   5.641  31.641   4.578
62904W        W34433  35.343   0.943   1.427
62905W        W34434  44.411  33.496   2.346
62906W        W34435  23.020  34.577  10.256
62907W        W34436  11.395  19.635  13.496
62908W        W34437  19.261  21.598  12.692
62909W        W34438  16.127   3.510   1.311
62910W        W34439  32.046  11.179  11.276
62911W        W34440  39.526  14.828   0.436
62912W        W34441   4.645  17.636   1.081
62913W        W34442  26.591  29.659   4.613
62914W        W34443   5.828  37.924  10.693
62915W        W34444  38.592  36.905  11.697
62916W        W34445   2.756  26.286   3.689
62917W        W34446  19.098  19.234   3.595
62918W        W34447  32.617  27.453  13.185
62919W        W34448  43.381  23.609   0.041
62920W        W34449  17.124  40.454   9.702
62921W        W34450  14.352  27.089   0.116
62922W        W34451  41.472   4.682   1.448
62923W        W34452  38.352  32.710  11.586
62924W        W34453  43.792  18.595  10.679
62925W        W34454  29.703   0.927   0.434
62926W        W34455  39.902   5.614   0.628
62927W        W34456  29.983   0.760  12.926
62928W        W34457  40.950  24.373   3.655
62929W        W34458  16.131  31.350  13.404
62930W        W34459  10.162  11.645  12.678
62931W        W34460  19.749  20.536  11.161
62932W        W34461   9.382  31.874   1.344
62933W        W34462  26.477  41.822  14.451
62934W        W34463  12.717  20.484  12.933
62935W        W34464  37.954   0.311  12.330
62936W        W34465   9.270  31.222  14.031
62937W        W34466  13.158  22.949   1.661
62938W        W34467  12.339  27.991   2.857
62939W        W34468  19.904   4.468   4.526
62940W        W34469  38.196  17.659  11.338
62941W        W34470  41.233   7.886   3.400
62942W        W34471   9.460  43.241  11.868
62943W        W34472  29.180  10.716   4.544
62944W        W34473  12.587  35.527   4.141
62945W        W34474  12.082   2.880  13.903
62946W        W34475  11.152  30.092  12.990
62947W        W34476  34.958  26.457  10.188
62948W        W34477  13.397   3.764   0.377
62949W        W34478  21.683  39.539  14.098
62950W        W34479  23.460  40.902  11.681
62951W        W34480   6.024  31.656   3.657
62952W        W34481  41.527  41.386  14.586
62953W        W34482  16.099  40.382  10.638
62954W        W34483  32.132  35.400   1.364
62955W        W34484   6.325  25.548   2.216
62956W        W34485  12.149  25.321   4.947
62957W        W34486  40.768  18.587   0.378
62958W        W34487   9.686  11.079   0.299
62959W        W34488  31.076   2.346  10.497
62960W        W34489  43.767  25.921  12.001
62961W        W34490  20.619  31.793  12.621
62962W        W34491  40.232  29.936  14.789
62963W        W34492  30.577  27.482  11.325
62964W        W34493  19.189  39.892   1.051
62965W        W34494  44.773  27.002  12.598
62966W        W34495  35.856   3.529   4.506
62967W        W34496  17.336  31.656   3.112
62968W        W34497  20.666  32.406  13.948
62969W        W34498  22.315  29.181  14.815
62970W        W34499   4.896   1.245   1.376
62971W        W34500  43.255  41.587   2.356
62972W        W34501  23.985  11.779  14.302
62973W        W34502  14.680  27.648   3.701
62974W        W34503  32.649  22.647   0.448
62975W        W34504  36.323  44.951   0.425
62976W        W34505  23.069   2.945  11.117
62977W        W34506  39.940  15.710  13.207
62978W        W34507  35.619  31.835   0.948
62979W        W34508  13.310  35.422   1.450
62980W        W34509  12.170   0.988  13.580
62981W        W34510  36.359  37.857   3.268
62982W        W34511   6.363  17.586   5.009
62983W        W34512  15.143  34.216  12.065
62984W        W34513  11.382  30.198  12.527
62985W        W34514   6.985   2.756  12.960
62986W        W34515  34.079  31.531  14.337
62987W        W34516   3.338  27.773  13.443
62988W        W34517  20.291  19.665   5.322
62989W        W34518  30.128  34.099  14.230
62990W        W34519  41.432   3.684  13.630
62991W        W34520  17.489  39.261   0.774
62992W        W34521  29.297  11.904  10.713
62993W        W34522  33.436  34.913   2.705
62994W        W34523  38.773  40.267   0.687
62995W        W34524  21.321  34.576  11.658
62996W        W34525  33.601  41.835   0.960
62997W        W34526  13.309   8.918  12.441
62998W        W34527  13.400  36.393   0.696
62999W        W34528  11.062  10.760  10.483
63000W        W34529  14.608   3.516  12.968
63001W        W34530  42.986  37.980  14.065
63002W        W34531  35.972  22.081  13.148
63003W        W34532   1.097  41.796  12.983
63004W        W34533  40.956   2.438  11.733
63005W        W34534  38.014   4.495   4.166
63006W        W34535  20.873   4.203  12.355
63007W        W34536  28.029  41.551  11.403
63008W        W34537  30.838  35.540  14.763
63009W        W34538  41.742  23.625   1.053
63010W        W34539  35.035  38.550  14.426
63011W        W34540  36.690  14.668  10.609
63012W        W34541  38.990   0.461   1.864
63013W        W34542  12.881   0.987  10.335
63014W        W34543  17.201  21.117  14.029
63015W        W34544  34.806  35.334  13.080
63016W        W34545  30.956   6.408   4.608
63017W        W34546  19.313  22.310   0.942
63018W        W34547   4.573  43.518   2.175
63019W        W34548  31.308  21.392  12.028
63020W        W34549   0.732  10.841   4.262
63021W        W34550  37.048   2.808   0.244
63022W        W34551   4.939   0.266   3.263
63023W        W34552  40.582  25.130  14.374
63024W        W34553   9.132  24.867   4.165
63025W        W34554  19.647  40.985  10.259
63026W        W34555  17.252  35.898   1.489
63027W        W34556  44.892  41.383   1.816
63028W        W34557  13.930  14.308  14.009
63029W        W34558  21.018   0.595   2.286
63030W        W34559   7.359  42.569   4.140
63031W        W34560   2.923  28.517  10.730
63032W        W34561  19.023  16.136  11.880
63033W        W34562  10.293  35.486   3.100
63034W        W34563  20.360  41.063  11.681
63035W        W34564  20.001  11.816  12.888
63036W        W34565  17.407  21.820   1.309
63037W        W34566   4.843  28.196   0.974
63038W        W34567   3.401  44.579  12.450
63039W        W34568   1.562  23.951   4.563
63040W        W34569   6.125  19.754  13.982
63041W        W34570  19.003  30.818  12.765
63042W        W34571  42.277  35.284   1.680
63043W        W34572  13.085  20.254  13.236
63044W        W34573   7.282  19.427   4.258
63045W        W34574  42.304   3.498  11.898
63046W        W34575  22.224  35.015   2.822
63047W        W34576  32.467   8.371   1.372
63048W        W34577  29.389  27.270   3.255
63049W        W34578   4.030  41.068   4.193
63050W        W34579   6.683   4.705  12.378
63051W        W34580  24.233  12.916  10.340
63052W        W34581  22.761  23.145  12.795
63053W        W34582  19.482  29.928  12.054
63054W        W34583  44.502  42.714   2.172
63055W        W34584   6.003  13.699   2.021
63056W        W34585  41.783  30.212  12.725
63057W        W34586  35.303  25.517  13.502
63058W        W34587  44.777  16.842   4.531
63059W        W34588  25.876  28.931  13.994
63060W        W34589   6.171  34.891  13.089
63061W        W34590  29.707  17.763   1.854
63062W        W34591   2.371   9.817  12.027
63063W        W34592  26.009  14.241   4.399
63064W        W34593   0.908   6.725   3.147
63065W        W34594  13.868  10.768  10.855
63066W        W34595  27.365  18.420  11.986
63067W        W34596  38.291  22.954  13.156
63068W        W34597   9.523  22.681   2.765
63069W        W34598   1.854  42.291   3.649
63070W        W34599  28.160  35.198  12.636
63071W        W34600   6.829  32.657   4.852
63072W        W34601  34.212  19.127  12.580
63073W        W34602   4.480  37.843  12.276
63074W        W34603   9.390  38.527   1.657
63075W        W34604  38.040  24.232  14.905
63076W        W34605   8.458  17.161  10.230
63077W        W34606  30.902   6.988   5.023
63078W        W34607   9.875  37.010   1.862
63079W        W34608  20.762  34.666   0.225
63080W        W34609   1.210  33.789   3.593
63081W        W34610  10.773  27.922   4.481
63082W        W34611  22.164  31.198   1.365
63083W        W34612  34.667  44.346   4.108
63084W        W34613  39.891  23.489   4.533
63085W        W34614  32.354  41.584  11.715
63086W        W34615   8.854  31.679   3.237
63087W        W34616  12.196  31.290  10.894
63088W        W34617  36.868  21.283  12.957
63089W        W34618   7.211  36.770   2.192
63090W        W34619  20.713  19.667  13.349
63091W        W34620  24.586  41.008   2.459
63092W        W34621  27.075  22.741   2.471
63093W        W34622  40.983  34.931   4.100
63094W        W34623  25.178  44.031  12.518
63095W        W34624  30.760  42.424   1.695
63096W        W34625  26.670  18.344  14.394
63097W        W34626  16.619  13.785   3.907
63098W        W34627  38.966   8.735  11.573
63099W        W34628  34.127  25.054  11.145
63100W        W34629  41.335  30.327   3.241
63101W        W34630  42.653   0.976   4.768
63102W        W34631  14.100   3.337  10.993
63103W        W34632  38.849  18.284  14.345
63104W        W34633  24.173  35.391   0.673
63105W        W34634  13.179  30.375  11.903
63106W        W34635  13.840  23.987  13.926
63107W        W34636  32.976  33.925  12.630
63108W        W34637   6.309   4.751   0.477
63109W        W34638  10.411   0.438   0.197
63110W        W34639   7.741  20.968   4.224
63111W        W34640  42.491  31.435   0.991
63112W        W34641  22.954  38.668   4.993
63113W        W34642   8.194  39.564   3.401
63114W        W34643   3.217  26.169   2.760
63115W        W34644  24.143  34.434   0.493
63116W        W34645   2.666  39.375   2.422
63117W        W34646  25.546  32.856   1.399
63118W        W34647  42.973  17.554   4.481
63119W        W34648  20.610  16.220  14.796
63120W        W34649  11.695   9.087   3.169
63121W        W34650  20.283  18.259   1.753
63122W        W34651  27.239  21.543   3.207
63123W        W34652  35.081  25.753   1.863
63124W        W34653  43.043  39.511   1.300
63125W        W34654  20.762  11.807  12.457
63126W        W34655  10.342  44.632  13.964
63127W        W34656  18.755  21.719  10.160
63128W        W34657  26.964  44.023   1.644
63129W        W34658  12.900   9.845  13.325
63130W        W34659  41.806  38.144  13.457
63131W        W34660  18.587  27.617   3.641
63132W        W34661  27.062  32.402   1.842
63133W        W34662  29.544   7.390  11.648
63134W        W34663   6.049  34.398   2.736
63135W        W34664   8.919  33.793  12.860
63136W        W34665  28.470  37.565   3.303
63137W        W34666   3.606  39.263   1.075
63138W        W34667   7.548  15.610  13.803
63139W        W34668  31.320   6.041  10.865
63140W        W34669  43.115   3.837   1.979
63141W        W34670  31.186  38.456   3.766
63142W        W34671  13.726  24.060   1.347
63143W        W34672   6.082  37.774  14.330
63144W        W34673  41.399  44.302   4.037
63145W        W34674  25.136  38.739   2.450
63146W        W34675   3.407  36.945   4.809
63147W        W34676   1.373  15.188  12.101
63148W        W34677  29.439   0.340  11.157
63149W        W34678  28.992  39.877   3.109
63150W        W34679  25.678  30.121   1.769
63151W        W34680   8.946  11.669   4.731
63152W        W34681  20.087  32.220  11.132
63153W        W34682  40.497   0.814   2.720
63154W        W34683   3.311  17.952   2.397
63155W        W34684   8.584  33.465   4.863
63156W        W34685   9.407  27.315   0.835
63157W        W34686  14.230   9.819  12.557
63158W        W34687  29.163  22.027  11.925
63159W        W34688  28.298  13.216   3.721
63160W        W34689   2.031  43.717   4.714
63161W        W34690  32.890  33.445   4.807
63162W        W34691  35.412  31.614   2.796
63163W        W34692   8.181   6.568   1.497
63164W        W34693  31.298  12.472  14.414
63165W        W34694  28.695   9.139  12.162
63166W        W34695  24.535  12.310  11.666
63167W        W34696   0.859  21.217   3.174
63168W        W34697  36.430  36.787   4.571
63169W        W34698   3.532  34.000  13.507
63170W        W34699  43.228  33.151   0.763
63171W        W34700  39.326   4.951  14.021
63172W        W34701   4.991  35.815   2.816
63173W        W34702   3.148   7.225  11.100
63174W        W34703  11.299  42.904  11.963
63175W        W34704  34.568  33.125  14.229
63176W        W34705  31.250  39.414   1.815
63177W        W34706  15.114   3.550  12.109
63178W        W34707  16.123  34.807  11.539
63179W        W34708   0.815  30.429   1.883
63180W        W34709  27.969  42.468   0.845
63181W        W34710   3.740  31.451  14.440
63182W        W34711   4.901  21.810   3.318
63183W        W34712  39.056   3.751   0.064
63184W        W34713  26.708  43.102  11.184
63185W        W34714  25.952   4.323   0.433
63186W        W34715  42.849  35.404   3.153
63187W        W34716   5.026  14.339   2.811
63188W        W34717   1.325   7.446   2.308
63189W        W34718  14.624  34.754  14.790
63190W        W34719   3.972  23.029   3.776
63191W        W34720  28.556  16.505  14.029
63192W        W34721  23.627  10.836  14.388
63193W        W34722  14.242   2.078   4.299
63194W        W34723   8.121  18.661   2.939
63195W        W34724  11.640  20.596   4.252
63196W        W34725   7.903   1.692   4.643
63197W        W34726  25.733  16.735   2.837
63198W        W34727  40.834  37.311   3.774
63199W        W34728   1.848   6.167   3.626
63200W        W34729  29.857  28.537   4.939
63201W        W34730   8.256  37.468  10.737
63202W        W34731  43.923  38.453   1.267
63203W        W34732  36.094  17.799   3.646
63204W        W34733   5.450  42.329   0.332
63205W        W34734  33.503  18.217  11.169
63206W        W34735  44.944  29.923   3.182
63207W        W34736  11.679  39.478   4.913
63208W        W34737  39.440  35.863  11.074
63209W        W34738   6.925  35.581  14.790
63210W        W34739  16.178  27.930  11.938
63211W        W34740   5.413  42.390   3.844
63212W        W34741   7.191  14.161   2.238
63213W        W34742  25.155  36.188   2.483
63214W        W34743   0.901  13.075  13.950
63215W        W34744  11.267  35.684   3.544
63216W        W34745  34.189   9.729  14.178
63217W        W34746   1.450  41.076   4.235
63218W        W34747  21.305  32.270   4.878
63219W        W34748  36.676  23.899  13.127
63220W        W34749  31.640   8.423  13.905
63221W        W34750  44.013  14.582   3.725
63222W        W34751  43.778  15.129   3.790
63223W        W34752  24.565  22.526  13.951
63224W        W34753  40.993  24.744   1.331
63225W        W34754   6.302   0.871  13.535
63226W        W34755  17.700  16.189  14.335
63227W        W34756  42.026  36.801  14.882
63228W        W34757  39.926  25.146   0.742
63229W        W34758  15.423  36.350  14.861
63230W        W34759   8.835  44.239  13.550
63231W        W34760  40.063  25.452   3.342
63232W        W34761  33.227  33.088  12.380
63233W        W34762  21.532   5.729   4.672
63234W        W34763  42.134  12.741   1.792
63235W        W34764  28.668  30.253  11.665
63236W        W34765  12.187  11.085  12.311
63237W        W34766  17.940  16.580   1.014
63238W        W34767  29.377   9.887  13.831
63239W        W34768  39.979  37.867  12.317
63240W        W34769   6.687  21.665  10.929
63241W        W34770  42.440  10.842  14.934
63242W        W34771   8.392   6.640   2.913
63243W        W34772  27.126  35.617   2.684
63244W        W34773  27.248   8.824   3.407
63245W        W34774  13.213  23.591   0.868
63246W        W34775  13.283  33.190  14.889
63247W        W34776  25.481   6.173  11.961
63248W        W34777  10.618  13.281  12.802
63249W        W34778  25.709  33.060   2.277
63250W        W34779  11.649   4.385   1.335
63251W        W34780  18.376   7.374   3.375
63252W        W34781  37.833  12.709  14.752
63253W        W34782  32.866   5.164  12.911
63254W        W34783   2.361  27.990   4.095
63255W        W34784  16.759  19.508  13.830
63256W        W34785   1.717  13.945  14.746
63257W        W34786   3.441  41.384  11.384
63258W        W34787   8.843  43.352  11.565
63259W        W34788   4.027  32.788  10.881
63260W        W34789   3.964  40.301   4.161
63261W        W34790  44.731  33.702   4.152
63262W        W34791   2.457  12.628   3.667
63263W        W34792   9.160  19.534  11.478
63264W        W34793  25.532  18.433  14.973
63265W        W34794  37.886  34.911  13.012
63266W        W34795   1.233  31.893  12.990
63267W        W34796  28.486  28.654   2.428
63268W        W34797   0.788  35.529  12.893
63269W        W34798  14.472  17.494  11.660
63270W        W34799  15.110  32.101   2.305
63271W        W34800  33.401  24.686  12.245
63272W        W34801  12.211  25.543   0.048
63273W        W34802  31.082   0.004  14.544
63274W        W34803   4.318  37.398   1.806
63275W        W34804  32.411  31.166   3.858
63276W        W34805  42.734  33.044   0.696
63277W        W34806   5.963  34.846   2.221
63278W        W34807  15.340   6.451   2.842
63279W        W34808  44.536   4.942  13.994
63280W        W34809  22.073  23.124   4.787
63281W        W34810   7.362  25.961  10.822
63282W        W34811  37.273   2.423  12.107
63283W        W34812   9.589  11.276   0.778
63284W        W34813  32.956  11.299   4.655
63285W        W34814  10.333  25.592   2.260
63286W        W34815  21.718  30.476  13.386
63287W        W34816  38.986   8.208  11.591
63288W        W34817   6.954  30.016  14.073
63289W        W34818  39.116  18.991  13.372
63290W        W34819  18.287   2.698  10.605
63291W        W34820  30.396  28.554   0.786
63292W        W34821  18.292  29.594   3.003
63293W        W34822  42.727  15.085  14.228
63294W        W34823  30.459  36.098  14.242
63295W        W34824  15.344  18.884   0.242
63296W        W34825  23.612  39.993   2.284
63297W        W34826  17.793  37.007  12.868
63298W        W34827  19.629  32.180   1.668
63299W        W34828  16.240   8.046  12.047
63300W        W34829  35.715  13.053   3.943
63301W        W34830  11.438   3.733  10.638
63302W        W34831  19.579  44.258  12.428
63303W        W34832  35.716   9.601  14.442
63304W        W34833  26.198  20.122   4.689
63305W        W34834  19.478  13.365   1.616
63306W        W34835  17.009   1.770   3.358
63307W        W34836  15.514  30.727   3.776
63308W        W34837  40.766  18.542   2.664
63309W        W34838  26.135  30.363   1.687
63310W        W34839  41.413  34.011  13.329
63311W        W34840  37.861  34.376  12.260
63312W        W34841  33.806  28.375  10.762
63313W        W34842  18.743  28.034   2.936
63314W        W34843   8.410   1.902   2.239
63315W        W34844  19.119  33.296  12.578
63316W        W34845  18.033   1.724  12.550
63317W        W34846  41.771  34.140   1.153
63318W        W34847   4.067  37.915   0.806
63319W        W34848   6.891  36.116   2.868
63320W        W34849   3.308  14.828   4.606
63321W        W34850  34.639  25.676  12.549
63322W        W34851   3.962  25.273  13.791
63323W        W34852  17.272  37.171   3.672
63324W        W34853   3.908  42.387  11.390
63325W        W34854  44.708  15.631  10.509
63326W        W34855  30.791  38.505  12.576
63327W        W34856   7.597  11.077   0.782
63328W        W34857  35.922  24.444   4.868
63329W        W34858  20.459  20.622   3.261
63330W        W34859  10.777  21.475   4.991
63331W        W34860   3.021  19.092  14.331
63332W        W34861  41.471  22.119  11.252
63333W        W34862   8.973  11.396   1.365
63334W        W34863  18.872  37.033  13.662
63335W        W34864  27.300  19.045  13.761
63336W        W34865  28.534  20.184   4.675
63337W        W34866  17.451  11.304   2.177
63338W        W34867  38.122  29.669  12.042
63339W        W34868  12.201  33.959  10.634
63340W        W34869   8.694  30.626  11.660
63341W        W34870  13.168  22.487   1.949
63342W        W34871   3.324  11.386  13.272
63343W        W34872   9.223  44.717  12.414
63344W        W34873  40.566   7.150   3.074
63345W        W34874  21.034   8.479  10.725
63346W        W34875  25.984  39.393  13.021
63347W        W34876   6.413   5.343   4.204
63348W        W34877  30.133   2.092   0.199
63349W        W34878  28.031  14.616   3.318
63350W        W34879  24.301  18.241   1.492
63351W        W34880  20.637  15.809  13.862
63352W        W34881  34.445  14.337   1.320
63353W        W34882  37.623   7.222   0.806
63354W        W34883   7.751  29.152  12.451
63355W        W34884   1.212   0.334   4.581
63356W        W34885  38.783  22.834  11.301
63357W        W34886  44.413  20.793   4.044
63358W        W34887   4.167   4.873  10.372
63359W        W34888  26.179  25.957  13.020
63360W        W34889   3.746  25.700   3.234
63361W        W34890  17.176  32.653  13.607
63362W        W34891   5.607  33.566  12.884
63363W        W34892   7.274  22.984  11.990
63364W        W34893  44.286  19.965  14.511
63365W        W34894   9.273  19.824   4.518
63366W        W34895  44.218  40.153  11.564
63367W        W34896  39.905  42.962  11.109
63368W        W34897  21.827  20.263   3.214
63369W        W34898  37.388  38.291  13.973
63370W        W34899  36.486  29.353   0.865
63371W        W34900  25.858   0.468   3.105
63372W        W34901  27.666   8.332  11.505
63373W        W34902  22.324  44.495  12.441
63374W        W34903  14.037  43.646   2.909
63375W        W34904  13.562   5.123   0.882
63376W        W34905   9.855  22.401   4.179
63377W        W34906  18.147   4.430   3.767
63378W        W34907  30.088  41.911  13.050
63379W        W34908   1.390  20.127   4.532
63380W        W34909  22.612  32.141   4.273
63381W        W34910  32.099  11.145   2.916
63382W        W34911  30.422  43.514  14.919
63383W        W34912  27.129  21.482  13.012
63384W        W34913   0.305  35.743  12.987
63385W        W34914   2.430  22.637  12.117
63386W        W34915  37.534   9.490  13.058
63387W        W34916  26.046  23.384  13.729
63388W        W34917  38.508  20.747  11.971
63389W        W34918  26.566  36.596   1.295
63390W        W34919  17.804  39.458   2.556
63391W        W34920  35.998  35.294  12.219
63392W        W34921  39.540   9.199   2.429
63393W        W34922   3.345  40.388  14.860
63394W        W34923   6.628  37.958   2.583
63395W        W34924  37.432  42.466   4.057
63396W        W34925  13.862   4.774  14.674
63397W        W34926  10.491  18.299   3.711
63398W        W34927  10.905  26.601  12.629
63399W        W34928  32.103  40.818  12.065
63400W        W34929  24.696  12.677   2.610
63401W        W34930  42.469  11.203   3.747
63402W        W34931   7.200  31.477   1.181
63403W        W34932  41.444  20.664   1.365
63404W        W34933  30.867  40.462  11.169
63405W        W34934  44.460  10.213  12.947
63406W        W34935  16.276  26.056   1.515
63407W        W34936  34.963  31.203   1.412
63408W        W34937  18.706  40.025   4.219
63409W        W34938  37.335  16.767   4.428
63410W        W34939   5.636   9.874  14.872
63411W        W34940  26.679   8.266  11.526
63412W        W34941  27.108  24.827  13.581
63413W        W34942  22.598  36.456  11.345
63414W        W34943   0.945  16.977   4.144
63415W        W34944  38.551   0.941  10.888
63416W        W34945   4.897  35.639  14.385
63417W        W34946  12.153   3.903   2.145
63418W        W34947  27.753  19.838  13.365
63419W        W34948  21.019  29.916   3.740
63420W        W34949  34.835  18.237   3.635
63421W        W34950  36.401  27.953   1.789
63422W        W34951   7.617   9.334  13.336
63423W        W34952  37.130  26.717  10.840
63424W        W34953  32.977   3.222   2.022
63425W        W34954   3.014   6.266  14.835
63426W        W34955   8.158  25.807  11.327
63427W        W34956  25.534  20.472  14.918
63428W        W34957  33.884   5.321   3.129
63429W        W34958  32.119  26.897   2.797
63430W        W34959  34.511  29.228  11.599
63431W        W34960  26.935  39.013   1.749
63432W        W34961  33.934  28.559   2.431
63433W        W34962   9.027  22.997  13.116
63434W        W34963   0.916   6.938   3.619
63435W        W34964  14.244  12.431   1.766
63436W        W34965   4.934  15.333   0.596
63437W        W34966  42.040  18.720   2.749
63438W        W34967  43.278  15.617   4.166
63439W        W34968  32.195  39.613   0.378
63440W        W34969   9.880  44.876   3.590
63441W        W34970  39.801  28.173   0.030
63442W        W34971  17.164  30.991  14.893
63443W        W34972  41.849   7.282  11.607
63444W        W34973  21.086  27.380  11.953
63445W        W34974   4.446   4.152  10.914
63446W        W34975   5.767  27.726   4.124
63447W        W34976   6.496  27.726  12.555
63448W        W34977  42.719  26.389  12.955
63449W        W34978  26.215  32.424   0.869
63450W        W34979   8.291  38.945  13.807
63451W        W34980  37.538  35.861   0.364
63452W        W34981  12.589  38.786  11.804
63453W        W34982  35.174  16.716   2.304
63454W        W34983  26.529  41.571   0.444
63455W        W34984  15.280  34.101  14.395
63456W        W34985  41.216  32.381  10.749
63457W        W34986  29.062   7.961  14.419
63458W        W34987  37.114  12.400  14.905
63459W        W34988  17.448  36.914   2.284
63460W        W34989  33.456  22.493   5.039
63461W        W34990  29.948  30.485   2.257
63462W        W34991  14.773   3.247   2.816
63463W        W34992  15.803   0.288   2.726
63464W        W34993  39.793  26.103   3.167
63465W        W34994   4.477  42.325   3.710
63466W        W34995   2.950   8.719   2.604
63467W        W34996  11.429  32.698   3.267
63468W        W34997  35.424  24.838   2.718
63469W        W34998  22.428   2.383   0.969
63470W        W34999  10.742   3.417   1.353
63471W        W35000  15.965  35.048  13.780
63472W        W35001  27.829  28.587  10.529
63473W        W35002  43.028  32.804   3.367
63474W        W35003  20.984  43.518  14.367
63475W        W35004   7.373  38.388  11.616
63476W        W35005  16.333  44.553  12.040
63477W        W35006   2.771   0.051  11.163
63478W        W35007  19.664   4.798  10.771
63479W        W35008  44.465  44.817  14.074
63480W        W35009  11.650  14.644   2.188
63481W        W35010  25.078   0.455   2.742
63482W        W35011  30.138   8.941   3.793
63483W        W35012  34.092  44.882  12.162
63484W        W35013   2.831   3.353   4.957
63485W        W35014  28.226  41.062   4.269
63486W        W35015  12.401  41.861  13.177
63487W        W35016  17.325  34.998  11.977
63488W        W35017   9.356   6.590  14.242
63489W        W35018  43.425   2.738  13.105
63490W        W35019  33.064  15.568  12.042
63491W        W35020  42.941   4.793   4.969
63492W        W35021  31.671  16.231   3.775
63493W        W35022  28.508   2.925   0.447
63494W        W35023  37.051  21.067  12.511
63495W        W35024  36.371   9.410   4.050
63496W        W35025  30.197  31.689   1.880
63497W        W35026  25.243  32.950  14.631
63498W        W35027  43.253  10.172  12.522
63499W        W35028  14.783  31.185  14.957
63500W        W35029  31.166  16.532  13.178
63501W        W35030  27.745  39.571  11.567
63502W        W35031  26.655  19.224  11.244
63503W        W35032  38.417  27.974   1.919
63504W        W35033  43.370  19.045   3.699
63505W        W35034  22.219  30.481   2.324
63506W        W35035  10.892  34.512   1.939
63507W        W35036  15.382  43.786   4.048
63508W        W35037  15.147  17.175   2.865
63509W        W35038  42.507  10.145  10.752
63510W        W35039  36.852   3.423  14.462
63511W        W35040  20.515   4.329   4.349
63512W        W35041   7.868  25.208   5.006
63513W        W35042  30.346  44.598  13.111
63514W        W35043  31.637  13.265   1.412
63515W        W35044  30.916   5.383  14.535
63516W        W35045  41.013  16.389   0.996
63517W        W35046   2.311  32.608   3.602
63518W        W35047   4.203   7.498   2.323
63519W        W35048  39.507   6.360  13.511
63520W        W35049  31.112  31.347  14.030
63521W        W35050  20.442  31.002  11.887
63522W        W35051  23.022   0.248  12.204
63523W        W35052  41.926  21.290   1.792
63524W        W35053  26.086   5.532   0.412
63525W        W35054  14.154  27.396  11.213
63526W        W35055   8.655  41.714  14.264
63527W        W35056  31.560   3.774  14.419
63528W        W35057   1.144   1.978  11.271
63529W        W35058   0.381  42.200  12.218
63530W        W35059  34.924  29.247   1.923
63531W        W35060   5.301   1.786  12.289
63532W        W35061  28.584  44.476  11.709
63533W        W35062   7.911  38.560  12.465
63534W        W35063  26.153  31.580  14.400
63535W        W35064  21.124   3.944   3.848
63536W        W35065   8.433  42.342   4.145
63537W        W35066  31.008  23.341   0.865
63538W        W35067  19.287   6.043   4.204
63539W        W35068  31.608   7.199   3.111
63540W        W35069  35.566   3.581   0.267
63541W        W35070  11.898  25.977  14.451
63542W        W35071   6.420   1.765   3.651
63543W        W35072   7.625   0.762  14.453
63544W        W35073   1.294  26.152  12.940
63545W        W35074   5.865  40.779   4.256
63546W        W35075   2.138  22.472  10.596
63547W        W35076  32.310  19.581   0.197
63548W        W35077  13.809   3.669   1.689
63549W        W35078  43.815  37.461  12.544
63550W        W35079   5.315   2.897  10.243
63551W        W35080   9.169  42.897  12.111
63552W        W35081  13.216  37.392   0.703
63553W        W35082  37.548   1.320  14.841
63554W        W35083  14.812  28.669  12.853
63555W        W35084  34.079  16.370   4.744
63556W        W35085   3.588  38.665  12.081
63557W        W35086  34.404   6.873   4.518
63558W        W35087  31.820  44.681  12.519
63559W        W35088  26.197  38.562  14.449
63560W        W35089  27.060   7.001  14.455
63561W        W35090  20.662  27.077  11.616
63562W        W35091  19.236   0.279  12.988
63563W        W35092  34.549  26.031  11.731
63564W        W35093  37.881  28.441   2.784
63565W        W35094   4.231  16.846   4.185
63566W        W35095   3.897  44.631  13.124
63567W        W35096  23.725  30.024  14.106
63568W        W35097  21.008   8.460   0.695
63569W        W35098  44.781  38.886   1.631
63570W        W35099  13.729   1.153   1.797
63571W        W35100   0.500  39.068  11.452
63572W        W35101  38.041  39.946  11.255
63573W        W35102  10.332  35.903   2.778
63574W        W35103   5.595  42.894  12.699
63575W        W35104  19.830   4.315   1.647
63576W        W35105  10.727  23.501  10.808
63577W        W35106  24.656   3.858  14.844
63578W        W35107  34.401  25.228   2.398
63579W        W35108  26.294   7.553  13.206
63580W        W35109  31.158  35.810  12.985
63581W        W35110  28.730   6.648  14.819
63582W        W35111   0.387  31.612   3.356
63583W        W35112   9.430  14.275   0.919
63584W        W35113  20.949  23.810   0.430
63585W        W35114  26.279  33.607  11.123
63586W        W35115   3.207  25.532  11.639
63587W        W35116  12.322   6.467  12.542
63588W        W35117  11.733  23.428   4.543
63589W        W35118  36.120  18.192   4.559
63590W        W35119  12.563   4.448   0.803
63591W        W35120  36.225  13.173   0.420
63592W        W35121   8.968  31.004   1.274
63593W        W35122  25.976  25.181   0.967
63594W        W35123  21.729  16.575  12.527
63595W        W35124  31.476  25.521   3.538
63596W        W35125  33.444   1.135   1.267
63597W        W35126  31.362  42.986   2.246
63598W        W35127  16.470   2.462   0.470
63599W        W35128  13.412  29.144  12.457
63600W        W35129  24.464  12.660  14.891
63601W        W35130   4.983  39.479  10.715
63602W        W35131  36.341  32.960  12.803
63603W        W35132  32.282  11.218   4.595
63604W        W35133  19.330   4.547  11.728
63605W        W35134   4.310  27.367   2.664
63606W        W35135  25.621  31.086  13.399
63607W        W35136  21.767  31.054   3.875
63608W        W35137  30.883   2.968   3.290
63609W        W35138  22.652  16.829  13.463
63610W        W35139  25.429  18.749   1.739
63611W        W35140  16.315  27.147   3.823
63612W        W35141  34.150  15.245  14.315
63613W        W35142   8.518  15.674  12.988
63614W        W35143  22.740   6.401   0.384
63615W        W35144  40.414   0.995  12.403
63616W        W35145  37.631  13.278  11.079
63617W        W35146  31.063  40.164  11.667
63618W        W35147  39.219  25.070  12.600
63619W        W35148   6.800  18.275   2.468
63620W        W35149  44.717  40.051   4.289
63621W        W35150  15.632  35.439   2.653
63622W        W35151  15.025  39.036   3.780
63623W        W35152   4.946  39.570   2.557
63624W        W35153   3.991  25.652   3.695
63625W        W35154  37.808  37.504  14.822
63626W        W35155  16.425  29.808   2.332
63627W        W35156  28.655  20.582   2.547
63628W        W35157   7.432  36.740   4.068
63629W        W35158  30.585   3.203  13.581
63630W        W35159  31.273  44.446  13.490
63631W        W35160  10.264  23.192  10.747
63632W        W35161  29.952   0.753   2.309
63633W        W35162  15.225   4.765   9.818
63634W        W35163  44.236  41.925  13.936
63635W        W35164   9.469   8.795   2.338
63636W        W35165  39.473   9.084   1.916
63637W        W35166   7.380  30.620   2.194
63638W        W35167  17.835   3.248   2.707
63639W        W35168  37.559  35.391  11.456
63640W        W35169  35.218  42.421  11.678
63641W        W35170  26.613   4.344   4.788
63642W        W35171  10.290  40.854  13.053
63643W        W35172   7.180   2.454  14.030
63644W        W35173  24.579   9.928  11.694
63645W        W35174   6.787  16.661  12.622
63646W        W35175  18.745  23.956  10.673
63647W        W35176   1.210   3.338  13.449
63648W        W35177  22.108  17.624   1.389
63649W        W35178   3.659  34.571   3.453
63650W        W35179   3.237  40.076  10.708
63651W        W35180  15.618   2.028  10.256
63652W        W35181  30.117  24.070   2.660
63653W        W35182  21.239  33.018  14.386
63654W        W35183  22.167  34.497   2.710
63655W        W35184  29.181  20.912   1.867
63656W        W35185  43.829   7.713  12.846
63657W        W35186  26.023  17.516   3.487
63658W        W35187  31.244  33.843   1.823
63659W        W35188  30.080  22.638   2.745
63660W        W35189  30.923   7.590  14.169
63661W        W35190  18.051  29.013   1.326
63662W        W35191  37.684  34.509  13.279
63663W        W35192  21.651  37.573   3.350
63664W        W35193   3.695  17.059  11.908
63665W        W35194  29.566  26.475   1.900
63666W        W35195  35.139  18.199  11.587
63667W        W35196  13.797  15.362   1.288
63668W        W35197   1.701   9.175   4.652
63669W        W35198  18.914  33.659   0.490
63670W        W35199   6.328  27.560   0.215
63671W        W35200  43.901  13.009   4.901
63672W        W35201  25.666   5.382  12.845
63673W        W35202   1.295  21.537   3.223
63674W        W35203   5.236   7.135  12.120
63675W        W35204  18.461  14.669   3.638
63676W        W35205  25.235   0.311   2.225
63677W        W35206  20.907  12.315  10.648
63678W        W35207  42.277  32.825   0.833
63679W        W35208   3.855  28.090  11.935
63680W        W35209  37.917  14.662   3.695
63681W        W35210   8.750  25.323   1.428
63682W        W35211  18.048  37.365  14.481
63683W        W35212  14.533  29.175  14.937
63684W        W35213   8.145  40.809  11.444
63685W        W35214  16.572   3.708  14.836
63686W        W35215  24.142   5.210   3.543
63687W        W35216  15.313   9.814  11.658
63688W        W35217  40.792   3.889  14.005
63689W        W35218  38.991  15.208   1.497
63690W        W35219  13.432   8.464   4.406
63691W        W35220  31.504  28.889  12.099
63692W        W35221  16.080  43.455   3.625
63693W        W35222   9.753  40.710  11.070
63694W        W35223  43.353   9.465   4.970
63695W        W35224  34.850  15.101   4.202
63696W        W35225  31.166   5.467   2.409
63697W        W35226  34.491  10.684  12.018
63698W        W35227  10.093   3.756  11.463
63699W        W35228   6.137   1.403   2.801
63700W        W35229   1.726   1.462   0.208
63701W        W35230  13.779  11.162   3.734
63702W        W35231  44.042   0.437  12.696
63703W        W35232  40.185  32.015   3.042
63704W        W35233  37.565  26.418   2.384
63705W        W35234  13.875  24.184   3.374
63706W        W35235  41.581  36.422   0.453
63707W        W35236  43.392  36.096   0.345
63708W        W35237   8.101  42.021  13.416
63709W        W35238  15.744  20.246   0.713
63710W        W35239  35.269  39.245  12.319
63711W        W35240  36.403  13.913  14.359
63712W        W35241  13.640  10.250  11.972
63713W        W35242  36.066  42.038  14.443
63714W        W35243  34.097  10.147   0.500
63715W        W35244  30.190  10.721  12.404
63716W        W35245   3.558  44.338  13.856
63717W        W35246  22.060  32.562   2.172
63718W        W35247  20.924  26.700  10.591
63719W        W35248  28.598  18.968   4.038
63720W        W35249   2.686  15.478   1.917
63721W        W35250  22.476  20.640  12.525
63722W        W35251  27.969  35.517  13.038
63723W        W35252  19.310  27.810  13.366
63724W        W35253  32.901  22.577   3.297
63725W        W35254  31.474  12.859   4.650
63726W        W35255  22.905  24.048   2.899
63727W        W35256  25.826  23.707   2.654
63728W        W35257  33.161   2.874   3.812
63729W        W35258  26.876  35.151   3.397
63730W        W35259   4.396  39.463  10.664
63731W        W35260  23.465  16.672   0.356
63732W        W35261  40.662  21.891   4.156
63733W        W35262   2.341  10.691   1.706
63734W        W35263  36.320  26.618  11.653
63735W        W35264  18.990   2.564   4.485
63736W        W35265  21.997  10.625   2.311
63737W        W35266  42.565  43.101   4.101
63738W        W35267  38.654   4.844  10.855
63739W        W35268  31.174  43.340   1.511
63740W        W35269  25.631  25.869   2.962
63741W        W35270  31.058  19.293  13.316
63742W        W35271  28.164  35.496   3.877
63743W        W35272   5.697  38.435   1.410
63744W        W35273  12.196  32.654   1.782
63745W        W35274  12.076  37.920  14.490
63746W        W35275  23.501  16.203   4.030
63747W        W35276  36.821  28.583  11.668
63748W        W35277  30.973  23.197  12.971
63749W        W35278  28.584  24.877  13.863
63750W        W35279   7.774  32.221   4.067
63751W        W35280  14.889  30.095  10.191
63752W        W35281  21.071  18.529  13.041
63753W        W35282  38.881  22.557  10.546
63754W        W35283   8.439  15.152  12.380
63755W        W35284  32.354  23.334   3.196
63756W        W35285   2.957  39.520  12.160
63757W        W35286   3.479  17.856   4.094
63758W        W35287  41.065   8.410  12.671
63759W        W35288  10.126  26.091   2.704
63760W        W35289   1.337  13.562  13.421
63761W        W35290  24.126  39.636  10.914
63762W        W35291  37.533  44.913  13.433
63763W        W35292  41.235  18.258   3.675
63764W        W35293  28.188  15.201  14.965
63765W        W35294   3.376  36.411   3.677
63766W        W35295  12.135   5.648  12.950
63767W        W35296  17.113  27.873  10.991
63768W        W35297   7.946  25.426   4.549
63769W        W35298   4.201   9.398   1.809
63770W        W35299  23.433  31.071   4.785
63771W        W35300  16.894  19.381   1.358
63772W        W35301  31.581   6.272   2.935
63773W        W35302  10.058  23.465  13.075
63774W        W35303   1.300  41.161   1.327
63775W        W35304  42.976   2.712   4.342
63776W        W35305  28.608   9.737   3.146
63777W        W35306  17.363  24.187  10.169
63778W        W35307   4.279  40.019   0.987
63779W        W35308  22.574  18.774   3.397
63780W        W35309  31.192  43.196  10.786
63781W        W35310  31.156  15.523  14.275
63782W        W35311   3.464  34.152   3.207
63783W        W35312   5.305  36.127  13.816
63784W        W35313  25.484  20.574  13.054
63785W        W35314  10.572   6.076   1.407
63786W        W35315   6.211  22.213  14.867
63787W        W35316  36.330  26.242   1.213
63788W        W35317  39.286  41.686  11.130
63789W        W35318  15.490  13.267  13.349
63790W        W35319  19.414  27.228  13.957
63791W        W35320  43.600  40.310  10.722
63792W        W35321  28.728  31.842   5.359
63793W        W35322   8.305  36.001   3.305
63794W        W35323  42.027  18.804   1.248
63795W        W35324  29.200  14.859   0.451
63796W        W35325   2.902  42.687  12.041
63797W        W35326  36.832  26.627  11.632
63798W        W35327  38.650  26.749   0.507
63799W        W35328  35.644  10.173  12.536
63800W        W35329  19.153  32.646   0.964
63801W        W35330  19.017   1.542  10.415
63802W        W35331   9.088  31.423   0.474
63803W        W35332   5.201  41.213   2.293
63804W        W35333   3.110  20.028  10.777
63805W        W35334  20.156  11.835   3.797
63806W        W35335   4.777  19.440   2.341
63807W        W35336  14.026   0.788   0.898
63808W        W35337  18.972  26.309  13.320
63809W        W35338  30.666  44.127  11.530
63810W        W35339  14.068  34.099   2.706
63811W        W35340  33.847   4.308  14.731
63812W        W35341   7.787  42.456  13.369
63813W        W35342  25.143  31.074   0.274
63814W        W35343  34.434  13.285   1.275
63815W        W35344   1.743  22.137  12.010
63816W        W35345  28.201  22.204  13.157
63817W        W35346   2.874  41.982  14.362
63818W        W35347  34.096  42.239  14.043
63819W        W35348  30.859  14.628  12.642
63820W        W35349  33.787  33.506  10.256
63821W        W35350  43.483  35.994   2.641
63822W        W35351  41.059  36.902  11.300
63823W        W35352  28.929  26.396   0.232
63824W        W35353  19.628  18.758   1.950
63825W        W35354  32.398   8.176   3.593
63826W        W35355  15.237  37.963  12.453
63827W        W35356  38.214  37.800  14.999
63828W        W35357  11.407  34.548   1.991
63829W        W35358  12.721  31.797   5.178
63830W        W35359   3.325   0.923  14.181
63831W        W35360  24.414   1.869  10.873
63832W        W35361  11.887  25.467  14.563
63833W        W35362  41.590  44.244  11.505
63834W        W35363  12.780  31.232  13.941
63835W        W35364  39.483  16.105  12.588
63836W        W35365  12.258  12.105  10.790
63837W        W35366   5.138   2.484  14.865
63838W        W35367  25.449  30.715   4.583
63839W        W35368  15.602  13.228   4.043
63840W        W35369  21.947  10.918   1.666
63841W        W35370  40.424  33.600  14.744
63842W        W35371  32.477   5.635   0.892
63843W        W35372   3.873   4.916   3.100
63844W        W35373  35.865  11.844  11.959
63845W        W35374  39.292  15.025  14.295
63846W        W35375  18.993   7.388  10.745
63847W        W35376   7.267  30.982   1.031
63848W        W35377  13.738   1.325  12.014
63849W        W35378   7.743  11.473   2.457
63850W        W35379   3.524  13.717   1.266
63851W        W35380  32.465  10.701  14.073
63852W        W35381  29.460   7.396   1.808
63853W        W35382  34.636  44.939  11.106
63854W        W35383   7.828  29.697   2.472
63855W        W35384  27.723  34.980   3.535
63856W        W35385  30.917  15.270  13.462
63857W        W35386  35.889  44.970   3.583
63858W        W35387  29.160  36.936   2.780
63859W        W35388  43.641  31.876   0.120
63860W        W35389  22.731  23.072  14.928
63861W        W35390  44.755  14.717   2.490
63862W        W35391   9.792   0.728  14.546
63863W        W35392  17.546  19.193  10.575
63864W        W35393  42.455  35.043   2.369
63865W        W35394  17.893   6.423  10.786
63866W        W35395  29.606   4.181   3.698
63867W        W35396  36.507  32.099   4.508
63868W        W35397  38.761  36.488  14.284
63869W        W35398   5.628  37.395   3.944
63870W        W35399  20.285  21.608  14.359
63871W        W35400  32.986  40.501  14.643
63872W        W35401   0.078  35.214   1.903
63873W        W35402  36.952  10.897  13.629
63874W        W35403  37.400  25.583   0.378
63875W        W35404  13.118  18.769  12.973
63876W        W35405  22.744  41.434   4.630
63877W        W35406   7.014  32.686   1.228
63878W        W35407  40.546  11.981   5.057
63879W        W35408  31.397   5.153   1.258
63880W        W35409  20.927  37.240  12.988
63881W        W35410  34.581  10.421   1.894
63882W        W35411  33.794  40.272  13.309
63883W        W35412  43.255  23.606   1.486
63884W        W35413  42.586  28.425  11.738
63885W        W35414  36.141  29.049  12.947
63886W        W35415  38.843   6.712   3.696
63887W        W35416  31.009  38.459  14.260
63888W        W35417  31.948  37.780  13.354
63889W        W35418  23.480  33.300   2.961
63890W        W35419  22.405   7.877  12.544
63891W        W35420  34.171  30.638  12.002
63892W        W35421   3.783  15.697  10.755
63893W        W35422   6.582   5.100  14.765
63894W        W35423  28.081  24.772   1.410
63895W        W35424  28.734   5.272  12.087
63896W        W35425  10.228  14.228   1.416
63897W        W35426  15.307  36.688  13.028
63898W        W35427  37.653  39.097  12.007
63899W        W35428  42.025  41.244   3.928
63900W        W35429   6.174   9.891   0.308
63901W        W35430  31.580  32.423   1.362
63902W        W35431  32.479  27.757   3.586
63903W        W35432   1.411   5.692  12.129
63904W        W35433  36.046   7.347   1.734
63905W        W35434  43.357  16.073   1.962
63906W        W35435  13.802   9.042  12.496
63907W        W35436  22.465  27.042  14.016
63908W        W35437  24.410   2.462  13.337
63909W        W35438  26.586  21.439  13.021
63910W        W35439  38.306  29.854   3.231
63911W        W35440  15.066   9.680   3.771
63912W        W35441  16.224  23.428   2.632
63913W        W35442  40.502  24.521   1.318
63914W        W35443   1.324   4.147  13.131
63915W        W35444  38.635  22.251  11.478
63916W        W35445  22.518  19.023  10.186
63917W        W35446  37.684   2.556   2.652
63918W        W35447  41.638  35.365  12.457
63919W        W35448  17.486  33.416  12.142
63920W        W35449  16.250  13.374  11.075
63921W        W35450  17.624  13.125  13.500
63922W        W35451  24.666   7.259  13.301
63923W        W35452  43.050  31.543   2.303
63924W        W35453  32.021  13.752   0.926
63925W        W35454  21.671  21.563   2.709
63926W        W35455  26.475  22.632   2.573
63927W        W35456  10.774  20.099  12.086
63928W        W35457  41.246  14.438  13.790
63929W        W35458  13.754   8.144  10.204
63930W        W35459   5.343  39.856  10.722
63931W        W35460  33.906  29.012   2.717
63932W        W35461   5.233  13.663  10.763
63933W        W35462  31.911   7.383   0.240
63934W        W35463  30.193  16.793   4.317
63935W        W35464  40.718  34.617  13.054
63936W        W35465  11.062  39.095   3.789
63937W        W35466  27.935  24.790  14.184
63938W        W35467  35.178  22.303  11.561
63939W        W35468  16.122  37.129  11.989
63940W        W35469  10.569  25.125   4.985
63941W        W35470  37.063   3.743  12.148
63942W        W35471  40.473  23.190  11.633
63943W        W35472  23.977  19.324   4.786
63944W        W35473   4.133  29.112   0.917
63945W        W35474  21.724  15.649  12.366
63946W        W35475  22.742   2.257   1.342
63947W        W35476   2.879  11.175  14.512
63948W        W35477  21.714   8.219   3.551
63949W        W35478  21.939  13.214  13.989
63950W        W35479  13.791  36.689  14.639
63951W        W35480  17.736  14.382  12.584
63952W        W35481  32.361  19.476   3.532
63953W        W35482  25.958   8.868  14.990
63954W        W35483   9.719  36.537   4.261
63955W        W35484   3.730  32.678   4.200
63956W        W35485   2.957  29.109   1.643
63957W        W35486   8.135   9.635   2.660
63958W        W35487  13.381  40.017   0.886
63959W        W35488  29.015  18.164   3.721
63960W        W35489  30.000  21.724  13.051
63961W        W35490  25.634  35.127   1.311
63962W        W35491  28.799  27.935  13.562
63963W        W35492  34.136  11.516  11.166
63964W        W35493  27.542   8.391   4.656
63965W        W35494  29.420  26.027  14.422
63966W        W35495  44.828  30.003  13.577
63967W        W35496  15.835  28.660  13.975
63968W        W35497  33.777  40.278   0.801
63969W        W35498  17.265  22.989   4.512
63970W        W35499   9.323  13.105  12.862
63971W        W35500   4.202  13.736   4.601
63972W        W35501  12.208  20.006  12.294
63973W        W35502  10.623  16.248  13.904
63974W        W35503  35.593   5.640  12.764
63975W        W35504   3.610  20.019   0.952
63976W        W35505  14.193  16.006  10.749
63977W        W35506  24.267  34.229  10.734
63978W        W35507  16.824   8.764   3.592
63979W        W35508  28.507  29.441   3.093
63980W        W35509  12.599  20.767  12.531
63981W        W35510   2.578  22.526   2.678
63982W        W35511  31.495   1.545  12.470
63983W        W35512  34.904  10.307  14.000
63984W        W35513  27.430  14.818  14.969
63985W        W35514  12.446  33.347   1.133
63986W        W35515  15.111  41.013  11.168
63987W        W35516   5.002  22.993  13.335
63988W        W35517  40.414  16.391   1.889
63989W        W35518  30.015   1.351   0.546
63990W        W35519  27.044  27.996   1.695
63991W        W35520  38.071  27.511   2.592
63992W        W35521   8.716  38.116  13.060
63993W        W35522  38.998  14.110  14.921
63994W        W35523  26.674  19.620   3.337
63995W        W35524  26.393  30.540  10.413
63996W        W35525  15.268  39.231   0.288
63997W        W35526  21.893  13.555   0.846
63998W        W35527  27.940  18.269   5.097
63999W        W35528  33.621  21.779  12.862
64000W        W35529   3.493  44.406   2.142
64001W        W35530  26.846  12.914   2.675
64002W        W35531  10.700   8.662   0.916
64003W        W35532  14.774  35.906   0.321
64004W        W35533  14.280  39.344   4.323
64005W        W35534  13.062  19.397  10.480
64006W        W35535   4.837  27.906  11.180
64007W        W35536  29.002   8.729   0.785
64008W        W35537  26.223   4.449   0.874
64009W        W35538   1.735  35.458   1.203
64010W        W35539  29.810  26.713   0.532
64011W        W35540  19.647  20.053   0.868
64012W        W35541  43.917  23.666   4.139
64013W        W35542  43.832  44.604  11.847
64014W        W35543  17.101  34.163   2.743
64015W        W35544  17.155  36.168   3.450
64016W        W35545  26.044  16.142   3.257
64017W        W35546  21.701  36.863   4.141
64018W        W35547  40.841   9.969  11.560
64019W        W35548   1.290  27.139  10.331
64020W        W35549  22.749  13.841   3.732
64021W        W35550   2.005  29.509   1.952
64022W        W35551  21.093  38.336   2.634
64023W        W35552   9.191  44.792  14.353
64024W        W35553  42.465  34.525   0.451
64025W        W35554  43.794  17.261   2.158
64026W        W35555  31.431   2.711   0.410
64027W        W35556   7.307  25.982   4.099
64028W        W35557   7.609   4.917  13.915
64029W        W35558  16.165  20.766   2.600
64030W        W35559  37.368   0.566  11.691
64031W        W35560  30.627  19.214  13.588
64032W        W35561   4.190  10.917   4.217
64033W        W35562  39.266  41.905  14.060
64034W        W35563   3.484  17.069  13.889
64035W        W35564  27.080   3.316  12.521
64036W        W35565   8.636  26.421   2.319
64037W        W35566   8.353  19.838   2.888
64038W        W35567  26.931   2.947  11.585
64039W        W35568  24.688  23.923  11.456
64040W        W35569  42.742  44.752  11.272
64041W        W35570   3.976   0.408  14.839
64042W        W35571  37.485  26.848  14.865
64043W        W35572   7.466  16.203   2.234
64044W        W35573   3.381  35.031   4.129
64045W        W35574   2.959   9.612   2.324
64046W        W35575   8.250  35.213   1.964
64047W        W35576  10.902  44.371  10.490
64048W        W35577  27.048  14.657  13.120
64049W        W35578  38.086  29.602  11.487
64050W        W35579   2.264   9.129  14.400
64051W        W35580  42.552  22.865   4.459
64052W        W35581   4.793  17.937   2.295
64053W        W35582  27.423   2.999   1.854
64054W        W35583  22.200  33.380  13.185
64055W        W35584  24.308  30.733  10.192
64056W        W35585   6.574  42.363   4.542
64057W        W35586   7.265   1.370  12.031
64058W        W35587  35.876  20.564   1.484
64059W        W35588  41.901  13.312  14.064
64060W        W35589  33.400  19.625   1.907
64061W        W35590  32.676   0.831  10.590
64062W        W35591   7.435  25.111   2.671
64063W        W35592  20.676  37.993   4.598
64064W        W35593  16.594  10.251  11.646
64065W        W35594  22.662  30.798  10.558
64066W        W35595  36.129  43.824   0.731
64067W        W35596  35.140  28.851  12.055
64068W        W35597  38.559  44.177  11.058
64069W        W35598  23.248   2.288  11.439
64070W        W35599  29.344  28.930  12.113
64071W        W35600  32.009  39.404  13.644
64072W        W35601   6.936  35.352  12.030
64073W        W35602  24.802  43.321  14.415
64074W        W35603  23.684   8.578   4.461
64075W        W35604   4.966  16.243   1.062
64076W        W35605  42.278  23.703  13.636
64077W        W35606  42.709   9.335   2.361
64078W        W35607  21.477  30.921   4.277
64079W        W35608  41.785  24.590  13.352
64080W        W35609  28.155  22.007   1.173
64081W        W35610  26.127  29.457  13.323
64082W        W35611  42.458  21.576   0.988
64083W        W35612  43.029  17.215  12.089
64084W        W35613   1.577  27.871  14.939
64085W        W35614  38.137  23.049  13.801
64086W        W35615  33.884  42.790   2.926
64087W        W35616  14.121   1.294   0.867
64088W        W35617  15.252  44.051   2.450
64089W        W35618  35.163   5.396  12.572
64090W        W35619  27.033  21.500   2.321
64091W        W35620  36.012  21.775  11.779
64092W        W35621  24.698   4.191   4.507
64093W        W35622  23.708  13.370   3.484
64094W        W35623  18.005   5.022  12.557
64095W        W35624  22.282  39.102  13.461
64096W        W35625   9.284  11.696   4.294
64097W        W35626   3.330  39.285  12.472
64098W        W35627  29.503   1.056   2.314
64099W        W35628  43.103  20.250   2.244
64100W        W35629   4.302  37.262   4.779
64101W        W35630  24.011   2.720   0.015
64102W        W35631  40.498  34.778   4.986
64103W        W35632  35.577  36.114   1.968
64104W        W35633  27.935  16.144   3.880
64105W        W35634  40.172  16.147  10.893
64106W        W35635   8.357  40.844   4.088
64107W        W35636   5.466  34.053   4.669
64108W        W35637  28.105  35.475   2.005
64109W        W35638  24.997  44.242   0.366
64110W        W35639  16.878  44.435  12.819
64111W        W35640  18.695  21.481  10.742
64112W        W35641  28.562  30.536  14.650
64113W        W35642   1.227  42.406   4.903
64114W        W35643  42.207  12.806   3.197
64115W        W35644  31.500  19.066   3.925
64116W        W35645   0.782  14.430   4.181
64117W        W35646   0.500  44.697  11.255
64118W        W35647  11.150  10.829   2.147
64119W        W35648   5.876   6.596  12.501
64120W        W35649   1.946  26.579   0.405
64121W        W35650  30.034  10.929   3.284
64122W        W35651  32.203   1.234   3.801
64123W        W35652   9.406  39.927  11.721
64124W        W35653   7.673  35.505  12.713
64125W        W35654   3.811  32.616  13.625
64126W        W35655   3.438   1.903   3.570
64127W        W35656  29.331  22.231  11.494
64128W        W35657  31.582  24.475   5.442
64129W        W35658   8.845  21.680   4.089
64130W        W35659  11.090  41.956  11.978
64131W        W35660  44.483  21.068  12.250
64132W        W35661   5.959  40.068  12.377
64133W        W35662  39.694   9.783  14.765
64134W        W35663  26.049   2.123  12.933
64135W        W35664  26.206   4.907  12.487
64136W        W35665  34.618  23.940   2.355
64137W        W35666  39.733  36.302   1.791
64138W        W35667   9.259  14.096   4.900
64139W        W35668  22.699  31.382  13.353
64140W        W35669  12.215   0.089   2.349
64141W        W35670  28.073  10.249   1.293
64142W        W35671  23.740  38.782  12.320
64143W        W35672   4.291  16.707  11.520
64144W        W35673  27.529  24.623   4.893
64145W        W35674  21.689  41.080   0.213
64146W        W35675  15.741  31.095  14.511
64147W        W35676  43.335  24.277   3.330
64148W        W35677  37.318  13.315   1.328
64149W        W35678  31.695  28.947   2.358
64150W        W35679  10.240  43.755  10.565
64151W        W35680  39.966  26.422   3.535
64152W        W35681   3.291  19.041   4.616
64153W        W35682  41.514   4.762  12.023
64154W        W35683  36.278   0.300  12.409
64155W        W35684  25.384  38.304  11.700
64156W        W35685   6.760   3.284  12.950
64157W        W35686  16.800  38.136  12.582
64158W        W35687  38.272  43.268   0.448
64159W        W35688  20.639  30.701   2.853
64160W        W35689   1.005  31.069  10.470
64161W        W35690   2.377  18.061  14.214
64162W        W35691  43.214  44.422   1.747
64163W        W35692  34.876  29.664   1.277
64164W        W35693  28.338  21.417   1.840
64165W        W35694  35.084  43.537   3.506
64166W        W35695  14.195  27.471   0.915
64167W        W35696  43.611  14.210   4.611
64168W        W35697  40.981  25.111  11.097
64169W        W35698  19.344   3.681   4.998
64170W        W35699  31.575   4.653   2.359
64171W        W35700  15.260  16.396   4.292
64172W        W35701  35.314  23.248   1.854
64173W        W35702   9.840  28.174  14.310
64174W        W35703   4.371   5.025   2.943
64175W        W35704  37.015  27.617   1.273
64176W        W35705  17.512  25.990   4.391
64177W        W35706   7.306   4.815   9.808
64178W        W35707  23.045   8.480  12.483
64179W        W35708  23.774   6.347   4.238
64180W        W35709  18.100   8.184  14.308
64181W        W35710  27.691   1.788   5.159
64182W        W35711  20.763  36.482  14.416
64183W        W35712  27.454   6.180   4.379
64184W        W35713  40.584  31.942  12.790
64185W        W35714  26.563  42.193   2.706
64186W        W35715   7.274  36.804   0.347
64187W        W35716  41.609  37.613  14.874
64188W        W35717  40.999  30.420   0.206
64189W        W35718  16.623  24.810   1.966
64190W        W35719  33.165  29.129  12.464
64191W        W35720  14.247  13.060  11.961
64192W        W35721  22.738  10.436  13.573
64193W        W35722  43.475  18.055   3.758
64194W        W35723  26.038  30.359   0.841
64195W        W35724   3.340  14.084   0.468
64196W        W35725  29.908  32.476  12.484
64197W        W35726   2.719  38.919  13.023
64198W        W35727   2.110  36.614   3.257
64199W        W35728  25.763  31.901   2.739
64200W        W35729  44.071   5.672  11.868
64201W        W35730  40.764  26.212  13.048
64202W        W35731   1.463   1.384   4.658
64203W        W35732   8.724  24.062  14.971
64204W        W35733  32.383  38.916   2.670
64205W        W35734  27.783  25.208  12.868
64206W        W35735  23.508  43.212  14.780
64207W        W35736  20.238   4.641  13.984
64208W        W35737   7.128  40.012  14.958
64209W        W35738  41.017   3.428   3.687
64210W        W35739   7.795  32.454   3.400
64211W        W35740  44.390  16.208  14.967
64212W        W35741   9.951  14.529  10.912
64213W        W35742   9.668  19.458   1.035
64214W        W35743  24.021  29.973  14.991
64215W        W35744  26.149  13.254  12.535
64216W        W35745  29.283  25.095   4.532
64217W        W35746   8.534  27.614   0.870
64218W        W35747   3.749  37.454  13.797
64219W        W35748  39.471  28.728   3.215
64220W        W35749  16.604  39.897  12.087
64221W        W35750   4.789  25.660   2.462
64222W        W35751   9.361  17.677  12.353
64223W        W35752  33.917  24.054  12.906
64224W        W35753   1.314   7.971   2.218
64225W        W35754  30.634   4.742  11.136
64226W        W35755  15.070   9.239   4.061
64227W        W35756   5.834   5.132  11.578
64228W        W35757  30.973   6.112   5.051
64229W        W35758   8.321  13.874   3.869
64230W        W35759  23.980  44.737   2.300
64231W        W35760  11.724  34.576  13.964
64232W        W35761  44.833  35.980  12.098
64233W        W35762  19.108  41.860  12.065
64234W        W35763  44.399  17.838  11.387
64235W        W35764  30.495   0.546  14.887
64236W        W35765  38.060  16.784  13.686
64237W        W35766  20.711   5.784  10.924
64238W        W35767  35.246   8.002   3.709
64239W        W35768  27.052  36.623   0.418
64240W        W35769  40.028  36.102   2.724
64241W        W35770  12.136  22.718   4.238
64242W        W35771   4.155  24.967   0.586
64243W        W35772  43.634  24.061   0.766
64244W        W35773  15.062  24.555  13.812
64245W        W35774  22.959  10.266   2.413
64246W        W35775  14.077  11.420  13.368
64247W        W35776  42.068  20.317   4.126
64248W        W35777  14.812  15.723  10.669
64249W        W35778  14.560  15.851  11.093
64250W        W35779  10.187  29.940  13.343
64251W        W35780  17.175   5.248  10.990
64252W        W35781  41.516  29.623  11.951
64253W        W35782   9.444   3.412  12.071
64254W        W35783  30.515  43.187  10.725
64255W        W35784  19.618  27.357  11.199
64256W        W35785  12.803  36.650  14.581
64257W        W35786  13.116  28.957   4.867
64258W        W35787   8.352  43.585  14.039
64259W        W35788  25.119  41.282   1.232
64260W        W35789  17.861  36.075  13.104
64261W        W35790   1.004  17.658   3.187
64262W        W35791  25.089  20.332  14.388
64263W        W35792  28.323  12.151  10.673
64264W        W35793  23.107  27.020  13.080
64265W        W35794  33.415  21.121  13.324
64266W        W35795   3.489  41.412  11.993
64267W        W35796  41.369  44.234   1.185
64268W        W35797   6.722   4.219   3.624
64269W        W35798  15.335  44.281  10.720
64270W        W35799  11.552   9.033  13.884
64271W        W35800  13.029   4.388   4.097
64272W        W35801  36.104  37.514   0.351
64273W        W35802  42.917  23.697   0.242
64274W        W35803  34.996  39.360  11.514
64275W        W35804  17.328  19.492   0.533
64276W        W35805  39.083  27.146  11.551
64277W        W35806  29.107   2.398   3.642
64278W        W35807  26.989   0.755  11.625
64279W        W35808  11.643  28.053   4.070
64280W        W35809   1.971  22.026   4.273
64281W        W35810   9.243  20.972  13.814
64282W        W35811  28.178  18.701   3.871
64283W        W35812   1.294  27.553   0.788
64284W        W35813  39.074  22.645  14.444
64285W        W35814  44.972  14.006   3.991
64286W        W35815  18.471   4.378   4.170
64287W        W35816  19.551   1.084   1.659
64288W        W35817  35.992  40.972  14.336
64289W        W35818  31.770  15.774  10.750
64290W        W35819  12.197  18.123   4.311
64291W        W35820  19.842   3.305  13.038
64292W        W35821  43.784  37.513  13.852
64293W        W35822  20.668  17.575   4.455
64294W        W35823  24.368  33.328   2.476
64295W        W35824  33.152  43.403  14.025
64296W        W35825  44.980  42.888   0.828
64297W        W35826   9.261  19.990   2.803
64298W        W35827  11.827  13.194  14.833
64299W        W35828  25.549  14.269  13.149
64300W        W35829   8.419  32.073   2.858
64301W        W35830   4.622  26.790  11.956
64302W        W35831   8.170   4.717   1.277
64303W        W35832  41.926   0.664   1.733
64304W        W35833  43.959  25.937   0.693
64305W        W35834   7.710  29.523   2.965
64306W        W35835  26.451  20.007   1.719
64307W        W35836   6.901  28.821  11.248
64308W        W35837   4.428   3.293   2.074
64309W        W35838  22.588  43.599   2.451
64310W        W35839  22.545  36.471   1.691
64311W        W35840  37.510  38.165  10.422
64312W        W35841  11.455   7.577   4.999
64313W        W35842  24.927  15.808   1.556
64314W        W35843   9.302  39.740  12.755
64315W        W35844  42.882  41.758   1.256
64316W        W35845  31.411  44.041   2.829
64317W        W35846  38.936  41.550   4.634
64318W        W35847  12.116  12.266  12.955
64319W        W35848  10.977  14.383   0.828
64320W        W35849  23.626  22.321   4.270
64321W        W35850  18.650  25.744   3.374
64322W        W35851  38.779  40.987   3.975
64323W        W35852  19.300  26.408   2.527
64324W        W35853   6.170  10.704  13.532
64325W        W35854  13.482   3.011   3.739
64326W        W35855   0.358  27.499  10.817
64327W        W35856   3.672   7.658   2.347
64328W        W35857  22.218  15.610  12.487
64329W        W35858  26.696  25.941   1.926
64330W        W35859   3.810   9.971   2.416
64331W        W35860  15.688  38.019   1.876
64332W        W35861  44.999   1.274  14.507
64333W        W35862  27.544  38.280  12.610
64334W        W35863  17.612  34.917  12.428
64335W        W35864  25.470  37.382   0.594
64336W        W35865  27.876  15.819   1.219
64337W        W35866  24.597   9.387   1.889
64338W        W35867  43.562  13.587  14.085
64339W        W35868  44.243  23.471  11.224
64340W        W35869   0.885   0.243  14.918
64341W        W35870   3.762  24.358  12.423
64342W        W35871  32.044  34.597   3.139
64343W        W35872  19.812  10.660  14.829
64344W        W35873  11.203   3.697  14.901
64345W        W35874  41.256  38.603   3.796
64346W        W35875  30.184  24.532   1.378
64347W        W35876  31.036  27.673   2.432
64348W        W35877  23.756  11.177  11.067
64349W        W35878   5.771  33.985   2.633
64350W        W35879  38.912  43.289   1.271
64351W        W35880   3.011  32.082  11.516
64352W        W35881  38.527  26.178  11.645
64353W        W35882  17.750   2.912   0.376
64354W        W35883   4.477  33.430  14.818
64355W        W35884   0.964  28.502  11.530
64356W        W35885   2.347  40.971   3.551
64357W        W35886  19.135  16.485   1.736
64358W        W35887   1.725  29.036  11.214
64359W        W35888  19.851   3.586  13.926
64360W        W35889   5.547  34.909  13.991
64361W        W35890  24.539  43.140   3.071
64362W        W35891  15.997  39.111   4.598
64363W        W35892   0.767  20.402  10.701
64364W        W35893  32.050  31.116   4.678
64365W        W35894  44.397  13.948  14.951
64366W        W35895   3.656   7.752  13.566
64367W        W35896  14.193   3.849  10.995
64368W        W35897  26.935  39.134  13.852
64369W        W35898  38.516  16.494  11.566
64370W        W35899   5.212  44.413  10.712
64371W        W35900  32.018  43.814  10.937
64372W        W35901  42.519  23.455   0.475
64373W        W35902   0.388  23.717   1.811
64374W        W35903  28.478   6.430   1.938
64375W        W35904  21.231  18.296   4.745
64376W        W35905   5.687   7.202  14.498
64377W        W35906  33.559  23.414  11.201
64378W        W35907  10.297  29.008   0.483
64379W        W35908  39.095  43.981  11.158
64380W        W35909  12.146   1.948  10.573
64381W        W35910  41.018  26.100   0.839
64382W        W35911  17.455  31.999   1.398
64383W        W35912   2.822  26.559   1.702
64384W        W35913   3.805  28.924   2.048
64385W        W35914  16.180   3.257   4.008
64386W        W35915  37.850  35.279  11.924
64387W        W35916  30.080  22.190  13.319
64388W        W35917  38.812  22.191  14.430
64389W        W35918   4.293   0.843  10.362
64390W        W35919  43.461   2.971  13.572
64391W        W35920  39.930   7.567   2.653
64392W        W35921  22.329  16.127  10.599
64393W        W35922  30.548  27.977  14.221
64394W        W35923  16.736   8.695   1.208
64395W        W35924  26.116  23.056   3.894
64396W        W35925  19.766  25.659   0.664
64397W        W35926  12.596  11.648  14.234
64398W        W35927   9.718  42.310  12.923
64399W        W35928  33.889  39.637  11.895
64400W        W35929  12.797  30.207   0.447
64401W        W35930  35.512  28.761  13.070
64402W        W35931   6.703  19.195  14.455
64403W        W35932   5.397  29.685   4.772
64404W        W35933  26.070  31.392  13.427
64405W        W35934  30.990  33.752   1.386
64406W        W35935  16.361  44.434   2.661
64407W        W35936  19.068  14.120   1.674
64408W        W35937  19.885   8.475  11.467
64409W        W35938  41.474  35.424   2.201
64410W        W35939   2.129  11.382   4.614
64411W        W35940   5.242  18.290   1.688
64412W        W35941   4.934  32.678   2.812
64413W        W35942  17.727  35.405  12.320
64414W        W35943   5.405  17.698   4.154
64415W        W35944  20.727  12.222   4.335
64416W        W35945   0.934  44.205   0.812
64417W        W35946  39.778  13.610  10.727
64418W        W35947   1.057  43.296  10.884
64419W        W35948  12.137   2.330   3.396
64420W        W35949  42.364  38.617   1.295
64421W        W35950  33.412  19.821  13.337
64422W        W35951   0.573  11.822   1.844
64423W        W35952  13.158  20.618   3.096
64424W        W35953  23.809  39.391   5.565
64425W        W35954  26.948  36.557   5.028
64426W        W35955  36.093  28.956   2.087
64427W        W35956   0.858  15.238  12.154
64428W        W35957   3.805  34.130  14.898
64429W        W35958  18.582   7.068  13.450
64430W        W35959  40.857  23.565  13.528
64431W        W35960  40.501  36.284   2.898
64432W        W35961  40.867  17.475   0.319
64433W        W35962  42.446  14.705  13.999
64434W        W35963   8.848  44.793  11.135
64435W        W35964  23.008  17.822   1.909
64436W        W35965  32.020  43.920  11.861
64437W        W35966   7.528  38.333   1.680
64438W        W35967   3.831  29.541   0.800
64439W        W35968  30.215  18.013  12.397
64440W        W35969  36.440  40.529   1.309
64441W        W35970  29.143  14.702  14.028
64442W        W35971   0.350  19.425   4.949
64443W        W35972  20.547  22.451   4.708
64444W        W35973   9.215   6.082  14.191
64445W        W35974  36.009  21.395  12.109
64446W        W35975  26.097  25.829   2.359
64447W        W35976  24.289  40.532  10.761
64448W        W35977  37.322  25.550  14.475
64449W        W35978  19.715  17.833  12.003
64450W        W35979  22.745  32.070   1.688
64451W        W35980  31.718   8.785  12.432
64452W        W35981  43.949  25.560  13.921
64453W        W35982  27.948  34.902   1.619
64454W        W35983  27.511   2.572   4.585
64455W        W35984  29.729  43.286  14.406
64456W        W35985  36.427  15.756  10.821
64457W        W35986  20.058  17.995   1.275
64458W        W35987  18.014   3.655  10.702
64459W        W35988  30.452   5.609   2.971
64460W        W35989   2.932   4.909  14.454
64461W        W35990   6.871  12.458   3.182
64462W        W35991  36.075  11.650   1.306
64463W        W35992   7.330   6.740   2.862
64464W        W35993  35.871   6.756  11.047
64465W        W35994   5.058  37.900   0.804
64466W        W35995  29.408   6.345   4.074
64467W        W35996   8.435  28.721  14.305
64468W        W35997  27.211  27.748   0.909
64469W        W35998  25.447   9.925  13.710
64470W        W35999   0.466  14.107   3.954
64471W        W36000  34.026  39.239  11.091
64472W        W36001  19.558  11.810   1.329
64473W        W36002  21.979  24.475   0.262
64474W        W36003  18.785  36.117  12.678
64475W        W36004  39.480  41.437  11.571
64476W        W36005  27.218  32.018   4.597
64477W        W36006  24.028  28.917   3.215
64478W        W36007  12.731  43.540  11.693
64479W        W36008  39.131  34.618  12.425
64480W        W36009  35.351  22.057   1.430
64481W        W36010  37.391  12.917  11.384
64482W        W36011  39.501  36.020   2.727
64483W        W36012  19.783  39.005  10.751
64484W        W36013  40.410  35.472  12.882
64485W        W36014  39.919  10.107   0.664
64486W        W36015  39.489  38.480   1.697
64487W        W36016  42.060  10.562  13.542
64488W        W36017  42.996   6.451   2.363
64489W        W36018  26.045  41.049  14.317
64490W        W36019   8.440   6.791   2.336
64491W        W36020  38.822  43.981  12.856
64492W        W36021  20.584  39.456  13.311
64493W        W36022  32.198  17.724   4.286
64494W        W36023  41.447   9.454   2.470
64495W        W36024  29.945  34.368   1.020
64496W        W36025   0.386  13.854   4.766
64497W        W36026  17.716  13.194  14.002
64498W        W36027  30.944  35.133   1.267
64499W        W36028  36.808  11.562  11.647
64500W        W36029   0.730  23.109  14.982
64501W        W36030  37.259   6.642   3.126
64502W        W36031  12.855   4.767  13.915
64503W        W36032  12.798  11.193  14.376
64504W        W36033   8.695   1.895   4.365
64505W        W36034  40.580  44.853  10.709
64506W        W36035  23.241   9.975   4.874
64507W        W36036  35.584  21.578   1.276
64508W        W36037  29.747   5.467   4.608
64509W        W36038  20.129  36.188   1.402
64510W        W36039  40.352  18.530   3.643
64511W        W36040  43.867  19.704   2.534
64512W        W36041  21.622   4.961  14.814
64513W        W36042   2.850  28.102  10.366
64514W        W36043  38.864  19.901  10.194
64515W        W36044  37.440  43.536  11.569
64516W        W36045  42.040  41.773  14.338
64517W        W36046  12.272  19.967  10.692
64518W        W36047   6.551  24.723  10.507
64519W        W36048  37.562  20.022  12.075
64520W        W36049  18.884  29.933   0.917
64521W        W36050  43.239  26.210  14.058
64522W        W36051  28.566  21.117   2.243
64523W        W36052  10.665  39.719  14.050
64524W        W36053   4.186   8.902  12.475
64525W        W36054  38.889  26.335   3.351
64526W        W36055   3.788  44.376  10.733
64527W        W36056  19.284  15.248   3.625
64528W        W36057   2.650  16.801  11.691
64529W        W36058   1.449  39.660   2.751
64530W        W36059  27.645  12.253   4.494
64531W        W36060   1.810  17.461   2.809
64532W        W36061  16.719   4.963  14.472
64533W        W36062  19.109  32.597  14.896
64534W        W36063  11.297  14.310   0.346
64535W        W36064   9.463  42.834  14.044
64536W        W36065  37.066   6.816  13.398
64537W        W36066  12.913  14.020  11.581
64538W        W36067  33.581  19.476   4.179
64539W        W36068  37.341  30.372  13.113
64540W        W36069  40.517   9.374  10.628
64541W        W36070   4.549  43.826  14.548
64542W        W36071  24.147   9.702  13.290
64543W        W36072   0.191  41.299  12.037
64544W        W36073  13.659  23.167   1.335
64545W        W36074  16.617  37.795   0.005
64546W        W36075  39.967  11.236   4.093
64547W        W36076  34.982  36.296  10.514
64548W        W36077   8.332  26.058  14.944
64549W        W36078  35.824  34.041   2.196
64550W        W36079  21.725  30.787  11.614
64551W        W36080  37.949   8.405   1.007
64552W        W36081  42.027  42.540   1.732
64553W        W36082   6.103  25.096   2.401
64554W        W36083  14.507  25.162  14.494
64555W        W36084  22.350  20.263   4.061
64556W        W36085   2.525  18.795  12.035
64557W        W36086  42.155   7.478  11.226
64558W        W36087  33.523   2.196  12.805
64559W        W36088  41.305   8.192   4.500
64560W        W36089  26.301  21.908   4.911
64561W        W36090  40.956  28.732  13.449
64562W        W36091   5.286  42.018  14.330
64563W        W36092  19.238  18.793  11.029
64564W        W36093  38.801  41.471   2.141
64565W        W36094  42.892  42.955  11.073
64566W        W36095   3.302  37.582   3.289
64567W        W36096  21.751  33.020   2.772
64568W        W36097   1.735  38.382   0.385
64569W        W36098  17.847  23.184  11.168
64570W        W36099  11.331  25.014   3.453
64571W        W36100  28.127   0.588   3.758
64572W        W36101  40.778  34.007   0.326
64573W        W36102  18.180  25.304  10.723
64574W        W36103   6.817  20.661   2.340
64575W        W36104  26.676  15.341  13.565
64576W        W36105  13.379  22.070   2.255
64577W        W36106   9.285   5.799   0.689
64578W        W36107  43.686   9.165  12.530
64579W        W36108   4.696  19.267   4.094
64580W        W36109  20.141  42.836  11.590
64581W        W36110   3.763   6.612  12.808
64582W        W36111  34.967  14.840  11.914
64583W        W36112   0.983   3.252   4.194
64584W        W36113  40.232  24.070   3.182
64585W        W36114  30.572  23.489   4.577
64586W        W36115   6.362  27.609  11.085
64587W        W36116   4.950   4.338   1.676
64588W        W36117   5.409  11.118   2.893
64589W        W36118  32.468  38.884  11.043
64590W        W36119  32.316  24.676   3.208
64591W        W36120   8.672  18.058   0.251
64592W        W36121  33.941  21.011  12.023
64593W        W36122   5.264   3.396   1.777
64594W        W36123  37.316  27.180   2.923
64595W        W36124  12.578  14.310  13.683
64596W        W36125  30.851  12.227  11.058
64597W        W36126  32.325  13.730  11.021
64598W        W36127  15.226  36.205  13.216
64599W        W36128   5.323  43.541   4.114
64600W        W36129  39.425  42.502  11.653
64601W        W36130  12.560  13.458  11.694
64602W        W36131  13.145  34.189  11.540
64603W        W36132  19.963   4.432  14.380
64604W        W36133  16.759  27.078   4.482
64605W        W36134  37.128  26.989   2.068
64606W        W36135  28.970  22.676  11.682
64607W        W36136  38.520  22.744   4.301
64608W        W36137  28.579  24.056  11.584
64609W        W36138  10.555  32.461   0.542
64610W        W36139  18.171  43.921  14.306
64611W        W36140   4.815  25.436   3.399
64612W        W36141  17.052  11.325  13.320
64613W        W36142  10.315  31.800  12.860
64614W        W36143  34.182  33.233  14.568
64615W        W36144  38.924  15.631  11.987
64616W        W36145   8.808  43.073   4.510
64617W        W36146   5.025   3.957  13.929
64618W        W36147  43.893  22.636  13.464
64619W        W36148   5.299  42.522   1.801
64620W        W36149  43.450  30.827   0.803
64621W        W36150  17.252  21.855   3.663
64622W        W36151  27.394  15.216   3.668
64623W        W36152   4.496  26.102   2.031
64624W        W36153  14.360  34.030   1.763
64625W        W36154  26.486  10.188  13.437
64626W        W36155   5.263   3.628  14.244
64627W        W36156  33.875  43.721   2.596
64628W        W36157   8.638  19.724  14.826
64629W        W36158  28.074  31.443   1.835
64630W        W36159  23.381  25.893   1.248
64631W        W36160  37.867  11.380   0.957
64632W        W36161  39.836  38.395  11.068
64633W        W36162  44.899  28.289   3.621
64634W        W36163  41.808  36.371   1.795
64635W        W36164   3.025   6.714   0.187
64636W        W36165  35.934  26.848   2.695
64637W        W36166   3.411  13.201   3.414
64638W        W36167  30.242  24.140  10.149
64639W        W36168   7.452   0.861   2.872
64640W        W36169  36.647  32.485   4.841
64641W        W36170   3.339  44.682  13.482
64642W        W36171  44.097  33.348   1.955
64643W        W36172   7.719   8.988   1.227
64644W        W36173   3.047  27.154  10.788
64645W        W36174  32.698  37.802  13.022
64646W        W36175   9.815  38.814   4.636
64647W        W36176  42.934  17.055  13.873
64648W        W36177  15.753  42.751  14.383
64649W        W36178  23.614   4.804   0.776
64650W        W36179  41.429   3.118   0.470
64651W        W36180  27.419  40.270   2.817
64652W        W36181   6.441  15.560   4.149
64653W        W36182  27.228  35.295  12.503
64654W        W36183  27.525   0.300  11.051
64655W        W36184  18.758  27.963   1.945
64656W        W36185   5.413  17.425   4.611
64657W        W36186  31.075  14.371   4.068
64658W        W36187  10.822  28.272  13.454
64659W        W36188  43.440  39.921   1.137
64660W        W36189  31.066  24.696   1.135
64661W        W36190   3.260  35.844   2.319
64662W        W36191  31.430  44.163  14.487
64663W        W36192  26.477  41.484   0.956
64664W        W36193  38.487  36.978   0.114
64665W        W36194  39.472  39.147  12.420
64666W        W36195   8.283  44.435   1.721
64667W        W36196  15.647  37.520  13.443
64668W        W36197  36.180  37.786   1.941
64669W        W36198  41.663   1.913   2.824
64670W        W36199  41.864  38.760   1.099
64671W        W36200  10.262   8.091  11.791
64672W        W36201  22.081   4.853  11.539
64673W        W36202  15.145  20.377   0.447
64674W        W36203  37.157   8.878  12.947
64675W        W36204   1.474  33.246  13.501
64676W        W36205  33.568  22.016  10.598
64677W        W36206  39.954  26.108   0.257
64678W        W36207   7.646  12.214   1.980
64679W        W36208  14.195  25.519  13.764
64680W        W36209  43.358  27.058  13.537
64681W        W36210  27.023   5.507  12.820
64682W        W36211  43.019  20.908  11.952
64683W        W36212   1.218  18.030   4.913
64684W        W36213  34.957   3.845  14.309
64685W        W36214  16.764  35.548  11.568
64686W        W36215   4.001   7.801   4.564
64687W        W36216  21.126  27.113  10.378
64688W        W36217  17.573  31.266   0.883
64689W        W36218  34.958   9.690   4.820
64690W        W36219  37.528  28.092   2.596
64691W        W36220  14.791  36.886  10.897
64692W        W36221  21.095   5.796  14.386
64693W        W36222  32.049  33.602  13.740
64694W        W36223  36.707   6.715   4.606
64695W        W36224   2.779  41.780  11.696
64696W        W36225  18.847  40.539  11.371
64697W        W36226  15.912  21.691  11.483
64698W        W36227  39.837  27.992   4.204
64699W        W36228  14.987  13.575  12.413
64700W        W36229  23.177  26.225   4.367
64701W        W36230  21.092   7.493  13.503
64702W        W36231   1.550  29.403   2.746
64703W        W36232  44.259  30.316  11.112
64704W        W36233  26.605  44.981  11.225
64705W        W36234  16.936  33.391   5.133
64706W        W36235  16.797   5.261  10.619
64707W        W36236  33.817   9.436  13.925
64708W        W36237  17.047  26.434   3.156
64709W        W36238  27.544   4.483  11.163
64710W        W36239   5.452  20.538   0.888
64711W        W36240  37.949   8.673   0.562
64712W        W36241  41.804   3.426  10.649
64713W        W36242  12.099   2.367   2.860
64714W        W36243   7.783  35.049  14.422
64715W        W36244  23.740  27.694   1.348
64716W        W36245   5.744   4.321  10.615
64717W        W36246  44.544   9.729   0.327
64718W        W36247   1.403  40.934   4.737
64719W        W36248   6.747  22.474  14.672
64720W        W36249  16.971   7.659  13.703
64721W        W36250  44.892  33.206  13.939
64722W        W36251  43.023  25.944  14.994
64723W        W36252  44.247  23.981  11.180
64724W        W36253   4.847  12.883   0.835
64725W        W36254  40.055  27.809  12.811
64726W        W36255  22.570  36.798  13.491
64727W        W36256  43.729  12.732  13.018
64728W        W36257  36.101  15.958  11.944
64729W        W36258  44.785  12.922   0.444
64730W        W36259   9.736  21.225   3.547
64731W        W36260   2.950  40.462   2.206
64732W        W36261  40.321  40.241  13.081
64733W        W36262  29.353  18.136  13.577
64734W        W36263  13.552  35.545   1.929
64735W        W36264  25.929  35.783  11.421
64736W        W36265  41.373  33.925   1.388
64737W        W36266   5.392  11.736  13.775
64738W        W36267  22.005   0.432   4.166
64739W        W36268  21.709  32.668  13.053
64740W        W36269   6.747  38.825  13.834
64741W        W36270  43.017  44.971   0.491
64742W        W36271  23.527  30.120  12.099
64743W        W36272  21.221  20.405  13.318
64744W        W36273   7.712   7.736  13.818
64745W        W36274  17.791   6.114  14.410
64746W        W36275   9.112   9.401  12.578
64747W        W36276  12.630  41.437  14.937
64748W        W36277  37.430  21.151  14.081
64749W        W36278   5.416   2.412   3.086
64750W        W36279  22.373  44.856   1.131
64751W        W36280  41.338  17.299   3.378
64752W        W36281  37.730   0.169   3.652
64753W        W36282  19.031  24.256   2.722
64754W        W36283  23.524  22.253  13.558
64755W        W36284   2.869  31.927  10.253
64756W        W36285  11.560  21.498  13.877
64757W        W36286  23.586  19.302  11.055
64758W        W36287   6.227  12.759   0.886
64759W        W36288  23.665  44.849   4.379
64760W        W36289  36.944  25.686  10.641
64761W        W36290  31.551  20.312   0.436
64762W        W36291   5.078  24.002   2.403
64763W        W36292   9.738  21.987   2.623
64764W        W36293  34.467  29.227  10.724
64765W        W36294  32.819  29.245  13.280
64766W        W36295  36.518  34.674  11.648
64767W        W36296  37.132  41.177   0.768
64768W        W36297  21.160  22.055  11.147
64769W        W36298  25.455  34.312  12.909
64770W        W36299  39.594   5.756  14.348
64771W        W36300  40.797  25.164  11.580
64772W        W36301   9.108   9.590  14.930
64773W        W36302  38.791  31.345   3.753
64774W        W36303  40.213   8.695  10.007
64775W        W36304  11.153   7.881  11.710
64776W        W36305  23.106  10.238   2.921
64777W        W36306   4.922  29.116   0.365
64778W        W36307  41.533  43.808   0.729
64779W        W36308  37.954  27.081   1.734
64780W        W36309  41.887  14.362  14.510
64781W        W36310  40.450  12.461  12.520
64782W        W36311  42.845  23.849  13.676
64783W        W36312  31.670  24.370   4.541
64784W        W36313  13.639   6.302  10.814
64785W        W36314  14.853  39.046  10.633
64786W        W36315   7.350   1.786  13.264
64787W        W36316  31.948  39.273   4.506
64788W        W36317  13.011  40.798   4.579
64789W        W36318  23.229  13.094   2.793
64790W        W36319   3.944  17.012   1.630
64791W        W36320  44.326  25.085  12.192
64792W        W36321  22.184  12.630   4.902
64793W        W36322  44.688   3.055   1.932
64794W        W36323   9.426   8.446   4.254
64795W        W36324   6.951   9.748  14.031
64796W        W36325   0.648  33.865  13.711
64797W        W36326  25.817  15.650  13.939
64798W        W36327  24.707  28.588   4.115
64799W        W36328  20.842  23.570  14.436
64800W        W36329   9.626  42.008  11.669
64801W        W36330  10.879  26.837  13.483
64802W        W36331  36.857  34.398  14.284
64803W        W36332  26.952  26.040  13.431
64804W        W36333  17.892  41.943  11.534
64805W        W36334  22.096  21.422   1.070
64806W        W36335  28.906  35.376  14.679
64807W        W36336  17.589  39.124  14.224
64808W        W36337  22.937  34.461   2.177
64809W        W36338  42.822   9.510  12.051
64810W        W36339  41.753   1.300   0.315
64811W        W36340  33.338   5.335  13.026
64812W        W36341  12.680   4.032   3.158
64813W        W36342  26.402  40.817   4.041
64814W        W36343   4.029  30.820  13.015
64815W        W36344  15.027   1.896  13.818
64816W        W36345   7.136  30.947   3.301
64817W        W36346  29.121  33.993  10.302
64818W        W36347  31.848  35.949  14.049
64819W        W36348  25.560  31.440  12.529
64820W        W36349   3.409  16.082  10.764
64821W        W36350   5.322   0.450   4.559
64822W        W36351  12.824  11.199  11.623
64823W        W36352  23.904  10.492  10.061
64824W        W36353  31.761  18.244  12.409
64825W        W36354  36.498  23.410   1.716
64826W        W36355  16.683   8.637   2.709
64827W        W36356   7.134  36.112  13.301
64828W        W36357   3.478  27.480   3.184
64829W        W36358   3.379  38.345   1.222
64830W        W36359  21.786  42.473   2.813
64831W        W36360  20.958   7.222  12.592
64832W        W36361  18.278  10.562   2.901
64833W        W36362  37.030   7.705   0.352
64834W        W36363  13.485  26.359   1.959
64835W        W36364  36.324  24.608  12.469
64836W        W36365  21.064  39.736   1.458
64837W        W36366  33.725   5.883  12.238
64838W        W36367  23.895   2.496  13.447
64839W        W36368  23.074  18.536   3.110
64840W        W36369  33.815  28.515  13.026
64841W        W36370  20.005  19.142  10.529
64842W        W36371  26.147   5.376  11.923
64843W        W36372  42.468  32.834  11.936
64844W        W36373  11.164  16.072  13.148
64845W        W36374  10.877  16.510   4.641
64846W        W36375  17.725   0.289  12.536
64847W        W36376  27.425   0.504  11.504
64848W        W36377  15.279  22.520   2.870
64849W        W36378  13.211  27.033   0.468
64850W        W36379  21.994  41.851  13.929
64851W        W36380  30.118  30.768   2.685
64852W        W36381  40.377  40.890   3.128
64853W        W36382  15.627   2.033   0.901
64854W        W36383  12.208  41.907   0.275
64855W        W36384   5.801  20.556  11.810
64856W        W36385  28.603  43.222  12.647
64857W        W36386   2.419  21.869   1.854
64858W        W36387  27.956  13.007   0.925
64859W        W36388  24.773  30.606  13.084
64860W        W36389  40.821   0.053   2.878
64861W        W36390  10.086  28.884  11.179
64862W        W36391  25.574  42.063   0.182
64863W        W36392   0.992  26.610  11.468
64864W        W36393  21.654  39.018   0.980
64865W        W36394   4.751   6.714  14.856
64866W        W36395   3.748   2.563  14.895
64867W        W36396   8.908  32.213   0.016
64868W        W36397  44.832  30.461   2.307
64869W        W36398  19.153  20.030  12.018
64870W        W36399  14.240  30.192   1.734
64871W        W36400  38.331   8.266   1.365
64872W        W36401  40.680  22.244   0.940
64873W        W36402  40.999  13.589   1.279
64874W        W36403  18.745  15.846   0.421
64875W        W36404  32.648  38.633   4.637
64876W        W36405  17.736  17.634   3.231
64877W        W36406  28.568   3.985  13.128
64878W        W36407  20.545  19.136  10.711
64879W        W36408  40.608   7.380  11.989
64880W        W36409  13.065   8.145  13.724
64881W        W36410  11.836  41.337  12.077
64882W        W36411   3.616  38.796   1.988
64883W        W36412  40.432   4.837   5.135
64884W        W36413  11.214  17.320   4.439
64885W        W36414  20.566  13.827   2.559
64886W        W36415  24.976  23.736   0.326
64887W        W36416  28.691  24.377   0.204
64888W        W36417  11.133  43.983  11.200
64889W        W36418  43.017   1.147   1.230
64890W        W36419  38.029  20.550   2.294
64891W        W36420  18.027  22.466   0.307
64892W        W36421   4.621   0.661  11.908
64893W        W36422  25.926  24.971  13.102
64894W        W36423  33.894  10.766   0.790
64895W        W36424   1.243  28.106   4.181
64896W        W36425   4.159  32.053   0.939
64897W        W36426   6.191  33.915   2.932
64898W        W36427  18.253   1.415  13.749
64899W        W36428   4.504  14.261   0.377
64900W        W36429  16.735  23.445   0.931
64901W        W36430  26.206  25.099  10.732
64902W        W36431  18.845  42.578  13.928
64903W        W36432   6.477  13.220   0.903
64904W        W36433  33.922  19.528   1.845
64905W        W36434  44.959   2.030  12.652
64906W        W36435   2.829  20.286   3.593
64907W        W36436  28.228  40.953   4.793
64908W        W36437  24.579  41.338   0.539
64909W        W36438   9.721  37.627   4.967
64910W        W36439  27.482  28.165  14.920
64911W        W36440  23.636  34.375  14.613
64912W        W36441   9.587  43.910   2.669
64913W        W36442  28.872   7.718   2.986
64914W        W36443  25.042  39.279  10.706
64915W        W36444  35.302   8.788   0.676
64916W        W36445  41.732  33.960  11.547
64917W        W36446   2.926  20.712  13.032
64918W        W36447  35.164  27.939  11.760
64919W        W36448   8.495  11.469  12.225
64920W        W36449  30.747   2.708   4.604
64921W        W36450  33.563   9.291   1.165
64922W        W36451  30.438  44.835   0.864
64923W        W36452  21.084  23.210  14.125
64924W        W36453   2.322   2.861  11.331
64925W        W36454  15.789   7.277   3.195
64926W        W36455   0.891  13.246   3.150
64927W        W36456  39.870  39.307   2.666
64928W        W36457  26.098  21.618   1.465
64929W        W36458  34.489   8.287   0.016
64930W        W36459  34.277  43.472   2.381
64931W        W36460  42.809  40.499   1.146
64932W        W36461   3.048  21.304   3.746
64933W        W36462  12.614  23.062   2.915
64934W        W36463   2.304  31.875   4.886
64935W        W36464  13.253   1.580  12.649
64936W        W36465   6.019  26.851  11.731
64937W        W36466   6.237  17.465   3.628
64938W        W36467  34.006   4.910  13.106
64939W        W36468  24.147  35.392   1.676
64940W        W36469  26.653  25.023   0.366
64941W        W36470  10.521  21.482  14.754
64942W        W36471  34.129  20.538  12.079
64943W        W36472   3.837  14.629   0.881
64944W        W36473  29.727  19.580  14.541
64945W        W36474  18.088  38.945   0.498
64946W        W36475  39.101  12.337   2.243
64947W        W36476  36.318  14.215  10.740
64948W        W36477  35.385  12.704   3.724
64949W        W36478   0.105  43.550   2.736
64950W        W36479  34.871  34.273  14.727
64951W        W36480  38.298  39.771  13.984
64952W        W36481  33.518  43.257  10.310
64953W        W36482  37.595  34.009  13.369
64954W        W36483  18.222  19.917   3.093
64955W        W36484  14.184  42.968  10.581
64956W        W36485  35.553  15.859  12.851
64957W        W36486  43.940  36.182   0.258
64958W        W36487  27.072  28.527   2.349
64959W        W36488  27.995  15.075  13.113
64960W        W36489  11.966  32.824  12.794
64961W        W36490   2.758  29.456  14.570
64962W        W36491  25.219  14.547  13.467
64963W        W36492   1.876  42.516   4.122
64964W        W36493  15.047   6.950   2.122
64965W        W36494  19.832  34.899  11.451
64966W        W36495  20.822  19.694  10.700
64967W        W36496  43.020  25.218  10.601
64968W        W36497  33.939  16.161   0.430
64969W        W36498  12.694  39.019   3.425
64970W        W36499  21.013  24.528  10.642
64971W        W36500  27.404  13.304   0.957
64972W        W36501  25.369  10.797  13.978
64973W        W36502  29.060  30.645   4.394
64974W        W36503  12.702  22.696   1.733
64975W        W36504  16.435   7.902   2.368
64976W        W36505  34.978  12.731  10.654
64977W        W36506  11.001   6.277   0.046
64978W        W36507  38.528   4.397   1.678
64979W        W36508  34.382  31.581  12.962
64980W        W36509  33.234  40.394   2.887
64981W        W36510  30.878  38.381   3.354
64982W        W36511  27.734   4.791  12.455
64983W        W36512  25.453  44.213  12.122
64984W        W36513   9.299   7.894  12.358
64985W        W36514   6.457  18.084  11.146
64986W        W36515   6.083   7.488  11.648
64987W        W36516  42.890  19.980   1.838
64988W        W36517  10.439  33.866  11.555
64989W        W36518  31.324  22.629  10.576
64990W        W36519  19.484   8.615  11.139
64991W        W36520   5.247  43.000   4.102
64992W        W36521  24.108  32.921   0.492
64993W        W36522  39.342   8.966  14.089
64994W        W36523  26.792  25.493   0.166
64995W        W36524   3.194  16.749  12.558
64996W        W36525  34.062  41.153   0.731
64997W        W36526  19.540   6.489   4.222
64998W        W36527  10.610  21.136  10.042
64999W        W36528   1.745  13.889   3.304
65000W        W36529  14.335  41.407  12.956
65001W        W36530  21.607  22.546   3.637
65002W        W36531  36.419   9.770   0.887
65003W        W36532   5.933  37.579   0.821
65004W        W36533   9.288  33.483  14.572
65005W        W36534   6.711   5.597  14.822
65006W        W36535   6.731  14.828  12.917
65007W        W36536  32.366  13.171  10.869
65008W        W36537   0.078  10.546   2.891
65009W        W36538  31.960   4.804   4.652
65010W        W36539   9.151   9.452  13.996
65011W        W36540  33.424   7.764  12.630
65012W        W36541   3.226   3.923   1.880
65013W        W36542  17.715  31.304  14.324
65014W        W36543  36.424  44.808   2.669
65015W        W36544  14.179   7.819   3.615
65016W        W36545  39.146   9.234  10.481
65017W        W36546  38.572  21.850  14.911
65018W        W36547  33.854  14.378   3.748
65019W        W36548  44.933  13.162   0.897
65020W        W36549  33.601  39.772  13.530
65021W        W36550  43.850  44.326   4.317
65022W        W36551   6.201  29.430  10.687
65023W        W36552  40.285  31.087   3.188
65024W        W36553   9.787   3.318   1.257
65025W        W36554  20.624  26.977  14.095
65026W        W36555   9.791  31.269   3.134
65027W        W36556   0.947  29.412  11.360
65028W        W36557   5.680  15.718   1.675
65029W        W36558  25.439   2.814   0.081
65030W        W36559  38.807  15.096  13.224
65031W        W36560   6.149   1.409   2.281
65032W        W36561  19.174   9.773  12.876
65033W        W36562  28.567  28.804  11.120
65034W        W36563  43.721   2.077  10.870
65035W        W36564  38.899  17.736  10.785
65036W        W36565   5.437   7.499   1.849
65037W        W36566  29.775   2.371  10.707
65038W        W36567   4.833   4.330   4.669
65039W        W36568   6.427  32.253  12.574
65040W        W36569  33.576  24.657  10.437
65041W        W36570  15.194   3.324  12.581
65042W        W36571   6.385  11.432  10.729
65043W        W36572  19.905  38.941   2.297
65044W        W36573  43.335  17.796   4.202
65045W        W36574  14.320  41.001  11.660
65046W        W36575  31.687  25.326  13.998
65047W        W36576  40.875   6.973   3.654
65048W        W36577  21.211  30.128   3.309
65049W        W36578   9.762   6.905   2.925
65050W        W36579  32.880  11.187  11.475
65051W        W36580   2.371  15.333  12.834
65052W        W36581   4.428  34.999   4.159
65053W        W36582  27.246  22.401   1.301
65054W        W36583  34.956  22.777   3.934
65055W        W36584   1.506  14.660  10.685
65056W        W36585  42.537   5.948  11.997
65057W        W36586  33.547  41.305   2.120
65058W        W36587   1.380  25.494  10.628
65059W        W36588  24.589  13.292   3.260
65060W        W36589  14.733  27.505   1.471
65061W        W36590   4.972   3.149   4.657
65062W        W36591  35.299  26.374  12.425
65063W        W36592  31.879   0.517   3.196
65064W        W36593   1.803  10.062  14.841
65065W        W36594   4.250  21.961   0.027
65066W        W36595   6.413  38.856   1.723
65067W        W36596  29.790  12.126   1.341
65068W        W36597  19.570  29.948   2.776
65069W        W36598  18.608  22.134   2.445
65070W        W36599  24.119  21.351  11.075
65071W        W36600  25.666  36.314  14.892
65072W        W36601  19.287  17.222   0.404
65073W        W36602  13.561  22.934  13.932
65074W        W36603  22.040  18.334   0.876
65075W        W36604  42.727  24.212  14.442
65076W        W36605  40.091  15.483   4.850
65077W        W36606  24.227  37.500  14.332
65078W        W36607  33.793  29.210  13.489
65079W        W36608  28.856  14.553   3.643
65080W        W36609  10.069  36.625   0.297
65081W        W36610  15.664  29.538  11.619
65082W        W36611  25.460  39.164   0.616
65083W        W36612  42.944  37.946   4.142
65084W        W36613  19.139  25.049   3.716
65085W        W36614  21.948  24.938  14.018
65086W        W36615  27.426  12.783   2.739
65087W        W36616   6.379  35.681  11.260
65088W        W36617   4.207  44.837   2.020
65089W        W36618  24.148   3.561   2.751
65090W        W36619  29.704  32.473  12.008
65091W        W36620  37.491  36.985  14.318
65092W        W36621  29.997  20.972   4.191
65093W        W36622  44.513  10.136   4.004
65094W        W36623  35.954  30.636   3.008
65095W        W36624  37.944  39.044   4.325
65096W        W36625  16.370  33.356   0.473
65097W        W36626  14.296   5.967  13.332
65098W        W36627  34.155  10.582   2.681
65099W        W36628  13.309  39.940  13.939
65100W        W36629  35.580  44.432   1.931
65101W        W36630  28.538  11.185   0.357
65102W        W36631  38.785   3.166   2.558
65103W        W36632  24.666   1.524   1.945
65104W        W36633  36.963  22.237   0.510
65105W        W36634  15.678  20.729   2.433
65106W        W36635  20.770   0.155  12.838
65107W        W36636   6.248  44.840   3.759
65108W        W36637  17.846  34.596   2.322
65109W        W36638  26.380  20.138  11.477
65110W        W36639   6.429  28.573   4.125
65111W        W36640   4.728  44.822  12.125
65112W        W36641  31.586  20.551  12.178
65113W        W36642  29.337   7.772  12.830
65114W        W36643  21.585   7.759  14.984
65115W        W36644  36.283   2.919  13.082
65116W        W36645   9.627  40.911   2.367
65117W        W36646   6.622   5.185   0.684
65118W        W36647  23.633   6.401   0.296
65119W        W36648  24.132   0.853   2.831
65120W        W36649  28.716   2.388  12.325
65121W        W36650  32.546  33.277  12.040
65122W        W36651  23.016  40.374   1.709
65123W        W36652  10.265  37.926  14.059
65124W        W36653   9.806  23.328  11.964
65125W        W36654  23.241  15.327  12.363
65126W        W36655  41.751  35.099  14.348
65127W        W36656  12.771  12.347  13.478
65128W        W36657  25.181   8.955  12.958
65129W        W36658   1.252  20.130   2.590
65130W        W36659   5.383   2.195  14.521
65131W        W36660   8.717  21.014  13.876
65132W        W36661  11.649  14.499   3.517
65133W        W36662  37.922   1.917   1.740
65134W        W36663   6.199  35.046   1.755
65135W        W36664   8.973   8.744   2.450
65136W        W36665  23.375  30.508   2.563
65137W        W36666  22.016  16.998   2.443
65138W        W36667   7.541  32.916   1.905
65139W        W36668  40.477  23.397  14.760
65140W        W36669   6.768   9.929  12.990
65141W        W36670  16.648  30.382   3.218
65142W        W36671  33.439  22.859  13.439
65143W        W36672  27.015  34.508  12.862
65144W        W36673  13.833  36.855  11.872
65145W        W36674  32.733  15.119  12.051
65146W        W36675  19.733   5.826   4.076
65147W        W36676   8.987  26.189  12.031
65148W        W36677  38.992  25.549  14.283
65149W        W36678   2.696  25.082   2.336
65150W        W36679  39.727   0.794   1.275
65151W        W36680   3.601  27.647   3.649
65152W        W36681  24.666  14.291   3.191
65153W        W36682  23.537   2.181   3.305
65154W        W36683  26.966   3.374   3.185
65155W        W36684  12.321  29.232   2.713
65156W        W36685  44.983  43.301  12.090
65157W        W36686   3.257   9.650   0.078
65158W        W36687   2.289  23.184  11.438
65159W        W36688  41.587   4.799  10.568
65160W        W36689   0.246   4.673   1.682
65161W        W36690   9.893  36.319   1.322
65162W        W36691  18.385  16.895   5.215
65163W        W36692  37.950   7.810  12.494
65164W        W36693  25.547  37.469   2.271
65165W        W36694  28.863   8.893  10.584
65166W        W36695  22.495   8.270  10.437
65167W        W36696  20.639  12.894  14.467
65168W        W36697   4.968  42.349   3.584
65169W        W36698  12.106  40.330  12.588
65170W        W36699  35.125  27.120   2.171
65171W        W36700  33.199  11.641  14.882
65172W        W36701  28.956   3.471  10.588
65173W        W36702  19.808  12.972   0.435
65174W        W36703  15.089   8.863  13.274
65175W        W36704   9.408  25.274   0.864
65176W        W36705  19.116  30.574   2.162
65177W        W36706   5.017  25.703   0.764
65178W        W36707  28.684  25.472   3.655
65179W        W36708   8.869   6.756   0.033
65180W        W36709  18.344  33.303  13.868
65181W        W36710  42.867   6.165   0.273
65182W        W36711  38.928   6.682   0.350
65183W        W36712  12.808  42.016   2.249
65184W        W36713  24.752   0.580  10.500
65185W        W36714  34.619  28.059   0.267
65186W        W36715  29.593   1.649  11.199
65187W        W36716  35.606  32.374  13.411
65188W        W36717  10.809  28.287   4.092
65189W        W36718  26.220  37.006  14.950
65190W        W36719  15.373  18.283  14.904
65191W        W36720  26.480   1.755  12.965
65192W        W36721  16.299  14.649   0.769
65193W        W36722   1.906  19.971  14.283
65194W        W36723   6.469  21.182  11.874
65195W        W36724  44.834  25.475   3.165
65196W        W36725  34.106  26.187   3.320
65197W        W36726  20.497  19.496   2.223
65198W        W36727  32.899  34.469  11.400
65199W        W36728  20.224   9.627  11.868
65200W        W36729  26.678   9.219  14.546
65201W        W36730   9.758  21.532  13.370
65202W        W36731  28.175  23.616   1.246
65203W        W36732  17.675  29.275  11.161
65204W        W36733  28.653  35.743   0.977
65205W        W36734   3.467   2.199   1.429
65206W        W36735  42.922  38.201   0.431
65207W        W36736  43.338  36.804   1.531
65208W        W36737   0.703  19.253  11.883
65209W        W36738  16.218   6.953  13.944
65210W        W36739  19.802   2.836  12.270
65211W        W36740  15.830  36.324   3.152
65212W        W36741  17.768  39.935  14.232
65213W        W36742  16.250   0.066  11.986
65214W        W36743   9.813  35.007  14.788
65215W        W36744  15.520   3.338   2.161
65216W        W36745  13.677  14.698   4.793
65217W        W36746  15.783  12.778  11.615
65218W        W36747  26.927   1.884  10.937
65219W        W36748  31.199  28.074   4.183
65220W        W36749  21.442  16.127  12.414
65221W        W36750   0.417  38.469  13.705
65222W        W36751  24.750   2.036   1.884
65223W        W36752  15.169  23.404  13.232
65224W        W36753  42.800  14.175  12.005
65225W        W36754  43.809   1.976   0.961
65226W        W36755   0.388  20.739   3.217
65227W        W36756  36.225  19.088  12.006
65228W        W36757  40.990  19.831  12.317
65229W        W36758  24.195  18.933   5.018
65230W        W36759  43.343  39.036  13.426
65231W        W36760  37.893  17.461  13.350
65232W        W36761  22.521  17.740   3.765
65233W        W36762  15.270  18.087   0.757
65234W        W36763  37.361  40.384  13.920
65235W        W36764  39.469   7.376   2.788
65236W        W36765  38.987   3.343  14.368
65237W        W36766   0.842  26.484   1.658
65238W        W36767  33.536  14.160  13.593
65239W        W36768  42.040  15.312   0.264
65240W        W36769  10.448  40.348   4.721
65241W        W36770  31.850  18.599  13.588
65242W        W36771  37.563  13.641  12.016
65243W        W36772  41.839  41.250   2.781
65244W        W36773  28.152  12.188  12.967
65245W        W36774  27.136  12.752   3.896
65246W        W36775  17.293  10.899   3.126
65247W        W36776   5.206  28.658   0.260
65248W        W36777  11.709  14.616   0.412
65249W        W36778  29.556  25.691   0.819
65250W        W36779  41.805   7.659   0.762
65251W        W36780  22.113   2.863  13.786
65252W        W36781  18.571  43.379  13.496
65253W        W36782  24.953  36.936  11.526
65254W        W36783  23.676  39.043   2.825
65255W        W36784  34.648  26.268   0.651
65256W        W36785  43.332  18.130  13.468
65257W        W36786  24.716  18.346  11.682
65258W        W36787   2.147  11.570  14.019
65259W        W36788  18.425   8.946  12.169
65260W        W36789  15.250  17.995  12.198
65261W        W36790  14.590  12.443  10.226
65262W        W36791   3.202   0.307   2.680
65263W        W36792  36.577  24.455  10.615
65264W        W36793  38.355  16.612   4.570
65265W        W36794  40.526  24.623  14.556
65266W        W36795  14.914  44.422  14.457
65267W        W36796  15.597  32.901   3.308
65268W        W36797  18.510  30.397   1.764
65269W        W36798  39.012  35.722  13.799
65270W        W36799  44.389   7.138   3.616
65271W        W36800  31.075  13.153  11.381
65272W        W36801  44.883  11.335   3.889
65273W        W36802   3.329   3.279  11.378
65274W        W36803  31.586  18.125  10.970
65275W        W36804  17.823  44.447   0.363
65276W        W36805  29.947  13.026  14.405
65277W        W36806  12.380  35.390  14.366
65278W        W36807   2.449  34.454  11.493
65279W        W36808  35.303  39.166  12.856
65280W        W36809  41.131  30.507   1.845
65281W        W36810   0.418  29.059   2.575
65282W        W36811  33.934   5.023  12.065
65283W        W36812   1.674   5.995  12.898
65284W        W36813  12.318   7.636   1.468
65285W        W36814  27.002   3.163   2.725
65286W        W36815  12.991  25.158  14.475
65287W        W36816  10.401  17.173  11.026
65288W        W36817  36.595  30.057  14.261
65289W        W36818  36.537  35.557  11.467
65290W        W36819  33.831   8.123   3.673
65291W        W36820  12.728  23.545  11.181
65292W        W36821  30.677   0.331  10.696
65293W        W36822  30.585   1.903   3.732
65294W        W36823  30.100  33.575  12.972
65295W        W36824  39.353  19.343  14.970
65296W        W36825  44.214   6.876  13.007
65297W        W36826  32.923  13.718  13.994
65298W        W36827  31.040  12.783   0.499
65299W        W36828  42.060  34.547   1.265
65300W        W36829  14.076   9.208   2.211
65301W        W36830  42.958  41.073  11.983
65302W        W36831  35.596  22.848   1.656
65303W        W36832   6.235   8.431  12.601
65304W        W36833   3.888   7.328  13.338
65305W        W36834  32.950  15.298   0.815
65306W        W36835  37.448  23.643  13.622
65307W        W36836   0.910  26.993   1.835
65308W        W36837  15.315  30.589  11.369
65309W        W36838   1.323   6.770   0.938
65310W        W36839  11.766  10.749  13.063
65311W        W36840  11.633   8.696   4.612
65312W        W36841  26.984  34.953   0.148
65313W        W36842  43.822  27.970  13.044
65314W        W36843  30.219   7.642   2.277
65315W        W36844  12.247  21.609  14.291
65316W        W36845  28.155  41.931  11.735
65317W        W36846   0.802   0.059   4.060
65318W        W36847  42.859  42.069   3.221
65319W        W36848  41.253   2.511  14.785
65320W        W36849  36.980  23.036  13.474
65321W        W36850   7.435   0.510   1.712
65322W        W36851   0.472   5.918   4.175
65323W        W36852   3.781  10.778  11.636
65324W        W36853  33.735   1.164  11.219
65325W        W36854  40.376  36.602  14.558
65326W        W36855  27.442   4.855   2.717
65327W        W36856  20.689   5.451  10.506
65328W        W36857  33.855  19.713  13.633
65329W        W36858   1.009  24.066   4.549
65330W        W36859  26.702   0.199  12.174
65331W        W36860  33.573  29.141  11.680
65332W        W36861  30.392  19.617  13.835
65333W        W36862  12.604   8.598   3.284
65334W        W36863  35.806  21.787   2.206
65335W        W36864  22.808  21.164   0.066
65336W        W36865   1.321  13.565   3.141
65337W        W36866  35.123  39.157   0.367
65338W        W36867   1.593   1.251  11.182
65339W        W36868  32.165  27.203   0.908
65340W        W36869  16.694   9.653   1.603
65341W        W36870  26.930  28.991   1.681
65342W        W36871  38.845   3.403  11.974
65343W        W36872  11.826  35.414  10.570
65344W        W36873  27.775  38.130  12.090
65345W        W36874   3.335  18.711  11.601
65346W        W36875  39.386  28.591  12.986
65347W        W36876  27.721  16.594   0.852
65348W        W36877   2.719  43.407  11.164
65349W        W36878  29.857   7.196  13.352
65350W        W36879  19.921  26.271   3.607
65351W        W36880  43.368  35.916   2.134
65352W        W36881  14.965  31.604   1.404
65353W        W36882  43.471  34.895   3.760
65354W        W36883  28.377  12.886  14.549
65355W        W36884  39.295  32.038   3.639
65356W        W36885  19.181  21.200  14.927
65357W        W36886   2.418   2.306   0.505
65358W        W36887  10.678  13.799  14.924
65359W        W36888   5.784  16.880  10.707
65360W        W36889   3.833  11.851   4.264
65361W        W36890  40.908  16.543   1.848
65362W        W36891  15.089  23.483  10.490
65363W        W36892  21.331  35.112  10.546
65364W        W36893  34.733  40.061  14.418
65365W        W36894  10.039  14.454   0.102
65366W        W36895  30.816   3.777  14.927
65367W        W36896  31.957  24.186   1.388
65368W        W36897   8.009  25.784   2.693
65369W        W36898  15.524   7.714  12.388
65370W        W36899  23.305  44.980  12.542
65371W        W36900  43.280  29.417   2.320
65372W        W36901  35.910  30.481   4.602
65373W        W36902   8.887   2.318   2.762
65374W        W36903  27.740  13.796   9.940
65375W        W36904  11.629  23.690   2.347
65376W        W36905  37.301   3.071  12.432
65377W        W36906  26.654  29.593  14.678
65378W        W36907  17.700   8.695   3.615
65379W        W36908   1.999  32.868  13.446
65380W        W36909  29.698   1.687   3.682
65381W        W36910  20.107  10.810   0.869
65382W        W36911   7.816  42.244   1.314
65383W        W36912  19.545  41.552   4.308
65384W        W36913   1.612   1.199   2.795
65385W        W36914  18.606  30.110  12.101
65386W        W36915  23.443  32.994   2.147
65387W        W36916  39.618  17.626   0.413
65388W        W36917  14.272  21.816   3.039
65389W        W36918  16.673   5.214  11.533
65390W        W36919   2.954  19.211   3.773
65391W        W36920  22.345  11.674   1.782
65392W        W36921  36.799  24.033   3.310
65393W        W36922  40.079  20.452  14.916
65394W        W36923   8.218  31.190   1.850
65395W        W36924  41.771  12.203   1.923
65396W        W36925   0.446   6.735  14.256
65397W        W36926   6.872  17.191   0.688
65398W        W36927  36.119  19.905   1.697
65399W        W36928  13.114  39.046   3.730
65400W        W36929  25.599  35.243   4.791
65401W        W36930  39.164  44.319  12.541
65402W        W36931  37.092  28.354   2.679
65403W        W36932   9.808  28.071  13.130
65404W        W36933  10.463   5.756   1.012
65405W        W36934  35.896   1.240  13.979
65406W        W36935   4.443   2.264   4.157
65407W        W36936   5.812  35.657  13.214
65408W        W36937  41.456  21.038  11.384
65409W        W36938   7.635  22.162   3.668
65410W        W36939  29.982  33.782   3.636
65411W        W36940  15.685  28.801  12.104
65412W        W36941  35.955  12.421   0.746
65413W        W36942  42.874  23.037   1.533
65414W        W36943  29.134  23.664  13.892
65415W        W36944  11.802  16.758  11.679
65416W        W36945   5.581  23.080  11.131
65417W        W36946  13.062  23.586  12.135
65418W        W36947  16.241  18.048   1.785
65419W        W36948  38.383  36.989  10.623
65420W        W36949  14.117  40.345  10.869
65421W        W36950  29.130  40.287  10.674
65422W        W36951  28.258  17.774   3.918
65423W        W36952  33.907   9.824  14.853
65424W        W36953  28.147  14.624   4.677
65425W        W36954  28.574  21.259  13.607
65426W        W36955  33.994  36.582  11.049
65427W        W36956  24.404  17.299  13.779
65428W        W36957  27.584   6.796   0.195
65429W        W36958  10.749  20.631   3.248
65430W        W36959  18.534  16.509  11.253
65431W        W36960  34.520  15.226  13.929
65432W        W36961  28.521  25.635  14.764
65433W        W36962  43.921  41.602   0.877
65434W        W36963  22.124   6.045  12.950
65435W        W36964  20.631  11.190   4.878
65436W        W36965  17.788   5.749   3.635
65437W        W36966  39.712   7.848   0.532
65438W        W36967   9.396  23.415   5.004
65439W        W36968  16.884  36.068   1.171
65440W        W36969  39.576  17.830  14.923
65441W        W36970  37.898  42.985   9.925
65442W        W36971  25.170   8.794   2.150
65443W        W36972  21.156  44.810   2.813
65444W        W36973  40.363  13.223   4.862
65445W        W36974  24.692  21.042   0.992
65446W        W36975  44.405   4.701   3.393
65447W        W36976  12.275   4.182   2.580
65448W        W36977  38.915  30.543   3.251
65449W        W36978  43.432  19.109  13.746
65450W        W36979  44.543  17.261  14.576
65451W        W36980  42.840   5.799  14.738
65452W        W36981   2.345  30.354   2.425
65453W        W36982  14.848   3.411  10.725
65454W        W36983  37.890  35.211   3.842
65455W        W36984  16.330  14.292  11.475
65456W        W36985  12.720  34.041   5.035
65457W        W36986  20.455  44.947   4.237
65458W        W36987  44.562  18.475   1.953
65459W        W36988  27.603  10.755   1.934
65460W        W36989  20.474  10.113  13.878
65461W        W36990   8.904   5.016  12.991
65462W        W36991  22.341  35.665   4.676
65463W        W36992  22.040  39.616  12.727
65464W        W36993  14.326   7.352   3.405
65465W        W36994  13.049   4.334  14.324
65466W        W36995   1.413  44.428  12.114
65467W        W36996  41.421  41.855  14.804
65468W        W36997   0.743  28.605  12.380
65469W        W36998  21.070  43.869   4.564
65470W        W36999  17.767  41.119   3.381
65471W        W37000  29.142  16.733  11.156
65472W        W37001  22.727  18.779  12.632
65473W        W37002  24.794  30.391  14.828
65474W        W37003  25.588   1.852   1.606
65475W        W37004  39.534  35.392  14.036
65476W        W37005  11.943  39.100   5.170
65477W        W37006  26.904  12.152   2.190
65478W        W37007  11.203   4.118   0.719
65479W        W37008  28.859  39.809  11.987
65480W        W37009   1.350  12.665   1.315
65481W        W37010  39.300  33.462   4.064
65482W        W37011  22.785   9.112  11.189
65483W        W37012   7.612  40.649  13.405
65484W        W37013  29.654  23.812  12.045
65485W        W37014  40.511  14.793   0.965
65486W        W37015  20.184  36.485  12.941
65487W        W37016   7.228  27.868   4.155
65488W        W37017   4.734   3.880   1.974
65489W        W37018  43.869   9.802   3.351
65490W        W37019  24.057  24.543  11.741
65491W        W37020  12.732  34.887  13.508
65492W        W37021  15.608  42.418   4.098
65493W        W37022  29.992  16.175   4.518
65494W        W37023  27.480  38.818   0.441
65495W        W37024  37.323  24.178   1.348
65496W        W37025  21.765  43.916   2.206
65497W        W37026   8.184  25.529  12.254
65498W        W37027  31.400  25.274   4.070
65499W        W37028   1.738  35.690  13.868
65500W        W37029   6.598  41.546   4.216
65501W        W37030  17.716  31.689  12.903
65502W        W37031  40.601  21.306   0.282
65503W        W37032  28.501  29.145  14.217
65504W        W37033  30.940  37.548  14.317
65505W        W37034  24.167  18.017   2.014
65506W        W37035  31.690   0.210  11.679
65507W        W37036  24.236  37.206  13.895
65508W        W37037  44.399  12.254  11.171
65509W        W37038  19.067   3.315  13.439
65510W        W37039   3.453  36.995  11.232
65511W        W37040  14.560  10.961   3.248
65512W        W37041  21.702  37.640  12.859
65513W        W37042  35.024  14.362   2.710
65514W        W37043   5.409   3.707  11.976
65515W        W37044  18.486   8.833  10.650
65516W        W37045  14.805  25.192  11.174
65517W        W37046  19.097  33.495  13.090
65518W        W37047  11.902  30.555   1.564
65519W        W37048   2.293  43.179   0.953
65520W        W37049   1.735  39.824   3.128
65521W        W37050  36.082  36.474  11.694
65522W        W37051  15.245  11.866  13.383
65523W        W37052  43.762  14.868   3.356
65524W        W37053  40.450  18.276   4.198
65525W        W37054  40.380  13.900   2.561
65526W        W37055  41.990  24.583  11.910
65527W        W37056  12.318  29.548  11.194
65528W        W37057   8.341  36.239   0.732
65529W        W37058  20.156  33.266   9.851
65530W        W37059  40.922  19.285   2.331
65531W        W37060  44.530  20.341  12.696
65532W        W37061  42.957  40.887   2.306
65533W        W37062  18.125  35.844  10.575
65534W        W37063   8.001  29.934   2.900
65535W        W37064  36.857  39.770   0.382
65536W        W37065   1.248  13.398  11.053
65537W        W37066  17.733  32.583   3.403
65538W        W37067  16.255  23.099  11.977
65539W        W37068  35.642  16.141  14.770
65540W        W37069  30.929  25.180   4.335
65541W        W37070  22.999  20.484  13.968
65542W        W37071  19.745  42.536  13.892
65543W        W37072   2.100   2.377  14.591
65544W        W37073   3.384  11.270  10.636
65545W        W37074  18.299  17.381  11.116
65546W        W37075   3.217  44.738   4.096
65547W        W37076  18.207   8.167  12.896
65548W        W37077   7.028  15.996  12.632
65549W        W37078  23.983  39.272  12.947
65550W        W37079   7.667  20.588   2.638
65551W        W37080  10.402  23.283  14.181
65552W        W37081  22.040  27.573   1.687
65553W        W37082  16.691  39.461   1.042
65554W        W37083  35.213  21.264   5.056
65555W        W37084   9.361  25.824   3.284
65556W        W37085  10.285   6.696   2.180
65557W        W37086  32.255   3.217   4.533
65558W        W37087  38.341  41.381  13.400
65559W        W37088  28.643  15.529   0.848
65560W        W37089  21.688   9.802  10.684
65561W        W37090  11.704  40.756  10.573
65562W        W37091   1.717  16.302   0.279
65563W        W37092   7.418  42.617   3.147
65564W        W37093  18.294   0.477  10.672
65565W        W37094   8.687  41.835  12.562
65566W        W37095  21.255  38.754   0.805
65567W        W37096  13.800  43.023   4.214
65568W        W37097  12.316   2.461  12.118
65569W        W37098   1.319  10.721  10.691
65570W        W37099  42.004  21.843   1.002
65571W        W37100  36.927  38.051   1.537
65572W        W37101  40.450   3.394   1.890
65573W        W37102  38.751  18.180   1.319
65574W        W37103  19.613  27.523   4.325
65575W        W37104  22.688  32.680  12.980
65576W        W37105  40.997  29.213  12.639
65577W        W37106  28.094  28.479  14.242
65578W        W37107  26.430  29.485   0.913
65579W        W37108  15.144  39.427   3.130
65580W        W37109  20.238  18.708  10.788
65581W        W37110  33.087  33.845   5.113
65582W        W37111  31.158  34.547   3.570
65583W        W37112  35.288  27.940  14.524
65584W        W37113  35.656   7.922   0.839
65585W        W37114   0.117  29.536   4.126
65586W        W37115  41.275  14.291  12.152
65587W        W37116  20.770  35.394   4.273
65588W        W37117  40.805   2.527  10.744
65589W        W37118  25.529  37.355   4.336
65590W        W37119  29.527  31.693   3.171
65591W        W37120  20.206  32.141   0.273
65592W        W37121   9.258  12.073   2.173
65593W        W37122  12.164  26.567  11.449
65594W        W37123  31.464  40.328  14.829
65595W        W37124  29.027  14.760   1.950
65596W        W37125  33.316  10.398   0.001
65597W        W37126  19.602  27.464   2.874
65598W        W37127  10.032   5.086   2.333
65599W        W37128  12.614  30.365  11.074
65600W        W37129  26.123  30.599  14.625
65601W        W37130  24.866  28.353   3.685
65602W        W37131  20.748   0.406  10.473
65603W        W37132  16.019   3.307   2.240
65604W        W37133  25.158  25.653   1.085
65605W        W37134   4.588  19.404   4.601
65606W        W37135  29.111  42.959  13.396
65607W        W37136   0.382  36.780   1.509
65608W        W37137  42.790  23.012  11.514
65609W        W37138  31.386  29.591   1.233
65610W        W37139   0.500  15.952   2.815
65611W        W37140  35.872  24.553   2.802
65612W        W37141  43.880  25.949   2.223
65613W        W37142   7.785   9.979  11.641
65614W        W37143  38.045  21.628  12.851
65615W        W37144  42.061  43.438   1.761
65616W        W37145  43.265  27.053   0.084
65617W        W37146  33.466   6.714  11.659
65618W        W37147   1.128  27.469   1.273
65619W        W37148   2.563   4.445   3.120
65620W        W37149   3.954  21.061  13.420
65621W        W37150   9.200  12.575  12.278
65622W        W37151   9.759  19.649  14.555
65623W        W37152  39.835  19.651  14.261
65624W        W37153  33.653  12.703   3.345
65625W        W37154  27.588   6.961   4.138
65626W        W37155  28.472   4.836  12.037
65627W        W37156  11.197  17.746   4.118
65628W        W37157  24.598  34.878   4.089
65629W        W37158  41.447  31.803   4.711
65630W        W37159  11.784  20.007   1.766
65631W        W37160  11.259  36.721   3.179
65632W        W37161   3.948  25.482   4.600
65633W        W37162   4.327  44.492  10.977
65634W        W37163  39.647  41.816   1.471
65635W        W37164  20.477  44.201   1.651
65636W        W37165  11.104  11.394   3.306
65637W        W37166   2.093  39.022  13.120
65638W        W37167  24.620  19.750  10.624
65639W        W37168   8.105  28.699   0.133
65640W        W37169  22.151  34.505   0.503
65641W        W37170  19.741  39.891   2.604
65642W        W37171  37.073  17.172  14.768
65643W        W37172   4.545  20.848   1.282
65644W        W37173  31.982  27.445  11.974
65645W        W37174  21.451  16.388   1.842
65646W        W37175   1.480   8.937  12.952
65647W        W37176  40.109  11.714   2.596
65648W        W37177  19.997  34.614  13.875
65649W        W37178  37.343  12.712  11.885
65650W        W37179  33.557  22.941  11.489
65651W        W37180  21.863   6.133   3.093
65652W        W37181  13.494  25.559  11.442
65653W        W37182  36.151  29.276  12.441
65654W        W37183  42.606  29.560   4.590
65655W        W37184  20.547  35.606  11.446
65656W        W37185  15.312  28.957   0.885
65657W        W37186  18.134  16.010  10.748
65658W        W37187  35.366  36.459  10.851
65659W        W37188  26.885  28.944   3.147
65660W        W37189  10.853  22.541   3.422
65661W        W37190  19.813  33.624  13.624
65662W        W37191  32.639  33.914  10.875
65663W        W37192   5.193  43.333  12.781
65664W        W37193  23.177   9.809   1.085
65665W        W37194   4.805  11.689  14.323
65666W        W37195  16.938   8.705  14.549
65667W        W37196  11.839  19.283  14.264
65668W        W37197  31.344  23.462  10.671
65669W        W37198  24.738  23.029   2.273
65670W        W37199   2.878  13.348  10.953
65671W        W37200  35.536  31.869   4.733
65672W        W37201  22.821  11.836   5.016
65673W        W37202  13.583  16.216   3.571
65674W        W37203  14.918  30.705  14.808
65675W        W37204  11.325  40.343   3.876
65676W        W37205  20.020  13.151   1.554
65677W        W37206  32.415  23.598   4.928
65678W        W37207  15.748  44.905   2.384
65679W        W37208  16.779  32.748   2.720
65680W        W37209  20.528  16.117   3.355
65681W        W37210   5.847  11.174  10.585
65682W        W37211  42.981  25.578   0.781
65683W        W37212  20.021  12.295  12.673
65684W        W37213  42.982  44.564  11.677
65685W        W37214   1.497  12.691  13.058
65686W        W37215  21.776  12.343   0.963
65687W        W37216  27.096  24.197  14.391
65688W        W37217  11.280  28.257   1.740
65689W        W37218  40.049  21.693   2.117
65690W        W37219  21.222   2.120   4.128
65691W        W37220  20.067   7.264   3.188
65692W        W37221  27.108  26.589  14.224
65693W        W37222  24.718  28.029   1.467
65694W        W37223   1.908  31.185   4.265
65695W        W37224  38.331  25.685  14.352
65696W        W37225   6.300  32.421   3.613
65697W        W37226  14.168  43.572  12.062
65698W        W37227  31.447   8.883   0.101
65699W        W37228  24.955  33.333  13.740
65700W        W37229  27.960  40.970   2.996
65701W        W37230  10.229  26.488  12.275
65702W        W37231  36.893   9.217  13.269
65703W        W37232  43.323  21.195   0.229
65704W        W37233  15.363  38.454   1.345
65705W        W37234  17.929   0.837  11.104
65706W        W37235  11.803  11.628  13.826
65707W        W37236   6.933  25.883   3.691
65708W        W37237  36.937  34.112   3.871
65709W        W37238   5.406   4.070  12.507
65710W        W37239  28.471  21.094  12.610
65711W        W37240  13.849   2.764  13.366
65712W        W37241  29.829   7.817  11.569
65713W        W37242  15.768   1.045  11.314
65714W        W37243  29.831  42.112  13.977
65715W        W37244   8.611  32.302   2.392
65716W        W37245   8.295  22.523   0.567
65717W        W37246  21.234  16.691  10.266
65718W        W37247   4.620  10.670  11.099
65719W        W37248   9.139  22.978   1.846
65720W        W37249  44.318  14.395   2.823
65721W        W37250  20.547  16.875   1.336
65722W        W37251  42.114  21.102   4.531
65723W        W37252  11.530  29.177  14.945
65724W        W37253  10.923  30.945  12.652
65725W        W37254  36.458  32.880  12.291
65726W        W37255  19.238  17.698  12.110
65727W        W37256  43.050   3.249  14.448
65728W        W37257  12.908  26.507  12.886
65729W        W37258  32.930   6.528   2.715
65730W        W37259   0.316  41.386   1.045
65731W        W37260  15.059  40.411  13.898
65732W        W37261   2.396  13.832  12.505
65733W        W37262  11.292  38.280   1.816
65734W        W37263   4.877   7.688  13.990
65735W        W37264   4.313  23.762   2.180
65736W        W37265  27.156   5.461   0.392
65737W        W37266  29.729  14.193  11.183
65738W        W37267  12.306  39.096  13.033
65739W        W37268  12.998  12.948   2.839
65740W        W37269  33.247  27.169  10.709
65741W        W37270  15.239  25.987   4.403
65742W        W37271  16.795  20.724  13.239
65743W        W37272  34.907  17.730  11.628
65744W        W37273   0.463  18.776   2.736
65745W        W37274  33.125  20.595   4.741
65746W        W37275  20.566  41.556   2.242
65747W        W37276  23.101  14.608  12.955
65748W        W37277  15.082  23.213  13.703
65749W        W37278  16.375  23.308   3.492
65750W        W37279  19.662  28.192   2.427
65751W        W37280   1.989   3.764  13.456
65752W        W37281   1.269   3.361   3.772
65753W        W37282  37.272  37.987  12.965
65754W        W37283  24.955  14.733  11.615
65755W        W37284  16.011   7.950  12.567
65756W        W37285  21.515  44.366   2.353
65757W        W37286  12.805   2.958  13.323
65758W        W37287   4.630  33.385  12.932
65759W        W37288  16.684  37.135  12.052
65760W        W37289  17.381   5.406   3.586
65761W        W37290   6.823  32.426   2.891
65762W        W37291  19.570  35.596   4.839
65763W        W37292  42.340  13.671  13.489
65764W        W37293  32.532  35.448  14.426
65765W        W37294  43.005  33.614  10.766
65766W        W37295  30.127   8.648  13.170
65767W        W37296  26.124  30.699   0.147
65768W        W37297  28.076  35.832  11.905
65769W        W37298  11.153  22.275   0.396
65770W        W37299   5.796  39.760   4.282
65771W        W37300   8.701  26.362   5.077
65772W        W37301  22.530   5.817  14.771
65773W        W37302  39.876  40.588   4.559
65774W        W37303   8.511  30.950   4.800
65775W        W37304  34.869  21.304  13.548
65776W        W37305   1.584   3.335   2.764
65777W        W37306  31.211  18.517  10.755
65778W        W37307   5.691  18.791  11.982
65779W        W37308  42.651  10.354   4.609
65780W        W37309   1.582  11.133  12.325
65781W        W37310  35.597  33.611   0.247
65782W        W37311  28.235  38.357   1.256
65783W        W37312   0.276  32.110   3.129
65784W        W37313  36.933  31.905   3.185
65785W        W37314  13.714  36.387  11.731
65786W        W37315   4.345  15.363   4.575
65787W        W37316   0.947   4.733   1.434
65788W        W37317  13.740  40.921  14.672
65789W        W37318  35.881  10.833   0.827
65790W        W37319  33.092  16.552   0.252
65791W        W37320  12.124  12.791  14.979
65792W        W37321  24.630  21.792   0.250
65793W        W37322  30.471  22.976   3.289
65794W        W37323  22.111  38.470   4.545
65795W        W37324  18.482  39.994   3.385
65796W        W37325  13.255  19.634   2.089
65797W        W37326  34.403  15.989   2.193
65798W        W37327   9.363  36.003  12.504
65799W        W37328  36.077  20.950   3.630
65800W        W37329  15.256   8.892  12.343
65801W        W37330  20.842  35.357  13.086
65802W        W37331  16.547  41.589  13.510
65803W        W37332   3.926  30.145   1.234
65804W        W37333  22.856  24.516   4.043
65805W        W37334  44.028   1.590  12.882
65806W        W37335  13.543  27.924  11.916
65807W        W37336  15.407  30.703  14.959
65808W        W37337  39.040  31.708  13.975
65809W        W37338  29.826  31.321   1.853
65810W        W37339  12.275  22.061   4.554
65811W        W37340  24.077  20.061   1.839
65812W        W37341   4.149  21.255   3.137
65813W        W37342  34.431   8.947  10.596
65814W        W37343  33.536   4.862  12.908
65815W        W37344   7.334  10.289  14.004
65816W        W37345  44.504  19.626   4.863
65817W        W37346   1.683  40.555   0.690
65818W        W37347  36.865  30.533   0.410
65819W        W37348  37.942  28.185   1.859
65820W        W37349  13.703  41.991   0.328
65821W        W37350  13.052  31.210  12.288
65822W        W37351  10.762  24.259  12.604
65823W        W37352   3.344  10.667   1.534
65824W        W37353  44.871   5.703  14.691
65825W        W37354  14.219  35.117  12.567
65826W        W37355  41.346  28.439   4.100
65827W        W37356   4.480  38.345   2.160
65828W        W37357   9.893   2.782   4.138
65829W        W37358  11.949  43.100   0.528
65830W        W37359  41.525   2.997  12.924
65831W        W37360  24.307  31.087   0.458
65832W        W37361  13.425  16.235  14.417
65833W        W37362  15.056   3.247  13.617
65834W        W37363  30.761  17.214   0.203
65835W        W37364  44.987  35.046   3.831
65836W        W37365  12.748  11.957   1.116
65837W        W37366  40.892  43.724  13.993
65838W        W37367   8.251  24.570   3.622
65839W        W37368  30.675  38.857  10.698
65840W        W37369   5.022  13.375   3.728
65841W        W37370  28.408   2.398  12.995
65842W        W37371  17.129  30.433  13.986
65843W        W37372  40.789   1.819   3.229
65844W        W37373   6.347  23.831   4.200
65845W        W37374  19.176  28.405  14.294
65846W        W37375   7.009  43.435  14.940
65847W        W37376  26.069  12.227   4.230
65848W        W37377  23.731  31.556   4.071
65849W        W37378  33.234  21.070   1.430
65850W        W37379  34.824  30.509   4.658
65851W        W37380  13.083  24.690  13.704
65852W        W37381   0.022  43.847   1.924
65853W        W37382   4.693  39.020   1.841
65854W        W37383  44.375  28.107  11.677
65855W        W37384  44.967  44.293   0.753
65856W        W37385   4.648  37.648   3.758
65857W        W37386  27.503  28.675  14.903
65858W        W37387  35.645   5.654  11.271
65859W        W37388   1.204  30.570   2.261
65860W        W37389  21.264  39.920   4.082
65861W        W37390  29.044   0.693   4.010
65862W        W37391  13.330  23.567   3.246
65863W        W37392  20.372  42.436  14.770
65864W        W37393  42.571  11.119   1.373
65865W        W37394  11.785  12.989  10.355
65866W        W37395   5.794  42.760  13.835
65867W        W37396  10.289   1.265  14.976
65868W        W37397   6.514  17.801   4.553
65869W        W37398  11.136  17.774  10.883
65870W        W37399  12.526  26.227   1.215
65871W        W37400  18.492   7.756  13.911
65872W        W37401  26.742   1.815   0.172
65873W        W37402  19.934  23.608   1.329
65874W        W37403  34.170  25.616  14.026
65875W        W37404  18.882   3.305  10.751
65876W        W37405  33.543  41.821   1.460
65877W        W37406  30.913  14.753  12.153
65878W        W37407  33.760  16.945   1.421
65879W        W37408  15.682  16.530  13.048
65880W        W37409   1.363  42.869   4.141
65881W        W37410  38.413  23.136   3.495
65882W        W37411  14.801  25.554  12.558
65883W        W37412  41.073  34.334   1.496
65884W        W37413  37.925  27.071  13.606
65885W        W37414  40.412   0.365  10.659
65886W        W37415  17.827   3.536   1.893
65887W        W37416  22.230   3.900   3.626
65888W        W37417  24.012   8.255   2.246
65889W        W37418   4.821  11.151  14.408
65890W        W37419  12.008  18.725   3.756
65891W        W37420   2.776  29.931  14.379
65892W        W37421  16.365  14.754  13.371
65893W        W37422  37.466  27.013  13.870
65894W        W37423   8.435  14.316   4.127
65895W        W37424   1.273  38.441   1.198
65896W        W37425  12.363  35.976   1.866
65897W        W37426  14.774  30.753   4.798
65898W        W37427  13.712   3.176   1.794
65899W        W37428  15.586  25.066  13.546
65900W        W37429  38.792  44.677  12.575
65901W        W37430  16.489  32.923  13.982
65902W        W37431  40.704   5.813   4.936
65903W        W37432  38.637  24.355  14.914
65904W        W37433  25.746  39.409   1.039
65905W        W37434  37.064  40.394   1.980
65906W        W37435   4.830  10.712  11.584
65907W        W37436   6.603  29.764  10.702
65908W        W37437  26.442  40.739  14.443
65909W        W37438  40.617   2.721   3.550
65910W        W37439  33.333   8.350   3.827
65911W        W37440  17.797  21.811   4.463
65912W        W37441  31.148  33.306   9.881
65913W        W37442  14.978  26.567  14.913
65914W        W37443  23.445  43.059  12.968
65915W        W37444  25.007   4.302   3.120
65916W        W37445  44.401  40.921  13.874
65917W        W37446  21.219  37.573  13.278
65918W        W37447  25.243  43.829   3.234
65919W        W37448  27.431  18.717   2.407
65920W        W37449  19.459  44.468   2.690
65921W        W37450  44.792  44.863   4.838
65922W        W37451  18.771  33.599   3.402
65923W        W37452  19.153  44.659   0.334
65924W        W37453  38.045  38.978  14.930
65925W        W37454  12.257  20.323  14.859
65926W        W37455  16.592  34.760   2.107
65927W        W37456  37.284   4.735   0.413
65928W        W37457  23.048  29.598  13.870
65929W        W37458  40.983  11.764   1.876
65930W        W37459   0.788  29.531  14.345
65931W        W37460  11.350   2.505  11.132
65932W        W37461   1.289  10.159   1.297
65933W        W37462  25.098  32.839  13.817
65934W        W37463  25.670  16.297   1.209
65935W        W37464  27.275  25.970   4.506
65936W        W37465  44.492  14.744   1.204
65937W        W37466  31.377  21.652   3.681
65938W        W37467   8.784  11.730   1.758
65939W        W37468  44.013  33.095  11.710
65940W        W37469  20.131  40.586  11.619
65941W        W37470  19.695  20.950   4.539
65942W        W37471  17.442  38.553   3.736
65943W        W37472  22.432  38.927   2.303
65944W        W37473  13.592   1.970   0.784
65945W        W37474  37.497  17.993   1.825
65946W        W37475   0.540  30.165   3.648
65947W        W37476  18.135  44.362  11.168
65948W        W37477  11.236  14.322   2.298
65949W        W37478  24.477  39.010  14.394
65950W        W37479  29.175  42.581  11.142
65951W        W37480  39.531   7.306   1.281
65952W        W37481  26.621  18.195   0.733
65953W        W37482  19.728  43.759   3.248
65954W        W37483   2.712  23.666  13.240
65955W        W37484  42.915  40.646   0.638
65956W        W37485  17.754   2.058  10.684
65957W        W37486  18.850  33.997  14.400
65958W        W37487  38.426  16.971  10.681
65959W        W37488  40.941   1.058   2.695
65960W        W37489  34.096   9.784   0.969
65961W        W37490  39.131  29.715  11.404
65962W        W37491  31.663  13.372  14.094
65963W        W37492  30.955   3.155  10.725
65964W        W37493  16.362   7.339   1.289
65965W        W37494  35.487  31.204  14.693
65966W        W37495  40.169   9.324  13.078
65967W        W37496  29.433   0.841  12.986
65968W        W37497  40.794  39.519  10.682
65969W        W37498  38.075  25.027   5.050
65970W        W37499  29.947  39.095  13.914
65971W        W37500  24.830  18.026   0.626
65972W        W37501  32.594  19.695   0.621
65973W        W37502  41.846  42.576   0.135
65974W        W37503  39.344  13.603  12.839
65975W        W37504  36.024   1.997   1.856
65976W        W37505  30.143  34.519  14.565
65977W        W37506  10.693  17.554   1.016
65978W        W37507   1.904   8.639  13.066
65979W        W37508  37.793  28.200  14.754
65980W        W37509  31.782  33.184   0.533
65981W        W37510  36.058  36.602   2.579
65982W        W37511  16.115  34.465   2.059
65983W        W37512  41.562  30.499   2.758
65984W        W37513   5.380   6.703   0.483
65985W        W37514  10.106  29.468   4.125
65986W        W37515   7.272  34.647   0.881
65987W        W37516  14.856  26.588  10.123
65988W        W37517  15.570  26.889   0.666
65989W        W37518  44.037  35.229  14.166
65990W        W37519  11.924   9.704  11.248
65991W        W37520  40.599  12.902   3.648
65992W        W37521   1.317  36.970  14.607
65993W        W37522   2.646  41.359  12.003
65994W        W37523  35.312  26.943   3.128
65995W        W37524  42.965   1.716  14.586
65996W        W37525  18.632  35.624  10.629
65997W        W37526  16.779  24.903  12.500
65998W        W37527  11.674  17.094  14.049
65999W        W37528  22.153  39.564  14.358
66000W        W37529   3.306  13.015   3.890
66001W        W37530  26.657  15.201  12.175
66002W        W37531   2.996  35.394  11.509
66003W        W37532  36.841  41.286   1.758
66004W        W37533  39.391  29.193   2.202
66005W        W37534  20.778  11.527  13.925
66006W        W37535  37.478  10.585  10.827
66007W        W37536  10.486  30.423   1.443
66008W        W37537  25.626  16.072  11.569
66009W        W37538  34.209  44.003  11.042
66010W        W37539  40.606  34.899   3.597
66011W        W37540  40.055   4.931   1.187
66012W        W37541   3.725  35.045   3.701
66013W        W37542   3.120  10.213   1.401
66014W        W37543  38.066  15.629  10.689
66015W        W37544  40.390   6.160   3.887
66016W        W37545  23.116  41.861  10.753
66017W        W37546  33.969   5.667   4.361
66018W        W37547  20.520  18.560   2.242
66019W        W37548  18.281  41.922   4.367
66020W        W37549  34.682  14.743  13.790
66021W        W37550  27.162  40.746  12.538
66022W        W37551  27.033  37.637   2.249
66023W        W37552  30.664  31.152  11.131
66024W        W37553  15.552   8.902  13.585
66025W        W37554  34.082  31.484  10.678
66026W        W37555  32.461   2.399   4.195
66027W        W37556  23.207   6.392   1.706
66028W        W37557  15.683  41.568  14.759
66029W        W37558  17.782  32.606  10.634
66030W        W37559  37.866  12.216   2.328
66031W        W37560   9.703   6.275  11.161
66032W        W37561   2.783   8.194   0.328
66033W        W37562  14.158  11.735  12.459
66034W        W37563  20.790  35.371   0.756
66035W        W37564  11.460  29.659   1.744
66036W        W37565  19.985  16.345  12.632
66037W        W37566  14.341  44.545   1.473
66038W        W37567  14.138  41.061   1.245
66039W        W37568  25.094  35.064   4.049
66040W        W37569  26.413  30.098   3.812
66041W        W37570  22.564   3.181   1.307
66042W        W37571  34.755  43.569  12.011
66043W        W37572  34.059   6.384  11.015
66044W        W37573  21.258  11.274  13.812
66045W        W37574   8.766  20.141  13.238
66046W        W37575  34.023  11.826  12.150
66047W        W37576  21.509  18.248   0.893
66048W        W37577  36.455   8.269  14.346
66049W        W37578  41.064  29.234  13.520
66050W        W37579  22.178  28.090  14.013
66051W        W37580  29.896  20.944   4.722
66052W        W37581  14.260  16.758  12.479
66053W        W37582  16.695  36.543  13.936
66054W        W37583  31.575  20.565  14.458
66055W        W37584   7.381  35.393  13.743
66056W        W37585  36.697  42.869   3.423
66057W        W37586  26.695  43.014  12.461
66058W        W37587  23.123  14.568   3.404
66059W        W37588  30.511  18.251  13.097
66060W        W37589  10.644  27.252  11.802
66061W        W37590  32.793  39.280  11.104
66062W        W37591  22.158  35.028  14.556
66063W        W37592  20.784  31.141  12.233
66064W        W37593  21.025  20.970   9.885
66065W        W37594  30.512  29.607   4.234
66066W        W37595  19.561   1.745  11.640
66067W        W37596  34.195  38.820   3.197
66068W        W37597  39.303   1.232  13.374
66069W        W37598  17.620  12.379  11.310
66070W        W37599  15.154  29.414  12.368
66071W        W37600  27.372  18.064   2.793
66072W        W37601  36.069  12.129  12.606
66073W        W37602  42.335  43.998   4.919
66074W        W37603  43.229  33.460   2.900
66075W        W37604   6.775  19.563   3.192
66076W        W37605   0.252   2.461   4.270
66077W        W37606  10.035  34.483  10.765
66078W        W37607  13.863  29.644   2.757
66079W        W37608  28.525  10.301   4.867
66080W        W37609   1.866  44.256  10.408
66081W        W37610   2.734  37.179  12.484
66082W        W37611  38.987  24.451   2.350
66083W        W37612  35.108  23.558   2.706
66084W        W37613  28.412   7.989   2.236
66085W        W37614  22.242  35.509  11.584
66086W        W37615  33.561  31.956  13.015
66087W        W37616   1.665   8.576   0.205
66088W        W37617   7.718  34.989   1.833
66089W        W37618  35.201  43.992   0.981
66090W        W37619  17.763   7.851  12.129
66091W        W37620  15.292  34.624  11.133
66092W        W37621   3.554  21.002  10.813
66093W        W37622  22.074  41.867  13.028
66094W        W37623   9.969  43.811  13.814
66095W        W37624  42.622  24.548   2.863
66096W        W37625   5.537  14.648   1.894
66097W        W37626  36.027  15.608  11.592
66098W        W37627  28.292  31.338   0.902
66099W        W37628  36.505  36.844  11.550
66100W        W37629  14.651  28.227  11.155
66101W        W37630  25.684  43.370   4.346
66102W        W37631  42.525  35.023  11.523
66103W        W37632   1.366  33.373   3.859
66104W        W37633  40.828  28.460  11.871
66105W        W37634   3.241  15.575   0.353
66106W        W37635  30.969  28.646   3.027
66107W        W37636   6.619  27.242   3.953
66108W        W37637  24.444  41.092  10.631
66109W        W37638  32.491  31.814  14.055
66110W        W37639  10.795   8.205   0.691
66111W        W37640  18.205  42.623   2.719
66112W        W37641  41.018  27.171  14.535
66113W        W37642  34.845   9.362  13.040
66114W        W37643  34.604  23.671   2.800
66115W        W37644  16.575  13.767  14.902
66116W        W37645  23.049  11.313  10.442
66117W        W37646  18.500  12.170   1.888
66118W        W37647  18.133  15.556   4.059
66119W        W37648  28.480  39.383  10.648
66120W        W37649  11.967  14.108   4.283
66121W        W37650  30.953  29.759  12.205
66122W        W37651  14.639   8.013  11.422
66123W        W37652  11.724   8.751  13.375
66124W        W37653   6.652  36.077   1.408
66125W        W37654  15.715   3.638  13.978
66126W        W37655   1.486  32.973   3.077
66127W        W37656   6.087  30.565  14.817
66128W        W37657   8.186  37.273   3.199
66129W        W37658  24.958   9.186  13.372
66130W        W37659  12.083   0.886  12.578
66131W        W37660  17.117   7.530   1.805
66132W        W37661  38.838  32.547   0.277
66133W        W37662   5.933  13.102  10.642
66134W        W37663  35.419  36.134  14.027
66135W        W37664  34.613  27.175   3.745
66136W        W37665   0.261  34.578   3.085
66137W        W37666  19.746  36.909  10.708
66138W        W37667  40.116  40.127   4.538
66139W        W37668  18.597  44.810   1.409
66140W        W37669  24.537  42.803   2.678
66141W        W37670  27.714  35.360   4.173
66142W        W37671   3.066  44.512  14.025
66143W        W37672  20.515  38.470  10.212
66144W        W37673  22.771  10.393  11.492
66145W        W37674  20.627  19.740   1.394
66146W        W37675   7.220   4.394  11.475
66147W        W37676  37.005  25.239   0.313
66148W        W37677  41.419  36.859  13.429
66149W        W37678  36.845  13.074   4.603
66150W        W37679   5.901  15.268  11.220
66151W        W37680   3.697  29.094   2.520
66152W        W37681  41.371  16.384  11.772
66153W        W37682  44.963  31.411  11.322
66154W        W37683  15.119   7.229  14.284
66155W        W37684  33.128  40.377  11.627
66156W        W37685   9.303   3.400  11.013
66157W        W37686  41.906  38.290  12.965
66158W        W37687  44.979  32.968   0.255
66159W        W37688  34.905  39.472  14.475
66160W        W37689   9.616  33.966   1.723
66161W        W37690  44.493   9.373  11.183
66162W        W37691  38.248  39.954   1.292
66163W        W37692   3.937  42.523  11.883
66164W        W37693   4.141  35.010   1.846
66165W        W37694   8.305  29.516   1.242
66166W        W37695  18.053  41.787  13.281
66167W        W37696  27.818  23.181  13.726
66168W        W37697   3.553  22.585   4.634
66169W        W37698  27.765  23.368  11.996
66170W        W37699  19.169  22.606  14.456
66171W        W37700  19.049   3.533   4.158
66172W        W37701  35.460  34.424  10.777
66173W        W37702  42.023   7.728   4.596
66174W        W37703  20.023  32.951   2.333
66175W        W37704  33.556  29.258  13.968
66176W        W37705  20.533  23.161   2.434
66177W        W37706  12.363  44.465  13.730
66178W        W37707  20.918  16.469   2.460
66179W        W37708   7.354  19.602  11.957
66180W        W37709  27.205  17.765  11.163
66181W        W37710  42.923  33.067   1.213
66182W        W37711  20.535  34.574  12.994
66183W        W37712  43.697  10.746  11.160
66184W        W37713   7.817  41.755   4.222
66185W        W37714  13.445  19.305  13.932
66186W        W37715  10.467   8.912   4.961
66187W        W37716   0.429   9.701   1.898
66188W        W37717  31.032  16.596  11.966
66189W        W37718   5.305   3.231  14.589
66190W        W37719   3.824  14.665  13.526
66191W        W37720  33.073   0.475  11.950
66192W        W37721  16.937  28.453   1.673
66193W        W37722   9.061  19.473   2.189
66194W        W37723  33.956   2.038   1.324
66195W        W37724   0.887  13.765  11.962
66196W        W37725  35.563   2.982   0.900
66197W        W37726   2.394  12.196  11.908
66198W        W37727   0.722  31.918  12.929
66199W        W37728   1.484  38.492   3.637
66200W        W37729   6.629  33.914   3.247
66201W        W37730   0.505  39.460   1.132
66202W        W37731  27.626  27.488  10.621
66203W        W37732   7.129  43.228  13.706
66204W        W37733  34.927   4.316   4.773
66205W        W37734  44.323  18.235  11.715
66206W        W37735   3.722   3.329   1.525
66207W        W37736  27.933  21.598   0.879
66208W        W37737  29.116   9.367  10.591
66209W        W37738  36.556   7.813   3.772
66210W        W37739   3.652  36.937   2.757
66211W        W37740  25.176  23.277   1.204
66212W        W37741  43.954  34.381   0.958
66213W        W37742   9.415  40.222   2.725
66214W        W37743   8.901  19.266  14.866
66215W        W37744  42.085  22.538  11.994
66216W        W37745  16.715  15.691  13.214
66217W        W37746  32.527  40.593  11.490
66218W        W37747  36.173   8.885  12.967
66219W        W37748  26.930  24.135   3.689
66220W        W37749  29.121   2.241   0.432
66221W        W37750  14.171   7.413   4.754
66222W        W37751  20.639  14.341  13.263
66223W        W37752  42.090   1.812   4.999
66224W        W37753  16.826   0.296  12.994
66225W        W37754   9.371  34.500  12.745
66226W        W37755  37.367  14.065   3.586
66227W        W37756  22.432  19.236   2.753
66228W        W37757  23.204  13.691  12.103
66229W        W37758  34.315   0.424  12.781
66230W        W37759  22.176  25.681  10.791
66231W        W37760   0.756  18.482  10.759
66232W        W37761   0.875   4.578   2.726
66233W        W37762   0.317  34.600  13.316
66234W        W37763   0.458  39.599  11.427
66235W        W37764  24.752   6.887  13.945
66236W        W37765  41.489   0.961  13.102
66237W        W37766  37.520  23.455   2.859
66238W        W37767  19.794   2.260  13.851
66239W        W37768  16.154  38.000   1.184
66240W        W37769   9.651   7.678   1.159
66241W        W37770  36.382  15.595  14.808
66242W        W37771  43.717   6.241  12.347
66243W        W37772  16.024  32.949  12.567
66244W        W37773  11.427  17.177   0.861
66245W        W37774  28.566   3.834   2.234
66246W        W37775  41.878   0.245   4.772
66247W        W37776  10.468  16.955  10.352
66248W        W37777  40.555  42.059   3.619
66249W        W37778  12.790  10.779   1.628
66250W        W37779  33.037  27.054  14.163
66251W        W37780  23.116  29.160   2.274
66252W        W37781  10.625  20.279   1.802
66253W        W37782  31.070   8.275  10.658
66254W        W37783  17.588  36.216   2.269
66255W        W37784  13.096  14.702  14.296
66256W        W37785  41.029  25.415   3.629
66257W        W37786  10.302  10.700   4.139
66258W        W37787  23.166  42.818  14.870
66259W        W37788   6.209  21.052  14.364
66260W        W37789  13.896  37.588  14.996
66261W        W37790  40.574  35.931   1.902
66262W        W37791  15.832  34.591  14.223
66263W        W37792  24.725   6.240   2.708
66264W        W37793   1.064   7.772  14.909
66265W        W37794  24.202  40.911   1.207
66266W        W37795  39.835  33.628   0.412
66267W        W37796  15.495  32.903  12.516
66268W        W37797  13.941   7.976   2.196
66269W        W37798  28.539  25.906   0.944
66270W        W37799  28.371  26.086  14.433
66271W        W37800  15.814  41.085  12.563
66272W        W37801   0.805  31.789   3.667
66273W        W37802  18.337  19.179  11.549
66274W        W37803   0.830   4.552  14.801
66275W        W37804  30.133  29.069  11.559
66276W        W37805  29.159  35.249  10.719
66277W        W37806  20.049  18.603   4.953
66278W        W37807  27.511   3.687  13.594
66279W        W37808   7.259  38.917  13.779
66280W        W37809   4.656  14.624  12.553
66281W        W37810   4.248  16.632  14.538
66282W        W37811  40.917  31.621   3.150
66283W        W37812  15.528  22.047   2.833
66284W        W37813  15.137  17.228  11.469
66285W        W37814  11.286   9.147  14.317
66286W        W37815  23.828  42.342  13.372
66287W        W37816  17.523  24.522   3.369
66288W        W37817  39.427  24.687   3.292
66289W        W37818  40.070   2.004   0.430
66290W        W37819  44.994  34.088  12.505
66291W        W37820  10.201  16.302   3.746
66292W        W37821  41.267  42.114  13.335
66293W        W37822  28.400   7.331   0.274
66294W        W37823  15.107   7.381   1.752
66295W        W37824  21.178   9.344  12.478
66296W        W37825   5.775   9.884  12.017
66297W        W37826   3.445   9.184   1.399
66298W        W37827  40.511   4.311   1.951
66299W        W37828  18.703   9.731   2.395
66300W        W37829  19.253  20.321  11.104
66301W        W37830   2.497   4.624  10.984
66302W        W37831  14.389   2.680  11.194
66303W        W37832   4.616   5.145   0.662
66304W        W37833  33.282  27.981   9.962
66305W        W37834  10.454  41.323   3.268
66306W        W37835  24.242  43.993  12.483
66307W        W37836   7.657  36.251  13.277
66308W        W37837  12.718  28.458  14.529
66309W        W37838   6.170  12.266  12.583
66310W        W37839  28.289  22.080  12.400
66311W        W37840  13.423  21.518   0.106
66312W        W37841   2.027   3.428  13.845
66313W        W37842  12.224  43.729   1.890
66314W        W37843  30.781  43.311   3.063
66315W        W37844  23.914  23.615  12.739
66316W        W37845   5.909  44.030  11.185
66317W        W37846  23.830  19.553  10.664
66318W        W37847  41.349  37.289  10.668
66319W        W37848  17.362  28.061  14.505
66320W        W37849  11.734  16.616   3.614
66321W        W37850  44.286  27.984  11.161
66322W        W37851  43.223  40.334   1.416
66323W        W37852  14.647  22.623   0.799
66324W        W37853   5.459  11.815   2.135
66325W        W37854  15.443  28.485   4.487
66326W        W37855   5.712  24.233  12.690
66327W        W37856  19.716  43.437   4.504
66328W        W37857  11.703   1.330  12.278
66329W        W37858  33.542  34.089  10.808
66330W        W37859   1.828   0.979   2.183
66331W        W37860  24.530  10.358  11.972
66332W        W37861  41.936   3.709   0.296
66333W        W37862  20.126  30.648   0.700
66334W        W37863  34.014  37.886   0.773
66335W        W37864  16.575  37.009   0.935
66336W        W37865  39.637  38.111   4.617
66337W        W37866  13.802  10.160  12.439
66338W        W37867  44.223  30.506   4.584
66339W        W37868  28.451  30.495   0.151
66340W        W37869  19.265  12.765   0.984
66341W        W37870  10.258  14.822   1.822
66342W        W37871  39.526  39.472  14.753
66343W        W37872  35.747  35.495   2.861
66344W        W37873  15.627  29.703   4.763
66345W        W37874  37.513  26.547  14.104
66346W        W37875  42.026  30.070   4.061
66347W        W37876  14.155  10.930  13.522
66348W        W37877   2.438  24.540   3.797
66349W        W37878   9.075  24.217   4.188
66350W        W37879  34.826   2.776   4.161
66351W        W37880   0.439  29.508   2.804
66352W        W37881  28.524  20.689  11.238
66353W        W37882  44.163  41.300  12.001
66354W        W37883   7.259   9.075  13.040
66355W        W37884  35.525   8.947   2.357
66356W        W37885  23.259  35.829   1.969
66357W        W37886   0.467  24.990  10.647
66358W        W37887  30.573   2.895  12.836
66359W        W37888  37.126  17.993  10.487
66360W        W37889  30.336  26.230  11.508
66361W        W37890  20.620  33.978  12.588
66362W        W37891  19.279  29.520   0.330
66363W        W37892  17.325   5.132   1.256
66364W        W37893   8.230   1.741   0.337
66365W        W37894  35.866  39.645   1.983
66366W        W37895   1.979  25.941  13.983
66367W        W37896  40.524  23.682  14.346
66368W        W37897   5.637   5.586  12.481
66369W        W37898   2.627  21.708  13.085
66370W        W37899  19.660  20.802  11.593
66371W        W37900  10.000  22.460  10.082
66372W        W37901  15.239  40.191  13.464
66373W        W37902  17.613  11.012   0.458
66374W        W37903  32.264   2.212   3.729
66375W        W37904   3.713  19.610  14.720
66376W        W37905  18.252   9.976  14.769
66377W        W37906  15.260   6.906  13.885
66378W        W37907  27.708  28.125   3.400
66379W        W37908  34.929   0.731   4.304
66380W        W37909  28.697   4.715   0.869
66381W        W37910  36.546  17.521   2.660
66382W        W37911   5.219  25.450   2.237
66383W        W37912  44.279  16.684   4.273
66384W        W37913  28.366  40.463   2.778
66385W        W37914  14.707  24.014   2.861
66386W        W37915  44.311   2.277   2.892
66387W        W37916  38.288   6.253   1.635
66388W        W37917  26.434  22.377   0.437
66389W        W37918  18.152  38.137   2.389
66390W        W37919  30.766  20.588   2.874
66391W        W37920  25.530  42.943   4.609
66392W        W37921  39.032  28.615   1.767
66393W        W37922  10.341  10.413  13.915
66394W        W37923   4.799  35.929   1.378
66395W        W37924   5.937  15.051   2.057
66396W        W37925  13.667   8.270  11.107
66397W        W37926   7.886   4.587  11.888
66398W        W37927  34.571   1.330   3.809
66399W        W37928   6.220  22.797  10.633
66400W        W37929  30.137   8.431  13.952
66401W        W37930  38.589   7.341   0.993
66402W        W37931  10.976  10.788  10.989
66403W        W37932  22.185  42.238  12.282
66404W        W37933  14.113  15.225  13.580
66405W        W37934  37.078  40.615   3.849
66406W        W37935   3.191  29.378  13.578
66407W        W37936   4.930  36.875   3.097
66408W        W37937  17.809   7.706   2.235
66409W        W37938  40.071  29.950   0.301
66410W        W37939   8.272   2.396  12.836
66411W        W37940  21.218  10.898  10.707
66412W        W37941  32.544   4.737  12.292
66413W        W37942  20.661  18.943   0.857
66414W        W37943  30.864   9.297   2.750
66415W        W37944  17.860  35.878  12.470
66416W        W37945  28.950  15.279   0.296
66417W        W37946   6.856  22.505   2.275
66418W        W37947  11.363  29.930  10.654
66419W        W37948  19.722  14.728   5.117
66420W        W37949  36.371  17.720   4.230
66421W        W37950  17.209   6.796  14.776
66422W        W37951   3.768   3.548  14.843
66423W        W37952   8.405  32.374  12.556
66424W        W37953  30.985  12.402   2.813
66425W        W37954  43.769  22.131   2.509
66426W        W37955  30.020  13.139  10.608
66427W        W37956  16.217  30.256  13.038
66428W        W37957  31.419   6.281   4.861
66429W        W37958  16.331  39.375  11.400
66430W        W37959  20.118  31.979  14.409
66431W        W37960  23.822  35.028   4.200
66432W        W37961   7.013  35.385   2.322
66433W        W37962  16.767   2.841  12.407
66434W        W37963  27.451  42.786  13.075
66435W        W37964  44.568  14.463   1.662
66436W        W37965  19.505   5.888  12.499
66437W        W37966  37.974  44.732  14.463
66438W        W37967  41.717  23.352  10.245
66439W        W37968  44.999   6.723  13.997
66440W        W37969  11.262   1.410   4.536
66441W        W37970  18.222  42.356  14.716
66442W        W37971  23.215  23.501   0.785
66443W        W37972  11.280  44.668   2.392
66444W        W37973   7.150  18.564   0.886
66445W        W37974  24.196   0.022   4.587
66446W        W37975   2.910  29.160   1.130
66447W        W37976  33.120  42.290  14.309
66448W        W37977   4.836  30.314  11.431
66449W        W37978  27.992  26.205  14.082
66450W        W37979   3.814  27.059  11.404
66451W        W37980   5.733  35.167   0.826
66452W        W37981  11.712  43.801  12.959
66453W        W37982  34.659  17.412   1.789
66454W        W37983  21.196  25.070   1.050
66455W        W37984  11.735  29.462  12.815
66456W        W37985  42.954   3.163  11.113
66457W        W37986  34.809  23.675  12.530
66458W        W37987  39.876  32.551   1.713
66459W        W37988  40.731  18.482  14.263
66460W        W37989   4.991  41.009   3.156
66461W        W37990  11.722  34.478  11.995
66462W        W37991  21.642  28.930   4.209
66463W        W37992  35.384   4.713   3.848
66464W        W37993   4.760  11.143   0.278
66465W        W37994  42.306   0.904   1.429
66466W        W37995  22.232   3.818  10.729
66467W        W37996   9.714  19.634   0.059
66468W        W37997  15.757  26.876  11.226
66469W        W37998   2.165   8.627   0.335
66470W        W37999  34.923   1.155  10.583
66471W        W38000   2.478  17.688  12.577
66472W        W38001  11.189   5.993  13.559
66473W        W38002  42.725   4.959  13.071
66474W        W38003  17.796  29.650   3.220
66475W        W38004  34.808   2.830  11.499
66476W        W38005  21.185  29.468   1.742
66477W        W38006  42.633  28.680  12.186
66478W        W38007  25.253  32.663  11.090
66479W        W38008  17.675  28.431  11.478
66480W        W38009   0.266  29.752  12.542
66481W        W38010  23.533  38.888  11.033
66482W        W38011  27.561   5.270  11.569
66483W        W38012  33.649  33.511  11.653
66484W        W38013   0.791  36.618  13.378
66485W        W38014  31.560  21.702  11.588
66486W        W38015  10.912  14.831   3.598
66487W        W38016  36.376  11.336  14.046
66488W        W38017  43.004   1.785  14.043
66489W        W38018  36.214  21.230  13.434
66490W        W38019   5.475  31.562   0.811
66491W        W38020   2.773  24.175  12.541
66492W        W38021  33.989  19.339   3.842
66493W        W38022  35.995   2.241   4.389
66494W        W38023  28.055   5.621   3.868
66495W        W38024  15.854  27.855  14.933
66496W        W38025  29.486  22.918  13.005
66497W        W38026  20.444  37.605   4.858
66498W        W38027  41.372  17.877  13.093
66499W        W38028  37.483  11.340  10.203
66500W        W38029  10.832  32.115  11.110
66501W        W38030  12.773  25.166   3.499
66502W        W38031  38.116  20.049  14.471
66503W        W38032  35.660   8.015  10.770
66504W        W38033   5.053  16.183  11.695
66505W        W38034  17.100  23.804   0.857
66506W        W38035   9.600   4.339  13.091
66507W        W38036   1.993   6.608  11.061
66508W        W38037  12.748  12.208  14.387
66509W        W38038  21.632  39.437  13.585
66510W        W38039   9.691   4.199   2.174
66511W        W38040  44.016  21.890   2.883
66512W        W38041  38.556  29.063   4.607
66513W        W38042  38.174  11.816  14.429
66514W        W38043  34.058  41.261  13.801
66515W        W38044  16.205  19.474   9.772
66516W        W38045  26.605  42.993   0.482
66517W        W38046  26.158  19.180   4.003
66518W        W38047  22.198  27.031   2.153
66519W        W38048   6.152  35.755  11.709
66520W        W38049   6.115  18.713  13.968
66521W        W38050  34.958  37.578   2.538
66522W        W38051  19.599  27.682  14.508
66523W        W38052  35.175  44.486  13.775
66524W        W38053  17.785  33.036  13.560
66525W        W38054  28.015  19.722   3.749
66526W        W38055  21.686  11.347  13.362
66527W        W38056   3.999   7.783   0.351
66528W        W38057  18.813  38.760  10.360
66529W        W38058  16.764  39.907   4.861
66530W        W38059   1.817  13.334  13.316
66531W        W38060  14.282  25.531  12.481
66532W        W38061  11.095  24.065  14.421
66533W        W38062   1.856  44.855  12.531
66534W        W38063  42.192  38.102   3.583
66535W        W38064   8.282  20.937   2.224
66536W        W38065  28.897   1.344   0.232
66537W        W38066  30.966  16.352   4.561
66538W        W38067  21.424  30.908   1.822
66539W        W38068   5.690  18.277  11.524
66540W        W38069   3.459  15.379   2.204
66541W        W38070  20.319   8.030  13.961
66542W        W38071  11.774  11.229   0.353
66543W        W38072  28.772   6.651  12.674
66544W        W38073  38.445  24.214  11.361
66545W        W38074  36.083  12.850  13.877
66546W        W38075   7.289  26.234   3.654
66547W        W38076  29.505  20.642   2.606
66548W        W38077  10.671  31.624  13.227
66549W        W38078  11.110  10.560  13.263
66550W        W38079  16.753  37.363   4.590
66551W        W38080   0.940  32.499  10.850
66552W        W38081  15.350  25.463   4.826
66553W        W38082  22.061  10.860   3.748
66554W        W38083  12.623   3.837   2.381
66555W        W38084  23.676  37.824  12.062
66556W        W38085  27.162  29.116   2.682
66557W        W38086   1.358  41.363  12.620
66558W        W38087  35.212  24.040  12.768
66559W        W38088  32.667  28.559   0.971
66560W        W38089  41.545   7.741   4.343
66561W        W38090  11.222  13.844   1.408
66562W        W38091  29.167   5.950  11.488
66563W        W38092  39.517  20.407   2.181
66564W        W38093  31.406   5.584  10.676
66565W        W38094  44.461   9.198  12.958
66566W        W38095   0.610  40.535   2.717
66567W        W38096  28.618  43.519   1.682
66568W        W38097  13.246  17.911  10.290
66569W        W38098  12.962  13.510  13.988
66570W        W38099  24.457  20.123   4.520
66571W        W38100  16.768   0.746   1.257
66572W        W38101  22.157  22.719   1.347
66573W        W38102  31.569  12.891  13.262
66574W        W38103   5.233   5.421   1.898
66575W        W38104   8.027  29.715  10.742
66576W        W38105  39.437  28.913   0.017
66577W        W38106  14.192   6.656  14.698
66578W        W38107  21.508  11.784   3.997
66579W        W38108  10.141  20.088   1.720
66580W        W38109   0.291  24.235   1.243
66581W        W38110  15.098  27.071  10.782
66582W        W38111  31.929  16.109   0.055
66583W        W38112  27.051  18.247  14.776
66584W        W38113  40.877  15.310   3.213
66585W        W38114  29.613  10.757   0.924
66586W        W38115  43.889  24.931  14.818
66587W        W38116  44.504  24.070  12.056
66588W        W38117  35.584  33.068  10.739
66589W        W38118   3.154  32.004   0.006
66590W        W38119   0.482  15.037  12.897
66591W        W38120  34.056  31.579   0.876
66592W        W38121   2.710  30.022   2.222
66593W        W38122   8.401  25.586   2.430
66594W        W38123   3.256   8.956  10.747
66595W        W38124   1.410  18.057  11.231
66596W        W38125  34.148  24.999  13.482
66597W        W38126  39.822   9.294   4.628
66598W        W38127  17.128   4.906  13.643
66599W        W38128  21.276  23.174  10.736
66600W        W38129  23.237  27.473   4.704
66601W        W38130  14.340  18.441  10.542
66602W        W38131   3.710  42.373  12.865
66603W        W38132  38.517  29.060   0.450
66604W        W38133  33.445  20.085  10.719
66605W        W38134  28.556   2.683   1.763
66606W        W38135  27.029  14.839  11.491
66607W        W38136  40.787  44.329  12.784
66608W        W38137  13.562   4.688  11.023
66609W        W38138  20.276  41.432  14.479
66610W        W38139  19.198  14.804   0.874
66611W        W38140  14.440  19.255  10.222
66612W        W38141  32.966  13.033   3.233
66613W        W38142   9.086   4.413   3.210
66614W        W38143   8.814  13.562   3.148
66615W        W38144  17.262   1.468  13.542
66616W        W38145  32.564   2.665   2.646
66617W        W38146  10.476  37.067   1.066
66618W        W38147  27.441  11.845  10.251
66619W        W38148  41.857   2.183  12.056
66620W        W38149   0.246  29.995  14.716
66621W        W38150   2.049  21.524   0.900
66622W        W38151  23.641   3.410  14.259
66623W        W38152  34.976  26.607  13.428
66624W        W38153  19.131   2.878  14.138
66625W        W38154  21.132  28.418   3.518
66626W        W38155   3.068  33.002   0.382
66627W        W38156  15.100  44.236   0.879
66628W        W38157  11.850  27.585   3.401
66629W        W38158   9.058  22.578  14.519
66630W        W38159  27.924  20.005   4.172
66631W        W38160  18.744  22.056  12.030
66632W        W38161  36.458  31.080   1.371
66633W        W38162  35.964  41.824  11.607
66634W        W38163  28.421  12.147   3.242
66635W        W38164  17.331  43.302   2.659
66636W        W38165  19.554   1.119   0.825
66637W        W38166   3.052  21.782  13.889
66638W        W38167  30.839  24.679  13.531
66639W        W38168  38.749  12.882  13.568
66640W        W38169   8.864  34.156  13.753
66641W        W38170  16.919  43.950  12.991
66642W        W38171  16.021  26.196  10.796
66643W        W38172  31.251  40.664  13.488
66644W        W38173  14.449  41.020   4.801
66645W        W38174   9.910  14.045  11.554
66646W        W38175  25.704  21.293  13.057
66647W        W38176   8.890  25.445  13.383
66648W        W38177  25.041  32.037   4.039
66649W        W38178  20.551  30.015  11.323
66650W        W38179  23.081  17.143  12.279
66651W        W38180  43.320  43.758  13.395
66652W        W38181   0.149  30.774   3.171
66653W        W38182   1.882  34.580   2.522
66654W        W38183  42.911   0.803   2.763
66655W        W38184  37.738  40.042  14.984
66656W        W38185  13.326  26.244   1.087
66657W        W38186  25.954  11.913   2.523
66658W        W38187  22.355  38.130  12.409
66659W        W38188  43.880  39.260   0.241
66660W        W38189  25.594  19.476  14.986
66661W        W38190  35.833  39.219   2.342
66662W        W38191   0.520  37.923  13.808
66663W        W38192  39.779  41.501  13.949
66664W        W38193  22.246  24.642  11.856
66665W        W38194  26.665  32.096   4.557
66666W        W38195  11.092  26.682   4.018
66667W        W38196  12.737  20.504   3.901
66668W        W38197  41.706  37.944   2.258
66669W        W38198   4.220  26.384  11.861
66670W        W38199  36.605  26.335  12.508
66671W        W38200  31.170  34.965   5.216
66672W        W38201  21.612  14.907   1.215
66673W        W38202  20.016  13.128  13.636
66674W        W38203  17.669  14.901  12.564
66675W        W38204   9.647  40.768  11.958
66676W        W38205  14.204  24.256   0.446
66677W        W38206  11.858  16.281  14.935
66678W        W38207   0.477  25.592  13.651
66679W        W38208  28.582  42.006  14.024
66680W        W38209  30.738   3.382  11.190
66681W        W38210   4.729  14.606   4.577
66682W        W38211  16.211  11.693   3.628
66683W        W38212  36.565   5.699  13.776
66684W        W38213  25.236   5.373   1.572
66685W        W38214  15.309  32.852  12.003
66686W        W38215  23.639  35.135  13.333
66687W        W38216  30.687  10.593  14.444
66688W        W38217  36.526  20.344   1.396
66689W        W38218  18.005  17.067  12.377
66690W        W38219  33.634   6.364  10.703
66691W        W38220  39.933  12.283  14.962
66692W        W38221  11.613  30.053  13.397
66693W        W38222  34.179  14.802   1.689
66694W        W38223  26.516  35.377   2.273
66695W        W38224  19.918   3.573   3.605
66696W        W38225  15.662  14.751   3.367
66697W        W38226  39.916  41.729  11.076
66698W        W38227  20.023  28.950  13.972
66699W        W38228  27.901  43.767   4.360
66700W        W38229  44.279  37.441  13.969
66701W        W38230   6.869  29.200  12.882
66702W        W38231  36.473  30.143   4.252
66703W        W38232  16.478  21.537   1.277
66704W        W38233  28.141  35.548   2.815
66705W        W38234   8.948  34.532   3.485
66706W        W38235  22.007  34.220   2.304
66707W        W38236  25.653  43.395  11.543
66708W        W38237  13.298   7.898  14.318
66709W        W38238   0.793  39.978  10.715
66710W        W38239  25.648  13.326  12.440
66711W        W38240  38.482  35.421  14.446
66712W        W38241  43.367  15.807  11.768
66713W        W38242  37.129  44.057  13.758
66714W        W38243   2.192  36.007   4.580
66715W        W38244   0.898   5.877   3.393
66716W        W38245  13.098  37.581   0.209
66717W        W38246   4.380  41.311  10.473
66718W        W38247  33.411  43.801  11.630
66719W        W38248  36.633  13.295  10.908
66720W        W38249  11.370   7.459   2.789
66721W        W38250   2.838  24.275   1.871
66722W        W38251  43.081  11.287  13.792
66723W        W38252   3.516  30.905   2.240
66724W        W38253  38.961  26.670  13.794
66725W        W38254  32.350  17.990   2.227
66726W        W38255  19.238  21.553   4.189
66727W        W38256  10.401  25.618  11.728
66728W        W38257  24.019   3.378  13.352
66729W        W38258  42.133  27.448  10.545
66730W        W38259  35.109  31.762  11.559
66731W        W38260   5.738  25.583  14.503
66732W        W38261  44.245  23.969  14.871
66733W        W38262  23.453  24.148   2.758
66734W        W38263  22.039  12.588  12.137
66735W        W38264  18.394  22.666   2.293
66736W        W38265  16.210  24.710  11.245
66737W        W38266  19.958  30.344   4.924
66738W        W38267   3.145  35.932   2.812
66739W        W38268   9.232  12.407   4.061
66740W        W38269   7.115  39.476   0.001
66741W        W38270   0.812  42.239  13.020
66742W        W38271  31.060  26.679   3.813
66743W        W38272  38.795  34.649  11.423
66744W        W38273  42.050   9.601   3.217
66745W        W38274  43.560   7.221   3.246
66746W        W38275  44.947  10.473   1.473
66747W        W38276  43.974  42.550  11.159
66748W        W38277  14.349  32.451   3.530
66749W        W38278  20.797  15.532  11.146
66750W        W38279  13.890  35.444   4.725
66751W        W38280  14.108  43.329  11.615
66752W        W38281  43.937  26.181  13.527
66753W        W38282  12.697   0.465   2.421
66754W        W38283  16.650  29.572   0.950
66755W        W38284  37.545  24.512   4.799
66756W        W38285  42.011  12.100   2.807
66757W        W38286  16.710   7.000   2.305
66758W        W38287   5.968  21.758   2.306
66759W        W38288  14.358  29.697  11.093
66760W        W38289  21.061  35.016  11.878
66761W        W38290   6.437  38.125  10.033
66762W        W38291   3.387  19.171  10.747
66763W        W38292  34.359  17.789   0.771
66764W        W38293  18.798  39.390  13.999
66765W        W38294  37.084  24.454  10.757
66766W        W38295  20.639  34.025  10.730
66767W        W38296  11.147  11.802   0.516
66768W        W38297  39.117  10.977   2.272
66769W        W38298  11.937  17.492  12.436
66770W        W38299   3.550  19.650   1.316
66771W        W38300  43.308  21.612  12.353
66772W        W38301  17.262  16.715   0.968
66773W        W38302  39.264  23.240  12.133
66774W        W38303  15.349  11.562  10.096
66775W        W38304  19.713  18.670  10.869
66776W        W38305  23.644   1.284  10.670
66777W        W38306   9.175  18.751  11.092
66778W        W38307  22.733   8.846   0.878
66779W        W38308  36.710   7.812  14.337
66780W        W38309   8.472  13.106  12.801
66781W        W38310  37.982  41.032   4.949
66782W        W38311   7.710  31.201   0.195
66783W        W38312   3.444  24.924   3.443
66784W        W38313  26.524  20.841  10.085
66785W        W38314  21.064  27.528  10.070
66786W        W38315  13.565  11.923   1.320
66787W        W38316  19.039  29.953   0.423
66788W        W38317  35.522  32.079  12.929
66789W        W38318   7.144  38.426  10.658
66790W        W38319  34.390  13.357   2.732
66791W        W38320  23.329  35.426   4.653
66792W        W38321  42.362  31.942   2.810
66793W        W38322  23.028  37.337   1.374
66794W        W38323  15.691   4.818  14.390
66795W        W38324  17.540  34.779   4.783
66796W        W38325  14.707  38.093  11.572
66797W        W38326  34.479   9.413   0.820
66798W        W38327  11.200  40.269  11.086
66799W        W38328   4.905   3.818  14.963
66800W        W38329  14.077   6.928  14.251
66801W        W38330  42.213   4.182   0.891
66802W        W38331  40.274  17.428   2.564
66803W        W38332  12.539  16.596   2.914
66804W        W38333   3.414  35.357  10.186
66805W        W38334  27.899  33.484  14.516
66806W        W38335   1.264  29.186   3.364
66807W        W38336  17.992  14.922   2.118
66808W        W38337  36.618   4.962  14.852
66809W        W38338   5.568  17.336  10.801
66810W        W38339  39.919  33.112   0.407
66811W        W38340  26.147  38.097  14.225
66812W        W38341   1.229  28.453  12.577
66813W        W38342  35.076  16.957  13.821
66814W        W38343   6.896  14.592   3.712
66815W        W38344  41.418  36.857   4.275
66816W        W38345  20.486  41.804  10.486
66817W        W38346  26.634   5.511   0.358
66818W        W38347  28.349  13.131   1.830
66819W        W38348  16.310  31.373  10.700
66820W        W38349  34.620  12.843  12.855
66821W        W38350  28.133  19.282  12.130
66822W        W38351  40.441  43.252   0.026
66823W        W38352  41.110   7.672  14.289
66824W        W38353  11.228  12.451  14.859
66825W        W38354  41.931  14.240  12.429
66826W        W38355  41.478  23.075   3.715
66827W        W38356   4.397  43.232  13.974
66828W        W38357  18.682  10.049   0.940
66829W        W38358   1.024  37.171  12.078
66830W        W38359  24.198  38.818   0.166
66831W        W38360  32.623   0.987   2.129
66832W        W38361  32.453   5.425   0.402
66833W        W38362  24.836   3.147  12.892
66834W        W38363  33.379   5.516  13.543
66835W        W38364  15.136  35.001  14.385
66836W        W38365  10.609  27.808   3.951
66837W        W38366  44.986  27.873   4.920
66838W        W38367  17.746   4.051   1.778
66839W        W38368  15.621  18.677   4.881
66840W        W38369  33.498   5.861  11.765
66841W        W38370  33.376  20.094  12.113
66842W        W38371  34.179  23.029   2.245
66843W        W38372  24.069  26.074   4.856
66844W        W38373  17.292  40.866  14.465
66845W        W38374  44.477  18.101  14.536
66846W        W38375   9.923  31.098   5.132
66847W        W38376   6.333   3.175   3.215
66848W        W38377  24.146  44.489   4.681
66849W        W38378  22.711  29.935   0.301
66850W        W38379  36.576  35.616  14.455
66851W        W38380  31.975  10.520   5.149
66852W        W38381  29.399   3.814   0.169
66853W        W38382  16.362  10.574  11.330
66854W        W38383  14.740  21.492   0.344
66855W        W38384  10.420  31.622  14.067
66856W        W38385  13.306   7.387   2.258
66857W        W38386  36.323  27.092   0.409
66858W        W38387   4.910   2.363  14.396
66859W        W38388  21.088  16.975   4.878
66860W        W38389  33.792  14.158   4.543
66861W        W38390   1.393  35.896   0.446
66862W        W38391   4.657  29.910  14.439
66863W        W38392  23.411  23.057  11.044
66864W        W38393  32.115  21.037  10.111
66865W        W38394  31.099  25.037  14.428
66866W        W38395  41.794  33.340  13.789
66867W        W38396   8.651  23.022   4.345
66868W        W38397  27.739  26.196   4.757
66869W        W38398   6.320  14.740   0.009
66870W        W38399  33.270  18.181   3.765
66871W        W38400   0.969  15.370  14.627
66872W        W38401  20.545   0.854   0.432
66873W        W38402  38.261  25.204   4.592
66874W        W38403   9.354  39.757   2.482
66875W        W38404  27.239  28.642  11.506
66876W        W38405  23.706  27.504  13.530
66877W        W38406   1.398  19.032  13.176
66878W        W38407   2.101  11.655  11.648
66879W        W38408   6.251   6.531  13.810
66880W        W38409   2.323  33.645  13.565
66881W        W38410  43.951   8.713   2.296
66882W        W38411  38.585  27.531   1.161
66883W        W38412  20.410  14.307   3.227
66884W        W38413   2.355  32.586  10.730
66885W        W38414  26.222  37.357  12.548
66886W        W38415   1.786  38.434   1.325
66887W        W38416  12.698  31.146   2.239
66888W        W38417   1.761   5.985  12.365
66889W        W38418  44.186  35.833  14.937
66890W        W38419  43.019   9.880  14.466
66891W        W38420  32.576  33.440   3.314
66892W        W38421  15.073  33.676  12.948
66893W        W38422   2.017  13.850  10.644
66894W        W38423   7.831  18.054  13.803
66895W        W38424  24.512  28.156  11.086
66896W        W38425  33.499  26.641  14.673
66897W        W38426   1.004  40.539  13.015
66898W        W38427  28.624  19.151  13.849
66899W        W38428   3.791   6.463  14.203
66900W        W38429  20.156   8.401   4.722
66901W        W38430   5.970  26.334  11.766
66902W        W38431  25.516  25.643  10.765
66903W        W38432  18.322  11.192   1.780
66904W        W38433  19.848  29.943   0.964
66905W        W38434  37.420  34.944   0.445
66906W        W38435  27.552  40.926   4.083
66907W        W38436  37.445   4.948  10.935
66908W        W38437  12.017  26.270  14.861
66909W        W38438  38.984  43.529   4.909
66910W        W38439  26.609   6.712  14.619
66911W        W38440  32.574  37.563   0.980
66912W        W38441  34.418  34.533   1.917
66913W        W38442  42.924   6.480  12.950
66914W        W38443  23.558  37.358   3.101
66915W        W38444  28.146  44.276  12.895
66916W        W38445   4.749  26.917   4.013
66917W        W38446  39.770  33.853   1.242
66918W        W38447  19.319  24.123  12.491
66919W        W38448   8.364   5.626  12.421
66920W        W38449  37.204  31.050   1.958
66921W        W38450  13.651  33.991   4.672
66922W        W38451  22.602   4.800  14.786
66923W        W38452  28.702  43.868  14.297
66924W        W38453  19.120  37.872  13.503
66925W        W38454  25.241   3.135  10.646
66926W        W38455  31.442  37.996   2.860
66927W        W38456  21.165   9.195   4.820
66928W        W38457  43.140  33.494  11.607
66929W        W38458  31.859  17.760   4.676
66930W        W38459  14.727  32.964   1.056
66931W        W38460  16.312  43.474   4.149
66932W        W38461  31.959  16.316  13.031
66933W        W38462  36.501  31.943  10.090
66934W        W38463  41.287   9.696   4.583
66935W        W38464   7.800  12.759  13.545
66936W        W38465  26.647  30.441  12.458
66937W        W38466  28.546   3.454  13.968
66938W        W38467  34.905   7.537   4.521
66939W        W38468  11.160  39.853   3.884
66940W        W38469  31.527  29.914   2.398
66941W        W38470  16.698  22.198   4.185
66942W        W38471  42.876  14.555  10.733
66943W        W38472  10.293  21.057  12.674
66944W        W38473  38.154  16.197   3.229
66945W        W38474  25.576  27.173  13.167
66946W        W38475  34.028  12.122   4.609
66947W        W38476  13.639  15.639   0.880
66948W        W38477  40.036  31.316  14.947
66949W        W38478   3.309  36.917  14.790
66950W        W38479  30.733   5.006   5.107
66951W        W38480   3.470   4.298   1.651
66952W        W38481  17.098  32.033   1.801
66953W        W38482  33.559  40.328  12.269
66954W        W38483  19.249  16.865   3.681
66955W        W38484  22.312  10.090  13.523
66956W        W38485  31.170  29.170  13.460
66957W        W38486  30.394   4.511  14.579
66958W        W38487  20.460  22.632  12.419
66959W        W38488  21.868  31.539   0.272
66960W        W38489  24.144  32.069  10.827
66961W        W38490  29.711  29.982   4.049
66962W        W38491  12.190  21.506   2.415
66963W        W38492  19.087  12.861   4.580
66964W        W38493  33.852  38.486   1.956
66965W        W38494  12.258  27.423   1.255
66966W        W38495  26.194  40.466   1.376
66967W        W38496  24.585  32.242  10.591
66968W        W38497  41.424   2.469  12.885
66969W        W38498  17.238  32.003   3.720
66970W        W38499   3.318  12.397  12.890
66971W        W38500  27.100   8.445   4.354
66972W        W38501  20.086  18.025   4.061
66973W        W38502  25.514  36.238  10.735
66974W        W38503  13.013  29.398  14.367
66975W        W38504  40.182  42.438   4.495
66976W        W38505  34.907   7.034   4.621
66977W        W38506  27.002  31.431   0.389
66978W        W38507  31.523  28.955   0.418
66979W        W38508   1.904  31.024   4.848
66980W        W38509  23.186  20.217  11.537
66981W        W38510  32.109  26.899  10.293
66982W        W38511  18.597   6.593  14.345
66983W        W38512   5.769   6.647   0.841
66984W        W38513   1.864  15.952   0.653
66985W        W38514  33.364  25.479   3.218
66986W        W38515  39.415  36.440  11.521
66987W        W38516  29.030  18.819  12.604
66988W        W38517  10.020   9.826  14.948
66989W        W38518  18.279  38.559  11.132
66990W        W38519  16.206  31.869  13.470
66991W        W38520   4.789   8.637  10.155
66992W        W38521   9.153  41.831  14.336
66993W        W38522   3.965  44.507  14.552
66994W        W38523  39.903  23.781   0.467
66995W        W38524  37.424  32.987  11.274
66996W        W38525  40.918  34.532  14.584
66997W        W38526   8.668   5.186  10.708
66998W        W38527   5.382   1.675  11.801
66999W        W38528  30.631  31.924   4.551
67000W        W38529   1.370  39.052   2.371
67001W        W38530   5.874  34.157  13.580
67002W        W38531  33.133   8.674  11.100
67003W        W38532  13.241  17.056  12.356
67004W        W38533  43.386  20.554   3.808
67005W        W38534   6.771  33.122  14.997
67006W        W38535  31.233  23.752  12.572
67007W        W38536   7.417  33.378   2.188
67008W        W38537  35.053  27.000  11.354
67009W        W38538  31.488  31.980   3.586
67010W        W38539   1.379  29.656  13.501
67011W        W38540  13.541  42.924   2.814
67012W        W38541  16.975  12.604  10.300
67013W        W38542   3.426  30.148   3.755
67014W        W38543   3.717  19.773   3.688
67015W        W38544  29.867  22.487   0.847
67016W        W38545   1.445  44.850   2.747
67017W        W38546  43.981  14.900   1.198
67018W        W38547  10.805  30.066   4.119
67019W        W38548  37.543  28.002  14.352
67020W        W38549  30.674  30.634  11.013
67021W        W38550  29.034  26.218  11.059
67022W        W38551  44.499  22.116  13.002
67023W        W38552   9.607  38.718  12.998
67024W        W38553  20.814  19.770   1.888
67025W        W38554  25.445   1.501  13.176
67026W        W38555   4.466  15.183  13.576
67027W        W38556  39.485  14.728  12.385
67028W        W38557  38.393  29.858  14.894
67029W        W38558   8.247  37.562   0.038
67030W        W38559  36.395  34.595   4.783
67031W        W38560  36.882  39.863  14.463
67032W        W38561  44.302  27.488  12.031
67033W        W38562   5.783   5.447   4.959
67034W        W38563  32.848  31.370  12.936
67035W        W38564  16.300  39.158  10.085
67036W        W38565  19.199  19.040   2.109
67037W        W38566  34.571  31.957   0.351
67038W        W38567   6.951  42.999  12.891
67039W        W38568  17.996  39.074   3.402
67040W        W38569  22.555   9.211   3.576
67041W        W38570  34.616   9.206   2.751
67042W        W38571  10.133  32.050  10.678
67043W        W38572  23.752  32.224   1.698
67044W        W38573  40.714  20.713  12.885
67045W        W38574  37.960  34.654   4.532
67046W        W38575  24.939  26.575   4.070
67047W        W38576  14.940   5.351  11.096
67048W        W38577   3.621  39.259   2.166
67049W        W38578   6.690   1.010  12.756
67050W        W38579   5.710  30.872   3.179
67051W        W38580  16.949   7.888   3.602
67052W        W38581  25.083  27.137  10.699
67053W        W38582  15.593  19.118  11.068
67054W        W38583  10.846   5.251   3.026
67055W        W38584  28.474  11.147  12.733
67056W        W38585  39.318  16.959  12.697
67057W        W38586  14.498  33.814   2.715
67058W        W38587   3.145  42.968   0.455
67059W        W38588  29.191   6.964  11.591
67060W        W38589  18.818  35.799  11.060
67061W        W38590   0.024  44.278  13.242
67062W        W38591  18.360   4.150  10.805
67063W        W38592  28.705  44.907  14.057
67064W        W38593  26.244  37.940   4.196
67065W        W38594  39.230   4.465   3.655
67066W        W38595  13.609  23.665   2.093
67067W        W38596  32.131  14.251   0.815
67068W        W38597  37.210  26.480  14.554
67069W        W38598   4.502  15.573   0.830
67070W        W38599  16.687  23.328   0.401
67071W        W38600  41.817  27.816  10.751
67072W        W38601  12.888  24.618  12.994
67073W        W38602  38.501  40.603  11.018
67074W        W38603  12.396  41.370  13.373
67075W        W38604  15.120   4.271  10.675
67076W        W38605  25.998   9.905   0.485
67077W        W38606  12.957  43.914  14.312
67078W        W38607   6.407  15.733   1.861
67079W        W38608  32.888   9.178   0.423
67080W        W38609  30.881  35.934   0.538
67081W        W38610  36.596  38.793  11.495
67082W        W38611  25.465  35.733   4.939
67083W        W38612  32.828  12.287  11.334
67084W        W38613  24.324  24.920  14.379
67085W        W38614   4.542  40.373   4.207
67086W        W38615  23.817  32.089  13.587
67087W        W38616  35.824  28.142   2.967
67088W        W38617  15.193  10.832  13.386
67089W        W38618  13.128  35.840  12.120
67090W        W38619  42.583  14.352  13.054
67091W        W38620   3.254  28.567   4.179
67092W        W38621   0.927   4.175  13.850
67093W        W38622   8.531  34.833   3.344
67094W        W38623  23.512  13.241  10.760
67095W        W38624  39.392   4.423   1.184
67096W        W38625  14.856  43.257  12.155
67097W        W38626   4.486  10.356   2.350
67098W        W38627  14.767  13.668  14.205
67099W        W38628   2.774  41.463  14.385
67100W        W38629  17.224  22.968  12.509
67101W        W38630   0.819   8.756  12.053
67102W        W38631  24.957  12.747   3.082
67103W        W38632  35.626  12.465   4.132
67104W        W38633  17.271  38.405   1.681
67105W        W38634  26.093   5.462   1.795
67106W        W38635   0.783  24.927  13.525
67107W        W38636  35.141  39.440   4.332
67108W        W38637  21.178   8.296   2.939
67109W        W38638   3.557  32.654  10.993
67110W        W38639  37.477  41.028   4.572
67111W        W38640  34.140  32.934   1.486
67112W        W38641   2.775  39.098   1.479
67113W        W38642  36.856  29.610  11.979
67114W        W38643  34.941  38.367   4.571
67115W        W38644  39.080  35.527   4.588
67116W        W38645   6.528  44.093   3.441
67117W        W38646  13.839   4.848   2.750
67118W        W38647   9.735  32.693  13.116
67119W        W38648   2.767  41.888  10.740
67120W        W38649  30.589   6.304   1.437
67121W        W38650   9.844  10.854  11.412
67122W        W38651   5.669  28.711   0.476
67123W        W38652  30.695   1.425   2.944
67124W        W38653  22.206  19.368   4.989
67125W        W38654  32.042  19.516  13.292
67126W        W38655  14.036   8.774   0.721
67127W        W38656  20.084   0.536  11.705
67128W        W38657   0.478  26.974  14.696
67129W        W38658  12.716  14.223  13.176
67130W        W38659  14.791  32.738  11.905
67131W        W38660  16.151   1.371  11.437
67132W        W38661  10.397  26.661   1.445
67133W        W38662   4.751  13.710   3.421
67134W        W38663  39.216  39.261   4.185
67135W        W38664  12.830  41.936  14.034
67136W        W38665  23.676   0.049   0.832
67137W        W38666  42.285  35.130  13.462
67138W        W38667   1.453  41.960   4.637
67139W        W38668  29.312   3.009   2.646
67140W        W38669  41.752  41.592   0.422
67141W        W38670   6.740   4.216  12.942
67142W        W38671  12.687  37.783   0.460
67143W        W38672  24.529  12.557   1.579
67144W        W38673  39.303  41.642   0.919
67145W        W38674  12.747  34.567  11.565
67146W        W38675  14.721  30.070   1.485
67147W        W38676  11.760  36.180  12.630
67148W        W38677  35.358  30.676  10.732
67149W        W38678  36.572  28.998   3.671
67150W        W38679  23.029   2.868   2.932
67151W        W38680  28.511  26.421  12.101
67152W        W38681  10.633  32.683   0.081
67153W        W38682  33.609   2.032  14.348
67154W        W38683  21.640  12.778  11.708
67155W        W38684  33.543  26.613   1.194
67156W        W38685  26.922  30.063   3.762
67157W        W38686  36.506   9.871   0.345
67158W        W38687  43.945  18.022   2.824
67159W        W38688   0.029  41.427  13.631
67160W        W38689  36.582  30.490   1.269
67161W        W38690  42.263  12.403   4.363
67162W        W38691   6.701  38.798  11.217
67163W        W38692  24.032  26.115   3.768
67164W        W38693   3.937  25.101   4.231
67165W        W38694   7.736  32.467   2.379
67166W        W38695  20.789  21.154   4.171
67167W        W38696  21.202  26.396  13.552
67168W        W38697  32.007   4.571   2.647
67169W        W38698  22.877  43.536   4.562
67170W        W38699  28.147  37.541   4.043
67171W        W38700   2.380  26.602  11.155
67172W        W38701  32.847  12.347   3.198
67173W        W38702  42.023   9.557  11.463
67174W        W38703  44.328   3.228  12.433
67175W        W38704   5.398  29.180  11.211
67176W        W38705  13.193  10.742   4.504
67177W        W38706  27.013  24.598   0.355
67178W        W38707  11.214  21.273   4.271
67179W        W38708  25.248   9.991  10.674
67180W        W38709   3.992   0.135  13.010
67181W        W38710  16.680  33.056  12.181
67182W        W38711   5.824  41.839   3.278
67183W        W38712  27.067  26.194  12.575
67184W        W38713  15.705  22.293  14.887
67185W        W38714  33.864  39.072   2.841
67186W        W38715   3.596  22.709   2.578
67187W        W38716  12.734  35.053   4.048
67188W        W38717  18.216  20.598   3.769
67189W        W38718  12.131   1.886   1.534
67190W        W38719  33.755   4.865   4.697
67191W        W38720  20.858  37.877   9.713
67192W        W38721  37.095  23.050  10.697
67193W        W38722   4.705   4.340   3.211
67194W        W38723  27.559  40.361   1.752
67195W        W38724  43.822   9.233   0.917
67196W        W38725  34.312  27.901  12.527
67197W        W38726   9.851  10.446  12.361
67198W        W38727   8.129  29.829   0.870
67199W        W38728   4.399  39.001  13.337
67200W        W38729  12.724  27.643   1.336
67201W        W38730  31.338   7.785  10.756
67202W        W38731  16.188  22.527   1.702
67203W        W38732  24.831  33.955   0.518
67204W        W38733  13.305  44.697   0.005
67205W        W38734  35.004   4.283   3.309
67206W        W38735   9.945  14.911   4.671
67207W        W38736  21.076  37.816   2.792
67208W        W38737  12.220   3.779  13.907
67209W        W38738   4.604  37.455   1.365
67210W        W38739  38.246  20.011   3.902
67211W        W38740  31.834   0.396   2.572
67212W        W38741   9.740   0.269   1.787
67213W        W38742   0.050  27.091  13.542
67214W        W38743  37.348  42.407  13.069
67215W        W38744  10.961  14.107  13.328
67216W        W38745  12.936  20.499  11.747
67217W        W38746  34.683  20.230  14.881
67218W        W38747  21.496  35.596   1.508
67219W        W38748   5.324   9.815   2.794
67220W        W38749  13.594  44.296   0.312
67221W        W38750  43.760  16.251   2.229
67222W        W38751  26.503   1.749   1.915
67223W        W38752  41.825  26.479  10.343
67224W        W38753   6.482   9.796  13.835
67225W        W38754  40.530  40.006  14.292
67226W        W38755  17.254  36.559  12.068
67227W        W38756   7.202   3.985   3.634
67228W        W38757   6.347   2.118   2.120
67229W        W38758  25.061  21.060  13.859
67230W        W38759  33.057   5.319  12.041
67231W        W38760  37.115  34.475   4.199
67232W        W38761   5.414  26.903   0.385
67233W        W38762   9.674  11.207  12.843
67234W        W38763  37.149   8.948   3.902
67235W        W38764  37.912  18.565   3.323
67236W        W38765   5.253   8.349  14.432
67237W        W38766  30.082  28.431   2.500
67238W        W38767  17.039  31.324   4.196
67239W        W38768  28.225  18.805  11.555
67240W        W38769  24.295  27.705   0.098
67241W        W38770  42.750  43.122  10.614
67242W        W38771   5.932  25.756  14.042
67243W        W38772  33.705  22.831  14.318
67244W        W38773  14.669  13.355  11.136
67245W        W38774  27.465  13.661   2.633
67246W        W38775  33.092  16.036   0.009
67247W        W38776  26.402   4.356  12.429
67248W        W38777  16.645  22.878   9.764
67249W        W38778  41.029  26.212   3.818
67250W        W38779  10.313  18.321   1.681
67251W        W38780  27.868  35.859   4.165
67252W        W38781  41.347  35.330   1.145
67253W        W38782   4.526  32.648   3.633
67254W        W38783   6.387  20.099  12.845
67255W        W38784  32.718  30.891   0.847
67256W        W38785   8.332  12.837  11.000
67257W        W38786   5.935  24.429  11.123
67258W        W38787   7.208  24.707   4.326
67259W        W38788  13.298  25.752   1.285
67260W        W38789   4.216  42.830   0.395
67261W        W38790   1.834   6.509   0.286
67262W        W38791  15.716   2.752  10.637
67263W        W38792   3.318   1.965   1.868
67264W        W38793  32.620  21.064  13.953
67265W        W38794  39.071   0.266   3.373
67266W        W38795  30.424  15.048   1.821
67267W        W38796  19.773   6.607  10.757
67268W        W38797   8.275   3.300  13.954
67269W        W38798  21.975  30.098   4.835
67270W        W38799   8.140  13.240   1.196
67271W        W38800   1.569  40.464  12.288
67272W        W38801  40.329  40.895  12.018
67273W        W38802  40.347  39.042  14.713
67274W        W38803  38.373  30.585  11.826
67275W        W38804  44.527  24.400   2.653
67276W        W38805  41.075  34.673   3.195
67277W        W38806   3.417   0.964  12.403
67278W        W38807  16.204   2.959  10.528
67279W        W38808  44.368   2.830  13.443
67280W        W38809  12.105  17.709   4.619
67281W        W38810  35.156  42.306  12.451
67282W        W38811  34.771  17.046   1.197
67283W        W38812  21.488   5.780   3.784
67284W        W38813  36.851  36.835   0.706
67285W        W38814  36.567  44.491   1.968
67286W        W38815  32.021  17.559   0.485
67287W        W38816  27.512  24.104   3.193
67288W        W38817  20.550  42.819   2.785
67289W        W38818   5.860   1.291  11.546
67290W        W38819   2.852  35.551  12.921
67291W        W38820  25.954  33.072   3.822
67292W        W38821  14.133  23.662  10.496
67293W        W38822  14.797   9.479   3.206
67294W        W38823  19.784  27.949   2.864
67295W        W38824  39.332  22.680  13.752
67296W        W38825  36.411  34.605  14.518
67297W        W38826  42.260  27.617   1.950
67298W        W38827  22.955  21.560  11.588
67299W        W38828  16.804  12.283   1.270
67300W        W38829  17.529  44.604  13.477
67301W        W38830  35.560  38.554   1.197
67302W        W38831  11.627  40.030   4.172
67303W        W38832  15.510  31.035  14.028
67304W        W38833  29.759  26.432   2.762
67305W        W38834  36.583  24.175  12.280
67306W        W38835  28.227   1.977  13.333
67307W        W38836  37.882  24.659  10.670
67308W        W38837  35.562  10.087  14.340
67309W        W38838  42.990  36.737  14.264
67310W        W38839  29.305   6.254  13.799
67311W        W38840   7.758   1.515  13.044
67312W        W38841  22.732  38.344   3.304
67313W        W38842  41.427  37.343   1.404
67314W        W38843  37.993  10.926   0.298
67315W        W38844   8.377  20.384   2.913
67316W        W38845   6.405  17.063   4.989
67317W        W38846  26.683  33.022   2.612
67318W        W38847  30.728   4.717  12.893
67319W        W38848  23.173  16.321   2.583
67320W        W38849   2.640   0.220  12.878
67321W        W38850  36.028  39.882   0.023
67322W        W38851  28.482   2.263  10.492
67323W        W38852  39.102  27.498   4.008
67324W        W38853  12.311  26.275  14.416
67325W        W38854  34.642   9.332  13.536
67326W        W38855  41.236  42.716   1.369
67327W        W38856  36.962  16.677  14.505
67328W        W38857  36.038  13.025  12.808
67329W        W38858   4.782  40.769  12.574
67330W        W38859  37.452  23.708   3.826
67331W        W38860  19.761  42.533  12.035
67332W        W38861  27.537  22.974   2.437
67333W        W38862  21.487  14.220  14.788
67334W        W38863   9.384  17.607  12.862
67335W        W38864  13.095   7.791  13.328
67336W        W38865  37.636  34.136   3.239
67337W        W38866  21.221  21.579   0.900
67338W        W38867  29.985  19.329   2.845
67339W        W38868  30.066  19.640  12.083
67340W        W38869  42.197  25.078  14.521
67341W        W38870  28.881  11.431  11.530
67342W        W38871  17.591  34.649  10.590
67343W        W38872  26.523  26.786  11.237
67344W        W38873   8.223  19.083   3.212
67345W        W38874  33.564  25.174   1.011
67346W        W38875   2.959  41.538  11.240
67347W        W38876  33.120  41.818   4.780
67348W        W38877  12.249  30.923  10.493
67349W        W38878   9.938  16.803   4.525
67350W        W38879   5.204  41.994   0.717
67351W        W38880   6.291  20.722  11.729
67352W        W38881  24.512  44.567  10.943
67353W        W38882  32.441  30.573   4.547
67354W        W38883   0.308  21.265  11.092
67355W        W38884  37.094  17.930  13.451
67356W        W38885  29.932  20.101   4.131
67357W        W38886  12.447  28.553  11.069
67358W        W38887  31.957  17.756  11.582
67359W        W38888  17.395  39.609   0.382
67360W        W38889  21.322  37.971   3.215
67361W        W38890  41.772  17.650  12.849
67362W        W38891  27.421  23.422  13.370
67363W        W38892  37.697   9.976  12.972
67364W        W38893  43.800   9.243  10.700
67365W        W38894  43.631  13.235   3.716
67366W        W38895  19.221  14.848   4.993
67367W        W38896  22.625  33.424  10.530
67368W        W38897  39.063  40.802   2.422
67369W        W38898  37.625  29.839  11.592
67370W        W38899   5.832  27.615   0.000
67371W        W38900  31.152   7.915   3.255
67372W        W38901  20.172   4.650  10.623
67373W        W38902  15.537  41.912   3.997
67374W        W38903  15.073  11.682   4.117
67375W        W38904  42.150  33.485   5.192
67376W        W38905   2.314  38.370   3.091
67377W        W38906   7.075  11.298   1.453
67378W        W38907   9.724  19.173   3.551
67379W        W38908  22.229  11.626  12.150
67380W        W38909  28.198  44.005  14.377
67381W        W38910  43.323  34.452  11.742
67382W        W38911  28.955  41.392   2.392
67383W        W38912   5.850  38.927   2.473
67384W        W38913  42.753  22.086  11.193
67385W        W38914  16.473  39.479   0.548
67386W        W38915  17.995  23.611   2.772
67387W        W38916   9.898  14.217  12.429
67388W        W38917   2.682  39.384   3.224
67389W        W38918  12.225  40.427   4.871
67390W        W38919  37.858  33.449  12.696
67391W        W38920  21.574   7.288  10.462
67392W        W38921  29.919  41.497   2.707
67393W        W38922   8.125   5.648   3.009
67394W        W38923  28.302  37.973  12.090
67395W        W38924   7.440  35.176  11.607
67396W        W38925  44.234   4.276  10.537
67397W        W38926   3.893  19.104  13.507
67398W        W38927  15.256  35.269  14.868
67399W        W38928  10.314  29.141   0.995
67400W        W38929  43.360  14.048  11.914
67401W        W38930   6.411  28.049  13.804
67402W        W38931  18.117   1.864   0.040
67403W        W38932  41.350  16.791   1.900
67404W        W38933  33.472  25.922  14.338
67405W        W38934  41.898  13.702   0.398
67406W        W38935  40.581  42.279   1.673
67407W        W38936  25.203   7.356   0.388
67408W        W38937   3.733  18.687  13.272
67409W        W38938  13.920   9.420  14.756
67410W        W38939  12.535  16.332  10.673
67411W        W38940  30.084  22.831  12.549
67412W        W38941  20.521   8.614   0.703
67413W        W38942  15.742  42.578  11.457
67414W        W38943  23.662  20.654  12.592
67415W        W38944   0.097  17.464  11.327
67416W        W38945  13.700  14.724  11.370
67417W        W38946  24.431   5.013  11.185
67418W        W38947   9.214  10.753  11.126
67419W        W38948  25.486  15.447   0.981
67420W        W38949  31.303  21.731   1.842
67421W        W38950  33.728  43.156  14.558
67422W        W38951  26.529   2.677   4.189
67423W        W38952  44.022  11.361   4.392
67424W        W38953  14.665   3.666  10.309
67425W        W38954  18.753  19.104  14.317
67426W        W38955  37.958  44.041   3.305
67427W        W38956   3.883  30.129  11.831
67428W        W38957  30.486  17.646   3.149
67429W        W38958  37.887   8.875  13.669
67430W        W38959  19.282  24.409  14.794
67431W        W38960  35.579  12.356  12.687
67432W        W38961  29.222   8.162   3.766
67433W        W38962  24.042  21.529  12.423
67434W        W38963  36.308  44.300   3.815
67435W        W38964  16.174  13.747  10.754
67436W        W38965  26.499  36.149   3.611
67437W        W38966   3.931   7.294   2.702
67438W        W38967  29.097  35.199   2.296
67439W        W38968   2.404   1.015   4.498
67440W        W38969  33.590  41.768  13.486
67441W        W38970  42.754  28.623  13.502
67442W        W38971  17.862   3.002  10.680
67443W        W38972  40.006  39.949   0.296
67444W        W38973   5.388  13.808  14.890
67445W        W38974  41.202  30.154  12.608
67446W        W38975   4.996   9.921  10.301
67447W        W38976  23.052  24.492   0.315
67448W        W38977   9.602  36.860   3.180
67449W        W38978  20.663  20.910   4.635
67450W        W38979  23.099   8.665  11.238
67451W        W38980   6.210  39.433   3.789
67452W        W38981  41.269  43.433   3.718
67453W        W38982  34.023  18.018   3.364
67454W        W38983  27.638  16.917   1.795
67455W        W38984  17.288   8.920   3.821
67456W        W38985  29.939  42.475  12.297
67457W        W38986  44.047  43.906  14.250
67458W        W38987   1.443   7.894   3.909
67459W        W38988  35.598   0.772  11.159
67460W        W38989  13.444   6.872  11.044
67461W        W38990   6.318  26.179  14.069
67462W        W38991   6.440  15.469  13.370
67463W        W38992  37.956   9.192   2.314
67464W        W38993   7.654  26.145   2.372
67465W        W38994   9.475  43.459  12.909
67466W        W38995  44.332  35.338   3.848
67467W        W38996  13.910  38.887  10.693
67468W        W38997   7.872  42.572   1.876
67469W        W38998  31.200  33.957  11.968
67470W        W38999  30.124  10.807   0.840
67471W        W39000  16.998   3.255   2.446
67472W        W39001   5.486  43.472  10.453
67473W        W39002  16.706   9.167   1.433
67474W        W39003   0.008  35.132  12.040
67475W        W39004   6.421   0.750   2.774
67476W        W39005  27.241   1.353   2.398
67477W        W39006  26.383   1.880   4.391
67478W        W39007  19.299  34.339   4.202
67479W        W39008   6.433  10.432   4.661
67480W        W39009  31.184  13.407   1.821
67481W        W39010  30.627  35.472  12.892
67482W        W39011  42.076  40.926   2.000
67483W        W39012   1.655  12.289   3.771
67484W        W39013   1.943  28.388  13.840
67485W        W39014  27.951  12.377   3.282
67486W        W39015  24.148  35.615   4.042
67487W        W39016   7.386  41.007  12.107
67488W        W39017  13.921  17.578   2.377
67489W        W39018  11.289  22.469   3.686
67490W        W39019  32.577   0.514   1.249
67491W        W39020   0.794   9.358  11.632
67492W        W39021  17.678   0.023   2.351
67493W        W39022   0.415   4.196  12.370
67494W        W39023  40.041  18.611  14.725
67495W        W39024  15.802  42.785  13.272
67496W        W39025  44.354  15.619   5.050
67497W        W39026  16.765  20.113  11.883
67498W        W39027   0.550   6.888  10.719
67499W        W39028   6.490  28.387   1.998
67500W        W39029   0.681  17.228   1.116
67501W        W39030  21.852  35.852   4.767
67502W        W39031   9.339  14.310   1.828
67503W        W39032  32.181  39.792  12.702
67504W        W39033  31.859  27.164   5.042
67505W        W39034  35.510  33.490   3.148
67506W        W39035  20.478  41.545  11.125
67507W        W39036  21.898   0.959  12.530
67508W        W39037   5.750  36.063   0.965
67509W        W39038   9.094   1.466   4.990
67510W        W39039  20.264  18.649   2.824
67511W        W39040   8.556  30.038   0.311
67512W        W39041  13.648   4.399  12.429
67513W        W39042   0.751  20.226  11.744
67514W        W39043  42.344   0.047  11.553
67515W        W39044  25.186  40.070  11.132
67516W        W39045  22.275  31.636   4.160
67517W        W39046   5.919   9.700   3.690
67518W        W39047   6.828  30.113   4.386
67519W        W39048  37.131  29.357   0.276
67520W        W39049  21.105  24.594  11.155
67521W        W39050  15.537  23.014  12.463
67522W        W39051  13.729  35.123   1.385
67523W        W39052  27.209   0.288  12.847
67524W        W39053  35.432   4.266  14.697
67525W        W39054  12.332  21.006  11.456
67526W        W39055  30.735  18.685  10.654
67527W        W39056   7.299  35.005   3.829
67528W        W39057  41.069   5.575  11.104
67529W        W39058   0.456  29.192  11.487
67530W        W39059  31.601   4.141   4.661
67531W        W39060  36.688  35.142  11.734
67532W        W39061  44.921  20.973  10.930
67533W        W39062   4.860  28.698   2.385
67534W        W39063  13.402   0.394  10.190
67535W        W39064   8.987  27.092  11.488
67536W        W39065  35.572  24.398   3.624
67537W        W39066  20.090  38.030  13.580
67538W        W39067  27.224   0.160   4.143
67539W        W39068  22.753   2.824  12.391
67540W        W39069   7.281   0.789   0.921
67541W        W39070  32.158  37.507  10.807
67542W        W39071  29.078  35.482   1.171
67543W        W39072  10.577  41.477  14.653
67544W        W39073   1.037   8.671   3.286
67545W        W39074  11.913  39.498  14.839
67546W        W39075  40.209  27.984   3.338
67547W        W39076  29.087  15.180  14.302
67548W        W39077  37.274  40.064   0.264
67549W        W39078  38.361  21.831  11.960
67550W        W39079  19.701   9.230  12.450
67551W        W39080  18.060  17.341   0.973
67552W        W39081  27.640  33.894   0.280
67553W        W39082  33.868   5.315   1.242
67554W        W39083  22.502  34.078  11.067
67555W        W39084  37.779  41.835  12.046
67556W        W39085  31.044   2.368  12.039
67557W        W39086  41.541   7.187   1.399
67558W        W39087  14.702  21.014  11.346
67559W        W39088  31.555  31.169   4.198
67560W        W39089  16.498  37.555   0.815
67561W        W39090  19.540  20.193  13.725
67562W        W39091  44.276  17.666  13.832
67563W        W39092  43.411  12.771   9.989
67564W        W39093  28.559  41.847   2.728
67565W        W39094  34.274  15.739   1.748
67566W        W39095  13.241   3.731   4.356
67567W        W39096  36.932  44.367   1.012
67568W        W39097  25.505   1.816   2.223
67569W        W39098   1.852  43.031   4.095
67570W        W39099  17.292  11.111   1.687
67571W        W39100   6.191   4.672   2.065
67572W        W39101  42.771  34.051   1.273
67573W        W39102  36.665  28.076   1.337
67574W        W39103  41.553   4.501  11.562
67575W        W39104   7.340  31.573   3.035
67576W        W39105  26.544  30.286  11.445
67577W        W39106  25.154   1.877  14.380
67578W        W39107  36.302  19.293  14.912
67579W        W39108  24.956  21.617  11.974
67580W        W39109  39.593  22.331  14.058
67581W        W39110  21.265  22.694  10.548
67582W        W39111  43.920  29.370  11.085
67583W        W39112  29.678  22.187   4.617
67584W        W39113  31.323  13.679  13.849
67585W        W39114  26.045   0.447  13.514
67586W        W39115  33.254   6.095   5.397
67587W        W39116  16.952  14.808   4.694
67588W        W39117  25.044  37.418  10.442
67589W        W39118  40.353  30.939  14.805
67590W        W39119   2.917  38.393   4.232
67591W        W39120  32.434  36.407   4.104
67592W        W39121  42.465  36.829   3.407
67593W        W39122  27.167  41.371  11.723
67594W        W39123  36.987  42.417  13.477
67595W        W39124   3.014   7.800   0.602
67596W        W39125  27.607  44.545  14.015
67597W        W39126  16.783   3.957  14.409
67598W        W39127  15.655   6.713  13.117
67599W        W39128  44.815   9.902  14.910
67600W        W39129  38.805  22.984  13.102
67601W        W39130  37.151  16.903   1.318
67602W        W39131   0.484   3.103  13.801
67603W        W39132   3.818   5.222   1.331
67604W        W39133   4.416  20.417   4.212
67605W        W39134  14.219  14.241   1.451
67606W        W39135  14.701   7.671  12.905
67607W        W39136   7.697  25.136   3.143
67608W        W39137  11.748  21.320   1.288
67609W        W39138  42.434  22.927  13.174
67610W        W39139  15.458  39.511   2.441
67611W        W39140  18.257  22.250  13.505
67612W        W39141  40.603  14.680  14.891
67613W        W39142  35.679  34.599   4.117
67614W        W39143  10.581  44.920  12.474
67615W        W39144  38.764  21.111  13.335
67616W        W39145  26.967  41.173   1.137
67617W        W39146   1.938  34.043   0.346
67618W        W39147   8.098  44.373   2.858
67619W        W39148  15.881  19.553  11.021
67620W        W39149   6.191  20.503   2.694
67621W        W39150  34.612   0.128  11.864
67622W        W39151  13.905  12.696  14.288
67623W        W39152  17.150  40.537   0.475
67624W        W39153  18.323   6.882   4.643
67625W        W39154  19.206  30.910   9.782
67626W        W39155  43.387   3.983  10.835
67627W        W39156   0.441  36.542  12.421
67628W        W39157  36.519   8.242   3.014
67629W        W39158  32.522  14.607   2.972
67630W        W39159  39.496  32.177   4.545
67631W        W39160   7.236  30.505   4.526
67632W        W39161   5.443   0.301   2.643
67633W        W39162   5.173  11.116   3.788
67634W        W39163  30.231  44.531   0.477
67635W        W39164   0.099  42.958   1.382
67636W        W39165  28.899  17.544  13.140
67637W        W39166  35.003   9.995   2.713
67638W        W39167  19.462  20.794  12.357
67639W        W39168  35.024  17.406   5.026
67640W        W39169   1.571  27.770   2.492
67641W        W39170  24.911  12.924  12.861
67642W        W39171  29.857  21.621   2.758
67643W        W39172  36.690  19.197  12.174
67644W        W39173  40.731  20.284   4.183
67645W        W39174   1.342  12.705  11.584
67646W        W39175  43.553  18.436   0.542
67647W        W39176  22.846  40.501  14.993
67648W        W39177  18.560   6.991   1.431
67649W        W39178   3.788  32.503  11.707
67650W        W39179  21.265  33.607   0.889
67651W        W39180  19.182  27.895   1.186
67652W        W39181  25.471  17.079   3.272
67653W        W39182   0.343  36.867  11.532
67654W        W39183  19.968  31.824  14.934
67655W        W39184   4.602  10.255  11.447
67656W        W39185   6.271   1.302  10.741
67657W        W39186  10.403   2.908   0.701
67658W        W39187  31.106  10.140   4.563
67659W        W39188   2.847  40.369  13.199
67660W        W39189  24.446  39.817  11.718
67661W        W39190  39.810  12.636   4.048
67662W        W39191   8.816  16.811   2.897
67663W        W39192  36.939   3.760   1.227
67664W        W39193  39.855  22.064   4.935
67665W        W39194  11.305  29.569   3.653
67666W        W39195  40.345  27.535   2.505
67667W        W39196  16.783  26.432   0.324
67668W        W39197  28.400  31.737   2.147
67669W        W39198  31.788  33.533  11.563
67670W        W39199  16.622   1.873  11.874
67671W        W39200   6.652   8.995   3.165
67672W        W39201  18.045  20.838   2.460
67673W        W39202  28.030  16.183  11.800
67674W        W39203  28.264   9.385   1.013
67675W        W39204   5.953  43.340   0.010
67676W        W39205  39.890  32.859   0.870
67677W        W39206  30.015  38.901  12.035
67678W        W39207   7.579  31.597  13.465
67679W        W39208   6.630  13.555  13.433
67680W        W39209   6.472  13.613   3.795
67681W        W39210  18.223  23.304   0.807
67682W        W39211  14.844   9.140  14.079
67683W        W39212  14.308  12.239  12.552
67684W        W39213  38.357  11.711   0.764
67685W        W39214  23.689  42.516   4.540
67686W        W39215  34.534   2.434  11.677
67687W        W39216  39.272  16.632   0.526
67688W        W39217  15.233   7.177  10.217
67689W        W39218  12.449  17.309  12.935
67690W        W39219  16.343  32.962  10.252
67691W        W39220  33.456  19.278   4.667
67692W        W39221   8.706  23.095  13.507
67693W        W39222  22.039  42.668  12.523
67694W        W39223  14.044  19.137  11.069
67695W        W39224  30.607  19.786  12.886
67696W        W39225  35.899   0.506   2.717
67697W        W39226   6.897  18.177  13.517
67698W        W39227   4.949  13.803  11.156
67699W        W39228  14.377   0.812  12.024
67700W        W39229  42.393  31.901   1.874
67701W        W39230  12.752  41.377  11.450
67702W        W39231  28.028  40.735   3.464
67703W        W39232  30.531  35.384   2.829
67704W        W39233  32.314  37.862  11.569
67705W        W39234   3.353  25.260   1.030
67706W        W39235  40.750  17.343  12.494
67707W        W39236  41.464   8.413   1.290
67708W        W39237  36.145  12.085  14.373
67709W        W39238  11.356   3.760   4.533
67710W        W39239  41.078  11.839   4.524
67711W        W39240  26.543  31.554   3.708
67712W        W39241  32.894   5.900   3.764
67713W        W39242  27.089  12.286  13.148
67714W        W39243  35.741  24.688  11.180
67715W        W39244  13.703   9.720  12.673
67716W        W39245  38.649  32.164   1.475
67717W        W39246   2.920  13.096  14.325
67718W        W39247  22.934  15.539   3.225
67719W        W39248  10.467  40.901   1.983
67720W        W39249  37.990  16.319   2.725
67721W        W39250  14.763  23.161   3.287
67722W        W39251  20.934  16.883   3.204
67723W        W39252  20.264  24.952   0.279
67724W        W39253  30.178   9.131  11.180
67725W        W39254  25.012  33.998  10.748
67726W        W39255  27.084   5.713  11.147
67727W        W39256  28.143   9.864  11.834
67728W        W39257  36.832  40.613  13.942
67729W        W39258  29.593  39.670   2.068
67730W        W39259  26.709  15.175   1.366
67731W        W39260   6.992  29.515  10.914
67732W        W39261   4.691  14.912  13.004
67733W        W39262  39.804  33.981   4.203
67734W        W39263   5.354   0.368   3.602
67735W        W39264  20.229  35.866   3.221
67736W        W39265  23.656  37.452  11.556
67737W        W39266  44.999  28.027   4.413
67738W        W39267   8.343  25.329  11.408
67739W        W39268   1.556  24.325   2.007
67740W        W39269  44.852  42.408   0.386
67741W        W39270  13.790  17.195   3.168
67742W        W39271   8.355  20.924   0.440
67743W        W39272   5.171  23.520   4.112
67744W        W39273  16.961  30.401   2.797
67745W        W39274  41.690  27.889   1.738
67746W        W39275  10.169  27.063  12.959
67747W        W39276  37.582  32.845   3.532
67748W        W39277  10.067   4.761   1.418
67749W        W39278  39.664  16.920   2.292
67750W        W39279  36.839  27.641  13.987
67751W        W39280  34.534  24.711   3.383
67752W        W39281  20.344  34.508  14.279
67753W        W39282  13.312  18.724  10.793
67754W        W39283   9.132  38.345  13.802
67755W        W39284  31.723  16.220   4.713
67756W        W39285  38.481  26.236   2.394
67757W        W39286  44.950  36.398  12.437
67758W        W39287  13.588  37.010  13.372
67759W        W39288  24.307   4.652  12.942
67760W        W39289  19.391  15.886  11.591
67761W        W39290   4.766  18.134   1.839
67762W        W39291  10.905  14.164  10.674
67763W        W39292  30.383  31.342  12.883
67764W        W39293  27.183  18.211  14.269
67765W        W39294  30.426  41.409   3.539
67766W        W39295   0.343  16.260  12.456
67767W        W39296  17.726   0.776   1.330
67768W        W39297   7.947  15.398   1.748
67769W        W39298  19.791  20.627  13.440
67770W        W39299  25.611  44.749  10.946
67771W        W39300  38.990  32.579   1.454
67772W        W39301   7.877  13.209   0.296
67773W        W39302  41.075  31.977   9.884
67774W        W39303  38.044  34.772  13.539
67775W        W39304  19.155   3.768   1.743
67776W        W39305  15.941  17.598   0.239
67777W        W39306  39.143   5.893   4.263
67778W        W39307   1.728   5.725   2.688
67779W        W39308  30.826  41.645   5.053
67780W        W39309  11.125  17.349   1.227
67781W        W39310  35.417  33.279   2.197
67782W        W39311  39.128  41.379   4.061
67783W        W39312  35.373  41.817   3.638
67784W        W39313   5.345  31.700   1.694
67785W        W39314  33.499  35.200  12.483
67786W        W39315  24.112   6.991  12.519
67787W        W39316   1.900  31.853   0.414
67788W        W39317  13.070   2.071  13.524
67789W        W39318  32.895  17.682  13.919
67790W        W39319  12.587  29.440  10.770
67791W        W39320  33.629  30.049  11.931
67792W        W39321  10.423  41.537  10.321
67793W        W39322   1.805   3.358   3.721
67794W        W39323  32.096   5.281   0.786
67795W        W39324  41.920  20.005  10.786
67796W        W39325  34.643  26.496  13.053
67797W        W39326  36.400  15.305   3.326
67798W        W39327  17.243  22.813  13.953
67799W        W39328  40.388  18.804   4.381
67800W        W39329  14.109  20.289   3.683
67801W        W39330  32.857  41.080   0.191
67802W        W39331  26.990  28.314  14.870
67803W        W39332  42.191  21.097   0.502
67804W        W39333  32.372  37.038   0.812
67805W        W39334  13.552  44.033  11.324
67806W        W39335  38.562  43.220   2.953
67807W        W39336   3.237  10.100  12.043
67808W        W39337  19.221  13.776   4.253
67809W        W39338  30.462  36.519  14.776
67810W        W39339  39.903  12.815   3.164
67811W        W39340  25.024  24.206   2.595
67812W        W39341   6.691  35.855  13.542
67813W        W39342  20.271   7.960   2.440
67814W        W39343  10.039   8.372  12.181
67815W        W39344  13.869  16.772   2.729
67816W        W39345  12.090  29.710   2.751
67817W        W39346  43.107  38.751  14.567
67818W        W39347  14.653  23.564  12.614
67819W        W39348  19.961  37.529   5.039
67820W        W39349  37.093  22.634   3.351
67821W        W39350  44.032  18.152  12.121
67822W        W39351   9.248  18.122   1.772
67823W        W39352   5.496  34.636   1.831
67824W        W39353  31.026   5.507  13.449
67825W        W39354  34.021  30.649  11.040
67826W        W39355  24.229  24.677   2.707
67827W        W39356  24.168  15.687  13.993
67828W        W39357  15.460  41.458   3.625
67829W        W39358  12.635  12.761   1.694
67830W        W39359  33.920   6.368  12.811
67831W        W39360   6.412  43.214  12.413
67832W        W39361   3.460  43.127  12.539
67833W        W39362  34.599  16.143   2.643
67834W        W39363  18.632   1.566   4.725
67835W        W39364  44.737  22.665  10.352
67836W        W39365   9.507  35.998   2.700
67837W        W39366  18.235  26.706   0.336
67838W        W39367  18.186  24.775  11.426
67839W        W39368  33.826  23.421  10.743
67840W        W39369  34.175  41.665  11.929
67841W        W39370  17.630  16.699  14.091
67842W        W39371  29.964   7.893  14.488
67843W        W39372  33.800   4.656   0.285
67844W        W39373   9.931  20.644   2.782
67845W        W39374  16.645  18.150  13.896
67846W        W39375  19.206  42.215  13.856
67847W        W39376  18.309  30.628  11.641
67848W        W39377  39.982   7.827  10.768
67849W        W39378   4.157  30.622   1.227
67850W        W39379  34.498  13.648   0.821
67851W        W39380  29.068  34.048   1.273
67852W        W39381   2.809  23.440  11.159
67853W        W39382  31.053  42.092  11.705
67854W        W39383  18.794  14.545   1.803
67855W        W39384  21.008   3.830   1.014
67856W        W39385   1.715   3.275  13.450
67857W        W39386  26.084   2.957  10.978
67858W        W39387  34.589   2.167   3.163
67859W        W39388  43.943  27.510   3.642
67860W        W39389  24.586  33.159   0.419
67861W        W39390   2.671  10.315   0.508
67862W        W39391  25.888   8.547  12.537
67863W        W39392  36.036   9.815   4.102
67864W        W39393   4.153   2.237  10.732
67865W        W39394  34.956   1.968  14.571
67866W        W39395  19.637  39.090  12.999
67867W        W39396   8.134  34.919  14.052
67868W        W39397  13.276  34.660  12.449
67869W        W39398  38.365  22.859   0.814
67870W        W39399  30.156  36.720   2.471
67871W        W39400  15.000  27.861  11.376
67872W        W39401  14.196   1.956  14.539
67873W        W39402  25.297  15.728  13.994
67874W        W39403  19.504  34.078   0.847
67875W        W39404   4.343   8.439  10.353
67876W        W39405  26.980   1.394  14.954
67877W        W39406  28.529  31.855  14.139
67878W        W39407   3.445  19.627   4.118
67879W        W39408  28.994  44.249   0.852
67880W        W39409  29.453   7.790  14.714
67881W        W39410  12.208  13.395   0.153
67882W        W39411   5.246   9.893  12.520
67883W        W39412  42.056  41.537   0.836
67884W        W39413  44.300  39.395   3.786
67885W        W39414  16.281  34.860  13.412
67886W        W39415  42.944  36.461   4.517
67887W        W39416  29.433  35.448   4.357
67888W        W39417  22.484  28.051  10.986
67889W        W39418  22.219  35.604   2.655
67890W        W39419  20.735  27.533   3.416
67891W        W39420  31.637  12.542  12.051
67892W        W39421  14.827  29.236   2.963
67893W        W39422  44.405  44.640  14.945
67894W        W39423  29.719   9.754  13.477
67895W        W39424  24.985  12.224   3.611
67896W        W39425   5.177  15.058   2.240
67897W        W39426  41.234  33.210  14.371
67898W        W39427  24.778  30.240   1.456
67899W        W39428  13.412  21.245   4.976
67900W        W39429  19.310  12.931   0.489
67901W        W39430  25.144  16.278   1.451
67902W        W39431  41.556  23.636  13.835
67903W        W39432  18.011  13.696  12.166
67904W        W39433   1.385  26.723   3.782
67905W        W39434  43.522   3.346   1.367
67906W        W39435  17.145  15.707  12.912
67907W        W39436  31.470  42.041  12.019
67908W        W39437  33.008  17.230   2.149
67909W        W39438  37.584  29.069   0.294
67910W        W39439   6.767  13.290   4.887
67911W        W39440  34.051  35.529   1.319
67912W        W39441  14.790  26.153  13.335
67913W        W39442  11.785  43.365  11.194
67914W        W39443  15.059  44.985   3.665
67915W        W39444  25.170  29.080  14.253
67916W        W39445  40.055  21.341  10.974
67917W        W39446  19.502  35.645   1.612
67918W        W39447  13.511  35.468  12.167
67919W        W39448  14.053   8.402  13.858
67920W        W39449  43.867  38.975  11.259
67921W        W39450   3.386  34.095   0.481
67922W        W39451  15.871  26.201   1.803
67923W        W39452  20.184  22.842  12.797
67924W        W39453  43.002  12.855  11.619
67925W        W39454  17.647  30.458   1.514
67926W        W39455   0.804   6.467  13.004
67927W        W39456   0.712  18.177  11.387
67928W        W39457  26.217  40.004  10.960
67929W        W39458  38.821   9.464  11.634
67930W        W39459  44.933   3.797   4.638
67931W        W39460  38.298  40.003   4.221
67932W        W39461  10.880   3.929   4.492
67933W        W39462  41.126  21.287   0.389
67934W        W39463   7.479  40.451  14.409
67935W        W39464  38.782  28.115  14.940
67936W        W39465  14.722  24.738   3.579
67937W        W39466  13.441  21.220   1.323
67938W        W39467   6.061  41.211   0.969
67939W        W39468  27.484  40.952  13.518
67940W        W39469  26.151  34.538  10.683
67941W        W39470  17.711  42.988   2.119
67942W        W39471  28.950  12.578  13.937
67943W        W39472  19.789  19.451  13.260
67944W        W39473  27.268  17.312   4.513
67945W        W39474  42.011  21.576   3.730
67946W        W39475  32.372  10.044  12.491
67947W        W39476   3.287  28.045  12.076
67948W        W39477  38.933  18.737  11.656
67949W        W39478  25.138   9.700   4.629
67950W        W39479  32.220  23.638  12.321
67951W        W39480   2.747   3.755   0.841
67952W        W39481  15.575   0.878   3.649
67953W        W39482   0.817  31.502  10.279
67954W        W39483  41.055   1.414   1.425
67955W        W39484  13.018  43.969  11.851
67956W        W39485   8.688  35.127  14.742
67957W        W39486   6.733  35.376   3.216
67958W        W39487   8.219  34.771  12.322
67959W        W39488   2.384  11.160  10.838
67960W        W39489  16.838  15.707  10.833
67961W        W39490  23.543   1.054   0.711
67962W        W39491   7.444  41.156  13.870
67963W        W39492  17.482  23.448   2.614
67964W        W39493  26.013  29.073  11.170
67965W        W39494   8.437  23.895   2.295
67966W        W39495  21.206  12.896   3.913
67967W        W39496  38.526  39.571  14.407
67968W        W39497   5.098  43.476   2.140
67969W        W39498  37.214  33.520  11.430
67970W        W39499  44.993   2.166   2.733
67971W        W39500   6.734  11.659  11.048
67972W        W39501  16.579   0.772   3.703
67973W        W39502  33.556   4.418   4.477
67974W        W39503  41.196   7.208   0.379
67975W        W39504  34.481  43.691   0.499
67976W        W39505  18.310  28.665  12.572
67977W        W39506   1.006   0.047   1.435
67978W        W39507  31.163  36.876   2.081
67979W        W39508  38.662  17.061  14.344
67980W        W39509  38.507   9.253   4.340
67981W        W39510  19.078  38.837  11.120
67982W        W39511  24.010  13.321   0.475
67983W        W39512   1.778  21.670   4.578
67984W        W39513  38.247  26.983  11.117
67985W        W39514  34.376  43.856  11.670
67986W        W39515   5.304  20.518   3.386
67987W        W39516  34.398   2.995   1.229
67988W        W39517  20.604  31.055   4.372
67989W        W39518  22.303  14.549   0.495
67990W        W39519  19.323   0.222   1.646
67991W        W39520  26.217  11.235  14.619
67992W        W39521  13.637   8.740   1.897
67993W        W39522  10.870  10.331  11.643
67994W        W39523  17.792  14.123  11.037
67995W        W39524   6.937   0.542  14.342
67996W        W39525   4.313  11.861  11.257
67997W        W39526   0.829  34.703  13.410
67998W        W39527  15.303   0.832   0.905
67999W        W39528  37.135  19.086  13.916
68000W        W39529  42.066  44.056  11.573
68001W        W39530  27.609  29.167  14.463
68002W        W39531  36.964  36.124   3.530
68003W        W39532  16.051   1.704   3.091
68004W        W39533  23.250  42.738  10.802
68005W        W39534  23.455  38.006   4.765
68006W        W39535  18.990  40.994   1.135
68007W        W39536  37.076  14.885  11.545
68008W        W39537  14.653   7.656   3.640
68009W        W39538   2.939   8.185   2.474
68010W        W39539  15.992  26.947  10.370
68011W        W39540  12.707  21.768  12.361
68012W        W39541  31.179  35.555  10.312
68013W        W39542  20.208  26.996  11.375
68014W        W39543  27.829  12.037  10.552
68015W        W39544  17.951  34.582  11.525
68016W        W39545  16.488  33.380  14.956
68017W        W39546  38.348   7.720   0.731
68018W        W39547  21.443  20.370  11.546
68019W        W39548  43.743   4.895   3.169
68020W        W39549   7.712   1.090  11.898
68021W        W39550  36.705  35.835   3.195
68022W        W39551  38.934  12.677  10.196
68023W        W39552  15.131  24.388  14.315
68024W        W39553  39.308   4.757  11.556
68025W        W39554  32.490  28.858  13.597
68026W        W39555  22.599  14.059   4.157
68027W        W39556   1.876  14.159   0.995
68028W        W39557  27.985  18.015  13.311
68029W        W39558  28.448   2.061   2.073
68030W        W39559   3.704  30.014  10.857
68031W        W39560  38.982  26.893  12.424
68032W        W39561  12.107   7.451   4.338
68033W        W39562  42.910   8.186   4.357
68034W        W39563  14.843  18.095  14.284
68035W        W39564   1.459  35.365   3.572
68036W        W39565  40.025  33.774  10.390
68037W        W39566   8.057  44.409   3.738
68038W        W39567  23.681   1.400   2.224
68039W        W39568  16.557  29.345  14.302
68040W        W39569  33.467   7.789  13.137
68041W        W39570  36.742  37.599  13.211
68042W        W39571  15.696  28.949   4.464
68043W        W39572  23.158  14.574  13.467
68044W        W39573  15.834  32.695  13.479
68045W        W39574   9.162  14.057   1.367
68046W        W39575  35.788  24.991   0.928
68047W        W39576  29.349  29.136   4.118
68048W        W39577  31.531  16.667  11.862
68049W        W39578   8.939  15.637   4.627
68050W        W39579  22.925  32.101   3.150
68051W        W39580   2.202  44.013   5.153
68052W        W39581  39.558  38.292  13.947
68053W        W39582  18.505  26.127  13.115
68054W        W39583   1.305  42.052  14.009
68055W        W39584   4.089  24.981   2.865
68056W        W39585   9.664  38.543  11.707
68057W        W39586  26.499  41.414  14.934
68058W        W39587   8.077  16.293   4.897
68059W        W39588  10.722   9.779  13.578
68060W        W39589  35.407   4.556   0.130
68061W        W39590   6.892  24.983   2.680
68062W        W39591   5.178   8.803   2.813
68063W        W39592  18.904  30.656   3.090
68064W        W39593  38.121  23.294   4.818
68065W        W39594  36.130  33.669  14.088
68066W        W39595   3.725  10.884   0.811
68067W        W39596  39.953  26.777   3.909
68068W        W39597  23.615   0.496   3.847
68069W        W39598  36.544   3.467  10.339
68070W        W39599  36.683  24.707  14.917
68071W        W39600  22.914  40.269   4.562
68072W        W39601  24.093  16.790   4.101
68073W        W39602  31.141  19.347   3.173
68074W        W39603  16.636  19.590  10.632
68075W        W39604   0.231  21.242   1.822
68076W        W39605  13.546  25.073  12.107
68077W        W39606  33.028  30.467  13.949
68078W        W39607   5.089  43.845   0.386
68079W        W39608  28.440  38.915   2.846
68080W        W39609   9.551  14.640  11.200
68081W        W39610  13.685  16.661   0.937
68082W        W39611  32.882  26.752  13.078
68083W        W39612  22.202  41.008   2.907
68084W        W39613   5.742  26.826   2.121
68085W        W39614  30.617  25.570   4.139
68086W        W39615  42.752  43.370   3.309
68087W        W39616  40.479  24.127   3.662
68088W        W39617   2.597  41.920  11.242
68089W        W39618  11.591  37.669  13.799
68090W        W39619  13.857  35.500  13.420
68091W        W39620   3.641  41.974   4.572
68092W        W39621  26.689  24.528  13.321
68093W        W39622  30.496   1.914   2.722
68094W        W39623   3.794  27.563  12.669
68095W        W39624  30.912  17.455  12.933
68096W        W39625   2.477  10.162   4.266
68097W        W39626   8.800  42.249  14.427
68098W        W39627  20.139  38.954   0.015
68099W        W39628  27.973  14.782  14.120
68100W        W39629   2.714  16.510  14.714
68101W        W39630  14.685  26.844  13.957
68102W        W39631  12.406  39.961   4.667
68103W        W39632   9.258  18.889   0.441
68104W        W39633  18.665  28.149  14.976
68105W        W39634   8.428  10.287  11.202
68106W        W39635  21.432  43.845  14.372
68107W        W39636  32.155  36.848   2.655
68108W        W39637  18.284  38.960  12.650
68109W        W39638  21.544  39.908   0.525
68110W        W39639  16.039  41.808  11.875
68111W        W39640  22.850  37.269  14.402
68112W        W39641   3.507   7.640  11.914
68113W        W39642  20.733  42.048   2.220
68114W        W39643  38.447  28.253  12.123
68115W        W39644  37.583  42.985  14.021
68116W        W39645   9.634   2.797   1.130
68117W        W39646  43.609  38.316  12.001
68118W        W39647   7.348  24.265   4.098
68119W        W39648  17.201  37.828  12.684
68120W        W39649  27.915   8.032  12.978
68121W        W39650  24.516  39.442   0.286
68122W        W39651  38.808  28.130  10.381
68123W        W39652  26.605  39.017  12.890
68124W        W39653  20.582  14.552  12.070
68125W        W39654  29.643  40.317  12.077
68126W        W39655  23.297  21.226   1.369
68127W        W39656  41.423  42.852   0.037
68128W        W39657  17.271  27.081  11.520
68129W        W39658  13.234  25.651  13.290
68130W        W39659  39.034   2.389  11.310
68131W        W39660  35.496  35.058   2.865
68132W        W39661  25.313  44.527   1.661
68133W        W39662  39.150  12.621   0.322
68134W        W39663  33.512   0.389  11.709
68135W        W39664  37.886   7.689  13.552
68136W        W39665   9.736   8.139  12.541
68137W        W39666  22.972  36.175   3.439
68138W        W39667   1.889   7.591   1.938
68139W        W39668  14.315  31.093   4.109
68140W        W39669  31.962  37.288   2.493
68141W        W39670  28.578  30.852   3.264
68142W        W39671  33.244   1.653  13.639
68143W        W39672  24.067  32.457   0.280
68144W        W39673  13.533  26.563   2.876
68145W        W39674  10.577  13.277   2.472
68146W        W39675  10.665  29.424  12.420
68147W        W39676  22.439  31.066  13.034
68148W        W39677  12.933   6.265   1.776
68149W        W39678   3.435   9.183  14.790
68150W        W39679   5.253  40.564   3.731
68151W        W39680  43.946  42.548  14.997
68152W        W39681  11.416  24.056  11.079
68153W        W39682   9.091  22.784   4.540
68154W        W39683  31.112   4.825   4.175
68155W        W39684  26.451  31.539  13.756
68156W        W39685  36.983  40.900  11.020
68157W        W39686  12.615   1.750  13.369
68158W        W39687  44.787  27.948  10.540
68159W        W39688  10.585  30.929   4.449
68160W        W39689   6.784  35.254  14.432
68161W        W39690  37.117  43.910   0.803
68162W        W39691  40.887  14.139  14.002
68163W        W39692  16.015  33.480   4.356
68164W        W39693  31.578  37.596  14.250
68165W        W39694   0.618  32.294   1.207
68166W        W39695  38.438  26.019  10.729
68167W        W39696  34.191   6.062  10.629
68168W        W39697  32.033   6.128  14.695
68169W        W39698   7.234  10.123  13.051
68170W        W39699  24.265  22.640  13.534
68171W        W39700  37.928  20.583  13.086
68172W        W39701  29.004  39.282   3.862
68173W        W39702  44.433  43.450  10.705
68174W        W39703  34.551  12.225   2.870
68175W        W39704  38.847  31.964   5.003
68176W        W39705  13.156  13.389  13.491
68177W        W39706  21.220   2.472   4.482
68178W        W39707   9.123   4.234  11.515
68179W        W39708   3.278  40.076   1.988
68180W        W39709   3.218  36.414   1.487
68181W        W39710  33.873  43.047   3.771
68182W        W39711  13.412  21.046  10.643
68183W        W39712  37.550  38.705   2.839
68184W        W39713  37.381  23.476   2.367
68185W        W39714   6.745  44.697   2.643
68186W        W39715  11.878  26.592  12.671
68187W        W39716   8.776  37.067  13.961
68188W        W39717   4.424  37.754   4.653
68189W        W39718  14.784   9.705  13.786
68190W        W39719  42.507   2.482  12.966
68191W        W39720  38.055  42.785   3.345
68192W        W39721  43.909  11.819  10.566
68193W        W39722   7.938  11.684   3.768
68194W        W39723  25.444  11.654  11.143
68195W        W39724   7.512   1.132   3.303
68196W        W39725   1.133  44.731  13.143
68197W        W39726  20.265  10.319  10.223
68198W        W39727  10.527  30.013   4.578
68199W        W39728   0.643  21.566   1.875
68200W        W39729  40.333  44.482   0.278
68201W        W39730   9.827  40.010  13.258
68202W        W39731  21.115  12.892   0.964
68203W        W39732  38.091  34.583   2.274
68204W        W39733  16.070  14.397   0.368
68205W        W39734  40.432  29.072  11.125
68206W        W39735   7.790   7.245  13.570
68207W        W39736  22.707  16.254  10.237
68208W        W39737  24.652  25.494  13.171
68209W        W39738  28.508  29.775  11.602
68210W        W39739  23.555  20.530   3.256
68211W        W39740  16.701  34.438   0.806
68212W        W39741  31.502  23.603  13.945
68213W        W39742  31.975  31.640   2.260
68214W        W39743   3.171  23.567   0.814
68215W        W39744   5.403  33.438  11.257
68216W        W39745   5.355  19.091  11.081
68217W        W39746  32.252  38.516  12.162
68218W        W39747  22.242  42.808   4.566
68219W        W39748  38.046  30.519   2.722
68220W        W39749  35.964  33.980   3.558
68221W        W39750  13.301   9.578  13.521
68222W        W39751  31.855  42.549  13.357
68223W        W39752  12.571   0.310  11.976
68224W        W39753   9.825  39.631  12.892
68225W        W39754  17.627  23.019   3.379
68226W        W39755  12.379  14.792   3.237
68227W        W39756  35.958  31.191   2.880
68228W        W39757  16.146  25.332  10.522
68229W        W39758   6.986  35.960  10.758
68230W        W39759   1.432   7.024   3.660
68231W        W39760  17.573  37.931   4.204
68232W        W39761  22.609   3.166  11.120
68233W        W39762  12.313  18.230   4.842
68234W        W39763  14.298  14.677  10.733
68235W        W39764  32.964  44.775   2.888
68236W        W39765   5.757  30.127   0.837
68237W        W39766  15.675  10.875  14.018
68238W        W39767  22.162  10.322  14.950
68239W        W39768  36.484   4.167   4.725
68240W        W39769  20.670  39.101   2.608
68241W        W39770  11.717  23.764  13.440
68242W        W39771  20.613  35.380  11.911
68243W        W39772  40.781  18.798  10.744
68244W        W39773  13.583   4.275   3.232
68245W        W39774  25.539  36.624   1.203
68246W        W39775   3.848  30.026   3.455
68247W        W39776  43.272  40.829  13.829
68248W        W39777  37.553  31.077   4.054
68249W        W39778   1.797  19.258  14.913
68250W        W39779  15.159  25.737   1.273
68251W        W39780  44.528   0.871  11.149
68252W        W39781   3.226  34.810  14.036
68253W        W39782  44.295  26.074   1.924
68254W        W39783   8.400  17.419   5.041
68255W        W39784  34.665  15.148   0.737
68256W        W39785  28.972  11.106  12.531
68257W        W39786   1.823  30.014   0.370
68258W        W39787  15.239  12.780  10.871
68259W        W39788  44.337  34.949   2.202
68260W        W39789  26.445  13.195   4.220
68261W        W39790   0.999  21.990  12.403
68262W        W39791  34.397  29.752   2.856
68263W        W39792  33.876  16.798   4.954
68264W        W39793  44.074  11.196  12.982
68265W        W39794   5.658  14.076  14.095
68266W        W39795  30.524  36.468   2.218
68267W        W39796  20.500   6.206  11.635
68268W        W39797  19.033  23.526  10.512
68269W        W39798  20.014  38.409  14.820
68270W        W39799  43.539   7.232  14.015
68271W        W39800   3.491  27.169  11.025
68272W        W39801  34.553  24.245   4.540
68273W        W39802  14.596   2.534   0.923
68274W        W39803   6.726  33.750  13.516
68275W        W39804   6.865  37.400  11.938
68276W        W39805  21.650   7.481   1.261
68277W        W39806  42.068  35.570   4.074
68278W        W39807  10.988  19.601  13.812
68279W        W39808  27.713  41.613  13.088
68280W        W39809  14.385  18.450   1.705
68281W        W39810  43.547  40.416  14.884
68282W        W39811  11.617  30.047   4.542
68283W        W39812   1.895  27.942   3.888
68284W        W39813   1.692   2.422   4.714
68285W        W39814  31.840  11.276   3.821
68286W        W39815   2.388  41.592   0.214
68287W        W39816  24.136  32.103  11.334
68288W        W39817  38.060  44.775   4.325
68289W        W39818   8.644   9.159  12.695
68290W        W39819  11.384  29.510  11.956
68291W        W39820  42.284  16.634   3.156
68292W        W39821  19.729  13.593  11.231
68293W        W39822  15.390  44.955   4.560
68294W        W39823  19.540  40.902   2.701
68295W        W39824  34.356  42.640   2.307
68296W        W39825   8.415   6.772   4.705
68297W        W39826   4.508  17.723   4.183
68298W        W39827  13.570   9.746  12.169
68299W        W39828  28.335  11.163   0.832
68300W        W39829  25.557   8.305   2.790
68301W        W39830  16.265  21.215   0.038
68302W        W39831   8.186  40.248   2.164
68303W        W39832  34.223  31.082  14.539
68304W        W39833  39.817  17.069  13.588
68305W        W39834  26.836  32.796   4.040
68306W        W39835  29.844  18.196   3.371
68307W        W39836   2.445  25.445  13.031
68308W        W39837   7.217   1.272  13.333
68309W        W39838  27.992  24.738   4.651
68310W        W39839   5.253  21.958  14.440
68311W        W39840  26.579  20.041  12.158
68312W        W39841  37.347   3.777   2.993
68313W        W39842   5.997  27.173   0.842
68314W        W39843  22.103  37.286  14.894
68315W        W39844  44.219  10.207   0.336
68316W        W39845  40.805  15.854   1.081
68317W        W39846  16.690  19.458  14.326
68318W        W39847   9.634   4.620   0.242
68319W        W39848  10.860  29.118  11.590
68320W        W39849  24.705  13.787  13.481
68321W        W39850  11.772   9.674   0.833
68322W        W39851   4.840  35.638   3.749
68323W        W39852   2.207  21.475   3.356
68324W        W39853  39.090  10.704  14.609
68325W        W39854  15.233  20.993   4.091
68326W        W39855  37.906  39.529  13.068
68327W        W39856  31.001   1.745   4.520
68328W        W39857   2.078   8.572   4.105
68329W        W39858  16.325  25.741   3.268
68330W        W39859  40.006  33.892  14.904
68331W        W39860  21.943  10.249  10.772
68332W        W39861  40.399  24.619  13.026
68333W        W39862  30.519  17.985  14.808
68334W        W39863  36.925  29.734   4.139
68335W        W39864  15.594   4.311   0.420
68336W        W39865  13.027   9.197  10.693
68337W        W39866  29.660  18.068   2.813
68338W        W39867  23.109  44.703  10.675
68339W        W39868  29.389  40.983   3.259
68340W        W39869  13.573  11.488  13.379
68341W        W39870  29.088  25.659  13.036
68342W        W39871  22.311  20.097   3.139
68343W        W39872   4.967  18.221   2.759
68344W        W39873   6.348  39.414  14.522
68345W        W39874  39.804  40.913   1.284
68346W        W39875  42.839  18.000   4.238
68347W        W39876   5.136  29.896  11.956
68348W        W39877  25.510  14.374  10.843
68349W        W39878   4.708  24.897  12.968
68350W        W39879  18.188  18.626  11.488
68351W        W39880  19.983  16.306   4.223
68352W        W39881  25.528  39.778  12.413
68353W        W39882  12.857  28.630   1.331
68354W        W39883   2.326  39.585   0.547
68355W        W39884  24.979  13.041  13.573
68356W        W39885  20.906  28.246   4.313
68357W        W39886   7.234  38.963  10.912
68358W        W39887  41.071  30.644   2.883
68359W        W39888  19.346  31.956   3.730
68360W        W39889   3.819   2.755  13.978
68361W        W39890  32.681  36.986   0.404
68362W        W39891  20.785  17.555  11.950
68363W        W39892   1.388  39.837   1.906
68364W        W39893  39.492   2.208  11.682
68365W        W39894  42.486   2.692  13.950
68366W        W39895  15.379  36.244  10.340
68367W        W39896  17.850   3.022  11.505
68368W        W39897   5.466  10.810  13.977
68369W        W39898   5.201  27.722  12.378
68370W        W39899  24.806  26.698   0.674
68371W        W39900  17.162  35.382   2.349
68372W        W39901  33.606  12.052  12.357
68373W        W39902   9.635  27.500  11.830
68374W        W39903  13.148  36.787  14.224
68375W        W39904  14.971  31.648  14.799
68376W        W39905  21.141  25.215   1.944
68377W        W39906  12.478  14.465   2.829
68378W        W39907  24.146   3.185   2.409
68379W        W39908  31.393  20.916   3.237
68380W        W39909  14.202  24.648   3.397
68381W        W39910  41.953  41.737   2.646
68382W        W39911  11.783  21.154  10.833
68383W        W39912  41.616  11.709   2.785
68384W        W39913  36.539   5.811  14.786
68385W        W39914  14.736  26.067   4.311
68386W        W39915   4.019  19.532  12.448
68387W        W39916   9.981  44.826  14.845
68388W        W39917  37.296  22.202  12.113
68389W        W39918   4.606   2.426  10.590
68390W        W39919  35.696  27.983   2.394
68391W        W39920  39.644  44.449  10.651
68392W        W39921   1.404  26.793   2.407
68393W        W39922  39.273  11.888   4.256
68394W        W39923  20.212   5.836   3.874
68395W        W39924  13.950   7.182  12.704
68396W        W39925  12.445  28.630   0.381
68397W        W39926  31.012  43.737   4.718
68398W        W39927  16.126   3.432  14.835
68399W        W39928  16.536  25.463  11.212
68400W        W39929  15.059  32.044   4.453
68401W        W39930  27.570  18.282  13.440
68402W        W39931   3.171   6.460   4.563
68403W        W39932  22.284   9.147  11.015
68404W        W39933  26.302  28.984   0.844
68405W        W39934  44.297  20.241  13.554
68406W        W39935   1.934  24.625   3.716
68407W        W39936  30.159  22.114  14.324
68408W        W39937  28.507  35.288   9.978
68409W        W39938  27.454   6.834   1.504
68410W        W39939  12.856  27.692  13.943
68411W        W39940  42.398  13.255  10.562
68412W        W39941  39.577   8.976  11.105
68413W        W39942   0.758  20.274   2.816
68414W        W39943  31.208  10.239   0.315
68415W        W39944  20.564  36.225  10.523
68416W        W39945  22.343   6.170   3.334
68417W        W39946  32.910  23.530   3.672
68418W        W39947  38.389   0.972  14.276
68419W        W39948  40.804  22.970  14.093
68420W        W39949  35.002  28.084   3.689
68421W        W39950  28.467  26.530  14.972
68422W        W39951  26.209   5.238   2.244
68423W        W39952   7.722  21.192  13.851
68424W        W39953   5.290  43.326  13.706
68425W        W39954  14.243  33.107   0.850
68426W        W39955  40.515  36.885  13.565
68427W        W39956  24.822   5.909  11.141
68428W        W39957  33.077  23.262  13.281
68429W        W39958  33.360  44.434   2.350
68430W        W39959  44.285  17.627   3.753
68431W        W39960  20.229  43.452  13.249
68432W        W39961  18.174  16.087   1.263
68433W        W39962  29.858  34.032  13.236
68434W        W39963  14.559   2.541  12.539
68435W        W39964   1.942  16.771   0.267
68436W        W39965  25.373   6.856   0.375
68437W        W39966  23.718  10.658   4.571
68438W        W39967   5.690  37.395   2.909
68439W        W39968  19.220  19.561  10.737
68440W        W39969  34.495  41.769   0.003
68441W        W39970  41.603  40.546   4.594
68442W        W39971   0.437   4.967   2.550
68443W        W39972  23.159  43.937   1.385
68444W        W39973  11.889   6.764  13.779
68445W        W39974   0.834  42.459   3.252
68446W        W39975  43.962  19.388  14.853
68447W        W39976  21.999   2.544  10.828
68448W        W39977   4.998   2.901   2.373
68449W        W39978  36.156  34.827   5.176
68450W        W39979  19.718  32.094  11.493
68451W        W39980   4.769  37.026  11.665
68452W        W39981   1.812  15.052   0.169
68453W        W39982  26.742  21.621   3.277
68454W        W39983  38.360  18.327   2.511
68455W        W39984   4.869  21.250   1.223
68456W        W39985   4.616   0.301  11.151
68457W        W39986  42.487   4.763  11.088
68458W        W39987  18.009  37.007  13.890
68459W        W39988  42.272   5.267  12.412
68460W        W39989  25.082  37.501   0.918
68461W        W39990   4.696  41.779   1.024
68462W        W39991   9.816  31.524   3.639
68463W        W39992  22.634  33.108  13.232
68464W        W39993  43.964   3.350   3.115
68465W        W39994   6.938  31.483   4.338
68466W        W39995  33.307  40.217   5.143
68467W        W39996  16.922  20.717  11.050
68468W        W39997  38.330  43.476   3.966
68469W        W39998  30.989  13.073  14.317
68470W        W39999  25.853  16.766  11.570
68471W        W40000  34.151  31.901  13.289
68472W        W40001  35.039  30.609  14.409
68473W        W40002  21.134   2.763  12.520
68474W        W40003  24.792  29.693   3.735
68475W        W40004   4.994  16.059   0.243
68476W        W40005  25.172  35.051  13.918
68477W        W40006   4.913  42.758  14.193
68478W        W40007  23.077  16.788  11.222
68479W        W40008  43.345  34.841  13.423
68480W        W40009  42.419   5.485   1.775
68481W        W40010  30.572   4.515   3.801
68482W        W40011  18.116   8.147   4.181
68483W        W40012   4.419  14.252   1.354
68484W        W40013  42.779  26.526   2.200
68485W        W40014   2.467  43.377   3.384
68486W        W40015   4.949  15.911   4.142
68487W        W40016  26.297  42.802  13.468
68488W        W40017  26.600  20.539  11.708
68489W        W40018   5.468  28.913  13.399
68490W        W40019  44.925   3.808   1.252
68491W        W40020  15.802  21.746  12.827
68492W        W40021  29.789  25.569   2.402
68493W        W40022  39.928  28.591  12.989
68494W        W40023  22.221  38.091  10.969
68495W        W40024  19.004  22.428  11.478
68496W        W40025  31.460   3.682   0.448
68497W        W40026  18.205  14.241   3.781
68498W        W40027  18.612  25.963  11.020
68499W        W40028  27.917  32.615  14.608
68500W        W40029  40.929   1.013   0.648
68501W        W40030  25.278   0.003  10.648
68502W        W40031  43.276  43.365   2.336
68503W        W40032  27.368  33.373  14.512
68504W        W40033   0.945   1.420   4.438
68505W        W40034  13.866  42.939  13.931
68506W        W40035  31.824   6.302   0.629
68507W        W40036  26.692  29.632  11.422
68508W        W40037  33.992  15.115  12.995
68509W        W40038   2.316  19.151  14.941
68510W        W40039  23.667  32.584   2.362
68511W        W40040   8.065   0.766   4.522
68512W        W40041  10.673  35.971  13.668
68513W        W40042  41.393  12.578  13.356
68514W        W40043  28.998   8.584  12.376
68515W        W40044  15.585   8.824  11.950
68516W        W40045  37.483  15.487   0.364
68517W        W40046  36.873  17.578  14.499
68518W        W40047  22.953   8.075   4.142
68519W        W40048   9.545  26.264   0.349
68520W        W40049   7.956  30.957  12.070
68521W        W40050   5.374  42.954  14.070
68522W        W40051  18.883  14.780   4.567
68523W        W40052   4.918  23.232  13.792
68524W        W40053  32.452  20.292   2.782
68525W        W40054   5.442  44.418  13.791
68526W        W40055  27.129  19.597   0.357
68527W        W40056  23.403  24.304  14.013
68528W        W40057   7.746  22.554   2.286
68529W        W40058  24.018  32.179  12.724
68530W        W40059  31.133  27.931   0.264
68531W        W40060  13.934  20.155  12.570
68532W        W40061   5.761  42.796  14.380
68533W        W40062   2.012  39.953  13.913
68534W        W40063  43.343  36.137   4.669
68535W        W40064  33.042  28.656   4.143
68536W        W40065  14.252  27.366   3.655
68537W        W40066  16.663  33.439   1.676
68538W        W40067  44.041   9.725   0.229
68539W        W40068  13.645   2.666   1.785
68540W        W40069  21.992  44.798   3.491
68541W        W40070  35.036  25.220   1.850
68542W        W40071  30.747  13.123   3.713
68543W        W40072  21.712   0.648   0.300
68544W        W40073  31.424  38.376   4.240
68545W        W40074  20.073  20.416   3.943
68546W        W40075  32.834  39.522  14.783
68547W        W40076  33.574  14.627  12.987
68548W        W40077  19.821  30.697  12.440
68549W        W40078   1.434  23.218  13.346
68550W        W40079  12.134  22.144   3.669
68551W        W40080  33.090  17.814  14.370
68552W        W40081  31.549  28.242  11.369
68553W        W40082  10.135   6.702  14.944
68554W        W40083  34.886  28.111  10.838
68555W        W40084  34.876  40.465   1.410
68556W        W40085  18.835   3.462  12.087
68557W        W40086  10.739  40.785  10.724
68558W        W40087  34.987  28.581  11.021
68559W        W40088  35.905   9.415  11.570
68560W        W40089  38.384  16.544   2.109
68561W        W40090  32.105  26.676   1.341
68562W        W40091  20.258  11.383  11.605
68563W        W40092  11.293  15.250   3.660
68564W        W40093   9.549  27.320  14.086
68565W        W40094  13.225   6.809  14.442
68566W        W40095  15.921  24.287  13.933
68567W        W40096  17.737  37.992   2.842
68568W        W40097  21.639  18.881  13.771
68569W        W40098  34.801  14.399  11.689
68570W        W40099  34.937  10.387  11.513
68571W        W40100  33.067  32.472  12.855
68572W        W40101  20.707  39.059   1.908
68573W        W40102  44.810  43.832   1.403
68574W        W40103  25.048   7.638  10.927
68575W        W40104  23.042  36.056   0.975
68576W        W40105  17.134  19.740  11.569
68577W        W40106  21.828  14.765   0.362
68578W        W40107  34.024  33.887  11.598
68579W        W40108  24.684  14.293  14.074
68580W        W40109   1.026   5.968  14.856
68581W        W40110  27.192  32.079  12.667
68582W        W40111  41.484  26.556   0.904
68583W        W40112  20.726  41.068   4.094
68584W        W40113  29.472  37.356   2.729
68585W        W40114  31.582  32.018   4.873
68586W        W40115  28.599  11.576   3.620
68587W        W40116   8.259   8.365  11.828
68588W        W40117  33.348   9.195  13.214
68589W        W40118  29.172  39.557   2.389
68590W        W40119  28.380  28.497   1.438
68591W        W40120  29.995  10.802   2.372
68592W        W40121  41.876  41.633  14.860
68593W        W40122   0.694  44.015  12.093
68594W        W40123  30.424  29.444  12.447
68595W        W40124  36.711   6.408  12.511
68596W        W40125  31.520  24.985   1.269
68597W        W40126  11.673  34.356  12.956
68598W        W40127  10.379  25.160   3.027
68599W        W40128  32.953  14.590   2.121
68600W        W40129  29.626   2.599   3.607
68601W        W40130   5.674   8.624  10.661
68602W        W40131  20.572  38.813  14.737
68603W        W40132  10.792  41.116   1.664
68604W        W40133   3.114  33.678  12.201
68605W        W40134   7.308  24.681   3.797
68606W        W40135  20.145  41.080  12.539
68607W        W40136  16.795   3.977   2.101
68608W        W40137  42.784  24.637  12.476
68609W        W40138   7.224   1.448  14.234
68610W        W40139  10.764  17.529   1.536
68611W        W40140  26.179  41.012  14.834
68612W        W40141  19.658  28.183  12.122
68613W        W40142  36.408   2.593   4.577
68614W        W40143  43.333  19.105  10.927
68615W        W40144  32.574  39.457  10.664
68616W        W40145  40.845  14.025  12.011
68617W        W40146  21.550  14.348   0.758
68618W        W40147  17.563  44.112   4.919
68619W        W40148  34.094  39.891  13.568
68620W        W40149  39.398  15.709  10.123
68621W        W40150  29.058  30.997   3.150
68622W        W40151  22.277  34.942   1.886
68623W        W40152  26.276  32.753   4.095
68624W        W40153   0.375  22.951   0.883
68625W        W40154   4.797   4.295   1.178
68626W        W40155  12.657  37.647   1.859
68627W        W40156  25.410  34.063  11.950
68628W        W40157  26.754  24.101   0.219
68629W        W40158  39.999   6.147  13.510
68630W        W40159  23.157  15.090   2.356
68631W        W40160  16.571  10.181  11.092
68632W        W40161  16.558   6.780   3.176
68633W        W40162  37.430   5.153   3.633
68634W        W40163  32.076  18.838  14.013
68635W        W40164  22.683  27.092   1.332
68636W        W40165  24.694  40.068  10.369
68637W        W40166  35.572  12.829   4.910
68638W        W40167  35.023  29.861   4.173
68639W        W40168   8.274  38.841   2.180
68640W        W40169   5.409   4.410  13.420
68641W        W40170  35.620  33.639  11.584
68642W        W40171  21.905  20.941  13.409
68643W        W40172  42.071  26.078  13.445
68644W        W40173  18.674   8.901   4.252
68645W        W40174  35.108  20.251  10.528
68646W        W40175  22.602   4.214   0.518
68647W        W40176  11.675   3.857  13.978
68648W        W40177   9.080  18.540   3.126
68649W        W40178  13.384  40.788   2.339
68650W        W40179  20.013  42.423   4.011
68651W        W40180  10.687  19.566   0.008
68652W        W40181  17.268  25.135   1.423
68653W        W40182   1.384  17.857  13.972
68654W        W40183  37.025  16.377   1.245
68655W        W40184   3.319  27.837   1.659
68656W        W40185  17.822  35.609  10.909
68657W        W40186  11.109  25.065   1.406
68658W        W40187  14.909  12.272  12.474
68659W        W40188   3.393  21.435   4.323
68660W        W40189  43.026  43.829   3.408
68661W        W40190  11.082  40.236  13.315
68662W        W40191   1.435  22.453   2.777
68663W        W40192  37.242  27.496   2.102
68664W        W40193  36.795  17.952  13.874
68665W        W40194  26.569  16.994   4.788
68666W        W40195  31.030  14.440   0.083
68667W        W40196  36.985  36.530  10.674
68668W        W40197  31.708  21.734  10.842
68669W        W40198  26.272  25.015  10.236
68670W        W40199  19.789  21.554  14.428
68671W        W40200  39.197  10.326  11.046
68672W        W40201   3.375  24.775   3.925
68673W        W40202  14.963  20.210   5.474
68674W        W40203  12.458  31.411  11.640
68675W        W40204   4.482  44.005  11.057
68676W        W40205  31.354  42.903  13.817
68677W        W40206  28.506  13.596   4.538
68678W        W40207  12.843  29.405   4.531
68679W        W40208  44.674  41.404   2.352
68680W        W40209   9.396  35.820  14.373
68681W        W40210  33.404  26.006   2.771
68682W        W40211   3.587  32.564   2.711
68683W        W40212  33.659  29.632   0.517
68684W        W40213  16.140  42.284  11.622
68685W        W40214  21.479   8.729   2.830
68686W        W40215  41.022  38.382  13.002
68687W        W40216  16.254   5.438   4.805
68688W        W40217  30.566  37.989   2.897
68689W        W40218  20.380  30.126  14.608
68690W        W40219   1.340   3.928   2.339
68691W        W40220  43.878  38.652   1.743
68692W        W40221  38.848   0.155   3.811
68693W        W40222  28.588  37.285   3.730
68694W        W40223   1.034  25.015   4.643
68695W        W40224  23.005  25.937  11.637
68696W        W40225  38.289  38.869  13.026
68697W        W40226  13.483  12.216  10.425
68698W        W40227   2.885  11.848   1.440
68699W        W40228  15.384   7.567  14.576
68700W        W40229  44.887   7.139   4.416
68701W        W40230  28.228   5.904  14.806
68702W        W40231  16.260   8.536   4.167
68703W        W40232  20.317  15.041  12.076
68704W        W40233  44.397  23.702   1.670
68705W        W40234   3.665   8.819  12.464
68706W        W40235  34.890  34.197  10.634
68707W        W40236  26.652  14.798   0.451
68708W        W40237   8.739   3.289   2.318
68709W        W40238  34.457  42.136   2.444
68710W        W40239  29.133  20.841   5.078
68711W        W40240  40.883   3.202  14.765
68712W        W40241   7.297  12.719   4.484
68713W        W40242  39.979   7.820  11.614
68714W        W40243  11.088   1.376   2.599
68715W        W40244  26.829   6.439   0.294
68716W        W40245  43.332  28.646  12.940
68717W        W40246   6.154  11.898   4.082
68718W        W40247  40.998  43.759   2.410
68719W        W40248  33.480  36.844   3.874
68720W        W40249  29.693  39.446  14.908
68721W        W40250  21.312  39.117   2.329
68722W        W40251  33.409  21.126   2.360
68723W        W40252   8.298   0.487  12.544
68724W        W40253  19.489  22.691  12.677
68725W        W40254   0.732   8.412   3.618
68726W        W40255  26.163  30.556   3.721
68727W        W40256  33.153  26.668   4.989
68728W        W40257   4.202  26.648  14.933
68729W        W40258  26.940  14.863  12.462
68730W        W40259  40.968  12.793  13.578
68731W        W40260  15.163  20.158   1.832
68732W        W40261  19.999   3.890  14.333
68733W        W40262  37.146  44.322  10.627
68734W        W40263  16.457  36.154  12.062
68735W        W40264   3.191  38.346   2.845
68736W        W40265  33.849  42.883  11.522
68737W        W40266  35.133   1.206   1.879
68738W        W40267  13.126  31.671   4.840
68739W        W40268  29.700  34.996  14.723
68740W        W40269  16.064   3.000  13.009
68741W        W40270  41.970  22.202  12.979
68742W        W40271  30.067  31.129  11.627
68743W        W40272   6.373  15.931   3.687
68744W        W40273  19.740   2.758   2.330
68745W        W40274  18.789  15.701   4.593
68746W        W40275  23.232  22.014   3.212
68747W        W40276  16.070   7.413   0.868
68748W        W40277  26.583  34.873   0.424
68749W        W40278  20.178  33.583  13.979
68750W        W40279  23.609   8.238  13.344
68751W        W40280  35.569  24.115  12.370
68752W        W40281   8.875  36.813  13.494
68753W        W40282  10.683  13.666  14.097
68754W        W40283  12.344   0.319   2.779
68755W        W40284   6.235   4.745  14.956
68756W        W40285  11.859  13.665   2.288
68757W        W40286  26.057  21.571  11.046
68758W        W40287   4.681  37.444   5.085
68759W        W40288  40.604  29.668  13.315
68760W        W40289  10.978  33.990   3.224
68761W        W40290  30.113  43.496   2.828
68762W        W40291   2.588  27.551  11.486
68763W        W40292  14.174  23.259  13.481
68764W        W40293   5.310  16.230  13.043
68765W        W40294  35.201   9.860   4.395
68766W        W40295   4.252  21.232  10.736
68767W        W40296  34.427  20.146  11.921
68768W        W40297   4.391  11.858  13.482
68769W        W40298  31.996  41.831   3.670
68770W        W40299   6.913  20.129   5.345
68771W        W40300  33.075  20.505  11.949
68772W        W40301  24.191  26.438   1.412
68773W        W40302  39.421  22.905   2.828
68774W        W40303  26.406  25.051  12.856
68775W        W40304  31.988   6.271  14.201
68776W        W40305  43.877  33.305   4.942
68777W        W40306  18.302  17.285   0.121
68778W        W40307   0.393  13.816  14.294
68779W        W40308  32.615  16.416  12.409
68780W        W40309  39.913  38.803   3.563
68781W        W40310  35.817  27.167   0.253
68782W        W40311   2.712  25.177   1.827
68783W        W40312   4.766   0.932   5.092
68784W        W40313  20.452   7.861  13.393
68785W        W40314  41.871   4.285   4.414
68786W        W40315  44.917  38.988   2.715
68787W        W40316   3.000  12.720   2.421
68788W        W40317   4.726  31.698  12.610
68789W        W40318   6.360  29.427  12.118
68790W        W40319  30.841  22.488   2.424
68791W        W40320  26.145  28.521   0.773
68792W        W40321  19.494  18.255  14.817
68793W        W40322   1.318   9.936  13.910
68794W        W40323  26.143  40.273   4.650
68795W        W40324   2.829   3.206   0.905
68796W        W40325   6.665   8.524  10.653
68797W        W40326  10.322  19.734  12.079
68798W        W40327  36.002   7.928  12.932
68799W        W40328  11.863  36.888   1.492
68800W        W40329   2.776  20.588  10.776
68801W        W40330  37.404  22.626   3.770
68802W        W40331   1.935  11.297  13.140
68803W        W40332  18.807  15.250  14.785
68804W        W40333   6.515  29.406  11.096
68805W        W40334  10.454   1.346   4.693
68806W        W40335  17.316  41.988  10.685
68807W        W40336  43.099   5.608  14.337
68808W        W40337  19.539  16.741  14.497
68809W        W40338  16.107   1.734  14.556
68810W        W40339  32.560  42.521   3.378
68811W        W40340  24.159  12.666  11.727
68812W        W40341  34.800   7.401   5.000
68813W        W40342  28.520  29.798  14.771
68814W        W40343  23.915  18.979   2.800
68815W        W40344  18.543  20.531   0.744
68816W        W40345  38.053  27.020  12.451
68817W        W40346   0.630  11.635   2.363
68818W        W40347   0.401  39.960   4.653
68819W        W40348  23.901  35.860   0.720
68820W        W40349  24.542  13.777  14.139
68821W        W40350  39.573   4.697  14.387
68822W        W40351  30.085  18.072  12.891
68823W        W40352   3.525  35.659  14.380
68824W        W40353  14.833  18.811  11.921
68825W        W40354  13.801  43.571   4.182
68826W        W40355  16.575  11.320  14.047
68827W        W40356   6.665  10.209  10.496
68828W        W40357  43.652  23.524   1.849
68829W        W40358  42.376  18.142  14.025
68830W        W40359  39.529  31.579  13.416
68831W        W40360   1.806  36.000  11.910
68832W        W40361  37.948  26.597  13.338
68833W        W40362  18.115  31.225   3.309
68834W        W40363   0.688  20.564  13.013
68835W        W40364   8.190  11.244  12.585
68836W        W40365  37.951  31.329  13.368
68837W        W40366  38.475  29.864   4.167
68838W        W40367  37.430  24.638  14.502
68839W        W40368  35.988   4.380  11.689
68840W        W40369   6.113  19.123  11.172
68841W        W40370  28.392   5.140   0.805
68842W        W40371  25.404   7.363  11.174
68843W        W40372   5.593  37.974   0.817
68844W        W40373  13.042   8.795   4.567
68845W        W40374   0.342  38.405   1.600
68846W        W40375  25.189  40.465   3.699
68847W        W40376   7.440   1.926   3.753
68848W        W40377   4.905  19.033  12.548
68849W        W40378   3.255   3.487  14.908
68850W        W40379   5.305  32.388  11.185
68851W        W40380  25.445  15.331  12.167
68852W        W40381   0.883  22.103  11.020
68853W        W40382  28.183   0.811   3.250
68854W        W40383  37.217  20.609   0.674
68855W        W40384  31.131   6.766   1.902
68856W        W40385  37.553  15.850   3.208
68857W        W40386  32.950  10.596   2.249
68858W        W40387  29.564   9.855   0.985
68859W        W40388  11.777  18.582   2.317
68860W        W40389  20.655  38.157   1.898
68861W        W40390  20.506  39.948   2.169
68862W        W40391  41.430   7.247  12.614
68863W        W40392   9.161  30.042   2.297
68864W        W40393  36.362  20.343  13.521
68865W        W40394  12.647  31.877  11.603
68866W        W40395  24.628   7.461  10.682
68867W        W40396  43.285   1.443   0.330
68868W        W40397  41.591  14.760   2.488
68869W        W40398  40.290  29.595  14.095
68870W        W40399  33.383  16.265  13.789
68871W        W40400  31.431  30.190  14.053
68872W        W40401  30.668  10.292   0.287
68873W        W40402  13.004   8.561   4.121
68874W        W40403  12.729  42.812   3.316
68875W        W40404  36.592  14.894  12.347
68876W        W40405  22.138  29.365   1.155
68877W        W40406  33.081   3.320   1.040
68878W        W40407   2.123  29.641  14.561
68879W        W40408   9.467  11.263  11.971
68880W        W40409  39.508  34.823  12.747
68881W        W40410  16.786  22.445  14.776
68882W        W40411   9.744  34.093  14.873
68883W        W40412  15.730  13.913   0.898
68884W        W40413  23.654  26.293   4.601
68885W        W40414  16.293   6.333  12.472
68886W        W40415  29.140  21.333  11.530
68887W        W40416   3.291  16.638  14.537
68888W        W40417  14.800  40.958  12.548
68889W        W40418  24.085  35.406  12.556
68890W        W40419  40.527   1.131  12.973
68891W        W40420  31.266  27.134   3.652
68892W        W40421  17.812  26.437   2.385
68893W        W40422   7.972  27.676  14.380
68894W        W40423  22.004  41.810  12.504
68895W        W40424  41.748  28.142  13.867
68896W        W40425  26.244  19.698  11.924
68897W        W40426   0.230  26.974   1.432
68898W        W40427  11.681  20.461   0.959
68899W        W40428  20.529  23.717  14.869
68900W        W40429  35.055  22.339   3.628
68901W        W40430  26.122  11.866  13.529
68902W        W40431   5.356  24.509  14.021
68903W        W40432  24.133   9.120   1.189
68904W        W40433  11.341  19.607  12.004
68905W        W40434  13.170  20.721  13.014
68906W        W40435  36.893  35.399   4.119
68907W        W40436   2.023  28.721   3.581
68908W        W40437   2.928  31.037   0.520
68909W        W40438  36.517  28.356   0.943
68910W        W40439  10.410  34.487   0.884
68911W        W40440   1.840  15.266   3.382
68912W        W40441  27.911  27.511   4.211
68913W        W40442   6.809  14.845  11.236
68914W        W40443  10.260  34.502   2.755
68915W        W40444  14.079  22.518  11.325
68916W        W40445   7.179   5.423  12.982
68917W        W40446  37.738  31.926   1.801
68918W        W40447  35.795  40.273   5.025
68919W        W40448   7.963  35.813  13.078
68920W        W40449  35.296  15.146  11.667
68921W        W40450   3.052  23.088   0.941
68922W        W40451  22.594  23.005   1.362
68923W        W40452  38.384   7.340  14.778
68924W        W40453  40.343  23.619  13.497
68925W        W40454  38.991   3.497   2.224
68926W        W40455  44.042  10.235   3.117
68927W        W40456  25.625  18.627  12.552
68928W        W40457  41.936  18.571   3.229
68929W        W40458  28.470  37.524   0.778
68930W        W40459  44.487  19.536   0.394
68931W        W40460  34.973  40.610   2.963
68932W        W40461   5.725  13.588  10.608
68933W        W40462  14.181  42.372   4.357
68934W        W40463  24.712  16.885   2.720
68935W        W40464  17.326  39.259  12.741
68936W        W40465  21.753   3.956   1.223
68937W        W40466  20.293   5.416   2.624
68938W        W40467   1.939  37.115  12.072
68939W        W40468  42.804  11.692  12.949
68940W        W40469  37.306   4.187   3.689
68941W        W40470  42.567   4.289   3.673
68942W        W40471  14.785   5.423  14.956
68943W        W40472  36.837  22.499   5.079
68944W        W40473   6.126   1.950   1.415
68945W        W40474  33.631  12.168   0.830
68946W        W40475  41.025  30.230  14.392
68947W        W40476  18.075  32.577  13.554
68948W        W40477  29.177  34.068  12.054
68949W        W40478  44.765  11.367   2.371
68950W        W40479  37.995  27.753  14.444
68951W        W40480  44.477  22.644  11.226
68952W        W40481  14.887  39.336  14.960
68953W        W40482  18.154  34.819  10.750
68954W        W40483  43.566  43.375   1.868
68955W        W40484  42.586   6.357  14.263
68956W        W40485  43.559  39.077   4.570
68957W        W40486  22.166  36.093   4.438
68958W        W40487  44.481  15.335  14.406
68959W        W40488  33.921  44.759   4.311
68960W        W40489  39.133  30.597  13.028
68961W        W40490  39.193   8.000  12.066
68962W        W40491  37.355   6.465   2.649
68963W        W40492  39.041  23.106  13.567
68964W        W40493   8.820  33.082  11.647
68965W        W40494  37.990   8.693  12.213
68966W        W40495  16.190  24.297  10.023
68967W        W40496  11.805  42.204  12.098
68968W        W40497  20.604   8.138   4.851
68969W        W40498   6.519  44.075   0.198
68970W        W40499   7.610  25.113  11.873
68971W        W40500  40.898  26.550  11.527
68972W        W40501  19.086  17.603  14.027
68973W        W40502   1.064  31.631  14.770
68974W        W40503  38.331   7.906  13.380
68975W        W40504   5.792   6.361  10.780
68976W        W40505  16.445  44.408   3.479
68977W        W40506  35.458  31.087   2.821
68978W        W40507   8.418  22.285   1.452
68979W        W40508   4.907  15.409   4.098
68980W        W40509  35.616   9.110   4.461
68981W        W40510  32.646   3.262  11.131
68982W        W40511  19.062  17.692   0.501
68983W        W40512  12.681  41.428  12.451
68984W        W40513  17.189  29.982  14.927
68985W        W40514   3.364   1.083  13.674
68986W        W40515  11.595   7.331   1.306
68987W        W40516  15.987   4.483  14.649
68988W        W40517  44.216  41.021  11.546
68989W        W40518  41.084   2.913   3.687
68990W        W40519   1.126  17.160  11.622
68991W        W40520   0.515  15.152   2.614
68992W        W40521   3.079   6.461  11.154
68993W        W40522  13.758  32.282  11.085
68994W        W40523  18.087   8.654  13.968
68995W        W40524  31.568  15.724  14.962
68996W        W40525  20.030  21.185   3.718
68997W        W40526  26.665  12.406   2.722
68998W        W40527   0.963  42.002  11.177
68999W        W40528  11.378   0.416   2.666
69000W        W40529  34.295  32.911  13.422
69001W        W40530  20.742  10.676  11.121
69002W        W40531   5.281  26.993   2.299
69003W        W40532  20.284  33.675   2.810
69004W        W40533   7.124  32.984   3.274
69005W        W40534  37.416   8.708  10.664
69006W        W40535   5.049  32.544   2.311
69007W        W40536  27.121  28.505   1.820
69008W        W40537   0.720  24.942   3.707
69009W        W40538  15.811   0.963   4.109
69010W        W40539  23.754   6.185  11.563
69011W        W40540  31.881   4.324  14.353
69012W        W40541  44.850   2.442   3.574
69013W        W40542  24.160  19.863  13.485
69014W        W40543  11.499  38.880   0.418
69015W        W40544  28.575  11.171   4.201
69016W        W40545  37.870  10.132  10.979
69017W        W40546   5.192  30.871  13.688
69018W        W40547   6.286   7.034  13.874
69019W        W40548  38.153  43.838  11.139
69020W        W40549  16.955   4.915   5.057
69021W        W40550  41.837  11.231   4.559
69022W        W40551  17.583  18.002   4.109
69023W        W40552  24.580  12.651  12.064
69024W        W40553  26.525   0.064  11.713
69025W        W40554   0.343  21.481   3.804
69026W        W40555  23.321   4.872  12.866
69027W        W40556   4.371  28.159  10.689
69028W        W40557  30.575   2.683   1.214
69029W        W40558  44.951   5.348  14.334
69030W        W40559  24.551  40.431  14.234
69031W        W40560   8.310  17.148   3.712
69032W        W40561  20.985  42.745   3.621
69033W        W40562  29.597  30.576  11.232
69034W        W40563   4.377   4.897   3.809
69035W        W40564  34.480  15.649   2.641
69036W        W40565   5.361  37.866  14.834
69037W        W40566   4.975  24.654   4.585
69038W        W40567  17.222  27.046   4.259
69039W        W40568  10.258  37.389   1.887
69040W        W40569  17.111  18.841  10.665
69041W        W40570  44.601  43.869   0.034
69042W        W40571  34.515  18.968   0.510
69043W        W40572  31.569  21.119  12.477
69044W        W40573  20.642  15.299   4.222
69045W        W40574  31.051   2.366  11.035
69046W        W40575  16.468   1.980  10.942
69047W        W40576  12.735  39.215   0.747
69048W        W40577   5.567  34.524  12.436
69049W        W40578  43.435  10.735   0.844
69050W        W40579  23.232  17.110   3.614
69051W        W40580   4.680  12.589  12.358
69052W        W40581   7.798  43.018  10.783
69053W        W40582  28.224  43.422   2.258
69054W        W40583  12.373   0.807  14.913
69055W        W40584   8.013  43.441  11.044
69056W        W40585  24.748  32.566   3.072
69057W        W40586  18.530  29.514   3.446
69058W        W40587  43.484   1.800  11.354
69059W        W40588  44.773  39.082  10.729
69060W        W40589   4.874   7.391   3.684
69061W        W40590  25.607  35.367   0.080
69062W        W40591  29.258  30.240   0.739
69063W        W40592  17.867  24.002  14.815
69064W        W40593  21.704  31.439   1.676
69065W        W40594   0.678  12.068  10.493
69066W        W40595  34.710  11.837   2.581
69067W        W40596   4.710   4.660  14.936
69068W        W40597  29.686  12.816   4.808
69069W        W40598   2.844  16.989   4.119
69070W        W40599  43.966  10.608   1.021
69071W        W40600  40.097  11.200   2.843
69072W        W40601   9.328  13.308   3.778
69073W        W40602  17.867  35.156   0.876
69074W        W40603  18.121   1.921  13.670
69075W        W40604   0.391   7.678  11.609
69076W        W40605  41.556  36.338  12.397
69077W        W40606  44.984  18.333   2.798
69078W        W40607   7.049  12.257  11.539
69079W        W40608  27.150  31.266   1.885
69080W        W40609   2.467   3.828   1.385
69081W        W40610  39.923   3.805  10.716
69082W        W40611  28.062  44.279  11.574
69083W        W40612  24.528   7.410   3.729
69084W        W40613  11.234  12.801   1.422
69085W        W40614  40.248  43.932   4.933
69086W        W40615  30.636  36.757   0.484
69087W        W40616   8.392   6.233  14.298
69088W        W40617  24.541   1.760  11.342
69089W        W40618  29.450  30.888  12.933
69090W        W40619  26.628   8.810  12.098
69091W        W40620   8.333   7.769  12.503
69092W        W40621  20.630   2.958  12.506
69093W        W40622  35.269  10.541  10.201
69094W        W40623  30.498  44.714  13.596
69095W        W40624  11.649  14.875   2.660
69096W        W40625  25.764   4.128  14.409
69097W        W40626  40.842  32.535   4.624
69098W        W40627  36.542  37.539  10.173
69099W        W40628  19.601   0.574   0.850
69100W        W40629  20.644  23.081  14.347
69101W        W40630   0.833   5.476  14.740
69102W        W40631  40.915  26.094  11.744
69103W        W40632   4.443  36.219  13.386
69104W        W40633   4.982  23.831  11.953
69105W        W40634  44.432  24.677  14.988
69106W        W40635   4.262   8.572  11.619
69107W        W40636  31.668  41.316  14.982
69108W        W40637   8.141  22.516   3.219
69109W        W40638   6.795  18.284   1.431
69110W        W40639  26.363   2.955  14.795
69111W        W40640  12.121  13.712  11.639
69112W        W40641  17.301  16.856   3.409
69113W        W40642  31.466  16.029   3.336
69114W        W40643   2.732  36.376   1.749
69115W        W40644  38.361  24.160   0.344
69116W        W40645  32.859  16.600   1.219
69117W        W40646  22.824  21.471  10.177
69118W        W40647  17.822  23.494   1.111
69119W        W40648  24.736  44.857  13.382
69120W        W40649  14.231   8.647  14.777
69121W        W40650  34.704  40.530   0.914
69122W        W40651   0.227  44.255   4.157
69123W        W40652  10.870  23.963   0.554
69124W        W40653  21.291  35.521   0.597
69125W        W40654  18.806  44.784  14.508
69126W        W40655  37.305  35.315  11.034
69127W        W40656   4.424   7.134   2.662
69128W        W40657  33.893  22.615  14.783
69129W        W40658  33.096  28.815  14.434
69130W        W40659  28.926  22.295   0.240
69131W        W40660  42.096  43.579  14.791
69132W        W40661  28.833  18.078   1.342
69133W        W40662  41.313  39.839   2.656
69134W        W40663   4.760  24.399  12.788
69135W        W40664  41.397  14.261  14.252
69136W        W40665  15.278  21.177  14.738
69137W        W40666  25.158   5.486   2.584
69138W        W40667  22.224  22.292   2.351
69139W        W40668  22.886   6.234   5.062
69140W        W40669  40.889  23.618   0.653
69141W        W40670   9.078   5.182  11.957
69142W        W40671  10.038  19.827  11.604
69143W        W40672   3.454   9.317   2.277
69144W        W40673  19.038  44.239   2.898
69145W        W40674  19.854   0.647   4.549
69146W        W40675  13.734  30.700   2.159
69147W        W40676  14.255  13.406   2.004
69148W        W40677   9.924  38.826   3.894
69149W        W40678  40.267  44.420  12.526
69150W        W40679  14.150  39.434  14.312
69151W        W40680  15.810  33.035   2.722
69152W        W40681  11.837  22.212  14.887
69153W        W40682  23.685   7.569  11.592
69154W        W40683  16.215  10.016   0.758
69155W        W40684  14.060  29.712   4.161
69156W        W40685  42.295  30.852   4.557
69157W        W40686  13.809   4.883   1.727
69158W        W40687  44.209  23.033  13.296
69159W        W40688   1.423  38.736  10.521
69160W        W40689   4.212  11.869   2.304
69161W        W40690  22.228  25.684  14.853
69162W        W40691   0.298  10.675  14.305
69163W        W40692   0.819  11.798  14.984
69164W        W40693  27.483  38.019   0.856
69165W        W40694  22.553   5.689  12.888
69166W        W40695   7.399  32.956   2.826
69167W        W40696   7.093  38.925  14.253
69168W        W40697  12.700   2.285  14.558
69169W        W40698  44.999  37.981  14.770
69170W        W40699  40.377  34.698  11.546
69171W        W40700  18.554  13.035   2.806
69172W        W40701  40.565  16.598   0.041
69173W        W40702   7.162  42.931  10.236
69174W        W40703  25.662  11.208  11.076
69175W        W40704  19.333   3.370   4.593
69176W        W40705   0.553  28.112  14.428
69177W        W40706   2.329  24.862  11.313
69178W        W40707  31.160  25.112   2.720
69179W        W40708  29.143  18.566  11.729
69180W        W40709  36.731   6.334   0.742
69181W        W40710  33.645  28.239  13.428
69182W        W40711  35.930   7.310   3.178
69183W        W40712  43.272   3.420  12.009
69184W        W40713  25.049  27.222   4.705
69185W        W40714   6.114  30.982   2.461
69186W        W40715  23.527  30.776  11.119
69187W        W40716  31.524   2.089  12.498
69188W        W40717  20.052   4.353   2.658
69189W        W40718  25.964  13.152  12.037
69190W        W40719  26.574  35.594   1.249
69191W        W40720  20.754  36.686   4.791
69192W        W40721   2.841  23.741  10.744
69193W        W40722   6.287   7.693   3.419
69194W        W40723  19.214   8.885  13.326
69195W        W40724  43.326   2.965   2.320
69196W        W40725   3.767  15.418   0.306
69197W        W40726   7.701  19.466   3.457
69198W        W40727  29.058   4.819  12.141
69199W        W40728  38.239  31.497   4.570
69200W        W40729   8.738  16.987   4.480
69201W        W40730  36.841  25.028   3.263
69202W        W40731   8.589   1.702  11.931
69203W        W40732  17.080   3.964  12.029
69204W        W40733  16.560  44.561   1.920
69205W        W40734  33.696  39.496  11.410
69206W        W40735  40.708  13.124   4.099
69207W        W40736   3.774   2.803   0.816
69208W        W40737  35.072  25.780  14.932
69209W        W40738  33.195  24.313   0.815
69210W        W40739  17.643  12.261  14.297
69211W        W40740  38.627  44.829  13.986
69212W        W40741  41.583   6.836  12.918
69213W        W40742  13.745   3.213   2.731
69214W        W40743  40.467   0.255   0.735
69215W        W40744   3.265  25.853  11.115
69216W        W40745   0.512  31.120   3.240
69217W        W40746  20.231  42.490   1.313
69218W        W40747  36.301  16.216  11.542
69219W        W40748  16.763  18.676   4.637
69220W        W40749  23.733  20.274  10.700
69221W        W40750  42.183  27.178  11.283
69222W        W40751  33.848  38.482   3.464
69223W        W40752  17.597   5.046  12.927
69224W        W40753  13.658  33.101  12.966
69225W        W40754  18.305  31.910  14.110
69226W        W40755   6.677  33.494   4.251
69227W        W40756   5.391  10.343   2.127
69228W        W40757  23.905   0.104  14.229
69229W        W40758  26.599  31.454  12.505
69230W        W40759  13.594  24.032   4.607
69231W        W40760  37.361  20.661  11.948
69232W        W40761  30.171   2.998  13.813
69233W        W40762  30.109  15.047   1.364
69234W        W40763  32.789  33.999   3.541
69235W        W40764  42.786  26.925  12.864
69236W        W40765  10.896  38.778  11.472
69237W        W40766  30.976  26.515  14.269
69238W        W40767   0.347  30.589   2.719
69239W        W40768  39.371  36.949  14.734
69240W        W40769  16.589  28.496   3.794
69241W        W40770  35.317  19.012  14.989
69242W        W40771  30.420  29.425   3.734
69243W        W40772  11.385  29.080   2.662
69244W        W40773   4.879   1.772  11.966
69245W        W40774  17.578  37.063   2.777
69246W        W40775  39.385  39.430  10.942
69247W        W40776  32.694   3.661  14.770
69248W        W40777  21.330  42.226   1.946
69249W        W40778  20.753   8.773   3.237
69250W        W40779  38.885   0.461  12.177
69251W        W40780  42.388  32.917   3.957
69252W        W40781   0.433  44.557   1.477
69253W        W40782  34.251  26.010   0.949
69254W        W40783   9.438   4.918  14.851
69255W        W40784  42.497  19.571   3.548
69256W        W40785   7.908  40.116   3.486
69257W        W40786  26.989   1.994  13.080
69258W        W40787   2.776  39.048  11.983
69259W        W40788  10.828  17.015   4.557
69260W        W40789  15.529  13.855   1.932
69261W        W40790  40.834   5.128  11.119
69262W        W40791   8.824  10.374  13.673
69263W        W40792  10.092  11.590   0.789
69264W        W40793  36.841   0.252   3.322
69265W        W40794  27.659  29.959   2.671
69266W        W40795  36.818   0.248  13.364
69267W        W40796  39.011  41.431  12.269
69268W        W40797  13.617  17.203   3.764
69269W        W40798   1.948   4.160   4.921
69270W        W40799  34.093  21.212   4.017
69271W        W40800  29.467  29.581   3.854
69272W        W40801  43.261   1.786   4.193
69273W        W40802   3.978  22.963   2.904
69274W        W40803  19.089  31.559  13.353
69275W        W40804   7.970  10.129   2.831
69276W        W40805   3.292  23.802   1.261
69277W        W40806   0.852  17.116   0.560
69278W        W40807  31.531  23.233  11.679
69279W        W40808  22.308  44.993   4.566
69280W        W40809  43.837  18.318  13.438
69281W        W40810  34.141   4.721  14.895
69282W        W40811  15.513  41.540   1.767
69283W        W40812  29.180   1.847  12.856
69284W        W40813   7.694  32.253  14.928
69285W        W40814   7.863   7.249   2.716
69286W        W40815   1.986  17.622  11.695
69287W        W40816  30.150  29.023  12.376
69288W        W40817  26.775  29.388  14.200
69289W        W40818   8.700   3.232   4.534
69290W        W40819  32.122  26.520   1.846
69291W        W40820  14.687  18.665   3.408
69292W        W40821  33.606  20.817   3.858
69293W        W40822  19.325   3.630  13.861
69294W        W40823  30.241  13.885  12.489
69295W        W40824  30.440  30.552  13.787
69296W        W40825  17.681   5.832  10.718
69297W        W40826  42.815  22.162   3.205
69298W        W40827   0.067  42.076  11.567
69299W        W40828  22.516  30.452  11.464
69300W        W40829   6.921  11.752   1.703
69301W        W40830   4.475  21.589   4.095
69302W        W40831   0.519  20.843   0.363
69303W        W40832  32.932  14.733   3.308
69304W        W40833   8.910  29.722  13.474
69305W        W40834   4.303  32.290   4.631
69306W        W40835  40.555  41.040  13.525
69307W        W40836  44.522   9.890   2.338
69308W        W40837  10.627  13.146   3.305
69309W        W40838   4.417   7.868   3.283
69310W        W40839  18.812  34.292   4.964
69311W        W40840  19.142   8.264   1.856
69312W        W40841  20.078  26.951  13.388
69313W        W40842  16.174   4.154   3.343
69314W        W40843  37.939  17.159  10.544
69315W        W40844  20.154  14.909   4.837
69316W        W40845  23.448  28.165  12.996
69317W        W40846   9.918  44.947  13.079
69318W        W40847   5.664  27.482  12.191
69319W        W40848  38.410  37.535   1.261
69320W        W40849   6.991  28.090   1.424
69321W        W40850  29.095  33.160   1.504
69322W        W40851  17.364  13.124   4.707
69323W        W40852  22.640   4.746   2.908
69324W        W40853   0.923  33.730  14.552
69325W        W40854  26.406  38.395  11.608
69326W        W40855  41.272  28.876  14.425
69327W        W40856  24.197  12.895   3.616
69328W        W40857  27.568   4.953  13.903
69329W        W40858  32.131  11.258   0.891
69330W        W40859  42.112  31.702  10.752
69331W        W40860   5.202  12.702  10.673
69332W        W40861  16.171  13.678  14.544
69333W        W40862  30.290   6.879  12.583
69334W        W40863  44.699  31.091  14.612
69335W        W40864  18.670  37.044   0.036
69336W        W40865  33.668  12.679   4.239
69337W        W40866   0.516  35.178  12.111
69338W        W40867  34.097  33.037   2.470
69339W        W40868  18.523  24.683   1.910
69340W        W40869  18.017  11.806  13.391
69341W        W40870   1.550  25.805   2.430
69342W        W40871  32.967  37.830   1.894
69343W        W40872  37.949  19.685   1.418
69344W        W40873  25.469   7.227   0.818
69345W        W40874  23.486  22.740   1.718
69346W        W40875  28.458  22.584  11.596
69347W        W40876  18.000  34.154   4.576
69348W        W40877   5.737   8.345   3.343
69349W        W40878  39.998  14.345   3.226
69350W        W40879  39.525   9.685   1.521
69351W        W40880   9.338  30.458  12.783
69352W        W40881  30.443  30.774   0.888
69353W        W40882  39.197  21.069  11.082
69354W        W40883  37.424  22.387  12.611
69355W        W40884   2.948   7.120  13.041
69356W        W40885  44.773   3.477   1.642
69357W        W40886   1.921  32.947  12.571
69358W        W40887  34.594  32.029   1.822
69359W        W40888   1.222   1.969   1.913
69360W        W40889  13.222  11.903  12.478
69361W        W40890   2.238  21.074   3.042
69362W        W40891  25.178  43.311   2.247
69363W        W40892  30.018  12.808  13.370
69364W        W40893   8.150  20.191  11.357
69365W        W40894  41.351  22.817  10.694
69366W        W40895   3.798  24.297  11.920
69367W        W40896  42.949  14.642  14.798
69368W        W40897  27.690   7.691  12.173
69369W        W40898  39.098  14.629   0.012
69370W        W40899  17.686  41.354   2.214
69371W        W40900  30.625   8.679  13.869
69372W        W40901   3.855  31.192  10.617
69373W        W40902   8.652   9.804   1.177
69374W        W40903   0.869  43.641  14.831
69375W        W40904  26.761  29.501   2.724
69376W        W40905  37.247  11.387  11.071
69377W        W40906  34.354  28.038   3.062
69378W        W40907  10.661   4.226  14.482
69379W        W40908   1.508   1.061  11.648
69380W        W40909  42.085  42.529   1.187
69381W        W40910   5.607  37.603  14.453
69382W        W40911  35.362  27.606  13.696
69383W        W40912  27.231   9.101  11.121
69384W        W40913  24.135  41.006  14.109
69385W        W40914  23.881  40.637   3.723
69386W        W40915   8.861  34.460   1.681
69387W        W40916  24.936   9.692   0.561
69388W        W40917  35.723  12.854  12.010
69389W        W40918  15.268  22.259   0.242
69390W        W40919  18.852  20.134  12.433
69391W        W40920  41.020  22.742  14.518
69392W        W40921  34.262  22.270   3.966
69393W        W40922  38.613   1.255   2.668
69394W        W40923  22.135  19.066   4.095
69395W        W40924  31.693  37.928   1.387
69396W        W40925   1.032  34.989   4.143
69397W        W40926  20.798   0.211  14.371
69398W        W40927  28.417  31.366  12.366
69399W        W40928  25.924  43.833  11.478
69400W        W40929  35.848  29.582  13.676
69401W        W40930  42.274  28.594   3.038
69402W        W40931   3.836  10.752   0.313
69403W        W40932  11.160  15.041   4.681
69404W        W40933  43.009  16.987  11.632
69405W        W40934  24.489  11.079  14.914
69406W        W40935   6.932  43.325  12.481
69407W        W40936  34.862  40.675  11.178
69408W        W40937  11.635  17.179  10.358
69409W        W40938  44.255  44.375  12.037
69410W        W40939  28.796  36.981   4.974
69411W        W40940  26.721  18.284  13.517
69412W        W40941  32.843  43.820   3.253
69413W        W40942  42.446   2.208   0.311
69414W        W40943   8.678  38.108  11.195
69415W        W40944  11.743  11.600  14.815
69416W        W40945  19.120  41.396  14.299
69417W        W40946   4.511  36.879  10.756
69418W        W40947  40.312  21.943   1.193
69419W        W40948   7.923  31.779   9.966
69420W        W40949  37.456  34.518  11.973
69421W        W40950   0.760  32.905   1.794
69422W        W40951  29.339  40.208   2.913
69423W        W40952  22.242   2.746  12.484
69424W        W40953  16.029  20.040   3.155
69425W        W40954   8.320  35.578  11.882
69426W        W40955  19.291  31.655   3.283
69427W        W40956  25.368  20.651   2.766
69428W        W40957  12.142  43.251   4.610
69429W        W40958  22.570   4.505   1.460
69430W        W40959   5.673  42.196   0.827
69431W        W40960  36.519  31.355   0.927
69432W        W40961  11.888  12.783   4.045
69433W        W40962   0.091  35.026  10.688
69434W        W40963  30.130  28.051  11.536
69435W        W40964  44.700  31.811  11.180
69436W        W40965  22.507  22.524   3.137
69437W        W40966  40.982  12.227   2.642
69438W        W40967  20.581  21.939  12.198
69439W        W40968  26.132  43.292  14.183
69440W        W40969  14.717   8.953   0.958
69441W        W40970  32.136   1.183   1.521
69442W        W40971   3.000  35.158   3.664
69443W        W40972  37.415   9.253  11.174
69444W        W40973   0.872  43.009   4.192
69445W        W40974   0.839  26.667   4.200
69446W        W40975  38.277   7.002  11.905
69447W        W40976  35.384  10.354   4.434
69448W        W40977  24.426  22.966   3.108
69449W        W40978  42.297  14.617   2.882
69450W        W40979   1.770  25.723   1.975
69451W        W40980  40.126   2.917   1.816
69452W        W40981  24.624  16.344  13.882
69453W        W40982   7.411  28.326   3.990
69454W        W40983  22.180  33.079   0.819
69455W        W40984  11.327   6.677   2.361
69456W        W40985  32.731  33.493   0.879
69457W        W40986  37.874  28.630   1.158
69458W        W40987  20.741   6.435  12.605
69459W        W40988   9.866   1.781   3.768
69460W        W40989  22.681  35.767   2.798
69461W        W40990   3.991  27.313  11.002
69462W        W40991  30.515  37.003  14.605
69463W        W40992   6.222  21.444   0.826
69464W        W40993  18.991  15.637   3.439
69465W        W40994  23.625  41.335   4.177
69466W        W40995  43.224  39.921   4.313
69467W        W40996  11.680   4.916  11.175
69468W        W40997  28.036  19.458   2.804
69469W        W40998   2.809  22.401  11.176
69470W        W40999  27.246  22.545   3.305
69471W        W41000  33.448  19.281  14.983
69472W        W41001   8.638  40.833   3.661
69473W        W41002  32.915  35.000   4.879
69474W        W41003  41.062  29.278  11.184
69475W        W41004  41.063  18.323  10.741
69476W        W41005  30.703  35.791  11.966
69477W        W41006  34.443  37.128  11.603
69478W        W41007   4.644  25.612  12.495
69479W        W41008  34.356   9.889  13.339
69480W        W41009  37.837   9.651   3.142
69481W        W41010   6.318  35.004  13.570
69482W        W41011  19.806  16.842  14.930
69483W        W41012  17.620   1.027  11.504
69484W        W41013  17.279  41.904   4.653
69485W        W41014  31.633  21.099  14.788
69486W        W41015  40.221  40.098   5.161
69487W        W41016  20.519  39.840  11.615
69488W        W41017  44.345  25.539  11.182
69489W        W41018   6.482  35.271  12.231
69490W        W41019   7.209  37.358  11.562
69491W        W41020   8.982  16.802  11.926
69492W        W41021   5.415  24.625   2.481
69493W        W41022  18.452  15.558   0.097
69494W        W41023  30.933  12.781  11.980
69495W        W41024  36.343  32.467   1.755
69496W        W41025  41.335  31.071  13.541
69497W        W41026  10.824  26.970   1.179
69498W        W41027  42.746  33.584  14.108
69499W        W41028  18.666  20.627   4.054
69500W        W41029  42.002  37.984   1.817
69501W        W41030  31.991   1.916   0.816
69502W        W41031   2.516  43.372   1.388
69503W        W41032  16.057  35.139   2.712
69504W        W41033  19.677  26.761  14.065
69505W        W41034  10.131  19.132   4.654
69506W        W41035  17.889  42.463   0.838
69507W        W41036  40.285  15.808  13.884
69508W        W41037  32.109  36.821  12.379
69509W        W41038   7.230  43.730  10.666
69510W        W41039  13.313  31.962   2.905
69511W        W41040  43.895  37.970  11.708
69512W        W41041  38.331   7.617  11.132
69513W        W41042   9.836  17.139  13.490
69514W        W41043  28.347  32.291   9.812
69515W        W41044  36.062   8.186   0.615
69516W        W41045   6.932  21.647  12.886
69517W        W41046  10.379   8.311   3.203
69518W        W41047   4.327  31.883  13.421
69519W        W41048   4.536  10.318   0.858
69520W        W41049  32.031  17.158   2.298
69521W        W41050  12.599   2.802  12.356
69522W        W41051  22.036  40.868  14.875
69523W        W41052  34.889  29.678  13.338
69524W        W41053   4.469   5.402  13.299
69525W        W41054  15.692  36.917  11.759
69526W        W41055  32.166  21.643  13.787
69527W        W41056  13.890  38.543   2.891
69528W        W41057  26.564  27.729  12.107
69529W        W41058  43.389  36.340   1.843
69530W        W41059   8.413  25.630   4.706
69531W        W41060  15.253   4.394  14.548
69532W        W41061  43.824  39.088   3.807
69533W        W41062  10.677  44.769   4.111
69534W        W41063  22.030  19.622   0.302
69535W        W41064  17.020  12.906   0.449
69536W        W41065  29.822   7.454  11.218
69537W        W41066   4.620  21.688   1.223
69538W        W41067  39.012  27.602   1.714
69539W        W41068  34.575  15.418  12.507
69540W        W41069  11.934  10.736   0.288
69541W        W41070   3.347  40.615  10.829
69542W        W41071  23.921  41.478   2.792
69543W        W41072  14.216   2.079   3.310
69544W        W41073  12.415  22.703  10.890
69545W        W41074  42.379  13.587  12.661
69546W        W41075  37.271   0.452   4.549
69547W        W41076  19.290  11.183  14.493
69548W        W41077  23.939  34.557  12.923
69549W        W41078  20.506   2.335  10.653
69550W        W41079  21.738  15.693   1.261
69551W        W41080  43.748  30.396  12.948
69552W        W41081  13.273  26.786  12.482
69553W        W41082  33.397  20.671   4.314
69554W        W41083  24.037  23.849   5.043
69555W        W41084  19.121  34.136  13.847
69556W        W41085  31.468   6.176   1.424
69557W        W41086  30.097   4.738  14.234
69558W        W41087  31.606  35.023   2.237
69559W        W41088  34.067  38.247   0.374
69560W        W41089  15.163  32.347  11.997
69561W        W41090  14.350  20.524   0.922
69562W        W41091  17.735  36.095   1.292
69563W        W41092  43.287  35.960  12.803
69564W        W41093  23.726  44.705   0.001
69565W        W41094  19.652  23.501   2.791
69566W        W41095  16.397  37.387  12.398
69567W        W41096  18.342  34.483   2.179
69568W        W41097  13.165  12.989  11.185
69569W        W41098  11.201   6.176   4.101
69570W        W41099   6.355  14.359  13.394
69571W        W41100  40.596  44.348  14.359
69572W        W41101  41.857  39.634   0.678
69573W        W41102  15.382  23.545  14.593
69574W        W41103  35.530  32.873   0.724
69575W        W41104   6.663  25.993  14.456
69576W        W41105  23.972  15.300   3.889
69577W        W41106  21.799  19.603   5.240
69578W        W41107  33.524  30.192   3.275
69579W        W41108  11.106   9.253   1.241
69580W        W41109  33.717  41.075   0.321
69581W        W41110  25.979   6.311   3.452
69582W        W41111  27.970  27.694  13.089
69583W        W41112  25.170  18.193  14.292
69584W        W41113   7.758  43.500   0.798
69585W        W41114  12.590  38.569   4.626
69586W        W41115   7.898  14.756  11.156
69587W        W41116   6.796  29.622   4.645
69588W        W41117   7.260  27.219   0.462
69589W        W41118  25.916  29.652   2.337
69590W        W41119  19.185  20.090  12.835
69591W        W41120  12.383  43.186   1.268
69592W        W41121   6.891  37.990  12.451
69593W        W41122  23.751  39.215   4.623
69594W        W41123  37.348  19.708  14.386
69595W        W41124  20.631  37.490  11.881
69596W        W41125  15.610  22.809   1.718
69597W        W41126  44.056  25.814   4.123
69598W        W41127   2.706  30.154   4.076
69599W        W41128  23.723   6.637  10.721
69600W        W41129  35.328  20.356   2.642
69601W        W41130  28.512  17.606  12.789
69602W        W41131   8.448   2.357  10.345
69603W        W41132  13.351  29.852  14.898
69604W        W41133  42.356   4.671   0.932
69605W        W41134  24.264  16.233  12.920
69606W        W41135  32.600   0.585  12.263
69607W        W41136  33.454  22.069   1.217
69608W        W41137  32.988  44.992  12.823
69609W        W41138  11.598  12.685   3.564
69610W        W41139  42.468  22.037   2.404
69611W        W41140  21.222  43.075  11.733
69612W        W41141  31.184  21.596   0.525
69613W        W41142  19.542   6.448  11.625
69614W        W41143   3.155  36.379  13.730
69615W        W41144   2.963   4.957  10.508
69616W        W41145  26.946  22.327   0.481
69617W        W41146  34.918  40.109   3.175
69618W        W41147  35.038  44.554  10.176
69619W        W41148   0.276  15.306   4.055
69620W        W41149  16.621  38.874  13.306
69621W        W41150  34.737   1.911  12.931
69622W        W41151  28.644  21.425   4.629
69623W        W41152  15.823  10.033   5.017
69624W        W41153  44.238  32.657  11.966
69625W        W41154   3.916  10.219  12.849
69626W        W41155  12.084   9.275  12.106
69627W        W41156  17.720   1.759   4.748
69628W        W41157  24.071  10.045  12.914
69629W        W41158  32.849  39.069  14.513
69630W        W41159  30.059  11.655   2.625
69631W        W41160  23.015  37.447   4.068
69632W        W41161  11.627  18.280  13.466
69633W        W41162  38.830  34.098  10.777
69634W        W41163  30.251  41.055   3.975
69635W        W41164   2.195  31.113  11.047
69636W        W41165  40.393  18.073  14.064
69637W        W41166  12.697  20.643   3.359
69638W        W41167   0.814  30.625   4.273
69639W        W41168  12.046  17.307  10.666
69640W        W41169  30.517  24.114  11.087
69641W        W41170  10.115  16.138   1.301
69642W        W41171   2.320  13.132  13.106
69643W        W41172   6.956  21.694   5.609
69644W        W41173  33.911  12.182   2.304
69645W        W41174   6.318  18.985   0.271
69646W        W41175  18.201  10.481  10.595
69647W        W41176   6.834  35.519   0.307
69648W        W41177  39.498  41.228   0.322
69649W        W41178   9.272  44.890   1.739
69650W        W41179   9.060  35.509  14.862
69651W        W41180   7.163  39.263   4.077
69652W        W41181  39.755  23.956   3.331
69653W        W41182  40.279  35.321   3.713
69654W        W41183  23.031  44.533   1.767
69655W        W41184  28.050  22.438   1.410
69656W        W41185  29.107  25.698  13.923
69657W        W41186  22.349  20.748   4.709
69658W        W41187  42.346   1.159  10.688
69659W        W41188  36.041  33.026  10.434
69660W        W41189  26.185  19.746   1.365
69661W        W41190   5.480  27.079   0.886
69662W        W41191  14.561  12.179  10.676
69663W        W41192  22.840  36.318  12.628
69664W        W41193  33.952   6.789  13.093
69665W        W41194  18.749  43.491  13.027
69666W        W41195  36.109  29.988   3.624
69667W        W41196  28.472  37.946   1.484
69668W        W41197  13.275  17.199   0.392
69669W        W41198  43.419  41.322  12.424
69670W        W41199  36.323  17.961  10.974
69671W        W41200   8.834  25.071  13.782
69672W        W41201  31.881  24.670  13.443
69673W        W41202  40.005  39.929  11.229
69674W        W41203  11.873  35.014  14.508
69675W        W41204   2.758  23.127  13.108
69676W        W41205   1.548  27.537  10.661
69677W        W41206  29.605  40.388   0.310
69678W        W41207   9.602  38.530  13.867
69679W        W41208  14.545   9.273  12.909
69680W        W41209   7.605   8.776   3.189
69681W        W41210  23.451  10.333   2.520
69682W        W41211  16.745  15.354  14.685
69683W        W41212   1.109  11.423  12.510
69684W        W41213  25.236   3.761   0.136
69685W        W41214  20.663   2.757   0.180
69686W        W41215  41.460  12.187   2.839
69687W        W41216  34.069  31.866  11.636
69688W        W41217   8.278  15.781  11.911
69689W        W41218  34.666   5.309   3.858
69690W        W41219   0.907   3.284   1.958
69691W        W41220   8.966  32.920   4.121
69692W        W41221  15.207   2.116   2.192
69693W        W41222  44.397  16.308  12.493
69694W        W41223  20.302  24.843  13.100
69695W        W41224   7.599  14.157  12.913
69696W        W41225  14.613  35.279   1.592
69697W        W41226  32.031   8.303  14.799
69698W        W41227   1.475  25.026   4.946
69699W        W41228  26.237  15.876   1.740
69700W        W41229  13.880  19.184   4.839
69701W        W41230  31.842  28.190   0.894
69702W        W41231   6.663  14.092   3.650
69703W        W41232  41.266   1.210  13.495
69704W        W41233  17.053  18.085   2.173
69705W        W41234  22.605  20.771  10.686
69706W        W41235   8.709  27.099   4.542
69707W        W41236  30.581   5.869   3.922
69708W        W41237  32.546  14.690   2.470
69709W        W41238   7.553   9.884  14.838
69710W        W41239  29.318  21.130  10.293
69711W        W41240  19.987  44.862  14.767
69712W        W41241   5.635  11.188  11.849
69713W        W41242   9.325  29.895  11.144
69714W        W41243  15.200  34.383   1.976
69715W        W41244  18.221  17.846   3.304
69716W        W41245  23.180  24.995  11.756
69717W        W41246  11.039   0.517   3.912
69718W        W41247  19.936  35.282  13.569
69719W        W41248  34.050  10.070   3.636
69720W        W41249  17.193   7.174   2.281
69721W        W41250  38.181  10.796   2.668
69722W        W41251  10.207   3.054   3.823
69723W        W41252   8.348  35.125   4.631
69724W        W41253   4.847  44.051  10.701
69725W        W41254   3.418   5.755  12.977
69726W        W41255  44.512  43.005  13.343
69727W        W41256  19.705  33.110   4.688
69728W        W41257  43.703   8.608  12.553
69729W        W41258  40.560  16.094  11.239
69730W        W41259  11.685   8.367  13.003
69731W        W41260  35.097  36.807  10.549
69732W        W41261  40.105  14.907  13.249
69733W        W41262   0.834  10.303   1.046
69734W        W41263  17.981  16.815  13.652
69735W        W41264  11.247  16.406   4.284
69736W        W41265  32.614  42.055  12.924
69737W        W41266  36.847   6.371  11.742
69738W        W41267  37.066  35.416  13.710
69739W        W41268   6.482   6.475   3.535
69740W        W41269  33.568   1.717   3.865
69741W        W41270  40.492   3.406  13.361
69742W        W41271  34.526  16.933   0.423
69743W        W41272  25.722  29.243  14.891
69744W        W41273  30.091  34.427   2.814
69745W        W41274  25.286   5.014   4.953
69746W        W41275  15.323  41.079  11.674
69747W        W41276  19.365  11.640  12.528
69748W        W41277  33.766  23.113  12.483
69749W        W41278  25.490  29.205  13.060
69750W        W41279  41.250  16.200  13.797
69751W        W41280   5.677  40.262   0.972
69752W        W41281  43.519  22.293   0.102
69753W        W41282  24.964  13.787  13.040
69754W        W41283  18.636  34.371  12.955
69755W        W41284  25.266   5.864   3.315
69756W        W41285   0.389  39.985   0.938
69757W        W41286   0.983  15.895   0.075
69758W        W41287  21.386  24.387   2.889
69759W        W41288  20.028  43.538   1.250
69760W        W41289  21.656  40.272  14.255
69761W        W41290  38.391  24.460   3.046
69762W        W41291  19.120   5.117  14.853
69763W        W41292   7.379  31.921   3.829
69764W        W41293  38.797  41.830   3.305
69765W        W41294  22.731   9.746   1.835
69766W        W41295  16.861  13.363  12.383
69767W        W41296  17.891  28.551   3.071
69768W        W41297  44.463  20.022  13.100
69769W        W41298  19.256   9.156   2.732
69770W        W41299  10.068  31.794   0.949
69771W        W41300  15.889  33.579  14.429
69772W        W41301  27.429  29.903  12.049
69773W        W41302   7.835  16.058  13.931
69774W        W41303  39.412  12.970   4.096
69775W        W41304   3.722  22.230  12.459
69776W        W41305  42.714   3.484  10.788
69777W        W41306  13.096   1.643  11.312
69778W        W41307  18.374  37.443   5.020
69779W        W41308  33.080  12.863   0.368
69780W        W41309   3.642  10.857  11.156
69781W        W41310  26.163  20.991   4.211
69782W        W41311   9.425   6.347   3.787
69783W        W41312   8.010   1.885   3.834
69784W        W41313  30.575  21.009  10.682
69785W        W41314  12.837  34.354  12.538
69786W        W41315   8.813   0.355   4.303
69787W        W41316  38.735  33.941  14.563
69788W        W41317  33.347   1.301   4.089
69789W        W41318  41.561  42.161  12.905
69790W        W41319   6.106  36.583  14.259
69791W        W41320  26.055   1.488   4.386
69792W        W41321   5.212  43.384   2.888
69793W        W41322  30.056  38.376  11.927
69794W        W41323  20.514  24.382   4.321
69795W        W41324  11.941   0.607   2.840
69796W        W41325  28.827   0.524   0.000
69797W        W41326  23.441  16.079   4.524
69798W        W41327  16.770  20.126   0.923
69799W        W41328   5.040   2.695  13.267
69800W        W41329   1.721  32.488   4.584
69801W        W41330   8.803  12.835  14.484
69802W        W41331   4.829  43.282   1.750
69803W        W41332  22.474  41.614  12.570
69804W        W41333  33.530  28.103   0.473
69805W        W41334  26.359  16.746   2.151
69806W        W41335  22.331   7.447   2.723
69807W        W41336  22.753  22.081  10.065
69808W        W41337  26.051  11.824   1.029
69809W        W41338  37.879  31.455   1.424
69810W        W41339  10.873   1.934   1.847
69811W        W41340  10.144   4.988  13.673
69812W        W41341  19.337  14.765   4.258
69813W        W41342  11.792  11.935  12.506
69814W        W41343   5.739  20.143  14.469
69815W        W41344  32.560   9.584   2.267
69816W        W41345  33.486  34.141   4.765
69817W        W41346   6.406  14.188   0.696
69818W        W41347  39.861  10.913   2.018
69819W        W41348   8.618  35.861  11.548
69820W        W41349  27.770   2.262   2.340
69821W        W41350  26.940   4.347  12.497
69822W        W41351  31.583   5.465   0.836
69823W        W41352  38.365  23.721   4.558
69824W        W41353  29.512  32.338   0.651
69825W        W41354  37.424  30.287  11.753
69826W        W41355  25.630  35.525   2.114
69827W        W41356  44.776  31.181  14.104
69828W        W41357  21.634   9.441   1.582
69829W        W41358  20.565  32.376   3.800
69830W        W41359  19.624  28.590   1.509
69831W        W41360  39.988   9.218   3.798
69832W        W41361  43.005   1.264   4.252
69833W        W41362  27.769   4.128   2.680
69834W        W41363   9.704  22.616  12.501
69835W        W41364  25.171  18.745   2.449
69836W        W41365  19.554  11.588  13.014
69837W        W41366  30.529  20.628  14.739
69838W        W41367   6.900  11.674   2.215
69839W        W41368   8.449  33.608  12.927
69840W        W41369  21.295  35.968  13.483
69841W        W41370   6.655  36.364  14.906
69842W        W41371  40.957  13.870   0.837
69843W        W41372  22.720  21.084  13.834
69844W        W41373  21.828   2.233   3.373
69845W        W41374  36.062  11.799   1.797
69846W        W41375   2.726  18.304  14.536
69847W        W41376  10.246   3.448  11.000
69848W        W41377  12.705  28.638  12.618
69849W        W41378  35.539  16.594   2.671
69850W        W41379  43.923   3.823  10.643
69851W        W41380  15.638  40.876  12.099
69852W        W41381  21.579  27.679   3.660
69853W        W41382   0.683  33.976   0.533
69854W        W41383  20.388  40.634  11.127
69855W        W41384  31.732  40.397  12.154
69856W        W41385  44.522   7.382   2.156
69857W        W41386   0.459  16.064   4.471
69858W        W41387   8.306  33.869   2.341
69859W        W41388  23.260  42.200  13.899
69860W        W41389   9.192   4.780  11.641
69861W        W41390  20.129  43.939   0.300
69862W        W41391  27.549  36.042   4.562
69863W        W41392  30.119  26.663   1.364
69864W        W41393  26.460  29.962   0.740
69865W        W41394  21.170  22.168   3.077
69866W        W41395  10.561   5.314  11.653
69867W        W41396   6.420  23.071   3.760
69868W        W41397  31.614  41.490  10.667
69869W        W41398  17.718  19.905   9.913
69870W        W41399   5.404  25.209   0.811
69871W        W41400  27.860  10.748   0.537
69872W        W41401  21.062  38.320   4.992
69873W        W41402   6.380  21.957  12.522
69874W        W41403   4.318  13.723   3.693
69875W        W41404  42.843  13.109  13.886
69876W        W41405  32.517  18.179   3.856
69877W        W41406  31.646   0.324  11.178
69878W        W41407  28.622  29.879   4.546
69879W        W41408  37.711  35.723   1.792
69880W        W41409  33.619  28.715   0.725
69881W        W41410  11.330  39.830  11.955
69882W        W41411  20.559   5.490  13.845
69883W        W41412  31.881  19.803  14.939
69884W        W41413  44.762  39.630   3.929
69885W        W41414  36.064   4.517  13.596
69886W        W41415  37.734   4.441  13.283
69887W        W41416  33.072  32.552   1.771
69888W        W41417   2.229  37.023   2.959
69889W        W41418  38.421  22.562   2.780
69890W        W41419  32.847  41.294  13.076
69891W        W41420  29.870  30.590   0.029
69892W        W41421  37.782   8.351  11.290
69893W        W41422  27.549   2.545   0.289
69894W        W41423  21.204  13.359  13.212
69895W        W41424  28.083   7.163  10.572
69896W        W41425  22.298  24.503   2.097
69897W        W41426  21.290  44.837   9.870
69898W        W41427  23.941  15.758  12.952
69899W        W41428   9.924  38.016   0.032
69900W        W41429   9.257   0.112  13.369
69901W        W41430  11.626   9.211   4.542
69902W        W41431  43.443  37.375   3.307
69903W        W41432   5.675  35.418   3.552
69904W        W41433  27.512  19.305  13.359
69905W        W41434   7.138  41.527  10.680
69906W        W41435  11.164  28.025   3.837
69907W        W41436   3.906   3.761  13.563
69908W        W41437  44.684  38.024   2.688
69909W        W41438   0.258   8.295  12.518
69910W        W41439  43.393   0.315   0.711
69911W        W41440  25.907  24.226  10.715
69912W        W41441  18.204  22.665  11.062
69913W        W41442  16.889   4.201   1.212
69914W        W41443  41.950  25.316   3.569
69915W        W41444  17.107  19.498   4.885
69916W        W41445  20.598   2.054   3.496
69917W        W41446  14.810  44.327   2.260
69918W        W41447   0.001  10.415   3.893
69919W        W41448  39.970   2.372  11.610
69920W        W41449  37.327  22.895  12.507
69921W        W41450  36.487  32.771  11.782
69922W        W41451  22.591   9.722  10.370
69923W        W41452  10.837  34.925  13.600
69924W        W41453  14.778   0.643  12.886
69925W        W41454  22.517   1.302  10.141
69926W        W41455  39.540   0.951   3.076
69927W        W41456  22.548  22.715  12.982
69928W        W41457  31.482  37.128  10.708
69929W        W41458  16.488  34.364   2.424
69930W        W41459   0.185  30.865   2.302
69931W        W41460  15.576   8.288  11.494
69932W        W41461  23.399  12.682  14.872
69933W        W41462  19.498  19.765  14.025
69934W        W41463  11.742  28.436   5.039
69935W        W41464  14.595  29.855  13.419
69936W        W41465  44.083  32.967   4.496
69937W        W41466   3.378  31.184   0.324
69938W        W41467   5.298   4.985   2.861
69939W        W41468  37.480   7.360   0.298
69940W        W41469  24.047  27.638   2.457
69941W        W41470   7.182  44.424  11.182
69942W        W41471  31.280  34.843  12.857
69943W        W41472  24.127  25.022  11.568
69944W        W41473  25.650  26.935  10.732
69945W        W41474  41.846  24.861   3.922
69946W        W41475   6.856  26.924  12.578
69947W        W41476  40.559  30.159   0.279
69948W        W41477   3.254   7.196   0.188
69949W        W41478  38.302  20.462  12.333
69950W        W41479   9.630  43.919  11.884
69951W        W41480  21.808   7.382  13.992
69952W        W41481  32.060  30.975   4.189
69953W        W41482  33.744  35.795   0.485
69954W        W41483  11.630   6.411   3.157
69955W        W41484  29.423  11.164  13.411
69956W        W41485   7.057  30.962   4.750
69957W        W41486   4.694  24.089  12.376
69958W        W41487  41.150   2.821  12.004
69959W        W41488  13.079  33.981  11.048
69960W        W41489  23.913   3.031   3.300
69961W        W41490  23.015   0.522  11.194
69962W        W41491  20.085  25.087  10.978
69963W        W41492  33.190  40.179  11.145
69964W        W41493   1.920   8.121   1.861
69965W        W41494  19.886  33.847  11.464
69966W        W41495   2.763  33.544   3.608
69967W        W41496  35.469  21.332  13.012
69968W        W41497  28.199  38.417  13.980
69969W        W41498  42.608  33.097  13.379
69970W        W41499  25.158  14.512   1.632
69971W        W41500  36.092  40.783  12.445
69972W        W41501  17.211  34.648   3.080
69973W        W41502  42.076  25.600  12.495
69974W        W41503  35.082  11.685   3.934
69975W        W41504  37.993   4.321   4.663
69976W        W41505  19.501  38.967  12.130
69977W        W41506  22.945  25.109  14.744
69978W        W41507  14.157   2.141  11.916
69979W        W41508  32.371  22.128  13.780
69980W        W41509  27.980  44.735   0.240
69981W        W41510  14.293   7.398   2.410
69982W        W41511  40.000  23.922  11.574
69983W        W41512   2.057  20.691  12.006
69984W        W41513  14.853  33.450   0.225
69985W        W41514  34.617  32.955   4.771
69986W        W41515  24.057   3.766   1.007
69987W        W41516   6.415  29.599   3.248
69988W        W41517   8.730  25.238   3.421
69989W        W41518  40.083  29.003  13.310
69990W        W41519  24.852   3.737   1.405
69991W        W41520  44.498  42.499  13.470
69992W        W41521  18.709  35.311   2.163
69993W        W41522  40.263   7.171  14.488
69994W        W41523  27.987  22.330  12.709
69995W        W41524  36.408  16.621   2.880
69996W        W41525  18.763   0.764   1.318
69997W        W41526  21.616  29.917   1.770
69998W        W41527  22.369  22.582  13.962
69999W        W41528  17.955   3.042   1.998
70000W        W41529  39.402  30.521   2.358
70001W        W41530   7.575  28.218   3.509
70002W        W41531  39.906  29.602   1.765
70003W        W41532  27.657  36.450  12.110
70004W        W41533  32.378  29.654   4.110
70005W        W41534  36.085  25.724  14.930
70006W        W41535  44.502  11.881  14.593
70007W        W41536  44.610   4.889   0.431
70008W        W41537  36.377  36.933   2.344
70009W        W41538   8.300   3.839   3.170
70010W        W41539   4.876  24.494  11.014
70011W        W41540  43.042   2.293   2.821
70012W        W41541   6.651  22.784  14.274
70013W        W41542  11.622  24.559   4.470
70014W        W41543   2.943  33.328   1.828
70015W        W41544  20.794  23.673   1.798
70016W        W41545   4.220  38.815   0.429
70017W        W41546   4.295  14.210  13.994
70018W        W41547  22.338  27.900   2.660
70019W        W41548  40.212  39.200  12.915
70020W        W41549  41.828  22.490   2.354
70021W        W41550  15.599   9.554   0.312
70022W        W41551   9.919  36.049   4.237
70023W        W41552  27.512  31.893  13.662
70024W        W41553   2.600  28.714  13.620
70025W        W41554  12.310  29.245   4.517
70026W        W41555  13.705   6.618  14.521
70027W        W41556   9.723  40.548   4.119
70028W        W41557  39.862  12.584  12.204
70029W        W41558   0.744  24.752  12.972
70030W        W41559  39.838  30.084   3.049
70031W        W41560  39.038  29.878   2.713
70032W        W41561  12.299  27.574  11.686
70033W        W41562  42.327   3.376   0.926
70034W        W41563   2.317  35.413  11.144
70035W        W41564  41.882  32.927   1.317
70036W        W41565   7.731  44.992   1.131
70037W        W41566  35.287  23.154   1.335
70038W        W41567  43.013  41.320  13.538
70039W        W41568   5.020  20.344  12.934
70040W        W41569  14.792  41.751  12.979
70041W        W41570   8.673  15.726   3.268
70042W        W41571  17.019  19.804   1.673
70043W        W41572   5.659  20.144  11.550
70044W        W41573   0.020  44.107   2.397
70045W        W41574  22.671  17.859  13.557
70046W        W41575  32.609   4.138   2.757
70047W        W41576  23.996  10.808   0.002
70048W        W41577  42.716  13.220   2.400
70049W        W41578  13.669   8.302   3.146
70050W        W41579  21.200  10.417   3.658
70051W        W41580  28.508  44.445   3.860
70052W        W41581  12.696  37.065  10.574
70053W        W41582  41.916  24.046   1.331
70054W        W41583  22.678  10.610   2.735
70055W        W41584  43.744  10.173   1.247
70056W        W41585  29.546  32.690   2.251
70057W        W41586  17.072  16.152   4.365
70058W        W41587  14.119  34.309  11.822
70059W        W41588  12.563  32.979  13.577
70060W        W41589  29.896  11.064   4.115
70061W        W41590  16.838  14.228   1.549
70062W        W41591   8.397   0.865   3.666
70063W        W41592  26.928  38.507  12.841
70064W        W41593   7.394  29.119   3.001
70065W        W41594   1.520   3.815   3.658
70066W        W41595  28.126  38.007  11.616
70067W        W41596  23.214   4.130  13.931
70068W        W41597  30.542  44.977   4.515
70069W        W41598  37.526  33.947  11.574
70070W        W41599  13.698  17.277   0.073
70071W        W41600  15.674  40.936   2.563
70072W        W41601   6.932  13.506   0.366
70073W        W41602  12.967  37.540   5.169
70074W        W41603   1.237   4.998  11.610
70075W        W41604   1.477  18.020   1.431
70076W        W41605   8.735  31.360   1.760
70077W        W41606  38.816  16.547  10.114
70078W        W41607   6.251   8.833  14.468
70079W        W41608   5.153  43.183   0.040
70080W        W41609  32.614  12.922   1.498
70081W        W41610  15.726  28.419   1.443
70082W        W41611  23.084  25.032  13.087
70083W        W41612  35.988  15.837  11.104
70084W        W41613  15.652  10.808  10.011
70085W        W41614   4.277  30.285  12.937
70086W        W41615  41.249   6.804  14.218
70087W        W41616  37.108  22.037   2.758
70088W        W41617  41.470   3.038   2.013
70089W        W41618   1.206  24.244  12.403
70090W        W41619  26.037  26.186   2.787
70091W        W41620  12.729   0.490  12.472
70092W        W41621  26.506  41.571   3.492
70093W        W41622  36.104  12.645   2.360
70094W        W41623  37.977  12.431  12.027
70095W        W41624  21.439  14.431  13.913
70096W        W41625   3.789  31.147  12.666
70097W        W41626  20.459  23.246   2.942
70098W        W41627  20.712   4.280  10.850
70099W        W41628  25.449  19.294  13.332
70100W        W41629   5.993  30.928  11.108
70101W        W41630  13.452  19.954  12.507
70102W        W41631  21.126  30.891   2.847
70103W        W41632  41.054  40.921  10.980
70104W        W41633  24.723  43.031   2.259
70105W        W41634   9.350  24.511   3.878
70106W        W41635  41.286  43.399   2.182
70107W        W41636   8.775  11.338   0.367
70108W        W41637  14.912  24.624  12.399
70109W        W41638  26.754  11.761   0.378
70110W        W41639  14.486  34.953  13.750
70111W        W41640   7.845   3.755  12.551
70112W        W41641   7.108  28.393  14.981
70113W        W41642  17.964  44.428   3.147
70114W        W41643  43.437  22.793   0.331
70115W        W41644  22.093  38.565   4.026
70116W        W41645  18.116  22.679  12.544
70117W        W41646   1.825  26.928  11.447
70118W        W41647  28.502   7.819   1.755
70119W        W41648  44.264   7.996  11.119
70120W        W41649  33.589   9.376  10.804
70121W        W41650   3.629  27.936   0.390
70122W        W41651  27.129  36.606  12.968
70123W        W41652  15.783  15.271   4.650
70124W        W41653  24.100  41.746   4.821
70125W        W41654  18.558  41.271  13.275
70126W        W41655  10.220  29.177  10.797
70127W        W41656  31.045  14.674   1.453
70128W        W41657  31.355  24.458   4.956
70129W        W41658  12.785  28.972  10.817
70130W        W41659   1.299  10.784  13.607
70131W        W41660  10.362  32.818   0.885
70132W        W41661   0.702  25.942  14.095
70133W        W41662   5.004  30.106  12.414
70134W        W41663  15.501  13.114   2.306
70135W        W41664  39.982  39.083  11.711
70136W        W41665  21.477  24.917   5.356
70137W        W41666  44.308   5.822   2.728
70138W        W41667  34.722  38.107  13.113
70139W        W41668  30.241  20.124  12.069
70140W        W41669  26.155  25.502  11.056
70141W        W41670   4.404   0.233  12.144
70142W        W41671  32.876  40.736  13.065
70143W        W41672   9.222  32.207  13.866
70144W        W41673  42.874  30.564   0.203
70145W        W41674  22.009  17.771  14.261
70146W        W41675   5.285  27.539  10.445
70147W        W41676   2.013  24.655  13.429
70148W        W41677   7.612  22.512   1.768
70149W        W41678  42.482  16.559  14.980
70150W        W41679  10.425  34.987   2.868
70151W        W41680   4.263  41.785   2.306
70152W        W41681  23.203   3.527  12.079
70153W        W41682   7.705  14.030   1.334
70154W        W41683  34.501   9.818   3.719
70155W        W41684  17.010  29.400   3.717
70156W        W41685  25.148   5.362   3.123
70157W        W41686  15.272  13.687   1.083
70158W        W41687  30.501   3.400  10.741
70159W        W41688  14.715  25.306  11.699
70160W        W41689  27.225  10.981  11.173
70161W        W41690  36.069  18.324  14.470
70162W        W41691  43.296  14.001  11.134
70163W        W41692   3.414  15.086   3.153
70164W        W41693  21.519  17.633  13.150
70165W        W41694   8.948  41.798  10.777
70166W        W41695  28.988   6.004   3.183
70167W        W41696   6.157  41.625  11.701
70168W        W41697  29.174  10.688  13.369
70169W        W41698  39.770  24.713   2.806
70170W        W41699  26.670  42.360   3.185
70171W        W41700  40.785  36.546  11.989
70172W        W41701  29.293  18.149  11.522
70173W        W41702  19.510  22.205   4.772
70174W        W41703   5.001  40.819  11.505
70175W        W41704  19.434  19.223   2.867
70176W        W41705  33.934  11.666  12.624
70177W        W41706  39.450  12.059   3.055
70178W        W41707  26.565  26.437  14.391
70179W        W41708  11.778  18.644   0.726
70180W        W41709  30.386   3.636   3.283
70181W        W41710  44.220  40.053   4.109
70182W        W41711  22.712  17.248   4.045
70183W        W41712  38.652  43.660   4.519
70184W        W41713  39.563  22.105  12.487
70185W        W41714   6.673   7.935   3.168
70186W        W41715  32.407  44.388   4.525
70187W        W41716  27.589  18.491  10.775
70188W        W41717  21.982  23.219   2.650
70189W        W41718   3.865  39.752  12.640
70190W        W41719  32.422  32.696  14.757
70191W        W41720  31.051   4.015  11.750
70192W        W41721   4.456  16.062   1.737
70193W        W41722  11.599  44.515   4.037
70194W        W41723  21.396  18.918   0.434
70195W        W41724  36.384  18.665  13.602
70196W        W41725   4.381   9.140  14.480
70197W        W41726  21.791  35.299  12.401
70198W        W41727  14.723   4.587  13.319
70199W        W41728   1.862   7.115   4.008
70200W        W41729  39.577   5.871   2.808
70201W        W41730  27.203  41.948   2.710
70202W        W41731  29.606  36.541   0.677
70203W        W41732   6.853  18.474  10.799
70204W        W41733  28.346  13.586  11.950
70205W        W41734  35.292  22.501  12.027
70206W        W41735  41.542  26.090  13.327
70207W        W41736  33.512  44.514   4.616
70208W        W41737  24.083  40.307  14.426
70209W        W41738  25.313  23.324  11.105
70210W        W41739   4.312  38.572   0.921
70211W        W41740  30.873  23.129   2.894
70212W        W41741  29.924  32.702  13.963
70213W        W41742  17.366  35.496  10.728
70214W        W41743  39.636  16.132  11.117
70215W        W41744  36.591   2.682   3.217
70216W        W41745  23.760   9.132   2.182
70217W        W41746  28.896   5.524  11.616
70218W        W41747   5.133  37.086   3.558
70219W        W41748  21.854  26.547  12.828
70220W        W41749  33.935  25.630  12.150
70221W        W41750  38.146  18.650   4.182
70222W        W41751  21.442  16.542   2.350
70223W        W41752   2.240  20.537  12.500
70224W        W41753  13.715  15.727   4.558
70225W        W41754  42.394   3.946  11.700
70226W        W41755  43.078   4.262   2.280
70227W        W41756  40.522  35.875   5.082
70228W        W41757  16.665  38.628  14.331
70229W        W41758   9.918  39.329  14.901
70230W        W41759  14.062   9.251   0.916
70231W        W41760  38.096  32.028   0.332
70232W        W41761   4.419  34.080  10.935
70233W        W41762  32.423   2.763  14.486
70234W        W41763  23.151  40.031   3.250
70235W        W41764  14.885  25.630   4.560
70236W        W41765  31.571   1.149  12.784
70237W        W41766   2.620  36.003   2.660
70238W        W41767   8.777  13.223  13.562
70239W        W41768   3.849  35.261  13.052
70240W        W41769  24.288  12.124  13.075
70241W        W41770  26.655  44.745   2.020
70242W        W41771  44.489   3.042   1.250
70243W        W41772   2.224  18.323   3.331
70244W        W41773  33.048  21.056   3.196
70245W        W41774  10.120  10.885   0.000
70246W        W41775  39.843  32.602  13.993
70247W        W41776  27.557   7.859   3.677
70248W        W41777  10.549  29.485   3.293
70249W        W41778  19.679  34.799  13.430
70250W        W41779   5.925  24.508   2.390
70251W        W41780   2.710   2.764  11.687
70252W        W41781  12.728  11.205   3.183
70253W        W41782  18.684   5.391  11.072
70254W        W41783  24.521  34.285   4.096
70255W        W41784  17.544   5.236  14.321
70256W        W41785  34.226  13.926   0.387
70257W        W41786  41.045   8.886   4.676
70258W        W41787  31.373  11.874  14.709
70259W        W41788  39.046  20.700   3.104
70260W        W41789   0.293  41.729   1.929
70261W        W41790  12.764   1.840   4.870
70262W        W41791   7.464   6.654  11.953
70263W        W41792  12.766  27.684  11.537
70264W        W41793  35.021  34.157  12.473
70265W        W41794  36.105  11.117   0.420
70266W        W41795  36.973  14.730   3.298
70267W        W41796  10.441   4.298   0.116
70268W        W41797   5.143   0.576   1.738
70269W        W41798  18.130  19.680   1.771
70270W        W41799  33.816  30.629   4.605
70271W        W41800  27.709   8.723   2.254
70272W        W41801   1.462  24.217   1.511
70273W        W41802  24.676  24.715   1.829
70274W        W41803   7.381  39.406  10.634
70275W        W41804   6.421  17.412   1.414
70276W        W41805  21.513  32.707  12.536
70277W        W41806   3.734  40.883   0.464
70278W        W41807  15.849  14.286   4.121
70279W        W41808  17.366   7.769   4.990
70280W        W41809   3.482  41.567  10.428
70281W        W41810  11.729  31.085  12.075
70282W        W41811  30.097  20.659   1.899
70283W        W41812  40.620  17.240   2.182
70284W        W41813  38.328  22.114  14.275
70285W        W41814   5.515  32.430   2.140
70286W        W41815  38.791  43.147   4.596
70287W        W41816  21.393  40.696   1.144
70288W        W41817  20.510  14.892   1.221
70289W        W41818  32.683  20.754  13.535
70290W        W41819  44.033  19.491   3.511
70291W        W41820  22.114  12.060  12.991
70292W        W41821  10.176  14.222  12.905
70293W        W41822   9.642  19.115  14.340
70294W        W41823  36.097   7.174   2.225
70295W        W41824  15.499  43.850   0.309
70296W        W41825   1.339  15.472   3.677
70297W        W41826  19.399  38.651  13.920
70298W        W41827  26.931  26.069  14.304
70299W        W41828   9.842  19.035  13.863
70300W        W41829  38.079  43.140  14.967
70301W        W41830  16.255  15.394   1.741
70302W        W41831   2.028  34.251  12.202
70303W        W41832  29.522  15.480  11.008
70304W        W41833  19.556  41.047  14.818
70305W        W41834  26.221  26.065   1.627
70306W        W41835  17.621   3.433   4.312
70307W        W41836  10.299  35.918   3.365
70308W        W41837   7.630   3.188  12.475
70309W        W41838   2.908  43.762  13.399
70310W        W41839  26.577  18.615  11.667
70311W        W41840  22.867  26.500   5.316
70312W        W41841  11.817   2.488  14.079
70313W        W41842  11.619  37.552   3.197
70314W        W41843  13.891   3.905  12.627
70315W        W41844   8.259  23.341  12.313
70316W        W41845  26.142  13.970   2.235
70317W        W41846   4.549   3.028   1.385
70318W        W41847  20.974  34.882  12.898
70319W        W41848   7.247  17.286  13.599
70320W        W41849  27.039  26.915  10.528
70321W        W41850  36.071   4.423   4.518
70322W        W41851  22.868  35.998  10.564
70323W        W41852   2.795  21.926   1.377
70324W        W41853  42.554   2.461   2.740
70325W        W41854  32.948  32.734  14.864
70326W        W41855  21.988  37.976   4.586
70327W        W41856  30.139  19.337  13.439
70328W        W41857  40.834   0.518   1.360
70329W        W41858  14.158   4.366   0.373
70330W        W41859   7.789  11.920   3.311
70331W        W41860  14.593  35.562   4.249
70332W        W41861  14.528  36.453  11.167
70333W        W41862  25.207  38.099  13.332
70334W        W41863  44.287  21.984  11.862
70335W        W41864  18.613   3.293  12.518
70336W        W41865  13.881  19.653   5.042
70337W        W41866   8.750  17.535   0.240
70338W        W41867  26.337  15.439  11.446
70339W        W41868   5.654  40.851   4.751
70340W        W41869  44.043  40.561  14.948
70341W        W41870  15.828  13.017   4.762
70342W        W41871   4.247   7.756   4.090
70343W        W41872   8.928  36.058  14.904
70344W        W41873  40.332  31.430   2.331
70345W        W41874  36.088  44.714  13.405
70346W        W41875  12.140   4.637  14.529
70347W        W41876  18.612  42.430  14.369
70348W        W41877  31.814  29.084   3.274
70349W        W41878  21.687   2.737   3.270
70350W        W41879   0.755   6.746   2.126
70351W        W41880  24.258  21.200  11.584
70352W        W41881  19.695  17.351   1.820
70353W        W41882  21.182  30.724  12.577
70354W        W41883   9.640  28.708  11.951
70355W        W41884   1.836  20.011   3.629
70356W        W41885  36.636  18.900  14.823
70357W        W41886   4.247  19.544  12.943
70358W        W41887   2.462   7.311  13.020
70359W        W41888  44.760  30.746  12.869
70360W        W41889  37.957  17.518  10.906
70361W        W41890  26.233  44.181  13.943
70362W        W41891  14.328   5.673  12.441
70363W        W41892   3.847  42.607   2.695
70364W        W41893  26.935  43.819  10.451
70365W        W41894  13.525  25.009   2.321
70366W        W41895  16.571  12.704  12.869
70367W        W41896  40.402   6.241   4.934
70368W        W41897  28.279  36.414  13.714
70369W        W41898   3.945  26.317   1.223
70370W        W41899  43.926  13.392  11.642
70371W        W41900  42.663  38.681   3.273
70372W        W41901   3.952  35.473   2.836
70373W        W41902  35.442  10.244  13.864
70374W        W41903  28.879  16.592   4.623
70375W        W41904  32.599  37.037   2.859
70376W        W41905  44.783  27.092  14.000
70377W        W41906  39.161  13.542  11.732
70378W        W41907  37.384  10.747  14.540
70379W        W41908  25.701  38.527  14.244
70380W        W41909  44.768  19.246  11.138
70381W        W41910   2.372   4.868   3.365
70382W        W41911   9.281  30.091  13.618
70383W        W41912  31.831  39.439   0.027
70384W        W41913  22.009   7.156   1.818
70385W        W41914   8.816  32.873  14.290
70386W        W41915   4.957  41.064  12.993
70387W        W41916  10.437  36.123  12.447
70388W        W41917  12.863  44.907  14.824
70389W        W41918  14.194  35.325   1.304
70390W        W41919  43.175  15.346   1.184
70391W        W41920   2.800  17.227   3.629
70392W        W41921  27.930   1.925  10.966
70393W        W41922  41.019  19.518  13.535
70394W        W41923  10.922  31.605  11.058
70395W        W41924  25.200  19.147  10.640
70396W        W41925  10.192   6.789  10.716
70397W        W41926   6.620  18.541   0.894
70398W        W41927  21.090   7.984   0.853
70399W        W41928   9.635  15.258   2.667
70400W        W41929  34.163   4.821   0.926
70401W        W41930   4.332  39.775   3.009
70402W        W41931  41.885  14.772  12.654
70403W        W41932  37.446   6.615   4.036
70404W        W41933  31.513  38.869   1.176
70405W        W41934   4.400  29.537   0.832
70406W        W41935  44.743  28.061   1.278
70407W        W41936  32.679  40.291  11.865
70408W        W41937  35.246  30.050  13.296
70409W        W41938   9.109  24.737  14.542
70410W        W41939   5.899  34.449  12.053
70411W        W41940  41.272  17.836  11.989
70412W        W41941  41.775  19.180   1.893
70413W        W41942  26.136  39.466   1.416
70414W        W41943  25.966  10.788   0.680
70415W        W41944   5.451   2.930   4.725
70416W        W41945  24.089   1.488  13.388
70417W        W41946  35.533   3.717   4.928
70418W        W41947  44.110   0.176  13.999
70419W        W41948   2.680  12.987   3.368
70420W        W41949  32.096  24.607   4.296
70421W        W41950  29.367  14.652   3.730
70422W        W41951   3.849  40.480  11.980
70423W        W41952   4.455   0.162   4.008
70424W        W41953  12.589  14.778  12.898
70425W        W41954  16.464   3.925   4.200
70426W        W41955   1.463  11.735  13.106
70427W        W41956  22.266  28.436   0.419
70428W        W41957  14.093  13.542  12.029
70429W        W41958  16.233  27.501  11.213
70430W        W41959  16.157  32.212  11.290
70431W        W41960  39.598  17.203  11.060
70432W        W41961  18.280  19.145   0.272
70433W        W41962  40.602   7.414  14.171
70434W        W41963   8.727   2.453  13.561
70435W        W41964  15.606  39.438   4.844
70436W        W41965  15.311  11.196   3.700
70437W        W41966   0.332   3.756  14.284
70438W        W41967  38.023  25.543   1.695
70439W        W41968  18.133   8.363   1.337
70440W        W41969   3.370  39.890   2.467
70441W        W41970   6.338   0.739  14.891
70442W        W41971   4.490  12.698  14.048
70443W        W41972  32.462  38.247  10.389
70444W        W41973   4.397  18.707   1.952
70445W        W41974  28.860  44.344  14.023
70446W        W41975  24.254  31.430  12.896
70447W        W41976  31.054  19.801   0.915
70448W        W41977  20.688   6.470  13.120
70449W        W41978  34.739  20.571   0.373
70450W        W41979   3.766  21.665   0.185
70451W        W41980  11.221   8.830   0.944
70452W        W41981  38.926  12.399   3.913
70453W        W41982  39.789  11.279  11.078
70454W        W41983  25.928   1.635  12.983
70455W        W41984  41.276  12.134   1.632
70456W        W41985   9.598  22.667   4.548
70457W        W41986  24.532   8.649   0.293
70458W        W41987  26.778  38.353   2.880
70459W        W41988  29.958  21.620  12.129
70460W        W41989  40.766  31.143   2.348
70461W        W41990  31.591  44.605   0.410
70462W        W41991  28.934  10.391  11.543
70463W        W41992  11.638  42.493  12.545
70464W        W41993  16.810  14.740  12.968
70465W        W41994  22.554   3.766   2.327
70466W        W41995  21.626   3.678   1.907
70467W        W41996  33.960  18.321  10.410
70468W        W41997   6.893   3.503  13.389
70469W        W41998  13.279   2.473   2.077
70470W        W41999   1.739   0.153   1.843
70471W        W42000  16.169   0.772  12.740
70472W        W42001  33.883  22.185   2.900
70473W        W42002  29.450  32.303  13.963
70474W        W42003  12.550  28.958  13.128
70475W        W42004  12.215   7.553   2.855
70476W        W42005  33.815   5.400  14.801
70477W        W42006   4.702  26.765  14.880
70478W        W42007   3.791   5.123  12.448
70479W        W42008  17.054  13.266   1.850
70480W        W42009  31.165  10.362   4.046
70481W        W42010  37.077  12.822   2.733
70482W        W42011  40.361   2.918  12.448
70483W        W42012  17.095  37.771   4.173
70484W        W42013   3.497  37.918  11.077
70485W        W42014  19.723  10.678   3.116
70486W        W42015  34.193  10.244   0.009
70487W        W42016  26.468   4.265   3.326
70488W        W42017  44.327  32.477   2.320
70489W        W42018   1.475  16.256   0.780
70490W        W42019  28.143  10.652   4.947
70491W        W42020  39.351  18.358  12.592
70492W        W42021  20.706  44.015   2.971
70493W        W42022  11.477  17.756  12.442
70494W        W42023  32.085  12.621   3.812
70495W        W42024   0.098  24.763  14.090
70496W        W42025  44.489  26.097  12.035
70497W        W42026  23.461  39.053  11.539
70498W        W42027   6.664   9.963   1.444
70499W        W42028  25.765  39.889  13.465
70500W        W42029   8.640  25.518  12.499
70501W        W42030  24.631   9.176  12.907
70502W        W42031  23.181  33.460  13.423
70503W        W42032   9.794  24.197  11.390
70504W        W42033   5.852  19.073  13.564
70505W        W42034  13.842   1.840  14.943
70506W        W42035  21.219  41.521  11.584
70507W        W42036  23.159  35.296   0.650
70508W        W42037  27.702  23.101  11.463
70509W        W42038  10.187  31.169  13.898
70510W        W42039  16.101   1.122  13.091
70511W        W42040   0.402  22.260  11.119
70512W        W42041  43.746  15.888   4.252
70513W        W42042  13.017  23.113  11.575
70514W        W42043  42.914  18.778   2.298
70515W        W42044  36.936  35.368   2.267
70516W        W42045   6.996  26.542  13.377
70517W        W42046  24.235   5.688  12.174
70518W        W42047  10.544  38.479   2.175
70519W        W42048  15.735   4.443   2.717
70520W        W42049  35.825  28.797   4.174
70521W        W42050  17.011   1.493  12.638
70522W        W42051  25.046   0.562   3.712
70523W        W42052   8.634  32.610  11.727
70524W        W42053   7.673   1.888   4.217
70525W        W42054  11.840  44.534  12.387
70526W        W42055  16.740  11.623  13.031
70527W        W42056  43.438  22.207  14.554
70528W        W42057  24.153  36.274   1.000
70529W        W42058  35.501  14.380  11.114
70530W        W42059  32.642  19.595  11.055
70531W        W42060  16.237  16.297  10.570
70532W        W42061   0.435   2.198   2.289
70533W        W42062   6.195  15.707  14.252
70534W        W42063  21.420  40.587   3.696
70535W        W42064  17.587  13.491   0.087
70536W        W42065   5.645   1.016   3.316
70537W        W42066  11.605   1.361   2.710
70538W        W42067  32.949  29.016   4.876
70539W        W42068  44.686   1.376   0.402
70540W        W42069   2.513  44.912   0.459
70541W        W42070  23.013  43.742  13.928
70542W        W42071  23.478  20.371  14.866
70543W        W42072  40.595  21.695  14.384
70544W        W42073  24.874  27.000  14.953
70545W        W42074  40.101  35.045   0.794
70546W        W42075  41.328  12.564   2.438
70547W        W42076  37.418  42.001   1.807
70548W        W42077  14.870  42.426  12.557
70549W        W42078  44.980  36.705   2.371
70550W        W42079  43.920  25.814  10.606
70551W        W42080  13.769  12.687   3.091
70552W        W42081  36.979  19.330  14.341
70553W        W42082   6.102  23.582   4.590
70554W        W42083   3.852   0.233  13.972
70555W        W42084   8.937  31.360   3.670
70556W        W42085  28.891  12.750   0.937
70557W        W42086  13.572  10.263   4.938
70558W        W42087  34.028  20.504  12.961
70559W        W42088  20.763  19.556   4.097
70560W        W42089  15.378  31.598  11.051
70561W        W42090   7.269  14.826   1.313
70562W        W42091  11.590  15.929  13.462
70563W        W42092  43.602  23.267   1.272
70564W        W42093  21.769   8.380   4.750
70565W        W42094   6.130  33.819  10.879
70566W        W42095  35.570  38.741   3.335
70567W        W42096  40.112  34.290  12.519
70568W        W42097  21.066  21.499  14.741
70569W        W42098   6.947  31.757  11.537
70570W        W42099  14.124  36.581   4.457
70571W        W42100  22.803  29.506  13.378
70572W        W42101  25.148  10.970  13.079
70573W        W42102  10.235  26.663   4.498
70574W        W42103   3.745  19.061  13.991
70575W        W42104  26.299  11.329   3.242
70576W        W42105  28.372   6.721  13.059
70577W        W42106  40.421   7.565  11.551
70578W        W42107  39.606   3.872  11.939
70579W        W42108  43.237  11.794   3.565
70580W        W42109  29.548  11.883  13.567
70581W        W42110  38.758   0.589  11.694
70582W        W42111  15.723   6.065  13.423
70583W        W42112  32.102  38.253   1.538
70584W        W42113  22.757   4.737   3.830
70585W        W42114  40.948  37.887  12.865
70586W        W42115  17.098   3.350   0.988
70587W        W42116   3.851  10.812  12.132
70588W        W42117  35.829  18.347   2.262
70589W        W42118  15.428  43.297   1.902
70590W        W42119  16.818  17.115  14.340
70591W        W42120  11.241  40.905   0.442
70592W        W42121  43.846  36.105   1.898
70593W        W42122  32.496   5.220  14.457
70594W        W42123  24.465   7.578   3.254
70595W        W42124  22.220  43.856  12.030
70596W        W42125   7.446  34.388  12.061
70597W        W42126   1.477  14.143  10.653
70598W        W42127   4.165  24.642   4.342
70599W        W42128  15.377  36.590   0.354
70600W        W42129  34.480   0.814   1.016
70601W        W42130  12.863  20.495  13.702
70602W        W42131  26.957  41.518   0.742
70603W        W42132  21.701  36.471  13.803
70604W        W42133  14.083  10.750   1.437
70605W        W42134   1.079  27.198  12.982
70606W        W42135  40.297   9.838  10.742
70607W        W42136  36.683  37.661   1.858
70608W        W42137  42.431  21.994  13.832
70609W        W42138   4.555  38.110   0.802
70610W        W42139  43.026  38.799  12.515
70611W        W42140  15.531  12.150  14.065
70612W        W42141   7.039   0.093  13.021
70613W        W42142  11.140  15.110   1.895
70614W        W42143   9.167   0.273   0.066
70615W        W42144  18.145  36.842   4.130
70616W        W42145   8.631  23.451   4.045
70617W        W42146  43.874  44.300   3.771
70618W        W42147  39.337   5.113   1.805
70619W        W42148  26.191  18.702   4.814
70620W        W42149  21.517   0.371   4.705
70621W        W42150  35.003  30.106  10.712
70622W        W42151  30.516  36.240   0.284
70623W        W42152  31.367   1.459   3.246
70624W        W42153   7.557  10.217   4.691
70625W        W42154  14.469  33.996  14.016
70626W        W42155  24.556   4.800   1.806
70627W        W42156   2.262   1.995   4.609
70628W        W42157  16.631  43.447  10.629
70629W        W42158   5.966  12.761  13.741
70630W        W42159  21.464  37.410  10.232
70631W        W42160  20.731   7.655  14.321
70632W        W42161  23.705  26.647   1.446
70633W        W42162  42.785  44.489   0.313
70634W        W42163   3.248  23.153  11.053
70635W        W42164   2.787  35.447   4.886
70636W        W42165  11.926   1.804  14.828
70637W        W42166  18.388  21.157  11.575
70638W        W42167  23.632  43.845   1.593
70639W        W42168  14.294  19.630   3.195
70640W        W42169   1.395  39.463  14.401
70641W        W42170  19.514  10.622  14.397
70642W        W42171  25.023  17.117  11.959
70643W        W42172  22.477  17.047   0.704
70644W        W42173  11.393  33.481   1.174
70645W        W42174  28.560  19.007   2.200
70646W        W42175   6.342  41.144  13.868
70647W        W42176  24.276  19.761   3.246
70648W        W42177  21.233  21.472  12.813
70649W        W42178  17.319  28.974   3.743
70650W        W42179  23.608  22.579  12.049
70651W        W42180  14.566   5.125  12.036
70652W        W42181  27.354   0.982  11.313
70653W        W42182  28.125  35.021  14.115
70654W        W42183  34.192  41.971  12.434
70655W        W42184  15.358  13.204  12.483
70656W        W42185  30.165  14.251   3.513
70657W        W42186  32.808  28.226   5.085
70658W        W42187  38.775  31.842  10.385
70659W        W42188  33.669  28.038   4.510
70660W        W42189  37.500  26.069  14.359
70661W        W42190   3.896  14.274   3.119
70662W        W42191  32.079   5.086   2.684
70663W        W42192  37.038  25.942   5.098
70664W        W42193  15.373   4.218   2.366
70665W        W42194   8.387  10.189   2.521
70666W        W42195  14.143  32.044  11.526
70667W        W42196   2.247  42.458  14.192
70668W        W42197  28.885  41.827   1.251
70669W        W42198   7.302   7.336  13.909
70670W        W42199  20.565   0.467   4.219
70671W        W42200  20.087  31.040  14.474
70672W        W42201   7.931  31.518   2.213
70673W        W42202  40.536   9.414   4.245
70674W        W42203  24.004  10.904  10.668
70675W        W42204   7.691  28.523  14.094
70676W        W42205  26.170  39.840   0.689
70677W        W42206  14.575   3.074   2.123
70678W        W42207  22.635  10.586  14.418
70679W        W42208  36.516  41.593  12.285
70680W        W42209  26.581  11.278   4.652
70681W        W42210  37.440   9.076   2.371
70682W        W42211  34.741  10.073   5.111
70683W        W42212   8.928  38.211   0.917
70684W        W42213   4.235   5.660   4.246
70685W        W42214  11.172  40.387  12.445
70686W        W42215  24.865  25.321  11.100
70687W        W42216  25.443  18.338  12.965
70688W        W42217   3.783  25.071   1.963
70689W        W42218  30.512  27.335  12.748
70690W        W42219   0.697  37.572  12.166
70691W        W42220   5.342  42.438  12.130
70692W        W42221  12.352  16.010  13.553
70693W        W42222  38.801  28.355   2.803
70694W        W42223  29.202  42.403  14.424
70695W        W42224  40.331  15.071  14.694
70696W        W42225  25.067  18.555   4.220
70697W        W42226  39.361  28.939  12.120
70698W        W42227  33.625   4.253  14.241
70699W        W42228  29.416   6.789  14.055
70700W        W42229  19.630  12.933   4.647
70701W        W42230  31.617  26.284   3.107
70702W        W42231  19.602   4.881   0.519
70703W        W42232  25.544   1.712   2.757
70704W        W42233  19.150  39.692  12.465
70705W        W42234  14.066   0.086   2.238
70706W        W42235  28.156  29.317   4.652
70707W        W42236  38.208  10.529  11.741
70708W        W42237   1.173   7.135   2.777
70709W        W42238  14.301  44.029  12.392
70710W        W42239   3.341  31.201   1.367
70711W        W42240   6.592   7.844  13.020
70712W        W42241  27.368  23.006  11.843
70713W        W42242  40.953  13.201  12.674
70714W        W42243  22.286  41.510   0.491
70715W        W42244  21.680  16.213   4.205
70716W        W42245  26.488  27.945  14.331
70717W        W42246  39.024  21.539  13.122
70718W        W42247  11.647  23.472   3.558
70719W        W42248  17.758  21.088   1.502
70720W        W42249   0.838  32.258   4.523
70721W        W42250   9.604  35.876  10.470
70722W        W42251  37.804  30.851  13.064
70723W        W42252   3.556  44.456  11.914
70724W        W42253  11.328  34.336  14.373
70725W        W42254   3.099  27.571  12.970
70726W        W42255  22.641  44.942   3.180
70727W        W42256  32.553  29.731  10.501
70728W        W42257  37.925  26.047   3.929
70729W        W42258  42.509   6.143   4.247
70730W        W42259  28.429  39.788   2.415
70731W        W42260   7.256  15.269   3.069
70732W        W42261   1.530   0.733   3.040
70733W        W42262   9.744  32.837  14.122
70734W        W42263   3.670  16.117  13.035
70735W        W42264  32.111  19.065   0.486
70736W        W42265  22.175   2.645  13.322
70737W        W42266   6.709  31.480   1.339
70738W        W42267   9.327  31.667  11.117
70739W        W42268  39.391  17.318   2.615
70740W        W42269  10.471  37.439  12.661
70741W        W42270  33.533   6.442   4.444
70742W        W42271  40.500   7.748   1.874
70743W        W42272  16.668  24.886   4.552
70744W        W42273  25.529  20.055  14.292
70745W        W42274  25.337   5.764  11.098
70746W        W42275   5.405  21.733  12.956
70747W        W42276  25.522  33.858   3.578
70748W        W42277   9.948   2.976   3.197
70749W        W42278   3.325   0.234   3.221
70750W        W42279  28.369  12.275   4.224
70751W        W42280  15.654  10.313  12.970
70752W        W42281  33.058  37.072  12.393
70753W        W42282  42.025  28.534   1.024
70754W        W42283   5.355   2.618   4.090
70755W        W42284   5.143  40.014   1.779
70756W        W42285  14.175   9.926   2.697
70757W        W42286  19.199  44.468  14.805
70758W        W42287  33.404  39.939   1.433
70759W        W42288  36.625  33.590  14.107
70760W        W42289   1.186  10.627   4.146
70761W        W42290   1.030  21.170   1.319
70762W        W42291   2.011  43.474   3.147
70763W        W42292  31.019  36.901  10.614
70764W        W42293  16.600  17.050   1.838
70765W        W42294  15.604  20.214  12.021
70766W        W42295  19.211  10.724  13.972
70767W        W42296  38.498  43.486  14.022
70768W        W42297  17.796  34.246  11.887
70769W        W42298  14.082   1.812   0.919
70770W        W42299  38.024   9.677   1.311
70771W        W42300  40.825   6.031   1.376
70772W        W42301  33.406  28.441   3.234
70773W        W42302   1.945  26.099  11.708
70774W        W42303  26.132  16.543  11.109
70775W        W42304   6.387  10.469  12.443
70776W        W42305   8.304  37.811  13.859
70777W        W42306  17.764  19.863   2.260
70778W        W42307  19.025  43.340   1.277
70779W        W42308  38.305  33.913  14.291
70780W        W42309  23.380  34.492   1.224
70781W        W42310  35.305  43.017   1.795
70782W        W42311   5.793   5.840  10.641
70783W        W42312   6.237  31.874   2.727
70784W        W42313   6.975  31.492   0.725
70785W        W42314  22.062  44.798   2.560
70786W        W42315   2.819   4.781  13.960
70787W        W42316  24.051  19.547  13.906
70788W        W42317  24.767  10.295   1.979
70789W        W42318  23.666  42.284  11.610
70790W        W42319  18.329  20.035   4.993
70791W        W42320  30.180  26.723   0.175
70792W        W42321   1.437  41.610   0.502
70793W        W42322  32.872   5.601  10.786
70794W        W42323  32.304   5.453   3.142
70795W        W42324  37.002  17.764   2.777
70796W        W42325   3.976  34.023  11.863
70797W        W42326  12.621   1.709  11.067
70798W        W42327   8.320  28.984   3.651
70799W        W42328  15.167  21.260  13.882
70800W        W42329  18.833   3.413  12.973
70801W        W42330  28.730  41.013  10.765
70802W        W42331  38.028  33.508  12.188
70803W        W42332  30.027   2.288   0.662
70804W        W42333  16.792  33.865   4.294
70805W        W42334  14.229  29.571  14.769
70806W        W42335  33.488  41.754   2.408
70807W        W42336  43.974  16.868   0.931
70808W        W42337  24.239  33.503   3.221
70809W        W42338  27.179  19.132   0.632
70810W        W42339  32.457   2.675  13.967
70811W        W42340   1.604  20.070   2.188
70812W        W42341  14.852  10.358   0.621
70813W        W42342  42.790  18.184   0.910
70814W        W42343  13.785  13.658   1.858
70815W        W42344  27.877   2.823   4.336
70816W        W42345   5.806  40.391   1.449
70817W        W42346  12.225  18.831  12.166
70818W        W42347  36.537   5.444   4.189
70819W        W42348  31.069   5.990   0.753
70820W        W42349  22.133  14.465  11.635
70821W        W42350  32.026  11.104  14.936
70822W        W42351  34.907  24.708  13.347
70823W        W42352  44.298  22.691   4.044
70824W        W42353  19.048  23.216   1.147
70825W        W42354  33.594  26.413  11.362
70826W        W42355  14.563  38.926  12.098
70827W        W42356  26.474  20.622  11.206
70828W        W42357   9.560  34.579  14.844
70829W        W42358   0.888  20.993  12.783
70830W        W42359   5.660  33.626  10.705
70831W        W42360  10.372  29.588  14.563
70832W        W42361  17.635  34.729   3.422
70833W        W42362  30.819   5.744  13.873
70834W        W42363   5.228  19.581   3.576
70835W        W42364  38.468   7.819  12.501
70836W        W42365  25.672   8.701  10.302
70837W        W42366  34.784  32.667  11.925
70838W        W42367  34.494  16.186   4.451
70839W        W42368  37.527   7.385  13.821
70840W        W42369   5.293   1.956   1.987
70841W        W42370  26.231  17.066   1.185
70842W        W42371  25.675  25.194  11.521
70843W        W42372  19.272  21.202   1.259
70844W        W42373  35.130   9.800  12.930
70845W        W42374  11.264  25.729   4.393
70846W        W42375  10.100  21.436  12.961
70847W        W42376   3.493  43.043   1.803
70848W        W42377  21.317  33.182  10.798
70849W        W42378  20.225   5.898   1.832
70850W        W42379   0.282  32.581  13.470
70851W        W42380   1.628  29.960   0.885
70852W        W42381  14.386  41.093   3.638
70853W        W42382  32.952   4.226   3.151
70854W        W42383  28.607  30.119  14.366
70855W        W42384  43.260   8.429   4.072
70856W        W42385  40.885  21.683  13.284
70857W        W42386  16.235  32.482   3.383
70858W        W42387  19.274   7.443   4.061
70859W        W42388  26.474  15.549   4.636
70860W        W42389  12.886   2.371  10.575
70861W        W42390  20.037  17.740  12.380
70862W        W42391  23.335  38.806   4.414
70863W        W42392  44.780  37.034   3.185
70864W        W42393   1.937  37.859   2.670
70865W        W42394   7.791  26.085   0.096
70866W        W42395   3.291  30.116  14.437
70867W        W42396  22.122  29.738  11.996
70868W        W42397  42.523  10.329   3.188
70869W        W42398   0.008  16.118  13.390
70870W        W42399  30.784   3.425  14.539
70871W        W42400  26.524  27.513  13.413
70872W        W42401  14.237   4.377   3.633
70873W        W42402   5.311  26.986   1.386
70874W        W42403  34.998  26.419  10.701
70875W        W42404  35.596  40.775  14.979
70876W        W42405  17.306  12.687   3.113
70877W        W42406   1.902  12.712  11.742
70878W        W42407  18.983  21.044  13.491
70879W        W42408  34.319  38.444  11.984
70880W        W42409  16.377  27.950  11.426
70881W        W42410  17.897  43.808  13.731
70882W        W42411  39.236   7.044  14.072
70883W        W42412  13.318  12.363  12.686
70884W        W42413  40.262   4.167  13.686
70885W        W42414  38.282  20.155   2.555
70886W        W42415  15.781   1.248  10.744
70887W        W42416  41.334  33.831   4.176
70888W        W42417  43.122  15.045  12.880
70889W        W42418  36.916  44.978   2.777
70890W        W42419   4.482   1.552   1.436
70891W        W42420   7.320  16.013  12.194
70892W        W42421  34.912  22.966  14.735
70893W        W42422  20.721   8.647   2.186
70894W        W42423  14.426  34.945  11.174
70895W        W42424  16.065   6.302  12.012
70896W        W42425   8.316  40.967  13.852
70897W        W42426  34.508  28.530   3.152
70898W        W42427  17.819  36.851  13.424
70899W        W42428  11.696  37.335  10.519
70900W        W42429  34.087  27.468   1.915
70901W        W42430  40.541  23.959   4.152
70902W        W42431  14.234   9.212   3.602
70903W        W42432   2.322  44.928  14.466
70904W        W42433  10.789  31.464  12.752
70905W        W42434  40.220  20.525  13.042
70906W        W42435  40.608  14.695   2.477
70907W        W42436  10.087  10.773   2.297
70908W        W42437  14.251  40.868  10.818
70909W        W42438   5.369  11.544  13.288
70910W        W42439  18.347  11.514  13.669
70911W        W42440  42.907  26.324  12.454
70912W        W42441  36.594  28.530  11.198
70913W        W42442  16.649   5.988   2.299
70914W        W42443  24.780  21.168  11.743
70915W        W42444  38.872   5.425  14.892
70916W        W42445  18.786   5.259  11.551
70917W        W42446  43.452  19.001   4.640
70918W        W42447  32.955  23.216   1.383
70919W        W42448  15.197  43.388   4.788
70920W        W42449   0.233  12.321   2.731
70921W        W42450  23.099  32.933  12.799
70922W        W42451  40.768   9.830   3.695
70923W        W42452  40.323   4.492  10.474
70924W        W42453  39.765  10.770   2.830
70925W        W42454  43.425  27.803   3.212
70926W        W42455  35.572  36.888   0.155
70927W        W42456  20.152  31.111  13.830
70928W        W42457  31.413  42.153   4.474
70929W        W42458  18.178  24.703   2.347
70930W        W42459   6.469  44.309  14.754
70931W        W42460  41.903   8.639   1.395
70932W        W42461   8.154   1.391  11.892
70933W        W42462  11.277  30.026  11.743
70934W        W42463  30.982  23.084  10.660
70935W        W42464  33.077  23.729  13.003
70936W        W42465  44.253  21.883  13.866
70937W        W42466  40.531  12.854   4.523
70938W        W42467   9.552  15.205   1.378
70939W        W42468  18.715  30.865  11.375
70940W        W42469  18.101  30.402  12.951
70941W        W42470  22.021   0.393   1.956
70942W        W42471  38.331  26.661  11.520
70943W        W42472   3.107  35.160   4.542
70944W        W42473  41.564  41.996  11.646
70945W        W42474   5.652  14.801   4.172
70946W        W42475  21.158   0.217  10.711
70947W        W42476   6.333   2.060  13.352
70948W        W42477  39.967  19.956   4.499
70949W        W42478  39.608  14.815  13.354
70950W        W42479   5.284  22.566   3.222
70951W        W42480  44.455  13.417   2.597
70952W        W42481  44.023  43.565  11.008
70953W        W42482  24.461  21.220  14.451
70954W        W42483  37.920  44.327   2.873
70955W        W42484  18.956  10.223  12.121
70956W        W42485  31.461  17.167   3.440
70957W        W42486   4.216   9.120   2.785
70958W        W42487  34.527  34.392   3.316
70959W        W42488  12.076  22.550   0.361
70960W        W42489  27.464  28.557   1.396
70961W        W42490  15.541   7.341   2.684
70962W        W42491  14.169  13.220  12.449
70963W        W42492  16.048  35.136   3.765
70964W        W42493  37.401   1.092  12.906
70965W        W42494  10.185  20.078  13.338
70966W        W42495   0.304  24.603   2.287
70967W        W42496  41.976  33.296   9.965
70968W        W42497  27.959  17.280   5.097
70969W        W42498  30.505   6.453  13.306
70970W        W42499  31.977  30.473  13.136
70971W        W42500   8.605  17.727  13.542
70972W        W42501  30.093  27.654  12.571
70973W        W42502  27.125  29.954  10.655
70974W        W42503  43.741  25.182  13.100
70975W        W42504  44.809  43.346   0.643
70976W        W42505  36.288  13.826   0.712
70977W        W42506  34.926  21.301   0.973
70978W        W42507  29.407  15.259  13.625
70979W        W42508  23.063  38.216  13.822
70980W        W42509  30.666  36.295  12.021
70981W        W42510  41.806  12.411   2.452
70982W        W42511  37.699  29.792   2.342
70983W        W42512   2.386  21.714  14.081
70984W        W42513  32.462  29.365   4.571
70985W        W42514  24.466  30.113   3.647
70986W        W42515  17.758   3.858   4.001
70987W        W42516  26.651  27.496  12.554
70988W        W42517  12.211   2.859  10.390
70989W        W42518   2.374  29.681   0.552
70990W        W42519   2.241   0.362  11.436
70991W        W42520  36.890  38.334   3.154
70992W        W42521   4.861  33.928   4.680
70993W        W42522  29.565  44.821  13.477
70994W        W42523  26.240  34.122   0.431
70995W        W42524  12.782  35.905  11.674
70996W        W42525   1.377  19.822  11.695
70997W        W42526  15.072  32.469   2.679
70998W        W42527  26.671   5.227  11.017
70999W        W42528  13.613  37.281  12.063
71000W        W42529   6.330   5.767  12.484
71001W        W42530  25.002  16.056  10.535
71002W        W42531  36.906   4.790  14.444
71003W        W42532  11.291  21.640   1.416
71004W        W42533  34.843   5.456  11.643
71005W        W42534   3.566   8.386   0.823
71006W        W42535  24.858  22.546  11.245
71007W        W42536  24.977  18.101  12.960
71008W        W42537  21.794  36.865  11.590
71009W        W42538  39.807  17.929  14.473
71010W        W42539  36.049  29.964  12.953
71011W        W42540  33.832  32.701   1.141
71012W        W42541   1.367  41.335   0.066
71013W        W42542  24.707  11.420  14.228
71014W        W42543  19.581  38.364   2.113
71015W        W42544  31.108  35.906   2.369
71016W        W42545  12.370   6.401   0.739
71017W        W42546  31.124  20.544  14.745
71018W        W42547  36.950  41.449   2.826
71019W        W42548  23.308  27.919   4.978
71020W        W42549  21.039  44.371  13.217
71021W        W42550   1.018  28.689  14.057
71022W        W42551   2.144   5.780  11.032
71023W        W42552  43.031  11.692  11.046
71024W        W42553  19.781  41.044   4.992
71025W        W42554  34.919   7.987  12.826
71026W        W42555  32.323  20.328   2.251
71027W        W42556  19.298  21.853  12.234
71028W        W42557  11.343  11.772   1.544
71029W        W42558  28.746  38.891  10.652
71030W        W42559   9.537  41.311   2.018
71031W        W42560   8.317  40.021  10.732
71032W        W42561  37.852  38.274   4.342
71033W        W42562  15.842  22.640   4.069
71034W        W42563  28.482   9.288  13.128
71035W        W42564  32.010  43.767   2.167
71036W        W42565  44.251   2.285   1.884
71037W        W42566  14.124   3.835  11.872
71038W        W42567  32.280  31.359  14.045
71039W        W42568  35.015   0.640  10.423
71040W        W42569  13.792  33.639   1.432
71041W        W42570   4.423  28.759  14.089
71042W        W42571  27.540  25.507   4.488
71043W        W42572  19.716  24.273  10.754
71044W        W42573  39.354  31.060  11.150
71045W        W42574   6.345  19.958  13.371
71046W        W42575  25.572  14.135   3.170
71047W        W42576   8.322  22.759  12.458
71048W        W42577  31.747   0.320   1.457
71049W        W42578  42.771  10.380   0.273
71050W        W42579  31.840  15.413   4.989
71051W        W42580   0.032  18.189  11.920
71052W        W42581  35.961  30.212   4.098
71053W        W42582  35.096  24.993  12.577
71054W        W42583  18.154  10.711   1.966
71055W        W42584  37.984  37.707   1.864
71056W        W42585  34.285  25.616   0.368
71057W        W42586  20.681  29.177   3.285
71058W        W42587  32.524   0.012   1.385
71059W        W42588   4.949  21.223   2.652
71060W        W42589  21.012  44.490   2.434
71061W        W42590  25.011  40.563  11.230
71062W        W42591  29.537  38.860  12.413
71063W        W42592  35.682   6.342   0.791
71064W        W42593  31.537  43.812   4.695
71065W        W42594  42.881  40.486   4.567
71066W        W42595  38.874  31.007  11.581
71067W        W42596  38.746   4.252  13.443
71068W        W42597  22.497  29.951   3.755
71069W        W42598  32.340   7.408   1.221
71070W        W42599  42.813  43.691   1.458
71071W        W42600   2.951  32.667   1.301
71072W        W42601   3.594  16.185   2.229
71073W        W42602  18.697  38.545   4.251
71074W        W42603  40.988   0.936   4.884
71075W        W42604  40.703  26.709  11.954
71076W        W42605  18.253  29.968  14.804
71077W        W42606   0.068  17.968   1.505
71078W        W42607   4.835  12.070   4.375
71079W        W42608   2.244  22.997   3.187
71080W        W42609  41.886  41.148   0.014
71081W        W42610  36.752  13.075   0.527
71082W        W42611   5.941  18.089   1.516
71083W        W42612  25.529  23.831   1.788
71084W        W42613  33.540  13.818  14.983
71085W        W42614  23.211  24.753   1.529
71086W        W42615  14.895  20.756  13.837
71087W        W42616  44.233  35.119   0.512
71088W        W42617  19.254  16.696   2.717
71089W        W42618   1.371  18.891   2.981
71090W        W42619  24.107   6.849   2.148
71091W        W42620   8.235   0.385   5.056
71092W        W42621  17.629   4.109   3.267
71093W        W42622   8.820  30.924  12.091
71094W        W42623  20.558  14.315   2.377
71095W        W42624   6.186   4.684  13.552
71096W        W42625  41.935  35.061   3.160
71097W        W42626   6.385  23.453   1.416
71098W        W42627  25.894  30.482   2.725
71099W        W42628   7.146  33.561  13.228
71100W        W42629  10.775  40.838   3.203
71101W        W42630   8.844   2.952   3.874
71102W        W42631  30.314  14.156  13.470
71103W        W42632  32.127   5.990   3.203
71104W        W42633  35.330  18.795   1.402
71105W        W42634  33.894  16.401  13.431
71106W        W42635   6.542  31.128   0.526
71107W        W42636  18.741  26.041   3.791
71108W        W42637   6.454  22.643   1.488
71109W        W42638  12.598  18.346   2.208
71110W        W42639  16.304   3.703  12.445
71111W        W42640  23.757   0.266  13.563
71112W        W42641  42.181  10.869  13.011
71113W        W42642  12.427  25.955  14.793
71114W        W42643  11.601  44.901   3.208
71115W        W42644  44.354  36.235   4.362
71116W        W42645   9.125  16.135  14.026
71117W        W42646  18.354   0.499   2.765
71118W        W42647  30.649  40.498   3.083
71119W        W42648  15.066  15.830  11.186
71120W        W42649  23.303  14.234   1.056
71121W        W42650  17.706  33.819  11.553
71122W        W42651  26.437  20.067   4.231
71123W        W42652   9.852  25.698  12.618
71124W        W42653  22.610  21.284  10.657
71125W        W42654   1.536  12.738  14.454
71126W        W42655  19.819  15.078  12.027
71127W        W42656  37.386  30.365  12.246
71128W        W42657  20.650  13.887   1.296
71129W        W42658  31.992   1.006  14.951
71130W        W42659  25.016  27.025  12.974
71131W        W42660   9.673  26.644   3.840
71132W        W42661  40.837  33.991   2.405
71133W        W42662   4.967  42.390   0.460
71134W        W42663  17.081   9.275   2.223
71135W        W42664  35.252  20.000  12.297
71136W        W42665   2.257  13.230   2.214
71137W        W42666  35.633  18.687  11.128
71138W        W42667  40.851  13.925   2.804
71139W        W42668  41.267  27.973  13.911
71140W        W42669  11.213   3.036  10.210
71141W        W42670  40.914  31.961  14.593
71142W        W42671  10.974  43.348   9.797
71143W        W42672  12.860  13.396  12.665
71144W        W42673  36.755  28.016   3.173
71145W        W42674  26.181  40.226  13.440
71146W        W42675  34.730  35.696  14.553
71147W        W42676  44.670   1.985   1.913
71148W        W42677  40.308  15.295   0.196
71149W        W42678  11.660   3.859   0.815
71150W        W42679  24.039  33.907  12.434
71151W        W42680  14.645  25.213   3.860
71152W        W42681  29.397  38.369   1.830
71153W        W42682   1.322  30.141  10.766
71154W        W42683  14.858  24.176  13.040
71155W        W42684  32.638  39.287   2.914
71156W        W42685  20.730   9.915   2.785
71157W        W42686  12.692  33.742  10.625
71158W        W42687  18.671  19.713   2.958
71159W        W42688  25.043  32.139   1.146
71160W        W42689  11.714   1.786  12.038
71161W        W42690  17.658  40.407   4.691
71162W        W42691  18.546   8.585  13.601
71163W        W42692  11.238  18.159   0.830
71164W        W42693  13.066  12.948  14.686
71165W        W42694   1.312  18.499   4.708
71166W        W42695  30.618  38.992   4.375
71167W        W42696  13.033  36.178   2.586
71168W        W42697  33.768  22.196   3.782
71169W        W42698   8.245  43.453   2.590
71170W        W42699   4.413   7.263  14.859
71171W        W42700  12.205  44.266  11.879
71172W        W42701  19.258  11.488  12.049
71173W        W42702   1.845  35.412  13.148
71174W        W42703  13.684  30.166   2.257
71175W        W42704  29.049  39.995   4.124
71176W        W42705  17.564  35.988   2.743
71177W        W42706  28.430  42.467   3.536
71178W        W42707  37.666   9.379   4.725
71179W        W42708  11.845  16.262  14.410
71180W        W42709  16.498   6.285   1.337
71181W        W42710  43.076  24.592  14.362
71182W        W42711  16.674  43.787  14.152
71183W        W42712  20.855  28.998  10.598
71184W        W42713  24.751  15.160  11.456
71185W        W42714   3.501   7.848   1.019
71186W        W42715   9.112  40.564  10.484
71187W        W42716  29.446   7.808  11.176
71188W        W42717  20.175  32.450  10.693
71189W        W42718  17.133   4.965  14.160
71190W        W42719  24.182   7.837  12.284
71191W        W42720  30.488   2.231   0.890
71192W        W42721  41.393  43.862  13.879
71193W        W42722  12.158  24.956  12.419
71194W        W42723  18.734  22.681   1.827
71195W        W42724  33.444  12.320  11.930
71196W        W42725  44.364  34.949  13.236
71197W        W42726  12.382  20.451   1.663
71198W        W42727  16.099  26.119  14.441
71199W        W42728   0.707  16.730   3.260
71200W        W42729  37.397  14.517   9.934
71201W        W42730  23.023   5.786  14.257
71202W        W42731  33.409   7.717   4.541
71203W        W42732   1.846  25.973  12.701
71204W        W42733  44.832  20.799  11.627
71205W        W42734   0.327  11.608  10.642
71206W        W42735  41.094  40.793   2.864
71207W        W42736   0.948  31.760   4.476
71208W        W42737  29.940  22.119   2.703
71209W        W42738   3.285  29.378   2.662
71210W        W42739  14.524  10.521   1.336
71211W        W42740   5.666  34.889  14.897
71212W        W42741  15.127  28.465   2.827
71213W        W42742  28.563  31.309  14.100
71214W        W42743  28.046   0.305   1.879
71215W        W42744  42.049  15.089  11.882
71216W        W42745   9.955   3.758  10.594
71217W        W42746   1.093   7.115   0.565
71218W        W42747  14.430  28.480   1.900
71219W        W42748  22.981  42.667  12.506
71220W        W42749  37.036  42.793   1.726
71221W        W42750  44.502  38.534  12.095
71222W        W42751  26.958  13.126  14.822
71223W        W42752  41.246  13.230   3.050
71224W        W42753   8.650  28.831  10.740
71225W        W42754  37.557   0.268  10.806
71226W        W42755  24.203   9.535  12.796
71227W        W42756  41.826  23.484   2.359
71228W        W42757  23.472  43.363   2.383
71229W        W42758  39.369  32.600   1.790
71230W        W42759  33.956  36.696  14.293
71231W        W42760  24.168  24.104   3.537
71232W        W42761  34.404  16.151  14.645
71233W        W42762  33.057  32.137  14.041
71234W        W42763  22.985   5.412  11.705
71235W        W42764  31.395  18.505   2.223
71236W        W42765  16.610  30.156  14.710
71237W        W42766   2.867  33.100   4.033
71238W        W42767  39.509   9.300  14.879
71239W        W42768  25.195  24.467  12.844
71240W        W42769  21.129  23.534  13.418
71241W        W42770  11.377   8.706   1.420
71242W        W42771   6.807   1.883  14.521
71243W        W42772  10.770  31.022   1.932
71244W        W42773  26.208  18.243  13.478
71245W        W42774  30.483   9.873   3.669
71246W        W42775  23.166  26.495  13.133
71247W        W42776  15.568  44.980   3.791
71248W        W42777  16.117   9.049   3.081
71249W        W42778   5.335  42.179  14.818
71250W        W42779  13.598  23.568  13.062
71251W        W42780  18.036  36.142  11.909
71252W        W42781  37.355  38.231   0.772
71253W        W42782  38.363  33.061  12.916
71254W        W42783  44.764   8.141   2.308
71255W        W42784  24.093  24.608  11.233
71256W        W42785   3.802   1.486   4.894
71257W        W42786   7.836  40.764  13.935
71258W        W42787  31.674  12.634  11.208
71259W        W42788   4.019  26.130  14.808
71260W        W42789  27.248  15.892  11.730
71261W        W42790  28.155  38.697   5.011
71262W        W42791   9.237  44.422  14.807
71263W        W42792  22.657  11.534   1.375
71264W        W42793  33.930   7.141  10.472
71265W        W42794  34.675  32.800   0.727
71266W        W42795  39.967  21.145   9.842
71267W        W42796  24.027  10.286  11.961
71268W        W42797  21.565  26.167  11.833
71269W        W42798  19.149  44.333  10.683
71270W        W42799  40.436  35.527   4.156
71271W        W42800  26.500  14.079   3.634
71272W        W42801  23.181  14.219   4.909
71273W        W42802  24.628  17.828  11.622
71274W        W42803  12.914  27.947   2.576
71275W        W42804  30.516   5.459  11.723
71276W        W42805  40.621  40.807   2.695
71277W        W42806  27.421   9.321   3.629
71278W        W42807  30.721  36.616  12.422
71279W        W42808  33.534  35.678   2.362
71280W        W42809  13.452  13.832  14.767
71281W        W42810  32.543  32.676   3.710
71282W        W42811  40.501  40.512  14.079
71283W        W42812  30.090   9.776   1.734
71284W        W42813  15.748  42.400  14.739
71285W        W42814   3.294   4.355  12.924
71286W        W42815  42.441  38.528  12.922
71287W        W42816  27.155   1.014   0.734
71288W        W42817  30.372  19.698   3.812
71289W        W42818   7.279   3.787   1.418
71290W        W42819   6.336  33.087  12.973
71291W        W42820  13.272  27.687  10.784
71292W        W42821  30.888   2.497  11.531
71293W        W42822  41.321  30.032   4.998
71294W        W42823  44.402  16.646   1.245
71295W        W42824  16.139  16.847  10.740
71296W        W42825  25.046  44.456  14.875
71297W        W42826  19.459  20.697   1.532
71298W        W42827  22.990  14.800  13.914
71299W        W42828   1.591  34.224  12.524
71300W        W42829  25.598  39.416  14.359
71301W        W42830  34.328  18.545   1.495
71302W        W42831   4.462  15.778  12.874
71303W        W42832  40.457  10.605  10.370
71304W        W42833  20.065   6.278   4.586
71305W        W42834  33.402  16.644   1.178
71306W        W42835   5.449  35.824  11.239
71307W        W42836  25.174  34.593   2.279
71308W        W42837   0.719  36.461   0.002
71309W        W42838  16.707   9.564  12.876
71310W        W42839  31.803   7.202  13.836
71311W        W42840  31.569  34.669  10.414
71312W        W42841  44.037  34.958   4.069
71313W        W42842   4.760  21.064  14.062
71314W        W42843  28.619  14.640  12.405
71315W        W42844  44.804  20.799   0.995
71316W        W42845   0.632  35.154   5.123
71317W        W42846  16.414  37.900  12.341
71318W        W42847  39.361  16.662   1.335
71319W        W42848   4.325  23.390   2.833
71320W        W42849  22.718  24.385  12.502
71321W        W42850  14.798  11.353   2.439
71322W        W42851   7.938  43.109   1.775
71323W        W42852  37.521   6.310  13.035
71324W        W42853  18.357  28.188  12.379
71325W        W42854   2.776  16.511   3.216
71326W        W42855  44.423   8.885   3.166
71327W        W42856  35.844  30.916   2.464
71328W        W42857  37.620  26.776   2.002
71329W        W42858   4.245  31.045  14.940
71330W        W42859  20.115  30.152   1.385
71331W        W42860  32.340   1.855  11.126
71332W        W42861   9.248   7.264   2.237
71333W        W42862  15.871   8.401  11.972
71334W        W42863  26.110  37.064  12.970
71335W        W42864  41.996  39.737   0.179
71336W        W42865  21.243  20.229   0.688
71337W        W42866   7.384   7.796   2.179
71338W        W42867  40.912  23.028  14.948
71339W        W42868  37.699   0.976  10.292
71340W        W42869  38.513   4.524  13.014
71341W        W42870  34.084  38.171  14.476
71342W        W42871  28.564  24.023  12.113
71343W        W42872   3.876  22.956  14.423
71344W        W42873  31.152   3.348  12.110
71345W        W42874  31.239  29.080  10.365
71346W        W42875   9.359  12.689   3.208
71347W        W42876  29.819  29.821  13.441
71348W        W42877  21.148   6.349   2.106
71349W        W42878  38.326  30.365   4.189
71350W        W42879   6.828  24.495  12.220
71351W        W42880   7.830  44.249  12.522
71352W        W42881   4.869  29.696   1.126
71353W        W42882  32.321  26.580   4.540
71354W        W42883  10.224  40.776   4.508
71355W        W42884   5.616  27.550   3.657
71356W        W42885  41.008   0.039  10.971
71357W        W42886  22.472  24.726  10.705
71358W        W42887  32.031  10.349   1.844
71359W        W42888  11.850  19.101  11.606
71360W        W42889   7.869  29.995  11.140
71361W        W42890  10.584  32.270  13.763
71362W        W42891  12.256  41.467   0.989
71363W        W42892  31.484  41.142   4.222
71364W        W42893  29.478  10.763   1.439
71365W        W42894  15.290  39.146  10.920
71366W        W42895  33.731  21.574   4.101
71367W        W42896  41.648  34.970   2.022
71368W        W42897  43.332  20.749  10.587
71369W        W42898  22.245  15.055  14.130
71370W        W42899   8.924  22.448   1.473
71371W        W42900   8.657  29.182  11.489
71372W        W42901  29.931  30.879  10.564
71373W        W42902  14.718  13.626   1.759
71374W        W42903  38.119  35.517  10.633
71375W        W42904  15.593  32.851  14.012
71376W        W42905   7.275  28.670   0.382
71377W        W42906  32.656   2.335  14.319
71378W        W42907  16.116  14.330  13.641
71379W        W42908   3.743  39.512  11.067
71380W        W42909  18.209  35.449  12.529
71381W        W42910  20.732  33.344  14.862
71382W        W42911  21.327   0.696  14.931
71383W        W42912   3.026  39.821   3.183
71384W        W42913  14.678  44.531  13.983
71385W        W42914  17.209  22.334  13.025
71386W        W42915  43.048  10.053   4.913
71387W        W42916  30.813  10.683  13.118
71388W        W42917  22.111  13.201   0.477
71389W        W42918   4.032  16.228   1.458
71390W        W42919  12.188  26.239  13.428
71391W        W42920  16.109   1.864  13.550
71392W        W42921  24.557  37.533   0.174
71393W        W42922  42.848   8.433  10.697
71394W        W42923  13.737  25.541   3.467
71395W        W42924   4.537   7.300   4.084
71396W        W42925  14.929   2.429  10.710
71397W        W42926  10.674  15.214   4.149
71398W        W42927  27.028  30.642   0.776
71399W        W42928   3.027  23.626   1.692
71400W        W42929  25.198  24.081   3.092
71401W        W42930  16.262  42.819   0.839
71402W        W42931  36.870  36.301   2.107
71403W        W42932  25.652  33.315  12.598
71404W        W42933   3.853  26.706  12.031
71405W        W42934  31.150  27.507  13.748
71406W        W42935  23.189  31.369   1.726
71407W        W42936  12.243  38.490  10.570
71408W        W42937   7.155  17.792  12.517
71409W        W42938  10.598  43.234   3.319
71410W        W42939  41.533  27.385  12.791
71411W        W42940  35.510  17.546  13.352
71412W        W42941  21.707  27.381   3.259
71413W        W42942  39.840  14.278   4.549
71414W        W42943  36.360  19.076   0.845
71415W        W42944   3.628   0.920  13.073
71416W        W42945   1.116  43.648   2.857
71417W        W42946  16.268  35.383  11.595
71418W        W42947  14.429   2.445  10.554
71419W        W42948   7.610  40.962  14.345
71420W        W42949  36.415   6.376  11.440
71421W        W42950  29.000   4.328   0.650
71422W        W42951  16.444  18.140   1.270
71423W        W42952  25.566  23.541  13.407
71424W        W42953  24.450  34.006  13.392
71425W        W42954  41.971   7.883  10.706
71426W        W42955  39.528   1.429   1.021
71427W        W42956   6.829   8.277   3.757
71428W        W42957   1.691  29.397   1.542
71429W        W42958  19.001   0.371  12.332
71430W        W42959  24.597  30.955  14.038
71431W        W42960  21.847   0.969  11.665
71432W        W42961  33.996   4.370   1.695
71433W        W42962  37.763   0.678   2.937
71434W        W42963  11.549   8.105  12.558
71435W        W42964  16.359  24.858   4.156
71436W        W42965  26.336  18.621  14.713
71437W        W42966  22.136  37.310  12.031
71438W        W42967  35.499   9.814   3.706
71439W        W42968  34.055  30.835  12.471
71440W        W42969   5.805  21.034  13.034
71441W        W42970  34.668  41.651  11.191
71442W        W42971   8.622   3.319   1.806
71443W        W42972  29.184   3.930   0.995
71444W        W42973   5.212   7.861   2.575
71445W        W42974  36.446  24.922   0.318
71446W        W42975   4.842  44.961  11.523
71447W        W42976  25.692  25.138  10.724
71448W        W42977   7.148  25.949   2.808
71449W        W42978  19.179  24.412   0.335
71450W        W42979   3.418  40.256   2.870
71451W        W42980  39.968  24.973  13.454
71452W        W42981  14.025  43.760   3.752
71453W        W42982  16.146  38.092   0.297
71454W        W42983  26.850  29.994  11.090
71455W        W42984  13.981   5.403  11.149
71456W        W42985  35.630  23.719  11.159
71457W        W42986  12.318   4.013   3.883
71458W        W42987  14.380  40.851   1.874
71459W        W42988  17.330  39.526   2.799
71460W        W42989   9.664  32.596   1.772
71461W        W42990  18.775  33.596  12.359
71462W        W42991  11.424  14.294  12.438
71463W        W42992  11.216  18.671  11.000
71464W        W42993  13.757  21.691  14.758
71465W        W42994  34.038  41.830   4.601
71466W        W42995  19.317  14.637   3.198
71467W        W42996  12.737  11.416   1.162
71468W        W42997  14.755  20.717  14.741
71469W        W42998  40.801  12.782  13.089
71470W        W42999  41.338   1.340  10.686
71471ION    NA+43000  10.994  21.835  11.046
71472ION    NA+43001   7.517  22.572  11.204
71473ION    NA+43002  39.725  15.834   2.107
71474ION    NA+43003  14.807  24.148   1.313
71475ION    NA+43004   5.737  31.599  10.312
71476ION    NA+43005  24.851  36.845   1.483
71477ION    NA+43006  36.527  29.378   1.842
71478ION    NA+43007  21.274  29.835   0.887
71479ION    NA+43008  33.710  37.864   9.810
71480ION    NA+43009  33.381  43.161   2.171
71481ION    NA+43010  33.651  24.118   3.733
71482ION    NA+43011  30.381   9.837  12.642
71483ION    NA+43012   9.315   5.094   4.685
71484ION    NA+43013  19.540  12.372  11.392
71485ION    NA+43014  28.565  31.341  12.864
71486ION    NA+43015  36.283  22.252   3.288
71487ION    NA+43016   4.426  20.280  12.488
71488ION    NA+43017   0.758  43.195   0.791
71489ION    NA+43018  33.485  14.040   1.835
71490ION    NA+43019  41.956  40.682   0.255
71491ION    NA+43020  38.755  11.419   0.940
71492ION    NA+43021  19.153  36.856   2.727
71493ION    NA+43022  38.840  16.873  12.847
71494ION    NA+43023  13.162  42.902   0.661
71495ION    NA+43024   3.283  44.909  12.072
71496ION    NA+43025   1.303  20.853  12.468
71497ION    NA+43026   9.545  17.754   2.002
71498ION    NA+43027   5.733  26.068   1.217
71499ION    NA+43028  12.919  14.669  10.739
71500ION    NA+43029  12.550  15.116   0.046
71501ION    NA+43030   3.040  18.460  11.228
71502ION    NA+43031  31.645   3.561   3.583
71503ION    NA+43032   7.224   2.976  14.031
71504ION    NA+43033  34.862  40.661  13.340
71505ION    NA+43034  40.623  25.020   3.325
71506ION    NA+43035  36.835  29.429   3.538
71507ION    NA+43036  14.740  19.541   0.225
71508ION    NA+43037  28.643  24.657   3.456
71509ION    NA+43038  15.970  19.293   0.694
71510ION    NA+43039  41.589  30.992   0.429
71511ION    NA+43040  15.294   6.004   1.809
71512ION    NA+43041  22.778  34.450   3.989
71513ION    NA+43042  13.364  34.482  10.717
71514ION    NA+43043  15.324  31.241   1.467
71515ION    NA+43044   8.338  32.549  10.956
71516ION    NA+43045  10.331  14.757  14.803
71517ION    NA+43046  43.147  15.739  12.611
71518ION    NA+43047  22.994  36.596   0.201
71519ION    NA+43048  15.251   5.522  12.544
71520ION    NA+43049   2.471  43.847   2.875
71521ION    NA+43050  38.312  32.986  12.029
71522ION    NA+43051   9.814  18.288  13.035
71523ION    NA+43052   3.665  35.295  10.624
71524ION    NA+43053  33.938   3.135  11.948
71525ION    NA+43054  32.143   3.304  11.890
71526ION    NA+43055  38.489   5.132   4.361
71527ION    NA+43056   0.507  28.018   4.539
71528ION    NA+43057   1.930   0.764  12.424
71529ION    NA+43058  36.105   0.423   0.279
71530ION    NA+43059  43.314  34.053  10.946
71531ION    NA+43060  27.875  35.702  10.670
71532ION    NA+43061   5.625  35.634  12.559
71533ION    NA+43062  43.068  19.562   0.287
71534ION    NA+43063  27.512   2.332  14.360
71535ION    NA+43064  36.760  18.123   0.760
71536ION    NA+43065  21.515  21.880  11.478
71537ION    NA+43066  34.854  19.324  10.807
71538ION    NA+43067   1.136   7.637   5.069
71539ION    NA+43068  14.838  28.693  11.262
71540ION    NA+43069   4.261  28.456   1.335
71541ION    NA+43070  19.647  21.512   3.703
71542ION    NA+43071  24.607   0.671   2.792
71543ION    NA+43072   7.391  24.733   1.284
71544ION    NA+43073   0.519  23.211   4.838
71545ION    NA+43074   0.652  17.782   0.869
71546ION    NA+43075   5.695  38.391   0.480
71547ION    NA+43076  37.947  25.092  12.609
71548ION    NA+43077  31.522  33.579  10.157
71549ION    NA+43078  43.635   6.762   3.551
71550ION    NA+43079  17.373  37.992   2.001
71551ION    NA+43080   6.872  12.742  11.602
71552ION    NA+43081   6.512   0.769  11.170
71553ION    NA+43082  11.993  14.565   2.927
71554ION    NA+43083  40.489  42.840   1.612
71555ION    NA+43084   9.695  44.742   0.927
71556ION    NA+43085  38.441  38.788   5.125
71557ION    NA+43086   2.208  22.685  11.063
71558ION    NA+43087   8.606  28.234   3.597
71559ION    NA+43088  35.925  25.129   1.459
71560ION    NA+43089  33.857  20.687  12.493
71561ION    NA+43090   8.143   6.876   0.100
71562ION    NA+43091   0.930  37.940   3.215
71563ION    NA+43092  39.948  42.807   4.809
71564ION    NA+43093  39.324  21.167  12.905
71565ION    NA+43094  18.756  13.636   0.481
71566ION    NA+43095  35.046  15.099  13.981
71567ION    NA+43096   1.740  12.683  11.263
71568ION    NA+43097   3.764   2.058  12.460
71569ION    NA+43098  10.872  42.326  13.648
71570ION    NA+43099  35.374  13.578  11.464
71571ION    NA+43100  32.676  18.082  10.053
71572ION    NA+43101   8.912   5.380  12.405
71573ION    NA+43102  13.568  35.573  11.202
71574ION    NA+43103  21.659  15.819  13.313
71575ION    NA+43104  32.974  42.519  10.655
71576ION    NA+43105   5.267  19.144   3.272
71577ION    NA+43106  32.098   6.924   0.416
71578ION    NA+43107  33.566  25.079   2.455
71579ION    NA+43108  20.233  23.684   1.817
71580ION    NA+43109   0.582  32.765  14.394
71581ION    NA+43110   8.382   4.496  10.806
71582ION    NA+43111   8.226  21.489   4.110
71583ION    NA+43112  43.023   0.185  11.190
71584ION    NA+43113  29.381  32.864   3.661
71585ION    NA+43114   4.812  25.319  10.228
71586ION    NA+43115  42.490  23.636   0.984
71587ION    NA+43116  41.023  31.444  14.738
71588ION    NA+43117  37.763  30.891  10.099
71589ION    NA+43118  31.184  27.041   4.160
71590ION    NA+43119   3.510  25.097  11.965
71591ION    NA+43120   9.755  36.229  14.447
71592ION    NA+43121  31.905  27.629  12.467
71593ION    NA+43122  14.650  16.811  13.631
71594ION    NA+43123  34.920   0.017   0.894
71595ION    NA+43124  44.640   6.980  12.280
71596ION    NA+43125  16.058   7.377   3.649
71597ION    NA+43126  29.110   8.262  11.949
71598ION    NA+43127   9.329  35.859  11.652
71599ION    NA+43128  19.017  13.242  12.518
71600ION    NA+43129   2.154   0.404   1.745
71601ION    NA+43130  32.291  12.237   0.552
71602ION    NA+43131  25.501  10.426   0.388
71603ION    NA+43132   7.783  30.462  12.028
71604ION    NA+43133   7.770   0.930   1.008
71605ION    NA+43134   5.826  16.067  14.004
71606ION    NA+43135  30.465   0.369   1.512
71607ION    NA+43136   6.000  29.819  14.095
71608ION    NA+43137  39.901  17.526  12.286
71609ION    NA+43138  26.004  33.083   1.249
71610ION    NA+43139  24.175  11.109   2.103
71611ION    NA+43140   5.290  12.220   3.992
71612ION    NA+43141  42.607  39.604  13.054
71613ION    NA+43142   0.497  37.222   3.010
71614ION    NA+43143   8.774  42.210   2.537
71615ION    NA+43144  24.976  12.734   1.734
71616ION    NA+43145  36.370   8.575   5.020
71617ION    NA+43146   6.938  44.871  11.280
71618ION    NA+43147  42.923   9.454  10.648
71619ION    NA+43148   3.771  10.650  13.121
71620ION    NA+43149  16.999  17.629   4.739
71621ION    NA+43150  23.284   1.476   4.074
71622ION    NA+43151   1.876   4.920  14.958
71623ION    NA+43152  11.732  11.428  12.510
71624ION    NA+43153   2.661  34.331   1.838
71625ION    NA+43154  44.833  25.720  14.283
71626ION    NA+43155   8.134  24.314   2.867
71627ION    NA+43156  24.240  33.879  14.821
71628ION    NA+43157  43.768  31.100   1.162
71629ION    NA+43158  22.364   8.729  14.520
71630ION    NA+43159  22.535  27.576   3.041
71631ION    NA+43160  25.478  39.396   1.915
71632ION    NA+43161   0.273  18.321  13.763
71633ION    NA+43162  22.930   9.345  13.884
71634ION    NA+43163  36.366  39.308   2.381
71635ION    NA+43164  31.876  32.460  10.877
71636ION    NA+43165  17.340   2.569   0.357
71637ION    NA+43166  44.706  32.912  12.981
71638ION    NA+43167  23.516   8.643   0.505
71639ION    NA+43168  14.060   5.705  10.720
71640ION    NA+43169  23.553  27.648   0.005
71641ION    NA+43170  27.526   3.949   4.362
71642ION    NA+43171  37.443  36.819  12.975
71643ION    NA+43172  38.476  12.638  11.986
71644ION    NA+43173   2.657  10.676  13.769
71645ION    NA+43174  29.051  26.758   1.155
71646ION    NA+43175  38.072  13.343   5.058
71647ION    NA+43176   3.229   1.351  14.996
71648ION    NA+43177   3.200  15.551   3.224
71649ION    NA+43178  31.400  28.497   0.958
71650ION    NA+43179  19.986  29.950   3.697
71651ION    NA+43180  40.139  16.531   0.858
71652ION    NA+43181  24.159  26.607  10.242
71653ION    NA+43182   4.695  16.314  12.960
71654ION    NA+43183   2.291  29.124  13.807
71655ION    NA+43184  34.595  13.687   3.254
71656ION    NA+43185  28.365  30.147  11.257
71657ION    NA+43186   8.775  34.936   3.792
71658ION    NA+43187  23.233   3.541   0.047
71659ION    NA+43188   5.703  21.466  13.279
71660ION    NA+43189  25.556  23.199  12.989
71661ION    NA+43190  26.420   1.684   0.580
71662ION    NA+43191  10.010  25.373   1.909
71663ION    NA+43192   6.144   1.072   4.651
71664ION    NA+43193  11.948  17.614   0.269
71665ION    NA+43194  39.867  19.563   3.071
71666ION    NA+43195   8.131   2.354  12.344
71667ION    NA+43196   2.785  41.002   4.353
71668ION    NA+43197  43.403  39.871   3.824
71669ION    NA+43198  38.922   3.396   1.724
71670ION    NA+43199  42.828  13.755  11.198
71671ION    NA+43200  16.579  26.962   1.108
71672ION    NA+43201  39.121  31.401   2.893
71673ION    NA+43202   5.901   8.693  11.113
71674ION    NA+43203  31.422   2.690   1.311
71675ION    NA+43204  40.639  28.598  11.076
71676ION    NA+43205  28.457  23.493   4.086
71677ION    NA+43206   7.386  34.849   4.318
71678ION    NA+43207   1.381  21.942   2.911
71679ION    NA+43208  27.493  29.818   4.625
71680ION    NA+43209   7.021   5.100   1.610
71681ION    NA+43210  29.697   7.687  10.750
71682ION    NA+43211  44.622   7.650  11.048
71683ION    NA+43212  17.138  38.993   5.423
71684ION    NA+43213   1.448  13.268   0.369
71685ION    NA+43214  27.344   1.768   4.721
71686ION    NA+43215  21.248  40.949  14.337
71687ION    NA+43216  10.571  38.087  10.953
71688ION    NA+43217  24.398  28.226  13.064
71689ION    NA+43218  42.416  14.654   1.451
71690ION    NA+43219   7.877  40.560  11.057
71691ION    NA+43220   6.469  39.350   1.875
71692ION    NA+43221  29.632  12.702  11.204
71693ION    NA+43222  18.554   5.107   2.262
71694ION    NA+43223  38.471  16.262  13.548
71695ION    NA+43224  30.307   7.376  12.767
71696ION    NA+43225  33.678  16.242  11.103
71697ION    NA+43226  38.859  12.538   3.428
71698ION    NA+43227  21.101  42.945   1.573
71699ION    NA+43228  11.356   7.326   0.848
71700ION    NA+43229   9.663   7.408  11.433
71701ION    NA+43230   6.194  11.387  12.496
71702ION    NA+43231  33.532  33.169  11.241
71703ION    NA+43232   6.263   6.444   0.834
71704ION    NA+43233  10.862  38.404  12.407
71705ION    NA+43234  24.675  31.642  13.771
71706ION    NA+43235  37.598  21.804  13.569
71707ION    NA+43236  35.734   1.499  11.109
71708ION    NA+43237   4.222  28.701  14.938
71709ION    NA+43238  40.217  14.948   2.264
71710ION    NA+43239  21.571  36.863  11.137
71711ION    NA+43240  10.316  18.963  13.607
71712ION    NA+43241  25.028  33.428  13.243
71713ION    NA+43242  43.529   2.622  10.704
71714ION    NA+43243  16.292  22.503   2.806
71715ION    NA+43244  39.563  39.072  13.704
71716ION    NA+43245  14.990   0.851   2.847
71717ION    NA+43246  22.311  18.021  14.826
71718ION    NA+43247  41.335  34.277   3.372
71719ION    NA+43248   1.015  11.672  12.014
71720ION    NA+43249  27.894  42.292   0.293
71721ION    NA+43250  42.377   4.400  12.455
71722ION    NA+43251  20.036  29.739   2.251
71723ION    NA+43252   9.975   3.005  13.308
71724ION    NA+43253  41.074  15.646   4.307
71725ION    NA+43254   6.245  33.547   4.714
71726ION    NA+43255   7.677  25.944   1.451
71727ION    NA+43256  34.717  13.054  13.526
71728ION    NA+43257  23.164  25.232   4.490
71729ION    NA+43258  27.648  13.803  14.790
71730ION    NA+43259   1.040  16.586  11.906
71731ION    NA+43260  27.740  33.029  14.316
71732ION    NA+43261  20.439   3.144   2.042
71733ION    NA+43262   2.782  25.534   3.224
71734ION    NA+43263   9.180  16.653   3.295
71735ION    NA+43264   4.308  26.974   2.209
71736ION    NA+43265  15.286  18.895   1.367
71737ION    NA+43266  20.483  10.481   0.680
71738ION    NA+43267   2.840   5.246   4.572
71739ION    NA+43268  37.571  19.756  10.745
71740ION    NA+43269  37.381  14.737  11.958
71741ION    NA+43270  43.040  37.480   0.835
71742ION    NA+43271  44.763   6.723   1.992
71743ION    NA+43272   2.841   9.799   0.404
71744ION    NA+43273  24.113  38.152   1.689
71745ION    NA+43274  18.527  36.320   0.805
71746ION    NA+43275   1.743  34.210   4.121
71747ION    NA+43276  36.305  34.574   2.508
71748ION    NA+43277  18.491  24.330   2.673
71749ION    NA+43278  20.908  10.898   1.857
71750ION    NA+43279  42.377  33.898  13.940
71751ION    NA+43280  15.020   7.927   2.940
71752ION    NA+43281   5.812  32.927   1.180
71753ION    NA+43282  20.729  43.259  11.135
71754ION    NA+43283   8.506  38.482   0.937
71755ION    NA+43284  42.977  37.126   3.228
71756ION    NA+43285  34.288  43.497   4.120
71757ION    NA+43286   9.371   2.839   1.627
71758ION    NA+43287  18.084   9.470  12.263
71759ION    NA+43288  20.234  26.271  10.432
71760ION    NA+43289  43.514  26.137  14.494
71761ION    NA+43290  20.538  11.412  14.883
71762ION    NA+43291  32.724  27.757  11.462
71763ION    NA+43292  25.001   6.421   4.573
71764ION    NA+43293  24.462  38.216  11.343
71765ION    NA+43294  17.401  23.254  12.933
71766ION    NA+43295  11.647   0.211  13.638
71767ION    NA+43296   9.743  21.979   3.133
71768ION    NA+43297  16.536  15.143   3.074
71769ION    NA+43298  24.712  18.512   2.549
71770ION    NA+43299   9.731   0.698   2.057
71771ION    NA+43300   7.041  23.657  14.339
71772ION    NA+43301  22.772  44.797  12.593
71773ION    NA+43302  14.397  12.521  14.386
71774ION    NA+43303  42.778  33.664   3.011
71775ION    NA+43304  10.347  19.334   3.325
71776ION    NA+43305  36.969  18.181  12.189
71777ION    NA+43306  43.003   2.191  14.397
71778ION    NA+43307   8.179  26.859   1.152
71779ION    NA+43308   4.265  29.818  12.728
71780ION    NA+43309  18.746  14.587  13.338
71781ION    NA+43310  34.673   9.193  14.945
71782ION    NA+43311   7.214  10.446   1.954
71783ION    NA+43312   9.266  12.365   1.284
71784ION    NA+43313  41.229  29.166   0.856
71785ION    NA+43314  33.672  40.027  12.715
71786ION    NA+43315  41.906  37.339  14.132
71787ION    NA+43316  10.862  22.626  13.514
71788ION    NA+43317  40.618  36.989   1.025
71789ION    NA+43318  40.990   3.564  13.369
71790ION    NA+43319  40.183   7.635   0.532
71791ION    NA+43320  20.393  34.362   4.696
71792ION    NA+43321  35.951  35.699   4.919
71793ION    NA+43322   9.890  38.496  14.871
71794ION    NA+43323  31.213  10.795   3.740
71795ION    NA+43324  43.706   9.845  11.207
71796ION    NA+43325   9.039   9.140  13.045
71797ION    NA+43326  32.158  24.016   3.740
71798ION    NA+43327  20.940   1.763  11.212
71799ION    NA+43328  41.610   8.675  14.407
71800ION    NA+43329   0.832  34.560  12.497
71801ION    NA+43330   3.152  16.656  14.032
71802ION    NA+43331  26.978  31.220  14.923
71803ION    NA+43332  24.784  38.170  14.555
71804ION    NA+43333  38.460  17.909   2.149
71805ION    NA+43334  36.827  34.364  13.758
71806ION    NA+43335  26.028  35.203   2.197
71807ION    NA+43336  17.103   4.686   4.164
71808ION    NA+43337  42.183  38.291  12.526
71809ION    NA+43338   0.097  34.224  11.752
71810ION    NA+43339  15.249  12.596  13.791
71811ION    NA+43340  33.547   4.398   3.921
71812ION    NA+43341  44.201   1.751   1.829
71813ION    NA+43342  21.914   6.922   0.546
71814ION    NA+43343  38.875  26.001   3.725
71815ION    NA+43344  41.364  35.778   3.022
71816ION    NA+43345  30.958  41.968   0.373
71817ION    NA+43346  26.046  11.100   2.853
71818ION    NA+43347  35.168  19.106  11.731
71819ION    NA+43348  35.889   3.431  11.522
71820ION    NA+43349   8.264  13.226  13.703
71821ION    NA+43350  30.122  22.600  14.101
71822ION    NA+43351  14.074  23.484   1.461
71823ION    NA+43352   3.859  40.584  12.945
71824ION    NA+43353   0.060   9.605   0.271
71825ION    NA+43354  34.015  43.434   0.758
71826ION    NA+43355  17.845   6.494  12.585
71827ION    NA+43356  32.127  37.579   2.906
71828ION    NA+43357  23.377  15.107   4.949
71829ION    NA+43358   1.164  26.158  13.951
71830ION    NA+43359  29.592   8.483  13.862
71831ION    NA+43360  40.058   3.262  13.125
71832ION    NA+43361  10.627   4.756   0.270
71833ION    NA+43362   3.708   3.188  10.870
71834ION    NA+43363  41.830  43.623  11.374
71835ION    NA+43364  23.491  16.969  10.558
71836ION    NA+43365  15.693  39.513   4.366
71837ION    NA+43366   0.777  21.057  10.338
71838ION    NA+43367  34.452  34.185   0.680
71839ION    NA+43368  33.803  15.726   3.635
71840ION    NA+43369  27.004  27.616   3.259
71841ION    NA+43370  24.919  35.520  12.188
71842ION    NA+43371  33.652   8.731  11.169
71843ION    NA+43372  17.953   9.810   0.428
71844ION    NA+43373  25.973   7.562  11.582
71845ION    NA+43374  14.764  38.581  11.438
71846ION    NA+43375  11.813  43.509  12.546
71847ION    NA+43376  23.450  16.225  12.468
71848ION    NA+43377   7.932   6.012   0.267
71849ION    NA+43378  24.510  20.742  11.599
71850ION    NA+43379  14.666  43.526  13.837
71851ION    NA+43380  15.403  10.131   1.215
71852ION    NA+43381  22.641  14.523   2.724
71853ION    NA+43382   8.730  20.938   9.912
71854ION    NA+43383  29.064  32.183   5.185
71855ION    NA+43384   3.504  35.842  13.457
71856ION    NA+43385   3.706  36.977  11.690
71857ION    NA+43386   5.235  20.097   3.713
71858ION    NA+43387  44.850  13.391   2.259
71859ION    NA+43388  37.069  25.764   1.205
71860ION    NA+43389  28.924  32.000   4.007
71861ION    NA+43390   8.897  24.844   3.137
71862ION    NA+43391  31.229   1.880  12.121
71863ION    NA+43392  23.281  37.539   0.418
71864ION    NA+43393   9.845  32.083  14.738
71865ION    NA+43394  22.851  31.252  10.702
71866ION    NA+43395  22.509  42.654  12.273
71867ION    NA+43396   5.496  29.457  14.880
71868ION    NA+43397  15.505   0.942  12.465
71869ION    NA+43398  44.543  38.247  14.723
71870ION    NA+43399   8.042   5.875  11.580
71871ION    NA+43400  12.096  15.083  12.501
71872ION    NA+43401   3.188  13.640  11.228
71873ION    NA+43402  14.560  35.107   0.946
71874ION    NA+43403  37.191  40.092   2.765
71875ION    NA+43404  30.641  12.705  12.527
71876ION    NA+43405  23.288   6.732   3.616
71877ION    NA+43406  32.217  17.025   3.860
71878ION    NA+43407  36.649  11.789  14.361
71879ION    NA+43408  19.183  18.317  11.384
71880ION    NA+43409  34.059  19.363   4.379
71881ION    NA+43410  19.734  15.683   4.613
71882ION    NA+43411  23.079  28.045   1.329
71883ION    NA+43412  10.459  44.099  13.968
71884ION    NA+43413  37.199  14.482  10.488
71885ION    NA+43414   8.604  24.110   3.531
71886ION    NA+43415   2.060  36.247   5.424
71887ION    NA+43416  27.717  14.223   3.176
71888ION    NA+43417  18.719  18.066   1.446
71889ION    NA+43418  41.387  13.107   3.536
71890ION    NA+43419  44.153  31.097   3.095
71891ION    NA+43420   9.133  29.059   4.644
71892ION    NA+43421  23.683   2.825   4.633
71893ION    NA+43422   9.705  20.983  11.909
71894ION    NA+43423   3.279  14.072   3.924
71895ION    NA+43424   5.774  43.859   1.764
71896ION    NA+43425  29.236  28.224   0.918
71897ION    NA+43426  33.186  37.585   4.084
71898ION    NA+43427  40.535   8.191   1.115
71899ION    NA+43428  10.668  31.542  14.557
71900ION    NA+43429  35.595  34.742   0.072
71901ION    NA+43430   4.685  10.747   1.091
71902ION    NA+43431  41.406  33.108  12.993
71903ION    NA+43432  33.686  26.666   4.991
71904ION    NA+43433  32.133  16.898  13.879
71905ION    NA+43434  36.850   1.068   4.123
71906ION    NA+43435   0.824  43.367  11.340
71907ION    NA+43436  19.865  40.686  11.187
71908ION    NA+43437  28.188   7.899  12.149
71909ION    NA+43438  21.520  17.342  14.872
71910ION    NA+43439  40.881  25.840   4.908
71911ION    NA+43440  15.893  21.700   2.708
71912ION    NA+43441  13.258  43.890   2.381
71913ION    NA+43442  27.175   9.238  12.600
71914ION    NA+43443  18.109  18.929   2.239
71915ION    NA+43444  16.544  29.753   1.428
71916ION    NA+43445  44.151  12.637  14.044
71917ION    NA+43446   0.703   3.405  13.433
71918ION    NA+43447  12.427  16.736   0.250
71919ION    NA+43448  14.078  14.812   1.707
71920ION    NA+43449  23.733  41.578   0.925
71921ION    NA+43450  21.794  42.727   3.333
71922ION    NA+43451  11.856   4.630   2.831
71923ION    NA+43452  40.802  27.092   3.994
71924ION    NA+43453  38.120  33.500  13.972
71925ION    NA+43454  43.961  41.287  13.423
71926ION    NA+43455  31.141  31.096  12.049
71927ION    NA+43456  43.966  10.707  14.615
71928ION    NA+43457   1.027  12.738  14.349
71929ION    NA+43458  42.657  25.306  14.424
71930ION    NA+43459  29.939   8.554  10.314
71931ION    NA+43460  26.331  35.831   3.955
71932ION    NA+43461  19.266  31.211  12.996
71933ION    NA+43462  26.091  34.124   5.179
71934ION    NA+43463  41.710  25.047   3.054
71935ION    NA+43464  33.247  11.969  11.455
71936ION    NA+43465  29.717  20.687  12.577
71937ION    NA+43466  13.703  31.509   0.892
71938ION    NA+43467  30.928   6.175   4.148
71939ION    NA+43468   0.788  42.436  10.977
71940ION    NA+43469  24.013  14.897  11.640
71941ION    NA+43470  33.006  18.172   3.281
71942ION    NA+43471  12.230   3.313   0.226
71943ION    NA+43472  34.525  23.053   3.743
71944ION    NA+43473  33.297  39.123  14.103
71945ION    NA+43474  17.646  23.821   0.242
71946ION    NA+43475  35.274  17.757  10.585
71947ION    NA+43476   9.288   1.540  11.050
71948ION    NA+43477  41.334   2.352  14.269
71949ION    NA+43478  35.185  38.603   3.676
71950ION    NA+43479  37.614  29.268  13.943
71951ION    NA+43480  25.771  38.581  14.768
71952ION    NA+43481  42.430  14.117  12.573
71953ION    NA+43482   8.324  41.429  10.846
71954ION    NA+43483  29.237  37.523   2.277
71955ION    NA+43484  23.480   5.650  10.702
71956ION    NA+43485  14.465  28.954   1.709
71957ION    NA+43486  26.873   8.404   2.373
71958ION    NA+43487  13.092  35.094  13.215
71959ION    NA+43488  36.787   6.882  10.690
71960ION    NA+43489  39.079  17.703  11.568
71961ION    NA+43490  21.068   6.977  14.451
71962ION    NA+43491  42.397  20.230  10.710
71963ION    NA+43492  38.122  32.621  11.118
71964ION    NA+43493   7.274  43.749   2.842
71965ION    NA+43494   8.130  20.861  12.928
71966ION    NA+43495  31.229  29.624   0.729
71967ION    NA+43496   4.609  40.832   1.252
71968ION    NA+43497  11.145   4.981   4.188
71969ION    NA+43498  32.974   5.014   2.561
71970ION    NA+43499  32.588   2.601  13.194
71971ION    NA+43500  32.213  33.471   5.173
71972ION    NA+43501  13.314  24.717   1.807
71973ION    NA+43502  22.283   0.407  14.809
71974ION    NA+43503   4.663  17.719  10.059
71975ION    NA+43504  30.870  19.071  12.337
71976ION    NA+43505  30.900  44.606   0.765
71977ION    NA+43506  41.957   5.517   0.091
71978ION    NA+43507  36.935  37.822   4.079
71979ION    NA+43508  32.717  39.941  13.628
71980ION    NA+43509  41.516   9.372  11.343
71981ION    NA+43510  27.171  12.281   3.496
71982ION    NA+43511  38.300  25.787   0.379
71983ION    NA+43512  36.440  36.476  14.960
71984ION    NA+43513  31.876  25.497   0.271
71985ION    NA+43514  27.955   3.792   1.428
71986ION    NA+43515  33.802  24.358  14.608
71987ION    NA+43516   3.100  32.678  13.245
71988ION    NA+43517  32.978  11.659   1.936
71989ION    NA+43518  17.021  13.655  10.615
71990ION    NA+43519  15.521   2.317  11.559
71991ION    NA+43520  36.903  17.567   4.039
71992ION    NA+43521   6.832  20.156  10.581
71993ION    NA+43522  43.683   5.801  13.205
71994ION    NA+43523   2.707  21.726   4.850
71995ION    NA+43524   9.146  33.820  10.477
71996ION    NA+43525  35.863  39.209   3.260
71997ION    NA+43526   7.899  41.018  12.577
71998ION    NA+43527  35.505  26.782  13.641
71999ION    NA+43528  31.920  22.705   4.214
72000ION    NA+43529  16.679  17.006  13.839
72001ION    NA+43530   8.274  35.971  13.477
72002ION    NA+43531  32.586   6.375  10.765
72003ION    NA+43532  10.739   6.262  10.139
72004ION    NA+43533  12.835  19.418   3.473
72005ION    NA+43534  18.745   1.249  13.797
72006ION    NA+43535  24.463  20.071  11.020
72007ION    NA+43536  31.743  31.350   0.767
72008ION    NA+43537  33.848  42.035  12.075
72009ION    NA+43538   7.414   8.775  12.006
72010ION    NA+43539   2.929   0.792  12.381
72011ION    NA+43540  16.333  44.402  14.414
72012ION    NA+43541  13.292  16.983   4.630
72013ION    NA+43542   5.963  24.032  11.849
72014ION    NA+43543  15.087  26.806  11.660
72015ION    NA+43544   9.067  15.633  10.308
72016ION    NA+43545  36.523  23.996   4.273
72017ION    NA+43546  12.756  39.800   2.246
72018ION    NA+43547   4.326   5.110  11.978
72019ION    NA+43548  25.470  16.926  13.843
72020ION    NA+43549  33.482  18.053  13.614
72021ION    NA+43550  19.640  11.516   2.705
72022ION    NA+43551  43.175  27.126   2.712
72023ION    NA+43552  28.064  39.873   0.742
72024ION    NA+43553  34.468  34.388   4.905
72025ION    NA+43554  29.587   1.009  13.917
72026ION    NA+43555   0.708  22.246   3.706
72027ION    NA+43556  20.405   0.724  12.063
72028ION    NA+43557  41.559  42.824   2.776
72029ION    NA+43558  16.294  33.476  12.545
72030ION    NA+43559  18.604  31.016  11.846
72031ION    NA+43560   2.093  16.549   4.790
72032ION    NA+43561  41.303  42.856  14.486
72033ION    NA+43562  35.406  22.786  14.844
72034ION    NA+43563   3.807   2.224   0.310
72035ION    NA+43564  37.965  40.398  10.376
72036ION    NA+43565  39.470  13.383   4.369
72037ION    NA+43566  34.498  32.583   4.451
72038ION    NA+43567  34.075  11.664  11.661
72039ION    NA+43568  31.365  23.144   5.388
72040ION    NA+43569  26.867   4.344  13.333
72041ION    NA+43570  30.160  26.878   0.888
72042ION    NA+43571  10.551   6.157   4.613
72043ION    NA+43572  35.064  18.059   0.435
72044ION    NA+43573  42.510  18.877   2.606
72045ION    NA+43574  36.893  28.901  12.338
72046ION    NA+43575  16.269   7.196  12.406
72047ION    NA+43576   3.225  20.902   4.619
72048ION    NA+43577   7.149   1.856   4.204
72049ION    NA+43578  30.616  18.761  13.849
72050ION    NA+43579  17.518  18.847  14.357
72051ION    NA+43580  20.414  35.425  13.391
72052ION    NA+43581  33.569   7.837  14.976
72053ION    NA+43582  21.152  30.824   0.978
72054ION    NA+43583  38.852   8.225   1.126
72055ION    NA+43584  18.535  40.336   0.647
72056ION    NA+43585   1.160   1.878  12.163
72057ION    NA+43586  23.906   0.614  14.393
72058ION    NA+43587  15.902  18.568   5.337
72059ION    NA+43588  13.217  33.033   2.572
72060ION    NA+43589   8.373  10.288   4.786
72061ION    NA+43590  39.411   1.662   5.061
72062ION    NA+43591  12.646  42.279  14.486
72063ION    NA+43592   0.498   1.469   1.798
72064ION    NA+43593  14.948  25.196   4.279
72065ION    NA+43594  10.716   2.159   4.711
72066ION    NA+43595  38.392  34.569   3.354
72067ION    NA+43596  17.202  14.005   4.270
72068ION    NA+43597  39.398  29.384  14.788
72069ION    NA+43598  15.144  30.497   3.130
72070ION    NA+43599  13.941  27.848   0.638
72071ION    NA+43600  35.015  32.993   2.875
72072ION    NA+43601   0.676  41.648  12.254
72073ION    NA+43602  42.858  12.306  10.320
72074ION    NA+43603  41.426  11.138  12.033
72075ION    NA+43604  30.746  39.483  14.938
72076ION    NA+43605  17.052  21.226  11.138
72077ION    NA+43606  17.090   4.548  12.673
72078ION    NA+43607  17.465  32.986   4.691
72079ION    NA+43608  37.407  16.862   0.831
72080ION    NA+43609  25.766  29.460   0.358
72081ION    NA+43610   4.942  31.473  11.281
72082ION    NA+43611   0.924  29.045  14.435
72083ION    NA+43612  42.880  35.422  14.001
72084ION    NA+43613   6.157  33.235  10.735
72085ION    NA+43614  12.374   0.845   1.772
72086ION    NA+43615  42.072   4.913   4.027
72087ION    NA+43616   0.400  43.851  10.714
72088ION    NA+43617  28.626  35.009   2.175
72089ION    NA+43618   4.003  38.467   1.956
72090ION    NA+43619  39.882  15.729   3.860
72091ION    NA+43620  44.647  30.241   0.551
72092ION    NA+43621   4.934   3.381   2.177
72093ION    NA+43622  35.969  13.535  12.718
72094ION    NA+43623  23.067  34.922   0.279
72095ION    NA+43624   2.880  29.677   4.274
72096ION    NA+43625  35.098  29.448  11.086
72097ION    NA+43626  16.852  38.649  12.638
72098ION    NA+43627   9.434  27.859  12.148
72099ION    NA+43628  22.056   5.744  11.111
72100ION    NA+43629  14.004  23.211  14.790
72101ION    NA+43630   0.259   7.318  12.797
72102ION    NA+43631  39.981  23.264  10.989
72103ION    NA+43632  36.458   1.296  13.064
72104ION    NA+43633   1.159  32.781  11.242
72105ION    NA+43634  38.878   8.866   3.176
72106ION    NA+43635   2.357  11.564   2.212
72107ION    NA+43636   8.380   4.635  12.004
72108ION    NA+43637   3.671  30.892   1.666
72109ION    NA+43638  32.710  36.650   0.879
72110ION    NA+43639  44.019   4.045   0.883
72111ION    NA+43640  43.757   6.101  11.841
72112ION    NA+43641  21.260  15.285  10.324
72113ION    NA+43642  28.236   1.281  12.810
72114ION    NA+43643  19.361   8.773   1.717
72115ION    NA+43644  41.762  38.791   0.327
72116ION    NA+43645  44.146  30.062  12.862
72117ION    NA+43646  15.824  26.275  12.100
72118ION    NA+43647  40.807  43.975   2.882
72119ION    NA+43648  38.433  14.805   1.991
72120ION    NA+43649  16.833  34.600   2.734
72121ION    NA+43650  21.394  18.984  14.234
72122ION    NA+43651  42.416  20.550   2.760
72123ION    NA+43652   3.671  38.446  11.121
72124ION    NA+43653  41.843  16.294  11.532
72125ION    NA+43654  27.973   1.699  11.457
72126ION    NA+43655  19.978  26.428  13.457
72127ION    NA+43656  28.883  37.871  11.078
72128ION    NA+43657  27.637   8.763  13.349
72129ION    NA+43658  11.158  21.181  11.787
72130ION    NA+43659   2.791  33.397  12.738
72131ION    NA+43660   7.952  42.517  11.049
72132ION    NA+43661   2.684  19.293  11.299
72133ION    NA+43662  34.083  29.103  11.919
72134ION    NA+43663  26.889   5.230   0.807
72135ION    NA+43664  30.310   2.865   2.937
72136ION    NA+43665  24.927  21.466  12.911
72137ION    NA+43666   8.295  26.774  11.551
72138ION    NA+43667  16.738  39.132   4.166
72139ION    NA+43668  29.924   8.202   4.320
72140ION    NA+43669  13.445  32.122  11.935
72141ION    NA+43670   2.563  21.213   3.910
72142ION    NA+43671  36.019  36.387  10.465
72143ION    NA+43672  38.000  19.105  14.735
72144ION    NA+43673   0.619   6.888   4.032
72145ION    NA+43674  12.253  24.551   3.742
72146ION    NA+43675  28.892  31.550   2.052
72147ION    NA+43676  27.648  39.636  12.385
72148ION    NA+43677  28.427   6.276  12.803
72149ION    NA+43678  42.693   6.366   3.777
72150ION    NA+43679  19.727  23.063   1.219
72151ION    NA+43680  10.395  40.287  14.849
72152ION    NA+43681  39.386  28.320  14.304
72153ION    NA+43682  24.967  20.147   4.619
72154ION    NA+43683  20.156  14.533   4.505
72155ION    NA+43684  36.047  20.740  13.321
72156ION    NA+43685  29.657  24.851  13.005
72157ION    NA+43686  40.997  28.076   1.922
72158ION    NA+43687   7.575   7.135   3.179
72159ION    NA+43688  18.439  17.183   0.594
72160ION    NA+43689  11.483   1.084  14.596
72161ION    NA+43690  34.986  16.859  10.589
72162ION    NA+43691  22.943   1.829  11.505
72163ION    NA+43692  16.171  11.715   2.715
72164ION    NA+43693  25.139  34.624  14.786
72165ION    NA+43694  10.172  37.031   4.161
72166ION    NA+43695  16.363  37.024   3.337
72167ION    NA+43696   0.333  20.489   4.031
72168ION    NA+43697  21.076  19.704  11.152
72169ION    NA+43698  18.366  42.082  12.369
72170ION    NA+43699  32.346  24.106   5.098
72171ION    NA+43700  42.513  40.772   3.385
72172ION    NA+43701  43.055  31.505  14.106
72173ION    NA+43702  12.582  38.730  11.305
72174ION    NA+43703  44.267  36.583   4.725
72175ION    NA+43704  20.109  23.260  10.952
72176ION    NA+43705  10.165  26.195  14.367
72177ION    NA+43706  38.955  10.052   1.211
72178ION    NA+43707   2.021  39.289   0.205
72179ION    NA+43708  40.453  42.983   9.873
72180ION    NA+43709   5.302   5.184   2.384
72181ION    NA+43710  32.782   1.226   1.651
72182ION    NA+43711  18.788   9.141   3.809
72183ION    NA+43712   3.132  26.850  11.214
72184ION    NA+43713  36.480  14.816   3.037
72185ION    NA+43714  39.308  29.691  10.892
72186ION    NA+43715  26.879   2.342  12.141
72187ION    NA+43716  21.540  22.869  11.623
72188ION    NA+43717  23.398  28.613   0.234
72189ION    NA+43718  41.551  33.372  11.951
72190ION    NA+43719  17.864  27.448  13.481
72191ION    NA+43720  17.819  14.082   2.489
72192ION    NA+43721   0.780  22.208   4.702
72193ION    NA+43722   3.452  42.498   3.839
72194ION    NA+43723  15.291   1.499   1.510
72195ION    NA+43724  35.885   5.866   2.724
72196ION    NA+43725  42.823  26.183  11.307
72197ION    NA+43726  30.308   4.698   4.611
72198ION    NA+43727  44.747  38.878  13.418
72199ION    NA+43728  41.968  23.624   5.402
72200ION    NA+43729  27.803   4.124  13.607
72201ION    NA+43730  35.952  33.329  12.803
72202ION    NA+43731   5.659  39.798  11.132
72203ION    NA+43732   3.864  43.906  12.195
72204ION    NA+43733   0.101  37.967  12.403
72205ION    NA+43734  13.689  28.930   2.339
72206ION    NA+43735  12.635  16.191   4.092
72207ION    NA+43736  35.418   6.887  14.030
72208ION    NA+43737  16.195  30.640   3.138
72209ION    NA+43738  44.280   8.008   1.739
72210ION    NA+43739  26.991  39.030  14.963
72211ION    NA+43740   2.358   9.499  12.427
72212ION    NA+43741  30.169   1.850   2.318
72213ION    NA+43742  35.620  39.244   4.308
72214ION    NA+43743  43.769  11.284   1.258
72215ION    NA+43744   4.536  44.360   3.535
72216ION    NA+43745  14.269  13.017   3.852
72217ION    NA+43746  16.729  28.169   2.874
72218ION    NA+43747  18.622   5.437   0.987
72219ION    NA+43748  26.796  23.395   1.221
72220ION    NA+43749  32.257  25.385  11.630
72221ION    NA+43750  34.575  17.140   2.853
72222ION    NA+43751  17.528  27.540  11.519
72223ION    NA+43752  40.934  14.206  13.014
72224ION    NA+43753  20.229  37.137  10.623
72225ION    NA+43754  33.933   6.827  12.582
72226ION    NA+43755   4.305   3.303   4.609
72227ION    NA+43756  18.840  31.378  14.639
72228ION    NA+43757  11.834  12.300   0.233
72229ION    NA+43758   8.556  41.683   5.154
72230ION    NA+43759  11.713   9.866   2.731
72231ION    NA+43760  25.377  33.550  13.978
72232ION    NA+43761  43.895  32.652   0.378
72233ION    NA+43762  13.954   6.514   1.269
72234ION    NA+43763  17.331  23.469   4.671
72235ION    NA+43764  24.100  13.929  11.229
72236ION    NA+43765  21.759  27.032   1.828
72237ION    NA+43766  13.687  25.142  10.707
72238ION    NA+43767  18.199  17.782  14.560
72239ION    NA+43768   9.741  20.802   0.737
72240ION    NA+43769  32.659  17.370   1.032
72241ION    NA+43770  19.555  43.410  11.022
72242ION    NA+43771  22.104  14.498  13.491
72243ION    NA+43772   6.536  32.123  11.699
72244ION    NA+43773  21.056   5.336  13.916
72245ION    NA+43774  29.732   8.213  14.814
72246ION    NA+43775   5.442  29.338   3.508
72247ION    NA+43776  37.214   4.212  11.125
72248ION    NA+43777  12.902  31.106   4.897
72249ION    NA+43778  37.432  41.691   2.726
72250ION    NA+43779   4.356  26.007  12.171
72251ION    NA+43780  15.306   8.472  11.085
72252ION    NA+43781  41.244  38.719   1.066
72253ION    NA+43782  43.049  29.302  11.038
72254ION    NA+43783  18.681  16.193   1.391
72255ION    NA+43784  16.181  31.553   3.561
72256ION    NA+43785   9.927  35.249  14.350
72257ION    NA+43786  10.502   0.609   1.583
72258ION    NA+43787  34.046   7.723  13.849
72259ION    NA+43788  29.359  13.567   0.602
72260ION    NA+43789  12.927   5.064  11.318
72261ION    NA+43790  20.749   1.086   1.541
72262ION    NA+43791   8.274   8.400   2.043
72263ION    NA+43792  15.683  33.522   1.734
72264ION    NA+43793  31.138  38.495   1.296
72265ION    NA+43794   1.606  10.631   2.337
72266ION    NA+43795   9.843  25.977  11.637
72267ION    NA+43796  19.133  20.300   1.490
72268ION    NA+43797  25.657  30.514   3.590
72269ION    NA+43798  14.812  12.041   1.374
72270ION    NA+43799  18.038   3.745  13.941
72271ION    NA+43800  35.609  18.077   1.829
72272ION    NA+43801  14.317  41.609   0.129
72273ION    NA+43802   1.363  17.579  14.409
72274ION    NA+43803  22.953  10.811  12.238
72275ION    NA+43804  23.759   6.810  11.197
72276ION    NA+43805  43.660  22.300   4.939
72277ION    NA+43806  35.815  41.155  13.363
72278ION    NA+43807   6.328  18.166   3.048
72279ION    NA+43808  14.485  15.402  14.330
72280ION    NA+43809  17.863  30.478  12.468
72281ION    NA+43810  36.429  22.249  11.170
72282ION    NA+43811   0.392  21.996   2.566
72283ION    NA+43812   4.842   3.919  14.461
72284ION    NA+43813   8.699  29.886   1.251
72285ION    NA+43814  43.011  24.742  13.154
72286ION    NA+43815  17.060  16.429   3.280
72287ION    NA+43816  44.853   4.702  11.750
72288ION    NA+43817   7.850   9.925   1.580
72289ION    NA+43818  40.243  37.712   0.310
72290ION    NA+43819  26.146  35.491  12.314
72291ION    NA+43820   3.974  41.543  12.143
72292ION    NA+43821  21.799  18.579   0.479
72293ION    NA+43822  44.873   5.508   0.825
72294ION    NA+43823  15.750  28.134  13.183
72295ION    NA+43824   2.349   6.312  11.739
72296ION    NA+43825   0.566  11.809  14.316
72297ION    NA+43826  20.748   5.689  11.944
72298ION    NA+43827   8.024  30.698   4.083
72299ION    NA+43828  42.533  30.437   4.792
72300ION    NA+43829  43.033  40.463  14.792
72301ION    NA+43830  12.077  39.554  11.651
72302ION    NA+43831  35.871  37.541  13.880
72303ION    NA+43832  40.521   7.301  13.681
72304ION    NA+43833  37.927  36.720   1.482
72305ION    NA+43834  30.472  21.989  13.042
72306ION    NA+43835  11.543  11.349   0.801
72307ION    NA+43836   4.076  37.525   9.965
72308ION    NA+43837  15.565  17.302  11.811
72309ION    NA+43838  25.431  38.389  11.128
72310ION    NA+43839   8.164   3.408   1.556
72311ION    NA+43840  10.913  33.269   4.022
72312ION    NA+43841  21.135   2.758  13.076
72313ION    NA+43842  33.578  32.144   1.991
72314ION    NA+43843  19.711  24.213   3.198
72315ION    NA+43844  15.633   0.403   2.226
72316ION    NA+43845  39.713  42.306   3.690
72317ION    NA+43846  36.916  11.279  10.664
72318ION    NA+43847   9.387  40.954   4.160
72319ION    NA+43848  43.204   5.078  12.908
72320ION    NA+43849  42.949   8.669  11.659
72321ION    NA+43850  18.295  19.393   3.106
72322ION    NA+43851  22.782   1.938   2.677
72323ION    NA+43852  18.530  12.923  13.370
72324ION    NA+43853  32.228  32.896   4.118
72325ION    NA+43854  13.407  15.947  14.873
72326ION    NA+43855   2.799  39.462  13.138
72327ION    NA+43856  35.714  36.830  13.501
72328ION    NA+43857  25.446   2.770   2.149
72329ION    NA+43858  14.272  33.430   1.432
72330ION    NA+43859   6.271  43.231   0.397
72331ION    NA+43860  13.633  22.503   0.216
72332ION    NA+43861  30.914  32.178   0.846
72333ION    NA+43862   8.888  33.261  12.861
72334ION    NA+43863   7.941  36.691  13.057
72335ION    NA+43864   8.154   2.357   2.138
72336ION    NA+43865  29.828  39.542  11.696
72337ION    NA+43866  31.675  23.422  14.418
72338ION    NA+43867  24.762  44.489   1.600
72339ION    NA+43868  10.166  17.576   2.625
72340ION    NA+43869  24.457  13.356  12.802
72341ION    NA+43870  41.438  33.698  14.332
72342ION    NA+43871  38.036  11.173   1.420
72343ION    NA+43872   1.325  31.427  10.730
72344ION    NA+43873  23.977  41.463  13.895
72345ION    NA+43874   7.854  11.967   2.393
72346ION    NA+43875  30.923  32.392  11.533
72347ION    NA+43876  29.721  40.127   9.710
72348ION    NA+43877  26.155  41.925  14.907
72349ION    NA+43878  30.454  42.054  14.624
72350ION    NA+43879  12.067  42.027   2.330
72351ION    NA+43880  20.916  20.067  13.090
72352ION    NA+43881   9.115  41.166   1.714
72353ION    NA+43882  41.087  35.604   4.797
72354ION    NA+43883  42.750  29.129  11.977
72355ION    NA+43884  38.078   4.037   2.329
72356ION    NA+43885  44.463  35.211  12.201
72357ION    NA+43886   5.329  43.559  14.713
72358ION    NA+43887  11.223  12.239   4.576
72359ION    NA+43888  32.366  41.425  12.558
72360ION    NA+43889  20.353  37.581  14.481
72361ION    NA+43890  20.959  33.982  13.640
72362ION    NA+43891  41.737  38.219  10.850
72363ION    NA+43892   7.557   2.804   2.804
72364ION    NA+43893  43.534  11.733  12.157
72365ION    NA+43894  23.841  30.799  14.605
72366ION    NA+43895   8.784  35.275   0.245
72367ION    NA+43896  25.649  15.101   4.163
72368ION    NA+43897  42.779  19.222  13.597
72369ION    NA+43898  19.241  19.974   2.429
72370ION    NA+43899  43.347  15.666   5.068
72371ION    NA+43900   9.103  27.767  10.998
72372ION    NA+43901  13.316  12.320  12.179
72373ION    NA+43902   7.808  38.069  12.398
72374ION    NA+43903  16.076   4.994   0.206
72375ION    NA+43904  10.071  37.016  11.515
72376ION    NA+43905  35.836  30.067   2.804
72377ION    NA+43906  38.036  36.157   3.768
72378ION    NA+43907  22.741   5.717  12.033
72379ION    NA+43908   5.419   8.469   0.849
72380ION    NA+43909  12.245  15.408  10.731
72381ION    NA+43910  23.230  26.607   3.554
72382ION    NA+43911  11.111  44.080  12.122
72383ION    NA+43912  28.604  11.144   3.273
72384ION    NA+43913  23.372  42.645  11.336
72385ION    NA+43914   1.438  34.368  14.586
72386ION    NA+43915  31.084  21.076  10.641
72387ION    NA+43916  11.198  13.818   0.055
72388ION    NA+43917  21.386  44.743   4.158
72389ION    NA+43918  27.013  42.254   4.273
72390ION    NA+43919  30.007   4.777  13.319
72391ION    NA+43920  11.357  26.763  11.837
72392ION    NA+43921  40.908  35.717   0.558
72393ION    NA+43922  37.131  32.501   1.332
72394ION    NA+43923  18.798  21.780  12.596
72395ION    NA+43924  26.554  13.553   0.959
72396ION    NA+43925   3.829   7.118   3.355
72397ION    NA+43926   2.146   9.291  14.894
72398ION    NA+43927  17.762  40.314   2.949
72399ION    NA+43928  27.163  16.700  13.286
72400ION    NA+43929   8.490  14.361   1.703
72401ION    NA+43930  31.677  21.111   1.013
72402ION    NA+43931  43.734  17.207   3.723
72403ION    NA+43932  22.677  41.274  14.277
72404ION    NA+43933  19.639  35.810  13.144
72405ION    NA+43934  37.113  24.634   3.719
72406ION    NA+43935  10.732  23.812  10.342
72407ION    NA+43936  17.557  10.357  11.958
72408ION    NA+43937  42.640  26.431  13.990
72409ION    NA+43938  20.208   2.642  13.948
72410ION    NA+43939   3.957   4.054  10.788
72411ION    NA+43940  38.281  19.319   2.840
72412ION    NA+43941  42.846  27.313   1.787
72413ION    NA+43942  14.589   9.252   2.300
72414ION    NA+43943   8.200  14.113   0.779
72415ION    NA+43944   9.956  16.637  13.591
72416ION    NA+43945  16.820  21.417  13.835
72417ION    NA+43946  10.983  17.932  12.556
72418ION    NA+43947  26.169  41.246   1.769
72419ION    NA+43948  31.283  25.605  11.582
72420ION    NA+43949  29.122   3.328  14.714
72421ION    NA+43950   5.720   3.421   0.819
72422ION    NA+43951   3.385  14.689   0.017
72423ION    NA+43952  10.698   2.728  14.308
72424ION    NA+43953  40.570  17.750   1.981
72425ION    NA+43954  15.551  37.585   2.228
72426ION    NA+43955  23.524  27.956  10.726
72427ION    NA+43956  10.533   6.922  11.915
72428ION    NA+43957   5.579   1.354  12.145
72429ION    NA+43958  23.741   2.427  11.585
72430ION    NA+43959  26.221   1.208  13.032
72431ION    NA+43960  28.419  29.998  13.397
72432ION    NA+43961   3.322  29.643   0.385
72433ION    NA+43962  38.906  24.417  11.217
72434ION    NA+43963   7.992  17.996   1.383
72435ION    NA+43964   0.760  35.915  10.727
72436ION    NA+43965  16.080  16.581   3.418
72437ION    NA+43966  24.731  26.314   1.328
72438ION    NA+43967  24.719  17.333   3.930
72439ION    NA+43968   0.699  30.509   0.352
72440ION    NA+43969   1.398  35.112  10.750
72441ION    NA+43970  29.474  41.444  14.040
72442ION    NA+43971  22.376  22.159  12.490
72443ION    NA+43972   9.398  24.810   2.464
72444ION    NA+43973  10.593  41.575   1.587
72445ION    NA+43974  19.246   3.145   0.372
72446ION    NA+43975  12.220  25.524   3.972
72447ION    NA+43976  11.917  19.338  11.145
72448ION    NA+43977  24.017  44.225   0.742
72449ION    NA+43978  43.273  43.606  12.544
72450ION    NA+43979  18.405  32.901  12.954
72451ION    NA+43980  44.031   1.790  10.545
72452ION    NA+43981  12.087  32.909   0.292
72453ION    NA+43982  19.606  23.786   5.112
72454ION    NA+43983  19.976  14.792   3.555
72455ION    NA+43984  27.475  21.949  11.904
72456ION    NA+43985  14.551  30.763  13.974
72457ION    NA+43986  15.183  21.454  11.912
72458ION    NA+43987  24.601  14.392   2.331
72459ION    NA+43988  19.637  25.614  10.537
72460ION    NA+43989  33.525  31.381   4.098
72461ION    NA+43990  28.268  38.568  14.974
72462ION    NA+43991  38.769  14.344  13.737
72463ION    NA+43992  22.621   1.296  10.656
72464ION    NA+43993  43.943  15.772   2.853
72465ION    NA+43994   8.943  15.564  11.589
72466ION    NA+43995   9.840  34.590   1.705
72467ION    NA+43996  11.796  33.666  12.892
72468ION    NA+43997  10.177  21.170   3.850
72469ION    NA+43998  23.865  18.822   0.345
72470ION    NA+43999  23.799  14.794  14.390
72471ION    NA+44000  38.549   6.269   2.126
72472ION    NA+44001   2.228  33.460   2.504
72473ION    NA+44002  15.885  26.766  12.969
72474ION    NA+44003  30.497  29.013   1.029
72475ION    NA+44004  34.318  39.772   1.196
72476ION    NA+44005  18.751  30.694   0.247
72477ION    NA+44006   0.497   0.746   3.167
72478ION    NA+44007  29.981  25.422  13.625
72479ION    NA+44008   9.224  25.141   1.335
72480ION    NA+44009  18.093   9.059  14.784
72481ION    NA+44010  22.253  33.010   4.120
72482ION    NA+44011   7.392  43.964  11.084
72483ION    NA+44012  40.675  41.974   4.141
72484ION    NA+44013  12.958  27.408   1.754
72485ION    NA+44014  18.258   6.434  13.749
72486ION    NA+44015  18.062  17.248  13.294
72487ION    NA+44016  25.933  36.995  13.462
72488ION    NA+44017  40.590  14.314   1.728
72489ION    NA+44018  43.554  23.531   3.151
72490ION    NA+44019  25.180  27.490   3.690
72491ION    NA+44020  12.193  18.202   1.904
72492ION    NA+44021  43.706  42.735   0.435
72493ION    NA+44022   9.232   6.113  11.184
72494ION    NA+44023  20.025  11.887  10.786
72495ION    NA+44024  15.391  42.557  12.437
72496ION    NA+44025   1.388  13.139  10.623
72497ION    NA+44026   2.567  33.973   1.017
72498ION    NA+44027  27.300  22.469   4.110
72499ION    NA+44028   2.171   2.375  14.067
72500ION    NA+44029  11.111   9.865  11.597
72501ION    NA+44030  40.008  26.574   3.013
72502ION    NA+44031  28.956  35.483  13.867
72503ION    NA+44032  35.194   5.633   3.467
72504ION    NA+44033  13.045  26.112   2.073
72505ION    NA+44034  31.030   3.533   2.731
72506ION    NA+44035  35.008  31.067   3.290
72507ION    NA+44036  17.694  20.066   4.171
72508ION    NA+44037   9.927  14.059  10.665
72509ION    NA+44038  12.497  14.219   3.592
72510ION    NA+44039  39.929  35.046   4.124
72511ION    NA+44040  44.789   5.932   2.997
72512ION    NA+44041  39.075  38.753   1.481
72513ION    NA+44042  37.051  20.348  13.826
72514ION    NA+44043  12.275  19.808  11.831
72515ION    NA+44044   1.828  25.829   2.845
72516ION    NA+44045  17.538  13.648   3.345
72517ION    NA+44046  16.205  30.843  14.359
72518ION    NA+44047  31.522  20.059   2.401
72519ION    NA+44048  31.572  40.121   4.050
72520ION    NA+44049   7.218  44.401   4.630
72521ION    NA+44050  33.575  23.762  13.150
72522ION    NA+44051  17.886   3.261  13.207
72523ION    NA+44052  38.942  16.723   0.986
72524ION    NA+44053   9.671  12.214   3.172
72525ION    NA+44054  18.441  20.189  14.640
72526ION    NA+44055   2.886  20.887   1.135
72527ION    NA+44056  37.126  33.577  14.159
72528ION    NA+44057  20.615  17.200  11.150
72529ION    NA+44058  12.142  11.622  14.494
72530ION    NA+44059  13.175  10.983  12.198
72531ION    NA+44060  18.511   9.543  14.599
72532ION    NA+44061  16.018   0.627   9.868
72533ION    NA+44062  25.055  24.839  11.090
72534ION    NA+44063  25.549   5.858  13.613
72535ION    NA+44064  22.441  28.670   0.857
72536ION    NA+44065  20.384   7.069  11.801
72537ION    NA+44066   3.441  21.118   2.547
72538ION    NA+44067  17.792  16.197  14.834
72539ION    NA+44068  15.729  26.464  14.350
72540ION    NA+44069  40.736  10.471   1.885
72541ION    NA+44070  26.916  30.533   4.122
72542ION    NA+44071  38.825  37.807   4.235
72543ION    NA+44072  14.550  40.536  12.640
72544ION    NA+44073  43.384   8.167   3.189
72545ION    NA+44074  18.819   9.416  12.732
72546ION    NA+44075  29.948   1.833  12.191
72547ION    NA+44076  18.722   5.075   4.523
72548ION    NA+44077  43.155   2.015   3.730
72549ION    NA+44078  20.277  19.733  11.775
72550ION    NA+44079  41.873  40.530   5.031
72551ION    NA+44080   3.452   5.021   3.472
72552ION    NA+44081   1.328   3.576  11.379
72553ION    NA+44082  23.636  38.510   2.860
72554ION    NA+44083  38.790  28.661   3.737
72555ION    NA+44084   0.030  15.064   2.897
72556ION    NA+44085  31.767  15.199  12.485
72557ION    NA+44086  16.334  13.056   4.728
72558ION    NA+44087  27.814  22.229  14.008
72559ION    NA+44088   4.423  31.550   1.629
72560ION    NA+44089   2.066   1.012  11.129
72561ION    NA+44090  10.302  27.465   2.653
72562ION    NA+44091  31.854  25.071  10.959
72563ION    NA+44092  29.356  37.947   3.772
72564ION    NA+44093  20.786  27.186   0.362
72565ION    NA+44094  14.272  30.549   3.023
72566ION    NA+44095  30.282  17.288  10.384
72567ION    NA+44096  21.077   2.406  10.458
72568ION    NA+44097  33.118   7.153  13.517
72569ION    NA+44098  25.653   5.068   4.335
72570ION    NA+44099  22.073  18.370  12.115
72571ION    NA+44100  32.875  40.461   0.971
72572ION    NA+44101  36.985  29.729  11.072
72573ION    NA+44102   3.810  15.298  14.346
72574ION    NA+44103   8.326  19.586  14.406
72575ION    NA+44104  26.020  41.795   3.603
72576ION    NA+44105  27.913   5.545  12.353
72577ION    NA+44106   4.111  40.644   4.983
72578ION    NA+44107  33.201   1.393   3.588
72579ION    NA+44108  16.782  15.656  14.266
72580ION    NA+44109  18.826   1.570  11.121
72581ION    NA+44110  41.439  19.755  10.725
72582ION    NA+44111   7.266  31.581   1.662
72583ION    NA+44112  24.109  33.386  11.402
72584ION    NA+44113  21.541  35.937  14.651
72585ION    NA+44114  16.109  30.409  11.901
72586ION    NA+44115  28.710   2.057  12.749
72587ION    NA+44116  31.273  11.281   2.505
72588ION    NA+44117  13.046  19.299  12.215
72589ION    NA+44118  30.882  37.837   4.776
72590ION    NA+44119  42.614   2.481   1.367
72591ION    NA+44120  42.565   1.311  12.059
72592ION    NA+44121  12.107   5.137  13.026
72593ION    NA+44122  37.595  40.267  11.207
72594ION    NA+44123  14.140  21.138   3.339
72595ION    NA+44124  23.119  22.736  11.864
72596ION    NA+44125  32.210  12.301  14.633
72597ION    NA+44126  43.752  13.510   3.226
72598ION    NA+44127   9.929  16.605  11.128
72599ION    NA+44128  16.023   4.156   4.314
72600ION    NA+44129  41.983  39.188  10.838
72601ION    NA+44130  24.721  16.698  12.509
72602ION    NA+44131  16.456  25.292   2.120
72603ION    NA+44132   1.941  24.276   2.345
72604ION    NA+44133  38.803   0.851  13.498
72605ION    NA+44134  19.684  32.473   0.813
72606ION    NA+44135  20.661   6.446   1.405
72607ION    NA+44136  34.918  33.556  14.892
72608ION    NA+44137  25.143  37.197   2.407
72609ION    NA+44138  44.344  20.740  11.475
72610ION    NA+44139  26.110  36.425  11.959
72611ION    NA+44140  31.059  39.199   4.659
72612ION    NA+44141  25.209  22.762   1.196
72613ION    NA+44142  10.416  33.957   2.223
72614ION    NA+44143   9.998  12.384   1.944
72615ION    NA+44144  17.862  14.385  10.586
72616ION    NA+44145  30.125  23.583  12.084
72617ION    NA+44146   0.429  36.715  14.173
72618ION    NA+44147  30.581  22.024   3.929
72619ION    NA+44148  15.481   1.790  12.994
72620ION    NA+44149  21.221  25.516   0.807
72621ION    NA+44150  24.414  16.751   4.608
72622ION    NA+44151  14.713  21.056   1.857
72623ION    NA+44152  25.614  10.820  12.474
72624ION    NA+44153  14.154  15.384   0.880
72625ION    NA+44154  19.579  33.850   1.300
72626ION    NA+44155   3.429  36.706   1.928
72627ION    NA+44156   0.747  18.384  12.506
72628ION    NA+44157  24.700   0.978  12.733
72629ION    NA+44158  15.820   6.313   4.628
72630ION    NA+44159  30.865  39.443  11.199
72631ION    NA+44160  20.833  34.843  14.747
72632ION    NA+44161  12.460  40.258   3.887
72633ION    NA+44162  44.507  43.456  12.870
72634ION    NA+44163  19.227  37.468  12.696
72635ION    NA+44164  32.667  41.408   1.216
72636ION    NA+44165   7.172  40.913  13.505
72637ION    NA+44166  31.069  33.186   0.698
72638ION    NA+44167  39.815  44.521   0.361
72639ION    NA+44168  25.945  35.269  11.359
72640ION    NA+44169  36.079  25.963   2.912
72641ION    NA+44170  12.842   5.758  12.609
72642ION    NA+44171  12.310  32.940   3.671
72643ION    NA+44172  28.123   3.366  14.694
72644ION    NA+44173  25.586   6.295   1.492
72645ION    NA+44174  36.849  20.816  14.830
72646ION    NA+44175  11.468  20.425  12.476
72647ION    NA+44176  31.020  10.867   0.891
72648ION    NA+44177  19.239  29.173   2.460
72649ION    NA+44178  24.568  14.226  12.212
72650ION    NA+44179  10.992   6.404  12.637
72651ION    NA+44180  16.356   0.892  12.228
72652ION    NA+44181   4.080  39.341   1.304
72653ION    NA+44182  19.532  12.458  12.170
72654ION    NA+44183  31.155   8.945   3.496
72655ION    NA+44184  20.684   6.002  12.892
72656ION    NA+44185  33.882  23.982   0.373
72657ION    NA+44186  14.209  27.613   3.203
72658ION    NA+44187  11.272  34.188   4.187
72659ION    NA+44188  14.042   6.511   3.225
72660ION    NA+44189  19.771  38.546   4.269
72661ION    NA+44190   0.768  44.096   1.308
72662ION    NA+44191  29.808  28.538  14.256
72663ION    NA+44192  29.280  13.351   1.487
72664ION    NA+44193  12.169  13.727   4.641
72665ION    NA+44194  24.027  43.971   4.620
72666ION    NA+44195  32.071  24.264   9.768
72667ION    NA+44196  10.635  24.234  11.244
72668ION    NA+44197  22.585  38.356   1.170
72669ION    NA+44198   9.222   4.881   2.630
72670ION    NA+44199  25.252  28.470   2.749
72671ION    NA+44200   4.418  12.858   4.130
72672ION    NA+44201  37.575  34.383  13.772
72673ION    NA+44202  27.407   3.014   0.503
72674ION    NA+44203  44.150  26.599   4.690
72675ION    NA+44204  42.712  14.622   3.248
72676ION    NA+44205   2.776  18.063  12.422
72677ION    NA+44206   6.554  39.157   4.095
72678ION    NA+44207  39.391   6.806  12.587
72679ION    NA+44208   7.172  37.351  13.543
72680ION    NA+44209  35.947  12.328   1.657
72681ION    NA+44210  14.400  39.953   1.777
72682ION    NA+44211  33.130  36.781  10.756
72683ION    NA+44212  34.771  23.827  13.026
72684ION    NA+44213   2.671  37.570   4.583
72685ION    NA+44214   0.989  37.262   3.669
72686ION    NA+44215  43.298  21.560  14.069
72687ION    NA+44216   6.844   6.597   1.798
72688ION    NA+44217  12.803  43.313   4.226
72689ION    NA+44218  25.877  28.539  12.885
72690ION    NA+44219  36.856   4.013  13.423
72691ION    NA+44220  27.120   9.692  13.565
72692ION    NA+44221  12.780  33.004  11.073
72693ION    NA+44222  20.669  10.603  13.823
72694ION    NA+44223   5.896   7.264   2.765
72695ION    NA+44224   8.671  42.435   1.518
72696ION    NA+44225  19.210  27.965  11.948
72697ION    NA+44226   4.157  18.654  10.562
72698ION    NA+44227   6.414   5.730   1.547
72699ION    NA+44228   6.292  27.854  14.785
72700ION    NA+44229  16.075  18.557   1.663
72701ION    NA+44230  25.170  28.991  12.722
72702ION    NA+44231  30.958  12.532   1.726
72703ION    NA+44232  31.442  17.839  11.796
72704ION    NA+44233  15.768   7.167  10.222
72705ION    NA+44234  11.919  44.856  11.436
72706ION    NA+44235  34.400  35.997  12.169
72707ION    NA+44236  42.197   2.974  13.653
72708ION    NA+44237   5.466  33.542   0.186
72709ION    NA+44238   6.051  40.455   0.683
72710ION    NA+44239  25.999  19.559  13.844
72711ION    NA+44240  29.813  24.310  11.141
72712ION    NA+44241   7.210   3.351   1.979
72713ION    NA+44242  17.331  32.841   2.226
72714ION    NA+44243  41.915  32.205   3.603
72715ION    NA+44244  11.604   4.299  12.623
72716ION    NA+44245  29.893  24.748   1.796
72717ION    NA+44246  40.073  23.479  11.866
72718ION    NA+44247  13.824  14.273  11.614
72719ION    NA+44248  37.610  32.352   3.774
72720ION    NA+44249   2.382  16.649   1.489
72721ION    NA+44250  22.782  42.762  10.066
72722ION    NA+44251  18.650   8.150  12.621
72723ION    NA+44252  26.860  30.343   1.907
72724ION    NA+44253  39.370  20.783   0.723
72725ION    NA+44254   4.441  38.113  10.577
72726ION    NA+44255  14.312   5.548   3.217
72727ION    NA+44256   0.410  41.171  13.422
72728ION    NA+44257   2.339  39.596   4.210
72729ION    NA+44258  13.562  12.888  14.796
72730ION    NA+44259  29.737  31.789   4.551
72731ION    NA+44260  36.297  37.820   0.726
72732ION    NA+44261  17.861  34.159   4.060
72733ION    NA+44262   7.319  26.668   4.604
72734ION    NA+44263   2.213   9.040  10.898
72735ION    NA+44264  39.866  17.026  14.871
72736ION    NA+44265  34.474   1.434   0.225
72737ION    NA+44266  42.938  23.413  12.363
72738ION    NA+44267  24.439  44.483   9.860
72739ION    NA+44268  11.102  25.091   0.480
72740ION    NA+44269   6.212   2.145  12.629
72741ION    NA+44270  16.740  36.769   0.020
72742ION    NA+44271  38.306  14.619  13.006
72743ION    NA+44272   4.022  26.993  14.153
72744ION    NA+44273   7.494   0.540   3.293
72745ION    NA+44274  13.744  41.304   3.014
72746ION    NA+44275  33.473  40.780   3.398
72747ION    NA+44276  32.689  33.275  11.537
72748ION    NA+44277  32.163  37.836   4.887
72749ION    NA+44278  26.896  23.010   3.325
72750ION    NA+44279   8.775  35.264   2.644
72751ION    NA+44280  17.961  30.167  10.849
72752ION    NA+44281  21.676   1.738  14.026
72753ION    NA+44282  17.781   9.851  10.375
72754ION    NA+44283  10.490   1.668   5.366
72755ION    NA+44284  21.866  41.230  13.344
72756ION    NA+44285  36.008  35.898  11.988
72757ION    NA+44286  39.007   1.340   4.089
72758ION    NA+44287  40.934  13.485  11.899
72759ION    NA+44288  37.159   6.292   4.333
72760ION    NA+44289  29.884   9.883  13.977
72761ION    NA+44290  18.809   9.251  11.610
72762ION    NA+44291  24.603   9.994  14.480
72763ION    NA+44292  41.837   9.326   0.237
72764ION    NA+44293  41.040  37.507   4.213
72765ION    NA+44294   5.994   0.242   1.189
72766ION    NA+44295  24.039   8.624  12.509
72767ION    NA+44296  21.871  36.510   0.402
72768ION    NA+44297  26.205  31.913   0.820
72769ION    NA+44298  26.324   4.278   0.050
72770ION    NA+44299  29.628  40.761  14.925
72771ION    NA+44300  17.749   7.859  12.942
72772ION    NA+44301  29.014  44.425  14.919
72773ION    NA+44302  36.166  34.421   3.395
72774ION    NA+44303   2.246  23.550   1.729
72775ION    NA+44304  15.069  19.583   4.193
72776ION    NA+44305   7.417  22.393   5.192
72777ION    NA+44306   8.243  29.421  14.945
72778ION    NA+44307  40.308  10.446  14.022
72779ION    NA+44308   2.906  23.306  12.223
72780ION    NA+44309  27.109   1.482   3.744
72781ION    NA+44310  19.516  12.384   1.303
72782ION    NA+44311  21.285  21.854  13.158
72783ION    NA+44312  29.888  26.027   3.608
72784ION    NA+44313  33.906   1.406   3.060
72785ION    NA+44314  14.507  43.305   0.351
72786ION    NA+44315  24.862  25.327   1.423
72787ION    NA+44316  23.695  32.380  13.993
72788ION    NA+44317  10.344  18.287   2.278
72789ION    NA+44318  20.752   8.344   0.247
72790ION    NA+44319  44.383  32.881   4.062
72791ION    NA+44320   0.994  28.507   1.590
72792ION    NA+44321  41.347  36.335   4.167
72793ION    NA+44322   1.226  16.390  12.758
72794ION    NA+44323  32.680  35.091   2.207
72795ION    NA+44324  24.441  29.587  13.762
72796ION    NA+44325  22.130  17.641  11.433
72797ION    NA+44326  31.907  13.791  12.876
72798ION    NA+44327  10.623   9.835   1.875
72799ION    NA+44328  12.231  25.907   1.523
72800ION    NA+44329  32.639  27.565   0.825
72801ION    NA+44330   9.320   5.169  13.295
72802ION    NA+44331   1.664   0.501   0.485
72803ION    NA+44332  21.737  16.815  13.424
72804ION    NA+44333   7.453   7.386  11.658
72805ION    NA+44334  42.165   6.837  11.595
72806ION    NA+44335  40.490  36.956  11.850
72807ION    NA+44336  33.438  38.395  13.432
72808ION    NA+44337  15.857  14.859   0.530
72809ION    NA+44338  37.332  12.433   2.943
72810ION    NA+44339  25.363   1.904   3.229
72811ION    NA+44340  40.813  12.926   0.754
72812ION    NA+44341  11.185   1.264   1.258
72813ION    NA+44342  24.526  19.123   4.670
72814ION    NA+44343  14.201  31.576   3.136
72815ION    NA+44344  41.447   9.404  13.054
72816ION    NA+44345   5.316  28.425   0.813
72817ION    NA+44346   7.702  29.691   3.830
72818ION    NA+44347   3.330   9.264  12.468
72819ION    NA+44348  35.249  25.836   4.394
72820ION    NA+44349  12.378  12.586  12.570
72821ION    NA+44350  38.307   4.486   0.664
72822ION    NA+44351   8.644   6.588   4.007
72823ION    NA+44352   8.750  44.629  12.620
72824ION    NA+44353  34.538  13.775   0.003
72825ION    NA+44354  20.332  44.289   4.837
72826ION    NA+44355  16.846  39.949  14.691
72827ION    NA+44356  11.006  41.256   4.776
72828ION    NA+44357   9.723  24.416   1.211
72829ION    NA+44358  22.460  34.844  14.110
72830ION    NA+44359  23.800   1.164   3.275
72831ION    NA+44360  29.198   8.378   2.353
72832ION    NA+44361  26.342  32.434   2.357
72833ION    NA+44362  22.615  16.323  13.604
72834ION    NA+44363  14.876  28.172  12.016
72835ION    NA+44364   5.025   5.241   0.337
72836ION    NA+44365  42.204  30.053  11.522
72837ION    NA+44366  19.607   3.159   3.623
72838ION    NA+44367  27.544  26.674   4.702
72839ION    NA+44368  34.788  33.393  11.601
72840ION    NA+44369  25.126  37.275   5.067
72841ION    NA+44370  18.289  24.706   3.799
72842ION    NA+44371  19.534  19.169   3.871
72843ION    NA+44372  19.263  17.416   0.893
72844ION    NA+44373  22.004  19.205   1.858
72845ION    NA+44374  31.568  37.657  14.771
72846ION    NA+44375  38.720  36.292   0.768
72847ION    NA+44376  22.014  39.360  11.548
72848ION    NA+44377  30.065  37.280  13.887
72849ION    NA+44378  26.178  35.181   0.446
72850ION    NA+44379   2.299   7.403   1.479
72851ION    NA+44380   6.348   5.713  10.583
72852ION    NA+44381  32.271   3.576   0.055
72853ION    NA+44382  36.146  23.385  12.783
72854ION    NA+44383  18.790  39.460  14.521
72855ION    NA+44384  42.270  27.642  11.017
72856ION    NA+44385  42.245  16.322  14.541
72857ION    NA+44386  23.858  10.702  12.227
72858ION    NA+44387  22.128   5.648   0.789
72859ION    NA+44388  41.965   5.465  13.079
72860ION    NA+44389  24.690   0.991   0.225
72861ION    NA+44390  11.500  42.853   1.348
72862ION    NA+44391  20.770  37.206   4.789
72863ION    NA+44392   1.528  40.664  14.406
72864ION    NA+44393  16.132  39.751   0.237
72865ION    NA+44394  21.999   2.383   0.703
72866ION    NA+44395  38.438  34.855   4.398
72867ION    NA+44396   3.699   6.798  13.805
72868ION    NA+44397   3.388  40.705  12.063
72869ION    NA+44398  19.653  38.808  10.298
72870ION    NA+44399   3.916  37.598   2.103
72871ION    NA+44400   8.704  35.295  13.065
72872ION    NA+44401   3.998  21.534   4.680
72873ION    NA+44402   4.986  36.514   0.907
72874ION    NA+44403  20.285  42.968   3.215
72875ION    NA+44404  27.040  29.505   0.554
72876ION    NA+44405  39.079  33.775   0.167
72877ION    NA+44406  24.955  24.198   0.727
72878ION    NA+44407  38.483   2.069  10.999
72879ION    NA+44408   9.863  19.904   0.750
72880ION    NA+44409  33.069  43.132  13.224
72881ION    NA+44410  27.817  28.825   3.856
72882ION    NA+44411  39.703  44.202  13.473
72883ION    NA+44412  15.174   3.919  14.279
72884ION    NA+44413  35.754  29.384  12.852
72885ION    NA+44414  43.195  28.398   2.906
72886ION    NA+44415  17.749   7.201   2.373
72887ION    NA+44416   5.427  20.961   5.548
72888ION    NA+44417  41.539  16.786   0.089
72889ION    NA+44418  22.470  37.358  10.885
72890ION    NA+44419  18.215  35.334  10.721
72891ION    NA+44420   3.942  11.572  14.901
72892ION    NA+44421  11.355  35.276  12.739
72893ION    NA+44422  34.382  30.229  10.720
72894ION    NA+44423  17.089   2.498  13.496
72895ION    NA+44424  22.755  21.427  12.063
72896ION    NA+44425   0.804  16.866  13.529
72897ION    NA+44426  15.600  12.274   1.945
72898ION    NA+44427  38.498  25.141  13.442
72899ION    NA+44428  32.715  15.075   5.094
72900ION    NA+44429  27.662  25.831  14.215
72901ION    NA+44430   2.877  37.662   0.957
72902ION    NA+44431  24.694  31.441   2.312
72903ION    NA+44432   4.373  40.185  11.138
72904ION    NA+44433   5.738  39.583  12.438
72905ION    NA+44434  29.980  10.359  14.852
72906ION    NA+44435  35.795  26.578  12.273
72907ION    NA+44436  11.547  38.153   4.278
72908ION    NA+44437  17.178  22.661  10.838
72909ION    NA+44438  43.419  22.260   2.141
72910ION    NA+44439  13.623   1.185   0.001
72911ION    NA+44440  14.205  21.482  12.115
72912ION    NA+44441  11.168  36.196  12.395
72913ION    NA+44442   1.536  31.827   2.961
72914ION    NA+44443  32.601   3.292   2.375
72915ION    NA+44444  13.582  11.924   0.061
72916ION    NA+44445  42.973  32.941  14.698
72917ION    NA+44446   2.237   8.164  10.679
72918ION    NA+44447   1.524  17.152   1.388
72919ION    NA+44448  22.689  39.924  13.409
72920ION    NA+44449  44.902  29.320   3.696
72921ION    NA+44450  41.054  40.301   3.759
72922ION    NA+44451  19.534  36.100   4.994
72923ION    NA+44452  22.836  11.640   2.725
72924ION    NA+44453  40.273   8.665   2.687
72925ION    NA+44454  35.266  35.278  12.241
72926ION    NA+44455  25.016   3.757   3.737
72927ION    NA+44456  33.564  42.579   0.502
72928ION    NA+44457  31.496  18.985  13.429
72929ION    NA+44458  34.574  17.101  12.038
72930ION    NA+44459  25.755  34.257   0.514
72931ION    NA+44460  36.178   2.103  11.991
72932ION    NA+44461  40.110  43.772  10.971
72933ION    NA+44462  31.604  13.638   4.410
72934ION    NA+44463  16.324  27.500  13.175
72935ION    NA+44464  42.579  11.413   4.254
72936ION    NA+44465  29.976  40.044   0.529
72937ION    NA+44466  38.604  27.426   3.224
72938ION    NA+44467  28.148  15.865   2.634
72939ION    NA+44468   5.564  41.174   0.907
72940ION    NA+44469  17.402  27.731  14.926
72941ION    NA+44470  12.741  22.955  13.537
72942ION    NA+44471  40.919  37.661   2.921
72943ION    NA+44472   1.050  24.243   1.893
72944ION    NA+44473  15.028  33.534   0.707
72945ION    NA+44474  19.693  30.951   1.744
72946ION    NA+44475  29.058  14.390   4.134
72947ION    NA+44476  43.748  23.837  10.627
72948ION    NA+44477  32.624  31.787  13.169
72949ION    NA+44478  26.462  23.272   4.246
72950ION    NA+44479  31.154  32.049  13.628
72951ION    NA+44480  13.188  38.096  14.961
72952ION    NA+44481  42.559  32.563  12.680
72953ION    NA+44482  37.295  31.897  11.560
72954ION    NA+44483  35.148  40.321  11.516
72955ION    NA+44484  34.786   6.615  12.897
72956ION    NA+44485  44.636  35.486   1.905
72957ION    NA+44486  38.593  22.499  10.980
72958ION    NA+44487  44.067  43.574  14.872
72959ION    NA+44488  43.404  25.649   4.710
72960ION    NA+44489  23.667  29.721  11.130
72961ION    NA+44490   8.937   7.185   0.360
72962ION    NA+44491  27.418  25.615   1.317
72963ION    NA+44492   8.762  43.653  12.403
72964ION    NA+44493  10.143  21.164   2.712
72965ION    NA+44494   4.850  38.981  12.165
72966ION    NA+44495   0.936  36.338  12.542
72967ION    NA+44496   6.242   1.740  14.995
72968ION    NA+44497  17.938   5.602  11.164
72969ION    NA+44498  34.441  42.841  14.273
72970ION    NA+44499  28.327  31.356  11.143
72971ION    NA+44500  12.845   6.421  11.861
72972ION    NA+44501  33.081  15.039   3.713
72973ION    NA+44502   4.700  29.629   4.146
72974ION    NA+44503  23.161  22.549   4.402
72975ION    NA+44504  20.863  18.917   0.382
72976ION    NA+44505  23.719  24.661   1.491
72977ION    NA+44506   6.961  25.480   0.759
72978ION    NA+44507  36.130  12.972  11.713
72979ION    NA+44508  15.616  17.333   1.979
72980ION    NA+44509  36.963  20.940   1.020
72981ION    NA+44510  25.728  12.079  11.130
72982ION    NA+44511  12.227  34.606   2.451
72983ION    NA+44512  30.212  29.056   0.010
72984ION    NA+44513  19.042  40.120  11.131
72985ION    NA+44514   3.286   2.973  14.901
72986ION    NA+44515  20.676  22.761   3.653
72987ION    NA+44516  43.064   0.272   9.822
72988ION    NA+44517  20.956   3.664   1.505
72989ION    NA+44518  42.380   2.864  12.634
72990ION    NA+44519  33.382  21.566  12.451
72991ION    NA+44520  26.416  37.443   2.367
72992ION    NA+44521  38.808  14.628   3.864
72993ION    NA+44522  37.310  30.068   4.170
72994ION    NA+44523  29.775  25.584  11.325
72995ION    NA+44524  44.877   0.951   2.386
72996ION    NA+44525  36.543   7.410   2.106
72997ION    NA+44526  31.119   0.157   2.105
72998ION    NA+44527   0.850   0.476   0.916
72999ION    NA+44528  32.523  11.598   3.294
73000ION    NA+44529   0.506   5.224   3.034
73001ION    NA+44530  10.260  38.881  14.238
73002ION    NA+44531   7.154  16.616   2.227
73003ION    NA+44532  43.201  31.793   0.350
73004ION    NA+44533  21.960   6.072   1.570
73005ION    NA+44534   8.283   4.415  14.509
73006ION    NA+44535  24.131  15.114   3.416
73007ION    NA+44536  27.251   7.162  14.958
73008ION    NA+44537   1.785  19.460   0.881
73009ION    NA+44538   9.535  22.792  14.419
73010ION    NA+44539  29.393  39.257   0.327
73011ION    NA+44540   6.221  33.759   0.805
73012ION    NA+44541  42.879   9.938   2.747
73013ION    NA+44542   2.543  15.530  13.461
73014ION    NA+44543  44.745  15.658  13.375
73015ION    NA+44544  25.605  11.823   0.077
73016ION    NA+44545  38.419  37.200   2.533
73017ION    NA+44546  33.856  10.235   3.164
73018ION    NA+44547   3.207  24.646   4.891
73019ION    NA+44548  31.439  36.977  11.998
73020ION    NA+44549  20.967  22.745  12.436
73021ION    NA+44550   6.170  27.742   1.149
73022ION    NA+44551  10.317  23.136   2.485
73023ION    NA+44552   6.337   2.325   3.298
73024ION    NA+44553   4.537  17.198  14.915
73025ION    NA+44554   7.171  29.682  12.162
73026ION    NA+44555  42.556  23.854  13.229
73027ION    NA+44556   0.983  26.171  12.177
73028ION    NA+44557  10.373  16.984  14.318
73029ION    NA+44558  20.949   8.678   2.669
73030ION    NA+44559  32.495  16.823   3.020
73031ION    NA+44560  43.105  32.037   1.201
73032ION    NA+44561  12.849  25.713  12.125
73033ION    NA+44562  16.312  28.915  10.704
73034ION    NA+44563  39.947  43.968   4.112
73035ION    NA+44564  24.061  39.460  13.430
73036ION    NA+44565  28.154  41.040  12.684
73037ION    NA+44566   1.776  26.633   2.086
73038ION    NA+44567  24.055  25.380  10.748
73039ION    NA+44568  26.411  23.521   9.473
73040ION    NA+44569  30.409   2.622  11.342
73041ION    NA+44570  30.959  12.263  13.681
73042ION    NA+44571  21.516  29.254   2.258
73043ION    NA+44572  44.208   4.275  13.526
73044ION    NA+44573  40.371  35.176  12.461
73045ION    NA+44574   0.974  41.426  14.742
73046ION    NA+44575  23.872  38.479  11.793
73047ION    NA+44576  27.244  12.038  14.922
73048ION    NA+44577  30.493  39.382   3.196
73049ION    NA+44578  27.516  21.536  13.351
73050ION    NA+44579  44.065  21.491  10.756
73051ION    NA+44580   8.447  22.626  14.589
73052ION    NA+44581  41.728  31.369   3.312
73053ION    NA+44582  20.198  11.844   0.720
73054ION    NA+44583  20.568  17.180  12.534
73055ION    NA+44584  33.923   1.184   4.187
73056ION    NA+44585  32.795   0.243   1.837
73057ION    NA+44586   9.625  31.929  13.727
73058ION    NA+44587  10.738   7.888   0.266
73059ION    NA+44588  16.470   0.390  14.485
73060ION    NA+44589  14.769  15.875   1.337
73061ION    NA+44590  32.428  26.504   2.318
73062ION    NA+44591  26.622  12.690  10.859
73063ION    NA+44592  36.308  32.702  13.993
73064ION    NA+44593  36.115  38.267   3.520
73065ION    NA+44594   3.527   4.211   3.039
73066ION    NA+44595  11.448  31.225  14.018
73067ION    NA+44596  42.083  34.395   2.575
73068ION    NA+44597  14.269  37.739   3.081
73069ION    NA+44598   9.919   1.239   3.659
73070ION    NA+44599  29.032   5.240   4.125
73071ION    NA+44600  31.686  38.476   2.903
73072ION    NA+44601  20.805  15.268   4.705
73073ION    NA+44602  42.425  32.507  11.311
73074ION    NA+44603   7.086  25.108  14.407
73075ION    NA+44604  17.492  19.220   3.676
73076ION    NA+44605   2.459   3.214   3.914
73077ION    NA+44606   3.421   4.440   4.682
73078ION    NA+44607  21.758   4.709   1.869
73079ION    NA+44608  37.429   3.718   1.395
73080ION    NA+44609  29.241  19.569   2.164
73081ION    NA+44610  25.743  21.836  13.052
73082ION    NA+44611  11.346  13.095  11.522
73083ION    NA+44612  20.082   3.157  12.601
73084ION    NA+44613  11.688  40.945   5.315
73085ION    NA+44614  41.016  25.611  12.584
73086ION    NA+44615  28.478   0.552  13.604
73087ION    NA+44616  42.600  20.095  12.997
73088ION    NA+44617   2.976   7.085  11.839
73089ION    NA+44618   9.418  20.093  14.605
73090ION    NA+44619   5.647  28.710  12.023
73091ION    NA+44620  20.622  17.872  14.836
73092ION    NA+44621   0.586  32.045   2.092
73093ION    NA+44622  24.057   1.315  10.286
73094ION    NA+44623   5.398   3.920   4.562
73095ION    NA+44624  27.630   9.522   1.223
73096ION    NA+44625  23.084  40.589   4.133
73097ION    NA+44626  13.493   3.457  11.476
73098ION    NA+44627  21.238  14.481   3.203
73099ION    NA+44628  19.311  14.382  14.260
73100ION    NA+44629  18.518  43.252   0.516
73101ION    NA+44630  26.092   0.488   4.611
73102ION    NA+44631  16.842  29.850   3.286
73103ION    NA+44632  24.404   7.696  13.637
73104ION    NA+44633  13.338  31.434  12.652
73105ION    NA+44634  11.436  24.829   1.727
73106ION    NA+44635   4.697  29.878   1.627
73107ION    NA+44636   3.332  13.030   0.322
73108ION    NA+44637  10.643  26.198  12.805
73109ION    NA+44638   8.876  19.061  13.429
73110ION    NA+44639   3.615  20.993  11.353
73111ION    NA+44640  32.107  35.391  10.749
73112ION    NA+44641  42.873  29.754   2.433
73113ION    NA+44642  25.668   9.006   4.281
73114ION    NA+44643  15.274  34.472  12.543
73115ION    NA+44644  11.568   2.619  10.659
73116ION    NA+44645  24.669  27.873  14.732
73117ION    NA+44646  13.590   0.051  12.892
73118ION    NA+44647   7.409  15.689   2.748
73119ION    NA+44648   0.561  34.122  14.639
73120ION    NA+44649  27.086   8.066  11.117
73121ION    NA+44650  34.541  31.628  14.895
73122ION    NA+44651  24.235  22.308  13.072
73123ION    NA+44652  22.796  28.972   4.498
73124ION    NA+44653  16.541  41.479   4.908
73125ION    NA+44654  15.797   3.911  11.081
73126ION    NA+44655  39.505  13.793   2.288
73127ION    NA+44656  12.033  17.200   4.084
73128ION    NA+44657   4.307   3.329  13.530
73129ION    NA+44658  29.336  18.238   3.200
73130ION    NA+44659  13.792  39.960  10.768
73131ION    NA+44660  13.940  16.643   0.110
73132ION    NA+44661   3.203  17.911  13.313
73133ION    NA+44662   9.520  39.181  14.621
73134ION    NA+44663   8.412  25.796   3.019
73135ION    NA+44664   3.768  14.398   9.927
73136ION    NA+44665  22.915  36.393   2.626
73137ION    NA+44666   9.181  40.260  12.739
73138ION    NA+44667  33.745  41.331   2.610
73139ION    NA+44668  16.467  43.681   1.992
73140ION    NA+44669  21.554  39.433   0.309
73141ION    NA+44670  36.250  37.363  13.166
73142ION    NA+44671   1.390  31.823   0.533
73143ION    NA+44672  10.915  28.003  10.680
73144ION    NA+44673  28.674  22.726  13.895
73145ION    NA+44674   2.039  23.834   4.379
73146ION    NA+44675   0.872  17.563  10.811
73147ION    NA+44676  25.005  35.457  10.784
73148ION    NA+44677   1.155  42.676  12.145
73149ION    NA+44678  18.095   8.782  10.977
73150ION    NA+44679  40.074  44.899  13.905
73151ION    NA+44680  29.135  38.163  13.310
73152ION    NA+44681   2.729  14.175   3.198
73153ION    NA+44682  18.497  41.144   1.053
73154ION    NA+44683  17.706   2.136  11.199
73155ION    NA+44684   8.870  24.647   4.545
73156ION    NA+44685  19.302  31.780  10.525
73157ION    NA+44686   5.417   5.935   1.734
73158ION    NA+44687   4.074  26.794   1.375
73159ION    NA+44688  33.050  26.153   3.690
73160ION    NA+44689  32.567   0.238  10.877
73161ION    NA+44690  39.781  11.790   2.158
73162ION    NA+44691  44.369   6.723  11.322
73163ION    NA+44692   1.871  30.385   1.172
73164ION    NA+44693  31.127  38.850  10.422
73165ION    NA+44694   1.594  31.013   0.266
73166ION    NA+44695  28.484   0.392   3.375
73167ION    NA+44696  30.059   3.092   0.034
73168ION    NA+44697  38.886   5.789  12.301
73169ION    NA+44698  18.207  43.323   4.569
73170ION    NA+44699  29.795  19.236  11.908
73171ION    NA+44700  17.136  24.518   4.535
73172ION    NA+44701   6.866  21.153   3.462
73173ION    NA+44702  22.805  22.976   3.185
73174ION    NA+44703  24.041  24.928   4.118
73175ION    NA+44704   5.293  37.282  10.961
73176ION    NA+44705  31.128  22.605  14.126
73177ION    NA+44706   7.436  21.915   0.502
73178ION    NA+44707   9.796  23.359   1.356
73179ION    NA+44708  20.000  33.868   3.220
73180ION    NA+44709  36.265  12.795   3.186
73181ION    NA+44710  24.642  44.870  11.815
73182ION    NA+44711  29.173  37.469  12.770
73183ION    NA+44712   3.980  10.000   3.876
73184ION    NA+44713  15.455  22.480   2.260
73185ION    NA+44714  32.088  26.065  14.130
73186ION    NA+44715  22.522   5.352  13.616
73187ION    NA+44716  27.815  19.021   1.864
73188ION    NA+44717  38.469  12.030   1.141
73189ION    NA+44718  40.656  37.828   1.917
73190ION    NA+44719   1.421   5.102  12.849
73191ION    NA+44720  34.304  28.171  14.443
73192ION    NA+44721  11.474   6.584  11.912
73193ION    NA+44722  30.066  17.931  13.936
73194ION    NA+44723  27.898   6.984  11.838
73195ION    NA+44724   7.382  18.857   3.500
73196ION    NA+44725   8.409  36.077  11.977
73197ION    NA+44726   9.634  27.977   0.284
73198ION    NA+44727  42.972   2.367   0.440
73199ION    NA+44728  24.703   0.233   0.728
73200ION    NA+44729   3.539  43.284  11.483
73201ION    NA+44730  12.636   8.202   2.338
73202ION    NA+44731  38.373  24.888   2.718
73203ION    NA+44732  11.921  37.693   0.914
73204ION    NA+44733   7.919  27.282   4.091
73205ION    NA+44734  38.743  27.630   2.146
73206ION    NA+44735  36.207  23.553  14.887
73207ION    NA+44736  27.618  15.363   4.848
73208ION    NA+44737  44.865  23.485  12.781
73209ION    NA+44738  22.771  15.496  12.556
73210ION    NA+44739  23.148  15.056   3.240
73211ION    NA+44740  25.295   0.983  14.425
73212ION    NA+44741  36.593  17.131  11.030
73213ION    NA+44742  44.807  35.015   5.077
73214ION    NA+44743  30.167   7.079   1.834
73215ION    NA+44744  42.043  13.213  13.545
73216ION    NA+44745  28.961  29.528  10.745
73217ION    NA+44746  18.298  37.484   0.621
73218ION    NA+44747  21.513  30.354  11.877
73219ION    NA+44748   8.862  10.381   2.349
73220ION    NA+44749  44.948  31.612   0.997
73221ION    NA+44750  41.905  19.022  12.179
73222ION    NA+44751  24.908   4.683  14.769
73223ION    NA+44752  10.332  24.634  14.006
73224ION    NA+44753  33.828  38.922   0.759
73225ION    NA+44754  32.341  40.325   0.009
73226ION    NA+44755  36.474  26.934  14.927
73227ION    NA+44756   3.059   9.352  10.465
73228ION    NA+44757  12.770   8.759  14.168
73229ION    NA+44758  37.668   2.403  11.213
73230ION    NA+44759   7.291  11.761  11.517
73231ION    NA+44760  32.792  14.016  14.452
73232ION    NA+44761  20.008  41.922   0.070
73233ION    NA+44762  44.093   6.041   2.286
73234ION    NA+44763  30.525   2.048  14.015
73235ION    NA+44764  21.479  13.172  10.893
73236ION    NA+44765  17.202  24.681  13.753
73237ION    NA+44766  25.313  14.399  10.337
73238ION    NA+44767   2.383  22.166  14.328
73239ION    NA+44768  40.358  37.979  11.061
73240ION    NA+44769  40.140  20.180  12.612
73241ION    NA+44770  21.999   6.576  13.391
73242ION    NA+44771  26.759  23.742  12.832
73243ION    NA+44772  18.863  12.706  11.686
73244ION    NA+44773  32.796  28.525  12.922
73245ION    NA+44774   3.537   4.018  13.281
73246ION    NA+44775  25.203  43.250   0.217
73247ION    NA+44776  16.997  15.803  11.597
73248ION    NA+44777  42.571  15.576  14.941
73249ION    NA+44778  16.353   4.981   2.828
73250ION    NA+44779  43.215  32.839   2.129
73251ION    NA+44780  40.853  22.243   0.399
73252ION    NA+44781  34.344  44.011   1.506
73253ION    NA+44782  31.127  44.674   4.463
73254ION    NA+44783  26.790  10.916  12.719
73255ION    NA+44784  44.289  31.372  14.857
73256ION    NA+44785  15.882  27.767  12.442
73257ION    NA+44786  15.686   2.330   2.242
73258ION    NA+44787  33.509  16.608   0.663
73259ION    NA+44788   0.732   5.343  13.341
73260ION    NA+44789  11.670  40.316   3.119
73261ION    NA+44790  17.146  26.890  14.450
73262ION    NA+44791  30.594  29.879   3.532
73263ION    NA+44792  16.735  22.692   3.816
73264ION    NA+44793  36.043  42.888   4.195
73265ION    NA+44794   4.676  30.824   1.141
73266ION    NA+44795  15.101  13.418   0.373
73267ION    NA+44796  12.154  42.754   3.710
73268ION    NA+44797  37.860  21.177   3.587
73269ION    NA+44798   7.149  44.810  14.926
73270ION    NA+44799  25.518  44.858  11.799
73271ION    NA+44800  17.002  33.453   4.081
73272ION    NA+44801  24.078  13.184   3.179
73273ION    NA+44802  38.007  35.383  14.218
73274ION    NA+44803   0.179  27.893  11.093
73275ION    NA+44804  13.548  39.422  11.884
73276ION    NA+44805  27.024  30.693  12.180
73277ION    NA+44806  18.512  15.212   1.484
73278ION    NA+44807  28.134   0.572   1.043
73279ION    NA+44808  14.987   8.358   0.397
73280ION    NA+44809  33.028  31.449   0.000
73281ION    NA+44810  17.297  39.423   3.333
73282ION    NA+44811  37.534  41.992  10.656
73283ION    NA+44812  12.258  42.341   0.566
73284ION    NA+44813  18.368  16.811  11.940
73285ION    NA+44814  12.387  20.421  13.879
73286ION    NA+44815  24.097  40.967   2.561
73287ION    NA+44816  10.917  25.556  14.535
73288ION    NA+44817  32.208  17.275  12.253
73289ION    NA+44818  37.345  25.179  14.867
73290ION    NA+44819  40.606  33.476   1.197
73291ION    CL-44820  35.072  34.748   2.259
73292ION    CL-44821   0.868  37.327   4.102
73293ION    CL-44822   5.508  30.950  14.495
73294ION    CL-44823  39.772   9.003   5.062
73295ION    CL-44824  19.737  43.664  10.706
73296ION    CL-44825  41.026  35.320   0.725
73297ION    CL-44826  32.230   2.808   5.116
73298ION    CL-44827  34.242  42.484  14.475
73299ION    CL-44828  13.730   9.029   1.260
73300ION    CL-44829  16.405  43.750   1.548
73301ION    CL-44830  28.652  16.205  12.619
73302ION    CL-44831  15.119   1.876  10.397
73303ION    CL-44832  33.930  18.592  14.793
73304ION    CL-44833  16.477  35.684   1.821
73305ION    CL-44834  18.751   4.314  14.925
73306ION    CL-44835  44.295  20.252   4.926
73307ION    CL-44836   4.800  32.660   1.007
73308ION    CL-44837   9.329  11.715  12.204
73309ION    CL-44838  40.058  23.433  11.402
73310ION    CL-44839  40.723  37.337   4.489
73311ION    CL-44840  19.861  44.630   1.861
73312ION    CL-44841  21.670  39.012  13.878
73313ION    CL-44842  16.579  31.671  11.974
73314ION    CL-44843  12.951  19.083  12.593
73315ION    CL-44844   7.655   6.742   3.378
73316ION    CL-44845  39.512  13.009   4.629
73317ION    CL-44846  36.887  41.935  12.246
73318ION    CL-44847  38.947  36.027   1.076
73319ION    CL-44848  35.505  36.478   3.228
73320ION    CL-44849   8.902   1.854   0.933
73321ION    CL-44850   7.869  22.401  11.421
73322ION    CL-44851   5.360  22.426  14.675
73323ION    CL-44852  17.386  23.804  14.883
73324ION    CL-44853  41.158   9.058  13.006
73325ION    CL-44854  32.250  12.297   0.087
73326ION    CL-44855   3.999  24.396  14.862
73327ION    CL-44856  10.015  13.755  10.344
73328ION    CL-44857   4.119  26.776   1.843
73329ION    CL-44858   2.741  27.797   3.806
73330ION    CL-44859  40.252   7.960   0.843
73331ION    CL-44860  19.732  35.856  10.610
73332ION    CL-44861   6.306  25.921   5.003
73333ION    CL-44862  14.379  27.833   0.544
73334ION    CL-44863  40.929   0.720  11.711
73335ION    CL-44864   4.212  27.119  13.768
73336ION    CL-44865  31.139   8.953   3.049
73337ION    CL-44866   9.825  17.562   2.312
73338ION    CL-44867  28.678   2.453   0.232
73339ION    CL-44868  11.021  17.492  12.486
73340ION    CL-44869  38.765  14.238  14.181
73341ION    CL-44870  13.140  22.630  11.726
73342ION    CL-44871  22.077   7.320  10.629
73343ION    CL-44872  38.215  35.205   4.568
73344ION    CL-44873  29.559  23.240   2.149
73345ION    CL-44874  39.162  40.209  12.035
73346ION    CL-44875   7.454  24.240  13.324
73347ION    CL-44876  24.348  28.096  13.488
73348ION    CL-44877  21.651  41.625  13.330
73349ION    CL-44878  15.064  15.252  10.664
73350ION    CL-44879   6.286  44.142  12.519
73351ION    CL-44880  12.327  27.067  11.535
73352ION    CL-44881   7.982  20.074   0.781
73353ION    CL-44882  29.682  11.840   2.166
73354ION    CL-44883  33.422  16.532  14.350
73355ION    CL-44884  18.735  21.343  12.713
73356ION    CL-44885  12.431  25.670  12.276
73357ION    CL-44886  17.774  17.999   0.896
73358ION    CL-44887  39.989  16.992   4.230
73359ION    CL-44888   3.403  32.146  11.883
73360ION    CL-44889   0.321  31.292  12.451
73361ION    CL-44890  28.886  18.109  14.477
73362ION    CL-44891  12.720   1.946   2.244
73363ION    CL-44892  32.370  16.999   3.420
73364ION    CL-44893   1.250  32.200  13.432
73365ION    CL-44894  28.149   2.758  12.037
73366ION    CL-44895  40.957  40.805  11.471
73367ION    CL-44896  14.386  12.581   3.882
73368ION    CL-44897   5.648  26.232   0.808
73369ION    CL-44898   0.716   0.759   5.057
73370ION    CL-44899  33.274  14.434   1.733
73371ION    CL-44900   9.688   9.436   1.756
73372ION    CL-44901  25.636  30.891   0.333
73373ION    CL-44902  32.758  13.833  11.373
73374ION    CL-44903  17.311  38.056   2.448
73375ION    CL-44904  11.039  24.171  11.424
73376ION    CL-44905  36.944   8.624   0.833
73377ION    CL-44906   2.555  34.156   1.433
73378ION    CL-44907  42.690   3.863   3.998
73379ION    CL-44908  43.995  20.499   3.254
73380ION    CL-44909   0.746  41.223  13.724
73381ION    CL-44910  30.148  43.305   1.818
73382ION    CL-44911  12.854  20.625   1.766
73383ION    CL-44912  22.489  25.995  13.137
73384ION    CL-44913  38.449  37.510  12.377
73385ION    CL-44914   2.250  16.583   4.366
73386ION    CL-44915  29.873  25.116   2.050
73387ION    CL-44916  29.123  37.044  14.363
73388ION    CL-44917  41.789  12.912  13.757
73389ION    CL-44918   5.201   2.289  11.077
73390ION    CL-44919  19.810  10.211   3.722
73391ION    CL-44920  13.820   5.243  13.982
73392ION    CL-44921   5.791  40.762   0.898
73393ION    CL-44922   3.828  29.860  12.846
73394ION    CL-44923  10.538  42.074  13.806
73395ION    CL-44924   7.146  40.499  14.826
73396ION    CL-44925   9.415  34.448   1.709
73397ION    CL-44926  34.577   9.921  10.723
73398ION    CL-44927  39.895  34.502   0.891
73399ION    CL-44928  30.814  23.764   2.257
73400ION    CL-44929  31.071  17.315   1.001
73401ION    CL-44930  34.349  21.984   2.972
73402ION    CL-44931  12.202  22.709  11.386
73403ION    CL-44932   8.813  36.446   5.083
73404ION    CL-44933   7.076   8.993  11.811
73405ION    CL-44934  28.505  38.773   0.292
73406ION    CL-44935  20.703   3.347   1.711
73407ION    CL-44936  20.260   1.980   2.252
73408ION    CL-44937  27.699  18.712   1.563
73409ION    CL-44938   6.966  33.721  10.098
73410ION    CL-44939  34.749  26.268  14.772
73411ION    CL-44940  18.915   8.706   1.683
73412ION    CL-44941   9.281  24.894   2.893
73413ION    CL-44942  10.582  15.327  13.960
73414ION    CL-44943  32.053  41.362  13.947
73415ION    CL-44944  11.922  37.949   4.473
73416ION    CL-44945  41.846  24.184  11.242
73417ION    CL-44946  33.443  36.900   3.370
73418ION    CL-44947  19.589  41.794   0.161
73419ION    CL-44948   7.367  30.135  11.140
73420ION    CL-44949  12.401  18.182  12.203
73421ION    CL-44950  42.799  16.264   0.887
73422ION    CL-44951   9.364  17.057   0.861
73423ION    CL-44952   2.907  33.182  13.131
73424ION    CL-44953  19.254  25.544  10.283
73425ION    CL-44954  40.831  39.063  13.357
73426ION    CL-44955  18.194  27.315  13.756
73427ION    CL-44956  25.717   5.282   3.948
73428ION    CL-44957  18.951   2.406  13.545
73429ION    CL-44958   5.956   4.310  13.918
73430ION    CL-44959  24.512  19.633   2.777
73431ION    CL-44960   9.054   6.462   4.131
73432ION    CL-44961  25.362  33.601  13.519
73433ION    CL-44962   6.499  34.740   3.405
73434ION    CL-44963  20.575  41.972  13.562
73435ION    CL-44964  17.441   2.484  11.317
73436ION    CL-44965   9.157  35.289  13.015
73437ION    CL-44966   0.469  34.928   0.872
73438ION    CL-44967   0.309  20.888   3.778
73439ION    CL-44968  16.030  36.983  12.781
73440ION    CL-44969  25.080  44.983  11.755
73441ION    CL-44970  26.142  25.111  11.732
73442ION    CL-44971   3.661  21.485   2.384
73443ION    CL-44972  41.354  22.209   3.821
73444ION    CL-44973  14.908  28.916   1.753
73445ION    CL-44974  34.517  43.188  13.990
73446ION    CL-44975  14.422  37.262  14.417
73447ION    CL-44976  32.275  40.009  13.662
73448ION    CL-44977  36.687  12.669   3.075
73449ION    CL-44978   5.226  31.717   0.331
73450ION    CL-44979  13.795  22.840  14.954
73451ION    CL-44980  17.286  33.584  13.972
73452ION    CL-44981  19.643  13.159  14.605
73453ION    CL-44982  40.402  14.645   1.982
73454ION    CL-44983  29.129  36.438   3.675
73455ION    CL-44984  25.173  41.171  12.625
73456ION    CL-44985  19.422  10.206   2.800
73457ION    CL-44986  16.346  13.319  12.367
73458ION    CL-44987  42.812  33.222   3.086
73459ION    CL-44988  30.977  24.807   3.229
73460ION    CL-44989  28.038  15.481   4.714
73461ION    CL-44990   4.807  21.189   9.693
73462ION    CL-44991   9.644  18.106  10.696
73463ION    CL-44992  11.824  11.050   4.979
73464ION    CL-44993   4.941  37.160  10.714
73465ION    CL-44994   6.363  29.890  14.347
73466ION    CL-44995  43.945   0.847  13.650
73467ION    CL-44996   5.373  28.130   2.839
73468ION    CL-44997  25.957  32.518  14.975
73469ION    CL-44998   7.435  29.352   1.298
73470ION    CL-44999   4.306   9.611  14.713
73471ION    CL-45000  15.463  14.828   0.761
73472ION    CL-45001  22.806  15.307   0.756
73473ION    CL-45002  19.941  20.141  14.054
73474ION    CL-45003  20.461  24.045   1.681
73475ION    CL-45004  43.533  18.104  11.933
73476ION    CL-45005  31.977  43.765  13.966
73477ION    CL-45006  18.020  27.265   1.288
73478ION    CL-45007  21.942  42.459   3.658
73479ION    CL-45008   6.886  44.835  11.721
73480ION    CL-45009  29.315  24.717  12.736
73481ION    CL-45010  37.497  13.406   0.032
73482ION    CL-45011  25.170  34.189   3.809
73483ION    CL-45012   7.710  13.371   3.992
73484ION    CL-45013  44.625  16.996   0.302
73485ION    CL-45014  40.464  16.261   1.006
73486ION    CL-45015   2.270  27.863   0.746
73487ION    CL-45016  11.289  42.553   1.091
73488ION    CL-45017  41.431  26.892   0.417
73489ION    CL-45018   1.942  38.341  12.528
73490ION    CL-45019   1.350  34.255   4.334
73491ION    CL-45020  32.326  12.190   1.005
73492ION    CL-45021  31.347  38.554  13.687
73493ION    CL-45022  23.177  26.764  13.567
73494ION    CL-45023   4.834  38.718  13.389
73495ION    CL-45024  23.196  43.900  12.372
73496ION    CL-45025  19.313  12.566  11.766
73497ION    CL-45026  23.196  31.178  10.977
73498ION    CL-45027  20.673   2.119  11.167
73499ION    CL-45028  20.193  16.767   5.099
73500ION    CL-45029  23.780   8.504   0.840
73501ION    CL-45030  27.630  21.099   3.644
73502ION    CL-45031  10.355  41.772   0.016
73503ION    CL-45032  29.975  27.777   1.878
73504ION    CL-45033  21.208  23.007   0.878
73505ION    CL-45034  43.666  41.565  11.152
73506ION    CL-45035  42.557  41.335   1.156
73507ION    CL-45036   3.030  29.805   3.872
73508ION    CL-45037  20.745  19.665   4.597
73509ION    CL-45038  39.189  21.509   4.436
73510ION    CL-45039   6.758   5.442   1.469
73511ION    CL-45040  37.980  32.256  10.905
73512ION    CL-45041  40.195  10.012  14.022
73513ION    CL-45042  41.756   1.375  13.376
73514ION    CL-45043  42.967   4.932  10.874
73515ION    CL-45044   3.147   4.064  13.496
73516ION    CL-45045  43.793  20.312  14.442
73517ION    CL-45046  17.699   9.517   0.655
73518ION    CL-45047  27.332  21.638  11.617
73519ION    CL-45048  22.142  29.653  12.906
73520ION    CL-45049  39.348  42.033   3.663
73521ION    CL-45050  21.197  16.161  11.951
73522ION    CL-45051  40.586   4.859  10.747
73523ION    CL-45052  36.084  12.716  11.350
73524ION    CL-45053   2.597  40.716   2.939
73525ION    CL-45054  22.414   0.890   5.130
73526ION    CL-45055  24.022  38.683   3.001
73527ION    CL-45056   4.159  37.871  10.309
73528ION    CL-45057  21.738  37.403   4.247
73529ION    CL-45058  17.922  30.459   0.994
73530ION    CL-45059  31.849  16.923   4.108
73531ION    CL-45060   1.556  31.400   0.506
73532ION    CL-45061  44.171   8.756  12.831
73533ION    CL-45062   3.511   4.610   3.284
73534ION    CL-45063  20.073  15.018  13.132
73535ION    CL-45064  11.295  40.340   4.431
73536ION    CL-45065   3.979  38.060   2.158
73537ION    CL-45066  25.255   6.313   4.949
73538ION    CL-45067  33.935  32.326   2.187
73539ION    CL-45068  39.422  20.178  14.817
73540ION    CL-45069  24.159  39.113   1.133
73541ION    CL-45070   8.212  18.180  11.826
73542ION    CL-45071  25.992   0.858   2.763
73543ION    CL-45072  17.306  33.216   4.321
73544ION    CL-45073  43.814  29.950   3.654
73545ION    CL-45074  16.804  14.088  11.850
73546ION    CL-45075  16.801  21.128   0.013
73547ION    CL-45076  24.505   3.459   1.721
73548ION    CL-45077  30.115  22.009   1.321
73549ION    CL-45078  40.407  29.273   3.293
73550ION    CL-45079  21.195  32.298  10.766
73551ION    CL-45080  12.674   6.823  14.557
73552ION    CL-45081  42.862  18.159  14.297
73553ION    CL-45082  11.645  26.871  14.033
73554ION    CL-45083  12.249  16.012   2.347
73555ION    CL-45084   1.601  11.057   5.158
73556ION    CL-45085  34.672  44.348   4.989
73557ION    CL-45086  28.412  12.881  11.034
73558ION    CL-45087  14.185   3.905   0.883
73559ION    CL-45088  26.254  26.751  13.447
73560ION    CL-45089  41.658   8.406  14.053
73561ION    CL-45090  35.579  26.694  14.074
73562ION    CL-45091  39.590  15.214  11.493
73563ION    CL-45092   4.333  10.785   1.366
73564ION    CL-45093  32.514   0.493   2.079
73565ION    CL-45094  26.534  22.246  14.310
73566ION    CL-45095  43.447  24.026  10.341
73567ION    CL-45096  34.575  12.646  13.408
73568ION    CL-45097  20.002  38.745  12.073
73569ION    CL-45098   6.689  16.191   9.797
73570ION    CL-45099  33.690  38.969  14.255
73571ION    CL-45100   4.205   5.813  13.532
73572ION    CL-45101   4.304  17.737  11.012
73573ION    CL-45102  43.181   8.664   1.359
73574ION    CL-45103   5.679  19.871   4.940
73575ION    CL-45104  10.276  26.664   1.985
73576ION    CL-45105  39.910   5.208   3.296
73577ION    CL-45106  37.089  27.112  13.509
73578ION    CL-45107  31.825   3.607   3.992
73579ION    CL-45108  15.736   8.590  11.090
73580ION    CL-45109  14.580  18.081   0.286
73581ION    CL-45110  44.333   1.671  10.867
73582ION    CL-45111  43.220  26.341  11.155
73583ION    CL-45112   1.514   3.353  14.517
73584ION    CL-45113  21.218  14.561   1.320
73585ION    CL-45114  41.167  44.535  11.395
73586ION    CL-45115  36.431  22.312  13.339
73587ION    CL-45116  13.122   4.715   5.016
73588ION    CL-45117  18.141  15.921  14.801
73589ION    CL-45118  44.885   3.405   3.252
73590ION    CL-45119  33.055   6.359   1.731
73591ION    CL-45120  38.054   2.191  11.092
73592ION    CL-45121   2.070  39.433  11.587
73593ION    CL-45122  28.540  20.112   1.391
73594ION    CL-45123   7.839  18.211   1.744
73595ION    CL-45124  29.364  38.941   4.632
73596ION    CL-45125  29.505  43.922   3.321
73597ION    CL-45126   0.980  26.522   9.694
73598ION    CL-45127  39.014  15.776   0.308
73599ION    CL-45128   1.231   0.484   0.666
73600ION    CL-45129  35.055  37.141  10.956
73601ION    CL-45130  16.315  35.272   4.193
73602ION    CL-45131  35.462  26.409  10.081
73603ION    CL-45132  34.717  23.378  12.968
73604ION    CL-45133   7.008  13.638  12.483
73605ION    CL-45134  25.012   6.525  12.355
73606ION    CL-45135   0.477  31.636   1.944
73607ION    CL-45136  36.467  10.254   0.714
73608ION    CL-45137  33.705  37.382  12.317
73609ION    CL-45138  10.708  38.255  10.553
73610ION    CL-45139  19.733  44.110   0.982
73611ION    CL-45140  43.843  19.460  13.886
73612ION    CL-45141   0.717   1.974   3.735
73613ION    CL-45142   7.217  31.775   4.688
73614ION    CL-45143   9.988  18.473   2.057
73615ION    CL-45144  24.904  41.921  11.886
73616ION    CL-45145  26.293  42.018   5.401
73617ION    CL-45146  21.643  19.322   4.069
73618ION    CL-45147  35.446  43.280  10.951
73619ION    CL-45148  26.243  27.176  11.600
73620ION    CL-45149  22.171   3.887  11.783
73621ION    CL-45150  15.775  19.726   3.491
73622ION    CL-45151  21.386  41.586   9.505
73623ION    CL-45152  22.118  20.520  10.803
73624ION    CL-45153   1.473  19.531  12.151
73625ION    CL-45154  33.160   7.705   4.062
73626ION    CL-45155   8.767  12.115  13.503
73627ION    CL-45156  42.215  28.292  14.760
73628ION    CL-45157   8.869  41.751  13.821
73629ION    CL-45158   4.945  43.691  14.901
73630ION    CL-45159  28.390  35.298   2.420
73631ION    CL-45160  15.288   1.263  11.170
73632ION    CL-45161  41.277   3.423   0.045
73633ION    CL-45162  32.063  40.203  14.677
73634ION    CL-45163  10.605   6.281   3.225
73635ION    CL-45164  21.110  32.973   1.423
73636ION    CL-45165  35.634  26.270  11.982
73637ION    CL-45166  34.321  13.877  14.617
73638ION    CL-45167  44.450  35.411   1.497
73639ION    CL-45168  13.521   6.579   0.058
73640ION    CL-45169  29.516  36.398   4.872
73641ION    CL-45170  34.033  22.201   0.057
73642ION    CL-45171  34.717  43.959   2.900
73643ION    CL-45172  25.186   1.744   1.297
73644ION    CL-45173   3.616  26.004  13.075
73645ION    CL-45174   0.822   2.792   2.687
73646ION    CL-45175  13.592  24.145  13.486
73647ION    CL-45176  42.603  32.099  11.416
73648ION    CL-45177  22.890  42.537   2.231
73649ION    CL-45178  11.619  40.850  11.901
73650ION    CL-45179  42.921  44.200   1.392
73651ION    CL-45180  29.604  40.981  12.521
73652ION    CL-45181  37.447   0.237  13.053
73653ION    CL-45182  36.450  33.092   4.129
73654ION    CL-45183  33.447  23.089   1.167
73655ION    CL-45184  40.150   0.745  14.524
73656ION    CL-45185  30.467   2.957  11.052
73657ION    CL-45186  38.646  36.737   0.639
73658ION    CL-45187  17.893   8.323   5.030
73659ION    CL-45188  12.281  15.931   4.021
73660ION    CL-45189   0.697  18.239   4.859
73661ION    CL-45190   3.158   3.134   0.299
73662ION    CL-45191  43.602  21.692  14.372
73663ION    CL-45192   8.925   9.404  11.470
73664ION    CL-45193  38.706  38.825   1.726
73665ION    CL-45194  22.724  17.102   0.251
73666ION    CL-45195   2.319  32.426  14.222
73667ION    CL-45196   6.980  31.233  11.922
73668ION    CL-45197  22.621  43.076  12.374
73669ION    CL-45198  20.082  32.517   0.601
73670ION    CL-45199  10.453   3.983  10.535
73671ION    CL-45200  25.460  22.424   4.902
73672ION    CL-45201  18.082  24.898  10.405
73673ION    CL-45202  17.933  32.420  11.094
73674ION    CL-45203   3.500  36.355   2.235
73675ION    CL-45204  19.322   3.031   3.303
73676ION    CL-45205  24.775  18.220  11.176
73677ION    CL-45206  16.354  26.854   0.740
73678ION    CL-45207  26.358  23.333   1.290
73679ION    CL-45208   1.777   0.654   1.778
73680ION    CL-45209   9.596  42.436  13.770
73681ION    CL-45210  36.313  35.987  11.675
73682ION    CL-45211   0.512  38.114  12.318
73683ION    CL-45212  23.705  24.227  11.168
73684ION    CL-45213  39.355   9.888   2.856
73685ION    CL-45214  14.435  29.353  13.491
73686ION    CL-45215  37.741  40.282  10.771
73687ION    CL-45216  21.920  20.586   3.625
73688ION    CL-45217  38.899  29.534   0.934
73689ION    CL-45218  42.114  32.729  11.060
73690ION    CL-45219  42.483  14.239   3.260
73691ION    CL-45220   0.460  43.006   4.506
73692ION    CL-45221  26.980  30.748   1.757
73693ION    CL-45222   3.031  15.748   2.859
73694ION    CL-45223  21.358  14.053   3.172
73695ION    CL-45224  23.294  40.610   4.535
73696ION    CL-45225   6.189  24.250   0.251
73697ION    CL-45226  22.588  28.591   2.616
73698ION    CL-45227   2.195   6.365   2.211
73699ION    CL-45228  20.919   9.060   2.440
73700ION    CL-45229  30.966  32.836  11.536
73701ION    CL-45230  22.262  18.212  13.365
73702ION    CL-45231   0.619  43.560  10.984
73703ION    CL-45232  43.494  11.887   2.795
73704ION    CL-45233  11.308  34.334   4.614
73705ION    CL-45234  23.781  33.139  11.226
73706ION    CL-45235  39.937   6.985   2.358
73707ION    CL-45236  40.825  26.692   3.798
73708ION    CL-45237  38.612   8.228  11.953
73709ION    CL-45238  35.976  31.656  13.645
73710ION    CL-45239   3.721  34.755  14.276
73711ION    CL-45240  37.129  14.176   0.937
73712ION    CL-45241   2.632  24.172  14.978
73713ION    CL-45242  16.605  43.678   2.428
73714ION    CL-45243  22.893   4.782  11.124
73715ION    CL-45244   7.746  12.948   1.386
73716ION    CL-45245  10.164  20.480  11.082
73717ION    CL-45246  25.060  39.576  12.344
73718ION    CL-45247  22.671  15.402  12.979
73719ION    CL-45248   3.504   2.135  12.094
73720ION    CL-45249  34.318   9.210   4.178
73721ION    CL-45250  18.634   1.519   3.813
73722ION    CL-45251   7.818   7.643  11.665
73723ION    CL-45252   1.030  35.189   0.087
73724ION    CL-45253   8.477  17.841  12.729
73725ION    CL-45254  32.614  28.405   4.241
73726ION    CL-45255  20.502  20.167  13.226
73727ION    CL-45256   3.870   7.022   1.686
73728ION    CL-45257  39.950  13.680   2.272
73729ION    CL-45258  21.112  38.389   2.043
73730ION    CL-45259  15.113  37.451   3.902
73731ION    CL-45260  24.825  26.763  12.091
73732ION    CL-45261  44.900  39.928  12.192
73733ION    CL-45262  37.882   7.888  11.143
73734ION    CL-45263  12.142  15.191  14.059
73735ION    CL-45264  30.089  30.890  14.006
73736ION    CL-45265  25.332  21.663  12.974
73737ION    CL-45266  32.567  43.446   3.465
73738ION    CL-45267  14.096  13.419   3.740
73739ION    CL-45268  35.595   7.136  11.928
73740ION    CL-45269  38.878  20.624  14.106
73741ION    CL-45270  20.239  33.519  14.889
73742ION    CL-45271  32.455  38.588   0.836
73743ION    CL-45272  26.513  41.365  10.656
73744ION    CL-45273  38.731  17.736  11.287
73745ION    CL-45274  38.333  11.939  13.691
73746ION    CL-45275  17.715  22.049   0.947
73747ION    CL-45276  28.120   0.664   0.604
73748ION    CL-45277  40.946  41.868   4.493
73749ION    CL-45278  42.912  30.176   2.578
73750ION    CL-45279  23.075  36.418  13.487
73751ION    CL-45280  16.597   7.587   0.867
73752ION    CL-45281   3.468  18.754  14.901
73753ION    CL-45282  11.969   0.505  13.542
73754ION    CL-45283  42.502  25.867  11.282
73755ION    CL-45284  22.672   8.244   4.962
73756ION    CL-45285  38.164  22.873   1.386
73757ION    CL-45286  22.303  14.216  13.793
73758ION    CL-45287  15.624  15.231   3.604
73759ION    CL-45288  27.187  14.536  11.885
73760ION    CL-45289   7.243  10.677   3.135
73761ION    CL-45290   9.457  28.431  13.299
73762ION    CL-45291   0.529   9.655  10.364
73763ION    CL-45292  44.976   0.436  11.588
73764ION    CL-45293  39.533  27.407  11.140
73765ION    CL-45294  10.150  16.799  13.968
73766ION    CL-45295  19.842  40.090   1.688
73767ION    CL-45296  26.955  34.041  13.052
73768ION    CL-45297  33.748  39.581  12.701
73769ION    CL-45298  32.452   8.723  12.109
73770ION    CL-45299  28.078   8.463   0.901
73771ION    CL-45300  36.371  43.464  10.486
73772ION    CL-45301  21.803  10.181  12.551
73773ION    CL-45302  22.945  21.029  11.938
73774ION    CL-45303   8.255  10.242  11.695
73775ION    CL-45304   2.436  17.473   0.814
73776ION    CL-45305  31.860   8.182   0.289
73777ION    CL-45306  20.192  39.889   3.659
73778ION    CL-45307  42.607  35.775  14.015
73779ION    CL-45308  44.878   7.130  12.634
73780ION    CL-45309  20.618  12.709  14.942
73781ION    CL-45310  16.691  32.020  10.641
73782ION    CL-45311  36.540   9.965  13.451
73783ION    CL-45312  23.552  42.291   3.201
73784ION    CL-45313  22.096  35.304  12.825
73785ION    CL-45314  42.431  21.162   4.916
73786ION    CL-45315  33.503   0.535  14.457
73787ION    CL-45316  25.122   4.739   0.168
73788ION    CL-45317  12.170  14.327   3.281
73789ION    CL-45318   0.742  39.126  13.159
73790ION    CL-45319  15.279  42.521  14.453
73791ION    CL-45320   3.730  33.882   0.804
73792ION    CL-45321   3.655  22.779   0.305
73793ION    CL-45322  40.424  30.232  11.625
73794ION    CL-45323  16.991  22.327   3.781
73795ION    CL-45324   1.372  30.857   4.994
73796ION    CL-45325  20.205   8.012   3.776
73797ION    CL-45326  22.426  19.593  14.048
73798ION    CL-45327  32.609  14.420  14.380
73799ION    CL-45328   3.660  35.214   1.745
73800ION    CL-45329  38.679  34.399  12.884
73801ION    CL-45330  34.921   1.440  13.068
73802ION    CL-45331   0.051  38.879   2.205
73803ION    CL-45332  14.381  12.000   1.489
73804ION    CL-45333  40.847  13.421   2.685
73805ION    CL-45334  27.034  29.146  11.983
73806ION    CL-45335  31.563  20.655  12.708
73807ION    CL-45336  41.827  31.768   3.510
73808ION    CL-45337  30.956  30.100   3.669
73809ION    CL-45338  43.020  31.727   1.523
73810ION    CL-45339  37.239  12.593  13.868
73811ION    CL-45340  43.269   7.881   0.705
73812ION    CL-45341  30.266  35.939   4.926
73813ION    CL-45342  15.625   3.421   1.412
73814ION    CL-45343  22.822  25.671  12.251
73815ION    CL-45344  13.137  41.149  11.733
73816ION    CL-45345  27.431  16.527  12.973
73817ION    CL-45346  35.459   1.909   3.093
73818ION    CL-45347   8.743   5.231   3.685
73819ION    CL-45348   8.884  14.477   1.524
73820ION    CL-45349  36.789  24.213   1.332
73821ION    CL-45350   9.346  30.941  13.019
73822ION    CL-45351  21.089  33.039   4.947
73823ION    CL-45352  27.673  37.713   4.171
73824ION    CL-45353  42.747  44.481   4.965
73825ION    CL-45354  28.655  28.476  11.999
73826ION    CL-45355  23.206  25.015   0.191
73827ION    CL-45356   1.633  24.388  11.723
73828ION    CL-45357   4.532  33.913  13.613
73829ION    CL-45358   2.488  37.564   0.758
73830ION    CL-45359  35.673  40.826   2.804
73831ION    CL-45360  42.845  16.767  12.979
73832ION    CL-45361   3.579  40.753   2.746
73833ION    CL-45362  29.103  23.092  14.949
73834ION    CL-45363   6.355  35.746   3.056
73835ION    CL-45364  25.190  28.670  11.467
73836ION    CL-45365  37.807  44.730   0.389
73837ION    CL-45366  24.343  22.675  11.270
73838ION    CL-45367  41.515  38.727   0.703
73839ION    CL-45368   7.946   6.463   0.210
73840ION    CL-45369  12.870  23.154   0.899
73841ION    CL-45370  32.181  40.797   4.593
73842ION    CL-45371  36.297  19.873   9.892
73843ION    CL-45372  34.539  25.102  10.394
73844ION    CL-45373  44.183  32.729  10.090
73845ION    CL-45374  13.603  33.801  13.932
73846ION    CL-45375  11.190  38.415   4.162
73847ION    CL-45376  21.535  26.556   9.963
73848ION    CL-45377  40.209  31.203  11.520
73849ION    CL-45378  28.958   9.912  12.893
73850ION    CL-45379  39.957  15.031  12.405
73851ION    CL-45380   8.561  29.702  12.825
73852ION    CL-45381  10.211  43.171   4.586
73853ION    CL-45382  34.927  16.415  10.442
73854ION    CL-45383  32.722  44.601  14.030
73855ION    CL-45384  34.321  35.834   0.443
73856ION    CL-45385  37.483  12.134   3.264
73857ION    CL-45386  38.039  41.743  12.513
73858ION    CL-45387  30.268  30.946   2.227
73859ION    CL-45388  22.347  39.667  13.539
73860ION    CL-45389  41.558   5.618   0.287
73861ION    CL-45390  23.627   5.245   3.699
73862ION    CL-45391  19.374  11.209   2.913
73863ION    CL-45392   0.297  28.302  10.960
73864ION    CL-45393  18.176  26.451   4.341
73865ION    CL-45394  33.432  24.195   1.292
73866ION    CL-45395   3.784  39.264  12.720
73867ION    CL-45396   7.112  20.514  10.543
73868ION    CL-45397  18.206  22.159  14.900
73869ION    CL-45398  43.953  17.640  12.911
73870ION    CL-45399  38.837  11.873   0.928
73871ION    CL-45400  32.286  36.554   0.996
73872ION    CL-45401  17.989  34.516   1.803
73873ION    CL-45402  15.373  41.869   4.924
73874ION    CL-45403   3.319  12.657  14.249
73875ION    CL-45404   3.531   3.802   2.834
73876ION    CL-45405  17.015  36.125  11.243
73877ION    CL-45406  39.818  44.590  13.686
73878ION    CL-45407   2.697  26.332  12.854
73879ION    CL-45408  25.535  39.128   4.238
73880ION    CL-45409  18.784   1.000  14.164
73881ION    CL-45410  21.222  13.289   4.263
73882ION    CL-45411   3.959  31.812   4.009
73883ION    CL-45412  21.389  38.443  10.293
73884ION    CL-45413  35.607  25.874   0.100
73885ION    CL-45414   4.145  26.810   0.924
73886ION    CL-45415  17.856  22.116  12.113
73887ION    CL-45416  34.149  11.171  12.792
73888ION    CL-45417   2.225   4.859  14.688
73889ION    CL-45418  14.934  28.432  11.635
73890ION    CL-45419   5.673  43.501  11.980
73891ION    CL-45420  35.059  19.682  12.925
73892ION    CL-45421  30.363   7.397  13.217
73893ION    CL-45422   0.043  41.181  13.154
73894ION    CL-45423  13.140  27.300   1.359
73895ION    CL-45424  10.764  22.593   0.245
73896ION    CL-45425   8.624   8.123   1.948
73897ION    CL-45426   3.184  20.795   2.738
73898ION    CL-45427  32.450   0.077  11.285
73899ION    CL-45428  12.888  14.171   3.816
73900ION    CL-45429  40.300  11.277  11.152
73901ION    CL-45430  27.125   5.180   4.048
73902ION    CL-45431  28.688  10.449  14.451
73903ION    CL-45432  29.882  21.716   0.022
73904ION    CL-45433   9.667  12.585   1.717
73905ION    CL-45434  24.351   1.991   0.683
73906ION    CL-45435  26.022  41.505   3.263
73907ION    CL-45436  32.343   4.010  14.977
73908ION    CL-45437  43.633  19.581   1.549
73909ION    CL-45438  23.103   6.705  14.285
73910ION    CL-45439  19.985  18.085   5.057
73911ION    CL-45440  37.086  40.392  13.487
73912ION    CL-45441  18.380  41.575   0.967
73913ION    CL-45442  19.995  12.180  13.614
73914ION    CL-45443  26.263  10.496  10.025
73915ION    CL-45444  19.879  34.169   1.201
73916ION    CL-45445  41.334  25.905   0.291
73917ION    CL-45446  28.101  26.088  11.961
73918ION    CL-45447   7.428  26.428  14.361
73919ION    CL-45448   4.197  28.721   5.141
73920ION    CL-45449  14.647  23.994  11.647
73921ION    CL-45450  23.989  12.320   1.111
73922ION    CL-45451   5.253   0.455  14.310
73923ION    CL-45452  33.634  20.849   1.711
73924ION    CL-45453  23.963   2.564  14.510
73925ION    CL-45454   6.812  21.298   1.552
73926ION    CL-45455   1.920  36.097   4.143
73927ION    CL-45456   7.353  25.471   0.545
73928ION    CL-45457  42.077  14.828   4.977
73929ION    CL-45458  42.515  25.056  10.698
73930ION    CL-45459  37.341  13.552   2.528
73931ION    CL-45460  33.089  30.159   0.238
73932ION    CL-45461  32.871  36.528  12.084
73933ION    CL-45462  38.817  42.494  14.308
73934ION    CL-45463  35.182  17.290  10.471
73935ION    CL-45464   5.598  41.627   0.867
73936ION    CL-45465   4.564  37.137   3.783
73937ION    CL-45466  13.242  33.307   2.221
73938ION    CL-45467  16.257  32.681   4.952
73939ION    CL-45468   5.739  24.993  14.680
73940ION    CL-45469  30.987  38.797   1.009
73941ION    CL-45470   6.742  39.110   2.136
73942ION    CL-45471  43.900   3.441   3.652
73943ION    CL-45472   8.519   9.357   2.937
73944ION    CL-45473  24.136  43.477  12.538
73945ION    CL-45474  24.716  31.228  13.608
73946ION    CL-45475  41.636   9.432  11.769
73947ION    CL-45476  17.195  22.870  13.033
73948ION    CL-45477  41.687  42.672  14.624
73949ION    CL-45478  17.531   1.494   0.318
73950ION    CL-45479  10.490   4.762  12.740
73951ION    CL-45480  19.531   7.364  10.772
73952ION    CL-45481   0.263  12.678   0.300
73953ION    CL-45482  21.976  28.382   3.378
73954ION    CL-45483  33.492  38.159  11.600
73955ION    CL-45484  23.423  28.412  14.832
73956ION    CL-45485   7.263  37.154  11.089
73957ION    CL-45486  33.112  33.114  11.411
73958ION    CL-45487  42.199  26.382  13.924
73959ION    CL-45488   8.907  40.382  13.112
73960ION    CL-45489  16.995  21.911  12.580
73961ION    CL-45490  37.685   6.224   0.991
73962ION    CL-45491   9.353   9.040   4.570
73963ION    CL-45492  35.864  22.107   3.240
73964ION    CL-45493  19.860  11.908   2.646
73965ION    CL-45494  21.524  12.005   3.296
73966ION    CL-45495  17.087  22.751  12.046
73967ION    CL-45496  35.556  35.676   4.682
73968ION    CL-45497   4.799  31.963  14.377
73969ION    CL-45498   1.098   5.113  13.168
73970ION    CL-45499  23.888  33.927  14.551
73971ION    CL-45500   3.692  40.541   0.873
73972ION    CL-45501  18.471  34.000  10.367
73973ION    CL-45502  33.321  10.346  13.021
73974ION    CL-45503   3.697   5.843  11.195
73975ION    CL-45504   5.078  20.817   1.396
73976ION    CL-45505   5.997  31.443   0.907
73977ION    CL-45506  37.645   8.618  14.393
73978ION    CL-45507  13.784   6.839   3.386
73979ION    CL-45508  44.936   7.965  13.809
73980ION    CL-45509  44.007  16.371   0.778
73981ION    CL-45510  26.233   3.937  14.777
73982ION    CL-45511  20.865  21.779  13.018
73983ION    CL-45512  40.058  35.166   2.666
73984ION    CL-45513  22.576   9.321   0.717
73985ION    CL-45514  32.473  39.125   3.844
73986ION    CL-45515  23.907  33.060   2.369
73987ION    CL-45516  14.823  21.517  14.293
73988ION    CL-45517  12.160   2.020  11.902
73989ION    CL-45518  34.312  22.895   3.382
73990ION    CL-45519  27.741  37.587   3.150
73991ION    CL-45520  10.125  41.109  13.996
73992ION    CL-45521  17.675   7.134  14.921
73993ION    CL-45522   0.689   6.245   2.203
73994ION    CL-45523  17.889  25.205  12.855
73995ION    CL-45524  12.073  33.330  12.737
73996ION    CL-45525  38.630  16.401   0.988
73997ION    CL-45526  32.275  21.127   1.870
73998ION    CL-45527  18.774   6.264   3.520
73999ION    CL-45528   7.413  19.192   3.795
74000ION    CL-45529  22.337   1.910   2.677
74001ION    CL-45530   9.083  34.015  10.059
74002ION    CL-45531  12.868  29.510  12.087
74003ION    CL-45532  21.128  18.855   3.351
74004ION    CL-45533  19.345  36.072  13.385
74005ION    CL-45534  20.554  17.790   1.784
74006ION    CL-45535  12.894  18.491   0.791
74007ION    CL-45536  41.546  35.596  14.474
74008ION    CL-45537  43.651  17.585  14.524
74009ION    CL-45538  23.474  18.605   0.374
74010ION    CL-45539   0.333  28.130   2.921
74011ION    CL-45540   9.145  24.209  12.981
74012ION    CL-45541   2.860   1.595  14.926
74013ION    CL-45542  22.184  25.744   2.432
74014ION    CL-45543  36.902  20.500   1.081
74015ION    CL-45544  39.606  12.744   1.201
74016ION    CL-45545  11.357   2.486  10.289
74017ION    CL-45546   8.373  35.383   2.456
74018ION    CL-45547   8.343  10.662  14.757
74019ION    CL-45548  21.924  21.649   3.354
74020ION    CL-45549   5.387   5.011   0.458
74021ION    CL-45550  16.132  27.902  13.299
74022ION    CL-45551  19.825  26.009  13.448
74023ION    CL-45552   2.669  30.561   3.263
74024ION    CL-45553  34.347   6.712  12.743
74025ION    CL-45554   8.581  10.834  13.801
74026ION    CL-45555   2.366  12.327   0.943
74027ION    CL-45556  41.540  43.979   0.244
74028ION    CL-45557   7.380   1.488   4.100
74029ION    CL-45558   5.773  17.530  12.411
74030ION    CL-45559  43.412   5.462  13.057
74031ION    CL-45560  43.489   6.499   0.765
74032ION    CL-45561  28.247  22.068  10.658
74033ION    CL-45562  33.855  24.321   0.059
74034ION    CL-45563   7.126  44.093   4.979
74035ION    CL-45564  18.730  28.539  13.646
74036ION    CL-45565   5.524  35.203  12.492
74037ION    CL-45566  42.322   3.238   0.411
74038ION    CL-45567  20.238  34.796   4.688
74039ION    CL-45568   5.326   8.978  12.401
74040ION    CL-45569  12.696  38.737   1.556
74041ION    CL-45570  27.092  21.131   4.486
74042ION    CL-45571  12.054  13.418  11.235
74043ION    CL-45572  16.755   1.235  10.705
74044ION    CL-45573  22.454  41.311   2.244
74045ION    CL-45574  14.903  13.807   3.294
74046ION    CL-45575  20.042  35.579  13.172
74047ION    CL-45576  14.616  28.731  10.870
74048ION    CL-45577  24.359  39.589  13.123
74049ION    CL-45578  27.578  18.793  13.403
74050ION    CL-45579  43.984   2.124   4.972
74051ION    CL-45580   7.569  10.184   1.830
74052ION    CL-45581  38.226  18.273   2.001
74053ION    CL-45582  35.318  15.658   3.602
74054ION    CL-45583  21.090   6.548  14.582
74055ION    CL-45584  29.426  31.083   0.796
74056ION    CL-45585  32.280  38.325  13.964
74057ION    CL-45586  18.398  31.731   5.403
74058ION    CL-45587  27.668  35.311  10.590
74059ION    CL-45588   4.256   8.419  10.862
74060ION    CL-45589  32.189   8.699  13.257
74061ION    CL-45590  14.788   0.200  13.136
74062ION    CL-45591  16.493   6.819  12.481
74063ION    CL-45592  30.075  22.496  11.218
74064ION    CL-45593  36.069  25.093  12.454
74065ION    CL-45594  28.716  43.699   2.748
74066ION    CL-45595  21.356  41.379  10.752
74067ION    CL-45596  43.678   5.772  11.547
74068ION    CL-45597   1.816  29.089   0.230
74069ION    CL-45598  37.777   7.078  11.727
74070ION    CL-45599  16.240  25.453   1.766
74071ION    CL-45600  19.498  32.382   1.218
74072ION    CL-45601  10.608  35.434   2.689
74073ION    CL-45602  30.397  10.517  14.883
74074ION    CL-45603  10.364   1.500  12.002
74075ION    CL-45604  18.512   5.429   0.554
74076ION    CL-45605  11.645   5.494   0.051
74077ION    CL-45606  13.775  20.689  11.172
74078ION    CL-45607  23.424   2.689  13.677
74079ION    CL-45608  19.768  12.114  11.086
74080ION    CL-45609  32.161   0.842  14.459
74081ION    CL-45610  30.519  18.839  12.164
74082ION    CL-45611  21.318  31.869   3.801
74083ION    CL-45612   9.640  40.128  12.785
74084ION    CL-45613  42.439  15.953  14.722
74085ION    CL-45614  32.001  38.763   3.040
74086ION    CL-45615  33.140  25.059  13.271
74087ION    CL-45616   2.144  39.186  10.181
74088ION    CL-45617  20.482  10.233  11.144
74089ION    CL-45618  19.083  26.776   1.216
74090ION    CL-45619  11.086  40.247   1.841
74091ION    CL-45620   8.248  12.079   2.571
74092ION    CL-45621  20.180   3.016   2.393
74093ION    CL-45622  43.696   2.302  10.425
74094ION    CL-45623  32.952  27.909  11.812
74095ION    CL-45624  37.909  28.018   0.973
74096ION    CL-45625  39.050   3.828  14.544
74097ION    CL-45626  32.455  41.966   4.226
74098ION    CL-45627  23.281  11.650   2.724
74099ION    CL-45628   4.718  29.803  12.719
74100ION    CL-45629  24.658  10.405   3.723
74101ION    CL-45630  18.524  40.691   0.930
74102ION    CL-45631  10.151  16.343  11.412
74103ION    CL-45632  10.925   7.932   5.185
74104ION    CL-45633  19.094  15.878  11.131
74105ION    CL-45634  31.902  25.312  11.348
74106ION    CL-45635  43.564  41.288   1.766
74107ION    CL-45636  38.638  12.167   3.552
74108ION    CL-45637  31.209  22.402  14.516
74109ION    CL-45638  12.678  34.180  13.908
74110ION    CL-45639  33.781  37.987  14.905
74111ION    CL-45640   3.006  14.123   3.558
74112ION    CL-45641   0.625  21.517  11.689
74113ION    CL-45642  14.796  16.309   3.666
74114ION    CL-45643  23.721  31.219  14.711
74115ION    CL-45644  27.132  13.269  11.566
74116ION    CL-45645   0.097  20.370   4.496
74117ION    CL-45646  44.199  12.755  11.153
74118ION    CL-45647  24.291  38.272  11.788
74119ION    CL-45648  27.949  29.813   4.629
74120ION    CL-45649  44.035  37.557  13.011
74121ION    CL-45650  21.381  18.561  14.087
74122ION    CL-45651  27.757  25.397  14.161
74123ION    CL-45652  38.672   6.102  12.067
74124ION    CL-45653  13.959  39.048   2.792
74125ION    CL-45654  35.224   6.514  12.992
74126ION    CL-45655  35.208  19.678   4.540
74127ION    CL-45656   5.692  33.107   1.570
74128ION    CL-45657  29.839  19.105  11.481
74129ION    CL-45658  16.054  10.576  14.928
74130ION    CL-45659  21.573   2.311   2.001
74131ION    CL-45660  39.390  33.653   0.717
74132ION    CL-45661  18.332  14.607  13.165
74133ION    CL-45662  33.539  25.126  12.066
74134ION    CL-45663  32.918   5.773   4.618
74135ION    CL-45664  29.595  23.919  11.179
74136ION    CL-45665  22.921  17.064   2.628
74137ION    CL-45666  20.583   4.698  14.845
74138ION    CL-45667  12.256  30.411  12.839
74139ION    CL-45668   6.899  22.653  12.738
74140ION    CL-45669  29.963  13.315  13.478
74141ION    CL-45670   1.246  23.531  12.063
74142ION    CL-45671  40.295  24.406   4.140
74143ION    CL-45672  32.083   8.915   1.224
74144ION    CL-45673   1.676   0.339   2.722
74145ION    CL-45674   1.556  29.621  11.995
74146ION    CL-45675  14.117   2.561   4.164
74147ION    CL-45676  13.678  16.297  14.972
74148ION    CL-45677  11.772  37.978   2.916
74149ION    CL-45678  43.330  38.768  12.078
74150ION    CL-45679  43.968   0.425   3.659
74151ION    CL-45680  27.547  44.416  11.544
74152ION    CL-45681  18.197  25.651  11.130
74153ION    CL-45682  30.811   0.227   1.776
74154ION    CL-45683  17.332  12.166  14.996
74155ION    CL-45684  32.200   2.454  13.360
74156ION    CL-45685  22.975  30.495  11.674
74157ION    CL-45686  17.937  35.821   4.179
74158ION    CL-45687  28.827   8.605   3.985
74159ION    CL-45688   0.841  32.874  14.048
74160ION    CL-45689  44.659  37.507   4.274
74161ION    CL-45690  23.710  21.418   0.493
74162ION    CL-45691  21.810  32.071   1.780
74163ION    CL-45692  18.750  31.701  14.329
74164ION    CL-45693  24.907  13.567   4.156
74165ION    CL-45694  22.066  15.521   4.905
74166ION    CL-45695   1.036   6.290  11.097
74167ION    CL-45696  32.774   1.337   3.740
74168ION    CL-45697   4.100  31.854  10.334
74169ION    CL-45698  42.668  24.876  14.550
74170ION    CL-45699  43.501  13.782   1.422
74171ION    CL-45700  36.022  31.608  11.133
74172ION    CL-45701  16.033  22.124   2.798
74173ION    CL-45702  18.164   9.321  14.403
74174ION    CL-45703  27.673   2.058   4.618
74175ION    CL-45704   4.913  38.586  12.364
74176ION    CL-45705   5.391   9.490   5.042
74177ION    CL-45706   3.493  21.415  11.436
74178ION    CL-45707  28.477   1.668  12.792
74179ION    CL-45708  15.240  17.609  11.818
74180ION    CL-45709  43.395  31.054  11.703
74181ION    CL-45710   4.109  43.018   4.656
74182ION    CL-45711  28.451  16.107  13.670
74183ION    CL-45712  34.035  43.984  14.557
74184ION    CL-45713  32.303  35.331   2.243
74185ION    CL-45714   9.885  38.880  14.602
74186ION    CL-45715  24.063   7.751   2.362
74187ION    CL-45716  21.009  37.277  12.441
74188ION    CL-45717  42.372   4.984   1.891
74189ION    CL-45718   5.990  27.331   2.762
74190ION    CL-45719  39.508   6.295   4.326
74191ION    CL-45720   3.873  37.174   1.936
74192ION    CL-45721  15.718  17.485   2.390
74193ION    CL-45722  31.684  15.947   4.252
74194ION    CL-45723  13.423   0.821  14.833
74195ION    CL-45724  22.776  34.275  11.456
74196ION    CL-45725  43.341   1.529   4.971
74197ION    CL-45726  33.154  12.206   4.317
74198ION    CL-45727  33.658   3.339  11.666
74199ION    CL-45728   6.421  27.411   0.977
74200ION    CL-45729  16.478  39.824  14.927
74201ION    CL-45730  15.474  35.462   3.142
74202ION    CL-45731  15.945   7.650   2.388
74203ION    CL-45732  21.837   4.221  12.665
74204ION    CL-45733  41.376   9.893  14.067
74205ION    CL-45734  12.741   7.803   4.529
74206ION    CL-45735  21.775  18.445   4.882
74207ION    CL-45736  42.178  40.849  12.560
74208ION    CL-45737  22.223  30.560   1.791
74209ION    CL-45738   8.763  28.810   4.765
74210ION    CL-45739  37.864  21.127   2.183
74211ION    CL-45740   7.786  21.072  10.637
74212ION    CL-45741  26.063  29.795   0.364
74213ION    CL-45742  24.383  20.412  11.310
74214ION    CL-45743   2.694  20.482   1.124
74215ION    CL-45744  38.349  11.390   1.167
74216ION    CL-45745  19.385  22.610   5.062
74217ION    CL-45746   9.130  21.022   1.858
74218ION    CL-45747   0.893  26.123  12.612
74219ION    CL-45748  27.214   3.744   4.621
74220ION    CL-45749   1.072  17.969   0.843
74221ION    CL-45750   8.987  34.653   4.063
74222ION    CL-45751   9.639  18.820   1.186
74223ION    CL-45752   7.827  37.812  14.872
74224ION    CL-45753  26.238   5.824  14.456
74225ION    CL-45754  31.781  20.096  11.908
74226ION    CL-45755  21.548  13.341  12.419
74227ION    CL-45756   7.379  28.689   2.709
74228ION    CL-45757  30.110  19.547   4.699
74229ION    CL-45758   1.073  16.421  12.329
74230ION    CL-45759   2.194   8.586  10.846
74231ION    CL-45760  25.816  11.170   3.239
74232ION    CL-45761  37.624  13.098   1.684
74233ION    CL-45762  23.876  16.848  10.748
74234ION    CL-45763  27.124  28.139  11.623
74235ION    CL-45764  35.982  20.010   3.379
74236ION    CL-45765   1.622  13.030  10.996
74237ION    CL-45766   3.978   2.079  12.857
74238ION    CL-45767  33.722  13.652   1.844
74239ION    CL-45768  38.018  36.323   1.299
74240ION    CL-45769  24.031   8.718   2.016
74241ION    CL-45770  40.630  32.170   3.669
74242ION    CL-45771  38.492  37.592   2.735
74243ION    CL-45772  16.058  34.279  11.473
74244ION    CL-45773  39.239  28.407  11.253
74245ION    CL-45774  22.334  43.578   4.181
74246ION    CL-45775  34.882  20.708  14.879
74247ION    CL-45776  15.640  27.993  12.757
74248ION    CL-45777  27.574  34.197   2.615
74249ION    CL-45778  37.535   4.168   5.134
74250ION    CL-45779   0.491  20.026  13.885
74251ION    CL-45780  22.930   6.195   2.165
74252ION    CL-45781  19.743  21.586  12.089
74253ION    CL-45782  42.623  42.946   3.581
74254ION    CL-45783  36.993  28.470   0.769
74255ION    CL-45784  19.704   8.010  12.348
74256ION    CL-45785  19.228  15.871  14.381
74257ION    CL-45786   6.973  11.459  11.437
74258ION    CL-45787  15.230   3.901  14.721
74259ION    CL-45788   0.592  20.140   3.838
74260ION    CL-45789   4.478  30.057   1.975
74261ION    CL-45790  28.837  19.414   2.043
74262ION    CL-45791  12.323  18.218  14.511
74263ION    CL-45792  11.127   6.523  12.210
74264ION    CL-45793   4.394   9.696  10.900
74265ION    CL-45794   8.268  42.782  10.877
74266ION    CL-45795  44.547  27.915  12.170
74267ION    CL-45796   2.110   0.508   0.392
74268ION    CL-45797   8.692  41.480  11.099
74269ION    CL-45798  16.032  44.398   4.491
74270ION    CL-45799  34.620  22.527  13.927
74271ION    CL-45800  18.727  14.213   3.683
74272ION    CL-45801   0.827  37.469   3.236
74273ION    CL-45802  37.283   4.082  13.532
74274ION    CL-45803  26.068  38.533   0.967
74275ION    CL-45804  33.452  29.619  13.537
74276ION    CL-45805  36.132  30.162   3.125
74277ION    CL-45806  38.158  44.896  10.221
74278ION    CL-45807  23.664   3.537   0.164
74279ION    CL-45808  39.056  33.653  10.634
74280ION    CL-45809  17.076   3.328   1.497
74281ION    CL-45810  16.658  26.630   2.305
74282ION    CL-45811  31.674   9.897  13.601
74283ION    CL-45812   8.709  44.941   5.067
74284ION    CL-45813  27.858   7.111  11.169
74285ION    CL-45814  22.437  34.581   2.261
74286ION    CL-45815  16.520  11.596   5.012
74287ION    CL-45816  37.100   9.427   2.691
74288ION    CL-45817  24.058  37.572   3.113
74289ION    CL-45818  18.829   4.933  12.993
74290ION    CL-45819  22.500   5.504   0.567
74291ION    CL-45820   8.124  36.399  13.357
74292ION    CL-45821  10.863   9.748  11.245
74293ION    CL-45822  29.065  13.627  12.558
74294ION    CL-45823  41.980  40.656   0.702
74295ION    CL-45824   5.503  28.952  11.677
74296ION    CL-45825  44.095   4.448   2.376
74297ION    CL-45826  26.381  10.405   4.787
74298ION    CL-45827  23.666  38.574  11.405
74299ION    CL-45828   8.229  22.986  14.429
74300ION    CL-45829  44.042  15.876   2.432
74301ION    CL-45830  25.103  38.615  11.328
74302ION    CL-45831   0.881   5.567  10.425
74303ION    CL-45832  28.243  36.902   3.711
74304ION    CL-45833  24.281  11.871  13.862
74305ION    CL-45834  43.331  19.307   0.032
74306ION    CL-45835  22.678  36.721   2.813
74307ION    CL-45836  32.409  33.605  11.693
74308ION    CL-45837  30.511  23.721  14.148
74309ION    CL-45838  23.380  13.181  11.917
74310ION    CL-45839  16.212   1.352   0.743
74311ION    CL-45840  24.117  14.225   0.441
74312ION    CL-45841  24.238  43.835   2.761
74313ION    CL-45842  11.079   3.841   3.580
74314ION    CL-45843  44.414   6.915  14.797
74315ION    CL-45844   6.142  21.398  13.198
74316ION    CL-45845  38.292  42.999   3.772
74317ION    CL-45846  10.416  18.849  11.615
74318ION    CL-45847  25.998  36.296  11.547
74319ION    CL-45848  27.764  15.269   1.289
74320ION    CL-45849  25.206  39.155   2.173
74321ION    CL-45850  38.869   2.851  14.335
74322ION    CL-45851  32.840   4.654   2.812
74323ION    CL-45852  28.011  18.944   3.101
74324ION    CL-45853  36.581  44.374  12.012
74325ION    CL-45854  40.012  23.491  12.317
74326ION    CL-45855  14.989  40.478  12.571
74327ION    CL-45856  38.256  43.401  11.946
74328ION    CL-45857  38.705  17.556   2.308
74329ION    CL-45858  21.690  25.817   4.798
74330ION    CL-45859  21.969  43.375  14.509
74331ION    CL-45860  31.921   2.441   4.093
74332ION    CL-45861  43.002  43.673   0.053
74333ION    CL-45862  38.363  11.334  14.486
74334ION    CL-45863  18.025   3.439  13.603
74335ION    CL-45864  38.790  30.664  10.537
74336ION    CL-45865   0.932  37.788   0.274
74337ION    CL-45866  14.593  19.352  14.847
74338ION    CL-45867  35.942  22.576   1.963
74339ION    CL-45868   9.979  19.194   3.100
74340ION    CL-45869  10.656  12.102   0.453
74341ION    CL-45870  19.274  44.311  13.865
74342ION    CL-45871   2.333  20.147  13.385
74343ION    CL-45872  13.552  43.634   2.160
74344ION    CL-45873  21.677  33.539   2.510
74345ION    CL-45874   5.817  18.710  13.119
74346ION    CL-45875   5.102  24.951   0.450
74347ION    CL-45876  25.472  12.039   2.733
74348ION    CL-45877  21.232  24.851  12.576
74349ION    CL-45878  35.771  40.417  12.557
74350ION    CL-45879  30.094   5.631  11.056
74351ION    CL-45880  37.174  40.432   2.477
74352ION    CL-45881  19.688  31.624  10.686
74353ION    CL-45882   7.556  29.512  10.309
74354ION    CL-45883  25.427  28.631  12.822
74355ION    CL-45884   2.234  17.140   2.845
74356ION    CL-45885   7.763  33.622  14.145
74357ION    CL-45886  15.823  31.672   2.249
74358ION    CL-45887  30.455  41.836  12.321
74359ION    CL-45888  39.770  36.884   3.150
74360ION    CL-45889  30.873  18.566   2.920
74361ION    CL-45890  35.800  19.192  14.994
74362ION    CL-45891  33.195  33.860  13.092
74363ION    CL-45892  43.423  21.939   0.900
74364ION    CL-45893  20.704   0.512   3.225
74365ION    CL-45894  17.563  13.148   1.766
74366ION    CL-45895  11.799  11.386  14.333
74367ION    CL-45896   2.808  18.831   0.869
74368ION    CL-45897  33.211  21.244   5.065
74369ION    CL-45898  21.206  39.623   3.662
74370ION    CL-45899   5.530  12.478   3.713
74371ION    CL-45900  36.116  26.743  12.558
74372ION    CL-45901  36.324  37.991   0.311
74373ION    CL-45902   3.858   6.145   9.888
74374ION    CL-45903   4.992  18.727  14.734
74375ION    CL-45904  18.641   4.887   4.119
74376ION    CL-45905  11.558  39.743  14.327
74377ION    CL-45906  24.730   0.632   0.504
74378ION    CL-45907  19.072  13.170   4.104
74379ION    CL-45908   3.654  40.740  13.310
74380ION    CL-45909  13.603  12.322  10.904
74381ION    CL-45910  10.097   0.640   1.789
74382ION    CL-45911  42.040  25.259   4.709
74383ION    CL-45912  42.750  37.395  11.134
74384ION    CL-45913  42.787  20.116  12.594
74385ION    CL-45914  39.169  20.971   0.371
74386ION    CL-45915   8.791  42.195   2.983
74387ION    CL-45916   7.942  12.399  12.997
74388ION    CL-45917   8.893  22.889   2.307
74389ION    CL-45918   0.533  31.664  11.547
74390ION    CL-45919   3.007  27.264  11.319
74391ION    CL-45920  29.132  22.075   4.221
74392ION    CL-45921  31.021  29.570   5.077
74393ION    CL-45922  29.928  19.241   0.749
74394ION    CL-45923   2.337  41.705   1.496
74395ION    CL-45924  14.964   1.257   1.690
74396ION    CL-45925  22.165   9.998   3.916
74397ION    CL-45926  17.819  13.693  14.252
74398ION    CL-45927   8.034  30.409   3.741
74399ION    CL-45928  29.776   4.690  14.985
74400ION    CL-45929   5.173   1.424  14.550
74401ION    CL-45930   9.019  19.238   3.378
74402ION    CL-45931   2.306  43.075  13.853
74403ION    CL-45932  18.924   1.137  11.059
74404ION    CL-45933  14.021  42.713  12.484
74405ION    CL-45934  19.241  39.774  11.331
74406ION    CL-45935   0.660   9.873   4.255
74407ION    CL-45936  25.965   1.789   1.980
74408ION    CL-45937  32.028  24.418   1.833
74409ION    CL-45938  31.954  42.689   3.238
74410ION    CL-45939   4.596  22.427   2.628
74411ION    CL-45940  40.520  37.659   3.123
74412ION    CL-45941  26.315  28.659  12.895
74413ION    CL-45942  26.838   3.158   1.327
74414ION    CL-45943  24.318  41.748  13.840
74415ION    CL-45944  10.426  22.572   1.202
74416ION    CL-45945  13.537  12.115   2.537
74417ION    CL-45946  19.093  36.106   4.813
74418ION    CL-45947  11.602  29.559   2.713
74419ION    CL-45948   0.880   4.044  14.863
74420ION    CL-45949  19.951  25.949  10.618
74421ION    CL-45950  15.685   9.235  12.234
74422ION    CL-45951  22.928  29.545   3.286
74423ION    CL-45952   8.526   7.140   0.172
74424ION    CL-45953  34.827  42.195   5.058
74425ION    CL-45954  32.108   0.999  11.462
74426ION    CL-45955  23.661   1.773  13.352
74427ION    CL-45956  30.047   5.600  14.669
74428ION    CL-45957  16.136  27.143  12.934
74429ION    CL-45958   8.306  31.412  11.495
74430ION    CL-45959  30.240  41.120  11.169
74431ION    CL-45960   0.945  11.415  11.322
74432ION    CL-45961  26.789  41.960   4.534
74433ION    CL-45962  17.249   2.984   0.217
74434ION    CL-45963  40.827  43.863  12.073
74435ION    CL-45964  19.610   0.607   1.907
74436ION    CL-45965  38.810  36.482   4.916
74437ION    CL-45966   2.128  23.428   4.212
74438ION    CL-45967  32.856  34.120   3.006
74439ION    CL-45968  40.508   8.381  13.353
74440ION    CL-45969  43.839  25.590   4.860
74441ION    CL-45970  34.552   8.948  12.903
74442ION    CL-45971  38.622  22.736  13.542
74443ION    CL-45972   5.974   0.190   1.630
74444ION    CL-45973   1.023  33.131  11.483
74445ION    CL-45974  29.280   7.828  10.672
74446ION    CL-45975   1.367  40.824  10.814
74447ION    CL-45976  10.753  14.348   5.220
74448ION    CL-45977  35.621  29.697  13.144
74449ION    CL-45978  21.326  15.291  10.776
74450ION    CL-45979  30.598   7.428   0.919
74451ION    CL-45980  32.145  35.890  12.880
74452ION    CL-45981  15.146  16.728   0.766
74453ION    CL-45982  37.236  41.886  13.223
74454ION    CL-45983  41.603  20.540   4.163
74455ION    CL-45984  13.705   3.645  11.098
74456ION    CL-45985  17.541   1.766   3.350
74457ION    CL-45986  32.246  41.258   1.182
74458ION    CL-45987  15.293  28.161   2.433
74459ION    CL-45988  20.522  37.040   2.235
74460ION    CL-45989  17.087  11.307  11.064
74461ION    CL-45990  15.905  33.904   1.661
74462ION    CL-45991  19.254   3.792  13.352
74463ION    CL-45992  35.203  33.338  11.441
74464ION    CL-45993  24.676   4.666  14.375
74465ION    CL-45994  29.761   2.008   2.218
74466ION    CL-45995  16.254  14.900   0.304
74467ION    CL-45996   3.246  14.081  13.480
74468ION    CL-45997  34.878  38.996   2.636
74469ION    CL-45998  37.496  15.080   0.719
74470ION    CL-45999  22.021  35.792   3.098
74471ION    CL-46000  36.969  42.272   1.784
74472ION    CL-46001  10.193  33.219   3.241
74473ION    CL-46002  28.558  15.862   3.592
74474ION    CL-46003   0.216  17.646   0.870
74475ION    CL-46004  42.235   4.789   3.631
74476ION    CL-46005  35.301  44.015  13.487
74477ION    CL-46006  26.152  35.767   3.548
74478ION    CL-46007   5.274  21.528  13.400
74479ION    CL-46008  44.677  24.276   3.812
74480ION    CL-46009  37.651  25.497   3.217
74481ION    CL-46010  22.665   7.681  13.022
74482ION    CL-46011  19.785   8.926   1.772
74483ION    CL-46012  43.649  16.863   3.451
74484ION    CL-46013  44.453  12.721  14.362
74485ION    CL-46014   9.534  24.831   1.215
74486ION    CL-46015   4.537  32.512  12.895
74487ION    CL-46016   1.935  30.451   3.932
74488ION    CL-46017  41.335   0.240   4.560
74489ION    CL-46018  11.862  13.398   4.599
74490ION    CL-46019  15.853   3.948  12.413
74491ION    CL-46020  27.107  15.361  12.444
74492ION    CL-46021  33.630  33.067  13.857
74493ION    CL-46022  33.167  10.625   4.955
74494ION    CL-46023  25.523  23.500   3.384
74495ION    CL-46024  35.875  34.454   0.268
74496ION    CL-46025  43.585   1.926   3.819
74497ION    CL-46026   2.623  41.746  13.951
74498ION    CL-46027  42.368   5.502  14.890
74499ION    CL-46028  41.230  16.028   4.482
74500ION    CL-46029  34.929  24.234  13.148
74501ION    CL-46030   0.477   2.084  13.524
74502ION    CL-46031  44.516  31.485  13.014
74503ION    CL-46032   1.205  13.148  14.361
74504ION    CL-46033  18.738  41.921  12.555
74505ION    CL-46034  11.253  13.601   2.782
74506ION    CL-46035   8.076  21.305  12.856
74507ION    CL-46036  23.877  38.488   1.889
74508ION    CL-46037  28.053   9.175   4.361
74509ION    CL-46038  29.075  18.541   3.000
74510ION    CL-46039  13.162  34.503   2.008
74511ION    CL-46040  13.076   3.663  11.611
74512ION    CL-46041  28.448  21.635   0.989
74513ION    CL-46042  43.544  17.083   5.046
74514ION    CL-46043   7.970  36.021  12.041
74515ION    CL-46044  29.776  25.636  11.769
74516ION    CL-46045  29.034  30.744   4.897
74517ION    CL-46046  16.228  19.778   2.602
74518ION    CL-46047  37.941  22.969  12.102
74519ION    CL-46048  40.336  39.075   2.573
74520ION    CL-46049  40.791   4.036   4.513
74521ION    CL-46050  26.331  23.856   2.750
74522ION    CL-46051  32.092   6.195  12.833
74523ION    CL-46052   5.321  23.233   2.707
74524ION    CL-46053  16.878  22.887  11.077
74525ION    CL-46054  12.242  25.820   1.085
74526ION    CL-46055   7.979  40.449   1.690
74527ION    CL-46056  37.629  14.381  10.406
74528ION    CL-46057  33.074  43.236   2.501
74529ION    CL-46058  18.872  17.257   0.723
74530ION    CL-46059   4.721   8.214  11.723
74531ION    CL-46060  29.915  25.099  13.310
74532ION    CL-46061   9.967   8.750   2.429
74533ION    CL-46062  18.511  38.946   1.744
74534ION    CL-46063  43.239  37.542  13.863
74535ION    CL-46064  18.120  12.107   1.474
74536ION    CL-46065   3.657   8.087  11.700
74537ION    CL-46066   0.765   9.948  13.543
74538ION    CL-46067  18.836  18.559  11.238
74539ION    CL-46068   0.966  10.961   0.280
74540ION    CL-46069  27.641  29.148   2.172
74541ION    CL-46070  23.299  27.798  11.077
74542ION    CL-46071  37.555   4.840  12.939
74543ION    CL-46072  42.632  25.324   3.438
74544ION    CL-46073   8.823  17.122   4.990
74545ION    CL-46074  10.182  11.059   1.819
74546ION    CL-46075   3.042  36.836   1.705
74547ION    CL-46076  33.464  42.786   0.116
74548ION    CL-46077  29.339  17.121  12.631
74549ION    CL-46078   7.326  20.219  13.355
74550ION    CL-46079  25.195  33.191  14.180
74551ION    CL-46080  38.507  14.415  13.357
74552ION    CL-46081  24.750  29.817  13.983
74553ION    CL-46082   8.811  22.687  11.060
74554ION    CL-46083  14.141  14.021  14.476
74555ION    CL-46084  14.655  15.246  14.715
74556ION    CL-46085  13.194  13.801   2.444
74557ION    CL-46086  26.378  24.211   3.684
74558ION    CL-46087   0.405  43.052   0.556
74559ION    CL-46088  26.345  10.914   2.561
74560ION    CL-46089  40.542   5.341  14.314
74561ION    CL-46090  17.768  28.727  13.924
74562ION    CL-46091  27.322  29.219   0.748
74563ION    CL-46092   2.922  25.316  12.863
74564ION    CL-46093   9.135  20.080  11.472
74565ION    CL-46094   6.603  17.913   2.802
74566ION    CL-46095  25.991  31.855  13.196
74567ION    CL-46096  31.018  37.395   4.912
74568ION    CL-46097  37.215   5.920   4.590
74569ION    CL-46098   1.669  16.453  11.382
74570ION    CL-46099  13.065  11.117   2.769
74571ION    CL-46100   4.979  36.170   3.643
74572ION    CL-46101  41.511  10.792   2.885
74573ION    CL-46102  34.493  21.671  13.425
74574ION    CL-46103  44.960  35.667   2.167
74575ION    CL-46104   8.467  24.393   3.186
74576ION    CL-46105  29.496  24.408   0.864
74577ION    CL-46106   4.592  31.218   1.360
74578ION    CL-46107  15.242  12.619  10.318
74579ION    CL-46108   8.948  31.403   2.314
74580ION    CL-46109  24.341  10.881   1.755
74581ION    CL-46110  27.553   9.877   0.960
74582ION    CL-46111  32.825  20.223   2.292
74583ION    CL-46112   9.341   6.774   1.266
74584ION    CL-46113   4.767  23.770   0.831
74585ION    CL-46114  28.787  25.379  12.126
74586ION    CL-46115  15.332  32.370  12.494
74587ION    CL-46116  14.355  41.113   9.714
74588ION    CL-46117  21.138  25.497   0.366
74589ION    CL-46118   8.933   1.460  10.791
74590ION    CL-46119   0.971  10.424  11.191
74591ION    CL-46120  37.108  17.708   3.669
74592ION    CL-46121  17.869  27.036  10.223
74593ION    CL-46122  30.636  20.091  11.100
74594ION    CL-46123   6.857  27.995  11.789
74595ION    CL-46124  20.055  25.784   3.633
74596ION    CL-46125   2.962   2.808   2.172
74597ION    CL-46126  10.396  11.125   2.793
74598ION    CL-46127  21.082   6.315   3.602
74599ION    CL-46128  20.298  31.525  14.656
74600ION    CL-46129  29.426  38.635   2.269
74601ION    CL-46130  14.970  30.920  14.007
74602ION    CL-46131  29.311  13.472   1.047
74603ION    CL-46132  26.604  11.710   0.904
74604ION    CL-46133  31.671  21.436   0.694
74605ION    CL-46134  23.897  10.908   4.133
74606ION    CL-46135  36.778  35.365  11.045
74607ION    CL-46136  30.562  44.348   0.903
74608ION    CL-46137   5.104  16.559  11.063
74609ION    CL-46138  22.158  10.735   0.266
74610ION    CL-46139  30.989  41.341   4.163
74611ION    CL-46140  36.777   9.750  11.472
74612ION    CL-46141  24.917  20.126   4.169
74613ION    CL-46142  41.510  27.161   2.760
74614ION    CL-46143  36.436  19.524  11.845
74615ION    CL-46144  23.408  10.782  12.249
74616ION    CL-46145  12.556  19.656   3.204
74617ION    CL-46146  12.866   4.992  11.764
74618ION    CL-46147  18.535   9.432  12.353
74619ION    CL-46148  39.646  15.645   1.083
74620ION    CL-46149  16.284  10.942   1.688
74621ION    CL-46150  22.334  36.206   3.959
74622ION    CL-46151  44.494  15.752  11.587
74623ION    CL-46152  36.459  15.858   4.996
74624ION    CL-46153  29.159  27.099   0.884
74625ION    CL-46154  16.195  35.880   4.978
74626ION    CL-46155   2.511  19.123  14.269
74627ION    CL-46156  37.299  28.833  12.159
74628ION    CL-46157  31.459  20.888   1.344
74629ION    CL-46158   6.209  22.261  10.588
74630ION    CL-46159  22.470  12.964   3.925
74631ION    CL-46160  29.373  16.040   1.788
74632ION    CL-46161  11.606   1.392  14.894
74633ION    CL-46162   6.305  15.641  12.908
74634ION    CL-46163  12.422  39.526  14.833
74635ION    CL-46164  15.582  36.125   1.763
74636ION    CL-46165  12.094  19.570  11.491
74637ION    CL-46166   0.418   5.624  13.512
74638ION    CL-46167  20.225  35.105   1.401
74639ION    CL-46168  22.581  21.816  12.271
74640ION    CL-46169  31.442  28.134   1.220
74641ION    CL-46170  25.642  27.315   2.475
74642ION    CL-46171  24.568  37.970  14.219
74643ION    CL-46172  18.372  37.457  10.131
74644ION    CL-46173   8.934  35.227  10.850
74645ION    CL-46174  21.263  20.107  11.118
74646ION    CL-46175  38.872  35.917   0.112
74647ION    CL-46176  11.578  41.499  14.889
74648ION    CL-46177   4.926  42.946  12.960
74649ION    CL-46178   6.208   8.656   2.340
74650ION    CL-46179  18.530  28.994  14.514
74651ION    CL-46180   9.897  22.998   2.418
74652ION    CL-46181  20.050  38.271   4.053
74653ION    CL-46182  11.512  18.591   3.671
74654ION    CL-46183   3.390  11.210   1.716
74655ION    CL-46184  17.124   8.111   4.049
74656ION    CL-46185  24.290  31.534  12.043
74657ION    CL-46186  30.189   7.404  12.330
74658ION    CL-46187  37.206  34.541  13.560
74659ION    CL-46188  10.024  31.408   2.298
74660ION    CL-46189  28.589  19.692  13.572
74661ION    CL-46190  22.960  12.640  11.188
74662ION    CL-46191  17.494   5.653  11.165
74663ION    CL-46192  36.022  33.136  12.407
74664ION    CL-46193  14.217  12.841  11.504
74665ION    CL-46194  15.226   0.371  11.617
74666ION    CL-46195  35.650  44.586   4.179
74667ION    CL-46196  13.651  26.541  14.348
74668ION    CL-46197  35.818  36.182  10.817
74669ION    CL-46198  15.625  32.564  14.490
74670ION    CL-46199  11.579  30.341  12.057
74671ION    CL-46200  41.927  21.996   5.142
74672ION    CL-46201  18.159   3.771  11.186
74673ION    CL-46202  33.673  43.074   1.829
74674ION    CL-46203  10.719   1.130   2.886
74675ION    CL-46204  16.600  20.685   2.883
74676ION    CL-46205  24.441  23.574  12.582
74677ION    CL-46206  10.405   1.043  13.927
74678ION    CL-46207  18.938   9.543   3.932
74679ION    CL-46208  24.398  25.304  12.307
74680ION    CL-46209  43.366  29.146  10.767
74681ION    CL-46210  29.867   8.621   0.939
74682ION    CL-46211  37.211  21.659  13.391
74683ION    CL-46212   3.412  18.316   3.889
74684ION    CL-46213   5.460  25.946   3.899
74685ION    CL-46214  21.583  34.648   0.906
74686ION    CL-46215  34.602  36.780  14.918
74687ION    CL-46216  44.298   2.975  12.922
74688ION    CL-46217  20.091  15.308   0.541
74689ION    CL-46218   3.555  32.603  13.153
74690ION    CL-46219  28.010  28.979  14.193
74691ION    CL-46220  12.761  23.555  11.693
74692ION    CL-46221   9.076  24.593   4.951
74693ION    CL-46222  30.619  19.307   1.836
74694ION    CL-46223  33.650   1.409   3.442
74695ION    CL-46224   4.486  36.512  12.443
74696ION    CL-46225  28.712  39.362   2.244
74697ION    CL-46226  14.717  30.444   2.974
74698ION    CL-46227   0.901  44.745   3.671
74699ION    CL-46228   5.221  31.587  12.553
74700ION    CL-46229  27.458  11.086  13.576
74701ION    CL-46230  39.506  31.283   3.085
74702ION    CL-46231  11.484  33.938  12.699
74703ION    CL-46232   8.775  30.537   4.997
74704ION    CL-46233  29.581  28.623  13.881
74705ION    CL-46234  43.136  32.017   0.739
74706ION    CL-46235  43.783  11.894  12.493
74707ION    CL-46236  12.061  14.612   2.482
74708ION    CL-46237  21.902  14.816  13.232
74709ION    CL-46238   5.144  41.913  13.841
74710ION    CL-46239   4.543  35.062  12.352
74711ION    CL-46240  30.171  26.438   0.811
74712ION    CL-46241  37.576  10.415  13.217
74713ION    CL-46242  31.216  42.074  13.012
74714ION    CL-46243   3.066  30.483  11.310
74715ION    CL-46244  28.859   7.109  11.225
74716ION    CL-46245  44.817  11.302   4.396
74717ION    CL-46246  41.989  37.896  12.611
74718ION    CL-46247  36.246  34.511   2.955
74719ION    CL-46248   9.715  20.171   2.639
74720ION    CL-46249   7.562  17.446  12.477
74721ION    CL-46250   8.213  20.415  12.936
74722ION    CL-46251  15.873  23.272   3.770
74723ION    CL-46252  13.852  13.157   1.742
74724ION    CL-46253  41.678  39.393  11.090
74725ION    CL-46254   3.022   7.005  12.279
74726ION    CL-46255  14.548   9.443   0.862
74727ION    CL-46256  28.216  39.505   0.947
74728ION    CL-46257   5.419   0.952   1.964
74729ION    CL-46258  14.313  18.154  14.325
74730ION    CL-46259   1.775   7.153  13.353
74731ION    CL-46260  37.735  22.037   1.728
74732ION    CL-46261  31.868  36.685  13.482
74733ION    CL-46262  30.887   6.285  12.078
74734ION    CL-46263  44.046  11.101  14.807
74735ION    CL-46264  35.968  37.225  13.516
74736ION    CL-46265   3.796  36.057  13.720
74737ION    CL-46266  21.416   9.660  11.090
74738ION    CL-46267   1.949  38.512  11.156
74739ION    CL-46268  12.647  20.636  14.174
74740ION    CL-46269  37.978  10.638  10.983
74741ION    CL-46270   4.176  25.997   0.342
74742ION    CL-46271   4.342  20.218   5.208
74743ION    CL-46272  32.969  21.705  12.355
74744ION    CL-46273   8.690  31.436  12.418
74745ION    CL-46274   1.708  27.216   4.095
74746ION    CL-46275  40.053  42.897   1.520
74747ION    CL-46276  31.683  30.737   3.923
74748ION    CL-46277  19.539  28.277   0.082
74749ION    CL-46278   2.589   6.401  10.361
74750ION    CL-46279  34.897  16.475   1.713
74751ION    CL-46280  14.732  27.896  12.343
74752ION    CL-46281  27.906  34.569  13.971
74753ION    CL-46282  24.685   7.384  13.784
74754ION    CL-46283   9.360  21.042  11.627
74755ION    CL-46284   8.644  15.581   5.048
74756ION    CL-46285  40.056  42.493   3.456
74757ION    CL-46286   4.715  13.065  11.501
74758ION    CL-46287  42.496  27.296   3.665
74759ION    CL-46288  11.322   9.947   0.761
74760ION    CL-46289  30.548  44.006  14.945
74761ION    CL-46290  30.672   1.080  12.902
74762ION    CL-46291  25.959  26.501   4.135
74763ION    CL-46292  15.550  26.188   0.909
74764ION    CL-46293  24.925  10.294  14.409
74765ION    CL-46294  25.134  20.106  12.996
74766ION    CL-46295  18.313  20.050  14.235
74767ION    CL-46296   6.428  11.734   3.119
74768ION    CL-46297  22.743   5.431  13.996
74769ION    CL-46298  13.284  23.747  12.574
74770ION    CL-46299  43.490  29.945   0.017
74771ION    CL-46300  18.301  15.098   1.105
74772ION    CL-46301  23.940  12.458  10.999
74773ION    CL-46302  11.598  25.206  12.883
74774ION    CL-46303  32.079  14.376   2.693
74775ION    CL-46304  16.024  23.525  10.527
74776ION    CL-46305  31.120  19.436  12.429
74777ION    CL-46306  22.973   6.555   3.352
74778ION    CL-46307  36.822  44.409   3.842
74779ION    CL-46308  42.494   6.656   2.463
74780ION    CL-46309   0.245  14.733   2.693
74781ION    CL-46310  13.138   5.047  10.920
74782ION    CL-46311  22.939  14.745   2.983
74783ION    CL-46312  21.963   5.818   1.195
74784ION    CL-46313  20.364   1.422   4.087
74785ION    CL-46314  40.433  19.168   1.018
74786ION    CL-46315  24.553   5.496  10.852
74787ION    CL-46316  13.162  23.085  13.467
74788ION    CL-46317  28.111  27.628   1.435
74789ION    CL-46318  16.163  30.425  12.344
74790ION    CL-46319  23.273  42.917   5.045
74791ION    CL-46320   8.158  17.133   2.376
74792ION    CL-46321  10.460  17.936   2.561
74793ION    CL-46322  29.104   9.647   0.868
74794ION    CL-46323   6.893  17.044  10.888
74795ION    CL-46324  40.359  23.127  14.336
74796ION    CL-46325  19.220  18.683  12.976
74797ION    CL-46326  26.260  35.448  14.330
74798ION    CL-46327  23.542  43.044  11.229
74799ION    CL-46328  25.525  17.627   1.274
74800ION    CL-46329  16.316  19.176   0.435
74801ION    CL-46330   8.247  33.415  14.995
74802ION    CL-46331   5.841  33.182   3.755
74803ION    CL-46332   7.616   9.347   3.366
74804ION    CL-46333  21.782  24.434   2.111
74805ION    CL-46334   8.879  29.050  13.878
74806ION    CL-46335   8.802  18.744  13.121
74807ION    CL-46336   9.183  35.174   2.829
74808ION    CL-46337  12.408   9.790  13.502
74809ION    CL-46338   2.405   2.987   3.533
74810ION    CL-46339  31.542   5.970   0.953
74811ION    CL-46340   7.365  19.082  11.379
74812ION    CL-46341  19.578  41.886   1.326
74813ION    CL-46342  11.682  24.971   1.382
74814ION    CL-46343  28.360  15.314  10.197
74815ION    CL-46344  10.676  19.344   3.638
74816ION    CL-46345  44.594   4.499  13.478
74817ION    CL-46346  23.652  39.813   3.123
74818ION    CL-46347   3.072  28.237   1.899
74819ION    CL-46348   2.915  11.612  14.962
74820ION    CL-46349  15.387   6.300   4.763
74821ION    CL-46350  10.495  38.785  13.859
74822ION    CL-46351   4.274   3.377   1.080
74823ION    CL-46352  26.255  20.031  12.980
74824ION    CL-46353   2.723   3.365   1.374
74825ION    CL-46354  41.133  40.919  12.592
74826ION    CL-46355  22.629  40.991  12.086
74827ION    CL-46356  37.514  17.298   0.818
74828ION    CL-46357  17.148  15.438  14.131
74829ION    CL-46358  38.734   3.698  13.604
74830ION    CL-46359  10.813  30.140   3.240
74831ION    CL-46360  22.529  20.388   0.379
74832ION    CL-46361  18.684  21.564   0.922
74833ION    CL-46362  22.679   0.219  14.712
74834ION    CL-46363  26.366  25.045   1.650
74835ION    CL-46364  44.187   8.437   1.657
74836ION    CL-46365  41.879  25.249   2.693
74837ION    CL-46366  21.539  34.869  13.560
74838ION    CL-46367  17.440  35.724   9.917
74839ION    CL-46368  43.674  23.963   3.111
74840ION    CL-46369  18.417   9.317  14.989
74841ION    CL-46370  15.922  13.287  11.462
74842ION    CL-46371   8.577  26.025   2.670
74843ION    CL-46372   2.699  21.756  11.944
74844ION    CL-46373  13.312  28.297  13.355
74845ION    CL-46374  36.464  20.603  14.746
74846ION    CL-46375  37.414  44.784  10.629
74847ION    CL-46376   4.990  17.517  10.309
74848ION    CL-46377  15.910   0.828  12.298
74849ION    CL-46378  15.679  18.693   1.485
74850ION    CL-46379  16.149  20.060  11.115
74851ION    CL-46380  36.967  33.976  13.985
74852ION    CL-46381  33.842   2.636   4.293
74853ION    CL-46382  17.385  18.990  14.759
74854ION    CL-46383  32.870  32.159  13.222
74855ION    CL-46384  24.375  38.066  10.916
74856ION    CL-46385  29.166  37.724  13.148
74857ION    CL-46386  31.596  22.556  11.127
74858ION    CL-46387  28.120   1.979   1.363
74859ION    CL-46388  44.696  35.512  11.965
74860ION    CL-46389  33.741  24.540   3.858
74861ION    CL-46390  37.535  30.605   2.827
74862ION    CL-46391  25.390  27.692  11.523
74863ION    CL-46392  17.487  30.670   0.119
74864ION    CL-46393  28.080  41.332  10.536
74865ION    CL-46394  30.463  10.846  11.605
74866ION    CL-46395  33.737  20.256  12.495
74867ION    CL-46396   5.914  11.271  12.826
74868ION    CL-46397   1.974  27.062   0.225
74869ION    CL-46398  14.941  38.869  14.204
74870ION    CL-46399  39.384  34.880  14.144
74871ION    CL-46400  35.303  18.187  10.383
74872ION    CL-46401  19.114  12.541   1.422
74873ION    CL-46402  15.921  39.644   0.625
74874ION    CL-46403  16.085  28.531  10.716
74875ION    CL-46404  19.000  22.181  12.528
74876ION    CL-46405   0.458  26.489   2.805
74877ION    CL-46406   1.158  33.079  12.964
74878ION    CL-46407  15.613  39.775  13.484
74879ION    CL-46408   8.985  40.332  12.326
74880ION    CL-46409  22.912  11.027   4.014
74881ION    CL-46410  36.399  36.609   3.926
74882ION    CL-46411  41.297  32.855   0.448
74883ION    CL-46412   8.731   9.626  10.359
74884ION    CL-46413  33.354  37.885   3.798
74885ION    CL-46414  31.783  15.547  12.202
74886ION    CL-46415  10.264   8.023  12.539
74887ION    CL-46416  16.870  12.817  11.665
74888ION    CL-46417   0.413  21.626   2.817
74889ION    CL-46418  41.955  12.896  14.743
74890ION    CL-46419  25.038  18.378   2.825
74891ION    CL-46420   0.006  34.116  11.328
74892ION    CL-46421   5.794  40.631  13.318
74893ION    CL-46422  35.688  37.910  14.070
74894ION    CL-46423  33.939  18.221   1.376
74895ION    CL-46424  39.649   4.009  11.100
74896ION    CL-46425  15.630  10.367  13.935
74897ION    CL-46426   8.276  26.036  10.782
74898ION    CL-46427  29.972  41.112   1.283
74899ION    CL-46428  11.871   9.665  12.668
74900ION    CL-46429  17.006  34.175  11.976
74901ION    CL-46430  20.408  10.046   0.751
74902ION    CL-46431  11.890  27.126   4.140
74903ION    CL-46432   6.821  29.545  11.917
74904ION    CL-46433  10.112  37.146   2.342
74905ION    CL-46434  29.267  16.673  13.548
74906ION    CL-46435  12.098  37.603   1.313
74907ION    CL-46436  43.089  22.425   1.887
74908ION    CL-46437  34.685   0.054   2.261
74909ION    CL-46438  42.653  29.596  14.455
74910ION    CL-46439   7.224  35.771  10.347
74911ION    CL-46440   3.161  30.722  13.408
74912ION    CL-46441  36.261  43.421   0.456
74913ION    CL-46442  24.256  15.619  13.485
74914ION    CL-46443  42.649  31.076   3.667
74915ION    CL-46444  29.088  17.138   2.617
74916ION    CL-46445  30.695  41.937  14.998
74917ION    CL-46446   8.939  27.990  10.639
74918ION    CL-46447  32.454  32.229   1.166
74919ION    CL-46448  16.017  36.130  11.188
74920ION    CL-46449   9.808  43.950   3.647
74921ION    CL-46450  13.692   3.074  11.671
74922ION    CL-46451  41.272  39.092  12.003
74923ION    CL-46452   7.881  17.549  13.969
74924ION    CL-46453  13.196  30.100   0.804
74925ION    CL-46454  21.984   4.019  14.958
74926ION    CL-46455  30.366   1.887  12.354
74927ION    CL-46456  25.045  43.487  14.872
74928ION    CL-46457  27.460  13.657   2.093
74929ION    CL-46458  35.588  10.297   0.230
74930ION    CL-46459  39.844   2.867   3.283
74931ION    CL-46460  29.662   3.898   4.128
74932ION    CL-46461  40.513  14.068  13.073
74933ION    CL-46462  22.842   8.241   2.799
74934ION    CL-46463  40.811   5.306   2.874
74935ION    CL-46464   6.798   8.306   0.328
74936ION    CL-46465  17.968  30.097  11.291
74937ION    CL-46466  26.387  12.360  13.914
74938ION    CL-46467  32.443  17.578  12.482
74939ION    CL-46468  43.528  15.651   4.638
74940ION    CL-46469  42.526   0.946  14.496
74941ION    CL-46470  41.099  12.992   0.416
74942ION    CL-46471  27.893   0.973  10.570
74943ION    CL-46472  13.162  19.238   3.737
74944ION    CL-46473  25.852  30.250   2.230
74945ION    CL-46474  36.609  14.714  14.759
74946ION    CL-46475  10.268   5.472  10.938
74947ION    CL-46476  10.344  41.844   1.844
74948ION    CL-46477  34.223  34.533   0.520
74949ION    CL-46478  43.165   0.171   4.969
74950ION    CL-46479   7.169  22.054   4.918
74951ION    CL-46480  42.201  13.927   5.026
74952ION    CL-46481  22.146  32.050  13.243
74953ION    CL-46482   7.706  22.530  13.374
74954ION    CL-46483  24.737  25.384   3.255
74955ION    CL-46484  39.074  34.435   2.233
74956ION    CL-46485   0.762  16.095   1.253
74957ION    CL-46486  25.894  20.680   1.265
74958ION    CL-46487   2.205  25.035   0.388
74959ION    CL-46488  38.376   5.158   3.241
74960ION    CL-46489  16.275  19.264  14.001
74961ION    CL-46490   9.064  33.563   0.553
74962ION    CL-46491  22.705  14.164   0.457
74963ION    CL-46492  15.683  11.489   9.654
74964ION    CL-46493  31.587   8.225  10.652
74965ION    CL-46494   5.963  24.007  11.404
74966ION    CL-46495  39.116  13.710   2.066
74967ION    CL-46496  35.430  28.953   0.853
74968ION    CL-46497  24.344  37.808   1.506
74969ION    CL-46498  20.934  38.993   4.628
74970ION    CL-46499  28.557  31.763  12.712
74971ION    CL-46500  42.719   6.285   1.513
74972ION    CL-46501  26.417   2.046   0.844
74973ION    CL-46502  27.906  27.089  12.093
74974ION    CL-46503  26.429  25.949  14.293
74975ION    CL-46504   4.523  31.551  11.417
74976ION    CL-46505   0.401  17.954  13.543
74977ION    CL-46506  20.089  22.818  10.884
74978ION    CL-46507  34.816   2.837  10.991
74979ION    CL-46508  43.290   1.441   2.996
74980ION    CL-46509  34.770  13.684   0.384
74981ION    CL-46510   7.971   8.720   2.161
74982ION    CL-46511  27.493  12.808  12.754
74983ION    CL-46512  41.855  26.475   5.044
74984ION    CL-46513  27.507  24.212  13.826
74985ION    CL-46514  31.528  17.858   2.655
74986ION    CL-46515  26.547  10.574   1.182
74987ION    CL-46516  20.566  26.564  10.210
74988ION    CL-46517  25.522  40.326   0.928
74989ION    CL-46518   5.737   4.432   3.179
74990ION    CL-46519   1.268  37.992  14.355
74991ION    CL-46520  15.077  44.060   3.742
74992ION    CL-46521  38.094  17.852  12.987
74993ION    CL-46522  11.435  35.177  12.308
74994ION    CL-46523  18.974   9.354  13.157
74995ION    CL-46524  34.963  15.527  14.075
74996ION    CL-46525  44.101  37.511  11.692
74997ION    CL-46526  34.687  39.929  12.981
74998ION    CL-46527  22.611  43.879   1.451
74999ION    CL-46528   5.260  27.400   0.238
75000ION    CL-46529  27.076  32.382  11.113
75001ION    CL-46530  37.495  12.544   2.527
75002ION    CL-46531  11.915  17.669  11.496
75003ION    CL-46532   6.171  26.991   4.039
75004ION    CL-46533  38.906  41.801   2.796
75005ION    CL-46534  26.498  35.385  12.569
75006ION    CL-46535   2.388   5.988  12.045
75007ION    CL-46536  29.876  13.167  10.110
75008ION    CL-46537  14.480  15.642   1.071
75009ION    CL-46538  37.813  37.064  13.007
75010ION    CL-46539  24.941  19.637   0.466
75011ION    CL-46540  33.183  34.851   3.896
75012ION    CL-46541  24.112  42.877   4.358
75013ION    CL-46542  17.625  23.524  11.533
75014ION    CL-46543  33.651  11.783  11.552
75015ION    CL-46544   2.228  14.399  11.812
75016ION    CL-46545  42.170  44.931  13.530
75017ION    CL-46546   5.135   1.312  12.107
75018ION    CL-46547  42.073  18.768  14.773
75019ION    CL-46548   9.817  20.354   0.725
75020ION    CL-46549  11.452  32.566  14.020
75021ION    CL-46550  22.164  27.659  14.948
75022ION    CL-46551   2.836  32.314  13.373
75023ION    CL-46552  28.922  31.490   2.492
75024ION    CL-46553   0.013  35.418  14.240
75025ION    CL-46554  29.506  44.479  11.360
75026ION    CL-46555  26.756  12.110   3.482
75027ION    CL-46556  40.970   6.056  11.225
75028ION    CL-46557   8.323  42.325   1.265
75029ION    CL-46558   8.587   4.734  14.437
75030ION    CL-46559   4.643  44.403   3.101
75031ION    CL-46560  17.440   7.991   5.567
75032ION    CL-46561  21.108  33.390  11.236
75033ION    CL-46562  16.991  42.246  13.501
75034ION    CL-46563  35.340   8.691  13.462
75035ION    CL-46564  36.546  12.534  13.094
75036ION    CL-46565  17.792  43.400   4.420
75037ION    CL-46566  26.632  27.450  14.318
75038ION    CL-46567  36.700  44.017   2.185
75039ION    CL-46568  28.909   4.871   1.307
75040ION    CL-46569   3.871   3.609  10.818
75041ION    CL-46570  44.522  23.381  12.517
75042ION    CL-46571  42.341  24.963  11.678
75043ION    CL-46572  36.587  44.754  13.222
75044ION    CL-46573   0.872  25.481   1.358
75045ION    CL-46574   0.128  39.513   5.047
75046ION    CL-46575  19.800  33.946   4.982
75047ION    CL-46576  37.568  30.207   1.469
75048ION    CL-46577  43.739  23.141  13.530
75049ION    CL-46578  34.437  20.304  13.718
75050ION    CL-46579  40.604  35.556  12.425
75051ION    CL-46580   6.054   2.612   3.102
75052ION    CL-46581  41.612   9.826  13.060
75053ION    CL-46582  28.733  18.604  13.057
75054ION    CL-46583   0.037  36.863  14.013
75055ION    CL-46584  16.089  38.813  13.359
75056ION    CL-46585   0.666   3.077  14.999
75057ION    CL-46586  10.989  27.484   0.004
75058ION    CL-46587  23.128   8.185  11.060
75059ION    CL-46588  13.637  43.526  11.217
75060ION    CL-46589  29.053  38.593  13.431
75061ION    CL-46590  14.316   9.729  13.073
75062ION    CL-46591  42.557  43.345   1.760
75063ION    CL-46592  20.058  13.779   2.431
75064ION    CL-46593   4.813  15.759   1.301
75065ION    CL-46594   3.791  24.800  12.142
75066ION    CL-46595  24.050  26.154  11.913
75067ION    CL-46596   1.001  34.240  14.632
75068ION    CL-46597  36.453  25.208   4.976
75069ION    CL-46598   8.032   3.373   1.131
75070ION    CL-46599  35.955  12.918   3.495
75071ION    CL-46600  18.836  30.997  14.916
75072ION    CL-46601  42.519  17.208  12.089
75073ION    CL-46602  36.343  11.755  11.439
75074ION    CL-46603   8.630  13.537   5.158
75075ION    CL-46604  17.216  12.218   4.301
75076ION    CL-46605   4.832   8.111  13.218
75077ION    CL-46606  25.447  21.300  11.106
75078ION    CL-46607   9.087   3.383  10.112
75079ION    CL-46608  37.453  25.761   0.975
75080ION    CL-46609   4.089  16.781   2.820
75081ION    CL-46610  11.440  28.514   3.381
75082ION    CL-46611  19.108  44.208   2.393
75083ION    CL-46612  42.004  28.242  12.535
75084ION    CL-46613  11.539  31.091  13.598
75085ION    CL-46614  13.288   2.355   2.958
75086ION    CL-46615  34.377   7.943   1.316
75087ION    CL-46616  13.881  15.115   1.971
75088ION    CL-46617  37.965   0.561   0.924
75089ION    CL-46618  31.156  11.531   2.857
75090ION    CL-46619  24.666  33.307  12.992
75091ION    CL-46620  42.060  26.248   2.846
75092ION    CL-46621   2.890  18.884  11.277
75093ION    CL-46622   8.754  34.470  11.478
75094ION    CL-46623   7.975  11.367  10.419
75095ION    CL-46624  41.248  28.788  12.897
75096ION    CL-46625  32.901   5.307   2.218
75097ION    CL-46626  17.183  21.402  13.571
75098ION    CL-46627  30.466  21.602  13.263
75099ION    CL-46628  14.455  27.341  14.677
75100ION    CL-46629  39.628  22.563   0.485
75101ION    CL-46630  34.263  40.147   0.957
75102ION    CL-46631  36.100  21.735   0.315
75103ION    CL-46632  20.888  24.507   2.900
75104ION    CL-46633  42.394   7.014  11.257
75105ION    CL-46634  27.585  21.820   2.945
75106ION    CL-46635  32.308  34.909  12.985
75107ION    CL-46636  22.266   4.269   0.908
75108ION    CL-46637  36.829   2.267   0.719
75109ION    CL-46638   8.403  35.551  13.318
75110ION    CL-46639  27.499  40.937  11.523
  45.00000  45.00000  15.00000
